Title
29212
    1ASP      N    1   3.536   2.962   2.518 -0.1172  0.0357 -0.2951
    1ASP    HT1    2   3.498   2.995   2.609 -0.6132  2.4869 -1.3206
    1ASP    HT2    3   3.576   2.867   2.534  0.2481  0.1248 -0.6657
    1ASP    HT3    4   3.464   2.963   2.442 -0.1756  2.1448 -0.2705
    1ASP     CA    5   3.652   3.051   2.488  0.3552  0.0397  0.0820
    1ASP     HA    6   3.699   3.002   2.403  3.2215 -1.6740  2.4502
    1ASP     CB    7   3.594   3.196   2.464  0.0348 -0.5843  0.2458
    1ASP    HB1    8   3.565   3.250   2.556  1.2692  0.7291 -0.1132
    1ASP    HB2    9   3.508   3.201   2.393  1.0795  1.8074 -0.9517
    1ASP     CG   10   3.695   3.276   2.389  0.6231  0.1363  0.3212
    1ASP    OD1   11   3.693   3.400   2.385 -0.1676 -0.2381  0.3139
    1ASP    OD2   12   3.783   3.213   2.320 -0.1699 -0.0322 -0.3266
    1ASP      C   13   3.748   3.051   2.602  0.0519 -0.0537  0.4019
    1ASP      O   14   3.714   3.017   2.716 -0.0016  0.1762  0.5626
    2GLY      N   15   3.870   3.095   2.575 -0.2156 -0.7994 -0.5594
    2GLY     HN   16   3.891   3.129   2.484  1.0713  1.1195  0.4060
    2GLY     CA   17   3.970   3.096   2.680 -0.1469  0.6803  0.1148
    2GLY    HA1   18   4.062   3.044   2.656  1.5816  2.5347  2.2034
    2GLY    HA2   19   3.928   3.044   2.765 -0.0394 -0.8934 -0.7713
    2GLY      C   20   4.006   3.239   2.719  0.2603 -0.0558  0.1032
    2GLY      O   21   3.915   3.323   2.753  0.3533  0.1015  0.3854
    3ASP      N   22   4.132   3.274   2.718  0.2293 -0.4918  0.9797
    3ASP     HN   23   4.198   3.207   2.684  0.8856  0.9500 -0.7735
    3ASP     CA   24   4.184   3.405   2.764  0.3909  0.3058 -0.3075
    3ASP     HA   25   4.163   3.416   2.870 -0.4606  0.0642 -0.4475
    3ASP     CB   26   4.334   3.414   2.754 -0.8351  0.4580 -0.5475
    3ASP    HB1   27   4.370   3.515   2.783  1.4182  0.0102 -1.5731
    3ASP    HB2   28   4.375   3.383   2.655  1.6928  3.3948 -0.5425
    3ASP     CG   29   4.399   3.312   2.849 -0.3299  0.3119  0.6522
    3ASP    OD1   30   4.473   3.218   2.801 -0.2192 -0.5754  0.4798
    3ASP    OD2   31   4.379   3.333   2.973  0.0417  0.6805 -0.0605
    3ASP      C   32   4.127   3.531   2.698  0.4750  0.7252  0.6215
    3ASP      O   33   4.076   3.530   2.584  0.4128  0.4653  0.5888
    4GLY      N   34   4.117   3.641   2.779 -0.2051  0.0276  0.1742
    4GLY     HN   35   4.169   3.649   2.864 -0.9628 -0.1598  0.6562
    4GLY     CA   36   4.054   3.764   2.746  0.1501 -0.5379  0.1444
    4GLY    HA1   37   4.065   3.832   2.829  1.4533 -0.2144 -0.2521
    4GLY    HA2   38   3.948   3.753   2.729  0.6163 -1.8275 -2.4088
    4GLY      C   39   4.119   3.834   2.628 -0.0297 -0.3280 -0.1115
    4GLY      O   40   4.224   3.791   2.579  0.2217 -0.4482 -0.3379
    5PRO      N   41   4.061   3.945   2.580 -0.1605  0.2823  0.4396
    5PRO     CD   42   3.946   4.015   2.634 -0.6675  0.8406 -0.1097
    5PRO    HD1   43   3.951   4.012   2.745 -0.2540  0.4129 -0.1367
    5PRO    HD2   44   3.856   3.955   2.610  0.2863  0.4237 -3.0184
    5PRO     CA   45   4.100   4.000   2.446 -0.0501  0.0684  0.3559
    5PRO     HA   46   4.095   3.921   2.373 -0.9239 -0.4876  1.0017
    5PRO     CB   47   3.993   4.117   2.418 -0.4103  0.0699 -1.0792
    5PRO    HB1   48   3.916   4.062   2.360 -0.4721 -1.2158  0.1548
    5PRO    HB2   49   4.032   4.200   2.356  0.3107  1.1581  0.7652
    5PRO     CG   50   3.957   4.156   2.564 -0.2992 -0.2126  0.1275
    5PRO    HG1   51   4.029   4.219   2.619 -0.8654 -0.7283  1.5076
    5PRO    HG2   52   3.858   4.206   2.560  0.7916  2.0367  0.0562
    5PRO      C   53   4.235   4.063   2.452  0.1972 -1.2141 -0.5397
    5PRO      O   54   4.303   4.085   2.350  0.1727 -0.3655  0.4634
    6GLY      N   55   4.289   4.105   2.572  0.1529 -0.0122 -0.3170
    6GLY     HN   56   4.230   4.096   2.652 -0.1267  1.1425 -0.3771
    6GLY     CA   57   4.427   4.155   2.592  0.0238 -0.8004  0.5313
    6GLY    HA1   58   4.438   4.189   2.694  0.0635 -0.4644  0.4158
    6GLY    HA2   59   4.446   4.231   2.517 -1.5633 -0.2531  0.6376
    6GLY      C   60   4.536   4.048   2.568 -0.4808 -0.0947  0.0275
    6GLY      O   61   4.656   4.078   2.547  0.4351  0.1353  0.2680
    7ASP      N   62   4.503   3.918   2.580  0.3695 -0.4694 -0.0342
    7ASP     HN   63   4.410   3.883   2.587  0.1189 -0.6552 -2.9907
    7ASP     CA   64   4.594   3.810   2.568  0.1857  0.1790 -0.4349
    7ASP     HA   65   4.696   3.844   2.578  0.7955 -1.4776 -0.6108
    7ASP     CB   66   4.543   3.705   2.676 -0.5835 -0.7908 -0.7194
    7ASP    HB1   67   4.601   3.610   2.679 -1.3152 -1.2406  1.8404
    7ASP    HB2   68   4.438   3.681   2.650 -0.6769 -0.3944 -0.7180
    7ASP     CG   69   4.544   3.760   2.819 -0.2388  0.1392 -0.2595
    7ASP    OD1   70   4.645   3.815   2.862  0.2837  0.0013  0.1427
    7ASP    OD2   71   4.440   3.748   2.881 -0.3429 -0.1358 -0.3813
    7ASP      C   72   4.584   3.740   2.428  0.0868 -0.6122  0.1524
    7ASP      O   73   4.485   3.762   2.357 -0.1552  0.4078  0.2808
    8PRO      N   74   4.682   3.655   2.388  0.4309 -0.9334 -0.3490
    8PRO     CD   75   4.819   3.666   2.430 -0.2819  0.0689  0.1569
    8PRO    HD1   76   4.824   3.605   2.522  0.6602  1.0566  0.7801
    8PRO    HD2   77   4.849   3.768   2.462  0.5404 -0.2933  0.5674
    8PRO     CA   78   4.668   3.566   2.274 -0.1888 -0.3566  0.1186
    8PRO     HA   79   4.664   3.631   2.188 -0.9133 -1.4661 -0.7142
    8PRO     CB   80   4.798   3.483   2.272  0.0475 -0.4156  0.2078
    8PRO    HB1   81   4.820   3.458   2.166  0.0145 -0.3013  0.1729
    8PRO    HB2   82   4.809   3.401   2.346  0.3893 -0.0183  0.6029
    8PRO     CG   83   4.897   3.593   2.322  0.1400 -0.0293  0.3720
    8PRO    HG1   84   4.993   3.543   2.349 -0.2120 -1.2891 -0.5695
    8PRO    HG2   85   4.905   3.662   2.235 -2.9176  2.7802  2.0923
    8PRO      C   86   4.549   3.476   2.253 -0.1153  0.4832  0.4548
    8PRO      O   87   4.491   3.431   2.351  0.1181 -0.1951 -0.1219
    9GLY      N   88   4.507   3.447   2.131  0.3192  0.4751 -0.1580
    9GLY     HN   89   4.559   3.471   2.049  1.2883  0.4121  0.4315
    9GLY     CA   90   4.403   3.342   2.102 -0.2184 -0.2302 -0.1295
    9GLY    HA1   91   4.367   3.363   2.002  0.5211 -0.5520 -0.4704
    9GLY    HA2   92   4.329   3.347   2.180  1.4271  2.6123  1.4058
    9GLY      C   93   4.458   3.207   2.097  0.0175  0.9294 -0.6298
    9GLY      O   94   4.577   3.190   2.102  0.5101 -0.2042  0.3618
   10ASP      N   95   4.368   3.112   2.085  0.9565 -0.3078 -0.6563
   10ASP     HN   96   4.274   3.125   2.118  1.3218  0.4731  0.1132
   10ASP     CA   97   4.390   2.971   2.071 -0.1275  0.5089 -0.0163
   10ASP     HA   98   4.299   2.927   2.110 -0.9155  1.1183 -1.0953
   10ASP     CB   99   4.382   2.924   1.918 -0.5194  0.3537 -0.4428
   10ASP    HB1  100   4.367   2.814   1.919 -1.2871  0.3975  2.5560
   10ASP    HB2  101   4.482   2.935   1.870  0.4511 -3.0598  0.5207
   10ASP     CG  102   4.272   2.995   1.850 -0.0514 -0.8668  0.9777
   10ASP    OD1  103   4.157   2.966   1.893 -0.4932 -0.8696  0.7295
   10ASP    OD2  104   4.294   3.061   1.750 -0.6756  0.2141  0.6158
   10ASP      C  105   4.489   2.896   2.163  0.5329  0.9413 -0.0724
   10ASP      O  106   4.548   2.950   2.255 -0.6439 -0.3389 -0.3298
   11GLY      N  107   4.502   2.764   2.141 -0.2772  0.1487  0.7968
   11GLY     HN  108   4.446   2.715   2.074 -0.7759  1.8244 -0.0638
   11GLY     CA  109   4.586   2.687   2.226  0.3423  0.3915 -0.8935
   11GLY    HA1  110   4.652   2.753   2.281 -0.1454 -1.1164  1.6680
   11GLY    HA2  111   4.641   2.620   2.161 -0.4653 -0.1804 -0.9954
   11GLY      C  112   4.515   2.598   2.323 -0.2071 -0.4709  0.0425
   11GLY    OT1  113   4.537   2.607   2.448 -0.2737 -0.5465  1.0277
   11GLY    OT2  114   4.424   2.519   2.278  0.2356 -0.4343 -0.0099
   12SOD    SOD  115   4.864   2.507   4.768 -0.6165  0.0022  0.0366
   13SOD    SOD  116   6.456   1.611   2.372  0.0218 -0.0007  0.2455
   14SOD    SOD  117   1.438   6.187   4.213  0.3832 -0.0863 -0.3140
   15SOD    SOD  118   5.473   1.324   3.349  0.0871  0.3269 -0.2313
   16SOD    SOD  119   3.006   6.244   3.737  0.0497  0.4881  0.3086
   17SOD    SOD  120   2.023   4.576   1.425 -0.3944  0.0871 -0.6651
   18SOD    SOD  121   4.117   2.405   2.977 -0.2225 -0.2418  0.5006
   19SOD    SOD  122   0.591   6.531   1.721 -0.0199 -0.3552  0.3377
   20SOD    SOD  123   5.688   6.129   0.188 -0.1622  0.1871 -0.4813
   21SOD    SOD  124   5.850   3.988   1.896 -0.5511 -0.0423  0.2244
   22SOD    SOD  125   3.492   3.614   5.040 -0.0409 -0.2623  0.1408
   23SOD    SOD  126   3.532   2.550   1.704 -0.1408 -0.4005  0.3826
   24SOD    SOD  127   2.382   5.585   3.043  0.0198 -0.2163 -0.3844
   25SOD    SOD  128   3.431   3.706   1.358 -0.3911  0.1702 -0.5750
   26SOD    SOD  129   4.374   4.175   0.911 -0.4004 -0.0182  0.1464
   27SOD    SOD  130   6.942   4.385   5.508  0.1639 -0.0982  0.5508
   28SOD    SOD  131   2.486   6.580   3.058  0.7434  0.8484 -0.0516
   29SOD    SOD  132   0.853   3.332   5.641 -0.3286  0.1451  0.0233
   30SOD    SOD  133   3.003   5.019   0.480 -0.1430 -0.1249 -0.2182
   31SOD    SOD  134   6.987   3.394   4.227  0.5671  0.2320 -0.2903
   32SOD    SOD  135   1.048   0.790   3.123 -0.3622  0.4737 -0.2809
   33SOD    SOD  136   6.150   0.443   0.115  0.0859  0.0452 -0.2518
   34SOD    SOD  137   4.220   1.366   4.491  0.1850  0.0366  0.0942
   35SOD    SOD  138   0.424   0.241   2.175  0.0623 -0.4813 -0.3996
   36SOD    SOD  139   0.499   2.618   0.826  0.3603 -0.2043  0.3595
   37SOD    SOD  140   6.827   1.486   1.075 -0.2903  0.1423  0.2015
   38SOD    SOD  141   4.217   4.965   3.783  0.4334  0.1645  0.0383
   39SOD    SOD  142   3.483   1.190   0.412 -0.1455  0.0133 -0.0376
   40SOD    SOD  143   5.530   5.249   4.837 -0.0908  0.0769 -0.2516
   41SOD    SOD  144   6.030   3.347   0.161 -0.5315 -0.2728  0.2266
   42SOD    SOD  145   6.741   0.044   5.412  0.3169  0.0750 -0.1778
   43CLA    CLA  146   6.815   0.741   3.515  0.2473  0.1181  0.0673
   44CLA    CLA  147   2.128   3.077   4.770 -0.0241  0.3569  0.4448
   45CLA    CLA  148   4.353   3.987   0.123 -0.1123  0.3102  0.2736
   46CLA    CLA  149   0.955   6.607   5.277 -0.2047 -0.2434 -0.1604
   47CLA    CLA  150   1.842   3.463   5.722 -0.0817 -0.1899  0.1097
   48CLA    CLA  151   3.238   4.956   3.120 -0.0371 -0.2335 -0.1120
   49CLA    CLA  152   2.726   2.600   0.854 -0.0131 -0.4500  0.4253
   50CLA    CLA  153   6.970   4.335   1.893 -0.2436  0.1608  0.7424
   51CLA    CLA  154   4.347   1.917   4.792 -0.0712  0.4858 -0.1449
   52CLA    CLA  155   4.751   1.385   4.056 -0.1084  0.2819 -0.3512
   53CLA    CLA  156   5.515   0.394   1.853 -0.0967  0.1030 -0.0002
   54CLA    CLA  157   0.181   1.703   4.385  0.0878 -0.6789 -0.2889
   55CLA    CLA  158   0.676   0.645   2.116  0.1061  0.0248  0.3375
   56CLA    CLA  159   6.861   0.821   0.777 -0.0268 -0.0491 -0.0028
   57CLA    CLA  160   2.482   1.357   2.136 -0.5861 -0.3482  0.2275
   58CLA    CLA  161   3.140   5.851   3.211 -0.1178  0.1156  0.1524
   59CLA    CLA  162   0.367   4.257   3.290  0.3823  0.0201  0.1290
   60CLA    CLA  163   5.873   0.345   3.593 -0.2409  0.1663 -0.0182
   61CLA    CLA  164   2.281   0.353   0.233 -0.4918  0.2500 -0.1497
   62CLA    CLA  165   2.855   4.729   2.236 -0.0313  0.1632  0.0678
   63CLA    CLA  166   6.187   1.299   1.938 -0.1830 -0.1953  0.5545
   64CLA    CLA  167   4.677   4.766   4.572  0.0144  0.2572  0.3449
   65CLA    CLA  168   2.137   6.337   1.873  0.1791  0.2252  0.5947
   66CLA    CLA  169   7.000   6.346   1.060  0.1424 -0.0251  0.4290
   67CLA    CLA  170   2.530   1.027   3.393  0.2751 -0.4449 -0.2923
   68CLA    CLA  171   6.767   6.314   4.488 -0.4048 -0.2972 -0.1293
   69CLA    CLA  172   0.859   2.481   1.095  0.0375 -0.0349  0.3715
   70TIP3   OH2  173   1.393   5.822   1.681  0.2331  0.2783  0.2909
   70TIP3    H1  174   1.319   5.880   1.664  1.4053  1.0278 -3.0282
   70TIP3    H2  175   1.375   5.784   1.767 -3.2053  1.5484  0.2678
   71TIP3   OH2  176   0.106   4.206   1.619  0.2343 -0.5359 -0.4733
   71TIP3    H1  177   0.023   4.174   1.584 -0.2819 -1.2357  1.2654
   71TIP3    H2  178   0.082   4.249   1.701  1.4836  0.1275 -0.4385
   72TIP3   OH2  179   6.445   5.947   3.325 -0.0473 -0.0704 -0.5550
   72TIP3    H1  180   6.447   5.870   3.268  0.2416 -0.6910  0.2872
   72TIP3    H2  181   6.375   6.002   3.288 -1.5493 -1.5785 -0.0922
   73TIP3   OH2  182   4.510   2.216   5.028 -0.2236 -0.2819 -0.0015
   73TIP3    H1  183   4.523   2.198   4.935 -4.8042  0.4075 -1.0578
   73TIP3    H2  184   4.477   2.134   5.064  0.3680 -0.2017  0.7413
   74TIP3   OH2  185   3.066   5.919   0.779  0.3248  0.2301 -0.4830
   74TIP3    H1  186   3.113   5.837   0.760 -1.2332 -0.7413 -0.3289
   74TIP3    H2  187   3.005   5.928   0.706 -1.3358 -0.1623  0.8187
   75TIP3   OH2  188   1.376   1.820   1.567 -0.1721 -0.1934  0.6893
   75TIP3    H1  189   1.335   1.873   1.636  2.1328  0.9951  1.2727
   75TIP3    H2  190   1.402   1.884   1.501  1.7205 -0.6870  0.8974
   76TIP3   OH2  191   0.114   4.624   1.900  0.4298  0.9308  0.4483
   76TIP3    H1  192   0.161   4.683   1.841 -0.8248  1.4605 -0.0566
   76TIP3    H2  193   0.021   4.642   1.883  0.0381  0.0825  1.5783
   77TIP3   OH2  194   6.831   2.940   4.308  0.2270  0.2771  0.1023
   77TIP3    H1  195   6.767   2.950   4.379  0.7839 -0.0331  0.6544
   77TIP3    H2  196   6.912   2.976   4.344  0.5666 -0.0672 -0.3107
   78TIP3   OH2  197   1.530   2.312   5.638  0.3371 -0.6218  0.1224
   78TIP3    H1  198   1.590   2.300   5.712  1.9667  1.3001 -0.7759
   78TIP3    H2  199   1.506   2.223   5.612  0.2274 -1.3595  2.5057
   79TIP3   OH2  200   6.704   6.727   3.360  0.2216 -0.2103  0.6423
   79TIP3    H1  201   6.622   6.690   3.327 -0.4173  1.7983 -0.1579
   79TIP3    H2  202   6.685   6.820   3.371  2.8784  0.6228 -1.1512
   80TIP3   OH2  203   4.671   5.232   5.500  0.1918 -0.2501  0.1594
   80TIP3    H1  204   4.622   5.152   5.482  1.1678 -1.2417  1.6504
   80TIP3    H2  205   4.736   5.238   5.430 -0.3370 -0.3676 -0.3454
   81TIP3   OH2  206   5.173   6.161   3.489 -0.6533  0.0818 -0.2920
   81TIP3    H1  207   5.215   6.084   3.527 -1.2137 -0.0111  0.1578
   81TIP3    H2  208   5.195   6.157   3.396  0.5088  0.1648 -0.0316
   82TIP3   OH2  209   2.384   6.831   4.344 -0.2548  0.4761  0.2327
   82TIP3    H1  210   2.339   6.763   4.394  0.8644  1.0440  2.0812
   82TIP3    H2  211   2.438   6.783   4.281 -0.1648 -0.3221  0.9056
   83TIP3   OH2  212   4.429   1.595   4.749  0.1359 -0.3548 -0.6585
   83TIP3    H1  213   4.372   1.666   4.778  1.8106  0.5122  0.6686
   83TIP3    H2  214   4.387   1.561   4.670 -0.7240  2.1268 -1.3501
   84TIP3   OH2  215   5.493   1.162   0.217  0.0689 -0.9552 -0.5639
   84TIP3    H1  216   5.451   1.235   0.263  0.8699 -1.9425  1.9019
   84TIP3    H2  217   5.549   1.204   0.151  1.6882  0.8117  1.7642
   85TIP3   OH2  218   3.734   4.122   3.869 -0.1846 -0.4715  0.0775
   85TIP3    H1  219   3.669   4.181   3.831  1.0997  0.0869 -1.3808
   85TIP3    H2  220   3.813   4.176   3.875  0.1630 -1.1064  1.8688
   86TIP3   OH2  221   4.480   6.539   1.813  0.2505  0.5435  0.4835
   86TIP3    H1  222   4.504   6.605   1.878 -0.2267  1.0122  0.1962
   86TIP3    H2  223   4.451   6.590   1.737  2.2436  0.0521 -0.6913
   87TIP3   OH2  224   5.982   2.287   4.903  0.5012  0.4730 -1.2217
   87TIP3    H1  225   5.907   2.284   4.962  1.3841 -2.3433 -0.0372
   87TIP3    H2  226   5.949   2.255   4.819 -0.3461  2.7365 -1.8243
   88TIP3   OH2  227   0.893   4.765   2.920 -0.0360 -0.0756  0.9971
   88TIP3    H1  228   0.877   4.817   2.841  0.2925 -0.0358  0.9553
   88TIP3    H2  229   0.865   4.821   2.992 -2.2188 -0.8527  0.8169
   89TIP3   OH2  230   2.735   2.158   1.467  0.5184  0.6778 -0.0035
   89TIP3    H1  231   2.800   2.186   1.531 -0.1210  2.0335  0.0871
   89TIP3    H2  232   2.785   2.143   1.387  0.9870  1.4171  0.1409
   90TIP3   OH2  233   3.616   0.244   2.155 -0.2958 -0.4370  0.0586
   90TIP3    H1  234   3.624   0.335   2.126 -1.6182 -0.9805 -2.2288
   90TIP3    H2  235   3.695   0.202   2.122 -0.0340 -0.2948  0.4897
   91TIP3   OH2  236   4.237   5.466   4.451  0.1997 -0.6126 -0.7977
   91TIP3    H1  237   4.271   5.553   4.473  0.1934 -0.7844 -0.0924
   91TIP3    H2  238   4.301   5.430   4.390  0.3601 -0.2395 -0.8539
   92TIP3   OH2  239   3.302   2.127   5.043  0.8240  0.3287  0.0062
   92TIP3    H1  240   3.374   2.154   4.986 -0.2216  1.1295 -0.9783
   92TIP3    H2  241   3.270   2.045   5.003  1.7860 -0.5713  1.0106
   93TIP3   OH2  242   0.989   6.285   4.372  0.4160 -0.0978  0.3622
   93TIP3    H1  243   1.077   6.288   4.335 -0.0637 -0.9035 -0.9077
   93TIP3    H2  244   1.002   6.255   4.462  1.5629  1.3842  0.7237
   94TIP3   OH2  245   5.350   0.554   4.366 -0.0384 -0.1976  0.2329
   94TIP3    H1  246   5.417   0.582   4.304  0.2444 -0.0540  0.5923
   94TIP3    H2  247   5.275   0.529   4.312  0.5461 -1.0175 -0.2177
   95TIP3   OH2  248   4.763   2.630   5.309  0.1022  0.1202  0.2351
   95TIP3    H1  249   4.855   2.619   5.287 -0.1634  0.4882 -1.2279
   95TIP3    H2  250   4.758   2.718   5.347  0.3891  0.0215  0.5000
   96TIP3   OH2  251   6.252   5.056   0.898  0.0337 -0.6185 -0.0179
   96TIP3    H1  252   6.303   5.131   0.928  2.7950 -2.5184  0.3761
   96TIP3    H2  253   6.291   5.032   0.814 -0.2853 -2.0486  0.2196
   97TIP3   OH2  254   5.525   4.797   4.871 -0.2652  0.1991  0.0121
   97TIP3    H1  255   5.518   4.735   4.943  0.6995  0.3963  0.2855
   97TIP3    H2  256   5.477   4.875   4.902  0.0853  0.2576  0.4118
   98TIP3   OH2  257   5.551   1.298   3.577 -0.6285  0.3323 -0.1543
   98TIP3    H1  258   5.497   1.258   3.646  0.3793 -0.9461 -0.0631
   98TIP3    H2  259   5.580   1.381   3.615 -1.8389  0.6606  0.1042
   99TIP3   OH2  260   5.596   1.628   2.469  0.6502  0.3445 -0.1507
   99TIP3    H1  261   5.575   1.721   2.476 -0.2975  0.0560  1.3574
   99TIP3    H2  262   5.671   1.615   2.526  2.7172  0.6591 -2.6121
  100TIP3   OH2  263   4.787   5.206   4.470  0.5656 -0.2035 -0.0248
  100TIP3    H1  264   4.702   5.251   4.472  0.3588 -0.6121  0.4078
  100TIP3    H2  265   4.793   5.163   4.554  1.0356 -0.4969 -0.2083
  101TIP3   OH2  266   6.666   6.079   4.682  0.6603  0.3039 -0.0219
  101TIP3    H1  267   6.715   6.113   4.607 -0.7870 -0.7784 -1.5467
  101TIP3    H2  268   6.649   6.155   4.737  1.5208  1.1772 -0.9304
  102TIP3   OH2  269   3.368   3.481   0.373 -0.5637 -0.1619 -0.1036
  102TIP3    H1  270   3.421   3.412   0.414 -1.8795 -1.1794 -0.0720
  102TIP3    H2  271   3.400   3.562   0.413  1.6922 -0.5939 -0.8346
  103TIP3   OH2  272   4.832   3.572   1.114  0.0263  0.1303  0.2468
  103TIP3    H1  273   4.888   3.574   1.037 -1.4166  0.9859 -0.8256
  103TIP3    H2  274   4.786   3.489   1.109  0.8273 -0.3655  0.8778
  104TIP3   OH2  275   5.168   0.752   2.358  0.1450 -0.4909 -0.7834
  104TIP3    H1  276   5.191   0.708   2.440 -1.6224  0.2102  0.1399
  104TIP3    H2  277   5.246   0.803   2.336  0.5186 -0.3706  0.6955
  105TIP3   OH2  278   4.940   2.738   2.242  0.0916 -0.0812  0.4313
  105TIP3    H1  279   4.910   2.821   2.204  1.7624  0.1313 -0.5206
  105TIP3    H2  280   4.891   2.729   2.324 -0.6357  1.4846  0.1910
  106TIP3   OH2  281   5.938   6.760   1.340 -0.3961  0.0148 -0.0357
  106TIP3    H1  282   5.856   6.769   1.388  0.3911 -0.4154  1.4653
  106TIP3    H2  283   5.958   6.849   1.309  0.3487  0.9012  2.7100
  107TIP3   OH2  284   5.924   5.727   3.947  0.1527  0.0084 -0.7692
  107TIP3    H1  285   6.005   5.676   3.937 -0.2927 -1.0077  0.4718
  107TIP3    H2  286   5.940   5.782   4.024 -0.1921  0.0845 -0.7531
  108TIP3   OH2  287   4.696   3.246   4.713 -0.0711 -0.6839 -0.2429
  108TIP3    H1  288   4.755   3.303   4.762  1.1760 -1.5147 -0.7527
  108TIP3    H2  289   4.609   3.267   4.748  0.5153  0.4919  0.5831
  109TIP3   OH2  290   5.297   4.588   3.764 -0.2541  0.0256 -0.0910
  109TIP3    H1  291   5.310   4.506   3.813 -2.3378 -0.6493 -0.5596
  109TIP3    H2  292   5.202   4.597   3.757 -0.0500  1.4522 -1.8063
  110TIP3   OH2  293   5.294   5.009   3.774  0.1288  0.5325 -0.9422
  110TIP3    H1  294   5.236   5.005   3.698  1.1116  2.6383 -1.8861
  110TIP3    H2  295   5.235   5.016   3.848 -0.8485 -1.4017 -1.4639
  111TIP3   OH2  296   5.755   0.806   0.230  0.2901 -0.1359  0.1202
  111TIP3    H1  297   5.684   0.744   0.216  0.9423 -0.6283 -1.1551
  111TIP3    H2  298   5.734   0.848   0.313 -0.4974 -1.6114  0.7018
  112TIP3   OH2  299   3.942   5.005   1.637 -0.0575 -0.0970 -0.5015
  112TIP3    H1  300   4.030   4.995   1.601 -0.0446 -1.5363 -0.1132
  112TIP3    H2  301   3.934   4.936   1.703 -1.0409  0.7982  0.3626
  113TIP3   OH2  302   0.480   4.973   5.205  0.5387  0.2078 -0.1692
  113TIP3    H1  303   0.408   4.917   5.177 -0.9861  2.2600 -0.5829
  113TIP3    H2  304   0.488   5.040   5.137  2.2922  0.5480  0.2964
  114TIP3   OH2  305   1.591   1.250   1.452 -0.1123  1.2342  0.3118
  114TIP3    H1  306   1.546   1.167   1.437  0.1415  1.2085 -0.3151
  114TIP3    H2  307   1.576   1.268   1.545 -0.5043  0.6887  0.3620
  115TIP3   OH2  308   3.018   0.886   4.893 -0.4622 -0.9985 -0.1819
  115TIP3    H1  309   3.041   0.913   4.982 -0.0507  2.0967 -1.0960
  115TIP3    H2  310   3.068   0.945   4.836 -1.1791 -2.4494 -2.4842
  116TIP3   OH2  311   3.652   4.043   4.725 -0.3735  0.0148 -0.1945
  116TIP3    H1  312   3.656   4.118   4.785 -1.2007  0.4716 -0.6878
  116TIP3    H2  313   3.614   4.079   4.645 -0.5247 -0.8810 -0.5335
  117TIP3   OH2  314   4.283   4.533   4.059 -0.0751 -0.3186  0.3182
  117TIP3    H1  315   4.249   4.542   4.148 -1.4437  0.5632 -0.2721
  117TIP3    H2  316   4.258   4.444   4.033  1.1072 -0.9079  1.1038
  118TIP3   OH2  317   0.693   3.420   5.264  0.3951  0.3397  0.5878
  118TIP3    H1  318   0.765   3.405   5.202  0.2152  0.6609  0.3016
  118TIP3    H2  319   0.702   3.512   5.290 -0.3939  0.6078 -0.0665
  119TIP3   OH2  320   2.303   3.768   0.041 -0.0472  0.7746  0.3891
  119TIP3    H1  321   2.328   3.683   0.077 -1.8583  0.6151  1.3814
  119TIP3    H2  322   2.386   3.810   0.021  0.9029 -1.3528 -0.4942
  120TIP3   OH2  323   3.869   6.715   3.413  0.1117 -0.0585 -0.3892
  120TIP3    H1  324   3.806   6.746   3.479 -0.9613 -1.0796 -0.9032
  120TIP3    H2  325   3.839   6.754   3.331  3.4122  4.1304  0.0266
  121TIP3   OH2  326   5.295   6.687   5.702 -0.2606 -0.4923  0.2715
  121TIP3    H1  327   5.352   6.724   5.635 -0.8353  0.7649  0.4360
  121TIP3    H2  328   5.266   6.763   5.753  0.5979 -1.4600  2.3092
  122TIP3   OH2  329   5.565   1.280   0.519 -0.3433  0.1350 -0.4840
  122TIP3    H1  330   5.628   1.308   0.586  0.7385  0.0311 -1.4358
  122TIP3    H2  331   5.578   1.341   0.447 -1.8650  0.5670 -0.4362
  123TIP3   OH2  332   0.642   0.158   0.609 -0.3245 -0.8261 -0.2736
  123TIP3    H1  333   0.555   0.171   0.571 -0.0955 -0.9484 -0.8544
  123TIP3    H2  334   0.638   0.203   0.693 -0.5291  0.3262 -0.8749
  124TIP3   OH2  335   2.177   5.629   2.486 -0.0565 -0.0859 -0.4484
  124TIP3    H1  336   2.187   5.678   2.404  0.7133 -0.2844 -0.4780
  124TIP3    H2  337   2.213   5.543   2.467  0.7132  0.0608  0.2759
  125TIP3   OH2  338   0.668   0.195   4.725 -0.1014 -0.0286  0.0362
  125TIP3    H1  339   0.763   0.184   4.718  0.3863  1.9744  2.0638
  125TIP3    H2  340   0.637   0.193   4.635  2.0985  0.8500 -0.8212
  126TIP3   OH2  341   6.038   0.501   3.354  0.2740 -0.1781 -0.6632
  126TIP3    H1  342   5.991   0.469   3.277  0.2221  0.5408 -0.9308
  126TIP3    H2  343   5.981   0.479   3.428  0.2236 -0.6732 -0.8461
  127TIP3   OH2  344   0.636   3.671   2.698  0.4878 -0.2901 -0.0094
  127TIP3    H1  345   0.575   3.597   2.691  1.8623 -1.4724  0.0474
  127TIP3    H2  346   0.665   3.686   2.608 -0.8607  1.1919 -0.2590
  128TIP3   OH2  347   2.665   5.281   1.789 -0.0610 -0.1532 -0.5544
  128TIP3    H1  348   2.650   5.192   1.821 -0.1822  0.4887  1.2662
  128TIP3    H2  349   2.754   5.302   1.817  0.6483 -0.2960 -2.5371
  129TIP3   OH2  350   2.616   6.169   1.381  0.0253 -0.1432  0.2627
  129TIP3    H1  351   2.702   6.129   1.395  0.0032  0.4817  2.7290
  129TIP3    H2  352   2.558   6.094   1.363  0.9705 -0.6176 -0.8937
  130TIP3   OH2  353   0.248   0.249   3.668  0.4811 -0.4310  0.7379
  130TIP3    H1  354   0.269   0.180   3.605  1.7623  1.2119 -0.7101
  130TIP3    H2  355   0.165   0.221   3.706  1.1535 -2.9664  0.5269
  131TIP3   OH2  356   5.862   4.558   4.715  0.4105 -0.1143  0.2444
  131TIP3    H1  357   5.917   4.507   4.775  0.4373 -0.4443 -0.0551
  131TIP3    H2  358   5.918   4.572   4.638  0.7263  1.1720  0.6991
  132TIP3   OH2  359   4.798   1.891   4.704  0.4505 -0.1555  0.0585
  132TIP3    H1  360   4.874   1.836   4.722 -0.6363 -1.2263  1.5991
  132TIP3    H2  361   4.741   1.880   4.780 -1.3120  0.5155 -1.0889
  133TIP3   OH2  362   1.057   3.513   4.160 -0.3854  0.1742  0.4039
  133TIP3    H1  363   1.038   3.585   4.220  2.4731 -0.1167  1.8459
  133TIP3    H2  364   1.005   3.533   4.082 -0.2648  3.4359  0.9915
  134TIP3   OH2  365   3.651   5.547   4.650 -0.3798  0.0500  0.4209
  134TIP3    H1  366   3.570   5.553   4.701 -0.8604  0.0275 -0.3218
  134TIP3    H2  367   3.680   5.637   4.641 -0.0615  0.0166  1.0962
  135TIP3   OH2  368   6.891   1.850   4.083 -0.3021 -0.2752  0.3763
  135TIP3    H1  369   6.806   1.842   4.126 -0.0869  0.2500  0.9194
  135TIP3    H2  370   6.954   1.829   4.151  0.0260 -0.0467  0.1471
  136TIP3   OH2  371   4.815   0.147   1.197  0.4025  0.4178 -0.3255
  136TIP3    H1  372   4.843   0.230   1.160  2.2154  0.5153  1.1357
  136TIP3    H2  373   4.863   0.081   1.148  0.3867  0.3585 -0.2618
  137TIP3   OH2  374   5.278   0.314   0.495  0.0354 -0.2089 -0.7174
  137TIP3    H1  375   5.347   0.358   0.445  1.2009  0.4823  1.3616
  137TIP3    H2  376   5.200   0.367   0.481  0.9667  1.4788  0.2051
  138TIP3   OH2  377   0.105   3.124   0.572  0.5011 -0.2369  0.2245
  138TIP3    H1  378   0.195   3.144   0.598 -0.0059 -0.0369  2.0036
  138TIP3    H2  379   0.095   3.031   0.593 -0.2157  0.1544  1.8296
  139TIP3   OH2  380   0.609   4.391   5.760 -0.3981  0.0394 -0.1751
  139TIP3    H1  381   0.611   4.478   5.800 -1.0921 -0.8390  1.9047
  139TIP3    H2  382   0.565   4.404   5.677  1.3841  2.0104 -0.9145
  140TIP3   OH2  383   5.507   2.354   4.456  0.0635 -0.5910  0.1333
  140TIP3    H1  384   5.452   2.395   4.523 -0.0767 -2.6192  1.3716
  140TIP3    H2  385   5.525   2.423   4.393 -0.6737  1.1471  1.7331
  141TIP3   OH2  386   6.552   2.096   5.171  0.2777 -0.4229  0.0443
  141TIP3    H1  387   6.595   2.181   5.157  1.4540 -1.0950 -0.4872
  141TIP3    H2  388   6.605   2.033   5.123 -0.7363 -1.4421  0.2101
  142TIP3   OH2  389   3.693   5.344   5.135 -0.5717  0.0077 -0.0120
  142TIP3    H1  390   3.778   5.365   5.173 -1.4447  0.4727  1.8047
  142TIP3    H2  391   3.663   5.267   5.184 -1.2963 -0.0112 -0.4634
  143TIP3   OH2  392   1.506   1.634   5.029  0.1805 -0.6438 -0.5159
  143TIP3    H1  393   1.487   1.615   4.937  0.2286  1.4115 -0.9932
  143TIP3    H2  394   1.445   1.704   5.052  0.6533 -0.6422  0.8213
  144TIP3   OH2  395   5.120   3.364   1.623 -0.2251  0.7537 -0.1502
  144TIP3    H1  396   5.078   3.313   1.554  0.7678  0.3927 -0.5155
  144TIP3    H2  397   5.192   3.307   1.653 -1.9984 -0.1364  2.8123
  145TIP3   OH2  398   3.825   0.650   0.531  0.0993  0.1232 -0.1396
  145TIP3    H1  399   3.767   0.616   0.464  1.3540 -0.3493 -1.0107
  145TIP3    H2  400   3.778   0.635   0.613 -0.6528 -0.9971 -0.7541
  146TIP3   OH2  401   6.467   5.667   1.753 -0.1525 -0.0163 -0.1808
  146TIP3    H1  402   6.408   5.740   1.773  0.9226  0.6897  0.5122
  146TIP3    H2  403   6.553   5.697   1.781  0.2257 -1.8053  0.7286
  147TIP3   OH2  404   5.605   3.571   5.619 -0.3744 -0.3453  0.0473
  147TIP3    H1  405   5.624   3.652   5.666 -2.7373  0.8209 -0.8443
  147TIP3    H2  406   5.665   3.571   5.545  0.2878  0.0814  0.5737
  148TIP3   OH2  407   2.469   5.843   2.252  0.6199  0.2771 -0.0090
  148TIP3    H1  408   2.473   5.896   2.332  0.5797 -0.6070  0.5920
  148TIP3    H2  409   2.532   5.773   2.268  0.1490 -0.2569 -0.4967
  149TIP3   OH2  410   3.222   2.295   4.161 -0.5436 -0.1395 -0.1423
  149TIP3    H1  411   3.264   2.278   4.076 -0.5097  0.5060 -0.2582
  149TIP3    H2  412   3.277   2.251   4.225 -0.1693 -0.0218 -0.3832
  150TIP3   OH2  413   3.630   0.273   4.385  0.4683  0.3952  0.2999
  150TIP3    H1  414   3.547   0.265   4.337 -0.2392  3.7952  0.6999
  150TIP3    H2  415   3.640   0.189   4.429 -1.8040 -0.7903 -1.2392
  151TIP3   OH2  416   6.095   2.283   0.197 -0.3964 -0.0856  0.0012
  151TIP3    H1  417   6.169   2.285   0.136 -1.0674 -0.9475 -0.8791
  151TIP3    H2  418   6.136   2.276   0.283  0.5755  1.1448 -0.3279
  152TIP3   OH2  419   1.621   6.123   4.726  0.0382  0.3086 -0.1076
  152TIP3    H1  420   1.563   6.177   4.780 -0.3268 -0.2965  0.1082
  152TIP3    H2  421   1.563   6.078   4.665  0.3127 -0.0236 -0.1262
  153TIP3   OH2  422   0.242   4.368   4.659 -0.1719 -0.3011 -0.1732
  153TIP3    H1  423   0.319   4.374   4.715 -0.6921  0.3764  0.4974
  153TIP3    H2  424   0.254   4.437   4.594 -1.3050  1.4418  1.3675
  154TIP3   OH2  425   3.226   1.170   0.080  0.1078  0.1936 -0.8337
  154TIP3    H1  426   3.250   1.249   0.033  0.0662  0.8300  0.1756
  154TIP3    H2  427   3.142   1.144   0.042 -1.4954  2.4389  0.8587
  155TIP3   OH2  428   3.555   5.547   2.155 -0.2928  0.4274 -0.4932
  155TIP3    H1  429   3.644   5.537   2.188 -0.5661 -1.8916 -0.2951
  155TIP3    H2  430   3.554   5.495   2.074 -0.6561  2.9534 -2.2237
  156TIP3   OH2  431   4.665   2.412   0.843 -0.0229  0.5061 -0.1231
  156TIP3    H1  432   4.752   2.388   0.875  0.6563  0.6848 -1.7423
  156TIP3    H2  433   4.651   2.354   0.768 -1.2040  0.6621 -0.0316
  157TIP3   OH2  434   2.186   1.878   0.294 -0.4885 -0.1114 -0.3591
  157TIP3    H1  435   2.171   1.792   0.335  0.8300 -1.4334 -2.4415
  157TIP3    H2  436   2.124   1.880   0.220 -1.0598  1.1136  0.1300
  158TIP3   OH2  437   1.269   5.429   3.675  0.5923  0.1766  0.4865
  158TIP3    H1  438   1.265   5.514   3.718  1.8040  0.6198 -0.2296
  158TIP3    H2  439   1.253   5.366   3.745 -0.8042  0.9817  0.9452
  159TIP3   OH2  440   6.133   0.654   1.595 -0.0336 -0.6631 -0.0164
  159TIP3    H1  441   6.222   0.656   1.559  0.3103 -0.2932  0.8207
  159TIP3    H2  442   6.144   0.675   1.688 -0.8686 -1.8554  0.3770
  160TIP3   OH2  443   0.700   0.557   3.527  0.2086  0.1704 -0.7320
  160TIP3    H1  444   0.639   0.490   3.494  0.7182  0.3204 -2.0398
  160TIP3    H2  445   0.775   0.507   3.559 -0.8256 -0.0585  1.5069
  161TIP3   OH2  446   6.705   3.089   0.118  0.4723 -0.7400  0.3531
  161TIP3    H1  447   6.737   3.036   0.191  1.4832  1.7535  1.8579
  161TIP3    H2  448   6.783   3.136   0.086 -0.2682 -0.5325 -1.2600
  162TIP3   OH2  449   1.670   0.133   2.745 -0.1038  0.0670 -0.0401
  162TIP3    H1  450   1.680   0.190   2.668 -3.6899  0.6906 -0.1768
  162TIP3    H2  451   1.662   0.193   2.819  1.0187 -0.4784  0.5573
  163TIP3   OH2  452   5.382   3.665   3.699 -0.0147 -0.4291  0.8272
  163TIP3    H1  453   5.313   3.650   3.764 -0.7138  1.6132  0.6291
  163TIP3    H2  454   5.398   3.759   3.702  0.0182 -0.2623 -1.8642
  164TIP3   OH2  455   0.877   0.433   4.957  0.1010 -0.0569  0.2115
  164TIP3    H1  456   0.795   0.393   4.986 -0.9612  1.4908 -0.5205
  164TIP3    H2  457   0.853   0.521   4.930  2.2827  1.0094  1.4566
  165TIP3   OH2  458   6.652   2.061   2.306  0.6429  0.0747  0.8340
  165TIP3    H1  459   6.704   1.982   2.288 -0.6093 -0.9564  1.5563
  165TIP3    H2  460   6.692   2.098   2.384 -0.5395 -1.5592  2.3042
  166TIP3   OH2  461   0.588   4.843   4.273 -0.1564  0.3156 -0.4156
  166TIP3    H1  462   0.676   4.858   4.239 -0.1332  1.1187 -0.0227
  166TIP3    H2  463   0.530   4.879   4.206 -0.2174 -0.6624 -0.9087
  167TIP3   OH2  464   4.311   0.194   2.710  0.5737  0.3623  0.2676
  167TIP3    H1  465   4.228   0.190   2.663 -0.2356 -1.3674  1.6787
  167TIP3    H2  466   4.298   0.261   2.777  1.2583  1.8868 -1.0774
  168TIP3   OH2  467   6.167   6.098   5.163 -0.2034 -0.4859  0.0710
  168TIP3    H1  468   6.235   6.131   5.104 -0.8780 -0.1647 -0.5439
  168TIP3    H2  469   6.195   6.126   5.250  0.0481  0.3358 -0.2629
  169TIP3   OH2  470   6.705   1.021   3.970 -0.0160  0.1020  0.3243
  169TIP3    H1  471   6.693   1.003   3.877  1.2067 -0.0674  0.1838
  169TIP3    H2  472   6.745   1.108   3.973  1.4562 -0.5399  0.5717
  170TIP3   OH2  473   4.534   0.527   4.156 -0.0766  0.8828  0.3036
  170TIP3    H1  474   4.452   0.549   4.113 -0.2935 -0.2126  0.1378
  170TIP3    H2  475   4.537   0.432   4.156  0.1591  0.8552  2.2834
  171TIP3   OH2  476   1.541   2.642   1.551 -0.2754  0.5569 -0.3284
  171TIP3    H1  477   1.587   2.563   1.582 -2.1068 -0.0687  0.9609
  171TIP3    H2  478   1.589   2.715   1.591 -0.0719 -0.0559  0.5883
  172TIP3   OH2  479   0.459   0.747   4.595  0.0727 -0.2875 -0.3910
  172TIP3    H1  480   0.369   0.774   4.578  0.0594 -0.7704 -1.1460
  172TIP3    H2  481   0.469   0.665   4.546  1.1054  0.0725 -0.8176
  173TIP3   OH2  482   4.900   0.866   2.373  0.2101 -0.3415 -0.2161
  173TIP3    H1  483   4.927   0.955   2.349  0.3190 -0.5211 -0.7668
  173TIP3    H2  484   4.980   0.814   2.368 -0.2050 -0.8918 -1.9226
  174TIP3   OH2  485   3.538   1.450   3.105  0.5564  0.4400  0.1954
  174TIP3    H1  486   3.616   1.394   3.101  0.7190  0.6925 -0.1769
  174TIP3    H2  487   3.555   1.508   3.180  0.8370  0.6538 -0.0297
  175TIP3   OH2  488   2.110   2.111   0.423  0.0815  0.3508  0.3758
  175TIP3    H1  489   2.166   2.053   0.372  0.0459  1.8414 -1.4641
  175TIP3    H2  490   2.081   2.178   0.361 -3.4596 -0.1006  1.2765
  176TIP3   OH2  491   4.828   3.546   3.835 -0.2476 -0.1325 -0.0357
  176TIP3    H1  492   4.761   3.482   3.858 -0.0359 -0.1013  0.6869
  176TIP3    H2  493   4.787   3.631   3.851 -0.0979 -0.1091  0.2172
  177TIP3   OH2  494   7.049   4.287   4.176 -0.5272  0.0371 -0.4774
  177TIP3    H1  495   6.954   4.289   4.185 -0.4806  0.2035  0.0155
  177TIP3    H2  496   7.069   4.360   4.117 -0.5694  1.1642  0.8430
  178TIP3   OH2  497   1.872   5.809   2.232  0.3496 -0.2340  0.6771
  178TIP3    H1  498   1.861   5.724   2.189  2.8591  0.1447 -0.9614
  178TIP3    H2  499   1.802   5.864   2.195 -0.9599 -1.3970  1.3514
  179TIP3   OH2  500   4.183   0.034   1.772  0.4777 -0.8227  0.3229
  179TIP3    H1  501   4.110  -0.000   1.720  1.2441 -1.8106 -0.1186
  179TIP3    H2  502   4.261   0.001   1.729  1.2152  0.5101  0.5969
  180TIP3   OH2  503   2.144   2.658   1.207 -0.6534 -0.1168  0.1506
  180TIP3    H1  504   2.050   2.670   1.217 -0.6166  0.3266 -0.0086
  180TIP3    H2  505   2.177   2.745   1.186 -0.2068 -0.2694  0.2055
  181TIP3   OH2  506   1.632   3.516   5.374  0.1990  0.5013 -0.1888
  181TIP3    H1  507   1.678   3.593   5.340  0.4331  0.7810  0.7282
  181TIP3    H2  508   1.626   3.457   5.299  0.8634  1.0223 -0.6669
  182TIP3   OH2  509   4.367   0.054   0.329  0.4725 -0.5697  0.1993
  182TIP3    H1  510   4.328   0.141   0.321  3.5038  0.7802 -2.0367
  182TIP3    H2  511   4.412   0.056   0.413 -0.8512 -0.6828  0.9416
  183TIP3   OH2  512   0.570   4.068   4.549 -0.0418 -0.3465  0.3190
  183TIP3    H1  513   0.613   4.062   4.463  0.5120  0.0054  0.5681
  183TIP3    H2  514   0.482   4.099   4.529  0.2559  0.2672 -0.0837
  184TIP3   OH2  515   6.591   4.032   1.907 -0.1487 -0.1590 -0.0900
  184TIP3    H1  516   6.669   3.998   1.950  0.3502  2.3214  1.1345
  184TIP3    H2  517   6.524   4.034   1.975 -0.2352  0.9521 -0.1784
  185TIP3   OH2  518   0.625   4.512   1.267 -0.3489 -0.0742 -0.3265
  185TIP3    H1  519   0.531   4.526   1.277 -0.2943  0.2729 -0.2882
  185TIP3    H2  520   0.636   4.417   1.278 -0.6849 -0.1111 -0.2793
  186TIP3   OH2  521   1.104   6.105   1.395 -0.5453 -0.6038 -0.2461
  186TIP3    H1  522   1.105   6.058   1.311 -0.6506  0.4780 -0.8764
  186TIP3    H2  523   1.030   6.165   1.388 -0.0243  0.1254  0.2602
  187TIP3   OH2  524   2.236   0.413   1.901  0.3793  0.0622  0.4568
  187TIP3    H1  525   2.277   0.498   1.918 -1.3605  0.8142  1.1222
  187TIP3    H2  526   2.243   0.366   1.984 -0.1802  0.2390  0.6085
  188TIP3   OH2  527   7.100   1.783   5.743 -0.2304 -0.2811  0.1624
  188TIP3    H1  528   7.175   1.725   5.730  0.4385  0.8353 -1.1591
  188TIP3    H2  529   7.024   1.727   5.727  0.3072 -1.2740  0.9022
  189TIP3   OH2  530   7.111   5.537   1.733 -0.5769  0.3905  0.4511
  189TIP3    H1  531   7.116   5.620   1.686 -0.3418  0.6820  0.9774
  189TIP3    H2  532   7.033   5.494   1.699  0.6061 -0.2712 -1.6118
  190TIP3   OH2  533   4.337   5.372   5.040  0.6184 -1.1714  0.2167
  190TIP3    H1  534   4.343   5.369   4.945  0.6030 -0.3155  0.1763
  190TIP3    H2  535   4.245   5.391   5.058  0.9794  0.6708  0.3155
  191TIP3   OH2  536   2.387   1.347   5.298  0.0760 -0.3210 -0.1774
  191TIP3    H1  537   2.320   1.280   5.290 -1.1120  0.6950  0.7889
  191TIP3    H2  538   2.386   1.393   5.214 -0.0452 -0.6667 -0.3658
  192TIP3   OH2  539   2.707   3.397   3.590  0.3998  0.5139 -0.1839
  192TIP3    H1  540   2.657   3.375   3.669 -1.6989 -0.7945 -1.7910
  192TIP3    H2  541   2.746   3.314   3.563  0.5860  0.8271 -0.8927
  193TIP3   OH2  542   1.098   2.868   5.290 -0.2923  0.0793  0.6194
  193TIP3    H1  543   1.125   2.933   5.355  0.6142 -0.1921  0.5342
  193TIP3    H2  544   1.115   2.910   5.206 -1.0167  0.2530  0.5602
  194TIP3   OH2  545   1.501   6.720   4.485 -0.4852  0.6426 -0.2236
  194TIP3    H1  546   1.592   6.708   4.512 -0.9699 -0.1185  1.1858
  194TIP3    H2  547   1.457   6.640   4.512 -1.4104  0.6060 -1.7223
  195TIP3   OH2  548   5.720   3.569   3.717  0.4212 -0.7837 -0.4756
  195TIP3    H1  549   5.644   3.618   3.685  1.1106 -0.2344 -1.3317
  195TIP3    H2  550   5.684   3.511   3.784 -1.4071 -3.0076 -3.1259
  196TIP3   OH2  551   0.172   4.419   1.415  0.1769  0.1126 -0.5584
  196TIP3    H1  552   0.153   4.388   1.504 -1.0689  2.7288  0.1861
  196TIP3    H2  553   0.109   4.371   1.360  1.6033 -2.2560 -0.2642
  197TIP3   OH2  554   6.396   0.961   2.423 -0.2021 -0.0792  0.2034
  197TIP3    H1  555   6.365   0.938   2.512  2.2699 -1.2068  0.8565
  197TIP3    H2  556   6.448   1.040   2.435 -0.2288  0.0202 -0.3225
  198TIP3   OH2  557   6.941   6.344   0.410 -0.2437 -0.1229 -0.0830
  198TIP3    H1  558   6.882   6.412   0.377  0.5898  0.4668 -0.4129
  198TIP3    H2  559   7.012   6.393   0.452  1.6440 -0.6160 -2.3996
  199TIP3   OH2  560   5.175   3.585   0.417 -0.3672 -0.0287  0.1588
  199TIP3    H1  561   5.175   3.565   0.511  0.6672 -0.8935 -0.0138
  199TIP3    H2  562   5.125   3.514   0.377  0.5259 -0.5192 -0.1052
  200TIP3   OH2  563   5.158   2.377   5.472  0.5069 -0.0796 -0.0443
  200TIP3    H1  564   5.112   2.459   5.457  0.8245 -0.0755 -1.0312
  200TIP3    H2  565   5.246   2.390   5.436 -0.3293 -1.8216 -3.0696
  201TIP3   OH2  566   2.286   2.844   3.685  0.1669 -0.0838 -0.1068
  201TIP3    H1  567   2.366   2.814   3.642  0.5774 -0.4968  0.9038
  201TIP3    H2  568   2.226   2.770   3.680 -0.0663  0.1328 -0.6251
  202TIP3   OH2  569   4.267   1.338   5.026 -0.4042  0.2721 -0.4589
  202TIP3    H1  570   4.347   1.367   4.983 -0.9441 -0.0534 -1.7145
  202TIP3    H2  571   4.219   1.291   4.959 -1.7963  0.7090  0.1871
  203TIP3   OH2  572   6.412   5.418   0.840 -0.0568 -0.0826 -0.2345
  203TIP3    H1  573   6.449   5.397   0.755  1.6660 -0.2499  0.5139
  203TIP3    H2  574   6.381   5.508   0.831  0.2263 -0.0574 -0.9975
  204TIP3   OH2  575   2.464   4.631   2.541  0.0584 -0.0438  0.8345
  204TIP3    H1  576   2.553   4.596   2.543 -0.8547 -2.7097 -0.0994
  204TIP3    H2  577   2.431   4.617   2.629  0.9334  2.3103  1.6243
  205TIP3   OH2  578   6.848   5.920   3.522  0.1367 -0.1536  0.0533
  205TIP3    H1  579   6.831   5.969   3.441  1.2071 -0.2709 -0.2585
  205TIP3    H2  580   6.901   5.845   3.494  0.2060 -0.3961  0.8144
  206TIP3   OH2  581   4.454   2.789   0.544 -0.7392 -0.0260 -0.2999
  206TIP3    H1  582   4.494   2.841   0.475 -0.4391 -0.0655 -0.1537
  206TIP3    H2  583   4.395   2.729   0.497 -0.8049  0.1854 -0.4938
  207TIP3   OH2  584   0.117   5.891   4.255 -0.2139 -0.7766 -0.2984
  207TIP3    H1  585   0.082   5.807   4.285  1.3479 -0.6890  2.0506
  207TIP3    H2  586   0.084   5.955   4.318 -0.1578  0.1586 -1.1800
  208TIP3   OH2  587   3.649   2.796   2.037 -0.2570 -0.3310  0.1937
  208TIP3    H1  588   3.663   2.806   2.132  1.1825 -0.0118 -0.0376
  208TIP3    H2  589   3.652   2.886   2.003  0.6801 -0.5568 -0.3375
  209TIP3   OH2  590   0.684   0.194   2.756 -0.0186  0.5032  0.2153
  209TIP3    H1  591   0.694   0.174   2.663  1.4805  2.0580 -0.0223
  209TIP3    H2  592   0.617   0.262   2.759 -1.3520 -0.7702  0.4949
  210TIP3   OH2  593   0.715   5.573   4.437  0.4451 -0.2338  0.4957
  210TIP3    H1  594   0.663   5.496   4.411 -0.4619 -0.1583  1.9580
  210TIP3    H2  595   0.719   5.568   4.533 -0.6388  2.1423  0.7417
  211TIP3   OH2  596   0.640   1.608   0.470 -0.0046 -0.1578 -0.0958
  211TIP3    H1  597   0.674   1.526   0.507  1.1157  0.1362 -0.4357
  211TIP3    H2  598   0.553   1.617   0.509 -0.4672 -1.8906 -0.6278
  212TIP3   OH2  599   3.041   5.159   1.366  0.4563  0.3598  0.4630
  212TIP3    H1  600   3.009   5.102   1.437  0.6331  0.8718  0.9551
  212TIP3    H2  601   3.036   5.103   1.288 -1.0095  0.1948  0.6313
  213TIP3   OH2  602   1.770   0.149   5.571  0.1032 -0.1676  0.3327
  213TIP3    H1  603   1.722   0.070   5.595 -2.1114  1.3933  1.3634
  213TIP3    H2  604   1.748   0.212   5.639  2.9808  0.9718  0.3581
  214TIP3   OH2  605   3.368   6.485   1.312  0.1318  0.3277  0.2444
  214TIP3    H1  606   3.378   6.549   1.383  1.0106  0.5593 -0.0703
  214TIP3    H2  607   3.392   6.534   1.233  2.0906 -0.7203  0.1420
  215TIP3   OH2  608   2.253   0.043   1.179  0.1036  0.2865  0.0831
  215TIP3    H1  609   2.323   0.087   1.226  0.4246 -0.5392  0.3947
  215TIP3    H2  610   2.215  -0.017   1.243 -1.2877  1.1308  0.1054
  216TIP3   OH2  611   4.211   5.599   0.547 -0.0722  0.4661 -0.7328
  216TIP3    H1  612   4.176   5.687   0.536 -0.3220  0.2649 -1.6343
  216TIP3    H2  613   4.249   5.599   0.635 -2.7418  0.5343  0.5095
  217TIP3   OH2  614   4.572   4.053   3.290 -0.0517 -0.1130  0.1968
  217TIP3    H1  615   4.664   4.077   3.296 -0.7312  3.1122 -0.3839
  217TIP3    H2  616   4.545   4.037   3.381  0.5723  1.1859  0.6298
  218TIP3   OH2  617   1.494   3.478   3.770  0.6227  0.2890 -0.2717
  218TIP3    H1  618   1.430   3.471   3.840 -0.0882 -0.7519 -0.9946
  218TIP3    H2  619   1.456   3.541   3.709  0.4714 -0.0186 -0.4990
  219TIP3   OH2  620   2.850   3.242   1.761  0.2024 -0.2678 -0.5828
  219TIP3    H1  621   2.766   3.265   1.722  0.6839  1.7182 -0.5696
  219TIP3    H2  622   2.831   3.228   1.853 -0.2506 -0.7728 -0.7474
  220TIP3   OH2  623   1.569   4.270   1.998  0.4429  0.1070  0.5434
  220TIP3    H1  624   1.580   4.196   1.937  0.9735  1.9092 -1.6881
  220TIP3    H2  625   1.612   4.343   1.954 -2.4022  2.4471  1.3748
  221TIP3   OH2  626   4.595   5.035   0.240 -0.8043 -0.4026  0.2158
  221TIP3    H1  627   4.660   5.077   0.297  0.4565  0.0495 -1.4633
  221TIP3    H2  628   4.616   5.067   0.152  0.1983 -4.3832 -1.2296
  222TIP3   OH2  629   4.401   5.501   5.666  0.1212 -0.2624 -0.3072
  222TIP3    H1  630   4.345   5.577   5.682 -0.5393 -0.7541 -0.1988
  222TIP3    H2  631   4.340   5.433   5.638  0.7756 -0.5794 -0.9968
  223TIP3   OH2  632   2.711   4.753   4.967 -0.0291 -0.1040 -0.2091
  223TIP3    H1  633   2.710   4.664   4.931  1.7292  0.0012 -0.5832
  223TIP3    H2  634   2.765   4.747   5.046 -2.3866  0.0464  1.5452
  224TIP3   OH2  635   6.672   4.855   3.073 -0.6997  0.3736 -0.3876
  224TIP3    H1  636   6.678   4.827   3.164  0.5669  2.8986  0.3806
  224TIP3    H2  637   6.669   4.773   3.023 -2.3714 -1.0728  1.9247
  225TIP3   OH2  638   0.627   0.933   3.134  0.3304  0.4830  0.6300
  225TIP3    H1  639   0.603   0.984   3.211  2.3851 -0.6007  2.0821
  225TIP3    H2  640   0.638   0.998   3.065 -1.6334  1.4709  1.1610
  226TIP3   OH2  641   4.400   1.149   4.852  0.0170 -0.2026 -0.0340
  226TIP3    H1  642   4.452   1.082   4.807  0.0596 -1.2683  1.5331
  226TIP3    H2  643   4.328   1.100   4.891  0.0767  0.6580  1.1823
  227TIP3   OH2  644   6.728   3.817   4.295 -0.3332  0.1551 -0.1603
  227TIP3    H1  645   6.729   3.800   4.201 -0.0561 -2.6426  0.2603
  227TIP3    H2  646   6.820   3.816   4.321 -0.4552 -0.1522  0.2831
  228TIP3   OH2  647   0.487   2.376   3.018  0.1979  0.2951  0.6597
  228TIP3    H1  648   0.413   2.435   3.004 -0.5293 -0.2583  1.9225
  228TIP3    H2  649   0.546   2.425   3.075 -0.7591 -0.4075  2.3315
  229TIP3   OH2  650   0.801   2.825   1.549  0.3320  0.4980 -0.1544
  229TIP3    H1  651   0.758   2.897   1.502  2.7770  1.7529 -0.6338
  229TIP3    H2  652   0.779   2.747   1.498  0.1439  1.3570 -1.4451
  230TIP3   OH2  653   1.063   1.770   5.066  0.2715  0.3805  0.1162
  230TIP3    H1  654   1.155   1.756   5.086  0.2029  0.6092  0.6140
  230TIP3    H2  655   1.019   1.690   5.097  0.1720  0.7125  0.8456
  231TIP3   OH2  656   2.499   3.622   1.817 -0.4359 -0.0009 -0.1520
  231TIP3    H1  657   2.483   3.645   1.908  0.8730  0.7319 -0.0832
  231TIP3    H2  658   2.586   3.657   1.798 -0.5572 -0.4033 -1.5949
  232TIP3   OH2  659   3.697   6.696   2.940 -0.0775  0.0483 -0.1431
  232TIP3    H1  660   3.626   6.653   2.893  1.6593 -2.1224 -0.9379
  232TIP3    H2  661   3.710   6.778   2.892 -1.7074  0.3041 -0.2280
  233TIP3   OH2  662   0.014   0.867   1.974  0.1139  0.3649 -0.8377
  233TIP3    H1  663  -0.021   0.918   2.047  0.9518  0.2450 -0.3470
  233TIP3    H2  664   0.090   0.916   1.944  0.7081 -0.3977 -0.5979
  234TIP3   OH2  665   4.099   0.915   5.756  0.3778 -0.2078 -0.1938
  234TIP3    H1  666   4.138   0.985   5.703  0.1049  0.6322  0.6898
  234TIP3    H2  667   4.036   0.873   5.698  0.2587  0.5443 -0.6194
  235TIP3   OH2  668   0.605   0.957   5.333  0.0618 -0.0934  0.1544
  235TIP3    H1  669   0.584   0.887   5.395  0.1574 -1.8883 -1.7359
  235TIP3    H2  670   0.555   0.936   5.254  1.4566  0.9744 -1.0906
  236TIP3   OH2  671   1.835   5.100   5.668  0.2227  0.6926 -0.2152
  236TIP3    H1  672   1.815   5.010   5.642 -1.6009  0.5144  1.5483
  236TIP3    H2  673   1.769   5.153   5.624 -0.6669  0.7683  1.1289
  237TIP3   OH2  674   3.800   3.757   2.327 -0.3389 -0.3466  0.1375
  237TIP3    H1  675   3.795   3.734   2.420  1.6190 -0.2097  0.3126
  237TIP3    H2  676   3.740   3.831   2.318 -3.1517 -2.3731  0.5289
  238TIP3   OH2  677   4.599   3.265   1.339  0.4604  0.5607  0.6450
  238TIP3    H1  678   4.516   3.229   1.309 -0.3782  2.0049  1.1686
  238TIP3    H2  679   4.642   3.297   1.260  1.1595 -1.3614  0.1873
  239TIP3   OH2  680   6.701   5.158   3.362  0.0480  0.0264 -0.6700
  239TIP3    H1  681   6.765   5.182   3.295  3.1195 -2.8959  0.9263
  239TIP3    H2  682   6.703   5.232   3.423  2.0561  0.0074 -0.6353
  240TIP3   OH2  683   3.763   0.970   4.481 -0.3690 -0.8289 -0.1478
  240TIP3    H1  684   3.692   0.980   4.417  1.0836 -3.1585 -2.3283
  240TIP3    H2  685   3.743   0.888   4.525  0.3320 -0.8732  0.0923
  241TIP3   OH2  686   4.486   1.241   4.108 -0.3654 -0.4373 -0.0133
  241TIP3    H1  687   4.567   1.282   4.079 -0.4795 -0.1311  0.0935
  241TIP3    H2  688   4.445   1.207   4.028 -0.2721 -0.3383 -0.1023
  242TIP3   OH2  689   3.208   1.868   3.244 -0.0743  0.6934 -0.2031
  242TIP3    H1  690   3.131   1.925   3.253  0.0306  1.5706 -3.5157
  242TIP3    H2  691   3.180   1.800   3.182  1.3090  0.0863 -0.1948
  243TIP3   OH2  692   3.650   0.537   3.678  0.3473  0.1732 -0.0453
  243TIP3    H1  693   3.609   0.598   3.739  0.5376  2.2231 -1.8384
  243TIP3    H2  694   3.589   0.532   3.604  1.0675 -0.6010 -0.6053
  244TIP3   OH2  695   2.127   5.172   1.702 -0.0069  0.0043 -0.1584
  244TIP3    H1  696   2.161   5.120   1.629  1.1703 -0.6975  0.8443
  244TIP3    H2  697   2.044   5.130   1.724 -1.0376  1.0128 -1.8802
  245TIP3   OH2  698   3.271   0.437   0.470  0.0342 -1.2257 -0.2699
  245TIP3    H1  699   3.296   0.528   0.455  2.8554 -1.9514 -0.4211
  245TIP3    H2  700   3.231   0.410   0.387  1.3586 -0.7792 -1.0862
  246TIP3   OH2  701   7.180   5.325   5.180  0.4444  0.3148  0.0435
  246TIP3    H1  702   7.253   5.264   5.190  0.7834  0.6525 -0.3012
  246TIP3    H2  703   7.172   5.367   5.266  0.2597 -0.1606  0.2565
  247TIP3   OH2  704   6.494   3.352   3.085  0.1026 -0.2356 -0.0715
  247TIP3    H1  705   6.411   3.356   3.037 -0.1387  0.0905  0.3684
  247TIP3    H2  706   6.507   3.441   3.117  0.5791 -0.3081 -0.0549
  248TIP3   OH2  707   4.467   6.820   4.719 -0.0512 -0.1248 -0.2613
  248TIP3    H1  708   4.378   6.826   4.683 -0.2062  0.0344  0.1466
  248TIP3    H2  709   4.499   6.735   4.688 -0.5524 -0.4380  0.0608
  249TIP3   OH2  710   2.566   3.615   5.604  0.7056 -0.3903  0.3233
  249TIP3    H1  711   2.512   3.536   5.605  1.0853 -0.6659  0.0262
  249TIP3    H2  712   2.508   3.685   5.575  0.6082 -0.7684 -0.4335
  250TIP3   OH2  713   5.006   5.613   5.246 -0.3446  0.1531  0.1767
  250TIP3    H1  714   5.020   5.621   5.152  0.6339  4.3660  0.4743
  250TIP3    H2  715   4.934   5.674   5.265 -1.1419 -1.2734  2.1145
  251TIP3   OH2  716   5.264   0.526   0.071 -0.0107 -0.2933 -0.2859
  251TIP3    H1  717   5.201   0.597   0.059 -0.8514 -0.9162  0.2683
  251TIP3    H2  718   5.240   0.461   0.005  0.1814 -0.4451 -0.2099
  252TIP3   OH2  719   0.819   1.507   1.811 -0.5496 -0.3574  0.0592
  252TIP3    H1  720   0.835   1.506   1.717  0.2297 -0.9405  0.1944
  252TIP3    H2  721   0.848   1.594   1.839  0.3102 -0.5997 -0.0596
  253TIP3   OH2  722   6.025   2.654   4.553  0.2434 -0.3978  0.7461
  253TIP3    H1  723   6.006   2.746   4.534 -1.2711 -0.9921 -0.8904
  253TIP3    H2  724   5.953   2.605   4.512  1.1697 -2.3490  1.2972
  254TIP3   OH2  725   6.238   3.310   2.942  0.2866  0.0817  0.4420
  254TIP3    H1  726   6.263   3.316   2.849 -0.1256  3.6744  0.4171
  254TIP3    H2  727   6.259   3.221   2.967  5.1297  0.3105 -1.7907
  255TIP3   OH2  728   2.212   5.150   4.204 -0.2737  0.4369  0.5537
  255TIP3    H1  729   2.140   5.202   4.240  0.4470  0.5514  1.9087
  255TIP3    H2  730   2.281   5.156   4.271  0.6299 -0.4698 -0.2678
  256TIP3   OH2  731   5.703   1.547   5.146 -0.2363 -0.3221 -0.3291
  256TIP3    H1  732   5.644   1.605   5.193  2.2920  1.0073  1.4869
  256TIP3    H2  733   5.735   1.486   5.213  0.7211 -0.7453 -1.1368
  257TIP3   OH2  734   1.195   2.699   3.967 -1.0690 -0.1703  0.3987
  257TIP3    H1  735   1.254   2.624   3.976  0.8837  1.4024  1.7513
  257TIP3    H2  736   1.108   2.664   3.980 -0.2097 -2.1799  1.0875
  258TIP3   OH2  737   1.673   0.314   5.368 -0.4211 -0.2341 -0.3489
  258TIP3    H1  738   1.690   0.231   5.412  1.4062  0.8768  1.1739
  258TIP3    H2  739   1.735   0.317   5.296 -0.3332 -0.1090 -0.2695
  259TIP3   OH2  740   7.071   5.743   1.573  0.5640 -0.3282 -0.0723
  259TIP3    H1  741   7.150   5.783   1.538 -0.5967  1.0803 -1.1978
  259TIP3    H2  742   7.036   5.808   1.634 -0.4069 -0.3559 -0.5796
  260TIP3   OH2  743   6.275   1.289   2.837 -0.2109 -0.1439 -0.4028
  260TIP3    H1  744   6.366   1.314   2.821 -0.8091  1.4603 -1.5995
  260TIP3    H2  745   6.280   1.200   2.871  1.8828  0.4805  1.1001
  261TIP3   OH2  746   5.446   0.106   1.611  0.3130  0.3874 -0.1738
  261TIP3    H1  747   5.439   0.182   1.669 -1.0080  2.7088 -3.0655
  261TIP3    H2  748   5.537   0.078   1.618  0.5002  1.3045  2.0162
  262TIP3   OH2  749   0.513   6.760   2.295 -0.1053  0.0395  0.2782
  262TIP3    H1  750   0.524   6.756   2.200 -1.0734  0.5036  0.1319
  262TIP3    H2  751   0.580   6.701   2.330 -0.0399 -0.4848 -0.7112
  263TIP3   OH2  752   6.632   0.621   4.980  0.2235  0.3706  0.2607
  263TIP3    H1  753   6.581   0.570   4.916 -0.4777  2.0247 -0.5463
  263TIP3    H2  754   6.700   0.663   4.927  0.9588  0.0840  0.9602
  264TIP3   OH2  755   3.723   1.371   5.332  0.0629  0.1170  0.8158
  264TIP3    H1  756   3.666   1.423   5.388  0.0641  1.3730 -0.3099
  264TIP3    H2  757   3.796   1.347   5.389  0.4282  1.9803  1.2136
  265TIP3   OH2  758   3.497   2.345   5.011 -0.4107  0.1259 -0.4966
  265TIP3    H1  759   3.516   2.417   5.070 -1.0495 -1.1252  1.3216
  265TIP3    H2  760   3.582   2.310   4.987 -0.1543 -0.1367  0.7278
  266TIP3   OH2  761   0.333   2.591   1.511  0.0910 -0.2282  0.4995
  266TIP3    H1  762   0.332   2.612   1.604  1.3417  2.2636  0.0278
  266TIP3    H2  763   0.298   2.502   1.506 -1.1609  0.0255  3.2045
  267TIP3   OH2  764   4.747   1.595   0.089  0.0800 -0.5307  0.5129
  267TIP3    H1  765   4.677   1.551   0.138 -0.1050 -0.5080  0.2700
  267TIP3    H2  766   4.702   1.644   0.021  0.1548  1.3861  1.7709
  268TIP3   OH2  767   3.312   4.037   0.885  0.3136 -0.2698 -0.2935
  268TIP3    H1  768   3.279   3.949   0.903  0.1964 -0.4273 -1.2236
  268TIP3    H2  769   3.408   4.029   0.890  0.2721  0.1845  2.3936
  269TIP3   OH2  770   0.763   3.539   4.240  0.8467  0.3930 -0.3272
  269TIP3    H1  771   0.775   3.528   4.335  0.9124  0.2628 -0.3493
  269TIP3    H2  772   0.762   3.449   4.207 -1.4716  0.3127 -0.1865
  270TIP3   OH2  773   6.029   0.989   2.537  0.4374 -0.1213  0.1754
  270TIP3    H1  774   5.970   1.035   2.597 -0.3968 -1.8961  0.7763
  270TIP3    H2  775   5.993   1.006   2.450  0.4591  0.7818  0.3310
  271TIP3   OH2  776   4.058   4.443   3.444 -0.2490 -0.2581  0.2047
  271TIP3    H1  777   3.982   4.471   3.495  0.5037 -0.2908  1.3699
  271TIP3    H2  778   4.041   4.478   3.356 -0.6258  1.5871  0.9478
  272TIP3   OH2  779   3.266   0.667   5.857  0.4613  0.0787  0.0586
  272TIP3    H1  780   3.345   0.620   5.832 -0.4133 -0.9289 -0.8968
  272TIP3    H2  781   3.225   0.611   5.923 -0.8764 -0.8576 -1.4932
  273TIP3   OH2  782   3.440   3.057   2.772  0.2360 -0.3974 -0.1113
  273TIP3    H1  783   3.434   2.969   2.808  0.5011 -0.7521 -0.9339
  273TIP3    H2  784   3.467   3.111   2.847 -0.8125 -0.8451  0.6153
  274TIP3   OH2  785   5.382   2.437   3.770  0.2219  0.0353  0.0635
  274TIP3    H1  786   5.395   2.451   3.864  0.3999  0.9866 -0.0952
  274TIP3    H2  787   5.413   2.518   3.729 -1.0371  0.1375 -0.7240
  275TIP3   OH2  788   5.521   6.020   5.004  0.1936  0.2449  0.3972
  275TIP3    H1  789   5.473   6.102   5.012  2.7497  1.8876 -0.0479
  275TIP3    H2  790   5.471   5.969   4.940 -0.2107  2.4211 -1.1135
  276TIP3   OH2  791   4.520   1.831   2.920 -0.3484  0.6270  0.0701
  276TIP3    H1  792   4.572   1.911   2.916  0.4630  0.1501  0.6790
  276TIP3    H2  793   4.461   1.845   2.994  1.0906 -0.0603  1.3992
  277TIP3   OH2  794   4.614   6.543   3.101 -0.2470  0.2428 -0.5660
  277TIP3    H1  795   4.550   6.585   3.044 -0.5853  0.0401 -0.3364
  277TIP3    H2  796   4.566   6.524   3.182 -0.0922 -0.5702 -0.6586
  278TIP3   OH2  797   4.520   1.173   2.479  0.2620  0.0167 -0.2640
  278TIP3    H1  798   4.535   1.214   2.565 -1.5176  0.2984 -0.0511
  278TIP3    H2  799   4.450   1.225   2.440 -0.1463 -1.1727 -1.1465
  279TIP3   OH2  800   2.129   5.518   4.846  0.3704  0.0747  0.0433
  279TIP3    H1  801   2.191   5.588   4.826 -2.0835  2.2144 -0.7657
  279TIP3    H2  802   2.055   5.534   4.786 -0.4289 -3.1368 -0.0387
  280TIP3   OH2  803   3.220   5.674   0.984 -0.5049 -0.7892 -0.2454
  280TIP3    H1  804   3.308   5.656   1.017 -1.3955 -0.7903  2.3340
  280TIP3    H2  805   3.233   5.736   0.912  1.3748  4.0094  3.7253
  281TIP3   OH2  806   6.799   4.937   4.514 -0.2691 -0.4236 -0.1776
  281TIP3    H1  807   6.831   4.928   4.604  0.1777  1.5610 -0.0983
  281TIP3    H2  808   6.861   4.887   4.461 -0.3709 -1.3682  0.5647
  282TIP3   OH2  809   4.266   0.923   0.648 -0.0443 -0.3732  0.2333
  282TIP3    H1  810   4.226   0.899   0.732  0.3957 -1.3238  0.1800
  282TIP3    H2  811   4.198   0.905   0.583 -0.2881  0.1007  0.3543
  283TIP3   OH2  812   6.383   2.020   2.176  0.1202  0.1222 -0.3305
  283TIP3    H1  813   6.473   2.003   2.202  0.6452  1.8288 -0.9190
  283TIP3    H2  814   6.361   2.104   2.216 -1.4508 -0.5520  0.3237
  284TIP3   OH2  815   5.811   4.098   2.087  0.4043 -0.0423 -0.0026
  284TIP3    H1  816   5.724   4.137   2.087  1.2183  1.8782  1.0427
  284TIP3    H2  817   5.865   4.160   2.136  2.2700 -1.4052 -0.2555
  285TIP3   OH2  818   0.807   0.010   3.308 -0.3209  0.5321 -0.1676
  285TIP3    H1  819   0.775   0.097   3.285 -1.4740  0.5166  1.2491
  285TIP3    H2  820   0.901   0.013   3.289 -0.4778  1.8233 -0.8477
  286TIP3   OH2  821   0.236   3.654   0.049 -0.0325  0.3555  0.0073
  286TIP3    H1  822   0.218   3.708   0.126  0.2585  0.1626  0.2135
  286TIP3    H2  823   0.281   3.577   0.084 -3.1613 -1.5983  0.2091
  287TIP3   OH2  824   5.874   4.566   2.626  0.2632 -0.0587  0.0345
  287TIP3    H1  825   5.822   4.491   2.657  0.6588 -0.2920  0.1416
  287TIP3    H2  826   5.965   4.538   2.638  0.4173  0.1922 -0.5191
  288TIP3   OH2  827   7.021   2.953   2.094  0.0474  1.0144  0.0453
  288TIP3    H1  828   7.065   3.027   2.054  1.4712  1.6518  2.5527
  288TIP3    H2  829   7.071   2.936   2.175 -1.9544 -0.8254  1.0105
  289TIP3   OH2  830   3.672   1.221   2.872 -0.3548 -0.1201  0.1746
  289TIP3    H1  831   3.605   1.266   2.820 -0.9221 -0.1396  0.8811
  289TIP3    H2  832   3.750   1.275   2.860 -0.5200 -0.0241 -0.5536
  290TIP3   OH2  833   2.897   0.674   5.085 -0.0417  0.3104  0.6135
  290TIP3    H1  834   2.985   0.639   5.072 -0.6486 -1.0016 -0.1944
  290TIP3    H2  835   2.886   0.739   5.015 -0.2714 -0.6929 -0.3125
  291TIP3   OH2  836   5.625   2.522   3.446 -0.6012  0.3432  0.2442
  291TIP3    H1  837   5.691   2.573   3.493  0.9416  0.2572 -1.6658
  291TIP3    H2  838   5.549   2.579   3.440 -0.1285  1.0821  1.0964
  292TIP3   OH2  839   0.357   0.718   0.325 -0.4439 -0.6270 -0.3109
  292TIP3    H1  840   0.359   0.647   0.389 -0.8270 -0.6453 -0.3148
  292TIP3    H2  841   0.279   0.769   0.349  1.2898  1.4008  1.4531
  293TIP3   OH2  842   2.779   4.078   1.018  0.7115 -0.3750 -0.4684
  293TIP3    H1  843   2.758   4.170   1.038 -2.3075 -1.1066  0.2336
  293TIP3    H2  844   2.837   4.051   1.089 -0.2019  0.4083  0.6165
  294TIP3   OH2  845   0.651   3.417   0.136  0.3677  0.3432  0.4364
  294TIP3    H1  846   0.668   3.324   0.117 -0.7749  0.0785  0.6322
  294TIP3    H2  847   0.722   3.443   0.195  0.5471 -0.4792  0.5977
  295TIP3   OH2  848   0.367   2.402   0.097  0.7994  0.8708  0.0460
  295TIP3    H1  849   0.311   2.350   0.155 -0.2514  0.2282 -1.4835
  295TIP3    H2  850   0.440   2.344   0.077 -0.5215 -0.2277 -1.9002
  296TIP3   OH2  851   5.603   6.403   3.813  0.2089  0.0293  0.1005
  296TIP3    H1  852   5.696   6.409   3.835  0.1815 -0.1511  0.2679
  296TIP3    H2  853   5.583   6.487   3.771 -0.4982  1.7431  3.5625
  297TIP3   OH2  854   5.369   4.996   1.533 -0.8426  0.3371 -0.4351
  297TIP3    H1  855   5.394   4.933   1.466  1.8994  2.5507 -1.7100
  297TIP3    H2  856   5.365   4.946   1.614 -1.2142 -1.8602 -1.7515
  298TIP3   OH2  857   6.787   1.293   4.958  0.2152 -1.0540  0.0738
  298TIP3    H1  858   6.830   1.236   4.894 -0.3651 -0.7556 -0.5930
  298TIP3    H2  859   6.698   1.304   4.925 -0.7364 -2.4906  1.9599
  299TIP3   OH2  860   5.859   1.272   4.392  0.0123  0.3970  0.1290
  299TIP3    H1  861   5.885   1.363   4.376  0.1927  0.3574  0.1868
  299TIP3    H2  862   5.932   1.221   4.356 -0.2172  0.2666 -0.1513
  300TIP3   OH2  863   1.232   2.407   0.783 -0.2720 -0.2957 -0.1900
  300TIP3    H1  864   1.326   2.396   0.799  0.0345  1.4664 -0.5638
  300TIP3    H2  865   1.206   2.329   0.733  0.4614 -1.9467  1.8739
  301TIP3   OH2  866   2.967   3.886   1.954 -0.1635  0.2163  0.3128
  301TIP3    H1  867   2.876   3.911   1.939 -0.0664  0.0069 -0.6877
  301TIP3    H2  868   3.018   3.958   1.917  0.0888 -0.3853 -0.5220
  302TIP3   OH2  869   0.644   1.198   5.825  0.0927  0.0957  0.0241
  302TIP3    H1  870   0.610   1.113   5.796 -0.1725  0.6663 -1.4461
  302TIP3    H2  871   0.730   1.204   5.783 -0.5534  1.2038 -1.2036
  303TIP3   OH2  872   5.226   5.612   2.862  0.0897 -0.1864 -0.3902
  303TIP3    H1  873   5.207   5.636   2.953 -0.1084  3.0709 -1.1655
  303TIP3    H2  874   5.142   5.586   2.825  0.3069 -2.3829  0.4771
  304TIP3   OH2  875   0.877   0.438   1.096  0.3937 -0.1721 -0.2648
  304TIP3    H1  876   0.912   0.475   1.015 -0.5169  1.2515 -0.0374
  304TIP3    H2  877   0.782   0.450   1.088  0.3731  1.4153  1.6516
  305TIP3   OH2  878   6.363   2.597   4.608  0.2305  0.6738 -0.1479
  305TIP3    H1  879   6.445   2.590   4.560 -0.3025 -2.0461 -0.8391
  305TIP3    H2  880   6.295   2.598   4.541 -0.5606 -3.6989  0.2950
  306TIP3   OH2  881   4.532   1.844   1.974  0.1424 -0.2349  0.2263
  306TIP3    H1  882   4.596   1.874   2.039 -0.3696 -0.1926  0.7131
  306TIP3    H2  883   4.511   1.754   2.001 -1.5367  0.4314  1.2903
  307TIP3   OH2  884   0.894   5.458   5.469 -0.3604  0.3036  0.0014
  307TIP3    H1  885   0.856   5.543   5.491 -0.3354  0.8492 -1.8345
  307TIP3    H2  886   0.988   5.468   5.486 -0.2762  0.8517 -0.7477
  308TIP3   OH2  887   4.946   2.361   0.853 -0.2386  0.1910 -0.2722
  308TIP3    H1  888   4.991   2.284   0.888  0.7420  1.1013  0.5592
  308TIP3    H2  889   4.947   2.349   0.758  1.2701 -0.0906 -0.2428
  309TIP3   OH2  890   3.121   0.318   0.204  0.2861 -0.2877 -0.2863
  309TIP3    H1  891   3.037   0.294   0.165  0.0652 -1.2574  0.7328
  309TIP3    H2  892   3.134   0.254   0.274  2.3443 -0.7313 -1.0308
  310TIP3   OH2  893   6.810   3.818   2.302 -0.0321 -0.3332  0.9385
  310TIP3    H1  894   6.716   3.813   2.287 -0.1576  0.6924  1.3420
  310TIP3    H2  895   6.845   3.738   2.262 -1.2669 -1.7174  2.5108
  311TIP3   OH2  896   5.672   1.861   4.259 -0.2478  0.0678  0.2301
  311TIP3    H1  897   5.709   1.947   4.278 -0.6075  0.8308 -2.1883
  311TIP3    H2  898   5.603   1.878   4.195 -1.4171 -1.8732  0.8891
  312TIP3   OH2  899   5.965   6.711   5.468 -0.1532  0.4812 -0.5053
  312TIP3    H1  900   6.027   6.638   5.468  0.6532  1.1425 -1.3258
  312TIP3    H2  901   5.896   6.684   5.530  1.4224  0.1452  1.1878
  313TIP3   OH2  902   4.558   1.954   5.163  0.5385 -0.2748 -0.0619
  313TIP3    H1  903   4.621   2.000   5.219 -0.6979  0.2602  0.9256
  313TIP3    H2  904   4.483   1.938   5.219 -0.2290 -0.8930 -1.2236
  314TIP3   OH2  905   6.189   2.848   2.808  0.1969 -0.1924  0.0472
  314TIP3    H1  906   6.216   2.928   2.763 -2.0941  0.4535 -0.2815
  314TIP3    H2  907   6.137   2.878   2.883 -0.8433 -1.3521 -0.1627
  315TIP3   OH2  908   1.005   4.538   2.587 -0.2672 -0.3773 -0.3421
  315TIP3    H1  909   1.074   4.527   2.522  1.9591  0.5685  1.7290
  315TIP3    H2  910   0.990   4.450   2.621 -1.5675 -0.9116 -2.1338
  316TIP3   OH2  911   2.943   0.762   5.567 -0.1408 -0.1366 -0.1992
  316TIP3    H1  912   2.886   0.760   5.644 -0.4934  0.4514 -0.4492
  316TIP3    H2  913   2.886   0.741   5.493 -0.1424  0.9083 -0.5109
  317TIP3   OH2  914   5.006   6.717   1.917 -0.6062 -0.0589  0.3805
  317TIP3    H1  915   5.084   6.674   1.952 -0.7123 -0.3470  0.2687
  317TIP3    H2  916   4.946   6.645   1.899  0.1214 -0.1441 -2.1114
  318TIP3   OH2  917   1.928   4.525   2.941 -0.0173  0.3042  0.3669
  318TIP3    H1  918   1.841   4.555   2.912 -0.6888 -0.6001  1.3570
  318TIP3    H2  919   1.989   4.571   2.884 -1.1556  0.8176 -0.4903
  319TIP3   OH2  920   3.113   1.659   3.105  0.0938  0.1786  0.3168
  319TIP3    H1  921   3.176   1.616   3.048  1.2596 -0.0330  1.6853
  319TIP3    H2  922   3.038   1.600   3.108 -0.8077  1.0684 -2.3928
  320TIP3   OH2  923   6.289   5.954   0.736  0.4043  0.0528 -0.5720
  320TIP3    H1  924   6.262   5.922   0.649 -1.4131 -2.2143  0.7041
  320TIP3    H2  925   6.216   6.011   0.763  0.8335  0.5252 -0.3988
  321TIP3   OH2  926   5.535   0.662   4.575 -0.3456 -0.8259 -0.2033
  321TIP3    H1  927   5.456   0.628   4.532  0.2526 -1.1364 -1.0981
  321TIP3    H2  928   5.600   0.665   4.505 -0.1007  1.2917  0.0523
  322TIP3   OH2  929   1.952   0.705   5.398 -0.0775  0.2630 -0.0614
  322TIP3    H1  930   1.986   0.623   5.363 -1.5903  0.1079 -1.2961
  322TIP3    H2  931   2.020   0.736   5.457  0.5411 -1.8785  0.4559
  323TIP3   OH2  932   0.868   2.704   3.539  0.1788 -0.4272  0.1962
  323TIP3    H1  933   0.929   2.631   3.534  1.5145  0.7093 -0.7178
  323TIP3    H2  934   0.911   2.768   3.596 -0.5668  0.0271  0.2655
  324TIP3   OH2  935   3.337   2.801   4.162  0.5252  0.3075 -0.1270
  324TIP3    H1  936   3.395   2.863   4.206  0.7183 -0.3618  0.5725
  324TIP3    H2  937   3.396   2.750   4.107  0.4210  0.4483 -0.3739
  325TIP3   OH2  938   1.746   1.806   0.716  0.0827 -0.0570  0.5631
  325TIP3    H1  939   1.795   1.788   0.636  1.1444  1.9152  0.6922
  325TIP3    H2  940   1.680   1.870   0.691  0.0226  0.1152  1.1384
  326TIP3   OH2  941   3.716   3.541   1.657  0.3396  0.2461  0.2687
  326TIP3    H1  942   3.714   3.455   1.700 -0.1755 -0.1735 -0.5697
  326TIP3    H2  943   3.632   3.581   1.680  1.2665  1.2623  2.0765
  327TIP3   OH2  944   3.147   1.158   2.515  0.6287  0.2607  0.9515
  327TIP3    H1  945   3.178   1.075   2.553 -0.7602 -0.2822  0.9664
  327TIP3    H2  946   3.111   1.133   2.430  1.3409  1.0653  0.3951
  328TIP3   OH2  947   5.121   2.903   3.859  0.8104  0.4831  0.0595
  328TIP3    H1  948   5.143   2.975   3.801  1.9808 -0.6318 -0.9522
  328TIP3    H2  949   5.170   2.828   3.824 -2.8342 -1.7018 -0.9940
  329TIP3   OH2  950   2.657   6.536   4.938 -0.5653  0.1987  0.3883
  329TIP3    H1  951   2.605   6.543   4.858  1.1101 -1.7944 -0.9831
  329TIP3    H2  952   2.736   6.586   4.920  0.3860 -1.2908  0.2374
  330TIP3   OH2  953   2.657   0.815   0.587  0.1237 -0.1388  0.4373
  330TIP3    H1  954   2.665   0.722   0.568  1.0091 -0.1204  0.6611
  330TIP3    H2  955   2.612   0.852   0.511 -0.1231 -0.7294  0.2951
  331TIP3   OH2  956   6.934   1.462   0.195  0.2346  0.3094 -0.0113
  331TIP3    H1  957   6.841   1.459   0.216  0.3492  1.8583  0.8717
  331TIP3    H2  958   6.938   1.501   0.108  0.0536 -0.2589 -0.2815
  332TIP3   OH2  959   3.485   2.490   3.749  0.1327 -0.4138 -0.1969
  332TIP3    H1  960   3.393   2.513   3.760 -0.3576 -1.8946 -0.9629
  332TIP3    H2  961   3.487   2.433   3.672  1.8139  0.2755 -0.7025
  333TIP3   OH2  962   2.169   2.177   2.023 -0.0527  0.7008 -0.2770
  333TIP3    H1  963   2.093   2.218   2.064  1.5743  3.8092 -0.0911
  333TIP3    H2  964   2.138   2.150   1.936 -1.8441 -0.0761  0.5402
  334TIP3   OH2  965   1.616   5.804   0.607  0.1474 -0.2414 -0.1185
  334TIP3    H1  966   1.524   5.826   0.594  0.2073 -0.6107 -1.3628
  334TIP3    H2  967   1.615   5.715   0.643  0.0235 -0.7674 -1.3742
  335TIP3   OH2  968   0.387   2.278   1.556  0.1441 -0.1559  0.2189
  335TIP3    H1  969   0.426   2.190   1.555  0.4323 -0.0447 -1.7652
  335TIP3    H2  970   0.442   2.328   1.616  1.1965 -0.8272 -0.1512
  336TIP3   OH2  971   0.119   3.465   1.611  0.6178 -0.5001 -0.2156
  336TIP3    H1  972   0.204   3.504   1.632  1.0837 -0.1097 -2.5784
  336TIP3    H2  973   0.134   3.371   1.614  0.7432 -0.4559  0.7837
  337TIP3   OH2  974   4.630   4.145   0.017 -0.3608 -0.1196  0.5010
  337TIP3    H1  975   4.596   4.227   0.053 -1.7855 -0.6619  0.4502
  337TIP3    H2  976   4.561   4.081   0.034  0.4385 -1.1569 -0.0720
  338TIP3   OH2  977   5.755   2.419   5.591 -0.1551 -0.2266  0.3506
  338TIP3    H1  978   5.754   2.459   5.504  2.4680  1.6975  1.0613
  338TIP3    H2  979   5.770   2.326   5.574  0.6825  0.1568 -1.2626
  339TIP3   OH2  980   6.435   6.627   3.925  0.1604  0.2036 -0.4600
  339TIP3    H1  981   6.521   6.596   3.896 -0.6107 -1.1558 -1.4154
  339TIP3    H2  982   6.450   6.717   3.953  1.8740  0.0231 -0.7057
  340TIP3   OH2  983   3.711   5.682   0.906  0.5781  0.5207 -0.5015
  340TIP3    H1  984   3.654   5.685   0.983  0.9572  1.8763 -0.2615
  340TIP3    H2  985   3.785   5.628   0.933 -0.5813 -1.3814 -0.8583
  341TIP3   OH2  986   0.165   1.706   3.856 -0.2420 -0.0062 -0.0528
  341TIP3    H1  987   0.249   1.735   3.820  0.0887  0.1837  0.8429
  341TIP3    H2  988   0.188   1.661   3.937 -1.0918  1.3997  1.0124
  342TIP3   OH2  989  -0.025   4.108   0.352 -0.2651  0.2954 -0.5312
  342TIP3    H1  990   0.015   4.146   0.274 -0.1149  1.4069  0.0713
  342TIP3    H2  991   0.025   4.144   0.425 -0.7839 -0.2577  0.1147
  343TIP3   OH2  992   6.433   3.384   0.064  0.4433  0.5332  0.5480
  343TIP3    H1  993   6.441   3.310   0.004  1.2470  0.0355  1.2542
  343TIP3    H2  994   6.441   3.461   0.008  0.1930  0.0892 -0.1130
  344TIP3   OH2  995   6.001   3.074   1.395  0.3157  0.0898 -0.0680
  344TIP3    H1  996   5.927   3.116   1.439  0.6843 -0.5043  1.1674
  344TIP3    H2  997   6.065   3.145   1.383 -0.3943  0.5918 -1.0828
  345TIP3   OH2  998   7.170   6.653   2.710 -0.3311  0.2910  0.4146
  345TIP3    H1  999   7.142   6.609   2.791  1.6570  3.0161  2.8239
  345TIP3    H2 1000   7.264   6.633   2.703 -0.4785  0.0786 -1.2880
  346TIP3   OH2 1001   1.786   3.852   2.751  0.5650 -0.2764 -0.2489
  346TIP3    H1 1002   1.737   3.778   2.716 -1.7034  0.0513  1.9095
  346TIP3    H2 1003   1.842   3.881   2.679 -2.3859 -0.7423 -2.9293
  347TIP3   OH2 1004   4.290   3.847   4.733 -0.5773  1.2505 -0.1816
  347TIP3    H1 1005   4.300   3.789   4.808 -0.5179  2.7391  0.9985
  347TIP3    H2 1006   4.200   3.834   4.704 -0.8665  1.2666  0.6818
  348TIP3   OH2 1007   1.533   4.851   4.457 -0.1246 -0.0992  0.3611
  348TIP3    H1 1008   1.492   4.765   4.445  0.2762 -0.4413  1.3506
  348TIP3    H2 1009   1.515   4.874   4.549  0.0863  0.7086  0.2101
  349TIP3   OH2 1010   4.314   3.516   0.727  0.8782  0.4877 -0.2986
  349TIP3    H1 1011   4.379   3.580   0.755  2.0805 -0.4293 -0.9040
  349TIP3    H2 1012   4.347   3.432   0.760 -0.1155  0.0216 -0.4380
  350TIP3   OH2 1013   1.134   5.016   2.867  0.0553 -0.4398 -0.2553
  350TIP3    H1 1014   1.156   5.039   2.957 -0.7832 -2.3365  0.5006
  350TIP3    H2 1015   1.146   5.097   2.817  2.1745  0.2304  1.2300
  351TIP3   OH2 1016   4.457   6.558   5.114 -0.2861  0.2302 -0.6870
  351TIP3    H1 1017   4.456   6.504   5.193  2.4883 -0.8932 -1.3261
  351TIP3    H2 1018   4.446   6.496   5.042  1.6450  0.6272 -1.3735
  352TIP3   OH2 1019   1.585   6.488   2.369  0.3703  0.1602  0.1971
  352TIP3    H1 1020   1.672   6.495   2.409  0.1025  1.8560  0.5487
  352TIP3    H2 1021   1.550   6.406   2.404  2.4210 -1.4448 -1.2507
  353TIP3   OH2 1022   5.623   6.079   2.921 -0.6542  0.8913 -0.2943
  353TIP3    H1 1023   5.555   6.101   2.984  1.0945  0.7436  1.7698
  353TIP3    H2 1024   5.596   6.122   2.840 -2.1479  2.5510  1.0078
  354TIP3   OH2 1025   0.263   2.167   2.068  0.0279 -0.1479  0.5926
  354TIP3    H1 1026   0.306   2.240   2.023 -0.4002 -0.2584 -0.0105
  354TIP3    H2 1027   0.197   2.136   2.006 -0.4777 -0.4013  1.2451
  355TIP3   OH2 1028   2.189   4.605   1.246 -0.6476 -0.0094  0.0841
  355TIP3    H1 1029   2.248   4.538   1.212 -0.7101 -0.9185  1.6749
  355TIP3    H2 1030   2.241   4.684   1.249 -0.3908 -0.1045 -1.2605
  356TIP3   OH2 1031   3.079   2.891   0.342 -0.9080 -0.5017 -0.1933
  356TIP3    H1 1032   2.984   2.886   0.339 -1.0538  1.4267 -0.0209
  356TIP3    H2 1033   3.097   2.977   0.380  0.9098 -1.1630  0.5422
  357TIP3   OH2 1034   0.154   5.813   1.490 -0.2313  0.1541  0.5016
  357TIP3    H1 1035   0.188   5.724   1.499 -1.4075 -0.5122 -1.1735
  357TIP3    H2 1036   0.158   5.831   1.396 -2.0835  0.9990  0.5369
  358TIP3   OH2 1037   0.925   1.215   2.330  0.2020 -0.0370  0.3396
  358TIP3    H1 1038   0.896   1.140   2.277 -0.9426  0.0570  0.7937
  358TIP3    H2 1039   0.898   1.193   2.419  1.3650  0.1809  0.7507
  359TIP3   OH2 1040   5.487   0.596   3.362 -0.0919 -0.2250  0.5657
  359TIP3    H1 1041   5.474   0.618   3.454  0.6289  0.0008  0.6206
  359TIP3    H2 1042   5.574   0.629   3.341 -0.4254  0.1525 -0.3261
  360TIP3   OH2 1043   0.175   6.304   1.916  0.0268 -0.0489  0.1115
  360TIP3    H1 1044   0.188   6.212   1.893  1.2388  0.4910 -1.5460
  360TIP3    H2 1045   0.129   6.342   1.841 -1.2885  0.5219  1.1722
  361TIP3   OH2 1046   6.941   3.854   2.783 -0.1440 -0.0638 -0.3182
  361TIP3    H1 1047   6.904   3.930   2.736  1.0281  0.4822 -0.3866
  361TIP3    H2 1048   6.991   3.807   2.717 -1.4485 -1.3189 -0.4410
  362TIP3   OH2 1049   2.418   0.825   3.684 -0.6177  0.4536 -0.2056
  362TIP3    H1 1050   2.338   0.845   3.733 -1.5912 -0.1426 -1.4903
  362TIP3    H2 1051   2.421   0.892   3.615 -0.8949 -0.4563 -1.1285
  363TIP3   OH2 1052   3.244   3.707   3.165  0.1950 -0.4309 -0.3043
  363TIP3    H1 1053   3.274   3.656   3.241  1.6918  1.3560  0.3785
  363TIP3    H2 1054   3.177   3.766   3.201 -0.1389 -0.5758 -0.6819
  364TIP3   OH2 1055   3.335   3.958   0.448  0.0782 -0.5408  0.1939
  364TIP3    H1 1056   3.380   3.928   0.368 -0.5696 -0.1602 -0.3223
  364TIP3    H2 1057   3.401   3.949   0.517  0.4276 -1.5587 -0.2447
  365TIP3   OH2 1058   6.487   6.144   1.158 -0.1995 -0.2728  0.1945
  365TIP3    H1 1059   6.543   6.078   1.117 -0.4075  0.0041 -0.5700
  365TIP3    H2 1060   6.407   6.143   1.104  0.0997  1.1423 -0.3127
  366TIP3   OH2 1061   6.757   0.562   4.223  1.1154 -0.4852 -0.2926
  366TIP3    H1 1062   6.793   0.474   4.212  0.5660 -0.9249  1.2127
  366TIP3    H2 1063   6.691   0.569   4.153  2.2960 -0.6177 -1.4625
  367TIP3   OH2 1064   0.477   3.822   3.262 -0.0213  0.3283 -0.3007
  367TIP3    H1 1065   0.447   3.876   3.336 -0.0273  0.3042 -0.2855
  367TIP3    H2 1066   0.469   3.880   3.186 -0.6206  0.1520 -0.3799
  368TIP3   OH2 1067   3.601   2.924   4.345  0.3784  0.1821 -0.7001
  368TIP3    H1 1068   3.667   2.984   4.380 -0.7731  2.2533 -1.8744
  368TIP3    H2 1069   3.617   2.924   4.250 -0.8532  0.1686 -0.9295
  369TIP3   OH2 1070   6.976   0.530   2.512  0.1277 -0.1255 -0.0354
  369TIP3    H1 1071   6.969   0.468   2.584  0.5821  0.7391  0.7803
  369TIP3    H2 1072   6.970   0.616   2.554 -1.3192  0.4008 -1.2153
  370TIP3   OH2 1073   5.139   1.998   5.285  0.0599  0.0139 -0.0343
  370TIP3    H1 1074   5.062   2.033   5.331 -0.0869 -0.6055  0.2024
  370TIP3    H2 1075   5.150   1.910   5.321 -0.4442 -0.7448 -1.6587
  371TIP3   OH2 1076   1.481   1.432   2.543 -0.4788  0.6359 -0.1113
  371TIP3    H1 1077   1.432   1.513   2.527 -0.3958  1.8727  4.4975
  371TIP3    H2 1078   1.569   1.461   2.565  0.0286 -0.8617 -0.0686
  372TIP3   OH2 1079   2.328   6.591   1.906  0.2520 -0.1181  0.2184
  372TIP3    H1 1080   2.264   6.519   1.900 -1.5798  1.4577  0.0103
  372TIP3    H2 1081   2.407   6.555   1.866  0.0341 -2.6518  1.8137
  373TIP3   OH2 1082   5.630   4.798   3.304  0.0342 -0.2423 -0.0946
  373TIP3    H1 1083   5.679   4.839   3.375 -0.4716 -0.8159  0.6045
  373TIP3    H2 1084   5.687   4.806   3.228  0.8019 -0.0469  0.4858
  374TIP3   OH2 1085   2.971   6.113   5.196  0.1028 -0.0792 -0.0726
  374TIP3    H1 1086   2.951   6.126   5.103  2.2896  0.9226 -0.4847
  374TIP3    H2 1087   2.987   6.202   5.229 -0.1288 -0.4700  1.1447
  375TIP3   OH2 1088   2.782   1.647   1.097 -0.3136  0.0474  0.6479
  375TIP3    H1 1089   2.850   1.617   1.157 -0.5150 -0.8761  0.4417
  375TIP3    H2 1090   2.738   1.566   1.068 -1.5482  0.6181  0.8357
  376TIP3   OH2 1091   4.145   3.835   5.053 -0.1649  0.4703  0.1379
  376TIP3    H1 1092   4.206   3.866   5.119 -0.0890 -2.1471  1.4135
  376TIP3    H2 1093   4.180   3.750   5.026 -1.7018  0.2152 -1.2264
  377TIP3   OH2 1094   5.463   4.092   1.024  0.5953 -0.3762  0.2932
  377TIP3    H1 1095   5.519   4.042   1.083  1.5745 -0.0875 -0.3473
  377TIP3    H2 1096   5.448   4.175   1.069  0.3461 -0.6095  0.6425
  378TIP3   OH2 1097   5.585   6.210   1.081  0.0335 -0.1494  0.4556
  378TIP3    H1 1098   5.549   6.121   1.086  0.4871 -0.2544  4.0079
  378TIP3    H2 1099   5.543   6.247   1.003 -2.8481 -2.3441  0.7617
  379TIP3   OH2 1100   3.239   0.796   3.606  0.1189  0.3167  0.3323
  379TIP3    H1 1101   3.275   0.713   3.573  0.0915  0.6096 -0.4581
  379TIP3    H2 1102   3.148   0.775   3.629  0.0039  0.2066 -0.2086
  380TIP3   OH2 1103   5.655   2.194   0.247 -0.0227 -0.3224 -0.2003
  380TIP3    H1 1104   5.683   2.167   0.335 -1.6084 -0.1745  0.3902
  380TIP3    H2 1105   5.601   2.122   0.216 -1.2794  0.5495 -0.1260
  381TIP3   OH2 1106   5.170   0.673   5.707 -0.6024  0.0797 -0.2085
  381TIP3    H1 1107   5.180   0.613   5.633 -1.4984  0.4505 -0.6461
  381TIP3    H2 1108   5.172   0.761   5.668 -1.4569  0.2696  0.1444
  382TIP3   OH2 1109   3.206   5.683   2.039  0.6202 -0.0722 -0.0155
  382TIP3    H1 1110   3.146   5.635   2.096 -0.3031  1.0970  0.0277
  382TIP3    H2 1111   3.150   5.745   1.992  1.7799  1.0369  0.0042
  383TIP3   OH2 1112   3.033   0.985   1.580 -0.2178  0.0343 -0.0052
  383TIP3    H1 1113   3.089   1.017   1.651  0.0538 -1.5087  0.5181
  383TIP3    H2 1114   3.086   0.918   1.536 -0.5150  0.7080 -1.4678
  384TIP3   OH2 1115   2.793   4.315   4.208  0.6912  0.5341 -0.1019
  384TIP3    H1 1116   2.784   4.390   4.149  1.1750 -1.5267 -2.9838
  384TIP3    H2 1117   2.887   4.306   4.221  0.8260 -0.8468 -1.6709
  385TIP3   OH2 1118   1.539   0.330   4.564 -0.7994 -0.0814  0.4312
  385TIP3    H1 1119   1.550   0.269   4.638 -0.8445 -1.2307 -0.4817
  385TIP3    H2 1120   1.591   0.407   4.589  1.2626 -1.4310  0.5962
  386TIP3   OH2 1121   6.706   3.237   5.813 -0.6166 -0.0777 -0.6255
  386TIP3    H1 1122   6.742   3.222   5.900 -0.4819  0.5272 -0.5702
  386TIP3    H2 1123   6.612   3.217   5.822 -0.7948  0.9294 -0.0812
  387TIP3   OH2 1124   4.890   6.105   2.018  0.0032  0.7640 -0.7788
  387TIP3    H1 1125   4.815   6.100   1.960  0.5619 -1.7993 -1.4236
  387TIP3    H2 1126   4.944   6.029   1.995  2.0825  1.6998  0.6245
  388TIP3   OH2 1127   3.453   5.349   4.099 -0.4568 -0.2170  0.0650
  388TIP3    H1 1128   3.401   5.275   4.068 -0.2708 -0.9410  1.4008
  388TIP3    H2 1129   3.521   5.310   4.154  0.7582  0.8099 -0.6467
  389TIP3   OH2 1130   4.769   0.620   2.648  0.5061 -0.3664  0.0194
  389TIP3    H1 1131   4.763   0.615   2.553  0.0239 -0.3845  0.0454
  389TIP3    H2 1132   4.723   0.542   2.680 -0.8009  0.4761  0.2854
  390TIP3   OH2 1133   1.084   6.598   2.704  0.4177 -0.7073  0.0478
  390TIP3    H1 1134   1.039   6.681   2.715  0.2681 -0.9810  1.8331
  390TIP3    H2 1135   1.035   6.536   2.759  1.2270 -1.7005 -0.3067
  391TIP3   OH2 1136   3.908   3.050   1.572  0.1229 -0.2994 -0.5082
  391TIP3    H1 1137   3.916   2.988   1.644  0.7991  2.8150  2.3773
  391TIP3    H2 1138   3.977   3.115   1.588 -3.1891  3.6513 -0.4635
  392TIP3   OH2 1139   3.132   0.605   0.121  0.1446 -0.5894 -0.0335
  392TIP3    H1 1140   3.131   0.649   0.206 -0.5341 -0.5263 -0.0636
  392TIP3    H2 1141   3.125   0.512   0.142  0.2800 -0.5947 -0.0115
  393TIP3   OH2 1142   5.333   4.991   0.030 -0.3775  0.1031  0.9630
  393TIP3    H1 1143   5.245   4.992  -0.006 -0.1648  1.8181  0.3924
  393TIP3    H2 1144   5.321   4.997   0.125 -0.8884 -2.4151  1.1332
  394TIP3   OH2 1145   1.376   5.466   3.293  0.2143 -0.0653 -0.0681
  394TIP3    H1 1146   1.289   5.458   3.333  0.7832 -2.3224  0.9131
  394TIP3    H2 1147   1.420   5.535   3.342  0.1478 -1.3272  1.8721
  395TIP3   OH2 1148   6.344   6.378   2.175  0.0761 -0.1743 -0.3993
  395TIP3    H1 1149   6.335   6.285   2.194  0.6528 -0.2012 -0.2385
  395TIP3    H2 1150   6.272   6.397   2.115  1.7429 -1.4089 -2.9479
  396TIP3   OH2 1151   7.166   0.483   0.716 -0.0674 -0.1299  0.0957
  396TIP3    H1 1152   7.176   0.577   0.699 -0.0981  0.1345  1.4195
  396TIP3    H2 1153   7.085   0.477   0.766  0.0769 -0.8387  0.2485
  397TIP3   OH2 1154   0.220   3.743   3.930 -0.3827 -0.3970  0.2599
  397TIP3    H1 1155   0.159   3.790   3.873  0.7164  1.0880  0.2682
  397TIP3    H2 1156   0.304   3.785   3.916  0.0542 -0.3805  2.5357
  398TIP3   OH2 1157   1.623   1.825   1.188 -0.5996  0.1664 -0.1655
  398TIP3    H1 1158   1.654   1.870   1.266  0.2656  0.8039 -0.8622
  398TIP3    H2 1159   1.531   1.850   1.181 -0.5540  0.5030  0.3559
  399TIP3   OH2 1160   6.573   2.190   1.980 -0.2143 -0.1040  0.0864
  399TIP3    H1 1161   6.520   2.129   1.930  2.0976 -0.5956 -1.9594
  399TIP3    H2 1162   6.517   2.267   1.992 -1.6751 -0.9391 -1.1159
  400TIP3   OH2 1163   0.479   3.860   3.954 -0.3884  0.2597  0.1750
  400TIP3    H1 1164   0.512   3.947   3.977  0.4422  0.0504 -0.1825
  400TIP3    H2 1165   0.546   3.800   3.986 -0.4248 -0.1816 -0.5575
  401TIP3   OH2 1166   0.180   6.327   3.762 -0.5945 -0.0015 -0.5527
  401TIP3    H1 1167   0.165   6.272   3.685 -0.2832 -0.1028 -0.5404
  401TIP3    H2 1168   0.193   6.415   3.727 -0.5754 -0.0255 -0.6063
  402TIP3   OH2 1169   1.024   4.883   4.030  0.2512  0.3465  0.5498
  402TIP3    H1 1170   1.084   4.919   3.965 -0.4600  1.7394  0.6303
  402TIP3    H2 1171   1.074   4.813   4.072  1.4070  0.7211 -0.1516
  403TIP3   OH2 1172   0.772   0.915   1.368 -0.6049  0.7292 -0.1077
  403TIP3    H1 1173   0.810   1.000   1.344 -0.4456  0.5800 -0.3725
  403TIP3    H2 1174   0.745   0.876   1.285 -0.7582  0.5553  0.0230
  404TIP3   OH2 1175   0.645   1.664   5.626 -0.1194 -0.3184 -0.3248
  404TIP3    H1 1176   0.629   1.570   5.635  0.9166 -0.3587  2.0002
  404TIP3    H2 1177   0.724   1.679   5.679 -0.3492  1.8745 -0.5436
  405TIP3   OH2 1178   2.908   1.455   0.882 -0.0539  0.1827 -0.6806
  405TIP3    H1 1179   2.836   1.408   0.924 -1.3069  0.9121 -1.9275
  405TIP3    H2 1180   2.940   1.514   0.950 -1.5969  0.8664 -0.4855
  406TIP3   OH2 1181   1.499   4.529   5.836 -0.1961 -0.5577  0.1094
  406TIP3    H1 1182   1.559   4.495   5.902 -0.4500  0.3151  0.7955
  406TIP3    H2 1183   1.479   4.618   5.863 -2.8047 -1.2038  0.6314
  407TIP3   OH2 1184   5.028   0.105   3.706  0.2044 -0.0345 -0.6194
  407TIP3    H1 1185   5.027   0.193   3.743  0.3628  0.5293 -1.8955
  407TIP3    H2 1186   5.016   0.118   3.612 -2.8872 -1.5435 -0.5766
  408TIP3   OH2 1187   2.548   4.487   0.112  0.0309 -0.2454  0.0625
  408TIP3    H1 1188   2.494   4.445   0.179  1.0653 -2.4423 -0.3750
  408TIP3    H2 1189   2.508   4.460   0.029 -0.2920  1.1154 -0.2456
  409TIP3   OH2 1190   5.309   5.949   0.942 -0.5227 -0.5204 -0.0852
  409TIP3    H1 1191   5.278   5.960   1.032 -2.1710 -0.1949 -0.6495
  409TIP3    H2 1192   5.275   5.864   0.915  0.1067 -0.6936 -0.3565
  410TIP3   OH2 1193   5.684   0.162   3.005 -0.6287  0.0071 -0.2890
  410TIP3    H1 1194   5.704   0.124   3.091 -3.4320  2.4606  1.6333
  410TIP3    H2 1195   5.627   0.097   2.963  0.5149 -1.0732 -0.2312
  411TIP3   OH2 1196   6.701   2.023   1.628 -0.3944 -0.3069 -0.0688
  411TIP3    H1 1197   6.728   1.986   1.712 -0.9364 -0.8173 -0.1154
  411TIP3    H2 1198   6.700   2.118   1.643  0.4876 -0.3271  0.2021
  412TIP3   OH2 1199   1.537   3.109   3.874 -0.1471  0.0673  0.0818
  412TIP3    H1 1200   1.520   3.015   3.887  0.9468  0.1479  2.6387
  412TIP3    H2 1201   1.627   3.113   3.843 -0.0887  0.2866  0.2784
  413TIP3   OH2 1202   1.007   0.599   2.133 -0.0451 -0.0480  0.3110
  413TIP3    H1 1203   1.037   0.690   2.131 -0.2962  0.0482  0.7696
  413TIP3    H2 1204   0.925   0.599   2.084 -0.1578  0.0176  0.4981
  414TIP3   OH2 1205   5.489   0.410   5.702 -0.1677 -0.0901  0.8194
  414TIP3    H1 1206   5.395   0.391   5.696  0.1161 -1.1182 -3.6434
  414TIP3    H2 1207   5.530   0.325   5.719  0.1138 -0.7354 -2.4707
  415TIP3   OH2 1208   2.492   4.975   0.584  0.1071 -0.1332  0.0720
  415TIP3    H1 1209   2.425   5.038   0.560  1.1006  0.8264 -0.2795
  415TIP3    H2 1210   2.472   4.952   0.675  0.2364  1.4025  0.5266
  416TIP3   OH2 1211   5.893   0.849   2.785 -0.1001 -0.0768 -0.5591
  416TIP3    H1 1212   5.907   0.834   2.691 -1.2687 -1.3899 -0.5608
  416TIP3    H2 1213   5.809   0.806   2.804  0.2412 -0.0698  1.1397
  417TIP3   OH2 1214   5.584   3.607   2.149 -0.1540  0.0330  0.2289
  417TIP3    H1 1215   5.523   3.636   2.080  0.9900  1.3779 -0.2746
  417TIP3    H2 1216   5.534   3.617   2.230 -1.0928 -0.3209 -0.2859
  418TIP3   OH2 1217   1.281   3.448   4.009  0.6531 -0.4776 -0.0217
  418TIP3    H1 1218   1.314   3.361   4.032  0.1983 -0.7948 -0.5434
  418TIP3    H2 1219   1.221   3.471   4.080 -1.5901 -1.9177 -1.3222
  419TIP3   OH2 1220   1.045   1.465   5.500  0.1648 -0.1239  0.2455
  419TIP3    H1 1221   1.112   1.398   5.487 -0.0222 -0.1855 -0.4229
  419TIP3    H2 1222   0.964   1.424   5.471 -0.1284  0.0432  0.7981
  420TIP3   OH2 1223   5.841   3.228   1.562 -0.0246 -0.1643 -0.4072
  420TIP3    H1 1224   5.753   3.197   1.541  0.3757 -1.0487 -0.8442
  420TIP3    H2 1225   5.858   3.195   1.650  0.1219 -0.5674 -0.5856
  421TIP3   OH2 1226   7.091   0.220   1.276 -0.0473  0.4180 -0.4053
  421TIP3    H1 1227   6.999   0.244   1.262 -0.3173 -0.7479 -0.7087
  421TIP3    H2 1228   7.088   0.131   1.310  0.9260  0.8927  0.9798
  422TIP3   OH2 1229   3.110   3.695   2.889  0.1730 -0.0981 -0.0942
  422TIP3    H1 1230   3.151   3.687   2.803 -1.7373 -0.0075 -1.0620
  422TIP3    H2 1231   3.183   3.697   2.950  1.5742 -0.4033 -1.6902
  423TIP3   OH2 1232   1.209   2.900   0.153 -0.5099 -0.7081 -0.0847
  423TIP3    H1 1233   1.139   2.850   0.196 -1.2957  1.2489  1.0565
  423TIP3    H2 1234   1.164   2.949   0.084 -0.3468  0.7673  0.8300
  424TIP3   OH2 1235   5.742   6.107   2.221  1.1552  0.3700  0.6231
  424TIP3    H1 1236   5.767   6.015   2.207  1.0556  0.5674 -0.9439
  424TIP3    H2 1237   5.710   6.136   2.136  0.0008  1.5011  1.4276
  425TIP3   OH2 1238   2.422   4.795   4.046 -0.2896  0.1571 -0.3621
  425TIP3    H1 1239   2.341   4.826   4.087 -0.5791 -0.7016 -0.2624
  425TIP3    H2 1240   2.435   4.852   3.971 -0.7956  0.5225 -0.1765
  426TIP3   OH2 1241   2.954   2.220   4.133 -0.4675 -0.2350 -0.3838
  426TIP3    H1 1242   3.033   2.165   4.129 -0.3057  0.0564 -1.5075
  426TIP3    H2 1243   2.958   2.261   4.219 -0.4049 -1.6916  0.3468
  427TIP3   OH2 1244   4.599   6.067   0.193 -0.0463  0.3599 -0.0765
  427TIP3    H1 1245   4.600   6.092   0.100  1.4641  1.5556  0.2162
  427TIP3    H2 1246   4.549   5.986   0.195 -0.5626  0.5793 -1.8690
  428TIP3   OH2 1247   0.170   0.292   5.740 -0.1421  0.1561 -0.0074
  428TIP3    H1 1248   0.140   0.204   5.715  1.0760  0.1374 -1.5277
  428TIP3    H2 1249   0.123   0.351   5.683 -2.6313  0.7829  2.4620
  429TIP3   OH2 1250   0.415   4.771   1.451 -0.6983  0.2639  0.4704
  429TIP3    H1 1251   0.342   4.766   1.513 -0.5057 -0.0933  0.6739
  429TIP3    H2 1252   0.379   4.739   1.369  0.0288 -3.1639  1.3239
  430TIP3   OH2 1253   5.179   1.390   3.651 -0.0778  0.3282  0.2833
  430TIP3    H1 1254   5.115   1.397   3.721  0.0735 -1.2488  0.6213
  430TIP3    H2 1255   5.160   1.306   3.609  1.3438  0.1352 -0.0313
  431TIP3   OH2 1256   4.847   1.193   4.734 -0.5591  0.1718 -0.1836
  431TIP3    H1 1257   4.822   1.125   4.796  0.3351 -3.6603 -3.6039
  431TIP3    H2 1258   4.943   1.188   4.730 -0.2630  3.0866  0.7748
  432TIP3   OH2 1259   5.646   0.284   3.952 -0.1574  0.1993  0.3820
  432TIP3    H1 1260   5.598   0.344   3.895 -1.0240  0.3173  1.2101
  432TIP3    H2 1261   5.578   0.234   3.996  0.5219 -0.4187  0.7484
  433TIP3   OH2 1262   7.055   4.924   3.670 -0.3009  0.1157  0.3952
  433TIP3    H1 1263   7.072   4.979   3.747  1.1548 -0.4279  0.4769
  433TIP3    H2 1264   6.979   4.966   3.628  1.2670  2.7511 -0.0354
  434TIP3   OH2 1265   3.297   3.075   5.316 -1.0008  0.0590  0.2179
  434TIP3    H1 1266   3.268   2.984   5.317  0.7847 -0.5479  1.2339
  434TIP3    H2 1267   3.387   3.071   5.281 -0.5814  1.3127  1.0803
  435TIP3   OH2 1268   2.205   2.366   1.129  0.6841  0.8003 -1.1224
  435TIP3    H1 1269   2.192   2.445   1.183 -0.0338  1.9583 -2.9093
  435TIP3    H2 1270   2.121   2.321   1.133  1.3685 -0.4409  0.6557
  436TIP3   OH2 1271   4.233   4.122   3.214 -0.5490 -0.0409  0.1446
  436TIP3    H1 1272   4.234   4.086   3.303 -1.2318 -0.7836 -0.1434
  436TIP3    H2 1273   4.288   4.062   3.164 -2.9483 -1.6954 -0.6927
  437TIP3   OH2 1274   6.872   3.442   0.403  0.4618 -0.8830  0.6428
  437TIP3    H1 1275   6.832   3.517   0.358  2.1990 -0.1763  0.1923
  437TIP3    H2 1276   6.867   3.371   0.339 -0.2390 -0.8675  0.6716
  438TIP3   OH2 1277   1.814   6.523   2.667 -0.3586 -0.2392 -0.3198
  438TIP3    H1 1278   1.908   6.539   2.663 -0.7458  2.3138 -0.8959
  438TIP3    H2 1279   1.806   6.436   2.707  2.2816 -1.5858 -2.3794
  439TIP3   OH2 1280   0.483   3.180   3.809  0.2858 -0.4096 -0.5312
  439TIP3    H1 1281   0.431   3.212   3.883  1.0917  1.1520 -0.6057
  439TIP3    H2 1282   0.477   3.084   3.815  1.7718 -0.4319  2.6669
  440TIP3   OH2 1283   3.875   0.096   1.105  0.4426 -0.2560 -0.1651
  440TIP3    H1 1284   3.956   0.140   1.128  0.2638 -0.8444  1.8261
  440TIP3    H2 1285   3.899   0.004   1.095  0.3513 -0.1413 -1.5886
  441TIP3   OH2 1286   2.031   0.538   5.683  0.2058 -0.4609 -0.4412
  441TIP3    H1 1287   1.966   0.547   5.752 -0.1340 -2.9746 -0.3671
  441TIP3    H2 1288   1.993   0.476   5.621  2.1834 -1.4267 -0.7795
  442TIP3   OH2 1289   3.819   6.544   2.131 -0.7051 -0.0718  0.4652
  442TIP3    H1 1290   3.725   6.541   2.111 -0.6232  1.6774 -0.4033
  442TIP3    H2 1291   3.823   6.573   2.222 -1.0112 -0.2754  0.5451
  443TIP3   OH2 1292   6.970   4.246   0.059 -0.5454  0.6824  0.0958
  443TIP3    H1 1293   7.034   4.260   0.129 -0.4140  0.2886  0.0578
  443TIP3    H2 1294   6.885   4.252   0.102 -0.4672  0.5102  0.2752
  444TIP3   OH2 1295   3.234   3.190   3.215 -0.1023 -0.2155  0.1493
  444TIP3    H1 1296   3.218   3.183   3.309  1.0360  1.4628  0.5049
  444TIP3    H2 1297   3.195   3.273   3.190  2.9841  1.3288 -0.0061
  445TIP3   OH2 1298   2.851   4.576   3.636  0.8391  0.5914  0.6273
  445TIP3    H1 1299   2.772   4.525   3.617  0.3286  0.9646  1.6650
  445TIP3    H2 1300   2.863   4.630   3.557  1.6332 -1.3641 -0.6665
  446TIP3   OH2 1301   0.574   5.378   3.314 -0.9195  0.1026 -0.9134
  446TIP3    H1 1302   0.633   5.333   3.254  1.0815  0.1884  0.8622
  446TIP3    H2 1303   0.610   5.466   3.323  0.1849 -0.5112  1.9582
  447TIP3   OH2 1304   0.925   5.816   0.765 -0.2582  0.2180  0.3275
  447TIP3    H1 1305   1.003   5.762   0.750 -0.7899 -0.5813  0.4024
  447TIP3    H2 1306   0.938   5.852   0.853 -0.6161 -1.0347  0.9131
  448TIP3   OH2 1307   3.217   6.285   5.315  0.0083  0.7220  0.3375
  448TIP3    H1 1308   3.257   6.255   5.397 -1.1158 -1.0971  0.2810
  448TIP3    H2 1309   3.178   6.369   5.336  0.4344  0.6607  1.4394
  449TIP3   OH2 1310   5.932   6.248   5.766  0.3080 -0.1944 -0.2215
  449TIP3    H1 1311   5.982   6.178   5.723 -0.6628 -0.1495 -1.4547
  449TIP3    H2 1312   5.844   6.211   5.778  0.1114  0.3976  0.2313
  450TIP3   OH2 1313   6.441   0.454   3.349  0.1190 -0.2238 -0.0858
  450TIP3    H1 1314   6.440   0.492   3.437  0.1697  0.1748 -0.2565
  450TIP3    H2 1315   6.532   0.426   3.336  0.8510  2.3196 -1.1056
  451TIP3   OH2 1316   0.044   6.242   3.184  0.0234  0.4089 -0.6749
  451TIP3    H1 1317   0.138   6.234   3.167  0.2219 -0.6032  0.7789
  451TIP3    H2 1318   0.031   6.336   3.201  1.5729  0.1405  3.0717
  452TIP3   OH2 1319   5.944   4.276   2.245  0.7109 -0.1003  0.0883
  452TIP3    H1 1320   6.029   4.308   2.276 -0.0583 -0.2403  2.5481
  452TIP3    H2 1321   5.897   4.252   2.324 -2.1925  1.3365 -1.0413
  453TIP3   OH2 1322   6.946   5.478   0.729  0.1206  0.0194 -0.5925
  453TIP3    H1 1323   6.984   5.454   0.644  1.5942  0.2910 -0.0413
  453TIP3    H2 1324   6.960   5.400   0.783  3.0969  1.2485  0.6144
  454TIP3   OH2 1325   3.411   5.382   3.708  0.0962 -0.4732 -0.0491
  454TIP3    H1 1326   3.406   5.311   3.644  3.3390  0.8000 -1.9631
  454TIP3    H2 1327   3.485   5.358   3.764  0.2832  0.6612  0.2115
  455TIP3   OH2 1328   1.560   5.558   5.443  0.7085  0.1642 -0.1883
  455TIP3    H1 1329   1.465   5.546   5.449  0.8420 -0.7633  0.0916
  455TIP3    H2 1330   1.588   5.495   5.378  1.2742 -0.3053  0.5001
  456TIP3   OH2 1331   5.677   0.210   0.576 -0.0455  0.1358  0.4451
  456TIP3    H1 1332   5.773   0.217   0.584  0.0774 -0.3955 -0.4838
  456TIP3    H2 1333   5.644   0.253   0.655  0.9931 -0.8489  1.4509
  457TIP3   OH2 1334   6.126   0.089   1.070 -0.2522  0.5318  0.3609
  457TIP3    H1 1335   6.119   0.135   1.154 -0.4635 -0.0921  0.6937
  457TIP3    H2 1336   6.048   0.114   1.021 -0.6316  0.1291  0.7479
  458TIP3   OH2 1337   5.451   2.163   3.972 -0.0301  0.0791 -0.4787
  458TIP3    H1 1338   5.361   2.193   3.960 -0.6330 -0.9292  1.0832
  458TIP3    H2 1339   5.472   2.190   4.062  0.8047 -0.6945 -0.4351
  459TIP3   OH2 1340   0.297   3.482   4.483 -0.3918  0.2278  0.3858
  459TIP3    H1 1341   0.344   3.531   4.416  0.9124 -0.2267  0.9476
  459TIP3    H2 1342   0.359   3.416   4.513 -1.2736 -0.1714  1.3840
  460TIP3   OH2 1343   4.986   0.566   5.878 -0.5375 -0.2629 -0.1620
  460TIP3    H1 1344   5.054   0.606   5.825 -0.7680  2.0952  1.1688
  460TIP3    H2 1345   5.028   0.489   5.917  1.1000  0.6316 -0.0698
  461TIP3   OH2 1346   3.226   0.930   3.346  0.8138  0.9703  0.5235
  461TIP3    H1 1347   3.207   0.880   3.426 -1.8356  2.9973  1.3122
  461TIP3    H2 1348   3.319   0.916   3.331  0.8382 -1.6941  2.3751
  462TIP3   OH2 1349   1.627   4.690   4.152  0.1183 -0.1727 -0.5876
  462TIP3    H1 1350   1.612   4.597   4.137 -0.0241 -0.4751  1.2095
  462TIP3    H2 1351   1.581   4.733   4.080  1.0489 -1.4839 -2.0453
  463TIP3   OH2 1352   6.263   3.572   0.571 -0.7108  0.4268  0.3294
  463TIP3    H1 1353   6.240   3.538   0.657 -1.9773  0.4996  0.0421
  463TIP3    H2 1354   6.191   3.631   0.548 -0.4319  0.3625 -0.7951
  464TIP3   OH2 1355   1.559   5.014   2.787  0.2590  0.2147 -0.6445
  464TIP3    H1 1356   1.521   5.099   2.765  0.0515  0.0918 -0.7651
  464TIP3    H2 1357   1.506   4.951   2.739  0.0292 -0.0294 -0.0740
  465TIP3   OH2 1358   4.456   2.230   0.648 -0.4444 -0.1104 -0.0271
  465TIP3    H1 1359   4.439   2.250   0.556 -1.2963 -0.7331 -0.0209
  465TIP3    H2 1360   4.369   2.225   0.688 -0.1528 -1.1562  0.5138
  466TIP3   OH2 1361   0.309   5.978   4.659 -0.4474 -0.0058 -0.3310
  466TIP3    H1 1362   0.340   5.966   4.749 -0.1943  2.8735  0.0485
  466TIP3    H2 1363   0.285   5.890   4.631 -2.0310 -0.8368  3.0773
  467TIP3   OH2 1364   2.717   6.005   1.122 -0.3855  0.1111  0.0578
  467TIP3    H1 1365   2.648   6.072   1.116 -0.5359  0.4229  3.2440
  467TIP3    H2 1366   2.680   5.939   1.180  2.2124  0.7537  2.7012
  468TIP3   OH2 1367   4.772   5.812   2.386  0.1218  0.2588 -0.5585
  468TIP3    H1 1368   4.797   5.890   2.337 -1.0129  0.0918 -1.4502
  468TIP3    H2 1369   4.690   5.837   2.430  0.2954 -0.1051 -0.0165
  469TIP3   OH2 1370   1.007   4.272   1.094 -0.4413 -0.1196 -0.4543
  469TIP3    H1 1371   1.087   4.251   1.046 -0.2485 -2.0231  0.6038
  469TIP3    H2 1372   1.036   4.330   1.165 -0.0405 -0.5011 -0.2971
  470TIP3   OH2 1373   1.763   1.730   5.109 -0.2166 -0.3771  0.1795
  470TIP3    H1 1374   1.688   1.688   5.067 -1.5664  0.6069  1.5173
  470TIP3    H2 1375   1.725   1.784   5.178  1.5165  2.0051 -0.6098
  471TIP3   OH2 1376   0.445   2.358   2.389  0.3716 -0.0448 -0.0907
  471TIP3    H1 1377   0.431   2.436   2.334 -0.2319  0.5683  0.9036
  471TIP3    H2 1378   0.530   2.373   2.431  0.0775  0.2661  0.3980
  472TIP3   OH2 1379   3.622   5.649   5.281 -0.1474 -0.4314 -0.2644
  472TIP3    H1 1380   3.670   5.687   5.207 -0.2824  2.5897  1.0583
  472TIP3    H2 1381   3.690   5.626   5.344 -0.1999  0.2039  0.0317
  473TIP3   OH2 1382   2.551   6.666   4.172 -0.0918 -0.3160 -0.3838
  473TIP3    H1 1383   2.501   6.594   4.135 -4.2731  1.3882  1.3370
  473TIP3    H2 1384   2.597   6.628   4.247 -0.1172 -1.6621 -1.0282
  474TIP3   OH2 1385   0.849   4.635   4.018  0.2600 -0.2490  0.6810
  474TIP3    H1 1386   0.848   4.730   4.014 -2.5060 -0.1846  0.9349
  474TIP3    H2 1387   0.877   4.607   3.931  1.1520  0.7753  0.6276
  475TIP3   OH2 1388   0.123   4.898   1.257  0.4586  0.0063  0.6333
  475TIP3    H1 1389   0.055   4.833   1.272  0.7910 -0.4367  0.2385
  475TIP3    H2 1390   0.118   4.957   1.332 -1.1556  0.6877  0.0343
  476TIP3   OH2 1391   1.668   2.312   3.133 -0.6906 -0.0864  0.0793
  476TIP3    H1 1392   1.690   2.324   3.041  0.7712 -0.1835  0.4012
  476TIP3    H2 1393   1.727   2.370   3.180 -0.5413 -0.9906  1.0334
  477TIP3   OH2 1394   1.367   0.178   1.449  0.2068 -0.0882  0.0298
  477TIP3    H1 1395   1.297   0.240   1.428 -0.1874 -0.8530 -0.9456
  477TIP3    H2 1396   1.440   0.205   1.394  0.1253 -0.3150 -0.1908
  478TIP3   OH2 1397   2.676   0.459   0.777 -0.7448 -0.3034  0.1758
  478TIP3    H1 1398   2.715   0.483   0.693  0.1365 -0.1846  0.6122
  478TIP3    H2 1399   2.589   0.499   0.776 -0.6899 -0.2041 -0.6278
  479TIP3   OH2 1400   4.801   3.574   3.006  0.3152 -0.4775 -0.0257
  479TIP3    H1 1401   4.744   3.646   2.977 -0.4595 -0.8707  0.4937
  479TIP3    H2 1402   4.888   3.613   3.010 -0.6051  1.7408  4.3322
  480TIP3   OH2 1403   5.479   0.941   4.823 -0.0363 -0.8189  0.0214
  480TIP3    H1 1404   5.563   0.905   4.792 -0.1304 -1.4620  0.4858
  480TIP3    H2 1405   5.498   1.031   4.847  0.3514 -0.7307 -0.5883
  481TIP3   OH2 1406   3.997   1.402   3.875  0.6606 -0.0646  0.2585
  481TIP3    H1 1407   4.011   1.496   3.878 -2.1306  0.4037  0.9709
  481TIP3    H2 1408   4.061   1.366   3.937 -0.3182  1.6816  2.3968
  482TIP3   OH2 1409   0.288   3.146   5.581  0.3819 -0.7088  0.4375
  482TIP3    H1 1410   0.316   3.225   5.534  0.8237 -1.5541 -0.7752
  482TIP3    H2 1411   0.201   3.168   5.615 -0.1183 -0.1705 -1.1097
  483TIP3   OH2 1412   0.890   5.498   4.738  0.0698 -0.3368  0.1857
  483TIP3    H1 1413   0.939   5.420   4.712 -1.1512 -0.4232 -2.1061
  483TIP3    H2 1414   0.808   5.465   4.773 -0.0692 -0.1044  0.0846
  484TIP3   OH2 1415   3.777   5.487   1.440  0.0454 -0.3266 -0.0191
  484TIP3    H1 1416   3.828   5.567   1.455  0.1208 -0.2158 -0.8104
  484TIP3    H2 1417   3.835   5.417   1.470  1.4026 -0.3414 -2.3803
  485TIP3   OH2 1418   1.702   5.901   1.748 -0.0849 -0.7894  0.3249
  485TIP3    H1 1419   1.641   5.905   1.674  1.6162 -0.2100 -1.0981
  485TIP3    H2 1420   1.723   5.808   1.756  0.1477 -0.7928 -0.2832
  486TIP3   OH2 1421   4.591   5.687   0.861  0.1332 -0.2402 -0.1955
  486TIP3    H1 1422   4.614   5.707   0.952  0.6443 -1.1697 -0.1078
  486TIP3    H2 1423   4.648   5.615   0.837  1.7153  1.5129 -2.0711
  487TIP3   OH2 1424   2.242   3.575   1.736  0.4618  0.0280  0.4806
  487TIP3    H1 1425   2.329   3.614   1.743  0.2118  0.9305 -1.0240
  487TIP3    H2 1426   2.247   3.495   1.790  2.1312  0.1789  0.6019
  488TIP3   OH2 1427   6.032   2.480   1.191 -0.4342  0.0797 -0.6961
  488TIP3    H1 1428   5.944   2.467   1.157  0.0101  2.1963 -2.9732
  488TIP3    H2 1429   6.023   2.548   1.258 -0.4779  1.1059 -1.6964
  489TIP3   OH2 1430   5.521   1.092   1.832  0.5648  0.5559  0.3023
  489TIP3    H1 1431   5.563   1.178   1.824  0.2878  0.6253 -0.5242
  489TIP3    H2 1432   5.458   1.090   1.760  1.0502 -0.6145 -0.1060
  490TIP3   OH2 1433   4.007   0.142   2.737  0.3758 -0.2415 -0.3834
  490TIP3    H1 1434   3.914   0.162   2.728  0.1694 -0.3225  1.3242
  490TIP3    H2 1435   4.022   0.068   2.679 -1.0810 -1.5027  0.7810
  491TIP3   OH2 1436   3.942   2.888   3.370 -0.2131  0.7538  0.2464
  491TIP3    H1 1437   3.982   2.803   3.392 -1.6468 -0.0008  0.0482
  491TIP3    H2 1438   3.990   2.951   3.424 -0.1334 -0.3811  1.5713
  492TIP3   OH2 1439   6.972   5.714   3.412  0.0555 -0.0104 -0.0305
  492TIP3    H1 1440   6.911   5.683   3.346 -1.8066  1.8307  0.7146
  492TIP3    H2 1441   7.057   5.714   3.368 -0.7220 -1.1984 -1.5967
  493TIP3   OH2 1442   6.561   4.694   5.019  0.2285  0.2548  0.5559
  493TIP3    H1 1443   6.494   4.633   5.047  1.1033 -1.1923 -0.4071
  493TIP3    H2 1444   6.542   4.775   5.067 -1.8549 -0.2776  0.7012
  494TIP3   OH2 1445   4.359   2.401   1.323 -0.3330  0.0562  0.5740
  494TIP3    H1 1446   4.331   2.379   1.412 -0.3339  0.1684  0.6018
  494TIP3    H2 1447   4.402   2.486   1.332 -0.1144 -0.0473  0.5077
  495TIP3   OH2 1448   2.702   5.771   0.098  0.1700 -0.0473  0.1834
  495TIP3    H1 1449   2.748   5.855   0.092 -2.0785  1.3739  1.1291
  495TIP3    H2 1450   2.762   5.714   0.145  3.2939 -0.2530 -3.5488
  496TIP3   OH2 1451   6.397   1.885   4.163  0.1141  0.7215 -0.1869
  496TIP3    H1 1452   6.430   1.803   4.125  0.5650  0.6606  0.3205
  496TIP3    H2 1453   6.335   1.918   4.099 -1.4558 -0.9395  0.3956
  497TIP3   OH2 1454   2.073   6.511   2.918  0.1549  0.5450 -0.7544
  497TIP3    H1 1455   2.166   6.528   2.926  0.1420  0.7018 -0.9308
  497TIP3    H2 1456   2.058   6.499   2.824  0.1914 -0.6029 -0.6339
  498TIP3   OH2 1457   2.200   5.833   4.703  0.0152 -0.0887 -0.0371
  498TIP3    H1 1458   2.117   5.863   4.739  0.2423 -0.1630  0.5533
  498TIP3    H2 1459   2.257   5.821   4.779  0.3929 -0.5730 -0.3856
  499TIP3   OH2 1460   2.993   6.016   2.885  0.0197 -0.5205  0.1023
  499TIP3    H1 1461   3.002   5.923   2.903  3.2069 -0.2431  0.4318
  499TIP3    H2 1462   2.995   6.058   2.971 -1.2752 -0.0921 -0.0484
  500TIP3   OH2 1463   4.590   1.033   3.667  0.3007 -0.3346 -0.1000
  500TIP3    H1 1464   4.598   1.121   3.703  0.6234 -0.0270 -0.8978
  500TIP3    H2 1465   4.597   0.975   3.742  1.7616  0.2499  0.2475
  501TIP3   OH2 1466   4.049   6.684   1.276  0.0245  0.4761  0.3142
  501TIP3    H1 1467   4.016   6.644   1.357 -0.0525  0.2090  0.1538
  501TIP3    H2 1468   4.118   6.743   1.305 -2.0034  2.7325  0.8928
  502TIP3   OH2 1469   5.675   0.086   1.314  0.3359  0.1543 -0.3285
  502TIP3    H1 1470   5.756   0.134   1.331 -0.2219  1.4400 -1.1677
  502TIP3    H2 1471   5.632   0.081   1.399  0.9949  0.0292  0.0026
  503TIP3   OH2 1472   4.564   4.366   4.259  0.2978  0.9973  0.3840
  503TIP3    H1 1473   4.599   4.351   4.171 -1.3536  0.5316 -0.2277
  503TIP3    H2 1474   4.602   4.295   4.311  0.3960  0.5987 -0.2140
  504TIP3   OH2 1475   6.785   3.666   0.299  0.4790  0.2116 -0.2148
  504TIP3    H1 1476   6.851   3.723   0.258  0.7424  0.7594  0.9212
  504TIP3    H2 1477   6.779   3.698   0.389  0.1353 -1.1480  0.2617
  505TIP3   OH2 1478   0.337   4.166   1.272 -0.3562 -0.2164  0.4894
  505TIP3    H1 1479   0.330   4.097   1.339  0.3851  0.2740  1.1050
  505TIP3    H2 1480   0.252   4.208   1.271 -0.4125 -0.3082  1.0565
  506TIP3   OH2 1481   3.218   5.095   5.649 -0.2390 -0.2716 -0.3273
  506TIP3    H1 1482   3.284   5.102   5.718 -0.0835  2.2735 -0.6468
  506TIP3    H2 1483   3.256   5.142   5.574 -1.5761 -0.5238 -1.2050
  507TIP3   OH2 1484   2.002   1.801   5.439 -0.5213 -0.0261  0.3687
  507TIP3    H1 1485   2.017   1.871   5.502 -1.9754 -0.7520  1.5899
  507TIP3    H2 1486   1.914   1.770   5.458 -0.8005 -0.6293 -1.7115
  508TIP3   OH2 1487   3.966   1.952   0.207  0.3674 -0.1423 -0.3971
  508TIP3    H1 1488   4.000   1.891   0.272 -2.1037 -0.9782  0.2165
  508TIP3    H2 1489   3.916   1.898   0.146 -0.7949  1.0990 -0.6004
  509TIP3   OH2 1490   4.955   3.700   5.266 -0.2375  0.3127  0.5314
  509TIP3    H1 1491   5.010   3.656   5.202  0.5769  0.4484  1.1276
  509TIP3    H2 1492   4.914   3.629   5.315  0.3685  0.2065  0.8925
  510TIP3   OH2 1493   0.439   1.849   1.088  0.0583 -0.1613  0.0032
  510TIP3    H1 1494   0.348   1.857   1.119  0.1216  0.5059  0.0357
  510TIP3    H2 1495   0.451   1.925   1.031  0.3791 -0.6343 -0.5683
  511TIP3   OH2 1496   1.302   3.016   1.619 -0.1756 -0.3975 -0.3630
  511TIP3    H1 1497   1.249   3.046   1.693  1.5164  0.7119  0.4533
  511TIP3    H2 1498   1.327   2.927   1.642  0.1652 -0.1321  0.2999
  512TIP3   OH2 1499   6.752   2.880   2.316 -0.4120  0.5089  0.0568
  512TIP3    H1 1500   6.741   2.909   2.226  1.8058 -0.2240 -0.5209
  512TIP3    H2 1501   6.664   2.877   2.352 -1.3888  0.3650 -2.2209
  513TIP3   OH2 1502   5.212   2.781   5.277  0.0252 -0.3409 -0.0208
  513TIP3    H1 1503   5.265   2.746   5.349  0.5015  0.1691 -0.1123
  513TIP3    H2 1504   5.276   2.811   5.212 -0.4032 -1.4802 -1.0088
  514TIP3   OH2 1505   0.664   4.326   3.054 -0.5468 -0.0253 -0.4498
  514TIP3    H1 1506   0.600   4.340   2.985  0.6679 -1.1962 -1.8705
  514TIP3    H2 1507   0.733   4.389   3.036 -1.0751  0.9707  0.8541
  515TIP3   OH2 1508   6.116   5.501   0.428  0.1941 -0.2424 -0.0932
  515TIP3    H1 1509   6.120   5.491   0.523 -2.6987  0.7873  0.2443
  515TIP3    H2 1510   6.185   5.444   0.395  1.2121 -0.7168  2.6055
  516TIP3   OH2 1511   2.464   1.664   5.200 -0.1974 -0.2258  0.1193
  516TIP3    H1 1512   2.400   1.700   5.140  0.5945  0.1412 -0.5276
  516TIP3    H2 1513   2.431   1.686   5.287 -0.8526  0.0945 -0.2039
  517TIP3   OH2 1514   6.160   1.869   1.513  0.1748  0.0700  0.1237
  517TIP3    H1 1515   6.248   1.881   1.549 -0.0482  0.6178  0.4831
  517TIP3    H2 1516   6.149   1.774   1.512  0.5211  0.0157  0.6875
  518TIP3   OH2 1517   2.984   5.515   3.745  0.2656 -0.4970 -0.3530
  518TIP3    H1 1518   2.899   5.473   3.756 -0.2220  0.6647  0.5628
  518TIP3    H2 1519   2.967   5.592   3.691  0.3555  0.7528  1.3202
  519TIP3   OH2 1520   6.361   3.926   2.526  0.2810 -0.5904 -0.0046
  519TIP3    H1 1521   6.283   3.966   2.564  1.5747  1.8635  0.2783
  519TIP3    H2 1522   6.331   3.841   2.494 -2.2650 -0.1399  0.9252
  520TIP3   OH2 1523   6.075   5.935   2.238 -0.5344  0.2258 -0.0310
  520TIP3    H1 1524   5.992   5.892   2.219 -0.2993 -0.3886  0.2946
  520TIP3    H2 1525   6.134   5.864   2.263  0.0377  0.6734 -0.0691
  521TIP3   OH2 1526   3.667   3.053   2.137 -0.6629  0.2921  0.4948
  521TIP3    H1 1527   3.690   3.121   2.200 -2.3781  1.9813 -0.5665
  521TIP3    H2 1528   3.750   3.029   2.096  0.1914  0.6171  1.9621
  522TIP3   OH2 1529   0.430   3.850   1.010 -0.3939  0.0336 -0.5712
  522TIP3    H1 1530   0.489   3.796   1.063  1.0330 -0.1188 -2.1900
  522TIP3    H2 1531   0.356   3.793   0.991  1.1359 -1.5325 -2.3350
  523TIP3   OH2 1532   6.403   0.111   1.116 -0.4509 -0.1114 -0.1356
  523TIP3    H1 1533   6.424   0.030   1.162 -0.7783  0.1783  0.5421
  523TIP3    H2 1534   6.307   0.108   1.107 -0.3604 -0.3401 -1.1428
  524TIP3   OH2 1535   6.964   3.477   0.826  0.3947 -0.6263 -0.1382
  524TIP3    H1 1536   7.020   3.445   0.755 -0.0655 -0.1349 -0.7459
  524TIP3    H2 1537   6.880   3.495   0.782  0.6053  1.3064  0.1843
  525TIP3   OH2 1538   0.704   2.739   3.316 -0.3945 -0.2264  0.2408
  525TIP3    H1 1539   0.678   2.830   3.332 -1.0847 -0.0833 -1.4750
  525TIP3    H2 1540   0.764   2.718   3.387 -1.4839  1.0373  1.5970
  526TIP3   OH2 1541   3.497   3.703   0.509 -0.5736 -0.5169  0.0258
  526TIP3    H1 1542   3.508   3.776   0.571 -0.6344 -0.3249 -0.1879
  526TIP3    H2 1543   3.586   3.679   0.484 -0.5734  0.0258 -0.5292
  527TIP3   OH2 1544   1.530   6.331   2.834  0.3773 -0.0587 -0.1062
  527TIP3    H1 1545   1.498   6.241   2.823 -1.2670  0.3640  0.8109
  527TIP3    H2 1546   1.624   6.322   2.847  0.1337 -1.7243  0.7732
  528TIP3   OH2 1547   0.654   2.142   1.380 -0.0134  0.0978 -0.5342
  528TIP3    H1 1548   0.637   2.225   1.337 -0.4134  1.5921  2.3017
  528TIP3    H2 1549   0.585   2.084   1.348  0.7601  0.5008 -3.1933
  529TIP3   OH2 1550   2.043   5.222   5.791  0.4866  0.1459 -0.0599
  529TIP3    H1 1551   2.096   5.245   5.715  0.8787 -1.7688 -0.4391
  529TIP3    H2 1552   1.958   5.195   5.754  0.0580  0.9076  0.3445
  530TIP3   OH2 1553   5.174   1.156   4.970  0.7407 -1.1161 -0.0874
  530TIP3    H1 1554   5.110   1.126   5.035  0.1198 -0.2800 -0.2944
  530TIP3    H2 1555   5.259   1.147   5.014  0.2776  0.1142  1.1390
  531TIP3   OH2 1556   3.345   6.277   2.972  0.4206 -0.1274 -0.4938
  531TIP3    H1 1557   3.319   6.185   2.987  0.6765 -0.3005 -1.1141
  531TIP3    H2 1558   3.440   6.276   2.974  0.4194  0.2570  0.2330
  532TIP3   OH2 1559   2.777   3.350   5.541  0.6835  0.6092 -0.2148
  532TIP3    H1 1560   2.858   3.366   5.492  0.6459  3.4982  0.4690
  532TIP3    H2 1561   2.708   3.373   5.480  0.4381 -0.2850 -0.2771
  533TIP3   OH2 1562   1.986   1.789   3.708 -0.1789 -0.3355  0.0450
  533TIP3    H1 1563   1.897   1.803   3.678 -0.6570 -1.0504  1.0899
  533TIP3    H2 1564   1.990   1.832   3.794  1.1786  1.7263 -0.9664
  534TIP3   OH2 1565   0.295   5.697   2.115 -0.3948  0.3543 -0.1867
  534TIP3    H1 1566   0.221   5.727   2.062 -1.2497 -0.2420  0.6435
  534TIP3    H2 1567   0.298   5.602   2.101 -0.2991  0.2648  0.4172
  535TIP3   OH2 1568   3.656   3.640   3.032 -0.5250  0.5826 -0.3721
  535TIP3    H1 1569   3.746   3.610   3.026 -0.1545  1.2571  1.3501
  535TIP3    H2 1570   3.647   3.673   3.122 -2.2109  1.3799 -0.7885
  536TIP3   OH2 1571   0.238   5.558   2.505 -0.5395 -0.3191 -0.4349
  536TIP3    H1 1572   0.224   5.638   2.554 -0.2610 -0.7601  0.3799
  536TIP3    H2 1573   0.178   5.494   2.544  0.2331 -0.8836 -0.1536
  537TIP3   OH2 1574   3.092   6.048   5.539 -0.7804 -0.0647  0.4013
  537TIP3    H1 1575   3.042   6.130   5.539 -1.2918 -0.3580 -0.7545
  537TIP3    H2 1576   3.027   5.980   5.523 -0.3045 -0.6709  0.9997
  538TIP3   OH2 1577   4.587   6.586   0.078 -0.0004  0.3704 -0.1856
  538TIP3    H1 1578   4.607   6.653   0.143 -0.1005  0.2245 -0.0049
  538TIP3    H2 1579   4.540   6.632   0.009 -0.9267  0.2989  0.3942
  539TIP3   OH2 1580   1.183   1.141   4.915  0.0581 -0.7071  0.3136
  539TIP3    H1 1581   1.143   1.061   4.950 -1.0957 -0.4530 -0.3628
  539TIP3    H2 1582   1.109   1.192   4.883  0.7443  0.8314  1.1071
  540TIP3   OH2 1583   6.128   3.347   0.825 -0.5554  0.1328  0.1210
  540TIP3    H1 1584   6.072   3.300   0.764  0.5195  0.5611 -1.2316
  540TIP3    H2 1585   6.090   3.435   0.830 -0.2427  0.3038 -0.4791
  541TIP3   OH2 1586   1.618   2.956   1.457 -0.1880  0.2475 -0.0115
  541TIP3    H1 1587   1.588   2.894   1.391 -2.3746  2.4653 -1.2517
  541TIP3    H2 1588   1.656   3.028   1.407  1.4181  0.4137  1.3556
  542TIP3   OH2 1589   4.792   2.773   3.813 -0.4890 -0.4132 -0.7682
  542TIP3    H1 1590   4.862   2.837   3.800 -1.0186  0.8122  1.8082
  542TIP3    H2 1591   4.833   2.699   3.856 -0.6221 -0.0132  0.0574
  543TIP3   OH2 1592   3.087   1.917   4.134 -0.2013 -0.3238  0.8253
  543TIP3    H1 1593   3.007   1.907   4.185 -0.3425  1.5686  1.0657
  543TIP3    H2 1594   3.156   1.880   4.189 -0.9128 -2.2064  0.5066
  544TIP3   OH2 1595   6.508   6.682   1.455  0.0413  0.3173 -0.3448
  544TIP3    H1 1596   6.573   6.619   1.487  0.3761  0.8173 -0.0261
  544TIP3    H2 1597   6.548   6.768   1.471 -0.3771  0.6128 -0.8376
  545TIP3   OH2 1598   4.715   4.804   0.599  0.3722 -0.2674  0.2047
  545TIP3    H1 1599   4.703   4.747   0.523 -1.9153 -0.6052  0.7502
  545TIP3    H2 1600   4.750   4.886   0.562  0.0534 -0.6916 -1.1008
  546TIP3   OH2 1601   0.555   2.907   1.180  0.4832  0.3581  0.3382
  546TIP3    H1 1602   0.479   2.876   1.229  1.6518 -0.3879  1.7697
  546TIP3    H2 1603   0.524   2.915   1.090 -1.6237  1.3505  1.0924
  547TIP3   OH2 1604   2.829   5.223   2.726  0.2390 -0.4990 -0.3628
  547TIP3    H1 1605   2.764   5.157   2.701 -0.7918  0.4650 -0.2680
  547TIP3    H2 1606   2.802   5.302   2.681  0.8407  0.1500  0.3814
  548TIP3   OH2 1607   1.321   1.686   4.545 -0.3439 -0.7192 -0.7269
  548TIP3    H1 1608   1.371   1.761   4.513 -1.0808 -0.2719 -0.8557
  548TIP3    H2 1609   1.286   1.644   4.466 -0.4123 -0.8582 -0.6247
  549TIP3   OH2 1610   7.216   3.214   5.597 -0.1868 -0.7101  0.1547
  549TIP3    H1 1611   7.151   3.284   5.603 -1.3562 -1.7577  0.0949
  549TIP3    H2 1612   7.165   3.135   5.579  1.3251 -1.1904 -2.4898
  550TIP3   OH2 1613   5.671   5.941   1.735 -0.5974  0.1266 -0.3813
  550TIP3    H1 1614   5.644   5.850   1.750  1.7120 -0.5740 -0.0788
  550TIP3    H2 1615   5.647   5.958   1.644 -0.8483 -0.8708 -0.5137
  551TIP3   OH2 1616   4.243   4.305   1.061 -0.2932  0.1019 -0.4826
  551TIP3    H1 1617   4.261   4.298   1.155  0.0859  1.4626 -0.4335
  551TIP3    H2 1618   4.160   4.353   1.056  1.1396  2.7785 -0.8169
  552TIP3   OH2 1619   3.603   1.247   3.824 -0.1045 -0.3788  0.1696
  552TIP3    H1 1620   3.659   1.273   3.750  1.3768 -1.9517  0.6609
  552TIP3    H2 1621   3.545   1.322   3.838  0.2749  0.3637 -1.9172
  553TIP3   OH2 1622   5.177   3.935   5.244  0.0022  0.5071  0.1028
  553TIP3    H1 1623   5.140   3.937   5.156  0.1742  0.7535  0.0335
  553TIP3    H2 1624   5.114   3.983   5.298 -0.3435 -0.0651  0.2104
  554TIP3   OH2 1625   5.332   1.074   1.607  0.6732 -0.0278 -0.1474
  554TIP3    H1 1626   5.244   1.054   1.575  0.0414 -1.2828  2.2193
  554TIP3    H2 1627   5.390   1.019   1.554 -0.2685 -1.5026  0.3016
  555TIP3   OH2 1628   6.564   0.385   5.372  0.2918 -0.2445 -0.0499
  555TIP3    H1 1629   6.652   0.357   5.346  0.1778 -1.8930  1.2093
  555TIP3    H2 1630   6.568   0.393   5.467 -0.9841 -0.6095  0.0546
  556TIP3   OH2 1631   1.482   6.134   3.972 -0.0264 -0.0367  0.6597
  556TIP3    H1 1632   1.557   6.180   3.934  0.6090 -1.0819  0.6037
  556TIP3    H2 1633   1.477   6.052   3.922 -0.5518 -0.4483  1.3757
  557TIP3   OH2 1634   2.920   1.600   5.031 -0.2637  0.2974 -0.4596
  557TIP3    H1 1635   2.834   1.573   5.062  0.0542 -1.1237 -0.7564
  557TIP3    H2 1636   2.929   1.557   4.946  0.2752  1.3845 -0.9832
  558TIP3   OH2 1637   2.561   3.221   2.222  0.0156  0.1614 -0.2649
  558TIP3    H1 1638   2.596   3.150   2.275  0.7294  0.9305  0.3360
  558TIP3    H2 1639   2.550   3.184   2.135 -0.2568 -0.8589  0.1937
  559TIP3   OH2 1640   6.316   5.143   5.761 -0.0117 -0.5301 -0.2744
  559TIP3    H1 1641   6.289   5.233   5.773 -0.8995 -0.4631 -2.4084
  559TIP3    H2 1642   6.237   5.091   5.779  0.2840 -0.8480  0.1518
  560TIP3   OH2 1643   2.219   6.579   0.159 -0.3193  0.8969  0.4281
  560TIP3    H1 1644   2.202   6.634   0.082  1.3921  2.4651  1.0974
  560TIP3    H2 1645   2.144   6.595   0.216 -1.9955 -0.8557 -1.1295
  561TIP3   OH2 1646   4.368   0.749   2.881  0.2106 -0.0315  0.4439
  561TIP3    H1 1647   4.410   0.777   2.962  0.3865  0.1738  0.2818
  561TIP3    H2 1648   4.345   0.830   2.836 -2.2468 -0.0713  1.4746
  562TIP3   OH2 1649   5.742   1.572   1.922 -0.2385  0.4745  0.0564
  562TIP3    H1 1650   5.694   1.646   1.885 -1.4630  0.2189  1.0805
  562TIP3    H2 1651   5.692   1.495   1.894  2.1135 -0.2141 -2.7124
  563TIP3   OH2 1652   6.327   2.022   0.893  0.0470 -0.2887 -0.2816
  563TIP3    H1 1653   6.314   1.987   0.981 -1.3111  0.2160 -0.2663
  563TIP3    H2 1654   6.241   2.017   0.851  0.4695  0.3036 -1.2838
  564TIP3   OH2 1655   3.322   4.469   2.574 -0.8542 -0.2885 -0.4758
  564TIP3    H1 1656   3.261   4.542   2.559 -1.8323 -0.9479  0.1897
  564TIP3    H2 1657   3.266   4.395   2.596  0.2341 -0.6734  1.1638
  565TIP3   OH2 1658   3.898   3.923   0.431 -0.3891 -0.0157 -0.3080
  565TIP3    H1 1659   3.993   3.925   0.437 -0.4834 -0.2411  2.4263
  565TIP3    H2 1660   3.871   4.015   0.443 -0.5482  0.1101 -1.4580
  566TIP3   OH2 1661   0.572   6.000   2.449  0.4645  0.1395 -0.4219
  566TIP3    H1 1662   0.588   6.089   2.417 -0.4418  0.4485 -0.0453
  566TIP3    H2 1663   0.551   5.950   2.370 -2.3693  1.0319 -0.3501
  567TIP3   OH2 1664   3.327   4.736   0.874  0.3383 -0.6430  0.2411
  567TIP3    H1 1665   3.300   4.828   0.870 -1.3908 -1.1051  0.3001
  567TIP3    H2 1666   3.421   4.737   0.858  0.0212  0.9456 -1.8778
  568TIP3   OH2 1667   5.997   6.563   3.972  0.3884  0.2466  0.2592
  568TIP3    H1 1668   5.930   6.571   3.904  0.5885 -1.1831 -0.1276
  568TIP3    H2 1669   5.947   6.562   4.054  0.0166  0.2367  0.0372
  569TIP3   OH2 1670   4.111   2.689   1.602  0.2683 -0.2896 -0.2940
  569TIP3    H1 1671   4.136   2.763   1.547 -0.2379  0.3151  0.2661
  569TIP3    H2 1672   4.192   2.662   1.645  0.6264 -0.6434 -1.1755
  570TIP3   OH2 1673   6.198   6.445   0.672  0.3869 -0.3756  0.6260
  570TIP3    H1 1674   6.155   6.523   0.636  1.2762 -0.2535 -0.1948
  570TIP3    H2 1675   6.280   6.477   0.709  0.5423 -0.8475  0.6980
  571TIP3   OH2 1676   1.645   5.399   1.992 -0.2441 -0.3736 -0.0972
  571TIP3    H1 1677   1.557   5.400   1.955 -0.0857  1.9177 -0.5663
  571TIP3    H2 1678   1.648   5.477   2.048  1.3830 -0.6091  0.1833
  572TIP3   OH2 1679   1.999   2.138   1.444 -0.3008 -0.0593  0.2712
  572TIP3    H1 1680   2.088   2.169   1.427  0.3091 -1.3776  0.9222
  572TIP3    H2 1681   2.010   2.046   1.469 -1.6964  0.1269  1.7294
  573TIP3   OH2 1682   5.235   6.471   1.621  0.2295  0.2419 -0.6987
  573TIP3    H1 1683   5.191   6.407   1.678  1.7682 -0.0659  0.1907
  573TIP3    H2 1684   5.172   6.543   1.613 -0.6410 -0.4008  0.1001
  574TIP3   OH2 1685   6.970   5.356   1.890 -0.2687 -0.2952  0.2557
  574TIP3    H1 1686   6.937   5.369   1.979 -0.3736 -0.3249  0.2223
  574TIP3    H2 1687   6.932   5.429   1.840 -0.9006 -0.7524  0.0571
  575TIP3   OH2 1688   3.679   2.124   3.425  0.1183  0.4326 -0.4580
  575TIP3    H1 1689   3.595   2.078   3.420  1.1069 -1.5580  0.0758
  575TIP3    H2 1690   3.737   2.062   3.469  2.0954  1.4350 -1.5401
  576TIP3   OH2 1691   2.914   2.995   1.403 -0.6768  0.3835  0.0645
  576TIP3    H1 1692   2.903   2.945   1.484  0.8583 -0.5729 -0.2884
  576TIP3    H2 1693   2.967   2.939   1.347 -0.2065  1.7809 -0.9448
  577TIP3   OH2 1694   7.160   4.065   3.896  0.4076 -0.3044  0.7901
  577TIP3    H1 1695   7.071   4.095   3.878  0.8448 -0.4119 -2.0570
  577TIP3    H2 1696   7.191   4.121   3.967 -1.2329  1.1205  0.4450
  578TIP3   OH2 1697   2.743   4.547   2.885  0.3295  0.8552 -0.7784
  578TIP3    H1 1698   2.711   4.588   2.966 -1.0758 -2.5873  0.5824
  578TIP3    H2 1699   2.834   4.523   2.905  0.0905  0.3169 -0.3166
  579TIP3   OH2 1700   0.618   3.701   2.184 -0.1318  0.6555 -0.1965
  579TIP3    H1 1701   0.683   3.767   2.158  0.1815  0.6712  0.6114
  579TIP3    H2 1702   0.669   3.620   2.193  0.1313  1.0161  2.1134
  580TIP3   OH2 1703   4.049   0.170   4.952 -0.2155 -0.1116  0.5293
  580TIP3    H1 1704   3.989   0.137   4.886  1.0834  0.9973 -1.3069
  580TIP3    H2 1705   4.065   0.096   5.009  1.6414 -2.4361 -2.6940
  581TIP3   OH2 1706   1.875   4.205   5.827 -0.3474  0.2865  0.0867
  581TIP3    H1 1707   1.948   4.257   5.793 -1.1517  2.2761  1.2365
  581TIP3    H2 1708   1.917   4.135   5.877  0.7600  0.3327 -0.7177
  582TIP3   OH2 1709   7.183   2.434   0.852 -0.3433  0.3098 -0.0337
  582TIP3    H1 1710   7.188   2.523   0.817 -2.3386  0.1709 -0.8309
  582TIP3    H2 1711   7.174   2.379   0.774 -0.1247 -0.5091  0.5046
  583TIP3   OH2 1712   1.300   4.208   1.938  0.2776  0.2793  0.5053
  583TIP3    H1 1713   1.391   4.231   1.956 -0.1825  0.1692  3.5641
  583TIP3    H2 1714   1.249   4.283   1.971 -0.7779 -0.2694  0.1815
  584TIP3   OH2 1715   5.329   0.869   5.112 -0.0393 -0.7182  0.1449
  584TIP3    H1 1716   5.320   0.949   5.060  0.7615 -0.4620  0.3964
  584TIP3    H2 1717   5.239   0.835   5.118 -0.1856 -0.6588 -1.2339
  585TIP3   OH2 1718   4.983   6.140   5.496 -0.6543 -0.5175 -0.4847
  585TIP3    H1 1719   5.055   6.098   5.543 -1.2268 -2.2015 -1.0399
  585TIP3    H2 1720   4.916   6.156   5.563 -0.3231 -0.2493 -0.2198
  586TIP3   OH2 1721   4.996   1.784   2.734  0.2062 -0.1601  0.2869
  586TIP3    H1 1722   4.907   1.815   2.717  0.2985  0.6869  1.2727
  586TIP3    H2 1723   4.992   1.690   2.717 -0.8809 -0.1415  0.3661
  587TIP3   OH2 1724   5.518   3.919   3.455 -0.0790 -0.3333 -0.0560
  587TIP3    H1 1725   5.507   3.940   3.547  0.8416 -0.5479  0.1177
  587TIP3    H2 1726   5.429   3.911   3.421 -0.4268  0.4405  0.6444
  588TIP3   OH2 1727   2.611   4.694   4.223  0.0050 -0.6850 -0.3008
  588TIP3    H1 1728   2.645   4.614   4.181 -1.5964 -1.5408 -0.0314
  588TIP3    H2 1729   2.540   4.722   4.166 -0.0972 -0.0148  0.1541
  589TIP3   OH2 1730   7.088   1.055   5.390 -0.4245  0.7269  0.3761
  589TIP3    H1 1731   7.007   1.034   5.438 -0.9961 -0.6963 -1.1137
  589TIP3    H2 1732   7.061   1.058   5.298  1.4632 -1.3409 -0.3409
  590TIP3   OH2 1733   5.544   3.206   4.771  0.0250 -0.0830 -0.5547
  590TIP3    H1 1734   5.560   3.199   4.677  1.4099  0.0442 -0.3498
  590TIP3    H2 1735   5.590   3.130   4.808  1.7780  1.2896  0.2376
  591TIP3   OH2 1736   6.143   3.926   4.538  0.0874 -0.1912 -0.2431
  591TIP3    H1 1737   6.172   3.901   4.450 -0.7211 -1.1647 -0.2574
  591TIP3    H2 1738   6.191   3.868   4.597 -0.8576 -0.9420 -0.1897
  592TIP3   OH2 1739   4.785   4.179   0.720  0.5578  0.4057 -0.3907
  592TIP3    H1 1740   4.866   4.223   0.693  1.6265 -1.1121  0.2249
  592TIP3    H2 1741   4.808   4.132   0.800 -1.0393  0.2097 -0.0103
  593TIP3   OH2 1742   4.023   5.151   5.471 -0.3303  0.4045 -0.3567
  593TIP3    H1 1743   4.050   5.143   5.380  0.6755  0.0759 -0.0363
  593TIP3    H2 1744   3.985   5.066   5.493 -0.3011  0.3844 -0.3841
  594TIP3   OH2 1745   0.765   2.086   1.839  0.0305 -0.0504 -0.0032
  594TIP3    H1 1746   0.757   2.120   1.928 -1.6232  1.5362 -0.7171
  594TIP3    H2 1747   0.834   2.139   1.799  0.3331 -0.3434  0.1209
  595TIP3   OH2 1748   1.656   0.396   3.298  0.0140 -0.4457  0.4891
  595TIP3    H1 1749   1.624   0.446   3.373 -2.2913  1.4244 -1.5642
  595TIP3    H2 1750   1.682   0.462   3.234 -0.3252 -1.9072 -1.2593
  596TIP3   OH2 1751   3.696   4.834   2.311 -0.3383 -0.5623 -0.3608
  596TIP3    H1 1752   3.743   4.917   2.320 -0.4356 -0.5994  0.6456
  596TIP3    H2 1753   3.659   4.837   2.223 -1.6974  1.1845  0.1984
  597TIP3   OH2 1754   0.584   1.748   1.523  0.3943  0.3439  0.7803
  597TIP3    H1 1755   0.534   1.667   1.537  1.1842  0.1738  3.0831
  597TIP3    H2 1756   0.527   1.817   1.557 -1.1145  1.1666 -2.9026
  598TIP3   OH2 1757   4.289   2.187   3.815 -0.5250  0.0928 -0.1910
  598TIP3    H1 1758   4.306   2.094   3.830 -0.9061 -0.1136 -1.0178
  598TIP3    H2 1759   4.370   2.230   3.842 -0.9245 -0.3045  1.8086
  599TIP3   OH2 1760   2.817   1.282   3.004 -0.1455  0.2226  0.3078
  599TIP3    H1 1761   2.739   1.278   2.948  0.7044 -0.6236 -0.8683
  599TIP3    H2 1762   2.793   1.230   3.081 -1.1857  1.0460  0.5721
  600TIP3   OH2 1763   2.641   3.090   5.588  0.2763  0.0803  0.2609
  600TIP3    H1 1764   2.715   3.038   5.556  1.3396  1.1617  0.8477
  600TIP3    H2 1765   2.670   3.181   5.578 -0.6421  0.5106  1.2740
  601TIP3   OH2 1766   4.664   1.354   2.180 -0.2442  0.3415  0.6296
  601TIP3    H1 1767   4.632   1.443   2.194 -1.2174  0.1303 -0.1000
  601TIP3    H2 1768   4.646   1.336   2.088 -0.0215 -0.5922  0.7549
  602TIP3   OH2 1769   2.354   3.994   0.590  0.2598  0.1492  0.1209
  602TIP3    H1 1770   2.363   3.906   0.554  0.9164  1.2090 -2.5594
  602TIP3    H2 1771   2.260   4.006   0.603 -0.1306 -0.0733 -2.0983
  603TIP3   OH2 1772   3.359   4.800   1.973  0.1802 -0.2781  0.3528
  603TIP3    H1 1773   3.273   4.772   2.005  0.7359 -2.4279  0.1289
  603TIP3    H2 1774   3.411   4.719   1.970  0.9247  0.1434 -3.6425
  604TIP3   OH2 1775   6.836   6.095   5.470 -0.3470 -0.4660 -0.0716
  604TIP3    H1 1776   6.911   6.042   5.443  0.0381  0.2636 -0.4670
  604TIP3    H2 1777   6.762   6.056   5.424 -0.2102 -1.1799  0.3028
  605TIP3   OH2 1778   3.230   1.121   2.906 -0.5068 -0.5242  0.7739
  605TIP3    H1 1779   3.220   1.034   2.868 -0.4550  0.4422 -1.6616
  605TIP3    H2 1780   3.155   1.131   2.964 -1.5055 -1.5600 -0.2817
  606TIP3   OH2 1781   6.207   0.899   4.085 -0.2821  0.2445 -0.0410
  606TIP3    H1 1782   6.136   0.876   4.025 -0.8354 -0.5251  0.8783
  606TIP3    H2 1783   6.286   0.864   4.043 -0.9460 -2.4033  0.7492
  607TIP3   OH2 1784   0.257   4.372   1.086 -0.0158 -0.0411 -0.1741
  607TIP3    H1 1785   0.221   4.329   1.008  0.9058 -1.8194  0.3103
  607TIP3    H2 1786   0.266   4.301   1.150 -2.3554  1.6349  2.2162
  608TIP3   OH2 1787   3.094   6.747   3.778 -0.7159 -0.6232 -0.3264
  608TIP3    H1 1788   3.051   6.767   3.695 -0.4046  0.0075 -0.3376
  608TIP3    H2 1789   3.039   6.789   3.844  0.1890  0.6940 -0.3854
  609TIP3   OH2 1790   2.258   5.852   1.967  0.2946 -0.3881  0.6018
  609TIP3    H1 1791   2.175   5.845   1.919  0.1577 -1.4663  0.9579
  609TIP3    H2 1792   2.322   5.879   1.902  0.0071 -1.3208 -0.0929
  610TIP3   OH2 1793   1.849   6.549   3.675 -0.5968 -0.0607  0.1542
  610TIP3    H1 1794   1.891   6.551   3.761  0.0811  0.6934 -0.1846
  610TIP3    H2 1795   1.857   6.639   3.643 -3.2617  0.3608  0.4461
  611TIP3   OH2 1796   2.595   5.918   3.049  0.0749  0.4357 -0.2226
  611TIP3    H1 1797   2.675   5.875   3.077 -0.2217  0.3914  0.5847
  611TIP3    H2 1798   2.622   6.007   3.025  1.0157 -0.6215 -3.6397
  612TIP3   OH2 1799   4.384   2.877   3.534 -0.0775 -0.8598 -0.2527
  612TIP3    H1 1800   4.462   2.834   3.568 -0.2785 -1.1267 -0.1335
  612TIP3    H2 1801   4.354   2.820   3.463 -0.5956 -1.1476  0.1919
  613TIP3   OH2 1802   5.118   0.747   2.066  0.2234  0.4159  0.3645
  613TIP3    H1 1803   5.139   0.789   2.150  2.0371  0.5437 -0.1048
  613TIP3    H2 1804   5.203   0.728   2.027 -0.5331 -2.3125 -0.1509
  614TIP3   OH2 1805   7.031   4.481   5.210 -0.0727 -0.1210 -0.6185
  614TIP3    H1 1806   6.950   4.531   5.197 -0.8519  0.1254  3.6022
  614TIP3    H2 1807   7.006   4.390   5.194 -0.7893  0.1148 -0.8647
  615TIP3   OH2 1808   4.549   0.421   3.615  0.4390 -0.8244 -0.2366
  615TIP3    H1 1809   4.587   0.413   3.702 -0.2405  0.8183  0.2454
  615TIP3    H2 1810   4.455   0.416   3.629  0.1428  2.3162 -0.4254
  616TIP3   OH2 1811   1.452   5.398   5.042  0.3666  0.4855 -1.0022
  616TIP3    H1 1812   1.434   5.440   4.958  0.0770  0.7805 -0.7958
  616TIP3    H2 1813   1.369   5.358   5.068 -0.4656  2.9989  0.5938
  617TIP3   OH2 1814   1.200   4.137   4.076 -0.0571  0.0757  0.4190
  617TIP3    H1 1815   1.152   4.063   4.113  1.4281 -0.7319  0.8034
  617TIP3    H2 1816   1.189   4.128   3.981 -0.0766 -0.5082  0.4739
  618TIP3   OH2 1817   1.620   5.034   0.236  0.1146  0.3171  0.3627
  618TIP3    H1 1818   1.665   4.962   0.280  1.4209  0.1946 -1.1112
  618TIP3    H2 1819   1.610   5.005   0.145 -1.0678  1.2276  0.1770
  619TIP3   OH2 1820   0.175   4.335   3.060 -0.2692 -0.3559  0.4767
  619TIP3    H1 1821   0.130   4.253   3.040 -0.2256 -0.4472  0.7540
  619TIP3    H2 1822   0.235   4.313   3.131 -0.5956  0.0241  0.8712
  620TIP3   OH2 1823   0.356   3.430   0.132  0.2960 -0.2819  0.1940
  620TIP3    H1 1824   0.446   3.452   0.154  0.1769 -0.4918  0.9087
  620TIP3    H2 1825   0.309   3.431   0.215 -0.3552 -0.2256 -0.1616
  621TIP3   OH2 1826   3.045   6.086   2.114 -0.2749  0.3156 -0.3154
  621TIP3    H1 1827   3.020   5.995   2.101  2.2548 -0.5536  0.3012
  621TIP3    H2 1828   3.022   6.105   2.205  0.6172 -0.2462  0.0392
  622TIP3   OH2 1829   0.924   1.996   0.753  0.4396 -0.3032  0.4400
  622TIP3    H1 1830   1.004   1.951   0.779  1.3327  0.1260 -1.4176
  622TIP3    H2 1831   0.880   2.016   0.835  1.1247 -2.5321  1.4065
  623TIP3   OH2 1832   1.376   5.618   3.039 -0.3953 -0.0453 -0.1268
  623TIP3    H1 1833   1.303   5.649   2.984 -0.0691  0.4852 -0.2699
  623TIP3    H2 1834   1.334   5.588   3.120 -0.9727 -1.7252 -1.0131
  624TIP3   OH2 1835   4.606   3.497   5.011 -0.1055  0.3159  0.0636
  624TIP3    H1 1836   4.664   3.564   4.973  1.0717 -0.5725  0.2159
  624TIP3    H2 1837   4.666   3.430   5.043 -1.2887 -1.9580 -2.1887
  625TIP3   OH2 1838   5.613   6.339   1.822  0.0771 -0.8443  0.2853
  625TIP3    H1 1839   5.582   6.353   1.733  1.0578 -0.1928  0.0269
  625TIP3    H2 1840   5.672   6.412   1.838  3.1156 -3.0217 -0.0273
  626TIP3   OH2 1841   6.271   1.396   0.795 -0.2861  0.1360  0.0935
  626TIP3    H1 1842   6.285   1.304   0.817  0.9932 -0.2474 -2.0187
  626TIP3    H2 1843   6.200   1.395   0.731 -0.3068  0.6264  0.1044
  627TIP3   OH2 1844   5.399   1.571   4.248  0.1424 -0.1572 -0.4308
  627TIP3    H1 1845   5.402   1.604   4.338 -1.0551 -3.2438  0.8382
  627TIP3    H2 1846   5.309   1.586   4.220  0.6216  1.2202 -1.3917
  628TIP3   OH2 1847   1.522   4.370   0.406  0.3369 -0.4955 -0.5588
  628TIP3    H1 1848   1.553   4.417   0.328  0.7672 -0.6457 -0.4818
  628TIP3    H2 1849   1.573   4.408   0.478  1.1850 -1.5439 -0.5846
  629TIP3   OH2 1850   3.333   5.521   1.357  0.7569 -0.3085  0.5995
  629TIP3    H1 1851   3.370   5.563   1.280  0.4776 -1.2760 -0.0787
  629TIP3    H2 1852   3.408   5.482   1.402  0.9875  0.6918  1.1148
  630TIP3   OH2 1853   1.181   2.753   2.307  0.1907 -0.5014  0.1493
  630TIP3    H1 1854   1.092   2.739   2.274 -0.7164  1.2595  1.6958
  630TIP3    H2 1855   1.187   2.847   2.323  3.1940 -0.1400 -2.1780
  631TIP3   OH2 1856   3.206   1.285   0.971  0.6848 -0.0598  0.0609
  631TIP3    H1 1857   3.161   1.201   0.980  0.7820  0.0980  2.9807
  631TIP3    H2 1858   3.137   1.348   0.952  0.3169 -0.4944 -0.0495
  632TIP3   OH2 1859   6.448   2.296   3.596  0.2891 -0.6518 -0.0700
  632TIP3    H1 1860   6.445   2.392   3.592 -0.4317 -0.6188  0.8839
  632TIP3    H2 1861   6.538   2.276   3.622  0.4345 -0.2371 -0.2443
  633TIP3   OH2 1862   2.899   3.590   4.542  0.2134 -0.5933 -0.5636
  633TIP3    H1 1863   2.916   3.628   4.628  0.8587  0.1201 -0.9935
  633TIP3    H2 1864   2.965   3.521   4.533 -0.6088 -1.4929 -0.0142
  634TIP3   OH2 1865   1.425   4.289   2.843 -0.4165 -0.1664 -0.2743
  634TIP3    H1 1866   1.456   4.208   2.882 -0.7462 -0.4729 -0.6353
  634TIP3    H2 1867   1.387   4.338   2.916  0.6769  0.1094  0.1236
  635TIP3   OH2 1868   2.776   6.240   3.806  0.5996 -0.4496 -0.2282
  635TIP3    H1 1869   2.693   6.220   3.763  0.9357  0.3351 -1.2852
  635TIP3    H2 1870   2.754   6.248   3.898 -0.3271 -1.1651 -0.3689
  636TIP3   OH2 1871   1.340   2.592   1.374  0.0925 -0.0069  0.2944
  636TIP3    H1 1872   1.417   2.597   1.430  2.3646 -0.6328 -2.5382
  636TIP3    H2 1873   1.367   2.633   1.291 -2.4171 -0.8132 -1.0432
  637TIP3   OH2 1874   1.010   3.735   4.377 -0.3917 -0.1489  0.3234
  637TIP3    H1 1875   1.074   3.756   4.446 -1.0999  1.8447  0.4244
  637TIP3    H2 1876   0.926   3.739   4.422 -0.7615 -0.1781 -0.3697
  638TIP3   OH2 1877   3.627   0.050   4.546  0.1318 -0.1002  0.1008
  638TIP3    H1 1878   3.577   0.066   4.626  1.8459 -0.0262  1.2010
  638TIP3    H2 1879   3.627  -0.045   4.536  1.5554 -0.2532  1.3184
  639TIP3   OH2 1880   3.814   2.667   4.340  0.3033 -0.4603  0.3089
  639TIP3    H1 1881   3.782   2.755   4.322  1.4707  0.2020  1.3578
  639TIP3    H2 1882   3.766   2.611   4.278 -0.1594  0.9432 -0.6434
  640TIP3   OH2 1883   6.707   4.230   0.144  0.2519 -0.0718 -0.6917
  640TIP3    H1 1884   6.727   4.138   0.126 -0.2547 -0.6913  1.6365
  640TIP3    H2 1885   6.614   4.238   0.122  0.0765 -0.3569 -0.0726
  641TIP3   OH2 1886   1.673   0.953   2.967 -0.1552  0.1474 -0.0580
  641TIP3    H1 1887   1.610   1.013   3.007  0.2554 -0.7991  2.1574
  641TIP3    H2 1888   1.723   1.008   2.906 -2.5166  1.0877 -1.2466
  642TIP3   OH2 1889   4.171   4.409   4.552 -0.4724 -0.1786 -0.6708
  642TIP3    H1 1890   4.122   4.472   4.604 -0.2244  1.3380 -2.1977
  642TIP3    H2 1891   4.105   4.348   4.518 -0.4903 -2.1340  2.4989
  643TIP3   OH2 1892   2.392   3.068   5.464  0.3811  0.3712  0.2987
  643TIP3    H1 1893   2.389   3.028   5.377  2.4912  1.4852 -0.3640
  643TIP3    H2 1894   2.484   3.065   5.489 -0.1590  0.0871  2.5433
  644TIP3   OH2 1895   1.707   5.825   4.847 -0.2216 -0.2569 -0.0369
  644TIP3    H1 1896   1.668   5.906   4.881 -1.1799 -0.2551 -1.1013
  644TIP3    H2 1897   1.636   5.780   4.802  0.2346 -1.8541  0.7800
  645TIP3   OH2 1898   3.507   6.086   0.477  0.3374 -0.7631  0.3355
  645TIP3    H1 1899   3.483   6.159   0.534 -1.6797 -1.7200  0.7867
  645TIP3    H2 1900   3.527   6.014   0.536  1.0210 -0.9642 -0.1292
  646TIP3   OH2 1901   4.184   3.563   3.428 -0.1427  0.1059 -0.0173
  646TIP3    H1 1902   4.268   3.534   3.393 -0.2575 -0.6301  0.2920
  646TIP3    H2 1903   4.127   3.572   3.352  0.3455  1.0837 -0.2803
  647TIP3   OH2 1904   4.560   3.023   2.960  0.2474  0.3607 -0.6453
  647TIP3    H1 1905   4.537   3.107   2.920 -1.5346  0.0728 -0.3014
  647TIP3    H2 1906   4.579   2.966   2.886 -0.0427  0.6510 -0.9487
  648TIP3   OH2 1907   0.554   2.203   5.635  0.0101 -0.4953  0.1955
  648TIP3    H1 1908   0.520   2.238   5.553  0.8798 -0.9683 -0.3808
  648TIP3    H2 1909   0.562   2.109   5.620 -1.7925 -0.9135  1.5469
  649TIP3   OH2 1910   1.436   5.247   4.246 -0.4226 -0.2297  0.0374
  649TIP3    H1 1911   1.366   5.249   4.182 -0.9608  1.3929  0.6128
  649TIP3    H2 1912   1.421   5.325   4.301  0.4545 -1.1199  1.6385
  650TIP3   OH2 1913   1.456   2.128   5.311  0.5994  0.0255 -0.2504
  650TIP3    H1 1914   1.380   2.089   5.266 -0.0054 -0.0647  0.8314
  650TIP3    H2 1915   1.475   2.068   5.382  1.6027  0.1360 -0.4136
  651TIP3   OH2 1916   5.049   2.049   2.305 -0.1758 -0.1979 -0.0959
  651TIP3    H1 1917   5.024   1.958   2.323  0.4525 -0.5148 -0.7827
  651TIP3    H2 1918   5.074   2.084   2.390  1.8253 -1.3734 -0.1278
  652TIP3   OH2 1919   5.402   6.649   4.768  0.3063  0.1183 -0.0768
  652TIP3    H1 1920   5.494   6.669   4.782  0.2593  0.4027 -0.1637
  652TIP3    H2 1921   5.400   6.601   4.685  0.6418 -2.0442  1.0921
  653TIP3   OH2 1922   5.923   5.124   0.431  0.0394  0.4751  0.0177
  653TIP3    H1 1923   5.871   5.089   0.504  0.3511 -0.5891 -0.2464
  653TIP3    H2 1924   5.906   5.218   0.433 -2.7184  0.0784 -0.6720
  654TIP3   OH2 1925   2.758   5.344   5.000  0.4774 -0.0640  0.1607
  654TIP3    H1 1926   2.698   5.411   5.034  1.3430  0.2004  1.2159
  654TIP3    H2 1927   2.792   5.381   4.918  0.4576  0.5036  0.4055
  655TIP3   OH2 1928   4.551   2.421   2.737  0.2334  0.1355  0.2586
  655TIP3    H1 1929   4.558   2.396   2.645  1.2222 -1.9757  0.8384
  655TIP3    H2 1930   4.631   2.470   2.755 -0.0549  0.7275 -0.0202
  656TIP3   OH2 1931   5.366   3.694   5.646  0.0041  0.0532  0.2034
  656TIP3    H1 1932   5.321   3.697   5.562 -1.2221 -2.6590  0.6624
  656TIP3    H2 1933   5.440   3.634   5.632 -0.3979 -0.6776  1.1045
  657TIP3   OH2 1934   2.556   6.635   2.844 -0.0306  0.1497  0.0138
  657TIP3    H1 1935   2.487   6.689   2.806 -0.5554 -1.5347 -1.5869
  657TIP3    H2 1936   2.620   6.626   2.774 -0.2322 -1.7065  0.0054
  658TIP3   OH2 1937   5.618   3.169   4.210  0.1693 -0.2409 -0.4507
  658TIP3    H1 1938   5.655   3.089   4.171 -1.5072 -1.3677  0.1515
  658TIP3    H2 1939   5.694   3.218   4.240  1.4502 -0.1984 -3.3827
  659TIP3   OH2 1940   3.705   2.661   2.914 -0.4366  0.2684  0.3236
  659TIP3    H1 1941   3.663   2.674   2.829  1.6895  1.0044 -0.6829
  659TIP3    H2 1942   3.713   2.566   2.922  1.3341  0.2089 -1.4073
  660TIP3   OH2 1943   5.541   0.773   2.481  0.3790 -0.2066  0.1004
  660TIP3    H1 1944   5.491   0.787   2.561 -2.6030 -0.8716 -1.5006
  660TIP3    H2 1945   5.557   0.862   2.447 -1.8598  0.0046 -0.5187
  661TIP3   OH2 1946   3.030   3.785   4.033 -0.4544  0.3646  0.2048
  661TIP3    H1 1947   3.100   3.830   4.079  0.2857  2.5293 -2.7668
  661TIP3    H2 1948   2.971   3.754   4.102  2.5757 -0.2034  2.7165
  662TIP3   OH2 1949   4.646   0.466   3.141  0.3232  0.2462  0.0232
  662TIP3    H1 1950   4.655   0.526   3.067  2.8203  1.6729  1.3282
  662TIP3    H2 1951   4.604   0.518   3.210  1.2128  0.0955  0.7064
  663TIP3   OH2 1952   5.164   5.659   0.055  0.5477 -0.7749 -0.1790
  663TIP3    H1 1953   5.130   5.632   0.140  2.6121 -0.5545  0.7853
  663TIP3    H2 1954   5.258   5.673   0.070  0.7928  0.2239 -2.2651
  664TIP3   OH2 1955   5.790   1.359   2.849  0.1056 -0.1647  0.0472
  664TIP3    H1 1956   5.720   1.397   2.901  0.5667  1.3550 -0.4040
  664TIP3    H2 1957   5.810   1.425   2.782 -0.6844 -2.1518 -2.2924
  665TIP3   OH2 1958   6.772   0.491   3.342  0.1677  0.7789  0.5012
  665TIP3    H1 1959   6.828   0.419   3.372  1.0773  1.1200 -0.3324
  665TIP3    H2 1960   6.807   0.569   3.385  1.2832  1.2223 -1.1297
  666TIP3   OH2 1961   5.364   5.388   3.385  0.2000  0.1621 -0.4856
  666TIP3    H1 1962   5.295   5.329   3.354 -0.6747  1.7701 -1.7276
  666TIP3    H2 1963   5.319   5.450   3.442  1.0948 -0.2528  0.7212
  667TIP3   OH2 1964   3.358   1.500   2.090  0.4898  0.7160  0.0258
  667TIP3    H1 1965   3.296   1.473   2.022  2.6009 -0.8099 -1.4318
  667TIP3    H2 1966   3.333   1.591   2.110 -1.8338  0.3520 -0.8432
  668TIP3   OH2 1967   3.793   3.097   4.433 -0.0235 -0.0849  1.4799
  668TIP3    H1 1968   3.876   3.079   4.387 -1.0679  0.1771 -0.6207
  668TIP3    H2 1969   3.805   3.184   4.470 -0.5807  1.7442 -2.1108
  669TIP3   OH2 1970   3.228   1.614   4.206  0.2631 -0.2173 -0.2212
  669TIP3    H1 1971   3.160   1.547   4.200  0.9997 -1.2764  2.1590
  669TIP3    H2 1972   3.310   1.566   4.206  0.9279  0.8699 -0.6508
  670TIP3   OH2 1973   4.994   1.190   2.872 -0.4673  0.2608  0.6340
  670TIP3    H1 1974   4.964   1.170   2.783  0.6373  1.1257  0.0205
  670TIP3    H2 1975   4.914   1.202   2.923 -1.1259 -1.1547 -0.0147
  671TIP3   OH2 1976   4.510   0.274   5.602 -0.2685 -0.6083  0.1410
  671TIP3    H1 1977   4.570   0.347   5.593 -0.7590  0.0749  2.0255
  671TIP3    H2 1978   4.437   0.308   5.654 -1.0326 -2.1304  0.1423
  672TIP3   OH2 1979   0.414   6.362   3.942 -0.4292  0.7889  0.1492
  672TIP3    H1 1980   0.345   6.296   3.947  1.5143 -1.5321 -1.4002
  672TIP3    H2 1981   0.448   6.354   3.852  1.5235  2.1607  0.7101
  673TIP3   OH2 1982   2.055   0.594   4.804 -0.2762  0.0107  0.1684
  673TIP3    H1 1983   1.997   0.643   4.861  0.1303  1.0477 -0.2812
  673TIP3    H2 1984   1.997   0.544   4.746 -0.7593  1.5039 -0.6914
  674TIP3   OH2 1985   4.189   1.538   2.101 -0.0073 -0.0603  0.4451
  674TIP3    H1 1986   4.175   1.448   2.130  0.8373 -0.2845  0.1848
  674TIP3    H2 1987   4.180   1.590   2.181  1.1462 -0.5570  0.9217
  675TIP3   OH2 1988   6.156   2.226   1.206  0.1900 -0.1116 -0.1831
  675TIP3    H1 1989   6.099   2.303   1.197 -0.8632 -0.9987 -1.3869
  675TIP3    H2 1990   6.176   2.222   1.300  0.9902  2.1023 -0.1887
  676TIP3   OH2 1991   0.555   4.953   2.969  0.5818 -0.4365  0.5453
  676TIP3    H1 1992   0.579   4.869   3.009  0.1422 -1.5795 -1.4462
  676TIP3    H2 1993   0.567   4.939   2.875 -0.5020  1.4120  0.0814
  677TIP3   OH2 1994   6.287   3.343   4.068  0.4520 -0.3622  0.2287
  677TIP3    H1 1995   6.356   3.376   4.126  1.8027  1.2658 -2.1445
  677TIP3    H2 1996   6.235   3.286   4.124  3.3850 -1.2787  2.3108
  678TIP3   OH2 1997   0.414   4.167   0.679  0.0847  0.4816 -0.2393
  678TIP3    H1 1998   0.391   4.186   0.588  0.8526  0.8581 -0.3640
  678TIP3    H2 1999   0.499   4.209   0.691 -0.1400  0.6663  0.7405
  679TIP3   OH2 2000   5.980   1.521   1.810 -0.5990 -0.8425  0.7422
  679TIP3    H1 2001   5.902   1.524   1.866  0.6759 -2.9408  2.7771
  679TIP3    H2 2002   6.036   1.454   1.850  2.5455  0.9810 -0.2785
  680TIP3   OH2 2003   6.136   3.367   2.037  0.2630 -0.0240 -0.7182
  680TIP3    H1 2004   6.066   3.318   2.080  0.8000 -1.0173 -0.9623
  680TIP3    H2 2005   6.095   3.404   1.959  0.0233 -0.6711 -0.9030
  681TIP3   OH2 2006   3.407   2.097   5.772  0.1039 -0.0441 -0.5841
  681TIP3    H1 2007   3.346   2.043   5.722 -0.0094  0.8524 -1.4452
  681TIP3    H2 2008   3.470   2.128   5.708  1.4593 -0.8970  0.2830
  682TIP3   OH2 2009   0.383   1.927   5.418 -0.3180  0.4164 -0.0696
  682TIP3    H1 2010   0.300   1.958   5.452 -1.7489 -3.6013  0.6964
  682TIP3    H2 2011   0.447   1.951   5.485 -1.7034 -0.2523  1.5820
  683TIP3   OH2 2012   3.550   4.217   3.706 -1.1812  0.2540 -0.3858
  683TIP3    H1 2013   3.496   4.143   3.676  0.9441 -1.2303 -0.7857
  683TIP3    H2 2014   3.581   4.258   3.625 -1.2728  0.7640 -0.1634
  684TIP3   OH2 2015   2.529   4.153   3.045 -0.2018  0.1276 -0.5675
  684TIP3    H1 2016   2.619   4.131   3.070 -0.0045  1.3292 -0.1585
  684TIP3    H2 2017   2.516   4.242   3.079 -1.3781  0.1527 -1.0550
  685TIP3   OH2 2018   2.356   2.961   2.355  0.7005 -0.0884 -0.1182
  685TIP3    H1 2019   2.272   3.005   2.342  1.4133  1.1052 -0.7532
  685TIP3    H2 2020   2.398   3.010   2.426  1.7400  0.6460 -1.2108
  686TIP3   OH2 2021   0.503   4.577   4.664  0.4284  0.1850  0.1497
  686TIP3    H1 2022   0.536   4.526   4.590  0.5022 -0.9021  0.9101
  686TIP3    H2 2023   0.428   4.625   4.629  2.2575  2.1254 -1.4253
  687TIP3   OH2 2024   5.890   2.893   3.449  0.1803 -0.2109 -0.0695
  687TIP3    H1 2025   5.871   2.984   3.426 -0.0024 -0.1602  0.2832
  687TIP3    H2 2026   5.902   2.849   3.365  3.4379  0.7986 -0.2791
  688TIP3   OH2 2027   0.443   6.152   5.072  0.1744  0.4631  0.0387
  688TIP3    H1 2028   0.351   6.134   5.093 -0.1478 -0.5555 -2.0206
  688TIP3    H2 2029   0.445   6.245   5.051 -0.7229  0.2026 -1.3270
  689TIP3   OH2 2030   4.933   5.030   5.083  0.1469  0.1752  0.1394
  689TIP3    H1 2031   4.891   5.055   5.165 -1.0422  0.5669 -0.5588
  689TIP3    H2 2032   4.906   4.938   5.070 -0.0490  0.2546 -0.0298
  690TIP3   OH2 2033   6.779   1.596   4.232  0.3426 -0.4999  0.2281
  690TIP3    H1 2034   6.775   1.574   4.325 -2.5872  0.9593  0.5595
  690TIP3    H2 2035   6.731   1.525   4.188  2.7729 -1.8574 -0.4308
  691TIP3   OH2 2036   4.750   3.267   5.079  0.0584  0.4454 -0.1819
  691TIP3    H1 2037   4.821   3.206   5.057  0.9363  1.2557  0.3618
  691TIP3    H2 2038   4.743   3.263   5.174 -1.0766 -0.1037 -0.2720
  692TIP3   OH2 2039   0.309   2.107   3.693 -0.0528 -0.1781 -0.2118
  692TIP3    H1 2040   0.300   2.057   3.611  0.6202 -1.0279  0.2080
  692TIP3    H2 2041   0.220   2.118   3.725 -0.3022 -0.0625 -0.9290
  693TIP3   OH2 2042   6.867   0.076   3.163 -0.2864  0.4269  0.5341
  693TIP3    H1 2043   6.870   0.021   3.085 -2.4883  0.6386  0.2356
  693TIP3    H2 2044   6.884   0.015   3.236 -0.2093 -0.1474  0.0456
  694TIP3   OH2 2045   2.570   1.615   1.966 -0.2944 -0.2093 -0.2160
  694TIP3    H1 2046   2.558   1.539   2.023 -1.9038  0.3944  0.2945
  694TIP3    H2 2047   2.498   1.610   1.903  0.1265  0.3931 -0.7598
  695TIP3   OH2 2048   5.705   6.473   2.518  0.0493  0.7527  0.4768
  695TIP3    H1 2049   5.667   6.479   2.605  0.9618  2.0091  0.8181
  695TIP3    H2 2050   5.792   6.513   2.526  0.6084 -0.1235 -0.7505
  696TIP3   OH2 2051   6.754   1.519   4.499  0.7131  0.3042  0.0904
  696TIP3    H1 2052   6.845   1.490   4.498  0.6073 -0.0447 -1.1445
  696TIP3    H2 2053   6.743   1.561   4.584  1.8996 -0.0419  0.4328
  697TIP3   OH2 2054   4.522   1.400   1.912 -0.3099  0.0432 -0.1116
  697TIP3    H1 2055   4.522   1.305   1.897 -1.7324 -0.1437  0.8837
  697TIP3    H2 2056   4.592   1.433   1.856 -1.5326 -1.2597 -2.5831
  698TIP3   OH2 2057   2.889   5.894   2.614 -0.2223 -0.1198  0.2840
  698TIP3    H1 2058   2.940   5.893   2.695 -0.2907  0.3408  0.3362
  698TIP3    H2 2059   2.948   5.856   2.549 -0.6576 -1.7759  0.8224
  699TIP3   OH2 2060   5.608   6.441   0.923 -0.1540 -0.1191  0.2931
  699TIP3    H1 2061   5.547   6.481   0.985 -0.5960 -3.0617  1.9304
  699TIP3    H2 2062   5.694   6.473   0.950 -0.5637  0.5564  0.8335
  700TIP3   OH2 2063   5.237   5.429   0.474  0.0414 -0.5925 -0.7202
  700TIP3    H1 2064   5.300   5.361   0.496 -0.2830 -1.0648 -1.2233
  700TIP3    H2 2065   5.279   5.510   0.502  0.2699 -1.0268  0.2230
  701TIP3   OH2 2066   0.773   0.254   0.196 -0.0017  0.3684  0.1184
  701TIP3    H1 2067   0.762   0.288   0.285 -0.7699 -0.8212  0.5080
  701TIP3    H2 2068   0.761   0.159   0.205  1.6916  0.0145 -0.9780
  702TIP3   OH2 2069   6.189   6.444   2.485 -0.2522 -0.2158  0.2492
  702TIP3    H1 2070   6.194   6.412   2.395 -2.6342 -1.5143  0.5001
  702TIP3    H2 2071   6.248   6.387   2.534  1.3804  0.7573 -0.4775
  703TIP3   OH2 2072   0.210   6.539   4.538  0.4074 -0.2353 -0.6272
  703TIP3    H1 2073   0.296   6.580   4.521 -0.4421  1.5719 -0.8071
  703TIP3    H2 2074   0.200   6.476   4.467  0.7325  0.9972 -1.8169
  704TIP3   OH2 2075   4.965   0.734   4.260  0.3216 -0.0314 -0.1900
  704TIP3    H1 2076   5.010   0.650   4.257 -1.1941 -0.8554 -1.1509
  704TIP3    H2 2077   4.884   0.716   4.308  0.4866  1.1638  0.5861
  705TIP3   OH2 2078   3.246   4.524   0.720  0.0692  0.0498  0.7718
  705TIP3    H1 2079   3.337   4.497   0.728 -0.2179 -0.7505  1.4087
  705TIP3    H2 2080   3.237   4.597   0.781  0.7151  1.3291 -0.5846
  706TIP3   OH2 2081   4.234   5.095   2.106 -0.4447 -0.0686  0.4272
  706TIP3    H1 2082   4.281   5.130   2.031 -1.0223 -0.5465 -0.1779
  706TIP3    H2 2083   4.275   5.010   2.122  0.0994  0.3054  1.0693
  707TIP3   OH2 2084   1.668   6.464   3.487 -0.1716 -0.0538  0.2759
  707TIP3    H1 2085   1.737   6.481   3.423 -0.0859 -0.8353  0.1601
  707TIP3    H2 2086   1.710   6.476   3.572 -0.0134 -0.0705  0.1992
  708TIP3   OH2 2087   1.235   6.761   0.096  0.2685 -1.0620  0.0739
  708TIP3    H1 2088   1.316   6.753   0.147 -0.5802 -0.5594  1.5815
  708TIP3    H2 2089   1.216   6.855   0.096 -0.5613 -1.2208  0.1718
  709TIP3   OH2 2090   4.844   0.401   1.054  0.2483  0.0557  0.0041
  709TIP3    H1 2091   4.920   0.390   0.998  0.8832 -1.5333  1.0869
  709TIP3    H2 2092   4.870   0.466   1.119  0.2993  0.2910 -0.2530
  710TIP3   OH2 2093   3.394   4.025   3.569 -0.0237 -0.0962  0.3294
  710TIP3    H1 2094   3.346   3.947   3.540 -0.1560  0.4882 -1.1267
  710TIP3    H2 2095   3.328   4.081   3.608 -0.4228  0.3603 -0.9431
  711TIP3   OH2 2096   2.056   3.753   5.322 -0.3598  0.8024  0.5051
  711TIP3    H1 2097   2.005   3.751   5.403  0.1750  1.0852  0.8512
  711TIP3    H2 2098   2.067   3.846   5.302  0.2166  0.7499  0.5585
  712TIP3   OH2 2099   0.460   3.319   5.385 -0.3005 -0.5675 -0.2180
  712TIP3    H1 2100   0.438   3.409   5.360 -0.9773 -0.4342  0.7805
  712TIP3    H2 2101   0.532   3.294   5.327  0.3970  0.8850 -0.0104
  713TIP3   OH2 2102   3.348   6.080   1.506  0.0883  0.4014 -0.3917
  713TIP3    H1 2103   3.402   6.151   1.471  0.6882 -0.7064 -1.8157
  713TIP3    H2 2104   3.268   6.083   1.453 -0.4623  0.8218  0.4338
  714TIP3   OH2 2105   3.771   4.019   1.324 -0.2694  0.2087  0.6082
  714TIP3    H1 2106   3.863   4.045   1.325 -0.0842 -0.2996 -0.7973
  714TIP3    H2 2107   3.723   4.102   1.319  0.2012  0.4324 -0.5981
  715TIP3   OH2 2108   5.332   4.588   1.990  0.3013 -0.5811  0.0026
  715TIP3    H1 2109   5.319   4.610   2.083  0.3493 -2.3766  0.4734
  715TIP3    H2 2110   5.420   4.551   1.986 -0.2787 -1.9687 -0.4469
  716TIP3   OH2 2111   3.570   3.313   4.133  0.4261  0.4254 -0.0458
  716TIP3    H1 2112   3.533   3.271   4.210  2.3503  0.1875  0.8000
  716TIP3    H2 2113   3.561   3.248   4.063  0.4420 -0.1261  0.4578
  717TIP3   OH2 2114   6.451   4.692   3.844  0.2822 -0.1061 -0.0146
  717TIP3    H1 2115   6.544   4.667   3.840  0.9500  2.2169 -0.1089
  717TIP3    H2 2116   6.443   4.742   3.925 -1.0947 -0.8994  0.3813
  718TIP3   OH2 2117   3.253   4.581   0.445 -0.3445  0.0987 -0.0326
  718TIP3    H1 2118   3.248   4.568   0.539  0.6779 -0.6416 -0.0598
  718TIP3    H2 2119   3.299   4.503   0.413  1.4436  1.4310 -0.8653
  719TIP3   OH2 2120   0.329   5.625   5.066  0.1856 -0.7324  0.7636
  719TIP3    H1 2121   0.364   5.622   5.155  2.4958 -0.6283 -0.0780
  719TIP3    H2 2122   0.262   5.694   5.069 -0.4549 -1.3724  2.6069
  720TIP3   OH2 2123   3.205   4.050   1.470 -0.0803 -0.4085 -0.8218
  720TIP3    H1 2124   3.138   4.105   1.430  0.6417  1.8544  0.8952
  720TIP3    H2 2125   3.236   4.100   1.545  0.0919 -3.5260  1.3729
  721TIP3   OH2 2126   6.107   6.561   2.777  0.2713 -0.5136  0.0035
  721TIP3    H1 2127   6.048   6.499   2.735 -0.8324  0.7322 -0.3613
  721TIP3    H2 2128   6.171   6.584   2.709  0.1032 -0.5209 -0.1576
  722TIP3   OH2 2129   4.260   1.533   3.963 -0.1933 -0.1883  0.0586
  722TIP3    H1 2130   4.355   1.521   3.960 -0.2208 -0.3286 -0.3015
  722TIP3    H2 2131   4.240   1.585   3.885 -0.3857  0.0147  0.2465
  723TIP3   OH2 2132   4.276   4.364   1.989 -0.1583  0.0066 -0.1195
  723TIP3    H1 2133   4.318   4.370   2.075 -1.4776 -0.1188  0.5424
  723TIP3    H2 2134   4.215   4.291   1.997  1.1006 -1.3109 -1.7979
  724TIP3   OH2 2135   2.569   0.244   2.025  0.4090  0.7525  0.3086
  724TIP3    H1 2136   2.569   0.300   1.948 -1.1949 -0.7117 -0.8528
  724TIP3    H2 2137   2.486   0.263   2.069  0.9974  1.0749  1.3099
  725TIP3   OH2 2138   0.887   6.486   2.883  0.0570 -0.3277 -0.1177
  725TIP3    H1 2139   0.840   6.569   2.880  2.1485  0.9085 -0.4212
  725TIP3    H2 2140   0.823   6.424   2.919 -2.1607  0.9358 -1.6260
  726TIP3   OH2 2141   2.979   6.644   1.602  0.2829 -0.6079  0.2130
  726TIP3    H1 2142   2.965   6.733   1.571 -1.1194 -0.9322 -0.1640
  726TIP3    H2 2143   2.947   6.644   1.692  0.0377 -0.7803  0.1286
  727TIP3   OH2 2144   6.705   3.036   1.145 -0.1727 -0.4397 -0.8395
  727TIP3    H1 2145   6.765   2.966   1.172 -1.3467 -1.5817 -1.1096
  727TIP3    H2 2146   6.759   3.094   1.091  1.1478 -0.4124  0.4402
  728TIP3   OH2 2147   1.276   6.656   0.432  0.4616 -0.7983 -0.5544
  728TIP3    H1 2148   1.265   6.564   0.454 -0.9070 -0.1743  1.6218
  728TIP3    H2 2149   1.371   6.669   0.428  0.9633 -1.3321  4.0953
  729TIP3   OH2 2150   0.678   0.623   0.599  0.1967  0.5270  0.2313
  729TIP3    H1 2151   0.717   0.581   0.675  3.2733  0.1261 -1.3791
  729TIP3    H2 2152   0.701   0.716   0.609 -0.5823  0.6972  0.4493
  730TIP3   OH2 2153   1.262   1.258   1.444  0.1500 -0.3820 -0.0141
  730TIP3    H1 2154   1.208   1.281   1.520  2.0371  0.7451  1.0523
  730TIP3    H2 2155   1.285   1.166   1.457 -0.3444 -0.4703  0.2645
  731TIP3   OH2 2156   4.347   0.837   2.298  0.1927  0.6873  0.0243
  731TIP3    H1 2157   4.356   0.743   2.318  0.5643  0.2855 -1.8297
  731TIP3    H2 2158   4.410   0.880   2.356 -0.1616 -0.1764  1.0777
  732TIP3   OH2 2159   1.258   0.892   3.111 -0.5330  0.0897  0.4221
  732TIP3    H1 2160   1.305   0.829   3.057 -0.1492 -0.0341  0.8928
  732TIP3    H2 2161   1.303   0.975   3.097 -1.0805  0.2840 -0.2511
  733TIP3   OH2 2162   1.103   1.601   2.707  0.2133 -0.2943  0.5234
  733TIP3    H1 2163   1.018   1.604   2.664 -0.1495  0.1252  1.2550
  733TIP3    H2 2164   1.116   1.689   2.742  0.9284 -0.3668  0.4610
  734TIP3   OH2 2165   1.417   5.517   4.799  0.4300 -0.1685  0.5376
  734TIP3    H1 2166   1.472   5.575   4.747  0.6837 -0.4528  0.4902
  734TIP3    H2 2167   1.389   5.449   4.739  0.5212 -0.3608  0.7117
  735TIP3   OH2 2168   5.335   2.130   1.940 -0.3739 -1.1380 -0.0858
  735TIP3    H1 2169   5.346   2.190   2.013 -0.8329 -1.6087  0.3742
  735TIP3    H2 2170   5.245   2.145   1.909 -0.3582 -1.3026 -0.2174
  736TIP3   OH2 2171   2.107   1.909   1.598 -0.0554  0.2951 -0.3430
  736TIP3    H1 2172   2.055   1.829   1.595  1.1527 -0.6079  1.3219
  736TIP3    H2 2173   2.197   1.880   1.588  0.4685  1.3394  1.0274
  737TIP3   OH2 2174   2.395   5.348   5.762  0.0962 -0.4517 -0.1272
  737TIP3    H1 2175   2.345   5.338   5.681  1.0144 -0.7536 -0.6676
  737TIP3    H2 2176   2.481   5.378   5.734  0.7507 -1.5410  0.6457
  738TIP3   OH2 2177   4.728   6.514   2.659  0.1541  0.0193  0.2497
  738TIP3    H1 2178   4.752   6.483   2.746  2.7239 -1.8222 -0.9894
  738TIP3    H2 2179   4.647   6.466   2.639  0.6032 -1.0254  0.8638
  739TIP3   OH2 2180   0.881   2.182   3.030 -0.2806 -0.5152  0.2659
  739TIP3    H1 2181   0.852   2.124   2.960 -1.3661  0.1137  0.1769
  739TIP3    H2 2182   0.878   2.270   2.991  1.0888 -0.3543  0.4774
  740TIP3   OH2 2183   1.446   5.006   5.776  0.3602 -0.7630  0.4366
  740TIP3    H1 2184   1.408   4.991   5.689  0.8903 -1.9175  0.3725
  740TIP3    H2 2185   1.487   5.092   5.770 -0.0777 -0.5957 -0.2841
  741TIP3   OH2 2186   0.851   5.733   3.086 -0.0989  0.3102 -0.1167
  741TIP3    H1 2187   0.871   5.675   3.012 -1.0383  0.0662 -0.1929
  741TIP3    H2 2188   0.937   5.764   3.116  0.4264 -1.0861 -0.0932
  742TIP3   OH2 2189   2.209   3.760   3.402  0.0496 -0.0085  0.1160
  742TIP3    H1 2190   2.138   3.780   3.462 -1.1085 -0.7747 -0.9470
  742TIP3    H2 2191   2.182   3.797   3.319  0.7805 -0.5020 -0.3551
  743TIP3   OH2 2192   1.367   1.190   1.808  0.2275 -0.1161  0.5455
  743TIP3    H1 2193   1.437   1.243   1.770  0.7263 -0.6056  0.7680
  743TIP3    H2 2194   1.411   1.135   1.873 -0.5346  0.3921  1.5282
  744TIP3   OH2 2195   6.155   0.614   3.629 -0.3643 -0.5953  0.6604
  744TIP3    H1 2196   6.079   0.563   3.656 -1.5765  1.3640  1.1610
  744TIP3    H2 2197   6.118   0.689   3.582  1.2895  0.2018  0.5481
  745TIP3   OH2 2198   4.094   0.418   1.821  0.1940 -0.0760 -0.0935
  745TIP3    H1 2199   4.074   0.336   1.866  0.5133  0.4089  0.9557
  745TIP3    H2 2200   4.152   0.464   1.881 -0.9313  1.4421 -0.1179
  746TIP3   OH2 2201   2.302   6.281   4.515 -0.2943  0.0657  0.0953
  746TIP3    H1 2202   2.363   6.242   4.453 -0.0994  0.1719  0.2197
  746TIP3    H2 2203   2.344   6.269   4.600  0.0412  1.0660  0.0766
  747TIP3   OH2 2204   6.283   0.233   3.294  0.3233  0.4426 -0.2348
  747TIP3    H1 2205   6.323   0.318   3.277 -1.5198  0.9297 -2.8332
  747TIP3    H2 2206   6.188   0.250   3.290 -0.1067 -1.4647  0.8161
  748TIP3   OH2 2207   7.042   1.740   5.022 -0.1916 -0.2074  0.0951
  748TIP3    H1 2208   7.069   1.674   4.958 -0.0047  0.2706 -0.3315
  748TIP3    H2 2209   7.107   1.735   5.092 -0.7648 -1.1787  0.5681
  749TIP3   OH2 2210   3.924   0.044   5.276 -0.1179  0.1042  0.1285
  749TIP3    H1 2211   3.979   0.019   5.202 -0.5273  0.7946 -0.4167
  749TIP3    H2 2212   3.976   0.107   5.325 -0.8441  1.6653 -1.0369
  750TIP3   OH2 2213   0.687   5.073   0.875 -0.3441  0.2107  0.4113
  750TIP3    H1 2214   0.695   4.987   0.917 -1.4034 -0.0335  0.1445
  750TIP3    H2 2215   0.593   5.094   0.881 -0.1538  1.2040  0.1817
  751TIP3   OH2 2216   5.749   5.516   3.805 -0.2386 -0.4215 -0.0039
  751TIP3    H1 2217   5.803   5.588   3.836 -1.5882  0.9975 -0.8198
  751TIP3    H2 2218   5.784   5.495   3.719 -1.1026  0.6788 -0.6484
  752TIP3   OH2 2219   4.958   2.258   3.807  0.5866 -0.1215 -0.2616
  752TIP3    H1 2220   4.908   2.220   3.878 -1.3640  0.7946 -1.0683
  752TIP3    H2 2221   5.014   2.323   3.849 -2.1942  2.0862  0.3414
  753TIP3   OH2 2222   1.845   3.584   1.499 -0.2641  0.6922  0.7976
  753TIP3    H1 2223   1.836   3.538   1.582 -1.7136  1.2182  0.9431
  753TIP3    H2 2224   1.855   3.676   1.522  1.4616  0.6265  0.4535
  754TIP3   OH2 2225   4.470   3.030   3.238 -0.9450  0.1451 -0.1281
  754TIP3    H1 2226   4.539   2.988   3.289 -1.2229 -0.4332 -0.2193
  754TIP3    H2 2227   4.504   3.034   3.149 -0.5146  1.0306  0.0704
  755TIP3   OH2 2228   6.682   1.256   5.373 -0.5395 -0.6541  0.3702
  755TIP3    H1 2229   6.717   1.272   5.461  0.9978 -0.1808 -0.2833
  755TIP3    H2 2230   6.727   1.320   5.318 -0.3619 -1.9150 -1.0103
  756TIP3   OH2 2231   1.400   2.599   3.247 -0.1687  0.4139  0.4876
  756TIP3    H1 2232   1.465   2.617   3.179  0.1295  0.2760  0.7285
  756TIP3    H2 2233   1.427   2.514   3.283  1.4828  1.7916  2.7875
  757TIP3   OH2 2234   2.446   6.574   2.478 -0.7328 -0.0606 -0.0450
  757TIP3    H1 2235   2.504   6.648   2.461 -1.2452 -0.0898 -2.2517
  757TIP3    H2 2236   2.371   6.612   2.524  0.9791 -0.0403  2.9454
  758TIP3   OH2 2237   1.011   1.693   3.167  0.0220  0.4574  0.0640
  758TIP3    H1 2238   0.943   1.680   3.233  1.6045  1.0566  1.8807
  758TIP3    H2 2239   1.003   1.617   3.109 -1.7897  0.2182  0.5634
  759TIP3   OH2 2240   1.899   1.307   3.506 -0.4651 -0.1016 -0.2855
  759TIP3    H1 2241   1.940   1.346   3.428  0.2707 -3.1032 -1.5407
  759TIP3    H2 2242   1.887   1.215   3.483 -2.5542 -0.5920  2.2827
  760TIP3   OH2 2243   0.186   0.470   3.531 -0.2197 -0.4579  0.5484
  760TIP3    H1 2244   0.247   0.422   3.586  2.0630  0.5180 -1.0088
  760TIP3    H2 2245   0.140   0.402   3.481  0.3756 -1.1580  0.9402
  761TIP3   OH2 2246   2.978   4.872   2.951 -0.4218 -0.0661 -0.2199
  761TIP3    H1 2247   3.016   4.874   2.863 -0.4085  2.3435 -0.2135
  761TIP3    H2 2248   3.053   4.879   3.010 -0.4690 -1.2143  0.0108
  762TIP3   OH2 2249   3.887   5.750   1.472 -0.1157 -0.4346  0.0327
  762TIP3    H1 2250   3.961   5.780   1.418  1.5911 -3.1723  0.6340
  762TIP3    H2 2251   3.845   5.830   1.501  2.1681  1.2595 -0.9705
  763TIP3   OH2 2252   3.662   0.554   4.441  0.3388 -0.5084  0.0287
  763TIP3    H1 2253   3.671   0.463   4.414 -0.6071 -0.2592 -1.2372
  763TIP3    H2 2254   3.575   0.580   4.410  1.0361  1.1501 -0.7014
  764TIP3   OH2 2255   1.374   6.105   1.415  0.1251  0.1450 -0.7632
  764TIP3    H1 2256   1.286   6.140   1.402 -0.3531 -0.2961  1.1009
  764TIP3    H2 2257   1.368   6.014   1.384 -0.4889 -0.3200  0.6423
  765TIP3   OH2 2258   5.341   1.272   4.427  0.0900  0.8074  0.2838
  765TIP3    H1 2259   5.340   1.176   4.422 -1.0119  0.7582  1.0650
  765TIP3    H2 2260   5.375   1.291   4.514  0.8366  1.1588 -0.0721
  766TIP3   OH2 2261   2.097   2.547   3.956 -0.2575 -0.0722  0.5049
  766TIP3    H1 2262   2.171   2.607   3.968  0.2424 -0.6411  0.3369
  766TIP3    H2 2263   2.065   2.531   4.045  0.1006 -0.1558  0.6238
  767TIP3   OH2 2264   4.010   3.558   5.555  0.4372  0.0075  0.4961
  767TIP3    H1 2265   3.952   3.631   5.578 -0.8720 -1.4068  1.9323
  767TIP3    H2 2266   4.053   3.534   5.637 -1.1040 -2.4167  0.6992
  768TIP3   OH2 2267   1.289   2.034   2.192  0.0510  0.0367  0.2943
  768TIP3    H1 2268   1.323   2.066   2.109 -0.6283  1.5015  0.5676
  768TIP3    H2 2269   1.368   2.019   2.245  0.3817  1.8165  0.3546
  769TIP3   OH2 2270   6.074   3.949   2.526 -0.1227  0.2848  0.1749
  769TIP3    H1 2271   6.061   3.918   2.437  1.4235 -1.1628  0.3994
  769TIP3    H2 2272   6.030   3.885   2.581  0.0537  0.4332  0.4959
  770TIP3   OH2 2273   3.906   3.191   0.467 -0.4425  0.4347  0.0966
  770TIP3    H1 2274   3.866   3.261   0.415 -0.1002  1.3893  1.0720
  770TIP3    H2 2275   3.999   3.214   0.470 -0.4760  0.4745  1.2220
  771TIP3   OH2 2276   1.880   5.612   4.775 -0.1177  0.2749 -0.3103
  771TIP3    H1 2277   1.830   5.567   4.707  0.0063  3.0166 -2.3749
  771TIP3    H2 2278   1.818   5.675   4.812  0.9177  1.6866 -0.8647
  772TIP3   OH2 2279   0.783   1.861   4.267  0.3873  0.3870 -0.0265
  772TIP3    H1 2280   0.832   1.865   4.185 -0.5823  2.4475 -0.5858
  772TIP3    H2 2281   0.845   1.825   4.330  0.9720 -1.8696 -1.7337
  773TIP3   OH2 2282   1.595   0.659   1.616 -0.0308  0.4619  0.3301
  773TIP3    H1 2283   1.661   0.720   1.581 -1.2676  2.2369  0.9280
  773TIP3    H2 2284   1.516   0.679   1.566 -0.3154 -1.1340  0.1089
  774TIP3   OH2 2285   7.011   4.415   1.405 -0.0296 -0.5177 -0.4612
  774TIP3    H1 2286   6.915   4.422   1.405  0.1046  1.9869 -0.2735
  774TIP3    H2 2287   7.037   4.439   1.316  0.5081  1.4684  0.1810
  775TIP3   OH2 2288   2.968   0.998   4.334 -0.4242  0.4251 -0.2869
  775TIP3    H1 2289   2.977   1.004   4.239  0.8307  0.4588 -0.1809
  775TIP3    H2 2290   2.967   0.903   4.351  1.6771  0.3884 -0.1646
  776TIP3   OH2 2291   6.191   4.480   4.119  0.1424  0.0928 -0.6142
  776TIP3    H1 2292   6.122   4.543   4.141  1.4206  1.1410  0.5626
  776TIP3    H2 2293   6.191   4.417   4.191 -2.3121 -2.4461 -2.6051
  777TIP3   OH2 2294   3.387   1.521   4.903  0.0503  0.3653 -0.3057
  777TIP3    H1 2295   3.378   1.450   4.839 -0.2256 -0.1175  0.2571
  777TIP3    H2 2296   3.464   1.497   4.955  1.2454  1.5608 -1.4469
  778TIP3   OH2 2297   4.165   0.256   3.734  0.1368  0.0133  0.0278
  778TIP3    H1 2298   4.257   0.229   3.739  1.1013  2.9796  0.1518
  778TIP3    H2 2299   4.144   0.251   3.641  0.4576 -0.5105 -0.0238
  779TIP3   OH2 2300   5.778   3.991   3.516  0.9212 -0.0080 -0.5234
  779TIP3    H1 2301   5.689   3.963   3.494  0.8608  0.3016 -0.6807
  779TIP3    H2 2302   5.790   4.071   3.465 -0.1144  2.1889  2.4497
  780TIP3   OH2 2303   0.795   1.355   1.107 -0.0940 -0.2540 -0.0084
  780TIP3    H1 2304   0.854   1.404   1.164 -2.0492  0.0416  1.9001
  780TIP3    H2 2305   0.796   1.266   1.142  1.3588 -1.0206 -1.7911
  781TIP3   OH2 2306   6.431   4.877   5.181  0.2032  0.5806 -0.0420
  781TIP3    H1 2307   6.351   4.928   5.171  0.8763  2.0035  1.3000
  781TIP3    H2 2308   6.417   4.826   5.261  0.3645  0.2804 -0.2035
  782TIP3   OH2 2309   0.701   0.332   3.865 -0.2987 -0.5817  0.1219
  782TIP3    H1 2310   0.633   0.356   3.803  0.3047 -3.2459 -1.7597
  782TIP3    H2 2311   0.778   0.314   3.811  0.3207 -2.8588  1.5918
  783TIP3   OH2 2312   4.898   3.753   1.710  0.1638  0.3665  0.3971
  783TIP3    H1 2313   4.872   3.691   1.778 -0.6396 -1.2915 -1.3179
  783TIP3    H2 2314   4.932   3.698   1.640  2.7156  2.1256  0.1322
  784TIP3   OH2 2315   4.624   0.562   0.380 -0.2833 -0.4422  0.5390
  784TIP3    H1 2316   4.655   0.471   0.385 -1.7284 -0.9497  0.9207
  784TIP3    H2 2317   4.675   0.608   0.447 -0.2828 -1.2146  1.0881
  785TIP3   OH2 2318   3.025   1.399   2.829  0.0597  0.3888  0.0958
  785TIP3    H1 2319   3.119   1.386   2.812  0.0130 -0.8648  0.7430
  785TIP3    H2 2320   3.009   1.357   2.913 -1.2408 -0.0829 -0.3622
  786TIP3   OH2 2321   6.574   4.359   1.552 -0.3284 -0.1886 -0.2812
  786TIP3    H1 2322   6.562   4.372   1.646 -1.1486 -1.0119 -0.2502
  786TIP3    H2 2323   6.485   4.368   1.516  0.1119  1.0102 -1.0953
  787TIP3   OH2 2324   3.200   4.811   3.677  0.4212 -0.7582  0.2524
  787TIP3    H1 2325   3.244   4.884   3.721  2.0622 -1.9566  0.6752
  787TIP3    H2 2326   3.253   4.795   3.599 -0.3383 -1.0693 -0.2149
  788TIP3   OH2 2327   3.400   2.577   0.996  0.6198  0.2972  0.3402
  788TIP3    H1 2328   3.311   2.568   1.032 -0.6009 -1.7317 -2.7722
  788TIP3    H2 2329   3.403   2.667   0.963 -0.6017  0.1817 -0.1716
  789TIP3   OH2 2330   6.271   5.602   4.048 -0.4298  0.3904  0.4770
  789TIP3    H1 2331   6.338   5.588   4.114 -1.5197 -0.9276  1.3580
  789TIP3    H2 2332   6.280   5.695   4.023  0.8850  0.5472  1.4490
  790TIP3   OH2 2333   2.211   6.565   5.439 -0.1034  0.2294  0.5446
  790TIP3    H1 2334   2.220   6.648   5.486 -0.4457  0.6495 -0.1153
  790TIP3    H2 2335   2.118   6.545   5.444 -0.6990  1.7429 -2.3329
  791TIP3   OH2 2336   6.231   5.630   5.786  0.3967  0.3276 -0.3759
  791TIP3    H1 2337   6.207   5.666   5.871  0.3933 -1.9329  0.6663
  791TIP3    H2 2338   6.156   5.577   5.760 -0.0023  1.7210 -2.3001
  792TIP3   OH2 2339   1.356   2.499   0.501  0.5379 -0.4707 -0.1301
  792TIP3    H1 2340   1.335   2.588   0.471 -0.1217 -0.5286  0.1508
  792TIP3    H2 2341   1.282   2.446   0.473  1.3628 -1.1313 -1.1321
  793TIP3   OH2 2342   6.666   3.719   2.713 -0.2233  0.4151 -0.5515
  793TIP3    H1 2343   6.617   3.801   2.721 -0.9726 -0.0852  0.0875
  793TIP3    H2 2344   6.751   3.738   2.752 -0.1404  1.0882 -1.0442
  794TIP3   OH2 2345   0.795   3.984   5.609 -0.7075 -0.0689 -0.1480
  794TIP3    H1 2346   0.808   4.041   5.685 -3.2390 -1.5147  1.5096
  794TIP3    H2 2347   0.857   3.913   5.621  0.5057  0.8562 -0.7284
  795TIP3   OH2 2348   3.020   0.486   5.637  0.7402  0.1658  0.1128
  795TIP3    H1 2349   3.001   0.460   5.728  0.6745  0.8505  0.3023
  795TIP3    H2 2350   3.006   0.581   5.636  0.1571  0.0817 -0.7638
  796TIP3   OH2 2351   1.717   4.891   1.361 -0.2761 -0.5714 -0.4958
  796TIP3    H1 2352   1.767   4.816   1.329 -0.7328 -1.5309  0.9677
  796TIP3    H2 2353   1.728   4.889   1.456 -1.9867 -0.0199 -0.2506
  797TIP3   OH2 2354   6.032   5.194   5.379  0.1079 -0.0850 -0.6979
  797TIP3    H1 2355   6.063   5.110   5.412 -1.4235 -1.1909 -1.8784
  797TIP3    H2 2356   6.108   5.232   5.336  0.7035 -1.1286 -0.6110
  798TIP3   OH2 2357   0.034   1.615   5.367 -0.1390 -0.8001  0.1488
  798TIP3    H1 2358   0.126   1.617   5.342 -0.3497 -0.5450 -0.6174
  798TIP3    H2 2359   0.002   1.704   5.351 -0.7434 -1.1163 -0.4787
  799TIP3   OH2 2360   3.316   0.669   0.321 -0.0774  0.0814  0.1332
  799TIP3    H1 2361   3.281   0.757   0.310  1.6791  0.6321 -1.6914
  799TIP3    H2 2362   3.365   0.652   0.240  1.6576 -1.5967  1.4415
  800TIP3   OH2 2363   5.035   1.994   3.893 -0.8659 -0.1799 -0.8499
  800TIP3    H1 2364   4.984   2.068   3.925  1.6347  1.5704 -0.7089
  800TIP3    H2 2365   4.998   1.975   3.807 -1.9746  0.7832 -0.6042
  801TIP3   OH2 2366   3.971   6.266   0.424  0.0123  0.0238  0.0442
  801TIP3    H1 2367   4.025   6.235   0.351  0.5120 -0.6982  0.7101
  801TIP3    H2 2368   3.887   6.287   0.383 -0.1350 -1.5993 -0.5604
  802TIP3   OH2 2369   6.485   4.389   2.888  0.1862  0.7005 -0.2047
  802TIP3    H1 2370   6.400   4.366   2.924  0.5757  1.0786  0.9848
  802TIP3    H2 2371   6.471   4.471   2.841 -0.0369  0.9371  0.2736
  803TIP3   OH2 2372   2.917   0.383   5.206 -0.6345 -0.3277  0.6100
  803TIP3    H1 2373   2.840   0.416   5.159 -0.8469  0.6125  1.5792
  803TIP3    H2 2374   2.914   0.288   5.194 -0.9195 -0.1638 -0.8838
  804TIP3   OH2 2375   1.904   3.746   5.561  0.0688  0.6693  0.1477
  804TIP3    H1 2376   1.817   3.782   5.540  0.3352  1.0187 -0.3605
  804TIP3    H2 2377   1.885   3.661   5.601 -0.5053  0.7016 -0.0437
  805TIP3   OH2 2378   2.907   0.038   3.631  0.4092 -0.2313  0.4268
  805TIP3    H1 2379   2.819   0.074   3.643  1.5016  2.7245  0.3895
  805TIP3    H2 2380   2.938   0.021   3.720  0.2627 -0.0544  0.5129
  806TIP3   OH2 2381   2.876   1.017   5.489  0.1737  0.6622 -0.4605
  806TIP3    H1 2382   2.852   0.963   5.413  0.6061 -0.4694  0.1842
  806TIP3    H2 2383   2.817   0.987   5.558 -0.2428  1.7181 -0.3359
  807TIP3   OH2 2384   3.843   0.616   1.450  0.5092 -0.2267  0.5222
  807TIP3    H1 2385   3.804   0.540   1.408 -0.0353  0.8474 -1.0067
  807TIP3    H2 2386   3.937   0.606   1.438  0.3739 -0.0724 -0.7674
  808TIP3   OH2 2387   3.706   5.874   0.491 -0.1470  0.1450  0.1274
  808TIP3    H1 2388   3.621   5.838   0.514 -0.7132  2.3216  1.7422
  808TIP3    H2 2389   3.689   5.929   0.415  0.5760 -2.1295 -1.8349
  809TIP3   OH2 2390   5.366   4.617   2.979 -0.4728 -0.2244 -0.3602
  809TIP3    H1 2391   5.332   4.687   3.034 -2.5766 -2.0840  0.9017
  809TIP3    H2 2392   5.425   4.568   3.036  0.4588  0.1095 -1.0220
  810TIP3   OH2 2393   5.153   1.438   2.433 -0.2715 -0.3131  0.3115
  810TIP3    H1 2394   5.122   1.499   2.366  0.1985 -0.0300  0.3423
  810TIP3    H2 2395   5.194   1.367   2.383 -0.6536 -0.5116  0.2799
  811TIP3   OH2 2396   2.056   6.388   4.418  0.5474 -0.4437  0.6121
  811TIP3    H1 2397   2.133   6.342   4.451 -0.0571 -0.9815  1.3051
  811TIP3    H2 2398   2.001   6.319   4.380  0.9875  0.0939 -1.0982
  812TIP3   OH2 2399   5.431   4.579   0.546  0.4412 -0.3684 -0.0374
  812TIP3    H1 2400   5.422   4.553   0.638  1.9420  0.7615  0.4682
  812TIP3    H2 2401   5.435   4.496   0.499 -0.2607 -0.9670  0.9186
  813TIP3   OH2 2402   4.291   0.322   5.773  0.4258  0.1874  0.1221
  813TIP3    H1 2403   4.243   0.265   5.832  0.1571 -0.5615 -0.7898
  813TIP3    H2 2404   4.253   0.409   5.787 -1.4187 -0.4263 -0.7689
  814TIP3   OH2 2405   6.314   6.477   1.761  0.3920  0.5410  0.2293
  814TIP3    H1 2406   6.221   6.500   1.769 -0.2569 -1.6793 -0.0831
  814TIP3    H2 2407   6.344   6.471   1.852 -0.5612 -1.4220  0.4647
  815TIP3   OH2 2408   3.581   3.837   2.748 -0.0862 -0.6827 -0.4516
  815TIP3    H1 2409   3.592   3.773   2.819 -1.1041 -0.0999  0.2562
  815TIP3    H2 2410   3.611   3.920   2.786 -0.1348 -0.4636 -0.8832
  816TIP3   OH2 2411   0.415   6.590   3.138 -0.2078  0.2152  0.5080
  816TIP3    H1 2412   0.354   6.614   3.068 -2.6245 -1.6614  1.8178
  816TIP3    H2 2413   0.385   6.639   3.214  1.9146  1.6323  0.5151
  817TIP3   OH2 2414   7.152   1.632   3.063  0.5070  0.2476 -0.3581
  817TIP3    H1 2415   7.116   1.615   3.150  0.5147  1.8440 -0.0007
  817TIP3    H2 2416   7.130   1.554   3.012 -1.4469  0.1925  0.4744
  818TIP3   OH2 2417   5.509   6.760   2.111  0.4734  0.4680 -0.3398
  818TIP3    H1 2418   5.443   6.776   2.179 -0.5442  1.6596 -1.5409
  818TIP3    H2 2419   5.592   6.762   2.157 -0.3311 -2.4767  1.4698
  819TIP3   OH2 2420   1.322   3.473   1.174  0.3223  0.1612  0.4677
  819TIP3    H1 2421   1.267   3.396   1.185  1.6498 -0.5037  3.4292
  819TIP3    H2 2422   1.275   3.543   1.220  1.8727 -0.4351  3.1014
  820TIP3   OH2 2423   6.378   3.982   5.578 -0.0231  0.0003  0.7793
  820TIP3    H1 2424   6.452   3.941   5.533 -0.1766 -0.7877  1.2295
  820TIP3    H2 2425   6.343   3.914   5.635 -0.5316  0.6425  1.2590
  821TIP3   OH2 2426   6.823   1.014   3.349  0.6829 -0.0582  0.1650
  821TIP3    H1 2427   6.819   0.925   3.383  0.3382  0.0246  0.3479
  821TIP3    H2 2428   6.886   1.059   3.405 -1.0947  0.5358  1.8085
  822TIP3   OH2 2429   5.638   0.268   4.834  0.5258 -0.2914 -0.3784
  822TIP3    H1 2430   5.671   0.179   4.835  1.3527  0.0102 -0.4727
  822TIP3    H2 2431   5.556   0.264   4.883  0.9683 -0.9363  0.3111
  823TIP3   OH2 2432   5.682   5.324   5.311  0.2343 -0.7355 -0.7379
  823TIP3    H1 2433   5.723   5.281   5.236  0.0569  0.9019 -1.8288
  823TIP3    H2 2434   5.592   5.341   5.283 -0.7107 -2.6208  0.9433
  824TIP3   OH2 2435   5.444   5.045   4.945  0.8271 -0.4374  0.1924
  824TIP3    H1 2436   5.362   5.094   4.943 -0.0803 -1.8949  0.0619
  824TIP3    H2 2437   5.472   5.047   5.036  1.4285  1.2699 -0.0004
  825TIP3   OH2 2438   7.050   1.853   1.222 -0.2656  0.1361 -0.1152
  825TIP3    H1 2439   7.011   1.892   1.300 -0.8649 -0.8799  0.1216
  825TIP3    H2 2440   6.999   1.888   1.149 -0.9999 -0.4215  0.1179
  826TIP3   OH2 2441   6.685   3.390   5.577 -0.1215  0.6308  0.6506
  826TIP3    H1 2442   6.779   3.399   5.557 -0.0536  0.1366  0.7265
  826TIP3    H2 2443   6.683   3.344   5.661 -0.4439 -1.2432 -0.3375
  827TIP3   OH2 2444   7.143   6.505   0.529 -0.4929 -0.2656  0.0129
  827TIP3    H1 2445   7.113   6.564   0.599 -1.9128 -1.6515  0.6421
  827TIP3    H2 2446   7.230   6.538   0.505 -1.3197  2.2011  0.1535
  828TIP3   OH2 2447   4.051   0.769   2.009 -0.0605 -0.4140  0.2937
  828TIP3    H1 2448   4.073   0.767   1.916  0.3427 -1.5193  0.3921
  828TIP3    H2 2449   4.101   0.696   2.046 -0.3816 -0.1126  1.3399
  829TIP3   OH2 2450   6.773   1.971   5.825 -0.1210  0.1409  0.5635
  829TIP3    H1 2451   6.807   2.003   5.742 -1.2592  2.1800  0.8097
  829TIP3    H2 2452   6.680   1.957   5.809  0.1433 -2.3275  0.7410
  830TIP3   OH2 2453   5.542   6.243   0.049  0.8697 -0.1486  0.0644
  830TIP3    H1 2454   5.538   6.233  -0.046  0.1069 -0.0835  0.0857
  830TIP3    H2 2455   5.489   6.320   0.067 -0.3260 -1.0869  0.6788
  831TIP3   OH2 2456   3.300   2.535   0.658  1.1627 -0.0911  0.1876
  831TIP3    H1 2457   3.385   2.579   0.659  0.8522  0.5190  0.5730
  831TIP3    H2 2458   3.237   2.607   0.662  0.6491 -0.5952  1.2661
  832TIP3   OH2 2459   4.448   2.847   0.239  0.3102 -0.1770 -0.3747
  832TIP3    H1 2460   4.527   2.889   0.205  0.5820 -0.3779  0.0131
  832TIP3    H2 2461   4.433   2.774   0.179  0.5931 -0.3211 -0.2732
  833TIP3   OH2 2462   2.006   1.935   3.936  0.1635 -0.1895 -0.1337
  833TIP3    H1 2463   1.969   2.015   3.972 -2.5508 -1.3389 -0.1154
  833TIP3    H2 2464   2.073   1.908   3.999  0.1864  1.3307  0.5248
  834TIP3   OH2 2465   5.969   5.168   1.120 -0.5258  0.1047 -0.1336
  834TIP3    H1 2466   5.882   5.129   1.126  0.1708 -1.5643 -0.2414
  834TIP3    H2 2467   6.010   5.150   1.205  0.7900 -1.9991 -1.1098
  835TIP3   OH2 2468   0.890   2.616   4.064 -0.2889 -0.0139 -0.6190
  835TIP3    H1 2469   0.799   2.637   4.084 -0.1922 -0.1254 -0.0562
  835TIP3    H2 2470   0.886   2.530   4.022 -0.2382 -1.1422  1.5721
  836TIP3   OH2 2471   0.038   5.048   1.482 -0.5404 -0.0216  0.5842
  836TIP3    H1 2472   0.112   5.024   1.537  0.0534  0.2071 -0.0990
  836TIP3    H2 2473  -0.029   4.983   1.502  0.6730 -1.6976 -0.4862
  837TIP3   OH2 2474   2.253   4.361   1.111  0.2702 -0.3722  0.9669
  837TIP3    H1 2475   2.203   4.409   1.045 -1.4655 -2.3987  0.6819
  837TIP3    H2 2476   2.325   4.321   1.063 -1.0649 -1.9550  0.1787
  838TIP3   OH2 2477   3.826   5.061   2.334 -0.3417  0.0539  0.3506
  838TIP3    H1 2478   3.759   5.125   2.358 -0.3427 -0.0502  0.6279
  838TIP3    H2 2479   3.877   5.104   2.265 -1.4858 -0.3508 -0.7918
  839TIP3   OH2 2480   6.614   0.810   2.980 -0.2047  0.0402 -0.3729
  839TIP3    H1 2481   6.642   0.720   2.997  1.2432  0.6130  0.4235
  839TIP3    H2 2482   6.520   0.809   2.997  0.0110 -1.0171  0.9360
  840TIP3   OH2 2483   6.891   5.405   4.111 -0.0397  0.1407  0.3875
  840TIP3    H1 2484   6.825   5.450   4.057  0.3784  0.0154 -0.2371
  840TIP3    H2 2485   6.897   5.318   4.073  0.5121  0.1635  0.4222
  841TIP3   OH2 2486   0.052   3.872   0.854 -0.5516 -0.5376  0.0509
  841TIP3    H1 2487   0.030   3.787   0.893  1.0025 -1.4232 -0.9167
  841TIP3    H2 2488   0.045   3.858   0.760 -1.6053  0.8196 -0.0995
  842TIP3   OH2 2489   0.785   6.399   5.016 -0.3204  0.2223 -0.0553
  842TIP3    H1 2490   0.864   6.445   5.046 -1.0870  0.8103  1.1367
  842TIP3    H2 2491   0.790   6.313   5.057  0.7688 -0.5691 -1.7374
  843TIP3   OH2 2492   1.070   3.969   0.579  1.1595  1.1302  0.0695
  843TIP3    H1 2493   1.111   3.896   0.625  1.4415  0.7332 -0.7728
  843TIP3    H2 2494   0.981   3.974   0.614  0.5445 -0.7855 -1.1025
  844TIP3   OH2 2495   4.257   5.740   5.732  0.3900 -0.1595 -0.0784
  844TIP3    H1 2496   4.239   5.816   5.676  0.6491  0.7886  1.0794
  844TIP3    H2 2497   4.317   5.773   5.798  0.4071 -1.3585  0.5316
  845TIP3   OH2 2498   4.304   1.778   1.250 -0.2102  0.0898  0.0616
  845TIP3    H1 2499   4.383   1.761   1.198 -1.0752  0.9952 -1.6140
  845TIP3    H2 2500   4.251   1.699   1.239  1.1258 -1.3161  2.6576
  846TIP3   OH2 2501   3.589   4.932   0.300 -0.3672  0.3757  0.3511
  846TIP3    H1 2502   3.638   4.850   0.288 -0.9501  0.0085  0.4870
  846TIP3    H2 2503   3.657   4.996   0.321  0.1522  0.0323 -0.2236
  847TIP3   OH2 2504   4.424   2.823   2.556  0.2926 -0.0800 -0.4510
  847TIP3    H1 2505   4.425   2.839   2.462  1.3804  0.6242 -0.3443
  847TIP3    H2 2506   4.470   2.740   2.568 -1.1773 -0.9439 -0.6420
  848TIP3   OH2 2507   5.819   4.788   0.455  0.7710  0.2076  0.2963
  848TIP3    H1 2508   5.823   4.705   0.407 -0.0824 -0.2453  0.9977
  848TIP3    H2 2509   5.772   4.847   0.396  1.2489  0.1640 -0.1418
  849TIP3   OH2 2510   1.796   3.154   3.775 -0.1202 -0.0064 -0.2699
  849TIP3    H1 2511   1.816   3.220   3.841  0.9580 -0.2924 -0.2940
  849TIP3    H2 2512   1.776   3.204   3.696  0.4442  0.2995 -0.2217
  850TIP3   OH2 2513   3.804   4.999   4.308  0.7087 -0.5422 -0.2963
  850TIP3    H1 2514   3.807   4.910   4.274 -2.1940 -0.4580 -1.0267
  850TIP3    H2 2515   3.741   4.996   4.380  1.2392  0.7446  0.2595
  851TIP3   OH2 2516   2.653   4.815   3.401  0.4712 -0.2034 -0.0365
  851TIP3    H1 2517   2.572   4.850   3.364 -0.2373 -2.1068 -0.3919
  851TIP3    H2 2518   2.708   4.797   3.324  0.2174 -1.2633  0.0138
  852TIP3   OH2 2519   6.451   1.085   5.535  0.1114  0.2404 -0.0733
  852TIP3    H1 2520   6.387   1.086   5.464 -0.3076 -0.8646  0.2705
  852TIP3    H2 2521   6.470   1.177   5.551 -3.1141  0.7829  1.3421
  853TIP3   OH2 2522   4.264   3.199   2.386  0.2548  0.2147  0.5128
  853TIP3    H1 2523   4.303   3.144   2.455 -2.1198 -0.8768  1.0679
  853TIP3    H2 2524   4.268   3.288   2.421  0.0735 -0.1861  1.5810
  854TIP3   OH2 2525   6.336   4.289   0.405  0.4471 -0.1218 -0.6402
  854TIP3    H1 2526   6.410   4.349   0.395  2.5698 -2.2959  0.8208
  854TIP3    H2 2527   6.344   4.229   0.330 -0.1977 -0.0280 -0.7879
  855TIP3   OH2 2528   5.216   4.902   2.640 -0.1085 -0.6193  0.1484
  855TIP3    H1 2529   5.138   4.845   2.639 -2.1825  2.0295  0.3714
  855TIP3    H2 2530   5.212   4.946   2.725  3.7563 -2.8952  1.8002
  856TIP3   OH2 2531   4.517   4.544   1.289 -0.7439  0.3823  0.0458
  856TIP3    H1 2532   4.513   4.639   1.299 -0.1899  0.6078 -1.5276
  856TIP3    H2 2533   4.470   4.509   1.365 -1.0448  1.9091  0.5886
  857TIP3   OH2 2534   2.536   3.295   3.805 -0.0472  0.2150 -0.7238
  857TIP3    H1 2535   2.519   3.228   3.739 -0.6030  0.8845 -1.2643
  857TIP3    H2 2536   2.464   3.287   3.867  1.2772 -1.4793  0.7350
  858TIP3   OH2 2537   6.565   4.787   0.130  0.1920 -0.0582 -0.3392
  858TIP3    H1 2538   6.482   4.782   0.082 -0.1289 -0.7850  0.2674
  858TIP3    H2 2539   6.630   4.802   0.062 -0.2513 -1.1121 -1.0396
  859TIP3   OH2 2540   2.783   3.348   2.403  0.3065  0.4724 -0.3284
  859TIP3    H1 2541   2.838   3.343   2.325  0.7532 -0.7845  0.0424
  859TIP3    H2 2542   2.725   3.272   2.396  0.2250  0.4503  0.4718
  860TIP3   OH2 2543   4.772   5.793   4.184 -0.2988 -0.3885  0.2973
  860TIP3    H1 2544   4.804   5.705   4.166 -2.0125 -1.3993  1.8434
  860TIP3    H2 2545   4.677   5.786   4.179 -0.4535  1.5755 -0.3348
  861TIP3   OH2 2546   2.092   0.291   2.844  0.1324  0.2900 -0.1006
  861TIP3    H1 2547   2.149   0.335   2.781 -0.5737  0.5323 -0.5770
  861TIP3    H2 2548   2.117   0.199   2.840  2.4822  0.7253  1.7730
  862TIP3   OH2 2549   3.063   2.570   4.054 -0.2078  0.3532 -0.4598
  862TIP3    H1 2550   3.012   2.609   4.126  0.5097  0.8799 -0.2219
  862TIP3    H2 2551   3.087   2.483   4.086 -1.5552 -0.1962 -0.8656
  863TIP3   OH2 2552   2.511   6.398   1.517  0.6927  0.2569 -0.1378
  863TIP3    H1 2553   2.503   6.368   1.608 -0.4757 -1.1175 -0.6672
  863TIP3    H2 2554   2.539   6.320   1.469  1.5009  1.0256 -0.9406
  864TIP3   OH2 2555   0.827   4.450   0.534  0.2019 -0.3863  0.3774
  864TIP3    H1 2556   0.858   4.382   0.594  0.0653  0.3488  1.3019
  864TIP3    H2 2557   0.874   4.529   0.562  0.0926 -0.0212 -0.4589
  865TIP3   OH2 2558   2.309   1.450   4.923  0.2802  0.0839  0.0884
  865TIP3    H1 2559   2.304   1.411   4.836 -1.3221  1.3922 -0.4731
  865TIP3    H2 2560   2.239   1.407   4.973 -0.2576  0.8843  0.0374
  866TIP3   OH2 2561   4.833   5.564   1.787  0.0736 -0.4964  0.5095
  866TIP3    H1 2562   4.823   5.507   1.863  0.5427 -0.7104  0.4132
  866TIP3    H2 2563   4.842   5.652   1.825 -1.1504 -0.4073  0.6371
  867TIP3   OH2 2564   3.994   4.721   1.700  0.2369  0.3338 -0.7064
  867TIP3    H1 2565   3.948   4.712   1.616  0.3964 -0.1859 -0.7459
  867TIP3    H2 2566   3.972   4.642   1.748  1.3806 -0.1232 -0.8819
  868TIP3   OH2 2567   7.196   1.026   0.370 -0.3844 -0.4378  0.4959
  868TIP3    H1 2568   7.152   1.036   0.455 -0.8971 -0.9826  0.2974
  868TIP3    H2 2569   7.137   1.070   0.308 -0.2598 -0.4866  0.3440
  869TIP3   OH2 2570   4.621   1.883   4.342 -0.4194 -0.2264  0.0069
  869TIP3    H1 2571   4.579   1.848   4.420 -0.9396  1.0018  0.3004
  869TIP3    H2 2572   4.699   1.828   4.330 -1.6368 -2.0239 -0.0800
  870TIP3   OH2 2573   0.527   3.688   4.966 -0.0510  0.0739  0.6367
  870TIP3    H1 2574   0.542   3.641   4.884  0.4936  0.5557  0.4523
  870TIP3    H2 2575   0.503   3.620   5.029  0.1105 -0.3692  0.2232
  871TIP3   OH2 2576   3.819   4.550   0.643 -0.3535  0.1323  0.6958
  871TIP3    H1 2577   3.874   4.608   0.591 -2.6233  0.6614 -1.3223
  871TIP3    H2 2578   3.757   4.514   0.581 -0.8734 -2.2101  2.4428
  872TIP3   OH2 2579   3.933   1.068   4.686 -0.0533 -0.5297  0.2332
  872TIP3    H1 2580   3.939   0.985   4.734 -0.1402 -1.1582 -0.8160
  872TIP3    H2 2581   3.865   1.053   4.621  1.5520 -0.4467 -1.5371
  873TIP3   OH2 2582   2.922   3.977   1.254 -0.7214  0.3933  0.1929
  873TIP3    H1 2583   2.903   3.935   1.338  1.5657 -1.5379 -0.1508
  873TIP3    H2 2584   2.986   4.045   1.275 -0.8922  0.5635  0.1566
  874TIP3   OH2 2585   0.542   4.900   1.087  0.4281  0.0399 -0.5152
  874TIP3    H1 2586   0.494   4.966   1.037 -0.1276  2.1239  2.5125
  874TIP3    H2 2587   0.497   4.818   1.067 -1.7215  1.2594 -1.0310
  875TIP3   OH2 2588   1.806   1.460   0.555  0.4490  0.1218  0.1920
  875TIP3    H1 2589   1.797   1.486   0.646  1.0412  1.3507 -0.0837
  875TIP3    H2 2590   1.900   1.468   0.536  0.4051 -0.5979 -0.3879
  876TIP3   OH2 2591   7.098   5.937   1.960 -0.4703 -0.0824  0.0074
  876TIP3    H1 2592   7.134   6.007   1.906 -1.6144 -0.2054 -0.9705
  876TIP3    H2 2593   7.023   5.977   2.004 -0.1629 -0.2639  0.7011
  877TIP3   OH2 2594   4.096   1.365   5.285  0.2064  0.4700  0.2363
  877TIP3    H1 2595   4.040   1.439   5.260  1.1625  1.2272  0.2444
  877TIP3    H2 2596   4.150   1.348   5.208  1.4837  1.2257  0.9225
  878TIP3   OH2 2597   7.014   1.486   5.813  0.7943  0.4445 -0.4282
  878TIP3    H1 2598   7.006   1.504   5.906  0.4506  0.1997 -0.4050
  878TIP3    H2 2599   6.961   1.407   5.800  1.0790  0.3105 -0.7775
  879TIP3   OH2 2600   3.258   5.966   0.378  0.1822 -0.3486 -0.1995
  879TIP3    H1 2601   3.324   5.921   0.430  0.7598  0.5073 -0.1730
  879TIP3    H2 2602   3.304   6.041   0.340 -0.7481  0.2159 -0.2513
  880TIP3   OH2 2603   2.263   3.940   4.917 -0.2330 -0.2047 -0.1752
  880TIP3    H1 2604   2.201   3.870   4.938 -2.4766  2.5843  3.5231
  880TIP3    H2 2605   2.337   3.924   4.976 -0.0754 -0.2606 -0.3870
  881TIP3   OH2 2606   6.612   3.485   4.658  0.1480 -0.6093  0.0174
  881TIP3    H1 2607   6.653   3.543   4.593  1.6636  1.4933  2.6333
  881TIP3    H2 2608   6.541   3.537   4.695  1.1847 -0.5355  2.0396
  882TIP3   OH2 2609   6.950   5.938   1.718  0.4681  0.4343  0.6630
  882TIP3    H1 2610   6.922   6.005   1.655 -1.2498  0.5196  1.4637
  882TIP3    H2 2611   6.992   5.988   1.788  0.4856  0.5374  0.5809
  883TIP3   OH2 2612   0.087   5.366   5.447 -0.0170  0.2257  0.6055
  883TIP3    H1 2613   0.133   5.449   5.434 -0.3602  0.1571 -1.2663
  883TIP3    H2 2614   0.153   5.308   5.484  1.5119  0.1077 -2.0732
  884TIP3   OH2 2615   1.833   3.680   1.003  0.4416  0.3142 -0.1213
  884TIP3    H1 2616   1.919   3.664   1.040  0.4533 -0.8931 -0.6068
  884TIP3    H2 2617   1.772   3.659   1.074  0.4749 -1.6429 -0.6287
  885TIP3   OH2 2618   6.815   5.037   4.946 -0.3276  0.5340 -0.4005
  885TIP3    H1 2619   6.762   4.972   4.900 -0.6936 -0.4257  1.2830
  885TIP3    H2 2620   6.897   4.993   4.965  0.5465  1.5276 -1.6737
  886TIP3   OH2 2621   6.762   6.287   2.885 -0.0916  0.0494 -0.2379
  886TIP3    H1 2622   6.724   6.215   2.936  1.0658  0.5538  1.4247
  886TIP3    H2 2623   6.851   6.259   2.865 -0.1247  0.3967 -0.9132
  887TIP3   OH2 2624   0.980   2.992   3.039  0.0664 -0.3171 -0.1101
  887TIP3    H1 2625   1.060   2.999   3.090  0.3898 -1.8756 -0.3562
  887TIP3    H2 2626   0.924   2.933   3.090 -0.7469  0.3824 -0.1697
  888TIP3   OH2 2627   2.184   3.205   2.632  0.1764 -0.2599 -0.4997
  888TIP3    H1 2628   2.243   3.221   2.558 -1.0944  1.4654 -1.2040
  888TIP3    H2 2629   2.180   3.289   2.679 -0.8630 -0.6482  0.1519
  889TIP3   OH2 2630   4.821   6.787   3.597  0.0677 -0.0725  0.6891
  889TIP3    H1 2631   4.825   6.855   3.664  1.1525  1.2211 -0.6147
  889TIP3    H2 2632   4.874   6.715   3.633  0.1675  0.3671  1.4480
  890TIP3   OH2 2633   5.063   2.662   5.853 -0.4223  0.4599 -0.1202
  890TIP3    H1 2634   5.130   2.729   5.841 -0.1336  0.2588  0.3175
  890TIP3    H2 2635   5.106   2.580   5.829 -0.0735  0.1529  1.4090
  891TIP3   OH2 2636   6.691   4.781   3.422 -0.0337  0.1128  0.7602
  891TIP3    H1 2637   6.706   4.859   3.475 -0.1639  3.0551 -3.0770
  891TIP3    H2 2638   6.778   4.753   3.394 -0.0602 -0.4210  1.2013
  892TIP3   OH2 2639   4.790   3.773   3.563 -0.3621 -0.0253 -0.4986
  892TIP3    H1 2640   4.706   3.727   3.554  0.7326 -2.4853  1.0485
  892TIP3    H2 2641   4.825   3.776   3.474 -0.8399 -1.5244 -0.7671
  893TIP3   OH2 2642   0.590   3.741   0.132  0.4622 -0.0994  0.1147
  893TIP3    H1 2643   0.647   3.719   0.058 -0.3332  0.6264 -0.7494
  893TIP3    H2 2644   0.543   3.819   0.103 -1.4618 -1.0562  0.5167
  894TIP3   OH2 2645   6.010   3.893   3.614 -0.2304  0.3507 -1.0244
  894TIP3    H1 2646   5.921   3.921   3.592 -0.4087  0.8133  0.1887
  894TIP3    H2 2647   6.001   3.851   3.700  0.2376 -2.4139 -2.2197
  895TIP3   OH2 2648   4.211   2.364   0.426  0.4105  0.5448  0.0340
  895TIP3    H1 2649   4.187   2.297   0.363  0.0553  0.3858  0.3300
  895TIP3    H2 2650   4.191   2.325   0.511  1.3195  0.5804  0.2746
  896TIP3   OH2 2651   4.424   5.049   1.258 -0.2345 -0.3492  0.3335
  896TIP3    H1 2652   4.425   5.117   1.191 -1.3243 -1.2859 -0.6860
  896TIP3    H2 2653   4.441   5.095   1.340 -0.1786  1.0151 -0.4199
  897TIP3   OH2 2654   3.076   1.579   3.450  0.1949  0.3441 -0.8196
  897TIP3    H1 2655   3.073   1.580   3.545  0.9481 -2.9601 -0.6328
  897TIP3    H2 2656   2.985   1.568   3.422  0.1675 -0.8937 -0.3155
  898TIP3   OH2 2657   6.183   4.095   0.932 -0.0464  0.5887 -0.0444
  898TIP3    H1 2658   6.256   4.114   0.991  1.3421 -0.5402 -1.3442
  898TIP3    H2 2659   6.194   4.157   0.860 -0.5743  0.6143 -0.1101
  899TIP3   OH2 2660   6.454   5.451   0.253 -0.0448  0.0060 -0.3561
  899TIP3    H1 2661   6.537   5.404   0.255 -0.2865 -0.4398  1.8750
  899TIP3    H2 2662   6.391   5.390   0.293 -1.7055 -0.0446 -2.7876
  900TIP3   OH2 2663   2.984   4.279   4.484  0.0724  0.2312 -0.0716
  900TIP3    H1 2664   2.997   4.330   4.403  0.8780 -1.4841 -1.0733
  900TIP3    H2 2665   2.997   4.188   4.457 -0.2149 -0.4326  1.9011
  901TIP3   OH2 2666   5.032   3.970   0.181  0.3407 -0.2295 -0.2553
  901TIP3    H1 2667   5.000   3.944   0.094 -1.3159  1.6829 -0.2683
  901TIP3    H2 2668   5.128   3.966   0.172  0.2253  0.2756 -2.3042
  902TIP3   OH2 2669   2.599   5.786   2.691 -0.2107 -0.1383  0.0321
  902TIP3    H1 2670   2.518   5.790   2.640  0.2420  2.3847 -0.6333
  902TIP3    H2 2671   2.667   5.809   2.628  0.5973  1.0701  1.3001
  903TIP3   OH2 2672   2.752   2.828   5.537 -0.7516 -0.5093 -0.3435
  903TIP3    H1 2673   2.658   2.823   5.519 -0.7068  1.3630 -1.3759
  903TIP3    H2 2674   2.793   2.807   5.453 -0.3397  1.3499 -0.6371
  904TIP3   OH2 2675   6.677   6.510   1.895  0.2575 -0.6076 -0.3560
  904TIP3    H1 2676   6.747   6.472   1.948 -1.2953  1.8408  3.9474
  904TIP3    H2 2677   6.717   6.587   1.854  0.6990 -0.6927 -0.0923
  905TIP3   OH2 2678   6.086   0.004   3.611 -0.0844 -0.0825 -0.2005
  905TIP3    H1 2679   6.067   0.092   3.577  0.2959  0.3181  0.5930
  905TIP3    H2 2680   6.058   0.007   3.703  1.5062 -0.2248  0.3283
  906TIP3   OH2 2681   5.651   1.941   1.291  0.6450  0.0683  0.5099
  906TIP3    H1 2682   5.610   1.921   1.206  1.6770 -1.0869  0.2505
  906TIP3    H2 2683   5.709   2.014   1.272  0.8111 -0.1309  0.2288
  907TIP3   OH2 2684   1.966   1.701   1.852 -0.0015 -0.1320  0.3411
  907TIP3    H1 2685   1.934   1.614   1.879  0.1828 -0.3682 -0.1908
  907TIP3    H2 2686   2.032   1.724   1.918 -0.5760 -0.0658  0.9021
  908TIP3   OH2 2687   0.802   3.256   3.204  0.2280  0.0118 -0.4418
  908TIP3    H1 2688   0.776   3.249   3.112 -0.5297 -0.7970 -0.1806
  908TIP3    H2 2689   0.809   3.350   3.219 -2.7430  0.3351 -0.5232
  909TIP3   OH2 2690   1.338   0.257   4.342 -0.1935 -0.1533 -0.2533
  909TIP3    H1 2691   1.403   0.256   4.272  0.3555 -0.4285  0.2463
  909TIP3    H2 2692   1.365   0.187   4.401 -0.1605  0.6035  0.6642
  910TIP3   OH2 2693   2.222   0.041   0.249  0.1330 -0.0036 -0.2445
  910TIP3    H1 2694   2.304   0.032   0.297 -0.2001 -2.0486  0.0231
  910TIP3    H2 2695   2.207   0.135   0.245  1.9166  0.3654  0.6593
  911TIP3   OH2 2696   0.827   4.471   0.237 -0.0283 -0.2361 -0.5008
  911TIP3    H1 2697   0.896   4.419   0.193 -0.6882 -1.0825 -0.5617
  911TIP3    H2 2698   0.845   4.459   0.330 -0.1635 -0.5609 -0.5145
  912TIP3   OH2 2699   4.939   0.581   0.088  0.3313 -0.0516  0.3490
  912TIP3    H1 2700   4.885   0.508   0.119  0.1344 -0.3024 -0.5595
  912TIP3    H2 2701   4.994   0.603   0.164 -2.3660  1.5447  1.9873
  913TIP3   OH2 2702   6.911   5.642   1.190 -0.0923  0.0094  0.1521
  913TIP3    H1 2703   6.840   5.586   1.160  1.1486 -1.2715 -0.4870
  913TIP3    H2 2704   6.912   5.715   1.127 -0.1514 -0.5336 -0.4904
  914TIP3   OH2 2705   3.578   5.435   5.755  0.3617  0.1696 -0.6671
  914TIP3    H1 2706   3.530   5.413   5.834 -0.3640  1.1443 -0.8161
  914TIP3    H2 2707   3.665   5.398   5.768  0.8444  1.8523  1.3870
  915TIP3   OH2 2708   4.928   2.544   4.219  0.0799  0.5151 -0.3194
  915TIP3    H1 2709   4.853   2.593   4.184  0.1186  0.1686 -0.8797
  915TIP3    H2 2710   4.888   2.478   4.276  0.0666  1.8548  1.3038
  916TIP3   OH2 2711   5.418   3.253   0.498  0.3207 -0.3736  0.0077
  916TIP3    H1 2712   5.402   3.268   0.405 -0.6362 -0.7601  0.0959
  916TIP3    H2 2713   5.354   3.309   0.542  0.8664 -0.0849  0.4441
  917TIP3   OH2 2714   6.995   4.215   2.919 -0.2363 -0.4527 -0.3015
  917TIP3    H1 2715   6.972   4.180   2.833 -3.0244 -0.6761  0.4453
  917TIP3    H2 2716   7.058   4.152   2.954  0.3196 -0.7907 -1.8353
  918TIP3   OH2 2717   7.131   4.573   0.272 -0.3587 -0.0049 -0.0460
  918TIP3    H1 2718   7.206   4.524   0.238  1.1207  1.9706  0.1615
  918TIP3    H2 2719   7.062   4.508   0.281  0.3523 -1.3611 -3.1095
  919TIP3   OH2 2720   6.591   4.370   5.136 -0.0381 -0.4033  0.4819
  919TIP3    H1 2721   6.560   4.280   5.128 -0.8678 -0.0892  0.0646
  919TIP3    H2 2722   6.513   4.420   5.160  0.4664  0.1754  0.9620
  920TIP3   OH2 2723   0.413   6.299   0.109  0.1094  0.7011 -0.3034
  920TIP3    H1 2724   0.395   6.365   0.041  0.3358  2.1829  1.0030
  920TIP3    H2 2725   0.507   6.309   0.127  0.4032 -0.8076 -0.8748
  921TIP3   OH2 2726   6.669   0.960   3.709 -0.3710  0.5943 -0.1446
  921TIP3    H1 2727   6.720   0.907   3.647 -2.4749 -2.3276  0.4302
  921TIP3    H2 2728   6.590   0.983   3.661 -1.5798 -0.8654  1.0640
  922TIP3   OH2 2729   1.662   5.394   0.402  0.2377  0.1410 -1.0058
  922TIP3    H1 2730   1.727   5.465   0.401  1.5394 -0.9261  0.9893
  922TIP3    H2 2731   1.714   5.314   0.403 -1.1622 -0.7908 -0.9452
  923TIP3   OH2 2732   3.892   3.479   3.009 -0.1616 -0.0070 -0.6336
  923TIP3    H1 2733   3.890   3.400   3.064 -2.3023 -0.3685 -1.1464
  923TIP3    H2 2734   3.901   3.446   2.920  2.5976  0.5476 -0.6344
  924TIP3   OH2 2735   6.908   4.412   3.164 -0.4632 -0.6849 -0.7743
  924TIP3    H1 2736   6.973   4.416   3.094 -0.7964  1.6844 -1.0126
  924TIP3    H2 2737   6.960   4.426   3.244 -0.6263  1.2942 -0.9711
  925TIP3   OH2 2738   0.427   0.091   2.813  0.4098 -0.2673  0.4484
  925TIP3    H1 2739   0.359   0.064   2.875  0.5783  0.3408  0.9178
  925TIP3    H2 2740   0.474   0.160   2.859 -0.3974  1.2739 -0.9370
  926TIP3   OH2 2741   5.144   1.612   4.132 -0.0527 -0.5154 -0.7578
  926TIP3    H1 2742   5.050   1.624   4.145 -0.0633 -0.6223 -0.7309
  926TIP3    H2 2743   5.173   1.692   4.089  0.1593  0.3199  0.8394
  927TIP3   OH2 2744   1.111   5.778   0.530 -0.9036 -0.5538  0.1059
  927TIP3    H1 2745   1.049   5.841   0.567 -0.8629  0.7232 -1.8505
  927TIP3    H2 2746   1.063   5.696   0.526 -2.0547  0.1125 -0.2027
  928TIP3   OH2 2747   5.121   3.300   3.092  0.0681 -0.2636 -0.3026
  928TIP3    H1 2748   5.076   3.224   3.054 -0.0913 -0.1110 -0.4189
  928TIP3    H2 2749   5.076   3.315   3.175  0.3669 -0.5497 -0.0849
  929TIP3   OH2 2750   4.363   6.658   1.453 -0.0047 -0.8100 -0.2528
  929TIP3    H1 2751   4.307   6.727   1.419  1.0684  0.0297 -0.3960
  929TIP3    H2 2752   4.414   6.628   1.378  0.8635 -0.4297  0.1609
  930TIP3   OH2 2753   4.283   6.518   5.818  0.1997 -0.1451 -0.2711
  930TIP3    H1 2754   4.300   6.462   5.893 -0.3979  1.0991  0.8332
  930TIP3    H2 2755   4.370   6.551   5.794  0.2865  0.2185  0.5099
  931TIP3   OH2 2756   5.124   3.396   5.720  0.2004 -0.2644 -0.2718
  931TIP3    H1 2757   5.119   3.488   5.694  0.9628 -0.3646 -0.8089
  931TIP3    H2 2758   5.127   3.399   5.816  1.8646  0.3913 -0.3148
  932TIP3   OH2 2759   2.703   6.342   5.379  0.5339 -0.0474  0.2432
  932TIP3    H1 2760   2.743   6.425   5.354 -3.0691  1.5807 -0.8449
  932TIP3    H2 2761   2.696   6.294   5.297 -1.1413  0.4665  0.0357
  933TIP3   OH2 2762   5.920   5.705   5.250  0.0285 -0.5204  0.6929
  933TIP3    H1 2763   5.876   5.723   5.333  0.4453 -0.8066  0.9785
  933TIP3    H2 2764   5.851   5.669   5.194 -0.3625  0.1224  0.7515
  934TIP3   OH2 2765   3.658   0.815   4.117  0.4376  0.2371  0.0779
  934TIP3    H1 2766   3.632   0.907   4.113  0.6723  0.3203  0.4497
  934TIP3    H2 2767   3.753   0.817   4.120  0.4442 -0.0175  0.0662
  935TIP3   OH2 2768   2.482   4.494   1.848  0.4918  0.1457 -0.7546
  935TIP3    H1 2769   2.491   4.417   1.793 -2.2118 -1.0027  0.2512
  935TIP3    H2 2770   2.457   4.460   1.934 -1.6680  2.1075 -0.5110
  936TIP3   OH2 2771   3.768   0.085   1.366  0.1895 -0.1863 -0.2054
  936TIP3    H1 2772   3.697   0.022   1.355 -3.0605  2.9900  0.4693
  936TIP3    H2 2773   3.798   0.103   1.277 -1.9683  0.4853 -0.8594
  937TIP3   OH2 2774   0.938   5.945   2.683 -0.5454  0.3591 -0.2221
  937TIP3    H1 2775   0.897   6.032   2.686 -0.3962  0.4089  0.4254
  937TIP3    H2 2776   0.880   5.894   2.626 -0.5824  0.9051 -0.6839
  938TIP3   OH2 2777   3.337   3.935   5.139 -0.1476 -0.4166 -0.8340
  938TIP3    H1 2778   3.422   3.957   5.179 -1.0103 -0.2048  0.9686
  938TIP3    H2 2779   3.360   3.892   5.057  1.7610 -1.9538  0.4137
  939TIP3   OH2 2780   0.962   6.608   2.425 -0.3570 -0.0036  0.2795
  939TIP3    H1 2781   1.003   6.694   2.432  0.8585 -0.3779 -1.5873
  939TIP3    H2 2782   0.995   6.560   2.501  2.8997 -0.3120 -1.1738
  940TIP3   OH2 2783   2.710   1.422   0.003 -0.6701  0.5038  0.1627
  940TIP3    H1 2784   2.683   1.437   0.093  1.4226  1.3327  0.6941
  940TIP3    H2 2785   2.645   1.469  -0.050 -2.9024 -1.3423  1.0594
  941TIP3   OH2 2786   0.995   4.277   2.650 -0.3491  0.3316  0.0642
  941TIP3    H1 2787   1.044   4.215   2.704 -2.0492 -0.4218  0.8001
  941TIP3    H2 2788   0.994   4.237   2.563 -0.3771 -0.0578  0.2410
  942TIP3   OH2 2789   4.285   2.283   1.994  0.6818  0.1829  0.2107
  942TIP3    H1 2790   4.321   2.194   1.999 -0.2334 -0.1540  1.2880
  942TIP3    H2 2791   4.193   2.273   2.018  0.6184  1.4502  0.5773
  943TIP3   OH2 2792   0.649   1.010   4.729 -0.5256  0.1322  0.5488
  943TIP3    H1 2793   0.663   1.056   4.812 -0.0406  0.3055  0.3753
  943TIP3    H2 2794   0.665   1.077   4.662 -0.5187 -0.1071  0.3121
  944TIP3   OH2 2795   0.301   6.480   5.534 -0.4277 -0.2324 -0.1083
  944TIP3    H1 2796   0.296   6.384   5.526 -1.1828 -0.3645  1.4848
  944TIP3    H2 2797   0.378   6.504   5.483  1.1027 -1.9502  1.2238
  945TIP3   OH2 2798   5.219   5.689   0.918 -0.3220 -0.4402  0.0444
  945TIP3    H1 2799   5.260   5.691   1.005 -1.4463  0.3978  0.5827
  945TIP3    H2 2800   5.264   5.618   0.872  0.9391 -0.2989  0.9816
  946TIP3   OH2 2801   6.921   3.050   2.478  0.5139  0.3941 -0.5132
  946TIP3    H1 2802   6.925   3.030   2.572 -0.9084  0.2003 -0.4705
  946TIP3    H2 2803   6.828   3.042   2.456  1.0160 -1.2858 -2.3061
  947TIP3   OH2 2804   5.529   2.674   2.264  0.0834 -0.1274 -0.0849
  947TIP3    H1 2805   5.562   2.588   2.290  0.1642  0.2701  1.1859
  947TIP3    H2 2806   5.455   2.689   2.322 -0.6246  0.2002 -1.0433
  948TIP3   OH2 2807   4.942   1.051   5.125 -0.2462 -0.2639 -0.3627
  948TIP3    H1 2808   4.926   0.967   5.081  0.2746 -3.5792  4.8041
  948TIP3    H2 2809   4.858   1.076   5.162 -0.6459  2.3480 -2.6870
  949TIP3   OH2 2810   2.574   1.767   5.828 -0.3436 -0.4459 -0.1957
  949TIP3    H1 2811   2.613   1.701   5.772  0.7044  0.2826 -0.3546
  949TIP3    H2 2812   2.612   1.850   5.798 -1.7598  0.2557 -0.1281
  950TIP3   OH2 2813   1.376   3.461   0.709 -0.4624  0.1830  0.2816
  950TIP3    H1 2814   1.362   3.418   0.625  0.8546  1.4570 -0.6248
  950TIP3    H2 2815   1.454   3.419   0.745 -0.1311  0.6972  0.1579
  951TIP3   OH2 2816   3.054   4.680   3.877  0.0283  0.0994 -0.1133
  951TIP3    H1 2817   2.975   4.632   3.849  1.7000 -3.3565  0.5445
  951TIP3    H2 2818   3.109   4.683   3.798 -0.1074  1.1927 -0.1859
  952TIP3   OH2 2819   6.781   4.579   5.190  0.4669  0.3060 -0.5027
  952TIP3    H1 2820   6.725   4.539   5.123  1.0454  0.3884 -1.0543
  952TIP3    H2 2821   6.736   4.660   5.213 -0.8370 -0.7211  0.7961
  953TIP3   OH2 2822   2.995   4.440   0.697 -0.2752 -0.0923  0.0800
  953TIP3    H1 2823   2.996   4.386   0.618 -0.4777  1.7168 -1.1982
  953TIP3    H2 2824   3.081   4.482   0.698 -1.0915  1.6864 -0.5063
  954TIP3   OH2 2825   0.388   2.163   3.235  0.0522  0.1677  0.0407
  954TIP3    H1 2826   0.394   2.246   3.283 -1.0565  0.0751  0.3706
  954TIP3    H2 2827   0.479   2.135   3.225  0.4223  1.2359  0.2531
  955TIP3   OH2 2828   1.619   4.083   1.798 -0.2623  0.0187 -0.0417
  955TIP3    H1 2829   1.663   4.143   1.738  1.0649 -1.8940 -1.1306
  955TIP3    H2 2830   1.690   4.030   1.835 -1.3321 -0.7162  1.0488
  956TIP3   OH2 2831   7.020   4.085   0.892  0.0033 -0.4431  0.3860
  956TIP3    H1 2832   7.079   4.052   0.959 -0.6289 -2.3342  0.0501
  956TIP3    H2 2833   7.062   4.061   0.809 -0.5973 -0.6177  0.1291
  957TIP3   OH2 2834   6.379   5.534   2.588  0.0845 -0.0948  0.1877
  957TIP3    H1 2835   6.471   5.561   2.595  0.4456 -1.4271  1.0139
  957TIP3    H2 2836   6.367   5.513   2.495  0.6171  0.0732  0.0786
  958TIP3   OH2 2837   0.441   1.332   0.483 -0.3847  0.6469 -0.3243
  958TIP3    H1 2838   0.458   1.295   0.397 -0.7687  1.7529 -0.8976
  958TIP3    H2 2839   0.527   1.350   0.520 -0.2213  1.3716 -1.0308
  959TIP3   OH2 2840   5.993   6.267   2.107 -0.0837  0.1189 -0.5670
  959TIP3    H1 2841   5.966   6.314   2.186 -2.2832  0.2372 -1.3070
  959TIP3    H2 2842   5.933   6.193   2.102 -0.3773  0.4268 -2.4028
  960TIP3   OH2 2843   4.747   3.299   1.121 -0.6028 -0.2073 -0.2056
  960TIP3    H1 2844   4.702   3.344   1.049 -0.6164  0.7493  0.3801
  960TIP3    H2 2845   4.803   3.235   1.077 -1.4582 -0.4294 -1.0127
  961TIP3   OH2 2846   3.112   3.444   5.178 -0.3393  0.4812  0.7917
  961TIP3    H1 2847   3.081   3.534   5.183  1.8821  1.2822  1.6176
  961TIP3    H2 2848   3.197   3.451   5.134 -0.9822 -1.4913 -0.9168
  962TIP3   OH2 2849   4.957   0.859   3.697 -0.1003  0.1835  0.5968
  962TIP3    H1 2850   4.904   0.794   3.651  1.2443 -0.9790  0.6235
  962TIP3    H2 2851   4.927   0.855   3.788  0.8502 -1.4198  0.8889
  963TIP3   OH2 2852   3.303   1.932   1.215  0.2739  0.2634  0.2623
  963TIP3    H1 2853   3.310   1.937   1.119 -0.1810  0.1064  0.2164
  963TIP3    H2 2854   3.253   1.852   1.231  3.3658 -1.7183  0.7993
  964TIP3   OH2 2855   4.004   2.600   0.170 -1.0011 -0.0099  0.7338
  964TIP3    H1 2856   4.090   2.641   0.183 -0.0832 -1.2213 -1.0683
  964TIP3    H2 2857   3.964   2.600   0.257  0.3073  1.6834  1.3899
  965TIP3   OH2 2858   5.271   3.684   5.387  0.5199  0.5703 -0.2810
  965TIP3    H1 2859   5.225   3.757   5.345  0.8763  1.0857  0.1972
  965TIP3    H2 2860   5.285   3.620   5.317 -1.1723  0.2665 -0.3679
  966TIP3   OH2 2861   4.713   4.247   1.571 -0.1671  0.1038 -0.1636
  966TIP3    H1 2862   4.779   4.270   1.636  0.6482 -0.0540 -0.9101
  966TIP3    H2 2863   4.630   4.261   1.615  0.3511 -1.5612  1.4563
  967TIP3   OH2 2864   3.941   0.188   2.357 -0.0716 -0.2121 -0.2542
  967TIP3    H1 2865   3.898   0.104   2.368 -0.4803  0.1859  1.3901
  967TIP3    H2 2866   3.871   0.253   2.366  0.6331  0.3925  1.1150
  968TIP3   OH2 2867   0.901   3.692   2.785  0.3705 -0.1338 -0.5659
  968TIP3    H1 2868   0.812   3.688   2.752  0.6361  0.4309 -1.3929
  968TIP3    H2 2869   0.891   3.699   2.880 -0.4249 -1.1069 -0.5669
  969TIP3   OH2 2870   7.062   5.150   5.474 -0.3162 -0.3433 -0.5128
  969TIP3    H1 2871   7.074   5.123   5.383  0.8827 -2.6237  0.2349
  969TIP3    H2 2872   7.119   5.226   5.484  0.2621 -0.6369 -1.4492
  970TIP3   OH2 2873   3.294   4.309   4.385 -0.0343 -0.6080 -0.2150
  970TIP3    H1 2874   3.214   4.308   4.333  1.2533 -1.2938 -2.2860
  970TIP3    H2 2875   3.333   4.395   4.368  0.1004 -0.5981  0.1185
  971TIP3   OH2 2876   1.070   4.161   5.410  0.3600 -1.0456  0.3050
  971TIP3    H1 2877   1.055   4.160   5.504  0.0471  2.7425  0.4696
  971TIP3    H2 2878   1.163   4.144   5.400  0.0040 -3.7885  1.0293
  972TIP3   OH2 2879   1.702   2.677   4.105 -0.2472 -0.3788 -0.1285
  972TIP3    H1 2880   1.623   2.631   4.077 -1.0199  0.0925  1.1733
  972TIP3    H2 2881   1.672   2.735   4.176  1.3377 -0.4767  0.6624
  973TIP3   OH2 2882   4.411   4.758   2.708  0.0368  0.2587 -0.4063
  973TIP3    H1 2883   4.463   4.678   2.713  0.2656  0.2833 -1.9610
  973TIP3    H2 2884   4.438   4.799   2.626 -0.8598  1.3789 -0.1612
  974TIP3   OH2 2885   3.078   6.250   3.316 -0.4787 -0.0509 -0.7206
  974TIP3    H1 2886   3.149   6.305   3.284 -0.2627 -0.0668 -0.2720
  974TIP3    H2 2887   3.033   6.222   3.237  0.3476 -0.4907 -1.0509
  975TIP3   OH2 2888   1.258   2.993   3.130 -0.1026  0.3864  0.0239
  975TIP3    H1 2889   1.342   3.038   3.140  0.6433 -0.5466 -1.6253
  975TIP3    H2 2890   1.251   2.937   3.207 -0.2304  2.0151  1.2252
  976TIP3   OH2 2891   6.769   6.282   0.133 -0.1712  0.0895 -0.1623
  976TIP3    H1 2892   6.752   6.280   0.227  1.1182 -0.3368  0.0797
  976TIP3    H2 2893   6.688   6.250   0.093 -1.7414  2.7708  0.6280
  977TIP3   OH2 2894   2.917   3.941   5.394  0.4517  0.5019 -0.1140
  977TIP3    H1 2895   2.996   3.987   5.422  0.5915 -0.7770  1.8252
  977TIP3    H2 2896   2.929   3.852   5.427 -0.6771 -0.4026 -2.0353
  978TIP3   OH2 2897   2.435   2.598   1.300  0.2813 -0.6299 -0.1478
  978TIP3    H1 2898   2.364   2.629   1.245  0.0702  1.7259  1.2884
  978TIP3    H2 2899   2.501   2.566   1.239 -0.5490  0.4760 -1.6820
  979TIP3   OH2 2900   0.658   4.127   3.363  0.1417 -0.5847 -0.6616
  979TIP3    H1 2901   0.579   4.159   3.321  0.5309  0.4807 -0.6113
  979TIP3    H2 2902   0.730   4.172   3.318  0.7069 -1.3545 -0.5534
  980TIP3   OH2 2903   3.469   4.475   1.963 -0.2609  0.0981  0.1794
  980TIP3    H1 2904   3.392   4.446   2.010  1.1078 -3.3890  0.5317
  980TIP3    H2 2905   3.474   4.420   1.886  0.0226  2.6722 -1.7966
  981TIP3   OH2 2906   3.197   0.903   0.226  0.4456 -0.1730  0.3570
  981TIP3    H1 2907   3.241   0.966   0.168  0.2823 -1.9373 -1.8132
  981TIP3    H2 2908   3.104   0.917   0.210  0.4211 -1.3479 -0.6151
  982TIP3   OH2 2909   0.784   4.455   3.521  0.3619 -0.7152 -0.2557
  982TIP3    H1 2910   0.704   4.506   3.531 -0.4259 -1.8684 -0.4076
  982TIP3    H2 2911   0.791   4.439   3.426  0.5716 -0.9090 -0.2102
  983TIP3   OH2 2912   3.461   2.302   3.291 -0.1029 -0.4170 -0.7169
  983TIP3    H1 2913   3.395   2.331   3.228 -0.4058 -0.3902 -0.3895
  983TIP3    H2 2914   3.456   2.207   3.289 -1.4921 -0.4108  0.6916
  984TIP3   OH2 2915   5.694   1.508   0.133  0.1269 -0.3481 -0.6896
  984TIP3    H1 2916   5.661   1.586   0.177  1.2290 -0.4326  0.3451
  984TIP3    H2 2917   5.618   1.473   0.087 -0.7251  0.5504 -0.0287
  985TIP3   OH2 2918   4.771   5.920   4.773  0.4000  0.0927 -0.2003
  985TIP3    H1 2919   4.688   5.920   4.820 -0.3129 -2.3261 -1.3119
  985TIP3    H2 2920   4.814   5.838   4.798  1.0784 -0.1276 -1.9076
  986TIP3   OH2 2921   4.777   6.410   4.891 -0.0130 -0.3319  0.0923
  986TIP3    H1 2922   4.857   6.370   4.856  0.0604 -1.0942  1.0601
  986TIP3    H2 2923   4.789   6.503   4.877  0.0780 -0.5875 -1.7116
  987TIP3   OH2 2924   4.372   6.763   2.173 -0.1783  0.0369  0.1760
  987TIP3    H1 2925   4.322   6.688   2.141  0.7132  0.6590 -3.0439
  987TIP3    H2 2926   4.444   6.725   2.224  0.2081 -1.3269 -1.3306
  988TIP3   OH2 2927   3.480   0.913   3.151  0.4249  0.1256  0.0386
  988TIP3    H1 2928   3.542   0.942   3.218 -0.6238  0.5605  0.8390
  988TIP3    H2 2929   3.433   0.992   3.125  0.2483 -0.1839 -0.6275
  989TIP3   OH2 2930   1.462   1.214   2.296 -0.4637  0.0637  0.4245
  989TIP3    H1 2931   1.478   1.283   2.361  0.3708 -0.3954  0.7286
  989TIP3    H2 2932   1.491   1.252   2.213 -0.3784  0.2177  0.5252
  990TIP3   OH2 2933   0.130   2.890   4.447 -0.4010  0.0771 -0.5700
  990TIP3    H1 2934   0.119   2.980   4.417 -1.5508 -0.0614 -0.5995
  990TIP3    H2 2935   0.225   2.880   4.459 -0.2401  1.2025 -0.8125
  991TIP3   OH2 2936   1.679   2.022   3.281  0.1487 -0.8992 -0.2935
  991TIP3    H1 2937   1.726   1.938   3.273 -1.0105 -1.4975 -1.0745
  991TIP3    H2 2938   1.590   2.002   3.251 -0.2564  0.5232 -0.0745
  992TIP3   OH2 2939   2.551   2.616   4.347 -0.1199  0.4293  0.2425
  992TIP3    H1 2940   2.580   2.578   4.431 -0.3440 -0.5522 -0.1077
  992TIP3    H2 2941   2.486   2.681   4.372  2.1061  2.5128  1.0398
  993TIP3   OH2 2942   5.783   4.724   4.025 -0.2413 -0.1356 -0.4033
  993TIP3    H1 2943   5.770   4.696   3.935 -1.9878 -0.9531  0.0519
  993TIP3    H2 2944   5.876   4.744   4.031 -0.0266 -0.3836 -2.2826
  994TIP3   OH2 2945   4.307   2.543   4.252 -0.0708 -0.4890  0.1132
  994TIP3    H1 2946   4.263   2.629   4.246  1.0540  0.1699  1.0138
  994TIP3    H2 2947   4.270   2.502   4.330  0.6093 -0.0868  0.6618
  995TIP3   OH2 2948   0.239   1.209   2.821  0.0091  0.1448 -0.1445
  995TIP3    H1 2949   0.288   1.260   2.885  1.3976  0.0820 -1.1273
  995TIP3    H2 2950   0.153   1.251   2.818 -0.1681  0.0505  1.8646
  996TIP3   OH2 2951   2.155   3.972   2.604  0.3504 -0.0907 -0.3194
  996TIP3    H1 2952   2.185   3.929   2.685 -0.6058 -1.4502 -0.6515
  996TIP3    H2 2953   2.211   3.935   2.536 -0.6433 -1.0536 -0.6429
  997TIP3   OH2 2954   6.950   2.954   1.768 -0.1654  0.1610 -0.3142
  997TIP3    H1 2955   6.862   2.935   1.736 -0.3851 -1.1624  0.9682
  997TIP3    H2 2956   6.936   3.002   1.850  0.2618 -0.7808  0.3325
  998TIP3   OH2 2957   1.314   1.910   3.359 -0.4636  0.0975  0.0123
  998TIP3    H1 2958   1.233   1.864   3.380 -1.1158  0.0422 -2.2527
  998TIP3    H2 2959   1.336   1.881   3.270  1.7570  0.5379  0.3504
  999TIP3   OH2 2960   3.555   2.541   2.227  0.1907  0.1470  0.1251
  999TIP3    H1 2961   3.552   2.446   2.224  0.0844  0.0998  1.3105
  999TIP3    H2 2962   3.464   2.568   2.229  0.1832  0.1197  2.8568
 1000TIP3   OH2 2963   6.080   1.691   1.178 -0.2097 -0.2383  0.1424
 1000TIP3    H1 2964   6.039   1.604   1.179  0.2812 -0.5000 -1.1827
 1000TIP3    H2 2965   6.020   1.746   1.229 -1.7929 -0.8004 -1.0420
 1001TIP3   OH2 2966   4.054   6.534   5.200  0.2425  0.3814 -0.9076
 1001TIP3    H1 2967   4.081   6.444   5.216 -0.5146  0.0145 -1.6135
 1001TIP3    H2 2968   4.106   6.586   5.261 -0.0006 -0.6208  0.1927
 1002TIP3   OH2 2969   5.452   2.643   1.078 -0.0544  0.3756 -0.1980
 1002TIP3    H1 2970   5.395   2.570   1.054 -0.9271 -0.0014  2.6982
 1002TIP3    H2 2971   5.538   2.603   1.091 -0.7744 -0.4689  2.5383
 1003TIP3   OH2 2972   5.497   6.097   5.499  0.3736  0.6032  0.1691
 1003TIP3    H1 2973   5.475   6.043   5.423 -2.5477  1.8130  0.0338
 1003TIP3    H2 2974   5.476   6.042   5.574  0.4180  0.4534  0.0723
 1004TIP3   OH2 2975   5.391   1.473   3.818  0.2160  0.5707 -0.3013
 1004TIP3    H1 2976   5.311   1.459   3.766 -0.1231  0.5485  0.2200
 1004TIP3    H2 2977   5.407   1.567   3.812 -1.3703  1.0593  1.7380
 1005TIP3   OH2 2978   3.850   6.625   5.003 -0.0357  0.6955  0.6533
 1005TIP3    H1 2979   3.784   6.658   5.064  0.7512 -1.1602  2.6253
 1005TIP3    H2 2980   3.933   6.635   5.050  0.6453 -0.3839 -0.2696
 1006TIP3   OH2 2981   6.232   4.938   4.186  0.1737  0.0210  0.7993
 1006TIP3    H1 2982   6.142   4.932   4.217  0.4419 -1.1079  1.4217
 1006TIP3    H2 2983   6.236   5.020   4.137 -1.4846 -0.4711 -0.2116
 1007TIP3   OH2 2984   4.245   0.294   4.804  0.3263 -0.1616  0.4039
 1007TIP3    H1 2985   4.321   0.248   4.841 -0.9635 -0.8718  2.2893
 1007TIP3    H2 2986   4.169   0.253   4.846 -1.1033  0.7367 -1.2074
 1008TIP3   OH2 2987   3.613   1.583   1.709  0.6029  0.3561  0.0739
 1008TIP3    H1 2988   3.585   1.595   1.800  1.6423 -0.3043  0.5068
 1008TIP3    H2 2989   3.681   1.650   1.696  0.4498  0.4553 -0.2261
 1009TIP3   OH2 2990   0.952   1.117   3.490  0.0908 -0.0602 -0.4485
 1009TIP3    H1 2991   1.003   1.120   3.571 -0.0987  1.7382 -0.3380
 1009TIP3    H2 2992   0.877   1.174   3.507  0.5808  1.2060 -2.2152
 1010TIP3   OH2 2993   6.227   0.504   1.856  0.4100  0.6953  0.2933
 1010TIP3    H1 2994   6.226   0.465   1.944 -0.3284  1.0057  0.4227
 1010TIP3    H2 2995   6.139   0.538   1.843  0.4267  0.4004 -0.6863
 1011TIP3   OH2 2996   7.167   1.278   0.506 -0.3716 -0.1157  0.3102
 1011TIP3    H1 2997   7.199   1.241   0.588  0.9498 -0.4007 -0.3021
 1011TIP3    H2 2998   7.246   1.309   0.462 -0.5993 -2.6175 -2.1705
 1012TIP3   OH2 2999   3.962   0.815   4.784 -0.4165 -0.0125  0.2594
 1012TIP3    H1 3000   4.057   0.804   4.788 -0.3413  0.0788 -0.9379
 1012TIP3    H2 3001   3.933   0.746   4.723 -1.1905 -0.4187  1.0655
 1013TIP3   OH2 3002   3.701   6.344   4.832 -0.6680  0.3949 -0.3520
 1013TIP3    H1 3003   3.636   6.410   4.859 -1.0508 -0.0392 -0.1928
 1013TIP3    H2 3004   3.649   6.277   4.787 -0.1563  0.6467 -1.3319
 1014TIP3   OH2 3005   3.750   2.802   4.930 -0.2621  0.4096 -0.3521
 1014TIP3    H1 3006   3.700   2.796   5.011 -0.1460  1.1177 -0.2206
 1014TIP3    H2 3007   3.700   2.752   4.866 -2.1347  2.5810 -0.7045
 1015TIP3   OH2 3008   1.019   6.255   2.494 -0.5224 -0.4221 -0.1900
 1015TIP3    H1 3009   1.080   6.327   2.480  0.5427 -1.4370 -0.9155
 1015TIP3    H2 3010   1.005   6.217   2.407 -2.0056 -0.3746 -0.0083
 1016TIP3   OH2 3011   4.900   5.369   3.164  0.2445 -0.1401  0.1997
 1016TIP3    H1 3012   4.932   5.381   3.253  0.0710 -0.8930  0.3661
 1016TIP3    H2 3013   4.889   5.275   3.154  1.0619 -0.1364 -0.8962
 1017TIP3   OH2 3014   1.014   5.699   2.526  0.0668 -1.0672  0.3414
 1017TIP3    H1 3015   1.040   5.704   2.434 -0.1248 -1.1921  0.2824
 1017TIP3    H2 3016   1.069   5.765   2.569 -1.5925  0.7699 -0.2559
 1018TIP3   OH2 3017   4.384   5.874   0.255  0.5093 -0.0040  0.0641
 1018TIP3    H1 3018   4.382   5.783   0.284  2.1292 -0.2614 -0.5817
 1018TIP3    H2 3019   4.325   5.919   0.316 -1.1635 -1.6274 -0.2473
 1019TIP3   OH2 3020   1.953   3.194   4.125 -0.4148 -0.7842 -0.2223
 1019TIP3    H1 3021   1.959   3.207   4.031  0.8557 -2.2143 -0.3746
 1019TIP3    H2 3022   1.862   3.169   4.140  0.1358 -4.2045 -1.6597
 1020TIP3   OH2 3023   4.655   5.501   5.542  0.2937 -0.2330  0.4561
 1020TIP3    H1 3024   4.674   5.410   5.519 -1.4958 -0.0569 -2.2031
 1020TIP3    H2 3025   4.561   5.501   5.560  0.2587  1.1166  0.3463
 1021TIP3   OH2 3026   0.951   3.911   3.925 -0.8380  0.4033  0.1626
 1021TIP3    H1 3027   0.998   3.945   4.001 -2.2503  1.2728  0.6939
 1021TIP3    H2 3028   0.902   3.986   3.892 -2.4353 -0.6021  0.1155
 1022TIP3   OH2 3029   3.811   5.262   5.786  0.5371 -0.4659 -0.1130
 1022TIP3    H1 3030   3.810   5.168   5.772  0.8875 -0.7315  1.4672
 1022TIP3    H2 3031   3.848   5.273   5.874 -0.7953  1.0531  0.3130
 1023TIP3   OH2 3032   5.780   2.021   4.580 -0.4265 -0.2549  0.0435
 1023TIP3    H1 3033   5.759   1.929   4.598 -2.4342 -0.1234 -1.3650
 1023TIP3    H2 3034   5.784   2.026   4.484 -3.1764  1.6340 -0.0655
 1024TIP3   OH2 3035   5.128   5.042   0.495 -0.5743  0.0893 -0.4685
 1024TIP3    H1 3036   5.219   5.029   0.520 -1.0843  0.0882  1.5569
 1024TIP3    H2 3037   5.112   4.977   0.427  0.1731 -1.8572  1.1469
 1025TIP3   OH2 3038   1.415   2.303   4.859 -0.3683  0.2189  0.3596
 1025TIP3    H1 3039   1.410   2.342   4.946  0.1618 -1.7484  1.3298
 1025TIP3    H2 3040   1.360   2.224   4.865  1.1737 -0.9696 -0.4654
 1026TIP3   OH2 3041   1.088   5.602   0.811 -0.2419  0.7333  0.4740
 1026TIP3    H1 3042   1.147   5.553   0.870 -0.1081 -0.6412 -0.7363
 1026TIP3    H2 3043   1.008   5.550   0.810  0.0193  0.3037 -1.0987
 1027TIP3   OH2 3044   5.289   4.400   5.457 -0.0688  0.0868 -0.0303
 1027TIP3    H1 3045   5.204   4.368   5.489 -1.3445  0.2459 -2.8810
 1027TIP3    H2 3046   5.345   4.323   5.456 -0.4473 -0.2193  1.0692
 1028TIP3   OH2 3047   4.723   1.802   2.653  0.1390 -0.0636 -0.4931
 1028TIP3    H1 3048   4.693   1.860   2.583 -0.1203 -1.0724 -1.2246
 1028TIP3    H2 3049   4.643   1.768   2.693  0.2682  0.8468  0.6208
 1029TIP3   OH2 3050   3.562   2.612   0.061 -0.0039 -0.0016  0.5936
 1029TIP3    H1 3051   3.640   2.558   0.077  0.2895  0.8157  2.0815
 1029TIP3    H2 3052   3.560   2.673   0.134 -2.1628 -0.1278  0.6901
 1030TIP3   OH2 3053   0.564   2.756   3.676 -0.5632 -0.6475  0.5903
 1030TIP3    H1 3054   0.518   2.790   3.753 -2.5507 -0.8776 -0.4441
 1030TIP3    H2 3055   0.607   2.833   3.638 -1.7390 -0.0216  0.4798
 1031TIP3   OH2 3056   2.879   5.595   1.651 -0.1472  0.0507  0.1991
 1031TIP3    H1 3057   2.920   5.610   1.565 -0.9179 -1.6249 -0.4993
 1031TIP3    H2 3058   2.948   5.555   1.704 -0.1431 -0.4817 -0.1967
 1032TIP3   OH2 3059   3.877   6.168   0.127  1.2015 -0.1117  0.1347
 1032TIP3    H1 3060   3.832   6.170   0.043 -0.1214 -1.2972  0.7709
 1032TIP3    H2 3061   3.826   6.225   0.184  0.6061 -1.2533  0.7892
 1033TIP3   OH2 3062   6.228   6.188   4.385 -0.5403  0.2273  0.0514
 1033TIP3    H1 3063   6.229   6.113   4.443 -1.8355 -0.7820 -1.1445
 1033TIP3    H2 3064   6.315   6.227   4.393  0.3398 -1.7006  0.3360
 1034TIP3   OH2 3065   6.881   4.119   2.677 -0.1218  0.3281  0.2437
 1034TIP3    H1 3066   6.789   4.144   2.669 -0.6539 -1.7406 -0.7045
 1034TIP3    H2 3067   6.919   4.142   2.592 -0.0038  0.2740  0.2822
 1035TIP3   OH2 3068   2.213   2.504   4.279  0.5349  0.0200  0.1634
 1035TIP3    H1 3069   2.211   2.510   4.375 -0.2185 -0.6011  0.2019
 1035TIP3    H2 3070   2.131   2.544   4.251  1.7401  2.2836 -0.3911
 1036TIP3   OH2 3071   2.664   0.501   3.468 -0.4162 -0.3210  0.0862
 1036TIP3    H1 3072   2.644   0.574   3.410 -1.1899 -0.9065 -0.3980
 1036TIP3    H2 3073   2.634   0.530   3.554 -0.2087  0.1406  0.0088
 1037TIP3   OH2 3074   1.618   6.692   2.630 -0.2810  0.6956  0.0122
 1037TIP3    H1 3075   1.555   6.626   2.599 -1.0635  0.4402  2.0507
 1037TIP3    H2 3076   1.694   6.641   2.657 -0.9109  0.5634  1.6509
 1038TIP3   OH2 3077   0.463   0.416   3.709 -0.5947  0.4551  0.2825
 1038TIP3    H1 3078   0.398   0.403   3.778 -0.1948 -1.4912  0.3632
 1038TIP3    H2 3079   0.459   0.335   3.657 -0.6789  1.7345 -1.8390
 1039TIP3   OH2 3080   6.662   3.580   1.466  0.0579 -0.3630  0.4074
 1039TIP3    H1 3081   6.682   3.625   1.547 -0.2535 -1.4383  1.1107
 1039TIP3    H2 3082   6.725   3.613   1.402 -2.0035  3.3127  0.0228
 1040TIP3   OH2 3083   4.286   5.660   1.880 -0.3835 -0.1395  0.3328
 1040TIP3    H1 3084   4.256   5.728   1.941 -0.3556  0.2138 -0.0463
 1040TIP3    H2 3085   4.219   5.657   1.812 -1.2372 -1.6277  1.1655
 1041TIP3   OH2 3086   4.872   3.076   3.997 -0.4859  0.4746 -0.6514
 1041TIP3    H1 3087   4.894   3.143   4.062 -0.3506 -0.0991 -0.0958
 1041TIP3    H2 3088   4.957   3.038   3.973 -0.6845 -0.4803  0.1126
 1042TIP3   OH2 3089   5.988   6.242   3.132  0.3796  0.4654  0.7168
 1042TIP3    H1 3090   5.954   6.190   3.204  0.9299  0.8433  1.2497
 1042TIP3    H2 3091   6.038   6.312   3.173  1.5132  0.1376 -0.0469
 1043TIP3   OH2 3092   4.750   6.587   2.096  0.0599  0.6151 -0.0098
 1043TIP3    H1 3093   4.801   6.652   2.145  0.7057  0.6550 -0.7056
 1043TIP3    H2 3094   4.677   6.564   2.154  0.3828  1.2168  0.6490
 1044TIP3   OH2 3095   5.500   5.491   4.761 -0.2954  0.1852 -0.1823
 1044TIP3    H1 3096   5.438   5.439   4.710 -0.8927 -0.0715  0.7813
 1044TIP3    H2 3097   5.513   5.571   4.710 -2.4326  0.8352  0.2085
 1045TIP3   OH2 3098   0.349   2.573   2.217 -0.1317  0.1202 -0.0839
 1045TIP3    H1 3099   0.269   2.552   2.170 -0.2781  1.4919 -0.4967
 1045TIP3    H2 3100   0.334   2.660   2.254  0.0948 -0.7532  2.2887
 1046TIP3   OH2 3101   1.843   5.116   4.885 -0.0502  0.3306 -0.1724
 1046TIP3    H1 3102   1.758   5.137   4.923 -0.3043 -0.7168 -0.1362
 1046TIP3    H2 3103   1.826   5.043   4.825  0.4031  1.7077 -2.0754
 1047TIP3   OH2 3104   6.294   0.924   2.697  0.4097 -0.1867  0.5945
 1047TIP3    H1 3105   6.306   0.983   2.772 -2.5205  0.5182  0.6386
 1047TIP3    H2 3106   6.200   0.903   2.698  0.3851 -0.6685 -2.5166
 1048TIP3   OH2 3107   1.246   4.110   1.486 -0.3403  0.0168 -0.3170
 1048TIP3    H1 3108   1.319   4.051   1.503 -0.6313 -0.2108  0.1554
 1048TIP3    H2 3109   1.198   4.068   1.414 -1.0087 -0.7625  0.5496
 1049TIP3   OH2 3110   4.437   4.775   1.436  0.5691  0.0569  0.1290
 1049TIP3    H1 3111   4.479   4.807   1.516 -0.8117  0.6669  0.6437
 1049TIP3    H2 3112   4.441   4.849   1.375 -1.1134  0.7074  0.7355
 1050TIP3   OH2 3113   3.650   4.093   0.259  0.2131  0.3527 -0.0146
 1050TIP3    H1 3114   3.716   4.097   0.328 -0.4289  0.9837  0.5776
 1050TIP3    H2 3115   3.672   4.167   0.202  0.4080  0.1641 -0.1883
 1051TIP3   OH2 3116   3.064   5.249   4.121 -0.0681  0.8307  0.1024
 1051TIP3    H1 3117   3.070   5.344   4.133  0.3224  1.2185 -2.5095
 1051TIP3    H2 3118   3.013   5.219   4.195 -1.9002  3.3751  0.0179
 1052TIP3   OH2 3119   1.244   5.306   5.650  0.0830 -0.5789 -0.6831
 1052TIP3    H1 3120   1.199   5.237   5.699 -1.3703  0.8814  0.1359
 1052TIP3    H2 3121   1.269   5.370   5.717  0.9905 -0.0755 -1.4803
 1053TIP3   OH2 3122   6.992   5.265   4.600 -0.0759 -0.5737 -0.3305
 1053TIP3    H1 3123   7.016   5.358   4.602 -0.2598 -0.5363  0.7581
 1053TIP3    H2 3124   6.954   5.252   4.513 -2.9022  1.1189  0.5253
 1054TIP3   OH2 3125   3.895   1.707   2.107 -0.4925 -0.4552 -0.3480
 1054TIP3    H1 3126   3.957   1.778   2.118 -3.0976  1.9943 -0.4893
 1054TIP3    H2 3127   3.918   1.668   2.022  2.3969 -1.4495  0.7518
 1055TIP3   OH2 3128   5.991   5.960   5.325  0.3930  0.3197 -0.6138
 1055TIP3    H1 3129   6.079   5.979   5.292  0.9632 -0.2906  0.4964
 1055TIP3    H2 3130   5.966   5.879   5.280  0.7864 -0.0089 -0.2501
 1056TIP3   OH2 3131   1.715   6.059   0.694 -0.4442  0.4166  0.0871
 1056TIP3    H1 3132   1.658   6.073   0.770 -1.3021  0.5245 -0.5673
 1056TIP3    H2 3133   1.682   5.979   0.653  0.1441  0.2458 -0.0692
 1057TIP3   OH2 3134   6.211   0.341   5.539  1.1215 -0.5160 -0.4233
 1057TIP3    H1 3135   6.259   0.415   5.576  0.7310 -0.3938 -0.1545
 1057TIP3    H2 3136   6.230   0.344   5.446  2.5774 -1.1610 -0.1756
 1058TIP3   OH2 3137   7.156   4.459   1.653  0.6279 -0.2304 -0.1857
 1058TIP3    H1 3138   7.093   4.409   1.706  1.6397 -1.3793 -0.0207
 1058TIP3    H2 3139   7.116   4.463   1.566  0.8996 -2.1534 -0.4520
 1059TIP3   OH2 3140   4.107   1.314   1.762  0.2187 -0.3540 -0.1633
 1059TIP3    H1 3141   4.179   1.252   1.772  0.9961  0.6540  0.7073
 1059TIP3    H2 3142   4.090   1.316   1.667  1.6282 -0.3086 -0.4415
 1060TIP3   OH2 3143   4.315   1.409   3.213  0.4826  0.5203  0.3082
 1060TIP3    H1 3144   4.266   1.464   3.275  2.0474 -1.0904  3.1655
 1060TIP3    H2 3145   4.399   1.393   3.256  2.0359 -0.0238 -2.6824
 1061TIP3   OH2 3146   0.556   4.364   5.141  0.1199 -0.6777  0.8649
 1061TIP3    H1 3147   0.621   4.401   5.200 -0.4143  1.0520  0.4296
 1061TIP3    H2 3148   0.492   4.434   5.129 -0.7446 -1.6276 -0.3303
 1062TIP3   OH2 3149   4.532   4.667   3.561 -0.5890 -0.1590  0.8655
 1062TIP3    H1 3150   4.585   4.662   3.482 -0.8179 -0.8427  0.7455
 1062TIP3    H2 3151   4.463   4.602   3.548  0.1796 -1.3045  2.2039
 1063TIP3   OH2 3152   0.885   4.265   4.508 -0.2662  0.1028  0.1448
 1063TIP3    H1 3153   0.884   4.202   4.581  0.4286  2.5013  2.3759
 1063TIP3    H2 3154   0.975   4.262   4.476 -0.3917 -0.4420 -0.1778
 1064TIP3   OH2 3155   5.031   0.409   5.524 -0.2987 -0.1954 -0.0040
 1064TIP3    H1 3156   5.007   0.478   5.462 -1.8714 -2.5384 -2.1871
 1064TIP3    H2 3157   4.948   0.380   5.562  0.2200 -1.3343  0.3202
 1065TIP3   OH2 3158   5.885   2.071   2.228 -0.3068  0.2254  0.0234
 1065TIP3    H1 3159   5.933   1.998   2.188 -0.0490  0.5263 -0.2156
 1065TIP3    H2 3160   5.880   2.048   2.321 -0.7871 -0.4132 -0.1463
 1066TIP3   OH2 3161   4.381   1.677   1.621  0.5324  0.0213  0.0284
 1066TIP3    H1 3162   4.361   1.771   1.618 -2.2591 -0.4977 -1.6384
 1066TIP3    H2 3163   4.328   1.644   1.694 -0.0298 -0.5124 -0.6087
 1067TIP3   OH2 3164   0.313   0.626   0.990  0.6874 -0.0235  0.0553
 1067TIP3    H1 3165   0.297   0.548   1.043 -1.2946  1.2669  1.5203
 1067TIP3    H2 3166   0.242   0.625   0.925  0.5737  0.6268  0.1679
 1068TIP3   OH2 3167   0.262   2.131   5.801 -0.2481  0.1416 -0.5983
 1068TIP3    H1 3168   0.332   2.175   5.849 -0.7366 -1.2445  1.4868
 1068TIP3    H2 3169   0.188   2.192   5.805 -0.5298 -0.2627  1.1680
 1069TIP3   OH2 3170   1.306   1.336   5.790  0.1803 -0.4586  0.0518
 1069TIP3    H1 3171   1.354   1.313   5.710  0.1429  1.6532 -0.6307
 1069TIP3    H2 3172   1.366   1.391   5.839 -0.6147  0.1155  0.3968
 1070TIP3   OH2 3173   0.948   6.746   4.682 -0.1480  0.1931 -0.1698
 1070TIP3    H1 3174   0.989   6.825   4.719 -0.6780  0.4958 -0.2120
 1070TIP3    H2 3175   0.962   6.678   4.747  1.5916 -0.0643 -0.7672
 1071TIP3   OH2 3176   2.306   2.713   3.324  0.4630 -0.3139  0.1924
 1071TIP3    H1 3177   2.259   2.630   3.326 -0.1139  0.0226  1.5887
 1071TIP3    H2 3178   2.238   2.779   3.307  0.5714  0.0696  1.1787
 1072TIP3   OH2 3179   3.203   0.792   2.909 -0.0729  0.0764 -0.7011
 1072TIP3    H1 3180   3.290   0.752   2.907  1.4699  3.0667  0.3825
 1072TIP3    H2 3181   3.176   0.786   3.001 -0.4316  0.3074 -0.7905
 1073TIP3   OH2 3182   0.458   2.564   3.950 -0.1306  0.0465  0.5847
 1073TIP3    H1 3183   0.497   2.563   3.863 -0.1688  1.6910  0.5138
 1073TIP3    H2 3184   0.425   2.475   3.963  1.7787 -0.8326 -0.1787
 1074TIP3   OH2 3185   6.076   4.845   1.118 -0.5454  0.2231 -0.6127
 1074TIP3    H1 3186   6.031   4.911   1.064 -1.2454 -1.0256 -1.5985
 1074TIP3    H2 3187   6.168   4.871   1.113 -0.5001 -0.1097 -2.8820
 1075TIP3   OH2 3188   0.113   5.050   4.480 -0.4469  0.3301 -0.4599
 1075TIP3    H1 3189   0.204   5.066   4.454 -0.2014  1.6798  1.0685
 1075TIP3    H2 3190   0.062   5.080   4.405  0.2827  2.9863 -0.0256
 1076TIP3   OH2 3191   5.374   0.387   3.253  0.4819  0.3022  0.2293
 1076TIP3    H1 3192   5.410   0.475   3.264 -0.8504  0.8713  0.2344
 1076TIP3    H2 3193   5.425   0.332   3.313 -0.1538  1.5020  1.9563
 1077TIP3   OH2 3194   4.047   4.561   3.180 -0.2037  0.2106 -0.1942
 1077TIP3    H1 3195   4.049   4.656   3.193  0.8110  0.5258 -2.3071
 1077TIP3    H2 3196   4.009   4.550   3.093 -0.1268 -1.3230 -0.0473
 1078TIP3   OH2 3197   0.762   1.952   2.267 -0.1309 -0.5372 -0.0942
 1078TIP3    H1 3198   0.725   1.868   2.242  1.9080 -1.7804  0.7874
 1078TIP3    H2 3199   0.687   2.009   2.280 -1.5468 -2.0270 -1.2992
 1079TIP3   OH2 3200   5.883   2.094   2.754 -0.4364  0.1717 -0.2841
 1079TIP3    H1 3201   5.956   2.035   2.735 -0.2998  0.5911 -1.0881
 1079TIP3    H2 3202   5.891   2.113   2.848  0.9786  0.8538 -0.5151
 1080TIP3   OH2 3203   1.964   5.934   4.804  0.7117  0.2221  0.2589
 1080TIP3    H1 3204   1.883   5.888   4.825  1.1971 -0.3546  0.9224
 1080TIP3    H2 3205   1.951   6.023   4.838 -0.0046  0.4250 -0.5036
 1081TIP3   OH2 3206   5.903   4.309   5.897  0.4763 -0.2364  0.3888
 1081TIP3    H1 3207   5.979   4.352   5.856 -0.1369 -0.2139 -0.7277
 1081TIP3    H2 3208   5.834   4.312   5.831  0.4509 -3.1567  0.1743
 1082TIP3   OH2 3209   5.083   0.629   2.742 -0.2716 -0.1038  0.2798
 1082TIP3    H1 3210   5.126   0.667   2.818  0.3819  1.6903 -0.9350
 1082TIP3    H2 3211   5.007   0.686   2.725 -0.2565 -0.3150 -0.5658
 1083TIP3   OH2 3212   6.914   0.690   2.056  0.3675 -0.0921  0.3272
 1083TIP3    H1 3213   6.930   0.630   1.983 -1.9312 -0.5686  0.1580
 1083TIP3    H2 3214   6.990   0.678   2.113  1.7396 -0.4341 -1.4863
 1084TIP3   OH2 3215   5.877   1.485   3.689 -0.3333 -0.2846  0.0358
 1084TIP3    H1 3216   5.784   1.504   3.683 -0.3324 -0.2349  0.1705
 1084TIP3    H2 3217   5.893   1.472   3.783  0.3846  2.7043  0.4362
 1085TIP3   OH2 3218   1.101   2.907   0.631  0.6907 -0.0990 -0.0740
 1085TIP3    H1 3219   1.093   2.812   0.646  1.7673  0.1687  2.9303
 1085TIP3    H2 3220   1.084   2.946   0.717 -1.2245  2.6108 -1.5395
 1086TIP3   OH2 3221   3.122   0.742   3.161  0.2172 -0.0247  0.9848
 1086TIP3    H1 3222   3.030   0.759   3.179  0.2497  0.8116  0.4267
 1086TIP3    H2 3223   3.168   0.771   3.240 -0.1471 -2.4855  2.1732
 1087TIP3   OH2 3224   4.545   2.736   1.632 -0.1523  0.6858  0.5785
 1087TIP3    H1 3225   4.578   2.825   1.626  0.2482  0.4480 -1.5687
 1087TIP3    H2 3226   4.621   2.683   1.656 -0.3044  0.8736  1.4761
 1088TIP3   OH2 3227   6.983   2.765   4.603 -0.2324  0.3403 -0.2941
 1088TIP3    H1 3228   6.906   2.802   4.647  0.8318 -0.2605  2.2506
 1088TIP3    H2 3229   7.054   2.824   4.627  0.6341 -0.7624 -0.0816
 1089TIP3   OH2 3230   5.044   3.860   4.961 -0.1534 -0.1569 -0.6354
 1089TIP3    H1 3231   5.066   3.776   5.000  0.0566 -0.3408 -1.1421
 1089TIP3    H2 3232   5.074   3.853   4.870  1.2800  1.0007 -0.3028
 1090TIP3   OH2 3233   2.256   0.117   4.796  0.0289 -0.2064 -0.3954
 1090TIP3    H1 3234   2.256   0.206   4.760 -0.2567 -0.5412 -1.2568
 1090TIP3    H2 3235   2.343   0.083   4.776 -0.2372 -0.5070 -1.1019
 1091TIP3   OH2 3236   6.578   0.154   2.110 -0.1787  0.8645 -0.2344
 1091TIP3    H1 3237   6.602   0.245   2.125  1.4911  0.6304 -1.1940
 1091TIP3    H2 3238   6.652   0.104   2.145 -1.1924 -0.1595  0.5222
 1092TIP3   OH2 3239   3.327   2.196   5.462 -0.4136  0.0521 -0.0717
 1092TIP3    H1 3240   3.404   2.167   5.511  1.2318  1.3213 -1.7014
 1092TIP3    H2 3241   3.301   2.277   5.504 -0.2213  0.1292 -0.0981
 1093TIP3   OH2 3242   4.753   6.191   3.084  0.0389  0.2326  0.3079
 1093TIP3    H1 3243   4.751   6.096   3.092 -1.5961  0.1221 -0.9330
 1093TIP3    H2 3244   4.811   6.220   3.154 -0.2275 -1.6035  1.3385
 1094TIP3   OH2 3245   7.142   1.587   3.744 -0.3363 -1.1070  0.3605
 1094TIP3    H1 3246   7.064   1.573   3.797 -0.5948 -0.1256  0.2656
 1094TIP3    H2 3247   7.200   1.637   3.801 -0.1668 -1.0004  0.0957
 1095TIP3   OH2 3248   5.613   5.402   1.918  0.3162  0.3951 -0.4057
 1095TIP3    H1 3249   5.670   5.330   1.946 -0.5618  0.2573  1.1449
 1095TIP3    H2 3250   5.537   5.358   1.879 -0.3125  0.4426  0.7248
 1096TIP3   OH2 3251   4.892   2.209   0.046  0.2105 -0.2394 -0.7603
 1096TIP3    H1 3252   4.839   2.258   0.109 -0.7427 -0.2587 -1.5286
 1096TIP3    H2 3253   4.917   2.129   0.093  1.4797  0.7808  0.3745
 1097TIP3   OH2 3254   6.530   1.639   1.537  0.3670  0.0813  0.0178
 1097TIP3    H1 3255   6.614   1.594   1.541  0.8400  0.8066 -1.2127
 1097TIP3    H2 3256   6.465   1.568   1.543  1.0961 -0.7413 -1.2260
 1098TIP3   OH2 3257   6.215   2.145   5.876 -0.4804  0.2454 -0.5510
 1098TIP3    H1 3258   6.145   2.173   5.818  0.5074  0.5648 -1.6175
 1098TIP3    H2 3259   6.204   2.199   5.954  0.5359  2.6907 -2.0084
 1099TIP3   OH2 3260   4.809   6.797   1.704  0.2011  0.3079  0.3341
 1099TIP3    H1 3261   4.734   6.774   1.759  0.3618 -0.6285  0.1677
 1099TIP3    H2 3262   4.885   6.782   1.760  0.3485 -0.3497 -0.0372
 1100TIP3   OH2 3263   6.000   1.920   4.236  0.1749 -0.3055  0.2112
 1100TIP3    H1 3264   6.023   1.861   4.307  0.1526 -0.1925  0.3127
 1100TIP3    H2 3265   6.031   2.006   4.264  2.5920 -0.6673 -1.0570
 1101TIP3   OH2 3266   2.536   4.143   4.016  0.0452 -0.1313  0.2115
 1101TIP3    H1 3267   2.628   4.134   4.042  0.1974  2.0406  0.5679
 1101TIP3    H2 3268   2.489   4.155   4.098 -0.4452 -0.3816 -0.0308
 1102TIP3   OH2 3269   6.769   3.633   4.497 -0.3939  0.3783 -0.4556
 1102TIP3    H1 3270   6.863   3.647   4.505  0.1783 -2.8661 -0.1140
 1102TIP3    H2 3271   6.740   3.701   4.435  2.2582  1.0838 -1.0519
 1103TIP3   OH2 3272   6.418   0.386   2.611 -0.2232 -0.1560  0.0042
 1103TIP3    H1 3273   6.431   0.480   2.597 -0.2403 -0.0968  0.3826
 1103TIP3    H2 3274   6.423   0.375   2.706  0.7080 -0.6737 -0.0887
 1104TIP3   OH2 3275   0.683   3.046   1.466 -0.1993 -0.1870 -0.2951
 1104TIP3    H1 3276   0.657   3.105   1.395 -1.2170  0.5752  0.6691
 1104TIP3    H2 3277   0.721   3.105   1.532  1.0053 -0.9140 -0.3097
 1105TIP3   OH2 3278   5.816   6.631   2.799 -0.3049  0.0354 -0.0392
 1105TIP3    H1 3279   5.813   6.539   2.823  1.3235 -0.1298 -0.3563
 1105TIP3    H2 3280   5.870   6.634   2.720 -1.7162  1.0834 -1.0028
 1106TIP3   OH2 3281   3.200   1.171   1.722  0.0007 -0.0629 -0.2824
 1106TIP3    H1 3282   3.166   1.219   1.646 -2.3574  0.4633  1.0005
 1106TIP3    H2 3283   3.236   1.239   1.779 -0.6071 -0.1397  0.2045
 1107TIP3   OH2 3284   5.011   1.517   2.689 -0.0156 -0.1178 -0.0881
 1107TIP3    H1 3285   5.055   1.483   2.612  1.5483  0.0862  0.6752
 1107TIP3    H2 3286   5.056   1.476   2.763 -0.6812  0.6083  0.7537
 1108TIP3   OH2 3287   7.127   6.736   2.450 -0.2622 -0.0802  0.7160
 1108TIP3    H1 3288   7.154   6.720   2.540  3.5219  1.4085  0.0385
 1108TIP3    H2 3289   7.099   6.651   2.417 -1.0303 -0.7825  3.0556
 1109TIP3   OH2 3290   4.123   5.360   0.806 -0.4951  0.1532  0.1101
 1109TIP3    H1 3291   4.159   5.272   0.807 -2.0599 -0.5426 -0.8134
 1109TIP3    H2 3292   4.188   5.412   0.759 -0.4324 -0.9324 -1.0521
 1110TIP3   OH2 3293   4.559   4.141   3.909  0.2365  0.3775 -0.0463
 1110TIP3    H1 3294   4.495   4.106   3.971  0.0975  2.7639  1.2560
 1110TIP3    H2 3295   4.509   4.153   3.828 -0.5262  0.5812  0.4451
 1111TIP3   OH2 3296   3.881   5.171   3.658  0.0736 -0.1835  0.1476
 1111TIP3    H1 3297   3.794   5.193   3.626  0.5893  0.7408 -0.7067
 1111TIP3    H2 3298   3.926   5.135   3.581  0.9012  0.7542  0.1691
 1112TIP3   OH2 3299   4.632   2.237   1.297  0.1748  0.6315 -0.3026
 1112TIP3    H1 3300   4.567   2.299   1.331 -0.0170  0.6953 -0.7720
 1112TIP3    H2 3301   4.583   2.183   1.235 -0.2873 -1.7267  1.9596
 1113TIP3   OH2 3302   7.083   6.630   5.528  0.4641 -0.5565 -0.1713
 1113TIP3    H1 3303   7.113   6.715   5.496  1.1885 -1.0868 -0.9600
 1113TIP3    H2 3304   7.003   6.649   5.576  0.6580  0.5780 -0.2721
 1114TIP3   OH2 3305   7.054   3.922   5.572 -0.7496 -0.2875 -0.1247
 1114TIP3    H1 3306   7.145   3.919   5.543 -1.0825  1.2262 -1.4684
 1114TIP3    H2 3307   7.059   3.950   5.663  0.1373 -0.5834 -0.0673
 1115TIP3   OH2 3308   0.725   4.342   2.693 -0.3131  0.3096  0.9879
 1115TIP3    H1 3309   0.724   4.438   2.695  1.3344  0.3808 -0.0010
 1115TIP3    H2 3310   0.818   4.319   2.691 -0.6801 -1.3245  1.4935
 1116TIP3   OH2 3311   5.821   5.709   1.970  0.5977 -0.1585 -0.0759
 1116TIP3    H1 3312   5.873   5.749   1.900  0.9324 -0.7463 -0.1751
 1116TIP3    H2 3313   5.737   5.691   1.929 -0.0073  1.5815  0.3258
 1117TIP3   OH2 3314   1.521   6.138   2.334 -0.1090  0.3635  0.2395
 1117TIP3    H1 3315   1.592   6.081   2.362 -1.4841 -1.7623 -0.3561
 1117TIP3    H2 3316   1.492   6.182   2.414  0.9416  0.2003  0.7260
 1118TIP3   OH2 3317   6.589   5.414   5.860  0.6881 -0.1840 -0.6200
 1118TIP3    H1 3318   6.542   5.344   5.904 -0.9806  1.4131  0.2882
 1118TIP3    H2 3319   6.538   5.431   5.780 -0.9614  2.1298  0.7856
 1119TIP3   OH2 3320   1.275   5.411   4.081 -0.1032 -0.2563  0.3192
 1119TIP3    H1 3321   1.197   5.460   4.107 -0.5706 -0.8434  0.0379
 1119TIP3    H2 3322   1.337   5.478   4.053  0.1547  0.3582  2.1991
 1120TIP3   OH2 3323   0.713   5.657   1.542 -0.0118  0.3189 -0.1390
 1120TIP3    H1 3324   0.744   5.715   1.611 -1.0629  0.0160  0.6022
 1120TIP3    H2 3325   0.723   5.569   1.578 -1.6716  0.2121  0.1129
 1121TIP3   OH2 3326   2.237   1.327   3.112 -0.0679 -0.2151 -0.3526
 1121TIP3    H1 3327   2.167   1.265   3.089 -0.0064 -0.6529  0.6018
 1121TIP3    H2 3328   2.196   1.413   3.101 -0.2701 -0.4179 -1.3220
 1122TIP3   OH2 3329   1.452   3.546   4.341  0.0128 -0.0762 -0.1602
 1122TIP3    H1 3330   1.378   3.490   4.368 -0.6571 -1.0222 -3.4639
 1122TIP3    H2 3331   1.529   3.493   4.360 -0.5895 -2.1736 -2.8406
 1123TIP3   OH2 3332   6.454   3.565   3.652  0.6549  0.2113  0.1672
 1123TIP3    H1 3333   6.378   3.590   3.598  1.0752  2.5725  0.5916
 1123TIP3    H2 3334   6.521   3.542   3.588 -0.0715 -0.9604 -0.2219
 1124TIP3   OH2 3335   3.496   3.859   0.245 -0.4223 -0.3973  0.2379
 1124TIP3    H1 3336   3.450   3.877   0.163  0.3985  1.2256  0.0915
 1124TIP3    H2 3337   3.559   3.930   0.253 -0.8974 -0.1551  2.5769
 1125TIP3   OH2 3338   1.933   0.688   5.071 -0.1941  0.2521  0.2765
 1125TIP3    H1 3339   1.986   0.618   5.112  2.4454  2.6158  1.2230
 1125TIP3    H2 3340   1.843   0.665   5.093  0.7735 -1.1927  3.3276
 1126TIP3   OH2 3341   6.807   1.740   2.306 -0.2147  0.2321  0.1606
 1126TIP3    H1 3342   6.841   1.658   2.342 -0.3006  0.8505  1.6919
 1126TIP3    H2 3343   6.722   1.716   2.268 -0.1258 -0.4265  0.3634
 1127TIP3   OH2 3344   5.619   5.717   5.653 -0.1040  0.3091 -0.4011
 1127TIP3    H1 3345   5.652   5.738   5.566  0.6235  2.1281  0.2796
 1127TIP3    H2 3346   5.675   5.766   5.713 -1.1189 -0.2391  1.0576
 1128TIP3   OH2 3347   6.448   3.094   3.686 -0.1617 -0.1813  0.2217
 1128TIP3    H1 3348   6.420   3.183   3.709 -0.2705 -0.7544  2.5517
 1128TIP3    H2 3349   6.544   3.098   3.688 -0.1314  0.1812 -1.0678
 1129TIP3   OH2 3350   6.438   2.484   1.704 -0.2787 -0.2177  0.3018
 1129TIP3    H1 3351   6.366   2.545   1.691 -0.9441 -0.8321  0.9922
 1129TIP3    H2 3352   6.449   2.480   1.799 -0.1613 -1.0629  0.2599
 1130TIP3   OH2 3353   0.170   6.610   3.006  0.5632  0.4966 -0.1172
 1130TIP3    H1 3354   0.141   6.528   2.966  1.2057  0.1368  0.1456
 1130TIP3    H2 3355   0.134   6.606   3.095 -0.3580  1.0230 -0.4535
 1131TIP3   OH2 3356   3.963   0.375   2.155 -1.0129 -0.0871 -0.1831
 1131TIP3    H1 3357   3.997   0.310   2.216 -0.6169 -0.2020 -0.5247
 1131TIP3    H2 3358   3.975   0.336   2.068 -1.6437  0.0399 -0.3357
 1132TIP3   OH2 3359   1.605   2.143   0.744  0.6647 -0.1267 -0.0147
 1132TIP3    H1 3360   1.654   2.088   0.805 -0.0424 -0.2918  0.4157
 1132TIP3    H2 3361   1.540   2.187   0.798  0.6910  0.5069 -0.4922
 1133TIP3   OH2 3362   2.088   2.933   2.598  0.5906  0.5499  0.1991
 1133TIP3    H1 3363   2.138   2.864   2.641 -0.2694  1.3805  2.6921
 1133TIP3    H2 3364   2.130   3.014   2.625 -1.5923  1.2424  1.8791
 1134TIP3   OH2 3365   3.410   3.148   4.310  0.1903 -0.2084  0.5250
 1134TIP3    H1 3366   3.329   3.098   4.316  0.3937 -0.6613 -0.4753
 1134TIP3    H2 3367   3.478   3.088   4.342  0.4601 -0.6543 -0.8470
 1135TIP3   OH2 3368   1.939   2.224   2.460  0.5411  0.0474 -0.4645
 1135TIP3    H1 3369   1.940   2.152   2.523 -0.2814  0.2054 -0.2571
 1135TIP3    H2 3370   2.031   2.246   2.446  0.8197 -1.1443 -0.6455
 1136TIP3   OH2 3371   0.825   3.443   4.498  0.4525 -0.3649  0.5935
 1136TIP3    H1 3372   0.868   3.471   4.579  1.0822  0.7373 -0.1044
 1136TIP3    H2 3373   0.890   3.387   4.454  0.6986  0.2492  0.1564
 1137TIP3   OH2 3374   5.662   5.395   0.748 -0.3444 -0.4669 -0.1334
 1137TIP3    H1 3375   5.722   5.470   0.757 -1.5745  0.3604  1.7364
 1137TIP3    H2 3376   5.713   5.321   0.782 -0.1608  0.1220  0.9320
 1138TIP3   OH2 3377   5.060   5.344   5.339  0.0902  0.0743  0.4178
 1138TIP3    H1 3378   4.970   5.320   5.314  0.3229 -0.2215 -0.1572
 1138TIP3    H2 3379   5.067   5.437   5.317  0.3933 -0.2543 -0.9845
 1139TIP3   OH2 3380   2.940   5.940   0.067 -0.4603  0.2416  0.0441
 1139TIP3    H1 3381   2.943   5.992   0.148  1.0779 -0.8434  0.7169
 1139TIP3    H2 3382   3.023   5.958   0.023  1.4665 -3.5769  1.6311
 1140TIP3   OH2 3383   3.230   4.649   5.368 -0.2805 -0.3110  0.1556
 1140TIP3    H1 3384   3.300   4.711   5.392 -0.9194 -0.3700  2.3937
 1140TIP3    H2 3385   3.149   4.695   5.390 -0.9622 -0.5573 -1.6530
 1141TIP3   OH2 3386   0.020   2.936   4.718  0.2611  0.2671 -0.2437
 1141TIP3    H1 3387   0.035   2.985   4.799 -2.0763 -0.2934  0.6119
 1141TIP3    H2 3388   0.103   2.942   4.671  0.9415  2.6546  1.0768
 1142TIP3   OH2 3389   3.199   6.527   0.662 -0.2392 -0.0822 -0.4484
 1142TIP3    H1 3390   3.135   6.522   0.733 -2.9903 -1.9047 -2.8052
 1142TIP3    H2 3391   3.176   6.607   0.615  0.6251  0.3423 -0.1766
 1143TIP3   OH2 3392   1.022   4.305   0.135  0.2597  0.1655 -0.7566
 1143TIP3    H1 3393   1.029   4.236   0.201 -1.7934 -0.0453 -0.6767
 1143TIP3    H2 3394   1.112   4.327   0.113  1.0689  0.7400  2.6019
 1144TIP3   OH2 3395   1.953   4.603   5.754  0.4050  0.0018  0.2437
 1144TIP3    H1 3396   1.905   4.589   5.672  0.3938  0.9439  0.0798
 1144TIP3    H2 3397   2.000   4.521   5.769 -2.8121 -1.7986  1.4769
 1145TIP3   OH2 3398   2.808   1.422   1.709 -0.3873 -0.2008  0.0043
 1145TIP3    H1 3399   2.793   1.366   1.786  0.8579 -0.4301  0.0997
 1145TIP3    H2 3400   2.889   1.389   1.671 -0.4213  0.6079 -0.7950
 1146TIP3   OH2 3401   0.351   0.789   5.724  0.8182 -0.4797 -0.0034
 1146TIP3    H1 3402   0.368   0.707   5.770 -0.6740 -0.3094  0.8944
 1146TIP3    H2 3403   0.258   0.806   5.738  0.6686  0.3945 -1.7784
 1147TIP3   OH2 3404   1.566   6.614   1.158 -0.2505  0.3170 -0.1371
 1147TIP3    H1 3405   1.580   6.629   1.251  1.3029  2.4013 -0.6447
 1147TIP3    H2 3406   1.537   6.523   1.152 -0.2303  0.0974  2.3438
 1148TIP3   OH2 3407   1.837   4.796   3.255 -0.2226  0.0924  0.1953
 1148TIP3    H1 3408   1.885   4.715   3.239 -1.7507 -0.3526 -2.5992
 1148TIP3    H2 3409   1.871   4.858   3.190 -2.6227  0.0715 -1.1759
 1149TIP3   OH2 3410   1.895   5.405   0.207 -0.1002 -0.1880 -0.1896
 1149TIP3    H1 3411   1.927   5.407   0.117  0.7170 -0.1351  0.0971
 1149TIP3    H2 3412   1.949   5.468   0.253 -1.6108  1.0275 -0.0047
 1150TIP3   OH2 3413   0.546   1.501   5.164 -0.1100  0.0503 -0.1883
 1150TIP3    H1 3414   0.544   1.423   5.220  0.8069  0.6557  0.7324
 1150TIP3    H2 3415   0.574   1.469   5.079 -0.7401 -0.7702 -0.0991
 1151TIP3   OH2 3416   2.193   6.623   4.132 -0.1228 -0.0357 -0.0079
 1151TIP3    H1 3417   2.262   6.563   4.104  0.1352  0.3641 -0.2354
 1151TIP3    H2 3418   2.202   6.628   4.227  1.6631  1.7923 -0.2112
 1152TIP3   OH2 3419   1.343   5.989   4.668 -0.4410  0.1678  0.1065
 1152TIP3    H1 3420   1.349   6.075   4.709 -0.1383  0.1709  0.0618
 1152TIP3    H2 3421   1.251   5.966   4.673 -0.3987  0.1437  0.8290
 1153TIP3   OH2 3422   6.074   5.739   2.532 -0.0950 -0.5813  0.3550
 1153TIP3    H1 3423   5.986   5.768   2.508 -0.6083 -1.1949  1.4095
 1153TIP3    H2 3424   6.096   5.792   2.608  1.5761  1.4587 -1.4122
 1154TIP3   OH2 3425   3.362   4.955   4.459  0.9346 -0.3686  0.1997
 1154TIP3    H1 3426   3.371   5.036   4.509  0.3634 -0.3556  0.2790
 1154TIP3    H2 3427   3.340   4.889   4.524 -0.1689 -0.2850 -0.0671
 1155TIP3   OH2 3428   7.111   6.147   1.772 -0.3528 -0.7085  0.0220
 1155TIP3    H1 3429   7.174   6.148   1.699  0.0956  0.6585  0.3988
 1155TIP3    H2 3430   7.068   6.232   1.767  0.2155 -0.2872  1.7926
 1156TIP3   OH2 3431   0.750   2.776   3.033  0.1584 -0.1730  0.3905
 1156TIP3    H1 3432   0.670   2.824   3.009  1.1836  2.6487  2.1807
 1156TIP3    H2 3433   0.736   2.749   3.123  1.4800  1.0509  0.9981
 1157TIP3   OH2 3434   5.016   3.226   0.677  0.4666 -0.1680  0.2620
 1157TIP3    H1 3435   5.109   3.209   0.693  0.3224 -0.5669  0.6883
 1157TIP3    H2 3436   4.977   3.139   0.668  0.0023 -0.0207  0.8322
 1158TIP3   OH2 3437   2.813   0.785   3.902  0.0954 -0.1258 -0.5058
 1158TIP3    H1 3438   2.892   0.826   3.938 -1.8230  0.9600  2.8626
 1158TIP3    H2 3439   2.793   0.836   3.824  2.9954 -0.8580 -1.8716
 1159TIP3   OH2 3440   2.428   5.643   1.556  0.1260 -0.4261  0.1329
 1159TIP3    H1 3441   2.503   5.584   1.552  0.0948 -0.5028  0.5794
 1159TIP3    H2 3442   2.372   5.605   1.624  1.5346  1.7813  2.7014
 1160TIP3   OH2 3443   7.161   0.349   2.254  0.2573 -0.2839 -0.5603
 1160TIP3    H1 3444   7.211   0.344   2.335 -1.3320 -0.1072  0.4772
 1160TIP3    H2 3445   7.084   0.295   2.270 -1.3423  1.7325 -0.9967
 1161TIP3   OH2 3446   1.842   1.320   1.676  0.5922  0.4410  0.1016
 1161TIP3    H1 3447   1.907   1.250   1.676  1.6557  1.3796  1.3590
 1161TIP3    H2 3448   1.860   1.370   1.597  0.6507  0.0516 -0.1347
 1162TIP3   OH2 3449   3.223   0.147   0.388  0.1469 -0.5727 -0.2249
 1162TIP3    H1 3450   3.314   0.136   0.414  0.0279 -1.0991 -0.0293
 1162TIP3    H2 3451   3.173   0.100   0.455 -0.2270 -0.9004 -0.7329
 1163TIP3   OH2 3452   3.089   1.129   5.862  0.1714 -0.2437 -0.0015
 1163TIP3    H1 3453   3.141   1.204   5.891 -0.9415 -0.1392  1.9152
 1163TIP3    H2 3454   3.000   1.164   5.855 -0.1874 -1.1420 -0.0660
 1164TIP3   OH2 3455   0.545   4.823   0.609  0.1211 -0.2513 -0.0739
 1164TIP3    H1 3456   0.564   4.780   0.692 -2.0475 -0.2668  0.4737
 1164TIP3    H2 3457   0.529   4.752   0.547 -0.9777 -0.2562  0.2021
 1165TIP3   OH2 3458   5.938   5.423   5.041  0.1691 -0.3908  0.0612
 1165TIP3    H1 3459   5.987   5.364   4.984 -0.1800  0.7177 -1.4433
 1165TIP3    H2 3460   6.005   5.470   5.089  0.4548 -1.9407  1.2647
 1166TIP3   OH2 3461   6.892   4.149   0.404 -0.3274  0.6759 -0.2801
 1166TIP3    H1 3462   6.987   4.152   0.406 -0.3493  2.7224 -0.3544
 1166TIP3    H2 3463   6.867   4.128   0.494  0.1746 -1.4729 -0.5908
 1167TIP3   OH2 3464   5.240   2.404   0.728 -0.6116  0.4499  0.0736
 1167TIP3    H1 3465   5.297   2.327   0.727 -1.5244 -0.2397 -0.5504
 1167TIP3    H2 3466   5.159   2.374   0.687 -2.0437  0.9394  2.3707
 1168TIP3   OH2 3467   0.962   5.567   4.133 -0.2384  0.2678 -0.0088
 1168TIP3    H1 3468   0.985   5.601   4.220  4.6025 -1.7759 -0.1897
 1168TIP3    H2 3469   0.886   5.511   4.149 -0.8838  1.6859  2.4280
 1169TIP3   OH2 3470   7.005   2.748   4.132 -0.4524 -0.5668  0.2809
 1169TIP3    H1 3471   7.016   2.717   4.042  0.3122 -1.2413  0.5936
 1169TIP3    H2 3472   7.083   2.716   4.178 -0.8245 -0.2138  1.1802
 1170TIP3   OH2 3473   2.888   5.645   4.942 -0.2099  0.1796 -0.7542
 1170TIP3    H1 3474   2.811   5.639   4.886  1.0456  1.2438 -2.7161
 1170TIP3    H2 3475   2.957   5.599   4.895  0.4028 -0.7483  0.9540
 1171TIP3   OH2 3476   1.164   6.558   5.695 -0.1885  0.3352 -0.7572
 1171TIP3    H1 3477   1.192   6.478   5.740  1.2494 -0.5301 -2.9893
 1171TIP3    H2 3478   1.093   6.528   5.637 -0.1690  0.8361 -1.0425
 1172TIP3   OH2 3479   1.105   0.274   5.308  0.4175 -0.0419 -0.3179
 1172TIP3    H1 3480   1.093   0.184   5.276 -0.2840 -0.1934  0.3488
 1172TIP3    H2 3481   1.165   0.264   5.382 -1.0725 -0.2249  0.9219
 1173TIP3   OH2 3482   1.671   4.020   1.064  0.5985 -0.4595  0.0483
 1173TIP3    H1 3483   1.622   3.991   0.987  0.2686  0.6062 -0.1541
 1173TIP3    H2 3484   1.604   4.035   1.131  0.7032  0.4435 -0.0488
 1174TIP3   OH2 3485   5.956   1.149   1.032 -0.0146 -0.7160 -0.4225
 1174TIP3    H1 3486   5.924   1.236   1.010  1.3910 -0.0499  0.0748
 1174TIP3    H2 3487   5.991   1.158   1.120  0.3431 -1.7408 -0.4511
 1175TIP3   OH2 3488   1.461   2.561   3.895 -0.5060 -0.8227 -0.3753
 1175TIP3    H1 3489   1.414   2.558   3.812  1.7942 -0.2476 -1.7887
 1175TIP3    H2 3490   1.511   2.642   3.891  1.1778 -1.7721  0.6653
 1176TIP3   OH2 3491   0.294   5.087   2.949 -0.3931  0.7478  0.8184
 1176TIP3    H1 3492   0.237   5.029   2.999  0.4654 -1.7001 -0.8461
 1176TIP3    H2 3493   0.382   5.052   2.964 -0.1038 -0.2220 -2.3514
 1177TIP3   OH2 3494   6.430   3.195   5.789  0.5434  0.6723 -0.3526
 1177TIP3    H1 3495   6.348   3.149   5.771 -0.6656  2.6072 -0.0339
 1177TIP3    H2 3496   6.438   3.259   5.718 -0.2711  3.0874  1.5691
 1178TIP3   OH2 3497   0.861   2.856   5.660 -0.3662  0.8538 -0.2364
 1178TIP3    H1 3498   0.765   2.863   5.652 -0.3601  0.9127 -0.2564
 1178TIP3    H2 3499   0.890   2.830   5.573 -0.4674 -0.2591  0.0421
 1179TIP3   OH2 3500   3.118   4.699   2.041 -0.0664  0.4863 -0.1058
 1179TIP3    H1 3501   3.070   4.722   2.121  0.6320 -2.0926  1.1930
 1179TIP3    H2 3502   3.099   4.606   2.028 -1.9409  1.2546 -4.3292
 1180TIP3   OH2 3503   4.944   2.614   1.625  0.1362 -0.3562 -0.1452
 1180TIP3    H1 3504   4.916   2.607   1.717  0.4220 -0.6775 -0.0783
 1180TIP3    H2 3505   4.956   2.708   1.610 -1.5778 -0.1495 -0.3656
 1181TIP3   OH2 3506   4.990   5.555   2.783 -0.0641  0.7352  0.4565
 1181TIP3    H1 3507   4.948   5.616   2.722 -1.8601 -0.6489  0.1968
 1181TIP3    H2 3508   4.922   5.537   2.848  0.4877 -0.7895  0.6368
 1182TIP3   OH2 3509   4.278   4.504   0.469 -0.0398 -0.3663 -0.2024
 1182TIP3    H1 3510   4.273   4.410   0.453 -0.0145 -0.4747  0.3926
 1182TIP3    H2 3511   4.340   4.537   0.404 -1.1975 -0.5117 -1.4034
 1183TIP3   OH2 3512   4.180   0.579   3.253  0.2709 -0.3053 -0.3373
 1183TIP3    H1 3513   4.157   0.503   3.200 -0.0505  0.2782 -1.0552
 1183TIP3    H2 3514   4.272   0.595   3.234  0.2034 -0.2057 -0.5861
 1184TIP3   OH2 3515   1.441   0.625   0.648  0.4912 -0.0666 -0.4245
 1184TIP3    H1 3516   1.404   0.559   0.590 -1.4725  0.6798 -0.0884
 1184TIP3    H2 3517   1.510   0.578   0.696  0.8573 -1.1808 -1.9417
 1185TIP3   OH2 3518   0.076   5.324   0.517  0.6252  0.0185 -0.2158
 1185TIP3    H1 3519   0.139   5.252   0.506 -1.1631 -1.7908  0.6942
 1185TIP3    H2 3520   0.130   5.400   0.539  2.4229 -1.8389  2.3941
 1186TIP3   OH2 3521   1.177   5.653   5.215 -0.1600  0.1376 -0.4649
 1186TIP3    H1 3522   1.265   5.638   5.181 -0.2898 -0.7580 -0.4213
 1186TIP3    H2 3523   1.119   5.639   5.140 -0.3187  0.0222 -0.3201
 1187TIP3   OH2 3524   4.509   3.910   4.963 -0.5593  0.2028  0.0841
 1187TIP3    H1 3525   4.516   3.931   4.870 -0.5745  0.5404  0.1583
 1187TIP3    H2 3526   4.588   3.860   4.983  0.0570  1.1905  0.1749
 1188TIP3   OH2 3527   4.298   5.541   0.072  0.2338  0.1684  0.0062
 1188TIP3    H1 3528   4.305   5.446   0.069 -1.1896  0.0464 -0.9885
 1188TIP3    H2 3529   4.361   5.569   0.138 -0.9363 -1.6433  2.0025
 1189TIP3   OH2 3530   2.767   3.894   4.523  0.0272 -0.0408  0.6546
 1189TIP3    H1 3531   2.717   3.976   4.514  0.9364  0.3416 -1.9192
 1189TIP3    H2 3532   2.701   3.825   4.520 -0.5704  0.5348  0.0490
 1190TIP3   OH2 3533   5.080   6.618   4.174 -0.0991  0.1951  0.3849
 1190TIP3    H1 3534   5.131   6.650   4.248 -0.0927 -0.6085  0.7368
 1190TIP3    H2 3535   5.056   6.528   4.198  1.4680 -0.7646 -1.3469
 1191TIP3   OH2 3536   4.938   2.392   1.421 -0.3518  0.1749 -0.0778
 1191TIP3    H1 3537   4.921   2.477   1.461  1.8863 -0.2554  1.9932
 1191TIP3    H2 3538   4.866   2.336   1.452 -0.2070  0.5748  1.0271
 1192TIP3   OH2 3539   4.675   0.056   1.489  0.4824 -0.2062  0.2282
 1192TIP3    H1 3540   4.637  -0.024   1.453 -1.0144  0.2139  0.7981
 1192TIP3    H2 3541   4.740   0.083   1.424 -0.9939 -0.3440 -1.3718
 1193TIP3   OH2 3542   0.245   6.686   1.392  0.3504 -0.2473 -0.2533
 1193TIP3    H1 3543   0.322   6.630   1.386  2.2307  2.2544 -1.1042
 1193TIP3    H2 3544   0.218   6.699   1.301  0.3700  0.7429 -0.1277
 1194TIP3   OH2 3545   6.582   2.163   2.706  0.2826  0.5256 -0.1281
 1194TIP3    H1 3546   6.609   2.218   2.632  0.0436  0.8136 -0.0013
 1194TIP3    H2 3547   6.657   2.106   2.721  0.5193  0.7904 -0.2860
 1195TIP3   OH2 3548   0.932   6.047   0.366 -0.6069 -0.2861  0.4367
 1195TIP3    H1 3549   0.858   6.035   0.425 -0.3860  0.6680  0.9403
 1195TIP3    H2 3550   0.931   6.141   0.345  0.8418 -0.1047  1.0119
 1196TIP3   OH2 3551   5.662   3.956   5.003  0.5470  0.2340  0.3470
 1196TIP3    H1 3552   5.673   4.051   4.998  2.1759  0.0102 -2.2809
 1196TIP3    H2 3553   5.580   3.939   4.958  1.1240  0.3050 -0.7595
 1197TIP3   OH2 3554   2.595   2.426   2.338 -0.4667  0.4457  0.1651
 1197TIP3    H1 3555   2.541   2.431   2.258  0.7026 -1.4298 -0.8124
 1197TIP3    H2 3556   2.581   2.337   2.371  1.7038  0.0108  0.0726
 1198TIP3   OH2 3557   0.803   3.819   5.071  0.1912 -0.9516 -0.0196
 1198TIP3    H1 3558   0.872   3.841   5.135  0.0942  0.4151 -0.3642
 1198TIP3    H2 3559   0.849   3.769   5.003  0.6033 -1.0773  0.3438
 1199TIP3   OH2 3560   5.116   1.724   5.059  0.0017  0.0792 -0.1004
 1199TIP3    H1 3561   5.085   1.726   5.149  0.2631  0.9092 -0.0202
 1199TIP3    H2 3562   5.046   1.767   5.009 -0.4296 -0.9337 -0.3961
 1200TIP3   OH2 3563   6.688   1.437   1.625  0.2354 -0.1593 -0.2375
 1200TIP3    H1 3564   6.780   1.425   1.600  0.8553 -1.1162  2.2204
 1200TIP3    H2 3565   6.691   1.457   1.719 -2.0801 -0.1578 -0.1109
 1201TIP3   OH2 3566   3.414   4.306   0.374  0.1437  0.2290 -0.6483
 1201TIP3    H1 3567   3.429   4.312   0.280 -2.3512  1.3194 -1.0500
 1201TIP3    H2 3568   3.371   4.221   0.386  1.6280 -0.5094 -0.2475
 1202TIP3   OH2 3569   6.354   6.767   0.476  0.0824 -0.1590  0.2183
 1202TIP3    H1 3570   6.388   6.774   0.387  2.8417 -1.0402  1.1106
 1202TIP3    H2 3571   6.278   6.709   0.467  0.5381 -0.5665 -1.5035
 1203TIP3   OH2 3572   3.680   3.618   0.785  0.4105 -0.3875 -0.8226
 1203TIP3    H1 3573   3.719   3.542   0.829  2.2342  0.6639 -0.5372
 1203TIP3    H2 3574   3.723   3.620   0.699 -0.9014 -0.6573 -1.5018
 1204TIP3   OH2 3575   1.958   2.443   4.802  0.5375  0.4503 -0.3169
 1204TIP3    H1 3576   1.902   2.392   4.743 -0.8121  0.9554  0.4797
 1204TIP3    H2 3577   1.921   2.532   4.799 -0.4453  0.2059  2.2767
 1205TIP3   OH2 3578   2.249   0.884   4.869  0.2372  0.3282 -0.1319
 1205TIP3    H1 3579   2.310   0.859   4.938 -1.7103  0.0193  1.5934
 1205TIP3    H2 3580   2.233   0.977   4.884  0.5944  0.5116 -0.8498
 1206TIP3   OH2 3581   2.277   0.101   3.206 -0.1663  0.0949 -0.3658
 1206TIP3    H1 3582   2.214   0.031   3.193 -0.2099  0.4197 -2.0791
 1206TIP3    H2 3583   2.224   0.181   3.202  0.3200  0.3681 -1.8134
 1207TIP3   OH2 3584   1.465   4.096   3.899  0.2210 -0.3222  0.0192
 1207TIP3    H1 3585   1.387   4.041   3.887 -0.9289  1.1524  0.4429
 1207TIP3    H2 3586   1.458   4.163   3.832  1.0112 -0.0216  0.2265
 1208TIP3   OH2 3587   6.287   3.154   1.095  0.8101 -0.1729  0.2759
 1208TIP3    H1 3588   6.327   3.151   1.182 -1.5500 -0.2057  1.4623
 1208TIP3    H2 3589   6.292   3.063   1.064  0.5616 -0.4434  0.9779
 1209TIP3   OH2 3590   3.710   3.297   5.203  0.0172  0.5659 -0.4228
 1209TIP3    H1 3591   3.740   3.309   5.293  1.7802 -0.4120 -0.8283
 1209TIP3    H2 3592   3.770   3.349   5.150 -0.8885  0.9925 -1.0563
 1210TIP3   OH2 3593   4.911   0.390   0.552  0.2470  0.2382  0.0241
 1210TIP3    H1 3594   4.978   0.434   0.500  0.6338  1.8825  1.8144
 1210TIP3    H2 3595   4.944   0.300   0.562  1.2388  0.5034 -0.7050
 1211TIP3   OH2 3596   6.939   2.620   3.193 -0.9149  0.4968 -0.7759
 1211TIP3    H1 3597   6.920   2.554   3.260 -0.5573  1.0550 -0.1046
 1211TIP3    H2 3598   7.028   2.601   3.165 -0.6419  0.9533 -0.2514
 1212TIP3   OH2 3599   1.633   3.379   0.911  0.6383 -0.0367  0.0602
 1212TIP3    H1 3600   1.716   3.332   0.922  1.7019  0.4083 -4.2306
 1212TIP3    H2 3601   1.658   3.472   0.918  1.0572  0.1875 -3.1537
 1213TIP3   OH2 3602   2.334   1.571   1.812  0.9446  0.0426  0.0654
 1213TIP3    H1 3603   2.319   1.631   1.739 -1.6922 -1.9305 -1.1956
 1213TIP3    H2 3604   2.353   1.487   1.770 -1.2000 -1.2851  1.5257
 1214TIP3   OH2 3605   4.090   0.378   2.833  0.0399  0.1377 -0.3409
 1214TIP3    H1 3606   4.058   0.314   2.769 -0.8930  0.6016 -0.3599
 1214TIP3    H2 3607   4.042   0.458   2.813 -1.9353 -0.2634  2.2629
 1215TIP3   OH2 3608   5.395   0.289   2.115 -0.2564  0.0003  0.7600
 1215TIP3    H1 3609   5.313   0.338   2.127  0.8118  2.2528 -0.4691
 1215TIP3    H2 3610   5.431   0.324   2.034  1.7884 -1.1559  1.1223
 1216TIP3   OH2 3611   4.011   3.726   5.806 -0.2296  0.4848  0.3347
 1216TIP3    H1 3612   4.024   3.780   5.728  0.1834  0.9305  0.7013
 1216TIP3    H2 3613   4.087   3.746   5.861  0.4828 -1.2572  0.0440
 1217TIP3   OH2 3614   5.795   2.664   3.995 -0.2221  0.7296 -0.6189
 1217TIP3    H1 3615   5.813   2.602   4.066 -0.4846  0.2669 -0.9513
 1217TIP3    H2 3616   5.775   2.609   3.919  0.6095  1.2188 -1.2029
 1218TIP3   OH2 3617   6.579   2.330   2.269 -0.1250 -0.0751 -0.0645
 1218TIP3    H1 3618   6.581   2.238   2.245 -0.0306 -0.2883  0.7195
 1218TIP3    H2 3619   6.499   2.365   2.228 -1.0785 -0.9106  1.0314
 1219TIP3   OH2 3620   5.792   4.481   2.192 -0.2523  0.1680  0.3048
 1219TIP3    H1 3621   5.863   4.545   2.194 -1.1929  1.2564 -0.0862
 1219TIP3    H2 3622   5.836   4.396   2.203  1.1648  0.7537 -0.5176
 1220TIP3   OH2 3623   2.375   2.243   1.808  0.1465  0.4750  0.1944
 1220TIP3    H1 3624   2.380   2.338   1.795  0.5442  0.1393 -2.8883
 1220TIP3    H2 3625   2.282   2.223   1.804  0.1699  0.5592 -1.2543
 1221TIP3   OH2 3626   3.439   1.461   2.358 -0.4070 -0.2718  0.1392
 1221TIP3    H1 3627   3.492   1.438   2.282 -1.3594 -0.8204 -0.3775
 1221TIP3    H2 3628   3.410   1.551   2.340  2.0242  0.8775  1.4240
 1222TIP3   OH2 3629   5.712   5.617   5.070 -0.2971 -0.1625  0.1269
 1222TIP3    H1 3630   5.717   5.703   5.029  2.1037  0.9242  2.4436
 1222TIP3    H2 3631   5.787   5.569   5.036 -1.2196 -1.1582 -0.6010
 1223TIP3   OH2 3632   1.771   0.696   2.286 -0.5031  0.1449  0.3399
 1223TIP3    H1 3633   1.793   0.606   2.309 -0.4360 -0.2983 -1.3043
 1223TIP3    H2 3634   1.675   0.697   2.286 -0.5230  0.5566  2.0128
 1224TIP3   OH2 3635   5.981   0.219   3.295 -1.2583 -0.5343  0.5467
 1224TIP3    H1 3636   5.893   0.231   3.259 -1.0136  0.4130  0.2221
 1224TIP3    H2 3637   5.972   0.243   3.388 -1.0325  1.1514  0.1672
 1225TIP3   OH2 3638   4.057   1.320   2.953  0.5399 -0.4110 -0.2507
 1225TIP3    H1 3639   4.053   1.236   2.997  1.4703 -0.7345 -0.7552
 1225TIP3    H2 3640   4.142   1.357   2.978 -0.7371  1.3885  1.7245
 1226TIP3   OH2 3641   7.052   6.638   4.144 -0.3027  0.1852 -0.0846
 1226TIP3    H1 3642   7.041   6.564   4.084 -3.0612 -0.7369  1.3898
 1226TIP3    H2 3643   6.997   6.708   4.107  1.5761  1.2719 -0.9799
 1227TIP3   OH2 3644   4.518   0.594   1.900  0.2346  0.0903  0.1714
 1227TIP3    H1 3645   4.607   0.620   1.876  0.0995  0.3330 -0.0701
 1227TIP3    H2 3646   4.530   0.529   1.969  0.5913  0.3695  0.3737
 1228TIP3   OH2 3647   2.674   4.034   4.867 -0.3622 -0.0372  0.1176
 1228TIP3    H1 3648   2.610   3.967   4.892 -1.8242  0.6855 -1.4861
 1228TIP3    H2 3649   2.722   3.993   4.795  0.0967 -0.0831  0.4477
 1229TIP3   OH2 3650   2.274   4.649   3.805 -0.2452  0.0023 -0.0567
 1229TIP3    H1 3651   2.316   4.643   3.890  1.4964  0.4999 -0.8362
 1229TIP3    H2 3652   2.320   4.720   3.761 -2.0513  0.6886 -0.9115
 1230TIP3   OH2 3653   6.040   2.909   3.928  0.2019  0.0537  0.4899
 1230TIP3    H1 3654   6.100   2.961   3.982 -0.3548  2.1321 -0.7958
 1230TIP3    H2 3655   5.984   2.974   3.885 -0.0278 -1.5540 -1.8201
 1231TIP3   OH2 3656   0.065   5.251   5.820  0.2110  0.4270 -0.5006
 1231TIP3    H1 3657   0.097   5.186   5.757 -0.3771 -1.3461  0.9297
 1231TIP3    H2 3658  -0.004   5.298   5.773 -0.7910 -1.4229 -0.9696
 1232TIP3   OH2 3659   0.125   0.803   0.456 -0.1637  0.2171 -0.0680
 1232TIP3    H1 3660   0.105   0.810   0.549  0.5898  0.8824  0.0519
 1232TIP3    H2 3661   0.070   0.869   0.415 -0.6648 -0.2306 -0.1298
 1233TIP3   OH2 3662   4.595   2.258   4.493  0.3519 -0.8367 -0.5020
 1233TIP3    H1 3663   4.573   2.210   4.414 -0.4195  0.3105 -1.0107
 1233TIP3    H2 3664   4.522   2.241   4.553 -1.6507  2.2075 -1.8500
 1234TIP3   OH2 3665   7.096   2.015   5.593  0.2275  0.0705  0.0149
 1234TIP3    H1 3666   7.088   1.957   5.517 -2.0793  1.6553 -1.0618
 1234TIP3    H2 3667   7.092   1.956   5.668 -0.8989 -1.2656 -1.0331
 1235TIP3   OH2 3668   0.353   1.492   3.276 -0.5239 -0.1760 -0.5709
 1235TIP3    H1 3669   0.286   1.551   3.308 -1.3377 -1.5084  0.2983
 1235TIP3    H2 3670   0.432   1.546   3.269 -1.3418  1.0959 -0.2723
 1236TIP3   OH2 3671   0.205   6.299   5.837  0.6025 -0.0761 -0.0648
 1236TIP3    H1 3672   0.164   6.364   5.895  2.0840  1.0006 -0.1693
 1236TIP3    H2 3673   0.233   6.349   5.761  3.5047 -0.3924  0.6883
 1237TIP3   OH2 3674   4.832   6.642   4.034 -0.3465  0.1920 -0.2910
 1237TIP3    H1 3675   4.861   6.552   4.050 -2.7297 -0.7578 -0.8858
 1237TIP3    H2 3676   4.844   6.687   4.118 -0.9314 -1.2497  0.6004
 1238TIP3   OH2 3677   4.920   6.252   0.354  0.1641 -0.4739 -0.4987
 1238TIP3    H1 3678   4.922   6.245   0.450 -0.4673  0.9557 -0.3609
 1238TIP3    H2 3679   4.855   6.320   0.337  1.4462  0.4361 -1.8934
 1239TIP3   OH2 3680   4.734   3.819   5.126 -0.2942 -0.0994  0.2708
 1239TIP3    H1 3681   4.711   3.752   5.190 -0.5836 -1.3326 -1.0611
 1239TIP3    H2 3682   4.830   3.823   5.129 -0.2446 -0.9082  0.0571
 1240TIP3   OH2 3683   6.528   1.384   4.900 -0.2477 -0.5110  0.0366
 1240TIP3    H1 3684   6.473   1.331   4.842  0.6079 -0.4515 -0.8441
 1240TIP3    H2 3685   6.510   1.474   4.875  0.0740 -0.4812 -0.0851
 1241TIP3   OH2 3686   5.123   1.235   0.974  0.3591 -0.3418  0.1044
 1241TIP3    H1 3687   5.191   1.299   0.995  0.8700 -0.7396 -0.3191
 1241TIP3    H2 3688   5.141   1.160   1.031  0.8694 -0.8363 -0.6820
 1242TIP3   OH2 3689   5.219   5.628   3.161  0.3110 -0.1823 -0.5671
 1242TIP3    H1 3690   5.220   5.690   3.234  3.1831  1.0114 -1.4562
 1242TIP3    H2 3691   5.222   5.542   3.202  0.2886  0.4005  0.7004
 1243TIP3   OH2 3692   0.945   2.950   3.643 -0.3709  0.1659 -0.3519
 1243TIP3    H1 3693   0.873   3.013   3.654 -1.6943 -1.6372  2.5623
 1243TIP3    H2 3694   1.003   2.969   3.716 -0.0882 -1.1067 -0.2346
 1244TIP3   OH2 3695   4.439   5.824   3.837  0.1290 -0.0009  0.1402
 1244TIP3    H1 3696   4.426   5.846   3.929 -0.3213 -1.5377  0.4723
 1244TIP3    H2 3697   4.374   5.876   3.790 -0.3588 -0.0050  0.8020
 1245TIP3   OH2 3698   5.140   3.039   1.608 -0.2072 -0.2006 -0.0071
 1245TIP3    H1 3699   5.054   3.056   1.648 -0.6122  1.4321 -1.4559
 1245TIP3    H2 3700   5.137   3.084   1.524  1.8664 -0.6255 -0.3664
 1246TIP3   OH2 3701   3.665   5.802   4.190 -0.1915 -0.1460  0.3348
 1246TIP3    H1 3702   3.625   5.715   4.195  3.6209 -2.1796 -0.2344
 1246TIP3    H2 3703   3.679   5.817   4.096 -0.9662  1.2331  0.4099
 1247TIP3   OH2 3704   4.043   1.847   4.746  0.0058 -0.2214 -0.0435
 1247TIP3    H1 3705   4.135   1.847   4.770  0.3821 -1.1861 -1.3642
 1247TIP3    H2 3706   4.043   1.865   4.652 -1.2207  0.7924  0.1285
 1248TIP3   OH2 3707   4.010   6.716   0.894  0.0715  0.0358 -0.3582
 1248TIP3    H1 3708   3.988   6.771   0.818  0.6654 -0.1215 -0.6506
 1248TIP3    H2 3709   4.000   6.774   0.969  1.9171  0.9493 -0.7568
 1249TIP3   OH2 3710   2.420   5.425   4.912  0.1764 -0.3774 -0.2777
 1249TIP3    H1 3711   2.410   5.502   4.856 -0.8194 -0.1162  0.2314
 1249TIP3    H2 3712   2.468   5.457   4.989 -0.1021 -0.2941 -0.1365
 1250TIP3   OH2 3713   1.877   6.502   3.288 -0.0952  0.8863 -0.4803
 1250TIP3    H1 3714   1.825   6.467   3.216 -0.1918  0.3237 -0.1446
 1250TIP3    H2 3715   1.910   6.585   3.255 -1.1795  1.2465 -0.7209
 1251TIP3   OH2 3716   7.001   1.414   0.912  0.0930 -0.8934  0.3203
 1251TIP3    H1 3717   7.050   1.496   0.912 -2.1882  0.5732  1.8134
 1251TIP3    H2 3718   7.047   1.358   0.975  0.4074  0.0861  0.9778
 1252TIP3   OH2 3719   5.684   1.727   4.923  0.5982 -0.5064  0.4011
 1252TIP3    H1 3720   5.740   1.683   4.987  1.5387  0.3610  0.1883
 1252TIP3    H2 3721   5.623   1.778   4.976 -0.1326 -1.5799  0.6361
 1253TIP3   OH2 3722   5.282   3.476   0.669 -0.4333 -0.1350 -0.0475
 1253TIP3    H1 3723   5.312   3.442   0.753  3.1537  1.4653 -0.4983
 1253TIP3    H2 3724   5.220   3.545   0.691 -2.7524 -2.3815  1.0238
 1254TIP3   OH2 3725   2.892   2.158   0.448 -0.8213  0.2739 -0.0153
 1254TIP3    H1 3726   2.955   2.161   0.520  0.5377 -1.0959 -1.0848
 1254TIP3    H2 3727   2.823   2.100   0.479  0.5450 -1.6096 -0.3577
 1255TIP3   OH2 3728   4.818   1.808   5.157 -0.3233 -0.5386 -0.2797
 1255TIP3    H1 3729   4.811   1.800   5.252  0.0617  0.4378 -0.1489
 1255TIP3    H2 3730   4.728   1.814   5.126 -0.4314  0.2786  0.1550
 1256TIP3   OH2 3731   4.210   4.628   1.912 -0.1149 -0.1101  0.3862
 1256TIP3    H1 3732   4.134   4.639   1.854 -1.8201  1.4229  2.7291
 1256TIP3    H2 3733   4.203   4.538   1.943  0.3549 -0.6879 -1.0947
 1257TIP3   OH2 3734   2.014   1.282   0.784  1.1334  0.2219 -0.1345
 1257TIP3    H1 3735   2.039   1.190   0.780  0.4617  0.0777 -1.8544
 1257TIP3    H2 3736   1.979   1.294   0.872  1.1172 -1.1947  0.0691
 1258TIP3   OH2 3737   6.955   3.174   0.065 -0.2483  0.1977 -0.1215
 1258TIP3    H1 3738   6.989   3.134   0.146  2.2498  0.2429 -1.0627
 1258TIP3    H2 3739   6.987   3.264   0.068 -0.3075  0.2553 -1.0815
 1259TIP3   OH2 3740   2.744   1.987   5.829  0.8251  0.1861 -0.6559
 1259TIP3    H1 3741   2.760   2.082   5.835  0.2232  0.2398  0.4920
 1259TIP3    H2 3742   2.791   1.951   5.904  0.9699 -0.4228 -1.0376
 1260TIP3   OH2 3743   3.036   5.520   4.163  0.0671 -0.1528 -1.0326
 1260TIP3    H1 3744   3.093   5.582   4.118 -1.6087  1.6723 -0.7776
 1260TIP3    H2 3745   2.948   5.548   4.142 -0.7671 -1.2522  0.7149
 1261TIP3   OH2 3746   7.088   1.240   0.114 -0.3094 -0.0160  0.1077
 1261TIP3    H1 3747   7.183   1.254   0.117  0.1305 -2.5953  0.9207
 1261TIP3    H2 3748   7.050   1.326   0.135  1.8368  1.0133  0.0156
 1262TIP3   OH2 3749   4.442   5.975   1.564  0.3224 -0.5818  0.5717
 1262TIP3    H1 3750   4.499   5.915   1.612  0.0304 -0.9524  0.4640
 1262TIP3    H2 3751   4.407   6.034   1.632  1.6416  0.3325  0.4943
 1263TIP3   OH2 3752   1.906   3.814   0.219 -0.2103  0.0009 -0.2519
 1263TIP3    H1 3753   1.936   3.723   0.225 -1.4356 -0.3358  1.4896
 1263TIP3    H2 3754   1.986   3.865   0.205  0.6773 -1.2162  0.2094
 1264TIP3   OH2 3755   5.077   6.405   4.852 -0.5185 -0.3673  0.4384
 1264TIP3    H1 3756   5.076   6.371   4.941  0.3841 -0.0383  0.5877
 1264TIP3    H2 3757   5.050   6.496   4.861 -1.4064 -0.6023  0.2389
 1265TIP3   OH2 3758   6.608   5.491   3.707  0.7383 -0.2743  0.0832
 1265TIP3    H1 3759   6.664   5.566   3.691  0.3762  0.0686  0.4140
 1265TIP3    H2 3760   6.532   5.505   3.651  1.0200 -0.7940 -0.4503
 1266TIP3   OH2 3761   3.164   4.148   3.658 -0.4182 -0.6121 -0.1385
 1266TIP3    H1 3762   3.160   4.093   3.737 -0.6790  0.9739  0.9855
 1266TIP3    H2 3763   3.115   4.227   3.681  2.2100  1.3038 -0.7109
 1267TIP3   OH2 3764   3.804   1.185   5.032 -0.2869  0.1848  0.7476
 1267TIP3    H1 3765   3.783   1.094   5.053 -1.8868  0.3934  0.2089
 1267TIP3    H2 3766   3.751   1.236   5.094 -1.0444  0.7422 -0.3269
 1268TIP3   OH2 3767   0.650   6.618   2.971 -0.2688 -0.1462  0.2934
 1268TIP3    H1 3768   0.568   6.595   2.927 -2.0645  1.5164  2.4904
 1268TIP3    H2 3769   0.668   6.543   3.028 -0.1218 -0.6243 -0.3788
 1269TIP3   OH2 3770   7.160   1.267   2.063 -0.4175 -0.1839  0.2739
 1269TIP3    H1 3771   7.131   1.277   2.153  0.1627 -2.0688  0.7238
 1269TIP3    H2 3772   7.241   1.216   2.069 -0.0431  0.1707 -1.2683
 1270TIP3   OH2 3773   2.308   6.036   0.477 -0.2038  0.4362  0.0358
 1270TIP3    H1 3774   2.242   6.008   0.413 -0.2607  0.2353  0.1803
 1270TIP3    H2 3775   2.389   6.043   0.427  0.0103 -0.8689  0.1613
 1271TIP3   OH2 3776   0.740   5.547   3.909 -0.2419  0.5026  0.0652
 1271TIP3    H1 3777   0.714   5.555   3.817 -2.0882  2.3576  0.6624
 1271TIP3    H2 3778   0.751   5.637   3.938 -0.7744  0.0078  1.9395
 1272TIP3   OH2 3779   5.107   4.909   4.229  0.0423  0.4166 -0.5819
 1272TIP3    H1 3780   5.028   4.860   4.208  0.9215 -1.1941 -0.2386
 1272TIP3    H2 3781   5.133   4.876   4.315  1.0792  0.9723 -0.6706
 1273TIP3   OH2 3782   2.691   0.937   5.693 -0.1087  0.1859  0.5067
 1273TIP3    H1 3783   2.597   0.929   5.707 -0.6597  3.1496 -0.6108
 1273TIP3    H2 3784   2.731   0.878   5.757 -2.6872 -0.2342  1.8517
 1274TIP3   OH2 3785   2.355   1.974   3.812  0.1106  0.3273 -0.3137
 1274TIP3    H1 3786   2.296   1.946   3.743  0.6702 -0.0906 -0.6315
 1274TIP3    H2 3787   2.366   2.068   3.798  0.0610  0.2788 -0.6685
 1275TIP3   OH2 3788   0.327   4.845   1.870 -0.1593  0.0000  0.1230
 1275TIP3    H1 3789   0.305   4.863   1.961  0.2050 -0.4068  0.2957
 1275TIP3    H2 3790   0.408   4.794   1.874  0.5796  1.0743 -0.4725
 1276TIP3   OH2 3791   6.430   1.150   0.847 -0.4147 -0.0989  0.2718
 1276TIP3    H1 3792   6.382   1.067   0.848 -0.1796 -0.2345  0.3092
 1276TIP3    H2 3793   6.522   1.125   0.836  0.0854 -0.0272  3.4872
 1277TIP3   OH2 3794   1.047   3.473   5.680  0.2426  0.6457  0.4923
 1277TIP3    H1 3795   1.114   3.531   5.645 -0.6418  1.2135 -0.3355
 1277TIP3    H2 3796   1.084   3.437   5.760  1.2274  1.5227  0.4372
 1278TIP3   OH2 3797   5.901   6.020   4.370 -0.3878  0.0563  0.2146
 1278TIP3    H1 3798   5.874   6.092   4.312  1.0718  0.8415  0.4746
 1278TIP3    H2 3799   5.890   6.055   4.458 -0.4526 -0.3349  0.3601
 1279TIP3   OH2 3800   3.016   5.990   1.141  0.3846 -0.2528  0.3398
 1279TIP3    H1 3801   2.921   5.997   1.131  0.4425 -1.0155 -1.0741
 1279TIP3    H2 3802   3.028   5.947   1.226 -0.5429 -0.5314  0.3427
 1280TIP3   OH2 3803   2.394   2.328   4.416 -0.2823 -0.0935  0.1124
 1280TIP3    H1 3804   2.365   2.419   4.409 -1.8058 -0.6114 -0.7737
 1280TIP3    H2 3805   2.479   2.328   4.372 -0.2744  0.9007  0.0937
 1281TIP3   OH2 3806   5.147   4.842   2.207  0.0948 -0.1509 -0.4578
 1281TIP3    H1 3807   5.224   4.822   2.154 -0.0051 -1.7144 -0.0463
 1281TIP3    H2 3808   5.119   4.928   2.176  2.2318  0.6676 -0.3354
 1282TIP3   OH2 3809   6.868   2.988   0.788 -0.6670  0.0804 -0.0014
 1282TIP3    H1 3810   6.872   2.897   0.817 -0.8783  0.3769  0.9875
 1282TIP3    H2 3811   6.893   2.985   0.695 -0.7893 -0.9931 -0.0072
 1283TIP3   OH2 3812   7.159   4.861   3.966  0.7066 -0.1082 -0.2477
 1283TIP3    H1 3813   7.114   4.945   3.978 -0.7159 -0.9632  0.6246
 1283TIP3    H2 3814   7.091   4.802   3.933  1.8782 -0.7438 -1.6177
 1284TIP3   OH2 3815   1.224   3.465   1.783 -0.5439  0.1654 -0.5109
 1284TIP3    H1 3816   1.302   3.432   1.827 -1.1997 -0.3959  0.2591
 1284TIP3    H2 3817   1.156   3.465   1.851 -1.6309 -0.8679 -1.5498
 1285TIP3   OH2 3818   3.071   6.078   3.889  0.0003 -0.0247  0.1354
 1285TIP3    H1 3819   3.053   5.991   3.854 -2.6059  0.7044 -0.5936
 1285TIP3    H2 3820   3.038   6.075   3.978  0.6130  0.0124  0.3665
 1286TIP3   OH2 3821   3.366   3.979   2.874 -0.2533 -0.4885  0.1462
 1286TIP3    H1 3822   3.385   3.959   2.965  0.1641 -0.8859 -0.0238
 1286TIP3    H2 3823   3.428   3.926   2.824  0.1377  0.4003 -0.3444
 1287TIP3   OH2 3824   3.179   5.683   4.697  0.3804  0.8447 -0.0599
 1287TIP3    H1 3825   3.246   5.636   4.647 -0.1874  0.4952 -0.5092
 1287TIP3    H2 3826   3.138   5.616   4.752  1.5563  1.3780  1.5202
 1288TIP3   OH2 3827   4.517   6.351   4.959  0.4583  0.2494  0.3627
 1288TIP3    H1 3828   4.609   6.335   4.938  0.3349  0.6309 -0.5414
 1288TIP3    H2 3829   4.468   6.299   4.895  0.0124 -1.4929  2.0581
 1289TIP3   OH2 3830   3.689   1.102   2.462  0.1560 -0.5665  0.0993
 1289TIP3    H1 3831   3.707   1.182   2.413  1.4932 -1.4666 -0.9452
 1289TIP3    H2 3832   3.755   1.040   2.432 -1.2770 -2.2953  0.3648
 1290TIP3   OH2 3833   2.596  -0.005   3.517 -0.6436 -0.1901 -0.4410
 1290TIP3    H1 3834   2.633   0.076   3.484 -0.9073 -0.0910 -0.4983
 1290TIP3    H2 3835   2.506   0.019   3.542 -1.3141 -0.8527 -2.0695
 1291TIP3   OH2 3836   3.169   3.194   1.370 -0.4117 -0.3225  0.4955
 1291TIP3    H1 3837   3.103   3.138   1.412 -0.8245  0.9610  1.6568
 1291TIP3    H2 3838   3.246   3.187   1.426  1.0186 -2.8608 -1.5687
 1292TIP3   OH2 3839   5.743   0.260   0.274 -0.5042  0.4489  0.2501
 1292TIP3    H1 3840   5.710   0.235   0.360 -0.3915  0.6829  0.3630
 1292TIP3    H2 3841   5.808   0.193   0.253 -3.1577 -1.8524 -1.3506
 1293TIP3   OH2 3842   6.201   6.012   3.067 -0.1388 -0.3011  0.0214
 1293TIP3    H1 3843   6.139   6.084   3.056  0.4476  0.3900  1.0329
 1293TIP3    H2 3844   6.287   6.053   3.057  0.1956 -0.8774  0.5071
 1294TIP3   OH2 3845   7.071   4.220   5.408 -0.5104  0.2476 -0.2982
 1294TIP3    H1 3846   7.018   4.143   5.388 -0.0805 -0.4005  0.8986
 1294TIP3    H2 3847   7.119   4.238   5.328 -1.7646  0.2225 -1.0781
 1295TIP3   OH2 3848   1.781   5.210   2.745 -0.1678 -0.5369  0.7120
 1295TIP3    H1 3849   1.744   5.148   2.808 -1.6693 -0.8950 -0.4529
 1295TIP3    H2 3850   1.769   5.168   2.660  0.4996  0.5529  0.0533
 1296TIP3   OH2 3851   0.240   0.849   5.108 -0.3569  0.0370  0.4091
 1296TIP3    H1 3852   0.188   0.798   5.170  0.1660  0.2183  1.0007
 1296TIP3    H2 3853   0.190   0.929   5.095 -1.0677 -0.5099 -0.3461
 1297TIP3   OH2 3854   2.252   4.289   1.376  0.1584  0.3466 -0.0823
 1297TIP3    H1 3855   2.259   4.332   1.291 -0.9228 -0.7191 -0.7279
 1297TIP3    H2 3856   2.164   4.253   1.378  0.3785 -0.1667  1.2482
 1298TIP3   OH2 3857   0.939   3.650   0.960 -0.1081 -0.6631  0.3569
 1298TIP3    H1 3858   1.011   3.710   0.980 -0.8846  0.3161  0.2966
 1298TIP3    H2 3859   0.982   3.570   0.930  0.9484  0.0912 -0.2193
 1299TIP3   OH2 3860   3.435   4.893   1.410 -0.2804 -0.0411  0.9011
 1299TIP3    H1 3861   3.377   4.894   1.487  0.3283  0.6522  1.3716
 1299TIP3    H2 3862   3.430   4.982   1.376  2.8991  1.0522  2.8452
 1300TIP3   OH2 3863   0.882   5.329   2.952 -0.0102  0.0347 -0.0561
 1300TIP3    H1 3864   0.876   5.243   2.911  2.7567 -0.7527  0.9303
 1300TIP3    H2 3865   0.793   5.348   2.982 -0.8537 -2.0838 -1.0291
 1301TIP3   OH2 3866   5.121   3.948   1.721 -0.2685 -0.2459 -0.3013
 1301TIP3    H1 3867   5.074   3.999   1.787 -0.4980  0.0894 -0.7240
 1301TIP3    H2 3868   5.069   3.869   1.709 -0.3510 -0.1978 -0.2574
 1302TIP3   OH2 3869   1.739   1.066   5.847 -0.1194 -0.0818  0.2399
 1302TIP3    H1 3870   1.789   0.988   5.825  0.3112 -0.1753  1.4808
 1302TIP3    H2 3871   1.803   1.137   5.845 -0.3940  0.1571 -0.3204
 1303TIP3   OH2 3872   5.467   5.492   2.947 -0.5667  0.5695  0.4185
 1303TIP3    H1 3873   5.440   5.401   2.959 -1.0109  0.8445  1.6290
 1303TIP3    H2 3874   5.391   5.535   2.908 -0.3633  0.4439 -0.1362
 1304TIP3   OH2 3875   5.991   5.202   2.853  0.2015 -0.2053  0.0830
 1304TIP3    H1 3876   5.946   5.271   2.903 -1.1823 -1.0074 -0.0213
 1304TIP3    H2 3877   6.007   5.242   2.768 -0.5336  0.0242  0.0418
 1305TIP3   OH2 3878   5.869   5.130   4.531  0.1469  0.3099 -0.2359
 1305TIP3    H1 3879   5.955   5.145   4.569 -1.0517  1.8425  2.0411
 1305TIP3    H2 3880   5.837   5.217   4.507 -0.2977 -0.3564 -2.3016
 1306TIP3   OH2 3881   2.816   2.741   3.663 -0.1167 -0.5094  0.4554
 1306TIP3    H1 3882   2.800   2.777   3.576 -0.7020  0.7374  1.0651
 1306TIP3    H2 3883   2.739   2.687   3.682 -0.2103 -0.3961  0.3967
 1307TIP3   OH2 3884   2.876   3.478   2.634 -0.2479 -0.1397  0.2978
 1307TIP3    H1 3885   2.949   3.440   2.683  1.0788  1.6767 -0.1725
 1307TIP3    H2 3886   2.860   3.416   2.562  0.2671 -0.9615  0.8749
 1308TIP3   OH2 3887   3.580   0.930   4.748  0.1311  0.1173 -0.4213
 1308TIP3    H1 3888   3.527   0.898   4.822  1.1769  2.7627  1.6635
 1308TIP3    H2 3889   3.623   0.852   4.714 -2.0307 -1.5262  0.3676
 1309TIP3   OH2 3890   3.708   1.810   0.393  0.0211  0.1550  0.3044
 1309TIP3    H1 3891   3.652   1.885   0.376 -0.9586 -0.7955 -0.8385
 1309TIP3    H2 3892   3.717   1.767   0.308 -0.7561 -1.9101  1.2198
 1310TIP3   OH2 3893   1.579   1.676   0.888  0.0754 -0.0269  0.0990
 1310TIP3    H1 3894   1.625   1.723   0.819  1.2434  0.7633  1.3741
 1310TIP3    H2 3895   1.605   1.720   0.969 -3.0882  0.6201  0.9007
 1311TIP3   OH2 3896   6.224   4.288   3.722  0.7819 -0.5850 -0.6327
 1311TIP3    H1 3897   6.297   4.327   3.673  0.6445  1.1587  0.4608
 1311TIP3    H2 3898   6.155   4.354   3.719 -1.1240 -2.4863 -2.2793
 1312TIP3   OH2 3899   6.856   5.105   3.113  0.2164 -0.0964 -0.1362
 1312TIP3    H1 3900   6.847   5.137   3.024  0.4885 -1.8948 -0.8597
 1312TIP3    H2 3901   6.793   5.033   3.120 -1.4406  1.4433  1.8855
 1313TIP3   OH2 3902   1.103   5.184   4.562 -0.5926 -0.1279  0.0754
 1313TIP3    H1 3903   1.090   5.096   4.525  2.6007 -0.8549  0.4083
 1313TIP3    H2 3904   1.080   5.174   4.655 -0.7089 -0.4674  0.0127
 1314TIP3   OH2 3905   6.333   3.819   0.196 -0.1190  0.4546 -0.8313
 1314TIP3    H1 3906   6.356   3.895   0.249  0.6099  0.8687 -1.7019
 1314TIP3    H2 3907   6.243   3.798   0.221 -0.5945  2.0511 -1.0737
 1315TIP3   OH2 3908   2.079   5.461   1.593 -0.0053 -0.0083 -0.4871
 1315TIP3    H1 3909   1.984   5.467   1.583  0.0115  0.5875 -0.2915
 1315TIP3    H2 3910   2.097   5.367   1.586 -0.8562 -0.4006  1.6892
 1316TIP3   OH2 3911   4.006   4.642   5.439  0.0665 -0.0265 -0.0177
 1316TIP3    H1 3912   4.053   4.586   5.377 -0.8510 -0.9033  0.0455
 1316TIP3    H2 3913   4.005   4.591   5.520  1.1337  1.0549  0.7053
 1317TIP3   OH2 3914   1.659   0.620   5.040  0.2171 -0.1707 -0.1365
 1317TIP3    H1 3915   1.574   0.575   5.035 -1.0053  2.1065 -1.2623
 1317TIP3    H2 3916   1.665   0.668   4.958  0.1831  3.7356  1.9367
 1318TIP3   OH2 3917   2.347   1.881   5.600  0.3829  0.4157  0.6070
 1318TIP3    H1 3918   2.441   1.863   5.608  0.6224  0.4606 -1.4519
 1318TIP3    H2 3919   2.309   1.796   5.580  0.2794  0.6941 -0.4443
 1319TIP3   OH2 3920   0.639   6.187   0.213  0.5630  0.6948 -0.4192
 1319TIP3    H1 3921   0.611   6.194   0.304  1.1975  0.1335 -0.1740
 1319TIP3    H2 3922   0.720   6.238   0.208  0.1544  1.3224 -0.8464
 1320TIP3   OH2 3923   5.562   2.066   5.325  0.2514  0.2502 -0.4268
 1320TIP3    H1 3924   5.497   2.100   5.386  1.5277  1.8123  0.1464
 1320TIP3    H2 3925   5.600   1.990   5.371 -0.0633  0.3070 -0.0685
 1321TIP3   OH2 3926   2.820   1.126   2.488  0.1297 -0.4566  0.2533
 1321TIP3    H1 3927   2.861   1.123   2.575  3.7272 -0.3300 -1.2581
 1321TIP3    H2 3928   2.803   1.219   2.472  2.1980 -0.1008 -0.2126
 1322TIP3   OH2 3929   6.040   5.468   1.096  0.5677  0.0667 -0.1216
 1322TIP3    H1 3930   6.045   5.475   1.191 -0.5397 -1.3492  0.0718
 1322TIP3    H2 3931   6.019   5.376   1.079 -4.5730  1.1126 -1.3809
 1323TIP3   OH2 3932   2.724   3.678   3.819  0.6591 -0.2198  0.3809
 1323TIP3    H1 3933   2.774   3.596   3.827  0.4929 -0.4453 -0.7881
 1323TIP3    H2 3934   2.790   3.743   3.795  0.5724 -0.2973 -0.0752
 1324TIP3   OH2 3935   1.181   4.785   5.038  0.2368 -0.0800  0.4640
 1324TIP3    H1 3936   1.116   4.785   4.967 -0.4065 -2.4995  0.9445
 1324TIP3    H2 3937   1.255   4.737   5.001  0.9776  0.9646  0.5738
 1325TIP3   OH2 3938   5.818   0.846   1.416 -0.1206 -0.1490  0.2166
 1325TIP3    H1 3939   5.786   0.761   1.447  0.8730 -0.2376  1.0289
 1325TIP3    H2 3940   5.895   0.864   1.469 -2.0298  2.7156  2.2920
 1326TIP3   OH2 3941   2.139   3.487   3.506 -0.0556  0.2152  0.4049
 1326TIP3    H1 3942   2.043   3.493   3.511 -0.0346 -0.1468  1.4141
 1326TIP3    H2 3943   2.166   3.575   3.480 -0.7106  0.0875 -0.7588
 1327TIP3   OH2 3944   5.223   3.330   3.530  0.3249 -0.3407 -0.0696
 1327TIP3    H1 3945   5.157   3.318   3.461 -0.1422  0.8776  0.1424
 1327TIP3    H2 3946   5.273   3.406   3.501 -0.1573  0.4555  1.1495
 1328TIP3   OH2 3947   2.958   4.198   2.978 -0.1581 -0.1684  0.0719
 1328TIP3    H1 3948   2.934   4.174   3.067  0.4601  0.6942  0.4880
 1328TIP3    H2 3949   3.010   4.124   2.946  1.6753  0.5306  1.3079
 1329TIP3   OH2 3950   1.594   5.345   3.461 -0.3664  0.2444 -0.4127
 1329TIP3    H1 3951   1.511   5.338   3.413 -0.3013 -0.7467 -0.4103
 1329TIP3    H2 3952   1.629   5.431   3.437 -1.7702  1.0200  0.2057
 1330TIP3   OH2 3953   2.608   2.101   3.675  0.1715  0.1521 -0.3213
 1330TIP3    H1 3954   2.655   2.102   3.758  1.4598 -0.0731 -1.0249
 1330TIP3    H2 3955   2.546   2.174   3.681  1.7022  1.4734  0.0395
 1331TIP3   OH2 3956   2.106   5.487   5.131 -0.4142 -0.1101 -0.6744
 1331TIP3    H1 3957   2.142   5.472   5.043  1.3493  0.5723 -0.1118
 1331TIP3    H2 3958   2.024   5.534   5.115  0.7201  1.5628 -1.9433
 1332TIP3   OH2 3959   7.181   2.541   3.910 -0.3383 -0.2241 -0.6823
 1332TIP3    H1 3960   7.126   2.612   3.878 -0.1925  0.4589  0.5098
 1332TIP3    H2 3961   7.234   2.515   3.834  0.3388  1.6502 -0.8955
 1333TIP3   OH2 3962   7.088   4.628   3.655  0.3762 -0.2474  0.1840
 1333TIP3    H1 3963   7.096   4.720   3.630  0.2017 -0.4463 -0.6369
 1333TIP3    H2 3964   7.065   4.583   3.574  1.6595 -1.1970  0.3231
 1334TIP3   OH2 3965   5.611   1.732   0.274  0.3046  0.9572 -0.3822
 1334TIP3    H1 3966   5.597   1.706   0.365  1.8553 -0.4195 -0.4710
 1334TIP3    H2 3967   5.574   1.820   0.268  0.5975  1.2912  1.7144
 1335TIP3   OH2 3968   0.812   3.894   2.117  0.0602  0.6179 -0.5348
 1335TIP3    H1 3969   0.818   3.986   2.092  1.6865  0.4990 -0.6537
 1335TIP3    H2 3970   0.880   3.882   2.184 -0.8996 -0.2356  0.3264
 1336TIP3   OH2 3971   3.343   0.382   4.029  0.1662 -0.2148  0.1574
 1336TIP3    H1 3972   3.426   0.429   4.039  0.6264 -1.0587  0.4359
 1336TIP3    H2 3973   3.340   0.358   3.937  0.2511 -0.2275  0.1577
 1337TIP3   OH2 3974   1.325   4.421   0.122  0.0983 -0.1248  0.1792
 1337TIP3    H1 3975   1.378   4.419   0.042  2.0433  1.6881  1.3282
 1337TIP3    H2 3976   1.301   4.513   0.132 -0.8521 -0.4717  1.2446
 1338TIP3   OH2 3977   4.735   6.273   4.507  0.4770 -0.2215 -0.3386
 1338TIP3    H1 3978   4.770   6.362   4.501  3.3714 -1.2882 -0.8378
 1338TIP3    H2 3979   4.786   6.231   4.576  0.5498 -2.0264 -1.4021
 1339TIP3   OH2 3980   2.867   5.552   0.301  0.3389  0.0559 -0.6696
 1339TIP3    H1 3981   2.812   5.580   0.374 -1.7894 -2.1522 -1.2993
 1339TIP3    H2 3982   2.956   5.574   0.329 -0.5315  0.7824  1.8551
 1340TIP3   OH2 3983   1.120   3.888   5.903 -0.4447 -0.5132  0.2422
 1340TIP3    H1 3984   1.055   3.950   5.936 -0.6371 -1.3071  1.4111
 1340TIP3    H2 3985   1.104   3.884   5.809 -1.1269  0.4023  0.3129
 1341TIP3   OH2 3986   0.346   3.371   0.817 -0.4043  0.4088 -0.1127
 1341TIP3    H1 3987   0.267   3.412   0.784  0.5634  1.1579 -1.6338
 1341TIP3    H2 3988   0.339   3.376   0.912 -1.4020  1.9818 -0.2392
 1342TIP3   OH2 3989   6.257   0.897   3.361 -0.4763  0.4793  0.3283
 1342TIP3    H1 3990   6.246   0.818   3.413 -0.8006  0.7355  0.6473
 1342TIP3    H2 3991   6.352   0.910   3.357 -0.3778 -0.4024 -0.4493
 1343TIP3   OH2 3992   0.229   4.638   4.509 -0.2800  0.0227 -0.7462
 1343TIP3    H1 3993   0.178   4.582   4.449  0.1570 -1.3976  0.1628
 1343TIP3    H2 3994   0.245   4.718   4.459 -2.9701  0.3433 -1.2598
 1344TIP3   OH2 3995   2.307   3.557   4.770 -0.1122 -0.4421  0.4658
 1344TIP3    H1 3996   2.335   3.486   4.712  1.3138  0.6461 -0.2437
 1344TIP3    H2 3997   2.212   3.545   4.779 -0.0341 -1.8841 -0.3767
 1345TIP3   OH2 3998   1.284   4.349   1.315  0.5518  0.2749 -0.1979
 1345TIP3    H1 3999   1.262   4.271   1.365  0.2167  0.6079  0.1798
 1345TIP3    H2 4000   1.239   4.420   1.360  2.0326  0.9186  0.3199
 1346TIP3   OH2 4001   2.286   0.052   2.105  0.2023 -0.1742  0.4367
 1346TIP3    H1 4002   2.341   0.113   2.154  0.6354 -0.9229  0.9072
 1346TIP3    H2 4003   2.197   0.081   2.122  0.4246  0.9319 -0.1616
 1347TIP3   OH2 4004   3.645   6.033   1.229 -0.2189  0.5000  0.5168
 1347TIP3    H1 4005   3.677   6.077   1.150 -0.7141 -1.9971 -1.2046
 1347TIP3    H2 4006   3.587   6.097   1.270  0.6970  2.1728 -0.6838
 1348TIP3   OH2 4007   3.619   0.581   0.356 -0.1185  0.2926 -0.1127
 1348TIP3    H1 4008   3.539   0.557   0.309  2.1671 -2.1838 -3.2087
 1348TIP3    H2 4009   3.609   0.674   0.375 -3.1081  0.3914 -1.5986
 1349TIP3   OH2 4010   6.383   5.673   5.012  0.3716 -0.4235  0.4570
 1349TIP3    H1 4011   6.407   5.700   5.101 -0.3107 -0.7212  0.7350
 1349TIP3    H2 4012   6.465   5.642   4.974  0.8447  0.4890  0.6915
 1350TIP3   OH2 4013   5.145   5.140   1.496 -0.3296  0.2213  0.4214
 1350TIP3    H1 4014   5.146   5.184   1.581 -2.4352 -1.8432  1.6353
 1350TIP3    H2 4015   5.219   5.080   1.499 -0.5636 -0.0438  0.9259
 1351TIP3   OH2 4016   4.401   1.207   5.321 -0.4113 -0.5246  0.3180
 1351TIP3    H1 4017   4.399   1.283   5.263 -1.0655 -0.7429  0.0438
 1351TIP3    H2 4018   4.396   1.243   5.409 -0.6975 -0.2481  0.1881
 1352TIP3   OH2 4019   3.650   0.230   0.159  0.5474 -0.2164  0.6960
 1352TIP3    H1 4020   3.720   0.291   0.182 -0.0749  0.1488  1.7125
 1352TIP3    H2 4021   3.570   0.274   0.188 -0.0605 -0.8498  0.0215
 1353TIP3   OH2 4022   6.063   0.009   2.403  0.0613 -0.1820 -0.1278
 1353TIP3    H1 4023   6.075   0.088   2.454  0.2303 -0.5847  0.4614
 1353TIP3    H2 4024   6.087   0.034   2.314  0.3997  0.3494  0.1114
 1354TIP3   OH2 4025   4.727   5.110   2.042 -0.4873  0.1832 -0.0154
 1354TIP3    H1 4026   4.678   5.141   2.118  0.8787  2.8404 -0.1075
 1354TIP3    H2 4027   4.798   5.057   2.079 -0.1349  1.0266  0.5453
 1355TIP3   OH2 4028   3.805   4.830   3.228  0.5664 -0.5386  0.5682
 1355TIP3    H1 4029   3.745   4.863   3.161  1.1414  0.5260  0.5671
 1355TIP3    H2 4030   3.754   4.762   3.273 -0.1183 -0.6866 -0.3898
 1356TIP3   OH2 4031   1.056   2.877   4.880 -0.7781 -0.3576 -0.0416
 1356TIP3    H1 4032   1.098   2.927   4.950 -1.4710 -0.4402  0.4391
 1356TIP3    H2 4033   1.082   2.923   4.800 -1.6499  1.0038  0.4046
 1357TIP3   OH2 4034   1.655   0.244   3.684 -0.4390 -0.2704  0.7729
 1357TIP3    H1 4035   1.651   0.285   3.598 -0.8680 -1.0132  0.4281
 1357TIP3    H2 4036   1.688   0.312   3.742 -4.1375  1.6140  0.9013
 1358TIP3   OH2 4037   2.720   1.586   1.504 -0.1103 -0.0364 -0.1334
 1358TIP3    H1 4038   2.740   1.532   1.581  0.3491  0.7676  0.3338
 1358TIP3    H2 4039   2.754   1.673   1.527 -1.5856  0.6734 -0.5066
 1359TIP3   OH2 4040   2.504   3.587   4.964 -0.5887  0.2359  0.0759
 1359TIP3    H1 4041   2.450   3.583   4.885 -1.7748 -2.3027  0.8748
 1359TIP3    H2 4042   2.460   3.527   5.025  1.8085 -0.0543  1.6539
 1360TIP3   OH2 4043   0.186   0.817   4.588 -0.1057  0.5167  0.3075
 1360TIP3    H1 4044   0.150   0.890   4.538  1.4070  0.5834 -0.7377
 1360TIP3    H2 4045   0.188   0.850   4.679 -1.0460  1.1146  0.1308
 1361TIP3   OH2 4046   1.229   2.782   3.320  0.0890  0.1631  0.3146
 1361TIP3    H1 4047   1.298   2.725   3.286 -0.3093 -1.0616  1.4547
 1361TIP3    H2 4048   1.152   2.726   3.323 -1.0381  1.5298 -1.0444
 1362TIP3   OH2 4049   1.499   6.564   2.111 -0.2092 -0.2412  0.0254
 1362TIP3    H1 4050   1.558   6.529   2.044 -0.8589 -0.0363 -0.6593
 1362TIP3    H2 4051   1.546   6.549   2.194  1.2333  0.7645 -0.5630
 1363TIP3   OH2 4052   3.627   5.276   2.348  0.0686  0.1289  0.3255
 1363TIP3    H1 4053   3.605   5.346   2.410  0.3047 -0.2646  0.8641
 1363TIP3    H2 4054   3.543   5.238   2.324 -0.0952  0.8423 -0.2758
 1364TIP3   OH2 4055   5.357   4.152   2.548 -0.6645  0.0080 -0.0443
 1364TIP3    H1 4056   5.376   4.151   2.454  0.1891  1.5993  0.0858
 1364TIP3    H2 4057   5.400   4.231   2.581 -0.9052 -0.5508  1.7064
 1365TIP3   OH2 4058   3.959   1.652   2.599  0.8590  0.1506 -0.6110
 1365TIP3    H1 4059   3.988   1.573   2.554  2.1591 -0.3576  1.0361
 1365TIP3    H2 4060   3.913   1.621   2.677 -0.5981  1.0272 -1.0638
 1366TIP3   OH2 4061   4.144   3.199   3.048 -0.2307 -0.3989  0.8751
 1366TIP3    H1 4062   4.237   3.221   3.046 -0.4795  0.7249 -1.4439
 1366TIP3    H2 4063   4.135   3.130   2.983 -1.4193  1.6667 -1.3183
 1367TIP3   OH2 4064   5.734   1.765   4.644  0.3636  0.5034 -0.4379
 1367TIP3    H1 4065   5.734   1.763   4.740  1.8332  1.0751 -0.4130
 1367TIP3    H2 4066   5.753   1.675   4.618 -0.3175  0.2851 -0.2138
 1368TIP3   OH2 4067   2.865   5.402   4.408 -0.0711  0.4920  0.7206
 1368TIP3    H1 4068   2.873   5.313   4.374 -0.6620  0.5528  0.4228
 1368TIP3    H2 4069   2.863   5.458   4.330 -0.1142  0.7353  0.8935
 1369TIP3   OH2 4070   3.010   2.926   2.357 -0.3700 -0.0710  0.6813
 1369TIP3    H1 4071   3.013   2.925   2.261  0.5403 -0.0932  0.7079
 1369TIP3    H2 4072   3.050   3.009   2.381 -0.2473 -0.2393  1.0602
 1370TIP3   OH2 4073   6.708   5.049   0.336  0.6938 -0.0426 -0.1342
 1370TIP3    H1 4074   6.772   5.080   0.400  0.5673  3.0264 -1.3317
 1370TIP3    H2 4075   6.757   4.987   0.282  2.1472  0.8244  0.1320
 1371TIP3   OH2 4076   6.597   1.324   4.254 -0.3250 -0.3186  0.2125
 1371TIP3    H1 4077   6.549   1.243   4.238 -0.2691 -0.5922  1.3840
 1371TIP3    H2 4078   6.676   1.297   4.300 -1.0976  0.5384  2.1313
 1372TIP3   OH2 4079   3.562   3.907   0.673  0.6433 -0.4098 -0.1054
 1372TIP3    H1 4080   3.642   3.931   0.627 -0.1653  3.3253  0.1092
 1372TIP3    H2 4081   3.586   3.907   0.766  0.3017  1.7523  0.0428
 1373TIP3   OH2 4082   1.764   4.067   3.646  0.1044  0.2131 -0.0072
 1373TIP3    H1 4083   1.783   4.158   3.670  0.4974  0.2189 -0.3404
 1373TIP3    H2 4084   1.795   4.015   3.720  0.5429  0.2948 -0.1328
 1374TIP3   OH2 4085   1.790   5.931   3.138 -0.3435  0.8930  0.1543
 1374TIP3    H1 4086   1.741   5.907   3.217  1.0367  0.3416  0.8733
 1374TIP3    H2 4087   1.781   5.856   3.080 -0.6929  0.9730  0.0990
 1375TIP3   OH2 4088   2.966   4.069   4.845 -0.0541 -0.7235 -0.0242
 1375TIP3    H1 4089   2.934   4.147   4.890 -0.9466 -0.9622 -0.2170
 1375TIP3    H2 4090   2.993   4.010   4.915 -0.6116 -0.7488  0.1788
 1376TIP3   OH2 4091   3.783   1.976   1.228  0.0816 -0.0846 -0.3756
 1376TIP3    H1 4092   3.718   1.908   1.212  1.0558 -1.1384  0.0275
 1376TIP3    H2 4093   3.731   2.056   1.240 -1.3619 -1.2530  2.1192
 1377TIP3   OH2 4094   6.284   3.781   4.782 -0.4434 -0.3053  0.9947
 1377TIP3    H1 4095   6.378   3.775   4.800 -0.5616  0.4674  1.9925
 1377TIP3    H2 4096   6.243   3.731   4.853 -0.7951 -0.3851  0.7372
 1378TIP3   OH2 4097   2.775   5.930   4.551 -0.0837 -0.0493 -0.0807
 1378TIP3    H1 4098   2.684   5.958   4.538 -0.3413  0.0010  1.5906
 1378TIP3    H2 4099   2.823   6.012   4.564  0.1379 -0.0941 -0.6314
 1379TIP3   OH2 4100   2.449   6.259   2.092  0.0844  0.5105 -0.1698
 1379TIP3    H1 4101   2.408   6.188   2.142 -1.1251 -0.0679 -1.8870
 1379TIP3    H2 4102   2.393   6.270   2.016  2.0694  1.0897 -1.6213
 1380TIP3   OH2 4103   2.865   4.898   4.779  0.3450 -0.4627  0.0823
 1380TIP3    H1 4104   2.814   4.838   4.833  1.3661  0.0494  1.6901
 1380TIP3    H2 4105   2.810   4.977   4.773  0.0189 -0.6975 -0.0303
 1381TIP3   OH2 4106   2.681   1.881   0.237  0.8322  0.0807  0.2960
 1381TIP3    H1 4107   2.619   1.910   0.304 -1.0290 -1.2900 -0.7216
 1381TIP3    H2 4108   2.632   1.815   0.188  2.7663 -0.2469 -1.2714
 1382TIP3   OH2 4109   3.312   5.995   1.097 -0.0708 -0.1220 -0.0735
 1382TIP3    H1 4110   3.330   5.958   1.183 -1.2395 -0.2560  0.1283
 1382TIP3    H2 4111   3.217   5.991   1.088 -0.0276  0.5794 -1.0647
 1383TIP3   OH2 4112   1.410   0.104   5.655  0.6311 -0.2186 -0.3034
 1383TIP3    H1 4113   1.387   0.014   5.630 -1.6941 -0.1669  1.3764
 1383TIP3    H2 4114   1.381   0.157   5.582  0.5350 -0.6953 -0.6175
 1384TIP3   OH2 4115   5.116   5.139   5.730  0.3635 -0.3418 -0.0766
 1384TIP3    H1 4116   5.033   5.148   5.777  0.2284 -0.5264 -0.2793
 1384TIP3    H2 4117   5.169   5.213   5.761  0.4012 -0.6594  0.6234
 1385TIP3   OH2 4118   3.257   3.584   4.104 -0.1623 -0.6514 -0.1131
 1385TIP3    H1 4119   3.348   3.605   4.126  0.1199 -2.1458  0.2304
 1385TIP3    H2 4120   3.218   3.558   4.187 -0.7249 -0.6673 -0.3825
 1386TIP3   OH2 4121   0.731   2.873   4.335  0.0250  0.5819  0.4181
 1386TIP3    H1 4122   0.683   2.913   4.407 -0.0919 -0.1531  0.7614
 1386TIP3    H2 4123   0.671   2.807   4.300  0.0635  0.9567 -0.3840
 1387TIP3   OH2 4124   6.516   4.461   0.740 -0.2948 -0.0973 -0.2292
 1387TIP3    H1 4125   6.521   4.551   0.706  0.3334  0.5742  1.5051
 1387TIP3    H2 4126   6.456   4.467   0.814 -1.9402 -1.5925 -1.3904
 1388TIP3   OH2 4127   7.033   4.489   2.367 -0.0693  0.8747  0.0256
 1388TIP3    H1 4128   7.104   4.523   2.421 -0.0810  1.6774 -0.4488
 1388TIP3    H2 4129   7.076   4.462   2.285 -0.1717  0.4269  0.1129
 1389TIP3   OH2 4130   6.988   4.408   4.490  0.3819 -0.1389  0.3210
 1389TIP3    H1 4131   6.895   4.389   4.493  0.6445 -1.5181  0.5528
 1389TIP3    H2 4132   7.005   4.430   4.399 -0.0177 -0.8012  0.0769
 1390TIP3   OH2 4133   5.722   0.006   2.144  0.2315 -0.7317 -1.1139
 1390TIP3    H1 4134   5.691  -0.001   2.235  0.7987  0.5073 -0.7955
 1390TIP3    H2 4135   5.771   0.089   2.142  1.3259 -1.3639 -2.2292
 1391TIP3   OH2 4136   1.414   5.899   3.317  0.6465  0.5400  0.4093
 1391TIP3    H1 4137   1.350   5.830   3.297 -1.4560  2.5213 -0.0973
 1391TIP3    H2 4138   1.383   5.938   3.398 -0.4604  3.3078 -1.2339
 1392TIP3   OH2 4139   4.791   6.761   4.300  0.2273 -0.1464 -0.3533
 1392TIP3    H1 4140   4.705   6.741   4.337  0.3353 -4.5289 -1.8633
 1392TIP3    H2 4141   4.818   6.842   4.343 -3.4669 -0.0168  2.1501
 1393TIP3   OH2 4142   5.865   3.219   0.089  0.2242  0.3140 -0.3382
 1393TIP3    H1 4143   5.784   3.207   0.138  0.9636 -0.9499  0.6091
 1393TIP3    H2 4144   5.854   3.166   0.010  0.2365 -0.0681 -0.0829
 1394TIP3   OH2 4145   2.493   0.562   1.636 -0.8965  0.3942  0.4159
 1394TIP3    H1 4146   2.554   0.606   1.695 -1.7673 -0.3802  1.9349
 1394TIP3    H2 4147   2.413   0.614   1.641 -1.1737 -0.0299  0.4031
 1395TIP3   OH2 4148   2.712   1.471   5.282 -0.4317 -0.5865 -0.1122
 1395TIP3    H1 4149   2.664   1.478   5.364  1.6548  0.2432  1.0994
 1395TIP3    H2 4150   2.648   1.493   5.215 -1.9080 -0.2364  1.3548
 1396TIP3   OH2 4151   4.499   5.147   2.247  0.0331 -0.0521  0.5516
 1396TIP3    H1 4152   4.452   5.088   2.188  3.3788 -1.0915 -1.3677
 1396TIP3    H2 4153   4.551   5.089   2.303  2.2120  0.9694 -0.3055
 1397TIP3   OH2 4154   4.162   2.287   1.142 -0.1078  0.4987 -0.2302
 1397TIP3    H1 4155   4.135   2.244   1.223 -0.6412  3.7032  1.4550
 1397TIP3    H2 4156   4.234   2.344   1.168 -0.4159  1.7587 -1.9578
 1398TIP3   OH2 4157   5.744   3.399   4.535 -0.0847 -0.1897 -0.0908
 1398TIP3    H1 4158   5.803   3.450   4.591  1.3648 -0.4672 -1.2751
 1398TIP3    H2 4159   5.675   3.460   4.511 -1.7820 -0.5366  3.3383
 1399TIP3   OH2 4160   1.677   1.371   5.805  0.1187  0.1100 -0.1589
 1399TIP3    H1 4161   1.614   1.416   5.860  0.9496  0.6480  0.3820
 1399TIP3    H2 4162   1.626   1.337   5.732 -1.2395 -1.6146  1.4777
 1400TIP3   OH2 4163   3.752   5.032   2.966  0.1893  0.1261 -0.9153
 1400TIP3    H1 4164   3.703   5.114   2.970  0.3005  0.1562  1.5429
 1400TIP3    H2 4165   3.840   5.056   2.996  0.4426 -0.7371 -0.9552
 1401TIP3   OH2 4166   2.006   4.606   3.205 -0.2319 -0.1323 -0.5602
 1401TIP3    H1 4167   1.987   4.581   3.114  0.6676  1.7821 -1.3362
 1401TIP3    H2 4168   2.038   4.525   3.245 -1.8686 -1.3367 -1.5547
 1402TIP3   OH2 4169   4.497   2.123   1.510 -0.3312 -0.1346  0.3048
 1402TIP3    H1 4170   4.528   2.113   1.600 -0.7084  1.2569  0.6208
 1402TIP3    H2 4171   4.559   2.184   1.470 -0.9562  0.3473  0.0543
 1403TIP3   OH2 4172   0.978   5.567   2.861 -0.3913 -0.2352 -0.1560
 1403TIP3    H1 4173   0.957   5.483   2.902  0.3641 -1.0839 -1.4437
 1403TIP3    H2 4174   0.927   5.568   2.780 -1.9439  1.4637  0.7629
 1404TIP3   OH2 4175   2.888   2.984   5.081 -0.3739 -0.5574 -0.3209
 1404TIP3    H1 4176   2.828   3.030   5.023 -0.3014  1.0059  0.7863
 1404TIP3    H2 4177   2.973   3.025   5.065  0.0795 -1.5785 -0.6341
 1405TIP3   OH2 4178   5.502   6.360   2.369  0.0312  0.0811 -0.3502
 1405TIP3    H1 4179   5.540   6.384   2.285 -0.2575 -1.0865 -0.8264
 1405TIP3    H2 4180   5.566   6.391   2.434  0.7349  0.0881 -1.0316
 1406TIP3   OH2 4181   3.672   1.358   1.556 -0.3103 -0.5365 -0.0563
 1406TIP3    H1 4182   3.663   1.406   1.474  2.7369  0.7945  0.2553
 1406TIP3    H2 4183   3.665   1.425   1.624 -1.9869 -1.5083  0.7891
 1407TIP3   OH2 4184   0.934   2.540   1.566 -0.5343 -0.5522 -0.0118
 1407TIP3    H1 4185   0.993   2.467   1.548  1.6413  1.1523 -0.2618
 1407TIP3    H2 4186   0.935   2.592   1.485 -0.9065  0.4753  0.6275
 1408TIP3   OH2 4187   4.329   1.153   1.782 -0.0641  0.2798 -0.1384
 1408TIP3    H1 4188   4.342   1.094   1.707  1.0446  2.3133 -1.6334
 1408TIP3    H2 4189   4.386   1.118   1.851 -1.0901 -1.6161 -0.1811
 1409TIP3   OH2 4190   2.883   5.454   4.733 -0.0338 -0.6540 -0.0618
 1409TIP3    H1 4191   2.955   5.414   4.782 -1.0421 -2.2629  0.2092
 1409TIP3    H2 4192   2.900   5.430   4.642  0.2009 -0.3228 -0.1069
 1410TIP3   OH2 4193   3.385   3.815   4.654  0.2329 -0.7354 -0.0793
 1410TIP3    H1 4194   3.372   3.738   4.598  0.8018  0.2780 -1.6829
 1410TIP3    H2 4195   3.391   3.888   4.593 -0.6838  0.6625  1.4202
 1411TIP3   OH2 4196   2.318   0.218   1.712 -0.0439 -0.6804 -0.1451
 1411TIP3    H1 4197   2.410   0.241   1.708  0.0458 -1.0325 -0.1751
 1411TIP3    H2 4198   2.282   0.275   1.780 -0.1190  0.4696 -1.1353
 1412TIP3   OH2 4199   6.710   2.270   3.687  0.5835  0.0240 -0.1817
 1412TIP3    H1 4200   6.773   2.218   3.737  2.7032  0.8133 -1.9063
 1412TIP3    H2 4201   6.715   2.357   3.726  0.7863  0.1555 -0.4966
 1413TIP3   OH2 4202   5.371   4.136   5.448 -0.5272  0.1373 -0.4476
 1413TIP3    H1 4203   5.372   4.084   5.528 -1.0543  0.8017  0.0115
 1413TIP3    H2 4204   5.289   4.112   5.404 -1.6482  1.7548  0.6124
 1414TIP3   OH2 4205   5.503   1.856   4.469 -0.1590 -0.1453  0.1744
 1414TIP3    H1 4206   5.560   1.884   4.397  1.6852 -1.0765  1.1909
 1414TIP3    H2 4207   5.561   1.853   4.545 -1.5809 -1.2191  1.2613
 1415TIP3   OH2 4208   6.159   5.024   0.433 -0.6262 -0.0630  0.1605
 1415TIP3    H1 4209   6.207   5.048   0.513 -0.2464  1.4931 -0.4987
 1415TIP3    H2 4210   6.081   5.079   0.436 -0.4297  0.2704 -0.7154
 1416TIP3   OH2 4211   6.298   2.847   1.453 -0.5579  1.1465  0.2943
 1416TIP3    H1 4212   6.284   2.939   1.429  0.2612  2.5030  4.2169
 1416TIP3    H2 4213   6.374   2.849   1.511 -0.8290 -1.9709  0.9258
 1417TIP3   OH2 4214   5.103   6.725   1.575  0.1603  0.1683  0.4726
 1417TIP3    H1 4215   5.172   6.774   1.531  0.1594  0.8013  1.1549
 1417TIP3    H2 4216   5.025   6.779   1.565  0.0374  0.0463  0.7521
 1418TIP3   OH2 4217   4.859   1.470   1.095  0.0086  0.2949 -0.1522
 1418TIP3    H1 4218   4.816   1.407   1.037 -1.7118 -0.4679  1.7821
 1418TIP3    H2 4219   4.900   1.533   1.037 -3.5614  0.9562 -2.2770
 1419TIP3   OH2 4220   0.126   6.668   0.751  0.2201 -0.3703  0.1528
 1419TIP3    H1 4221   0.095   6.611   0.821  2.2700 -0.3032  1.1790
 1419TIP3    H2 4222   0.061   6.738   0.747  0.5053  0.0917  2.6015
 1420TIP3   OH2 4223   2.959   6.291   5.494 -0.3688  0.3511  0.2297
 1420TIP3    H1 4224   2.891   6.285   5.428 -0.7097 -0.3122  0.6314
 1420TIP3    H2 4225   2.987   6.383   5.492 -0.0949  0.2507 -1.1019
 1421TIP3   OH2 4226   3.087   0.418   0.952 -0.5938  0.6741 -0.3538
 1421TIP3    H1 4227   3.095   0.392   0.860  0.0019 -0.3924 -0.0171
 1421TIP3    H2 4228   3.023   0.489   0.951  1.2965  2.4684 -1.8969
 1422TIP3   OH2 4229   6.549   5.134   4.109  0.2958 -0.5159  0.1872
 1422TIP3    H1 4230   6.625   5.171   4.064  0.7215 -2.3665 -0.7512
 1422TIP3    H2 4231   6.585   5.058   4.156 -0.3956  0.5414  2.5931
 1423TIP3   OH2 4232   0.626   6.255   2.328  0.3058  0.0968  0.3346
 1423TIP3    H1 4233   0.645   6.259   2.234  3.2229 -0.7505  0.7805
 1423TIP3    H2 4234   0.644   6.343   2.360 -0.3676  0.2993  0.1755
 1424TIP3   OH2 4235   3.685   1.789   4.036 -0.4061  0.1097 -0.0955
 1424TIP3    H1 4236   3.652   1.711   3.992 -0.6289 -0.3309  0.8290
 1424TIP3    H2 4237   3.637   1.793   4.119  1.1545 -0.0252  0.8740
 1425TIP3   OH2 4238   5.259   2.068   2.767 -0.2165  0.0364  0.1256
 1425TIP3    H1 4239   5.245   2.115   2.849 -1.1695  0.1243 -0.0727
 1425TIP3    H2 4240   5.264   1.976   2.792 -0.7257  0.0442  0.2632
 1426TIP3   OH2 4241   4.509   5.805   4.142 -0.0600  0.2930  0.0451
 1426TIP3    H1 4242   4.496   5.883   4.196 -1.3923  0.1051  0.0162
 1426TIP3    H2 4243   4.424   5.762   4.140  0.7853 -1.5059  0.5645
 1427TIP3   OH2 4244   6.850   4.017   5.433 -0.0600  0.1840 -0.4559
 1427TIP3    H1 4245   6.931   3.981   5.470 -0.2851  0.8680  0.7556
 1427TIP3    H2 4246   6.848   4.108   5.463 -1.7619 -0.0899  0.4226
 1428TIP3   OH2 4247   1.743   4.722   1.960 -0.5002 -0.1110 -0.1231
 1428TIP3    H1 4248   1.751   4.635   1.998 -0.4628  0.4764  1.3137
 1428TIP3    H2 4249   1.830   4.760   1.968 -0.7033  0.3383  0.0336
 1429TIP3   OH2 4250   1.118   2.851   2.845 -0.0138 -0.1534  0.3146
 1429TIP3    H1 4251   1.084   2.895   2.923 -0.0635  2.9244 -1.2816
 1429TIP3    H2 4252   1.212   2.842   2.861 -0.1418 -0.2970  1.0331
 1430TIP3   OH2 4253   2.607   5.871   0.687 -0.8756  0.4150 -0.4005
 1430TIP3    H1 4254   2.690   5.827   0.704 -1.0130 -0.2389 -1.3473
 1430TIP3    H2 4255   2.612   5.952   0.737 -0.2151 -0.2297  0.6178
 1431TIP3   OH2 4256   2.519   4.366   2.123 -0.5948 -0.2244 -0.1101
 1431TIP3    H1 4257   2.520   4.409   2.209  0.9245 -0.8890  0.2270
 1431TIP3    H2 4258   2.564   4.283   2.137 -1.0521 -0.7042 -1.3814
 1432TIP3   OH2 4259   6.893   1.988   1.420  0.1419  0.3278  0.5899
 1432TIP3    H1 4260   6.834   2.051   1.378 -1.2438 -0.4795  1.2262
 1432TIP3    H2 4261   6.862   1.983   1.510  0.1203 -1.3460  0.5238
 1433TIP3   OH2 4262   4.110   4.213   0.341  0.4274  0.5276  0.4284
 1433TIP3    H1 4263   4.201   4.206   0.371  0.3444  0.1626  0.5976
 1433TIP3    H2 4264   4.098   4.306   0.324  1.0375  0.4997 -0.2340
 1434TIP3   OH2 4265   3.121   0.749   2.491  0.1551 -0.5821 -0.1709
 1434TIP3    H1 4266   3.160   0.671   2.530  1.1982  0.1437  0.2803
 1434TIP3    H2 4267   3.188   0.816   2.499 -1.0609  0.6292  0.3475
 1435TIP3   OH2 4268   1.843   1.048   2.750  0.1200  0.7067 -0.8957
 1435TIP3    H1 4269   1.875   1.063   2.662  0.1367 -1.4804 -1.3267
 1435TIP3    H2 4270   1.887   0.968   2.779 -1.3585  0.2554  0.3138
 1436TIP3   OH2 4271   4.475   0.771   3.176 -0.5168  0.2425  0.2365
 1436TIP3    H1 4272   4.552   0.828   3.181  0.0219 -0.4240 -0.2057
 1436TIP3    H2 4273   4.455   0.750   3.267  2.7201 -3.3116  0.3856
 1437TIP3   OH2 4274   3.897   4.308   4.163  0.1980 -0.3659 -1.0384
 1437TIP3    H1 4275   3.966   4.252   4.129 -0.2723 -1.5752 -0.0404
 1437TIP3    H2 4276   3.942   4.389   4.187  1.5756 -1.6230  0.9438
 1438TIP3   OH2 4277   6.240   5.601   2.059 -0.2245 -0.2698 -0.1974
 1438TIP3    H1 4278   6.268   5.676   2.006 -2.1387  1.4895  1.1292
 1438TIP3    H2 4279   6.217   5.638   2.144  0.5090 -2.6628  1.1410
 1439TIP3   OH2 4280   4.771   0.145   5.419  0.2674 -0.0268  0.1343
 1439TIP3    H1 4281   4.802   0.066   5.375 -0.3706 -0.4384  0.4093
 1439TIP3    H2 4282   4.816   0.146   5.503  0.7481  0.2405 -0.1220
 1440TIP3   OH2 4283   4.002   2.514   1.829  0.1228  0.1078  0.3208
 1440TIP3    H1 4284   4.042   2.555   1.753  1.7709 -1.8651  0.0219
 1440TIP3    H2 4285   4.056   2.544   1.903 -0.4948  0.7761  0.5048
 1441TIP3   OH2 4286   4.262   5.510   2.262 -0.3357  0.2556 -0.2779
 1441TIP3    H1 4287   4.206   5.587   2.258 -0.3773  0.1750 -1.5939
 1441TIP3    H2 4288   4.213   5.448   2.316 -0.7041  0.8190  0.0449
 1442TIP3   OH2 4289   0.500   6.327   1.372 -0.6816 -0.1487  0.1540
 1442TIP3    H1 4290   0.410   6.351   1.351 -0.4661 -0.4920 -1.2957
 1442TIP3    H2 4291   0.515   6.246   1.322  0.7858  0.5415 -0.5839
 1443TIP3   OH2 4292   4.297   1.741   5.467  0.6848 -0.4191  0.0055
 1443TIP3    H1 4293   4.278   1.803   5.396  2.3198 -0.8517 -0.8640
 1443TIP3    H2 4294   4.212   1.701   5.487 -0.6096  2.6650  1.2143
 1444TIP3   OH2 4295   5.930   6.322   1.733 -0.1161  0.0712 -0.8040
 1444TIP3    H1 4296   5.933   6.412   1.702 -0.8897 -0.1938 -1.7073
 1444TIP3    H2 4297   5.857   6.319   1.795  0.6599  0.3214  0.1473
 1445TIP3   OH2 4298   1.899   3.212   0.548 -0.2133 -0.4218 -0.2000
 1445TIP3    H1 4299   1.952   3.228   0.626 -1.2487  0.4046  0.3567
 1445TIP3    H2 4300   1.851   3.294   0.534 -2.7026 -1.6787  0.3943
 1446TIP3   OH2 4301   5.780   2.660   2.427 -0.3550 -0.1801 -0.4462
 1446TIP3    H1 4302   5.724   2.736   2.412 -0.8392  0.0125  1.9456
 1446TIP3    H2 4303   5.722   2.594   2.466  0.9727 -0.0213  1.9766
 1447TIP3   OH2 4304   1.314   3.690   1.657 -0.0047  0.4003 -0.5648
 1447TIP3    H1 4305   1.270   3.616   1.699  0.3189 -0.3854 -1.5592
 1447TIP3    H2 4306   1.405   3.663   1.649 -0.1456  0.2842 -2.2131
 1448TIP3   OH2 4307   3.783   4.450   0.284  0.2057  0.0971 -0.2862
 1448TIP3    H1 4308   3.877   4.435   0.274  0.1526 -3.1968  2.2266
 1448TIP3    H2 4309   3.744   4.408   0.207  0.7401 -0.8930 -0.0399
 1449TIP3   OH2 4310   6.061   1.077   1.738  0.0659 -0.3019 -0.3907
 1449TIP3    H1 4311   6.109   1.119   1.810  2.4279 -2.0522 -0.8349
 1449TIP3    H2 4312   6.009   1.010   1.781  0.4037 -0.4241 -0.1628
 1450TIP3   OH2 4313   4.761   4.340   2.831 -0.2646  0.3762  0.0674
 1450TIP3    H1 4314   4.823   4.270   2.816 -1.2665 -0.3029 -1.1207
 1450TIP3    H2 4315   4.796   4.389   2.905  2.8441  1.3683 -1.8777
 1451TIP3   OH2 4316   0.980   4.665   1.012  0.4141  0.6822 -0.0408
 1451TIP3    H1 4317   0.940   4.747   0.987  0.9385  0.5964 -1.2480
 1451TIP3    H2 4318   0.955   4.652   1.103 -2.5042  0.4903 -0.7688
 1452TIP3   OH2 4319   3.817   2.702   1.130 -0.2563 -0.6655 -0.7568
 1452TIP3    H1 4320   3.819   2.743   1.217 -0.6853 -1.1616 -0.5038
 1452TIP3    H2 4321   3.790   2.612   1.147  1.2902 -1.2540 -1.2281
 1453TIP3   OH2 4322   1.749   0.126   1.012 -0.2856  0.2317 -0.1691
 1453TIP3    H1 4323   1.719   0.050   1.062 -0.2129  1.3457  1.6736
 1453TIP3    H2 4324   1.730   0.104   0.921 -0.9842 -1.6501  0.3818
 1454TIP3   OH2 4325   0.777   2.750   1.801 -0.3687  0.5578 -0.3498
 1454TIP3    H1 4326   0.816   2.790   1.723 -0.7604  1.1418 -0.2577
 1454TIP3    H2 4327   0.835   2.776   1.873 -0.1410  0.2209 -0.4086
 1455TIP3   OH2 4328   1.104   2.149   0.287 -0.4418  0.4319  0.2170
 1455TIP3    H1 4329   1.011   2.146   0.267 -0.1519 -1.8498 -1.0702
 1455TIP3    H2 4330   1.144   2.195   0.213 -0.4020  0.2342  0.1151
 1456TIP3   OH2 4331   0.621   5.332   3.019  0.6373  0.2922  0.5181
 1456TIP3    H1 4332   0.530   5.355   3.003  0.2456 -1.0897  0.6235
 1456TIP3    H2 4333   0.618   5.242   3.052  2.0367  0.2140  0.5102
 1457TIP3   OH2 4334   3.066   6.492   4.982 -0.1914  0.5451 -0.3280
 1457TIP3    H1 4335   3.138   6.471   4.922  0.1043  3.2130 -1.0449
 1457TIP3    H2 4336   3.037   6.579   4.954 -1.8188  0.7434  1.7638
 1458TIP3   OH2 4337   0.474   5.754   1.026 -0.4300  0.0332 -0.3933
 1458TIP3    H1 4338   0.439   5.669   1.053 -0.0721 -0.1087 -0.3768
 1458TIP3    H2 4339   0.488   5.746   0.932 -0.5993  0.1489 -0.4304
 1459TIP3   OH2 4340   0.416   0.516   0.483 -0.4553  0.6324 -0.1515
 1459TIP3    H1 4341   0.411   0.427   0.448 -1.4136  0.6002  0.0568
 1459TIP3    H2 4342   0.510   0.535   0.485 -0.0793 -1.0798  1.5828
 1460TIP3   OH2 4343   1.039   0.836   5.419 -0.4992  1.1340  0.1684
 1460TIP3    H1 4344   1.104   0.887   5.468 -1.4123  0.5344  2.0795
 1460TIP3    H2 4345   1.088   0.800   5.345  1.6313 -0.0229  1.9995
 1461TIP3   OH2 4346   5.275   1.888   2.421 -0.0816  0.2429 -0.4265
 1461TIP3    H1 4347   5.231   1.936   2.492  0.0270  1.7752 -1.3603
 1461TIP3    H2 4348   5.220   1.810   2.409 -0.8328  0.6013  0.4601
 1462TIP3   OH2 4349   2.359   3.028   3.872 -0.2549  0.3885 -0.3988
 1462TIP3    H1 4350   2.433   2.974   3.900  0.0575  0.7262 -0.5608
 1462TIP3    H2 4351   2.336   2.996   3.785  1.1121  1.6783 -1.2942
 1463TIP3   OH2 4352   6.327   0.204   4.867  0.2357 -0.3388 -0.2652
 1463TIP3    H1 4353   6.396   0.266   4.843 -0.7239  0.2640 -1.5994
 1463TIP3    H2 4354   6.246   0.247   4.840 -0.5710 -1.5246  0.1964
 1464TIP3   OH2 4355   0.794   5.972   0.593 -0.4335  0.0248  0.1197
 1464TIP3    H1 4356   0.823   5.892   0.637 -0.2529 -0.5432 -0.9888
 1464TIP3    H2 4357   0.780   6.035   0.664 -1.1755 -1.1619  1.0650
 1465TIP3   OH2 4358   0.093   3.563   1.975  0.4686 -0.8146  0.2963
 1465TIP3    H1 4359   0.149   3.516   2.036  0.2130 -1.2170  0.2257
 1465TIP3    H2 4360   0.005   3.555   2.012  0.5673  0.5229  0.8462
 1466TIP3   OH2 4361   4.277   4.995   5.560  0.4218  0.5379  0.0637
 1466TIP3    H1 4362   4.325   5.029   5.635 -0.3427 -0.9820  1.3161
 1466TIP3    H2 4363   4.232   5.071   5.524  0.7427  1.3003  1.2071
 1467TIP3   OH2 4364   3.859   5.545   4.923 -0.5420  0.6429  0.1579
 1467TIP3    H1 4365   3.888   5.597   4.848 -0.4286  1.6354  0.8617
 1467TIP3    H2 4366   3.821   5.609   4.983 -2.2643 -0.3528  0.1926
 1468TIP3   OH2 4367   4.941   4.162   5.667  0.5634 -0.1450  1.1123
 1468TIP3    H1 4368   4.892   4.138   5.746 -0.1619  1.5526  1.2331
 1468TIP3    H2 4369   4.876   4.158   5.597  0.4692  1.1085  1.0995
 1469TIP3   OH2 4370   4.522   5.327   0.634 -0.0126 -0.3977 -0.6761
 1469TIP3    H1 4371   4.436   5.284   0.629 -0.7978  0.8743  1.2033
 1469TIP3    H2 4372   4.521   5.391   0.563 -0.3965 -0.7667 -1.0075
 1470TIP3   OH2 4373   1.642   0.636   3.108 -0.1824 -0.2305 -0.1618
 1470TIP3    H1 4374   1.725   0.611   3.067 -0.6757  0.0211 -1.3406
 1470TIP3    H2 4375   1.604   0.700   3.049 -0.0444  1.6192  1.6587
 1471TIP3   OH2 4376   4.354   2.994   1.494 -0.1930 -0.4519 -0.9178
 1471TIP3    H1 4377   4.343   3.009   1.588 -0.6514  1.5468 -1.2486
 1471TIP3    H2 4378   4.447   2.974   1.483  0.1911  0.8661 -0.2125
 1472TIP3   OH2 4379   3.176   0.034   5.181  0.2517  0.1199 -0.7877
 1472TIP3    H1 4380   3.187   0.086   5.261 -0.8438 -1.2502  0.3285
 1472TIP3    H2 4381   3.212  -0.052   5.203 -1.6448 -0.8157 -1.1049
 1473TIP3   OH2 4382   6.133   2.461   5.063 -0.1425  0.2871  0.0388
 1473TIP3    H1 4383   6.121   2.531   4.999  0.6694  0.2293 -0.1838
 1473TIP3    H2 4384   6.107   2.381   5.016  0.6040  0.2229 -0.2923
 1474TIP3   OH2 4385   1.023   6.290   4.016 -0.3236  0.1803  0.1465
 1474TIP3    H1 4386   0.990   6.369   4.059  1.6740  1.5705 -0.6786
 1474TIP3    H2 4387   0.996   6.300   3.925  0.6213  0.3602 -0.1267
 1475TIP3   OH2 4388   4.239   3.159   3.948  0.0632  0.4374  0.3110
 1475TIP3    H1 4389   4.234   3.063   3.949 -3.0997  0.4647  1.9921
 1475TIP3    H2 4390   4.190   3.185   3.869 -0.3571  0.6567  0.6384
 1476TIP3   OH2 4391   7.238   5.977   3.630 -0.2840  0.2237  0.3138
 1476TIP3    H1 4392   7.191   5.986   3.713  0.2806  0.3392  0.6241
 1476TIP3    H2 4393   7.170   5.988   3.563 -0.7737 -0.0466  0.7574
 1477TIP3   OH2 4394   5.539   1.269   3.927 -0.4946  0.3568  0.3330
 1477TIP3    H1 4395   5.621   1.318   3.924  0.4666 -1.1429 -2.3552
 1477TIP3    H2 4396   5.473   1.331   3.896  0.1024  0.8698  0.0616
 1478TIP3   OH2 4397   4.290   4.901   3.354  0.6050  0.0492  0.0461
 1478TIP3    H1 4398   4.353   4.897   3.282 -0.7222 -0.0630 -1.1542
 1478TIP3    H2 4399   4.206   4.878   3.313 -0.0489 -0.8472  1.8022
 1479TIP3   OH2 4400   4.685   6.039   1.748  0.7543  0.8060  0.2040
 1479TIP3    H1 4401   4.724   6.049   1.661  0.3135 -1.1160 -0.2497
 1479TIP3    H2 4402   4.621   6.111   1.752 -0.5263 -0.1087 -1.8411
 1480TIP3   OH2 4403   2.548   1.459   5.499  0.6128 -0.0105 -0.1607
 1480TIP3    H1 4404   2.584   1.370   5.509  0.5736 -0.1816 -1.4024
 1480TIP3    H2 4405   2.472   1.447   5.442  1.2294  0.9649 -1.2114
 1481TIP3   OH2 4406   3.064   3.747   1.154  0.1065  0.9632 -0.1748
 1481TIP3    H1 4407   3.123   3.728   1.227  0.2707  1.7077 -0.1075
 1481TIP3    H2 4408   3.011   3.821   1.184 -1.6798 -0.4017  0.2107
 1482TIP3   OH2 4409   2.007   5.713   4.277  0.1988  0.2869  0.2608
 1482TIP3    H1 4410   1.947   5.660   4.225  0.1576  0.6544 -0.0787
 1482TIP3    H2 4411   2.024   5.661   4.355 -0.4837  0.1320  0.3165
 1483TIP3   OH2 4412   1.857   1.479   4.024 -0.6287  0.0165  0.1789
 1483TIP3    H1 4413   1.923   1.504   4.090 -0.4339 -1.8685  0.7722
 1483TIP3    H2 4414   1.897   1.405   3.978 -1.3420  0.4310 -1.1612
 1484TIP3   OH2 4415   6.278   0.051   4.311  0.2092  0.3241 -0.5106
 1484TIP3    H1 4416   6.352   0.005   4.272 -0.2873  1.1833 -2.6198
 1484TIP3    H2 4417   6.301   0.144   4.305  0.5315  0.5105  2.2656
 1485TIP3   OH2 4418   3.589   4.437   2.533 -0.3440 -1.2406 -0.3050
 1485TIP3    H1 4419   3.509   4.471   2.573  0.6176 -0.6614  1.1894
 1485TIP3    H2 4420   3.587   4.343   2.552 -0.0742 -1.0276  0.8071
 1486TIP3   OH2 4421   2.550   0.524   0.199 -0.4043  0.3336 -0.1423
 1486TIP3    H1 4422   2.464   0.487   0.180  0.7427 -3.4910  1.2732
 1486TIP3    H2 4423   2.602   0.506   0.120  0.3018 -1.6999  0.7475
 1487TIP3   OH2 4424   4.933   0.026   2.395  0.7450 -0.5849  0.2696
 1487TIP3    H1 4425   4.903   0.012   2.305  1.1160 -1.0358  0.2090
 1487TIP3    H2 4426   4.909   0.116   2.415 -0.7754 -0.9654  0.2778
 1488TIP3   OH2 4427   6.186   6.425   0.392  0.1919 -0.4740  0.3502
 1488TIP3    H1 4428   6.247   6.455   0.460 -0.0984 -0.4961  0.6231
 1488TIP3    H2 4429   6.100   6.448   0.426  0.0991  0.5370 -0.5184
 1489TIP3   OH2 4430   3.088   1.882   3.728  0.3931 -0.0036  0.7442
 1489TIP3    H1 4431   3.132   1.852   3.648 -1.4684  0.0174 -0.3505
 1489TIP3    H2 4432   3.048   1.966   3.703 -0.7820 -0.3265  1.4913
 1490TIP3   OH2 4433   6.654   3.394   1.093  0.4717 -0.3408 -0.4279
 1490TIP3    H1 4434   6.700   3.310   1.085 -0.7419 -1.0582 -0.1406
 1490TIP3    H2 4435   6.596   3.397   1.017 -2.1031 -1.4817  1.3488
 1491TIP3   OH2 4436   2.962   1.883   0.218  0.0293  0.4209 -0.7895
 1491TIP3    H1 4437   2.874   1.867   0.252 -0.6673  1.6862 -1.9019
 1491TIP3    H2 4438   3.009   1.801   0.232 -1.1342 -0.0751  0.3890
 1492TIP3   OH2 4439   3.124   3.044   4.339  0.4685  0.3423  0.2122
 1492TIP3    H1 4440   3.051   3.026   4.279 -1.1519  1.6265  1.6699
 1492TIP3    H2 4441   3.106   2.988   4.415  1.7422 -0.2685  0.0825
 1493TIP3   OH2 4442   1.267   5.716   4.231  0.8552  0.2147 -0.5729
 1493TIP3    H1 4443   1.173   5.723   4.246  0.6867 -0.5152 -1.2637
 1493TIP3    H2 4444   1.300   5.669   4.307  0.4888 -0.5379 -0.8699
 1494TIP3   OH2 4445   5.337   4.784   5.317 -0.5633  0.6897  0.0874
 1494TIP3    H1 4446   5.360   4.764   5.226 -3.3026 -1.0576 -0.3518
 1494TIP3    H2 4447   5.396   4.728   5.368 -0.5750 -0.1136 -0.7336
 1495TIP3   OH2 4448   1.691   5.371   5.250 -0.4628  1.0289  0.0052
 1495TIP3    H1 4449   1.776   5.380   5.293  0.2952  0.2697 -1.2553
 1495TIP3    H2 4450   1.709   5.392   5.158 -1.7527  1.3429 -0.1943
 1496TIP3   OH2 4451   2.398   6.063   2.504 -0.1393 -0.6449  0.1128
 1496TIP3    H1 4452   2.305   6.082   2.512 -0.2874 -1.7143  1.1999
 1496TIP3    H2 4453   2.441   6.125   2.563 -0.1156  0.1055 -0.6776
 1497TIP3   OH2 4454   3.431   4.463   3.583 -0.1561 -0.0955 -1.0409
 1497TIP3    H1 4455   3.455   4.379   3.545  2.1634 -0.1696  0.4174
 1497TIP3    H2 4456   3.374   4.504   3.518  2.4467 -0.7773 -3.9264
 1498TIP3   OH2 4457   6.446   1.403   3.648 -0.1903 -0.6004  0.3202
 1498TIP3    H1 4458   6.355   1.430   3.656 -0.0266  0.0585  0.0662
 1498TIP3    H2 4459   6.492   1.454   3.715 -0.0202 -0.9736  0.4869
 1499TIP3   OH2 4460   3.253   1.374   1.245 -0.4908  0.1622  0.4583
 1499TIP3    H1 4461   3.296   1.318   1.309  0.5864  0.7574  0.2706
 1499TIP3    H2 4462   3.240   1.317   1.169  0.2333  0.0449  0.4150
 1500TIP3   OH2 4463   6.757   1.723   0.395  0.5417  0.1981  0.2235
 1500TIP3    H1 4464   6.806   1.758   0.320 -1.3518  2.2896 -0.1441
 1500TIP3    H2 4465   6.668   1.755   0.382 -0.0778 -0.2283  2.8733
 1501TIP3   OH2 4466   1.334   1.261   0.712  0.0528  0.1936 -0.4221
 1501TIP3    H1 4467   1.291   1.313   0.779  0.8113  0.0139  0.2259
 1501TIP3    H2 4468   1.379   1.192   0.761  1.3039  0.5432 -1.0364
 1502TIP3   OH2 4469   4.985   2.942   0.382 -0.0622  0.0281 -0.1145
 1502TIP3    H1 4470   5.078   2.930   0.402 -0.0808  1.3138  0.9275
 1502TIP3    H2 4471   4.941   2.869   0.426  0.5349 -1.2634 -1.6159
 1503TIP3   OH2 4472   7.027   1.807   1.611 -0.3231 -0.1359  0.2449
 1503TIP3    H1 4473   6.979   1.816   1.693 -0.9962  1.8367 -0.3252
 1503TIP3    H2 4474   7.094   1.876   1.614 -0.1814 -0.2089 -0.7416
 1504TIP3   OH2 4475   1.501   5.742   4.659  0.3732  0.5675 -0.0665
 1504TIP3    H1 4476   1.435   5.804   4.692  0.6567  0.5266  0.6054
 1504TIP3    H2 4477   1.508   5.762   4.566 -0.3251  0.8193 -0.0740
 1505TIP3   OH2 4478   2.733   2.122   4.386 -0.8139 -0.0676  0.9148
 1505TIP3    H1 4479   2.756   2.205   4.345  1.2063 -0.8780  0.2904
 1505TIP3    H2 4480   2.643   2.135   4.416 -0.8893  2.0048  0.0094
 1506TIP3   OH2 4481   2.432   3.747   0.508  0.0838 -0.0106  0.0870
 1506TIP3    H1 4482   2.514   3.774   0.466  0.6763  0.5237  1.5315
 1506TIP3    H2 4483   2.451   3.749   0.602 -1.5453 -0.0400  0.4466
 1507TIP3   OH2 4484   0.488   5.446   1.914 -0.0351  0.0222  0.4263
 1507TIP3    H1 4485   0.560   5.503   1.942  0.2048  0.2597 -0.5986
 1507TIP3    H2 4486   0.427   5.446   1.987  1.2947 -0.6921  1.5955
 1508TIP3   OH2 4487   0.683   5.802   2.585 -0.6196 -0.0918  0.4498
 1508TIP3    H1 4488   0.657   5.822   2.674  0.8459 -0.9309  1.1021
 1508TIP3    H2 4489   0.644   5.872   2.532  0.7930  2.0689  2.0782
 1509TIP3   OH2 4490   1.214   2.548   2.768 -0.2347 -0.0356  0.0491
 1509TIP3    H1 4491   1.232   2.552   2.862  0.4045  1.1447 -0.1008
 1509TIP3    H2 4492   1.292   2.508   2.730  0.4744  1.4913 -0.1855
 1510TIP3   OH2 4493   4.069   2.956   4.563  0.1072 -0.3059  0.0164
 1510TIP3    H1 4494   4.044   3.001   4.482  2.4358  0.7406 -0.1881
 1510TIP3    H2 4495   4.071   2.863   4.539 -0.4746 -0.1254 -0.7647
 1511TIP3   OH2 4496   5.344   5.867   1.851  0.5552 -0.7096 -0.1040
 1511TIP3    H1 4497   5.373   5.898   1.937 -0.1062  1.1037 -0.4894
 1511TIP3    H2 4498   5.254   5.838   1.865  0.4395 -0.3922 -0.1894
 1512TIP3   OH2 4499   6.897   1.248   4.067  0.0242  0.0367  0.3078
 1512TIP3    H1 4500   6.941   1.181   4.120  0.8239  0.0905 -0.2769
 1512TIP3    H2 4501   6.948   1.251   3.986 -0.3988  0.8995  0.0734
 1513TIP3   OH2 4502   7.202   2.711   3.469  0.1995 -0.4607  0.0387
 1513TIP3    H1 4503   7.119   2.714   3.516  0.0107  0.3741 -0.3309
 1513TIP3    H2 4504   7.264   2.753   3.529  0.1271 -0.1202 -0.1231
 1514TIP3   OH2 4505   3.345   5.667   5.221 -0.0710 -0.1339  0.9370
 1514TIP3    H1 4506   3.433   5.649   5.251 -0.1706  1.1605  2.1182
 1514TIP3    H2 4507   3.325   5.596   5.159  2.1971  0.1844 -0.2559
 1515TIP3   OH2 4508   3.806   0.412   4.043  0.2793 -0.3926 -0.1013
 1515TIP3    H1 4509   3.816   0.402   4.138  0.4848 -1.3905 -0.2134
 1515TIP3    H2 4510   3.720   0.450   4.032 -0.4167 -1.7350  0.4381
 1516TIP3   OH2 4511   4.045   3.993   0.145 -0.3705  0.1583 -0.4160
 1516TIP3    H1 4512   4.037   4.051   0.220 -1.3447 -1.6232  0.9312
 1516TIP3    H2 4513   4.139   3.978   0.135 -0.1636  1.3474 -0.3288
 1517TIP3   OH2 4514   4.198   2.467   3.387 -0.1675 -0.0863  0.6181
 1517TIP3    H1 4515   4.111   2.492   3.419  0.4401  1.3122  1.2794
 1517TIP3    H2 4516   4.232   2.409   3.456  0.0895  0.7764  1.2388
 1518TIP3   OH2 4517   2.933   3.561   3.614 -0.2691 -0.1042 -0.5869
 1518TIP3    H1 4518   2.982   3.509   3.678  0.8456  0.5222 -0.9142
 1518TIP3    H2 4519   2.852   3.511   3.601  0.6362 -1.6156 -0.6903
 1519TIP3   OH2 4520   6.005   4.884   2.486  1.0309 -0.0324  0.0626
 1519TIP3    H1 4521   5.961   4.940   2.550  1.2157 -0.0719  0.2250
 1519TIP3    H2 4522   6.091   4.926   2.472 -0.4681  2.4279 -3.3317
 1520TIP3   OH2 4523   4.824   5.240   1.155  0.5341 -0.0969 -0.1514
 1520TIP3    H1 4524   4.862   5.167   1.204  1.5763 -0.0685 -0.8827
 1520TIP3    H2 4525   4.897   5.275   1.104 -0.3403  0.3782 -1.1170
 1521TIP3   OH2 4526   3.651   0.461   5.405  0.4523  0.2506  0.2315
 1521TIP3    H1 4527   3.681   0.401   5.474  2.8915  1.3335  0.2417
 1521TIP3    H2 4528   3.560   0.437   5.389  1.6769 -4.5692 -0.9806
 1522TIP3   OH2 4529   3.118   0.702   1.695  0.0708 -0.2484 -0.5360
 1522TIP3    H1 4530   3.143   0.781   1.742 -2.2377 -0.1351  0.6304
 1522TIP3    H2 4531   3.134   0.723   1.603  0.4618  1.2089 -0.1606
 1523TIP3   OH2 4532   4.420   6.575   4.376 -0.4868  0.0737  0.3389
 1523TIP3    H1 4533   4.463   6.523   4.308 -2.0224  2.9453 -3.1889
 1523TIP3    H2 4534   4.347   6.521   4.404 -1.3376 -0.3081 -2.3051
 1524TIP3   OH2 4535   5.210   3.507   1.110 -0.1067  0.2161 -0.4075
 1524TIP3    H1 4536   5.151   3.520   1.036  0.3745  1.0266 -0.6622
 1524TIP3    H2 4537   5.282   3.454   1.076  0.0814  0.5334 -0.5121
 1525TIP3   OH2 4538   5.992   0.765   3.222  0.3267  0.3790 -0.3095
 1525TIP3    H1 4539   6.049   0.766   3.145  0.1726  0.0633 -0.4303
 1525TIP3    H2 4540   6.051   0.778   3.296  0.6518 -0.6786 -0.3725
 1526TIP3   OH2 4541   2.835   0.048   5.486  0.5132 -0.1224 -0.7547
 1526TIP3    H1 4542   2.740   0.040   5.488  0.6256 -1.7543  0.5916
 1526TIP3    H2 4543   2.854   0.129   5.532 -0.1909 -0.5031  0.2368
 1527TIP3   OH2 4544   0.627   5.438   4.831 -0.1722 -0.1469  0.7348
 1527TIP3    H1 4545   0.587   5.490   4.761  1.3155 -0.6551 -0.5389
 1527TIP3    H2 4546   0.602   5.484   4.911 -1.0162  1.0783 -0.1812
 1528TIP3   OH2 4547   4.991   1.140   3.257  0.0760  0.6293  0.4571
 1528TIP3    H1 4548   4.956   1.079   3.322 -0.4204 -0.1467 -0.4993
 1528TIP3    H2 4549   5.033   1.083   3.192 -1.3634  1.2067 -1.0375
 1529TIP3   OH2 4550   3.801   2.268   0.466 -0.0627  0.0362  0.4576
 1529TIP3    H1 4551   3.861   2.221   0.523  0.5488  0.3222  0.0509
 1529TIP3    H2 4552   3.809   2.224   0.381  0.2464  0.6478  0.1660
 1530TIP3   OH2 4553   5.715   1.261   5.591  0.3753  0.0329  0.0400
 1530TIP3    H1 4554   5.807   1.278   5.610  0.5751 -0.6683 -0.2679
 1530TIP3    H2 4555   5.686   1.203   5.661 -0.6146  2.4326  1.7521
 1531TIP3   OH2 4556   4.260   1.541   1.833 -1.3056  0.1230  0.6073
 1531TIP3    H1 4557   4.204   1.471   1.800 -0.3104 -0.7640  0.7767
 1531TIP3    H2 4558   4.250   1.537   1.928 -1.9502  0.8259  0.5854
 1532TIP3   OH2 4559   4.310   5.350   2.570  0.6684  0.3745 -0.4893
 1532TIP3    H1 4560   4.381   5.399   2.529  1.1123 -1.1342 -1.5911
 1532TIP3    H2 4561   4.258   5.316   2.497  0.1927 -0.5174  0.2434
 1533TIP3   OH2 4562   3.962   2.859   3.090  0.5522  0.0984  0.4198
 1533TIP3    H1 4563   3.987   2.917   3.162  0.0270 -0.2986  0.9454
 1533TIP3    H2 4564   3.979   2.771   3.124  2.1736 -0.0454 -0.6919
 1534TIP3   OH2 4565   5.998   0.514   5.768  0.4857  0.0682  0.8651
 1534TIP3    H1 4566   6.061   0.499   5.698  0.9715 -0.0528  1.3226
 1534TIP3    H2 4567   5.953   0.595   5.743 -1.1677 -1.3345 -0.9007
 1535TIP3   OH2 4568   3.815   3.476   5.833 -0.4878 -0.5013 -0.2392
 1535TIP3    H1 4569   3.881   3.545   5.844  1.6913 -2.0783 -2.3023
 1535TIP3    H2 4570   3.743   3.519   5.787 -0.9767  1.2602  2.0065
 1536TIP3   OH2 4571   2.464   3.866   1.448 -0.3894  0.0123 -0.0748
 1536TIP3    H1 4572   2.494   3.957   1.450 -0.1130 -0.0730 -0.2443
 1536TIP3    H2 4573   2.375   3.869   1.483 -0.7288  0.4909 -0.9518
 1537TIP3   OH2 4574   7.147   1.794   2.819 -0.3832  0.2604  0.0978
 1537TIP3    H1 4575   7.187   1.744   2.748  0.8091  1.2259  0.0608
 1537TIP3    H2 4576   7.138   1.731   2.891  0.0747 -0.2736 -0.3004
 1538TIP3   OH2 4577   2.984   4.879   1.283  0.1145 -0.1279 -0.2318
 1538TIP3    H1 4578   2.948   4.952   1.232 -1.0871 -0.8895 -0.5028
 1538TIP3    H2 4579   3.014   4.816   1.218 -1.8386 -1.3085 -0.0784
 1539TIP3   OH2 4580   2.457   0.479   3.217  0.1564 -0.2643  0.4712
 1539TIP3    H1 4581   2.382   0.515   3.170  0.2398  0.3895  0.8211
 1539TIP3    H2 4582   2.423   0.456   3.304  0.6366  1.3719  1.1405
 1540TIP3   OH2 4583   3.154   6.274   0.490  0.4395  0.5574  0.4166
 1540TIP3    H1 4584   3.180   6.331   0.563  0.7381  1.2035 -0.1904
 1540TIP3    H2 4585   3.219   6.203   0.490  0.1472  0.2764  1.0842
 1541TIP3   OH2 4586   3.587   4.863   5.152  0.3016  0.3081 -0.0630
 1541TIP3    H1 4587   3.538   4.845   5.072 -0.4234  1.0374  0.2000
 1541TIP3    H2 4588   3.549   4.805   5.218  0.7420 -0.1253 -0.1855
 1542TIP3   OH2 4589   0.973   3.852   2.343 -0.1712  0.5077 -0.2587
 1542TIP3    H1 4590   1.011   3.775   2.300 -1.6272 -0.8288  0.7483
 1542TIP3    H2 4591   1.031   3.868   2.418  0.9240  1.2936 -1.2297
 1543TIP3   OH2 4592   1.231   3.361   2.191 -0.3592 -0.2192 -0.1923
 1543TIP3    H1 4593   1.285   3.294   2.232 -0.6818 -1.1467 -1.2359
 1543TIP3    H2 4594   1.279   3.443   2.205  0.7662 -0.8730 -0.1407
 1544TIP3   OH2 4595   2.380   6.187   3.372  0.2389 -0.1967 -0.1012
 1544TIP3    H1 4596   2.470   6.217   3.362  0.0780 -0.1518 -1.5991
 1544TIP3    H2 4597   2.353   6.223   3.457  0.8799  1.7732 -0.6603
 1545TIP3   OH2 4598   0.912   3.612   3.435  0.2976  0.1776 -0.7688
 1545TIP3    H1 4599   0.865   3.693   3.456 -1.0216 -0.2665 -1.8659
 1545TIP3    H2 4600   0.876   3.584   3.351  1.5668 -0.9407 -0.9784
 1546TIP3   OH2 4601   2.125   1.633   0.393 -0.6045 -0.2893  0.4296
 1546TIP3    H1 4602   2.140   1.570   0.463 -1.2446 -0.0528  0.7852
 1546TIP3    H2 4603   2.042   1.606   0.354 -1.2043  0.7013  0.9928
 1547TIP3   OH2 4604   5.785   0.515   2.802 -0.1409 -0.3864 -0.1804
 1547TIP3    H1 4605   5.756   0.555   2.720  0.5271 -0.3141 -0.3945
 1547TIP3    H2 4606   5.716   0.534   2.865 -0.1514  0.5238 -0.4495
 1548TIP3   OH2 4607   1.530   0.238   5.859  0.5330  0.0446  0.1450
 1548TIP3    H1 4608   1.458   0.295   5.885  0.3126  0.2366 -0.8305
 1548TIP3    H2 4609   1.504   0.204   5.773  0.9621 -1.0070  0.4069
 1549TIP3   OH2 4610   6.691   1.282   2.578  0.1685  0.4319  0.8729
 1549TIP3    H1 4611   6.648   1.242   2.653  1.8391 -0.2822  1.5082
 1549TIP3    H2 4612   6.781   1.250   2.582  0.0048 -0.7892 -2.2514
 1550TIP3   OH2 4613   1.415   2.134   3.492  0.3277  0.0267 -0.1504
 1550TIP3    H1 4614   1.396   2.122   3.585 -2.2174  0.4167 -0.5290
 1550TIP3    H2 4615   1.376   2.057   3.450  2.8316 -0.9610 -0.8256
 1551TIP3   OH2 4616   7.141   2.980   1.301 -0.5219  0.2053  0.4545
 1551TIP3    H1 4617   7.202   2.936   1.242 -1.1877 -0.4416  0.2350
 1551TIP3    H2 4618   7.165   3.072   1.296 -0.0684  0.0557 -0.2279
 1552TIP3   OH2 4619   6.425   3.021   4.178  0.2311 -0.6589 -0.3589
 1552TIP3    H1 4620   6.367   3.033   4.103 -2.3309  0.4762  1.6892
 1552TIP3    H2 4621   6.500   3.077   4.159 -0.9187  0.5564 -1.5330
 1553TIP3   OH2 4622   2.752   4.543   5.637 -0.2268  0.1781  0.0816
 1553TIP3    H1 4623   2.809   4.466   5.645 -0.7891 -0.1746  0.7905
 1553TIP3    H2 4624   2.803   4.605   5.586 -0.1309 -1.0354 -1.3888
 1554TIP3   OH2 4625   5.396   5.058   0.990  0.1495  0.5461 -0.1216
 1554TIP3    H1 4626   5.337   5.054   0.915  0.1754 -1.7096 -0.0918
 1554TIP3    H2 4627   5.421   5.150   0.996 -1.3200  1.1052 -1.7134
 1555TIP3   OH2 4628   5.827   1.624   5.548  0.2314  0.1172  0.4883
 1555TIP3    H1 4629   5.770   1.587   5.615 -0.3102 -1.0661 -0.5951
 1555TIP3    H2 4630   5.888   1.679   5.597  0.8254 -1.8888  2.1523
 1556TIP3   OH2 4631   5.932   2.176   1.747  0.0956  0.7854 -0.0143
 1556TIP3    H1 4632   5.877   2.148   1.674 -0.3704  0.9477  0.2730
 1556TIP3    H2 4633   5.992   2.241   1.709  0.1385  0.5598 -0.3397
 1557TIP3   OH2 4634   6.725   0.344   2.947  0.3624  0.5585 -1.0633
 1557TIP3    H1 4635   6.663   0.279   2.915  0.1791  0.6895 -0.9759
 1557TIP3    H2 4636   6.805   0.329   2.895  0.8528 -0.7577  0.0060
 1558TIP3   OH2 4637   1.061   4.971   4.398 -0.2413  0.0173 -0.1880
 1558TIP3    H1 4638   0.995   4.924   4.347 -0.0152 -0.4854 -0.0222
 1558TIP3    H2 4639   1.141   4.921   4.386  0.2043  0.8415 -0.6971
 1559TIP3   OH2 4640   5.738   6.765   0.917  0.4718 -0.0825  0.8020
 1559TIP3    H1 4641   5.785   6.683   0.899  0.9544 -0.0586  1.8666
 1559TIP3    H2 4642   5.646   6.739   0.922  0.4069 -0.2314 -0.7077
 1560TIP3   OH2 4643   2.239   0.573   2.409  0.8875  0.2907  0.2372
 1560TIP3    H1 4644   2.174   0.585   2.341  0.4670  0.1172  0.6040
 1560TIP3    H2 4645   2.243   0.656   2.455 -0.4734 -0.2623  1.4227
 1561TIP3   OH2 4646   6.188   6.625   3.776 -0.3424  0.0834 -0.5605
 1561TIP3    H1 4647   6.129   6.627   3.851 -1.3822 -1.2777 -1.3119
 1561TIP3    H2 4648   6.276   6.621   3.815 -0.7531  1.3004  0.5565
 1562TIP3   OH2 4649   0.208   3.490   4.079 -0.0068  0.2844 -0.2603
 1562TIP3    H1 4650   0.276   3.513   4.143  0.1393  0.3643 -0.4429
 1562TIP3    H2 4651   0.219   3.554   4.009  1.1645 -1.0259 -1.3258
 1563TIP3   OH2 4652   5.973   4.271   4.363  0.0584  0.4234 -0.5399
 1563TIP3    H1 4653   5.950   4.302   4.276 -1.4490 -2.0721 -1.1371
 1563TIP3    H2 4654   5.947   4.179   4.363  0.5598  0.1912  2.3652
 1564TIP3   OH2 4655   5.255   5.359   5.849  0.2373  0.9184 -0.0813
 1564TIP3    H1 4656   5.174   5.409   5.853 -1.2052 -1.2489 -0.3682
 1564TIP3    H2 4657   5.281   5.346   5.940  0.0773  1.3438  0.0221
 1565TIP3   OH2 4658   1.160   5.245   1.359  0.0280 -0.0692  0.2460
 1565TIP3    H1 4659   1.149   5.154   1.384  0.2290 -0.4091 -0.8126
 1565TIP3    H2 4660   1.169   5.292   1.441  0.2786 -1.0535  0.8000
 1566TIP3   OH2 4661   6.077   2.698   2.495 -0.2772 -0.0775  0.3012
 1566TIP3    H1 4662   6.001   2.740   2.455 -0.2797 -0.4072 -0.0341
 1566TIP3    H2 4663   6.140   2.770   2.509 -0.6302  0.1882  0.5461
 1567TIP3   OH2 4664   2.695   0.038   1.657 -0.0803  0.1610  0.3932
 1567TIP3    H1 4665   2.681   0.005   1.568  1.8224 -0.4113  0.2716
 1567TIP3    H2 4666   2.764   0.103   1.648  0.3730 -0.1534  1.4984
 1568TIP3   OH2 4667   5.293   3.765   4.378 -0.0724 -0.3632  0.2401
 1568TIP3    H1 4668   5.215   3.738   4.329 -0.5958 -0.5016  1.1106
 1568TIP3    H2 4669   5.266   3.843   4.425  0.2040 -0.6007  0.8081
 1569TIP3   OH2 4670   6.275   0.641   4.815  0.2172  0.1459  0.7649
 1569TIP3    H1 4671   6.251   0.707   4.750 -0.3949 -0.4403  0.3868
 1569TIP3    H2 4672   6.355   0.601   4.781 -0.8247 -1.0812 -0.3354
 1570TIP3   OH2 4673   1.529   0.830   1.221 -0.1362 -0.2524  0.3118
 1570TIP3    H1 4674   1.506   0.782   1.141 -0.1340  0.3079 -0.0296
 1570TIP3    H2 4675   1.584   0.902   1.191 -1.6578  1.0785  0.5802
 1571TIP3   OH2 4676   0.661   0.720   0.161  0.2682  0.5917  0.3334
 1571TIP3    H1 4677   0.567   0.738   0.168 -0.1264 -1.6793  1.8912
 1571TIP3    H2 4678   0.701   0.779   0.226 -0.5460 -1.0152  2.4083
 1572TIP3   OH2 4679   3.797   1.264   1.076 -0.0130  0.2487 -0.4513
 1572TIP3    H1 4680   3.833   1.352   1.083  3.1529 -0.8807 -1.0803
 1572TIP3    H2 4681   3.871   1.208   1.054 -1.7390 -2.7428  0.5980
 1573TIP3   OH2 4682   5.779   4.192   3.343 -0.3690 -0.5719  0.2832
 1573TIP3    H1 4683   5.830   4.132   3.288  2.5507  1.9483 -0.0223
 1573TIP3    H2 4684   5.729   4.245   3.281  1.1057  0.7035  0.1345
 1574TIP3   OH2 4685   2.761   3.685   1.757  0.3093 -0.5625 -0.1516
 1574TIP3    H1 4686   2.772   3.770   1.800  1.8929 -0.8908  0.1497
 1574TIP3    H2 4687   2.734   3.707   1.668 -0.2098  0.2135  0.1810
 1575TIP3   OH2 4688   3.292   5.110   4.053  0.5010  0.1316 -0.2604
 1575TIP3    H1 4689   3.206   5.153   4.050  0.5300  0.1454 -1.2880
 1575TIP3    H2 4690   3.273   5.017   4.037  0.3774 -0.4095  2.4919
 1576TIP3   OH2 4691   4.797   2.333   4.349  0.1923  0.2021 -0.1342
 1576TIP3    H1 4692   4.744   2.304   4.424  0.0358  0.3572 -0.1842
 1576TIP3    H2 4693   4.840   2.254   4.318 -2.1879 -0.5438 -1.8497
 1577TIP3   OH2 4694   3.547   4.118   2.565  0.3239  0.2146  0.1516
 1577TIP3    H1 4695   3.569   4.094   2.655  1.9992  1.2018  0.0498
 1577TIP3    H2 4696   3.469   4.066   2.544 -0.5070  0.4548  2.3888
 1578TIP3   OH2 4697   5.876   5.558   4.263 -0.0073 -0.0548 -0.0725
 1578TIP3    H1 4698   5.953   5.566   4.319 -0.6544  0.8653  0.7181
 1578TIP3    H2 4699   5.911   5.549   4.174  1.0028  0.3011  0.2841
 1579TIP3   OH2 4700   5.284   4.682   4.720 -0.6444 -0.1603 -0.7560
 1579TIP3    H1 4701   5.367   4.719   4.690 -0.6623 -0.9862 -1.8682
 1579TIP3    H2 4702   5.308   4.603   4.768 -0.7148  0.3532  0.1510
 1580TIP3   OH2 4703   5.369   5.319   2.212 -0.2705 -0.6130 -0.6403
 1580TIP3    H1 4704   5.366   5.240   2.265 -0.7939 -0.3143 -0.2066
 1580TIP3    H2 4705   5.444   5.368   2.245 -2.1740  0.8990  1.8299
 1581TIP3   OH2 4706   1.976   1.783  -0.033 -0.1585  0.0569 -0.1438
 1581TIP3    H1 4707   1.962   1.861   0.021 -0.5850 -0.2588  0.2065
 1581TIP3    H2 4708   1.929   1.713   0.013 -0.0941 -0.3260 -0.6548
 1582TIP3   OH2 4709   2.362   1.215   3.584 -0.5350 -0.1948  0.3748
 1582TIP3    H1 4710   2.392   1.305   3.577 -1.9098  0.1680 -2.2668
 1582TIP3    H2 4711   2.425   1.164   3.534 -1.1446 -0.2822 -0.3244
 1583TIP3   OH2 4712   3.386   5.126   0.077 -0.3643 -0.3721  0.4600
 1583TIP3    H1 4713   3.471   5.169   0.086 -0.9292  0.2841  3.6244
 1583TIP3    H2 4714   3.399   5.065   0.004  2.9243 -0.5487  1.0119
 1584TIP3   OH2 4715   6.904   0.532   1.814 -0.2333  0.3377  0.3112
 1584TIP3    H1 4716   6.992   0.569   1.808  0.1930 -0.6043  0.5681
 1584TIP3    H2 4717   6.918   0.437   1.810 -1.1269  0.1353  1.4918
 1585TIP3   OH2 4718   0.292   5.177   4.857  0.5542  0.3502 -0.5331
 1585TIP3    H1 4719   0.204   5.180   4.894  1.3586  2.4514  1.4836
 1585TIP3    H2 4720   0.289   5.237   4.783  0.0615 -0.4345 -1.1737
 1586TIP3   OH2 4721   5.838   6.117   3.954 -0.1374 -0.0233 -0.3886
 1586TIP3    H1 4722   5.788   6.046   3.993  0.4853  0.2612  0.9517
 1586TIP3    H2 4723   5.922   6.116   3.998 -0.9118  3.0530  1.4861
 1587TIP3   OH2 4724   0.357   2.800   1.351 -0.3669 -0.1669  0.1921
 1587TIP3    H1 4725   0.360   2.844   1.436 -0.2920 -0.5233  0.3774
 1587TIP3    H2 4726   0.368   2.707   1.372  0.9793 -0.1466 -0.2993
 1588TIP3   OH2 4727   6.796   3.756   1.313 -0.4377 -0.3051 -0.4450
 1588TIP3    H1 4728   6.778   3.837   1.266 -0.9430  1.0184  1.8878
 1588TIP3    H2 4729   6.760   3.687   1.257 -1.3055  1.1961 -1.8159
 1589TIP3   OH2 4730   2.154   5.108   5.330 -0.1086 -0.1232  0.2588
 1589TIP3    H1 4731   2.233   5.096   5.276  0.7571  2.3555  0.8397
 1589TIP3    H2 4732   2.085   5.129   5.267  0.7595  2.1379 -0.0455
 1590TIP3   OH2 4733   5.568   5.203   2.620  0.1487  0.1301  0.2768
 1590TIP3    H1 4734   5.532   5.289   2.599 -1.9729 -0.8794 -0.5145
 1590TIP3    H2 4735   5.569   5.201   2.716 -0.6729  0.7054  0.3134
 1591TIP3   OH2 4736   6.819   5.832   5.139  0.2748  0.8237  0.0712
 1591TIP3    H1 4737   6.781   5.830   5.052  0.2227 -2.1097  0.0614
 1591TIP3    H2 4738   6.870   5.914   5.142 -2.4241  2.7065 -1.4221
 1592TIP3   OH2 4739   3.285   4.489   3.042  0.6021  0.8079 -0.1007
 1592TIP3    H1 4740   3.330   4.424   2.989  0.2043 -1.1144  1.7884
 1592TIP3    H2 4741   3.333   4.488   3.126 -1.1429  0.8648  0.9357
 1593TIP3   OH2 4742   5.873   4.249   4.120  0.6640 -0.2689 -0.1190
 1593TIP3    H1 4743   5.806   4.195   4.163  1.0980  0.0134  0.9490
 1593TIP3    H2 4744   5.863   4.229   4.027  0.9126 -2.3065  0.2347
 1594TIP3   OH2 4745   4.885   0.337   1.387  0.2851  0.1288 -0.5435
 1594TIP3    H1 4746   4.875   0.322   1.481  0.3415  1.6370 -0.2714
 1594TIP3    H2 4747   4.820   0.279   1.346 -0.1478 -0.1086  0.4576
 1595TIP3   OH2 4748   2.282   6.723   3.003 -0.0738 -0.1750  0.6869
 1595TIP3    H1 4749   2.310   6.799   3.053 -0.7938  0.1335  0.6323
 1595TIP3    H2 4750   2.205   6.752   2.955  0.6133 -0.4584 -0.6406
 1596TIP3   OH2 4751   4.271   6.611   5.437 -0.2293 -0.5021 -0.2604
 1596TIP3    H1 4752   4.209   6.611   5.509  1.0823 -1.4079  0.9276
 1596TIP3    H2 4753   4.323   6.531   5.449  2.7725  1.3478  0.3012
 1597TIP3   OH2 4754   4.847   6.326   1.208 -0.2369  0.3246  0.5359
 1597TIP3    H1 4755   4.879   6.309   1.297 -0.4745 -0.5629  0.4547
 1597TIP3    H2 4756   4.923   6.360   1.161  0.4528 -1.1726  0.5169
 1598TIP3   OH2 4757   0.711   3.133   4.554 -0.3487  0.5050 -0.1274
 1598TIP3    H1 4758   0.731   3.045   4.584  0.0946  0.9550  0.9795
 1598TIP3    H2 4759   0.785   3.186   4.584  0.6782  0.8565 -2.9597
 1599TIP3   OH2 4760   1.599   5.452   1.006  0.0727 -0.0529  0.0474
 1599TIP3    H1 4761   1.560   5.524   1.057  0.1686 -0.3044  0.4818
 1599TIP3    H2 4762   1.534   5.382   1.010  0.6057 -0.5112  0.8600
 1600TIP3   OH2 4763   5.809   2.628   5.086 -0.1183  0.4293 -0.8276
 1600TIP3    H1 4764   5.799   2.603   4.994 -2.0116  1.5053 -0.9686
 1600TIP3    H2 4765   5.825   2.545   5.132 -0.0055 -0.2288 -2.0153
 1601TIP3   OH2 4766   0.164   2.589   2.852  0.2926  0.0850 -0.2130
 1601TIP3    H1 4767   0.084   2.641   2.842  0.9416  1.1424 -0.0776
 1601TIP3    H2 4768   0.234   2.648   2.823  0.9920 -0.9602 -0.7101
 1602TIP3   OH2 4769   6.834   6.170   2.548  0.1719  0.4091 -0.1185
 1602TIP3    H1 4770   6.877   6.165   2.634  1.8366 -0.5383 -0.9458
 1602TIP3    H2 4771   6.846   6.261   2.521 -2.5075  1.3860  1.6248
 1603TIP3   OH2 4772   2.188   5.046   1.459 -0.1830  0.0405  0.3156
 1603TIP3    H1 4773   2.228   5.131   1.445  0.4702 -0.3465 -0.2477
 1603TIP3    H2 4774   2.162   5.017   1.371 -1.4416  0.1509  0.6287
 1604TIP3   OH2 4775   2.576   5.507   4.598 -0.1928  0.9071  0.0938
 1604TIP3    H1 4776   2.653   5.489   4.543 -0.7622  1.0521 -0.7632
 1604TIP3    H2 4777   2.551   5.421   4.632  0.1900  0.8199  0.1564
 1605TIP3   OH2 4778   6.039   1.771   3.998 -0.0418 -0.0580 -0.0842
 1605TIP3    H1 4779   6.030   1.828   4.074  1.8479 -1.0155  0.9337
 1605TIP3    H2 4780   6.004   1.687   4.026  0.3082 -0.3104 -0.3968
 1606TIP3   OH2 4781   0.210   3.192   5.068 -0.1690 -0.2189  0.7321
 1606TIP3    H1 4782   0.214   3.275   5.115  1.4188 -1.4217  2.9376
 1606TIP3    H2 4783   0.178   3.130   5.133 -0.0194 -1.5907 -0.4608
 1607TIP3   OH2 4784   0.253   4.959   0.709 -0.1992  0.0830 -0.3892
 1607TIP3    H1 4785   0.304   4.879   0.695  0.6905  0.5092  0.3107
 1607TIP3    H2 4786   0.230   4.957   0.802 -0.0136  0.7269 -0.3242
 1608TIP3   OH2 4787   6.839   3.209   5.296  0.0817 -0.6050 -0.1657
 1608TIP3    H1 4788   6.833   3.254   5.212  1.7962 -0.1065 -0.0640
 1608TIP3    H2 4789   6.857   3.278   5.359  1.1620 -1.2276  0.2386
 1609TIP3   OH2 4790   5.464   0.051   0.855  0.5967 -0.0859  0.0225
 1609TIP3    H1 4791   5.460   0.051   0.951 -0.1757  2.4641  0.0729
 1609TIP3    H2 4792   5.375   0.030   0.827  0.2715  1.2862 -0.0485
 1610TIP3   OH2 4793   1.048   3.977   3.584  0.0347 -0.2409 -0.5109
 1610TIP3    H1 4794   1.071   4.027   3.506 -1.0176  0.1478 -0.5882
 1610TIP3    H2 4795   0.967   3.931   3.561 -0.7944  0.5710  0.6171
 1611TIP3   OH2 4796   3.399   3.699   2.940  0.0783  0.6728 -0.0505
 1611TIP3    H1 4797   3.484   3.662   2.961 -0.6296 -1.6699 -0.9639
 1611TIP3    H2 4798   3.355   3.707   3.025  0.6520  0.4633  0.2706
 1612TIP3   OH2 4799   5.352   4.356   1.137  0.3816 -0.0939  0.7153
 1612TIP3    H1 4800   5.354   4.444   1.100  1.6170 -0.7011 -0.7799
 1612TIP3    H2 4801   5.262   4.344   1.166 -0.4944  0.7308 -1.4484
 1613TIP3   OH2 4802   3.091   4.137   5.473  0.5431 -0.3566  0.2376
 1613TIP3    H1 4803   3.077   4.167   5.563 -0.0590 -1.2989  0.4720
 1613TIP3    H2 4804   3.118   4.216   5.425 -0.2146  0.3906  1.0047
 1614TIP3   OH2 4805   4.647   4.355   1.166 -0.4053  0.2794 -0.1956
 1614TIP3    H1 4806   4.599   4.425   1.210 -0.4845 -0.2456  0.5622
 1614TIP3    H2 4807   4.699   4.400   1.100 -1.6330  0.9028 -0.7733
 1615TIP3   OH2 4808   5.765   3.926   1.396 -0.3352 -0.1313 -0.2414
 1615TIP3    H1 4809   5.803   3.855   1.448  0.0225 -0.2267 -0.6269
 1615TIP3    H2 4810   5.777   4.004   1.450  0.9967 -0.0541 -0.6258
 1616TIP3   OH2 4811   0.527   0.188   1.986 -0.0899 -0.2502  0.3307
 1616TIP3    H1 4812   0.608   0.143   1.960 -0.0476 -1.3981  2.2522
 1616TIP3    H2 4813   0.484   0.210   1.904  1.1629 -1.5060 -0.7041
 1617TIP3   OH2 4814   1.050   4.561   3.526 -0.1976  0.2701 -0.4025
 1617TIP3    H1 4815   1.134   4.538   3.487  1.3577  1.4068  1.9833
 1617TIP3    H2 4816   0.989   4.493   3.497  1.5514 -0.6320 -2.1388
 1618TIP3   OH2 4817   1.667   2.390   3.969  0.4589 -0.3743 -0.0524
 1618TIP3    H1 4818   1.591   2.436   3.933  0.4408 -0.5253 -0.2086
 1618TIP3    H2 4819   1.722   2.459   4.005  0.8938 -0.1258 -1.1308
 1619TIP3   OH2 4820   0.591   1.774   3.427 -0.0024 -0.2898 -0.2960
 1619TIP3    H1 4821   0.586   1.768   3.332 -0.3628  1.3018 -0.4100
 1619TIP3    H2 4822   0.528   1.710   3.459  1.2437 -1.9886 -1.0494
 1620TIP3   OH2 4823   3.453   1.726   3.008  0.2750 -0.2223  0.5058
 1620TIP3    H1 4824   3.479   1.736   2.916  0.0818  0.0211  0.4777
 1620TIP3    H2 4825   3.475   1.635   3.029 -0.0747 -0.4064  0.0962
 1621TIP3   OH2 4826   1.723   3.764   4.221 -0.4366  0.1451 -0.4698
 1621TIP3    H1 4827   1.734   3.683   4.270  0.7270  0.2291 -0.5721
 1621TIP3    H2 4828   1.811   3.787   4.192 -0.9577  0.5925 -1.8052
 1622TIP3   OH2 4829   5.082   0.135   4.820 -0.2089 -0.1581  0.0353
 1622TIP3    H1 4830   5.071   0.075   4.746 -1.7539  0.9784 -0.7306
 1622TIP3    H2 4831   4.992   0.151   4.850  0.0578  2.3433 -0.3108
 1623TIP3   OH2 4832   4.936   1.351   0.649 -0.2312 -0.3925 -0.1788
 1623TIP3    H1 4833   4.970   1.375   0.736  0.4964  1.5619 -0.9421
 1623TIP3    H2 4834   4.854   1.305   0.668  0.7344 -1.5326  1.5774
 1624TIP3   OH2 4835   1.929   3.227   5.179 -0.2845 -0.9246  0.0451
 1624TIP3    H1 4836   1.979   3.208   5.258 -0.8378 -1.1527  0.3446
 1624TIP3    H2 4837   1.840   3.198   5.199 -0.0537 -2.8013 -1.3330
 1625TIP3   OH2 4838   4.712   5.759   3.439  0.2564  0.1772  0.1460
 1625TIP3    H1 4839   4.726   5.706   3.360  1.9752 -0.8417  1.0653
 1625TIP3    H2 4840   4.754   5.709   3.509 -0.2105  1.6114  1.5042
 1626TIP3   OH2 4841   5.797   2.111   0.506  0.1646 -0.2570 -0.1781
 1626TIP3    H1 4842   5.841   2.064   0.435  1.2445  0.1293  0.2116
 1626TIP3    H2 4843   5.854   2.186   0.524  0.5014 -0.9411  1.8389
 1627TIP3   OH2 4844   0.171   1.955   3.521  1.1314  0.1634  0.2050
 1627TIP3    H1 4845   0.081   1.981   3.541  0.8104 -1.4711  1.0782
 1627TIP3    H2 4846   0.162   1.871   3.477  2.2729 -0.6191  1.4092
 1628TIP3   OH2 4847   2.490   2.278   4.951  0.0234  0.3301 -0.5653
 1628TIP3    H1 4848   2.466   2.207   5.010 -2.0050  1.8161  0.5276
 1628TIP3    H2 4849   2.576   2.306   4.980 -0.8240  0.8723  1.6521
 1629TIP3   OH2 4850   1.095   5.632   3.882 -0.2796  0.0778  0.1753
 1629TIP3    H1 4851   1.058   5.604   3.966  0.1897  0.3832  0.4883
 1629TIP3    H2 4852   1.054   5.717   3.866 -0.6672 -0.1575 -0.1033
 1630TIP3   OH2 4853   0.521   6.279   0.452  0.4489 -0.3444 -0.0107
 1630TIP3    H1 4854   0.484   6.211   0.508  0.5887  0.0548  0.5722
 1630TIP3    H2 4855   0.602   6.305   0.497 -0.4443  1.4014  0.6773
 1631TIP3   OH2 4856   6.387   1.648   5.186  0.0934 -0.3004 -0.1869
 1631TIP3    H1 4857   6.385   1.621   5.094  0.5916  0.7024 -0.5032
 1631TIP3    H2 4858   6.467   1.609   5.221  1.0451  1.0597 -0.7574
 1632TIP3   OH2 4859   6.397   3.382   5.592 -0.5587  0.8761  0.0069
 1632TIP3    H1 4860   6.486   3.387   5.555 -0.3985  1.6204  0.4752
 1632TIP3    H2 4861   6.339   3.390   5.517 -0.2373 -0.1742 -0.3735
 1633TIP3   OH2 4862   5.641   1.854   1.540 -0.8026 -0.0730  0.2755
 1633TIP3    H1 4863   5.720   1.800   1.542 -0.6757  0.1266  2.2446
 1633TIP3    H2 4864   5.625   1.870   1.447  1.2494 -0.4385 -0.1782
 1634TIP3   OH2 4865   2.508   4.983   2.898  0.5113  0.2565 -0.3085
 1634TIP3    H1 4866   2.600   4.988   2.922  0.7502 -1.6200 -0.6677
 1634TIP3    H2 4867   2.494   4.891   2.875 -1.5038  0.4472 -0.0475
 1635TIP3   OH2 4868   0.352   5.623   3.294  0.6309  0.0886  0.6623
 1635TIP3    H1 4869   0.446   5.623   3.308  0.7704  1.1794 -0.1396
 1635TIP3    H2 4870   0.338   5.686   3.223 -0.4686 -1.7351 -0.8672
 1636TIP3   OH2 4871   2.074   3.630   0.572 -0.2519  0.2811 -0.5693
 1636TIP3    H1 4872   2.107   3.597   0.489 -0.3934 -1.3169 -0.0355
 1636TIP3    H2 4873   1.996   3.577   0.589  1.7291 -2.0343  2.2611
 1637TIP3   OH2 4874   5.275   2.966   0.531 -1.3059 -0.6113 -0.0991
 1637TIP3    H1 4875   5.339   3.037   0.529 -2.8575  0.9645  1.6498
 1637TIP3    H2 4876   5.309   2.901   0.470  1.0577  0.8805 -0.5089
 1638TIP3   OH2 4877   1.381   1.017   4.304  0.3779 -0.2518  0.2777
 1638TIP3    H1 4878   1.330   0.943   4.339  2.2058 -1.8385 -0.2107
 1638TIP3    H2 4879   1.456   1.024   4.362  1.0055  0.2228 -0.5668
 1639TIP3   OH2 4880   1.871   1.457   2.847  0.8212 -0.0940 -0.7008
 1639TIP3    H1 4881   1.830   1.489   2.767 -0.6322 -2.2439 -0.8939
 1639TIP3    H2 4882   1.952   1.415   2.817 -0.4250 -2.1805 -1.3020
 1640TIP3   OH2 4883   7.087   4.931   3.058  0.8858 -0.0975  0.2054
 1640TIP3    H1 4884   7.061   5.013   3.100 -1.5663 -0.3038 -0.7172
 1640TIP3    H2 4885   7.178   4.918   3.085  1.4370  2.9778  0.2419
 1641TIP3   OH2 4886   3.861   4.586   3.873  0.2455 -0.3211 -0.0484
 1641TIP3    H1 4887   3.767   4.594   3.886  0.2681  0.1418 -0.1337
 1641TIP3    H2 4888   3.898   4.662   3.919  0.7916 -1.8527  2.1843
 1642TIP3   OH2 4889   6.292   1.519   3.346  0.5433  0.4473 -0.0513
 1642TIP3    H1 4890   6.265   1.609   3.365 -0.4880  0.3732 -1.0991
 1642TIP3    H2 4891   6.287   1.474   3.430 -0.9516  0.8637  0.1056
 1643TIP3   OH2 4892   0.272   4.987   2.101  0.6018  0.1009 -0.2515
 1643TIP3    H1 4893   0.338   5.055   2.111 -1.4426  2.0226  1.0221
 1643TIP3    H2 4894   0.273   4.940   2.184  2.1711 -1.6799 -1.2094
 1644TIP3   OH2 4895   5.466   3.940   3.714  0.0257  0.6391  0.1443
 1644TIP3    H1 4896   5.437   4.031   3.716 -0.9311  0.3395  0.1775
 1644TIP3    H2 4897   5.490   3.920   3.804 -1.2369  0.4061  0.4507
 1645TIP3   OH2 4898   5.933   2.724   5.406  0.0069 -0.1045 -0.4316
 1645TIP3    H1 4899   5.950   2.746   5.498  1.1516 -1.4938 -0.2618
 1645TIP3    H2 4900   5.858   2.665   5.408  1.3447 -1.8842 -0.1073
 1646TIP3   OH2 4901   4.146   2.169   2.931  0.5718  0.7252  0.1748
 1646TIP3    H1 4902   4.111   2.084   2.906 -0.1028  1.1419 -0.3228
 1646TIP3    H2 4903   4.229   2.149   2.974 -0.3322 -0.2885  1.5125
 1647TIP3   OH2 4904   1.964   3.308   3.154 -0.1476  0.2920 -0.1937
 1647TIP3    H1 4905   1.915   3.297   3.072 -0.5294  1.2115 -0.1041
 1647TIP3    H2 4906   2.052   3.331   3.127  0.1301 -0.8896 -0.3521
 1648TIP3   OH2 4907   5.439   3.527   4.172 -0.1958 -0.2640  0.3287
 1648TIP3    H1 4908   5.360   3.554   4.125 -0.0756 -1.6934 -0.7669
 1648TIP3    H2 4909   5.411   3.453   4.225  0.1296  0.0645  0.9719
 1649TIP3   OH2 4910   3.056   6.018   5.866 -0.3430  0.4503 -0.4568
 1649TIP3    H1 4911   3.138   5.972   5.882 -0.7694 -0.4596 -0.8037
 1649TIP3    H2 4912   2.996   5.950   5.834 -1.4185  0.9718  0.3861
 1650TIP3   OH2 4913   1.628   3.679   4.800  0.5065 -0.7840  0.0598
 1650TIP3    H1 4914   1.723   3.686   4.796  0.4506 -0.0053  0.0239
 1650TIP3    H2 4915   1.608   3.595   4.759  1.0231  0.0721 -2.0320
 1651TIP3   OH2 4916   2.470   2.724   0.996 -0.8856 -0.0698 -0.5131
 1651TIP3    H1 4917   2.508   2.676   0.922  1.3630 -1.3874  1.3449
 1651TIP3    H2 4918   2.544   2.738   1.055 -2.4962  1.3973  1.2582
 1652TIP3   OH2 4919   3.625   6.370   5.551  0.0602  0.1027 -0.4904
 1652TIP3    H1 4920   3.590   6.288   5.588 -0.2349  0.6763  0.5361
 1652TIP3    H2 4921   3.695   6.342   5.493 -0.4177 -0.9209 -0.6001
 1653TIP3   OH2 4922   1.916   6.487   4.831 -0.6187  0.0274 -0.5311
 1653TIP3    H1 4923   1.925   6.417   4.766  0.7279 -1.8847  1.5468
 1653TIP3    H2 4924   2.006   6.515   4.849 -0.9627  0.5695  0.4235
 1654TIP3   OH2 4925   4.196   0.018   3.973  0.4119  0.1810  0.2027
 1654TIP3    H1 4926   4.177   0.071   3.896 -0.5413  0.7992  0.8368
 1654TIP3    H2 4927   4.165   0.071   4.047  0.5648 -0.7403  0.9498
 1655TIP3   OH2 4928   6.324   0.312   5.285 -0.3633  0.1946  0.3829
 1655TIP3    H1 4929   6.308   0.346   5.197  0.1713 -0.8418 -0.1372
 1655TIP3    H2 4930   6.388   0.373   5.323  1.5282 -0.8209 -0.9820
 1656TIP3   OH2 4931   7.123   2.465   2.031 -0.3795  0.0263 -0.3525
 1656TIP3    H1 4932   7.086   2.430   1.950  1.1317 -1.1222 -0.5882
 1656TIP3    H2 4933   7.069   2.428   2.100 -1.1621  0.3455 -0.7791
 1657TIP3   OH2 4934   1.422   1.014   1.402  0.0200  0.1904 -0.4107
 1657TIP3    H1 4935   1.466   0.948   1.348  0.1693  0.5564 -0.7438
 1657TIP3    H2 4936   1.426   0.979   1.490  1.4813  0.4479 -0.3359
 1658TIP3   OH2 4937   5.713   1.852   0.724  0.7196  0.1877 -0.1994
 1658TIP3    H1 4938   5.746   1.939   0.747  0.5673  0.3016 -0.4036
 1658TIP3    H2 4939   5.775   1.819   0.658  1.8764 -0.6568  1.2425
 1659TIP3   OH2 4940   6.895   6.717   1.394 -0.3673 -0.3961 -0.5775
 1659TIP3    H1 4941   6.908   6.812   1.400 -1.4861 -0.2671  0.3304
 1659TIP3    H2 4942   6.801   6.708   1.379 -0.5453 -1.3796  0.9131
 1660TIP3   OH2 4943   4.577   3.060   4.999 -0.1940  0.1852  0.6571
 1660TIP3    H1 4944   4.618   2.999   5.060 -0.5931 -0.4824  0.2691
 1660TIP3    H2 4945   4.642   3.130   4.988 -0.2834  0.5331  2.1455
 1661TIP3   OH2 4946   0.908   0.914   1.973  0.2055  0.0780 -0.2319
 1661TIP3    H1 4947   0.889   0.855   1.900  0.6752 -0.2183 -0.1214
 1661TIP3    H2 4948   0.943   0.993   1.932  0.6109 -0.1458 -0.3196
 1662TIP3   OH2 4949   4.333   6.788   0.659 -0.2271 -0.0304  0.1745
 1662TIP3    H1 4950   4.311   6.695   0.659 -0.0525 -0.0704 -0.0393
 1662TIP3    H2 4951   4.425   6.792   0.633 -0.1933  0.1918  0.3270
 1663TIP3   OH2 4952   2.944   4.965   5.076 -0.2624 -0.1199  0.3668
 1663TIP3    H1 4953   3.019   4.973   5.135  0.6451 -0.3310 -0.7237
 1663TIP3    H2 4954   2.913   4.876   5.089  1.7673 -1.1907 -1.5409
 1664TIP3   OH2 4955   2.478   3.096   2.595 -0.1413  0.0861 -0.5001
 1664TIP3    H1 4956   2.506   3.166   2.654 -1.8119  0.6080 -0.2754
 1664TIP3    H2 4957   2.524   3.018   2.626 -2.4788 -0.1718  2.9388
 1665TIP3   OH2 4958   0.724   5.471   4.162  0.0839 -0.6568  0.1054
 1665TIP3    H1 4959   0.649   5.526   4.187  2.2067  2.5495  0.1133
 1665TIP3    H2 4960   0.734   5.485   4.068  0.6107 -1.0769  0.0958
 1666TIP3   OH2 4961   0.092   2.160   3.887 -0.7473 -0.3011 -0.1141
 1666TIP3    H1 4962   0.020   2.174   3.949 -0.0770 -0.1269  0.6368
 1666TIP3    H2 4963   0.118   2.069   3.901  2.1343  0.7653  2.9200
 1667TIP3   OH2 4964   0.359   5.262   1.222  0.2109  0.7043  0.3530
 1667TIP3    H1 4965   0.374   5.201   1.294 -0.8363  0.8458  0.7164
 1667TIP3    H2 4966   0.284   5.225   1.175  0.5382  0.9023 -0.3482
 1668TIP3   OH2 4967   0.911   2.243   0.522 -0.5042  0.0291 -0.1537
 1668TIP3    H1 4968   0.894   2.249   0.616 -1.9320  0.0392 -0.3981
 1668TIP3    H2 4969   0.995   2.196   0.516  0.4208  1.4118  1.1483
 1669TIP3   OH2 4970   0.849   3.504   0.297  0.3226  0.5025  0.7849
 1669TIP3    H1 4971   0.937   3.498   0.335 -0.0234 -2.3422  1.4179
 1669TIP3    H2 4972   0.791   3.507   0.372 -0.2410 -2.3884  0.6005
 1670TIP3   OH2 4973   4.843   1.751   0.290  0.1859  0.1873 -0.1855
 1670TIP3    H1 4974   4.863   1.688   0.358  1.2133  0.9459  0.2366
 1670TIP3    H2 4975   4.820   1.698   0.214  1.6474 -0.7267 -0.0315
 1671TIP3   OH2 4976   2.076   1.466   0.607 -0.4847 -0.8846 -0.0210
 1671TIP3    H1 4977   2.122   1.531   0.660 -1.4844 -0.7534  0.7199
 1671TIP3    H2 4978   2.053   1.397   0.669 -0.5733 -1.3327 -0.5451
 1672TIP3   OH2 4979   4.203   3.267   1.034  0.3366  0.1316 -0.1601
 1672TIP3    H1 4980   4.175   3.224   0.953  3.0526 -0.3915 -0.9076
 1672TIP3    H2 4981   4.124   3.312   1.065 -1.8610 -2.8315 -0.9406
 1673TIP3   OH2 4982   4.884   2.794   5.649  0.9549  0.2057  0.3098
 1673TIP3    H1 4983   4.938   2.870   5.630 -1.0655  2.2189  2.0920
 1673TIP3    H2 4984   4.928   2.750   5.722  1.0739  0.8626  0.6394
 1674TIP3   OH2 4985   1.549   6.222   3.387 -0.0652  0.5269 -0.0680
 1674TIP3    H1 4986   1.599   6.170   3.450 -0.3889  0.5257  0.1880
 1674TIP3    H2 4987   1.570   6.313   3.409  0.2214  0.5154 -0.2873
 1675TIP3   OH2 4988   0.357   5.364   3.029 -0.5951  0.2598 -0.1446
 1675TIP3    H1 4989   0.326   5.277   3.006  0.1482 -0.4020  1.2425
 1675TIP3    H2 4990   0.308   5.387   3.108  0.8149  0.1259  0.7945
 1676TIP3   OH2 4991   1.937   5.281   3.061  0.0819 -0.2872  0.4547
 1676TIP3    H1 4992   1.910   5.197   3.098  0.2822 -0.3688  0.4199
 1676TIP3    H2 4993   2.017   5.303   3.109 -0.2993  0.1808  0.8941
 1677TIP3   OH2 4994   6.898   6.116   1.523  0.5130  0.0965 -0.6538
 1677TIP3    H1 4995   6.991   6.136   1.524  0.4410  0.4956 -1.3183
 1677TIP3    H2 4996   6.868   6.146   1.437 -0.6315  1.7816  0.2813
 1678TIP3   OH2 4997   2.943   5.105   3.898  0.3938  0.3134  0.5268
 1678TIP3    H1 4998   2.960   5.024   3.945 -0.9849 -1.3695 -1.6464
 1678TIP3    H2 4999   2.943   5.173   3.965 -0.4880 -1.7622  2.7551
 1679TIP3   OH2 5000   3.718   1.350   4.817  0.6531  0.2923  0.3644
 1679TIP3    H1 5001   3.764   1.303   4.886 -0.9505 -1.1709  0.4941
 1679TIP3    H2 5002   3.715   1.288   4.744  2.3063  1.7962 -1.0981
 1680TIP3   OH2 5003   2.817   3.594   0.287  0.3026 -0.3864  0.0092
 1680TIP3    H1 5004   2.767   3.675   0.290  1.7851  0.5567  0.1074
 1680TIP3    H2 5005   2.907   3.620   0.306  1.4713 -1.4761 -3.3067
 1681TIP3   OH2 5006   4.338   3.079   2.632 -0.3002 -0.2299 -0.1322
 1681TIP3    H1 5007   4.377   2.994   2.610  0.6727  0.2882 -0.4683
 1681TIP3    H2 5008   4.396   3.115   2.699  0.2743  0.8966 -1.1897
 1682TIP3   OH2 5009   1.619   3.373   5.145  0.1159  0.0218  0.5535
 1682TIP3    H1 5010   1.666   3.303   5.189 -3.1292 -1.7283  1.5508
 1682TIP3    H2 5011   1.629   3.353   5.052  0.3331 -0.9956  0.7843
 1683TIP3   OH2 5012   3.407   0.319   2.818 -0.5551  0.5656 -0.4746
 1683TIP3    H1 5013   3.392   0.338   2.911  0.7883 -2.9345  0.6508
 1683TIP3    H2 5014   3.499   0.340   2.804 -0.7759  1.1614 -1.0467
 1684TIP3   OH2 5015   4.360   5.187   1.879  0.1202 -0.1342  0.4899
 1684TIP3    H1 5016   4.293   5.252   1.901 -1.0136 -1.6374  1.7422
 1684TIP3    H2 5017   4.315   5.127   1.819  1.4635  0.7562 -1.4872
 1685TIP3   OH2 5018   4.394   1.088   5.813  0.0648 -0.0632 -0.3995
 1685TIP3    H1 5019   4.362   1.093   5.723  1.5092 -0.0151 -0.9208
 1685TIP3    H2 5020   4.360   1.005   5.846  0.0287 -0.3584 -1.1701
 1686TIP3   OH2 5021   5.940   1.992   4.820  0.2086 -0.3724  0.6000
 1686TIP3    H1 5022   5.891   1.991   4.738 -1.4944  0.4500  1.5783
 1686TIP3    H2 5023   6.027   2.024   4.795  0.2660 -1.7279 -1.1418
 1687TIP3   OH2 5024   3.603   2.695   2.623  0.3011  0.1203  0.0156
 1687TIP3    H1 5025   3.657   2.632   2.575 -0.6967 -0.9758  0.2935
 1687TIP3    H2 5026   3.513   2.674   2.598 -0.0915  1.0284  0.6025
 1688TIP3   OH2 5027   3.660   2.883   1.007 -0.4197  0.4394  0.3093
 1688TIP3    H1 5028   3.701   2.816   1.062  2.5576  0.8646 -1.1659
 1688TIP3    H2 5029   3.690   2.862   0.918 -0.8437  2.6805 -0.4275
 1689TIP3   OH2 5030   6.742   4.262   5.461 -0.1561  0.4434  0.2494
 1689TIP3    H1 5031   6.708   4.260   5.551  0.5293  1.8219  0.5612
 1689TIP3    H2 5032   6.665   4.245   5.407 -0.8398  0.8907  1.0445
 1690TIP3   OH2 5033   1.132   0.476   3.633  0.0087  0.5081  0.1738
 1690TIP3    H1 5034   1.169   0.411   3.574 -0.0773 -0.3067  0.9824
 1690TIP3    H2 5035   1.207   0.510   3.682  0.0591  1.0647 -0.2744
 1691TIP3   OH2 5036   0.402   3.584   5.334  0.3968 -0.0618 -0.0105
 1691TIP3    H1 5037   0.361   3.650   5.389  0.0185 -1.2644  1.2188
 1691TIP3    H2 5038   0.487   3.621   5.310 -0.5559  1.6529 -0.9798
 1692TIP3   OH2 5039   3.735   3.162   3.634 -0.0613 -0.0974  0.1402
 1692TIP3    H1 5040   3.766   3.201   3.552 -0.5415 -0.8165 -0.3960
 1692TIP3    H2 5041   3.716   3.071   3.611 -0.0944 -0.3309  1.0841
 1693TIP3   OH2 5042   7.076   1.095   3.509 -0.0469  0.1061 -0.0102
 1693TIP3    H1 5043   7.160   1.081   3.465  0.3059 -0.4524  0.8207
 1693TIP3    H2 5044   7.068   1.021   3.570 -0.8065  0.5375  0.4261
 1694TIP3   OH2 5045   2.411   4.492   1.549  0.2052  0.2067  0.0598
 1694TIP3    H1 5046   2.367   4.411   1.522 -1.2697  0.7396  0.7672
 1694TIP3    H2 5047   2.350   4.533   1.610  1.4991  1.2306  0.7057
 1695TIP3   OH2 5048   2.713   5.659   1.875 -0.0342 -0.1926 -0.4341
 1695TIP3    H1 5049   2.780   5.622   1.817  0.0943 -1.5353  0.5050
 1695TIP3    H2 5050   2.690   5.743   1.836  0.7535 -0.6156 -1.8736
 1696TIP3   OH2 5051   0.220   6.270   0.911 -0.7919  0.1612 -0.0378
 1696TIP3    H1 5052   0.260   6.289   0.826  0.3931 -0.2872  0.3953
 1696TIP3    H2 5053   0.126   6.279   0.896 -0.5897  0.3233 -1.3345
 1697TIP3   OH2 5054   4.471   1.057   0.811  0.4266 -0.4869  0.1132
 1697TIP3    H1 5055   4.530   0.988   0.843 -1.2889 -1.1158  2.1588
 1697TIP3    H2 5056   4.408   1.010   0.756  0.5523 -0.1628 -0.3118
 1698TIP3   OH2 5057   5.365   4.934   3.365 -0.0366  0.2426 -0.1041
 1698TIP3    H1 5058   5.438   4.922   3.426  0.6399 -4.3002 -1.4255
 1698TIP3    H2 5059   5.407   4.956   3.282 -0.5054  0.8760 -0.1837
 1699TIP3   OH2 5060   1.903   6.559   4.270  0.3779  0.0427 -0.1108
 1699TIP3    H1 5061   1.924   6.546   4.178 -1.0224 -0.8113 -0.3480
 1699TIP3    H2 5062   1.959   6.496   4.316 -1.0851 -1.7545 -0.6678
 1700TIP3   OH2 5063   2.559   0.199   1.162  0.5402  0.0702  0.7761
 1700TIP3    H1 5064   2.596   0.188   1.074  1.0674 -0.7549  1.0876
 1700TIP3    H2 5065   2.515   0.284   1.159  0.5707  0.0658 -0.2776
 1701TIP3   OH2 5066   5.859   5.512   1.686  1.1069 -0.4671  0.2548
 1701TIP3    H1 5067   5.843   5.447   1.754  1.6652  0.6502  1.4977
 1701TIP3    H2 5068   5.953   5.509   1.671  1.2615  0.6051  0.9213
 1702TIP3   OH2 5069   3.244   5.359   0.419 -0.5512  0.2299 -0.1646
 1702TIP3    H1 5070   3.214   5.337   0.508 -3.7211 -0.2515 -1.2142
 1702TIP3    H2 5071   3.329   5.315   0.411 -0.6485 -0.5580  2.2787
 1703TIP3   OH2 5072   1.554   4.456   5.476 -0.1254 -0.5383  0.3366
 1703TIP3    H1 5073   1.532   4.364   5.467  1.0131 -0.9109  1.0936
 1703TIP3    H2 5074   1.637   4.456   5.524 -0.2193  0.8870  0.5443
 1704TIP3   OH2 5075   0.124   3.866   0.579 -0.1364  0.0193  0.5018
 1704TIP3    H1 5076   0.206   3.912   0.561 -0.2870  0.5618  1.1358
 1704TIP3    H2 5077   0.149   3.776   0.595  0.0075 -0.5184 -2.3587
 1705TIP3   OH2 5078   4.050   1.180   4.933  0.1781  0.2685  0.3493
 1705TIP3    H1 5079   3.965   1.178   4.978 -0.0388 -0.2513 -0.0786
 1705TIP3    H2 5080   4.031   1.147   4.845  1.0542 -1.0906  0.6386
 1706TIP3   OH2 5081   2.546   4.935   2.548 -0.8749  0.4141  0.0355
 1706TIP3    H1 5082   2.530   4.851   2.592  0.2257  0.7749  1.1862
 1706TIP3    H2 5083   2.603   4.912   2.474 -2.3508 -0.1280 -0.9871
 1707TIP3   OH2 5084   5.793   6.192   4.585  0.6498 -0.3464 -0.5592
 1707TIP3    H1 5085   5.758   6.247   4.655 -1.0292 -0.2294 -1.4214
 1707TIP3    H2 5086   5.878   6.162   4.618  1.4184  2.3045  0.1638
 1708TIP3   OH2 5087   1.667   5.987   0.239 -0.8345 -0.2475  0.3036
 1708TIP3    H1 5088   1.682   5.899   0.273 -1.9648 -0.4540  0.3329
 1708TIP3    H2 5089   1.572   5.990   0.223 -0.3343 -0.4466 -3.5805
 1709TIP3   OH2 5090   2.990   6.617   1.284 -0.3047  0.3336  0.4519
 1709TIP3    H1 5091   2.995   6.593   1.377 -0.2618 -2.1640 -0.1367
 1709TIP3    H2 5092   2.900   6.599   1.259  0.1744 -1.0323 -0.4415
 1710TIP3   OH2 5093   0.042   1.122   4.034  0.0081 -0.4264 -0.4063
 1710TIP3    H1 5094  -0.040   1.086   4.067 -0.5235  0.0441 -1.1813
 1710TIP3    H2 5095   0.071   1.183   4.102  0.1482 -1.1944  0.2399
 1711TIP3   OH2 5096   0.252   0.057   3.013  0.1233 -0.5168 -0.2440
 1711TIP3    H1 5097   0.162   0.027   3.026  0.1643 -1.3151 -1.5671
 1711TIP3    H2 5098   0.289   0.063   3.101 -1.3192  0.1715  0.3414
 1712TIP3   OH2 5099   2.932   4.708   3.406  0.2548 -0.4543  0.5253
 1712TIP3    H1 5100   2.863   4.677   3.348  0.1333  2.7982 -1.3424
 1712TIP3    H2 5101   3.009   4.717   3.350  0.8248  0.4592  1.4071
 1713TIP3   OH2 5102   0.295   1.007   4.800  0.9604  0.2379 -0.3370
 1713TIP3    H1 5103   0.318   0.963   4.882  0.4929  1.2902  0.3890
 1713TIP3    H2 5104   0.378   1.020   4.755  1.0679 -1.7449 -0.7787
 1714TIP3   OH2 5105   3.994   2.177   2.164 -0.0106  0.2658  0.6042
 1714TIP3    H1 5106   3.930   2.190   2.095 -0.3881 -0.4238  0.8139
 1714TIP3    H2 5107   3.986   2.255   2.219 -1.1147 -0.0873  0.9724
 1715TIP3   OH2 5108   4.428   6.621   2.707  0.2710 -0.8675  0.5598
 1715TIP3    H1 5109   4.457   6.629   2.616  0.1416 -2.0496  0.3926
 1715TIP3    H2 5110   4.375   6.541   2.708  1.5508 -1.7531  1.9703
 1716TIP3   OH2 5111   6.384   4.602   2.751 -0.2550 -0.6523 -0.4843
 1716TIP3    H1 5112   6.435   4.673   2.711  0.9984 -1.3357 -0.1679
 1716TIP3    H2 5113   6.307   4.645   2.788  0.0756  0.4191 -0.9989
 1717TIP3   OH2 5114   2.389   2.522   1.801  0.4635  0.2296 -0.1425
 1717TIP3    H1 5115   2.451   2.584   1.840  0.8261 -1.2315  1.7754
 1717TIP3    H2 5116   2.303   2.563   1.813  0.7170  0.4883  0.9368
 1718TIP3   OH2 5117   0.846   0.830   4.602 -0.2891  0.2780 -0.7184
 1718TIP3    H1 5118   0.771   0.889   4.606 -0.9116 -0.4981 -0.4885
 1718TIP3    H2 5119   0.886   0.847   4.517 -0.4296  1.0553 -0.6325
 1719TIP3   OH2 5120   5.298   0.350   5.399 -0.0101  0.2674  0.2216
 1719TIP3    H1 5121   5.205   0.366   5.411 -0.3064 -0.4307 -0.9942
 1719TIP3    H2 5122   5.339   0.436   5.410 -0.9046  0.7668 -0.2641
 1720TIP3   OH2 5123   4.068   5.519   0.331 -0.3052  0.1733  0.3101
 1720TIP3    H1 5124   4.106   5.548   0.414  0.6389  1.2589 -0.4770
 1720TIP3    H2 5125   4.097   5.428   0.322 -0.2212  0.1193  1.0452
 1721TIP3   OH2 5126   3.519   3.817   4.906 -0.1128 -0.3717 -0.5176
 1721TIP3    H1 5127   3.567   3.892   4.872 -0.1384 -0.9712 -1.9648
 1721TIP3    H2 5128   3.459   3.792   4.835 -3.4992  1.0501  1.6151
 1722TIP3   OH2 5129   4.769   0.798   5.346  0.4316  0.0273 -0.0414
 1722TIP3    H1 5130   4.673   0.796   5.341  0.4511  0.4656 -0.7018
 1722TIP3    H2 5131   4.792   0.887   5.319  1.0370 -0.1264 -0.0360
 1723TIP3   OH2 5132   3.087   2.106   0.667  0.0738  0.2995  0.7655
 1723TIP3    H1 5133   3.133   2.110   0.751 -0.0876  1.4800  0.8193
 1723TIP3    H2 5134   3.067   2.013   0.654 -1.1619  0.2347  2.7284
 1724TIP3   OH2 5135   0.265   1.080   3.241 -0.8180  0.3681  0.2564
 1724TIP3    H1 5136   0.235   1.151   3.297  1.5819 -1.0418  3.6965
 1724TIP3    H2 5137   0.354   1.061   3.271 -0.2247 -2.1313 -2.5339
 1725TIP3   OH2 5138   4.302   4.491   3.530  0.0557 -0.8241 -0.1009
 1725TIP3    H1 5139   4.358   4.424   3.491  0.9210 -0.8604  1.1423
 1725TIP3    H2 5140   4.217   4.480   3.488  0.3988 -2.2016 -0.4596
 1726TIP3   OH2 5141   6.294   0.049   4.597  0.5402  0.0417  0.2066
 1726TIP3    H1 5142   6.224   0.012   4.651 -1.5448  1.6997 -1.1977
 1726TIP3    H2 5143   6.261   0.042   4.507  1.6958  1.8367 -0.4134
 1727TIP3   OH2 5144   1.753   6.475   5.034  0.7213 -0.2662 -0.3253
 1727TIP3    H1 5145   1.669   6.470   4.987  0.7353 -2.9071 -0.2383
 1727TIP3    H2 5146   1.819   6.474   4.965  0.6875 -0.2260 -0.3578
 1728TIP3   OH2 5147   0.307   2.639   0.966 -0.2708 -0.6440  0.1169
 1728TIP3    H1 5148   0.235   2.601   0.916 -1.0888 -0.1682  0.8934
 1728TIP3    H2 5149   0.285   2.619   1.058  0.6891 -0.6679  0.3487
 1729TIP3   OH2 5150   1.342   1.397   3.049  0.3804 -0.6548  0.2798
 1729TIP3    H1 5151   1.357   1.368   2.959 -1.6816  1.6112 -0.9004
 1729TIP3    H2 5152   1.424   1.440   3.074  0.4062  0.1782 -1.1475
 1730TIP3   OH2 5153   3.354   5.779   4.282 -0.0717  0.1662  0.2202
 1730TIP3    H1 5154   3.429   5.724   4.302  0.3185  0.0552 -1.4152
 1730TIP3    H2 5155   3.288   5.719   4.247 -0.3937  0.4608  0.3114
 1731TIP3   OH2 5156   6.441   0.038   3.807 -0.2306 -0.3463 -0.0881
 1731TIP3    H1 5157   6.387   0.073   3.877  2.2045  0.5235  1.5042
 1731TIP3    H2 5158   6.439   0.106   3.739 -1.7142 -0.7020 -0.4393
 1732TIP3   OH2 5159   6.972   6.478   5.347 -0.0451 -0.3328 -0.2601
 1732TIP3    H1 5160   6.893   6.438   5.382 -0.1610 -1.0554 -1.2871
 1732TIP3    H2 5161   7.014   6.520   5.422 -1.3554  0.0008  0.3067
 1733TIP3   OH2 5162   5.047   3.743   4.214  0.6717  0.3148 -0.7983
 1733TIP3    H1 5163   4.990   3.730   4.289 -2.2431  1.4463 -2.6075
 1733TIP3    H2 5164   5.011   3.687   4.146  2.5354  0.1348 -1.7057
 1734TIP3   OH2 5165   5.616   1.167   4.834 -0.0215  0.3315  0.2216
 1734TIP3    H1 5166   5.652   1.245   4.876 -1.5915  1.9974 -1.3763
 1734TIP3    H2 5167   5.603   1.192   4.742 -3.0047 -0.8881  0.1891
 1735TIP3   OH2 5168   5.697   1.514   5.787  0.5955  0.6820  0.6925
 1735TIP3    H1 5169   5.754   1.443   5.818  1.2617  0.0183 -1.8093
 1735TIP3    H2 5170   5.609   1.477   5.793  0.8725 -0.0998  0.1003
 1736TIP3   OH2 5171   1.762   4.502   0.273  0.0180 -0.2665  0.4828
 1736TIP3    H1 5172   1.819   4.447   0.325 -0.0323  0.4997  1.3706
 1736TIP3    H2 5173   1.799   4.499   0.185 -1.2535 -3.5038 -0.0558
 1737TIP3   OH2 5174   4.288   5.012   1.697  0.5173  0.0375 -0.0721
 1737TIP3    H1 5175   4.316   4.931   1.739  1.4538  1.0431  1.3354
 1737TIP3    H2 5176   4.238   4.983   1.621  0.0481 -1.8560  0.8844
 1738TIP3   OH2 5177   3.214   5.032   5.233 -0.0686  0.4690 -0.4694
 1738TIP3    H1 5178   3.206   5.107   5.293  2.3207  1.1700 -0.9056
 1738TIP3    H2 5179   3.298   5.046   5.189  0.1526 -2.1490 -1.0444
 1739TIP3   OH2 5180   1.463   3.763   5.277 -0.2737  0.0096  0.2125
 1739TIP3    H1 5181   1.557   3.757   5.263 -0.3730 -1.2905  0.0177
 1739TIP3    H2 5182   1.453   3.773   5.372  0.0386 -0.6350  0.3176
 1740TIP3   OH2 5183   5.163   2.739   2.981  0.3657 -0.7032  0.1950
 1740TIP3    H1 5184   5.208   2.714   2.900  0.2573 -0.6293  0.1109
 1740TIP3    H2 5185   5.217   2.808   3.018  0.1623 -0.4079 -0.0597
 1741TIP3   OH2 5186   1.884   6.535   0.871 -0.1949 -0.0034  0.0423
 1741TIP3    H1 5187   1.959   6.478   0.860 -0.8024 -0.3371 -3.6428
 1741TIP3    H2 5188   1.812   6.476   0.895 -0.2249 -0.4084 -1.0003
 1742TIP3   OH2 5189   6.904   6.417   2.037  0.0314 -0.1040  0.4228
 1742TIP3    H1 5190   6.948   6.501   2.021 -0.4065 -0.3679 -2.6976
 1742TIP3    H2 5191   6.975   6.353   2.042  0.2232  0.0292 -0.4882
 1743TIP3   OH2 5192   6.349   0.783   1.392  0.0627  0.0951 -0.0225
 1743TIP3    H1 5193   6.441   0.777   1.419  0.0293 -0.5028 -0.0284
 1743TIP3    H2 5194   6.328   0.876   1.399  0.6748  0.2400 -0.0400
 1744TIP3   OH2 5195   3.951   1.803   1.758  0.0177 -0.4817 -0.1331
 1744TIP3    H1 5196   3.955   1.711   1.782 -1.5571 -0.6590 -0.4562
 1744TIP3    H2 5197   3.877   1.809   1.698 -0.6661  1.1974  0.8059
 1745TIP3   OH2 5198   0.830   5.758   0.340 -0.3948  0.4842  0.0075
 1745TIP3    H1 5199   0.871   5.845   0.339 -0.7865  0.6668 -0.5607
 1745TIP3    H2 5200   0.891   5.704   0.391 -0.3539  1.1891  0.7348
 1746TIP3   OH2 5201   1.604   2.411   0.452  0.0388  0.0393  0.0109
 1746TIP3    H1 5202   1.528   2.458   0.486  0.9869  0.4226  1.7776
 1746TIP3    H2 5203   1.608   2.331   0.504 -1.0169 -1.6565 -2.3408
 1747TIP3   OH2 5204   4.556   4.458   0.593 -0.2692 -0.4807 -0.0784
 1747TIP3    H1 5205   4.594   4.545   0.576  1.9254 -1.2688  0.3815
 1747TIP3    H2 5206   4.602   4.400   0.532 -0.6877 -1.5344  0.5861
 1748TIP3   OH2 5207   3.543   6.536   2.359 -0.0222 -0.2737  0.4841
 1748TIP3    H1 5208   3.562   6.455   2.406 -1.1277 -1.0894 -0.4026
 1748TIP3    H2 5209   3.586   6.605   2.410  0.8597 -1.4007  1.3060
 1749TIP3   OH2 5210   2.690   1.517   4.710  0.0366 -0.2912  0.2422
 1749TIP3    H1 5211   2.779   1.537   4.682  0.5885  0.9562  2.6125
 1749TIP3    H2 5212   2.694   1.426   4.740  1.5981  0.7810  3.7916
 1750TIP3   OH2 5213   5.856   6.578   4.199 -0.0857  0.5937 -0.6238
 1750TIP3    H1 5214   5.871   6.661   4.243  0.6645  1.5883 -2.6152
 1750TIP3    H2 5215   5.892   6.512   4.258  1.5999  1.9197 -0.1088
 1751TIP3   OH2 5216   5.557   1.914   5.081  0.0528 -0.6800  0.1253
 1751TIP3    H1 5217   5.561   1.928   5.176  0.3986  0.8182 -0.0839
 1751TIP3    H2 5218   5.464   1.926   5.060  0.0003 -0.8553  0.2480
 1752TIP3   OH2 5219   4.992   4.571   1.357 -0.1496  0.2631 -0.1972
 1752TIP3    H1 5220   4.969   4.606   1.271  1.4238  0.8637 -0.4155
 1752TIP3    H2 5221   4.913   4.584   1.410 -0.8187  0.7851 -1.2760
 1753TIP3   OH2 5222   0.164   6.702   1.115  0.1135 -0.2869 -0.0435
 1753TIP3    H1 5223   0.156   6.796   1.133  0.3990 -0.6860  2.6559
 1753TIP3    H2 5224   0.100   6.685   1.046  0.3303  1.9294 -0.8631
 1754TIP3   OH2 5225   3.419   3.728   1.806 -0.3523  0.1897  0.3933
 1754TIP3    H1 5226   3.393   3.668   1.876  1.2402  0.9330  1.6864
 1754TIP3    H2 5227   3.337   3.762   1.772 -1.2613 -1.8508  0.3586
 1755TIP3   OH2 5228   1.611   0.020   3.546  0.2562  0.3419  0.3350
 1755TIP3    H1 5229   1.619   0.095   3.606  0.0883  0.7704 -0.1666
 1755TIP3    H2 5230   1.700  -0.016   3.542  0.3091  0.4262  0.6953
 1756TIP3   OH2 5231   0.442   0.141   5.374 -0.0056 -0.1330 -0.5871
 1756TIP3    H1 5232   0.479   0.226   5.399 -1.8623  0.2364  1.1928
 1756TIP3    H2 5233   0.487   0.077   5.429 -1.4807  0.2556  1.1913
 1757TIP3   OH2 5234   4.631   0.266   0.395  0.1728 -0.3884 -0.0090
 1757TIP3    H1 5235   4.648   0.225   0.479 -0.1318  1.5157  1.0538
 1757TIP3    H2 5236   4.652   0.199   0.330  2.8260 -1.1176  1.4683
 1758TIP3   OH2 5237   7.015   1.593   1.178  0.1572  0.1285 -0.4560
 1758TIP3    H1 5238   7.024   1.678   1.220  1.7677 -0.6391  0.8912
 1758TIP3    H2 5239   7.104   1.557   1.177 -0.2500 -0.9975 -2.2076
 1759TIP3   OH2 5240   0.034   2.050   0.977 -0.0093 -0.8178  0.0471
 1759TIP3    H1 5241   0.049   2.082   0.888 -3.2800  0.2667 -0.2760
 1759TIP3    H2 5242   0.043   2.127   1.032  1.1532 -1.3091  0.5605
 1760TIP3   OH2 5243   4.959   1.212   0.421 -0.5682 -0.1070 -0.3834
 1760TIP3    H1 5244   4.898   1.263   0.366 -0.2797 -0.1605 -0.7558
 1760TIP3    H2 5245   4.958   1.258   0.505 -0.8582  0.0972 -0.4934
 1761TIP3   OH2 5246   6.465   5.712   3.185 -0.2283 -0.0656 -0.4039
 1761TIP3    H1 5247   6.425   5.681   3.104 -3.5422 -0.4397  1.1948
 1761TIP3    H2 5248   6.447   5.643   3.248  2.3513  0.1740  0.6922
 1762TIP3   OH2 5249   1.805   1.124   2.432 -0.2225 -0.6018 -0.5525
 1762TIP3    H1 5250   1.784   1.054   2.369  0.2726 -0.8900 -0.4060
 1762TIP3    H2 5251   1.899   1.141   2.418 -0.8267  1.8209 -2.3614
 1763TIP3   OH2 5252   2.903   3.707   2.206  0.2126  0.3563  0.2469
 1763TIP3    H1 5253   2.862   3.649   2.141  3.4457 -1.2525 -0.5816
 1763TIP3    H2 5254   2.844   3.782   2.211 -1.8187 -0.8951 -2.1468
 1764TIP3   OH2 5255   0.061   0.511   0.248 -0.1998  1.2429 -0.1162
 1764TIP3    H1 5256   0.043   0.433   0.300  0.2113  0.0831 -1.6322
 1764TIP3    H2 5257  -0.005   0.574   0.276  0.5965  1.0606  2.4768
 1765TIP3   OH2 5258   6.005   1.804   5.000  0.7873 -0.0677 -0.2074
 1765TIP3    H1 5259   5.989   1.870   4.933 -2.3034  0.3581  0.7783
 1765TIP3    H2 5260   6.068   1.845   5.060  0.4718  1.1801 -0.7057
 1766TIP3   OH2 5261   0.094   4.383   4.943 -0.0560 -1.4519  0.6666
 1766TIP3    H1 5262   0.006   4.344   4.944 -1.0202  0.5325 -0.1975
 1766TIP3    H2 5263   0.098   4.430   4.860  1.1857 -0.1484  1.4243
 1767TIP3   OH2 5264   7.037   0.680   5.046  0.4372 -0.3215  0.0635
 1767TIP3    H1 5265   6.945   0.665   5.066  0.3531 -1.1269 -0.8719
 1767TIP3    H2 5266   7.055   0.767   5.081 -1.1398  0.5951 -1.2535
 1768TIP3   OH2 5267   1.628   6.687   5.608  0.0128  0.8248  0.2374
 1768TIP3    H1 5268   1.701   6.647   5.561 -1.1437  1.4402 -2.2512
 1768TIP3    H2 5269   1.663   6.770   5.640  0.4289  1.1223 -0.9359
 1769TIP3   OH2 5270   2.712   0.479   4.463  0.1696  0.2784 -0.1546
 1769TIP3    H1 5271   2.705   0.502   4.555  1.5034  0.0165  0.0438
 1769TIP3    H2 5272   2.663   0.546   4.417  0.1481  0.8604  0.6975
 1770TIP3   OH2 5273   3.908   4.072   5.521 -0.4123 -0.2320 -0.4197
 1770TIP3    H1 5274   3.967   4.035   5.587  0.5187  0.9795 -0.5473
 1770TIP3    H2 5275   3.821   4.068   5.563 -0.2076 -1.6417 -0.0693
 1771TIP3   OH2 5276   5.978   2.689   1.359  0.2336 -0.3784 -0.2458
 1771TIP3    H1 5277   5.999   2.736   1.278 -2.3582  0.4863 -0.4875
 1771TIP3    H2 5278   5.973   2.757   1.426 -2.0621 -0.4481 -0.2953
 1772TIP3   OH2 5279   3.470   0.627   0.112 -0.0119 -0.6657 -0.1576
 1772TIP3    H1 5280   3.473   0.720   0.090  0.5106 -0.5869  0.2027
 1772TIP3    H2 5281   3.533   0.587   0.053 -0.0443 -0.7487 -0.1354
 1773TIP3   OH2 5282   2.415   4.647   2.273 -0.2151  0.3037  0.2606
 1773TIP3    H1 5283   2.484   4.708   2.247  0.1999 -0.9814 -1.8625
 1773TIP3    H2 5284   2.421   4.644   2.368  2.0223  0.9687  0.2072
 1774TIP3   OH2 5285   5.337   5.390   3.958 -0.0783  0.1873  0.1435
 1774TIP3    H1 5286   5.396   5.335   4.011 -0.2303 -0.9426 -0.8172
 1774TIP3    H2 5287   5.387   5.470   3.942  1.7828 -1.2474 -1.7348
 1775TIP3   OH2 5288   1.753   3.020   2.814  0.6271 -0.6166 -0.3004
 1775TIP3    H1 5289   1.783   3.109   2.835  0.9534 -0.7186 -0.3355
 1775TIP3    H2 5290   1.659   3.021   2.834  0.9619 -0.7782  1.4031
 1776TIP3   OH2 5291   2.577   5.021   1.907  0.0321  0.6152 -0.1723
 1776TIP3    H1 5292   2.570   4.926   1.908  0.8648  0.5490  0.0350
 1776TIP3    H2 5293   2.602   5.044   1.997 -0.3242  1.0456 -0.1800
 1777TIP3   OH2 5294   3.549   5.002   5.547  0.6278  0.0016  0.2954
 1777TIP3    H1 5295   3.486   5.074   5.551 -1.4889 -1.7301 -0.0381
 1777TIP3    H2 5296   3.599   5.009   5.628 -0.1155  1.3194  0.6633
 1778TIP3   OH2 5297   7.199   1.344   3.100  0.2182  0.0769  0.2448
 1778TIP3    H1 5298   7.129   1.282   3.124  1.1740 -1.8450 -1.5663
 1778TIP3    H2 5299   7.244   1.363   3.182 -0.6973 -0.8948  0.9990
 1779TIP3   OH2 5300   3.744   2.418   1.707 -0.2952  0.1107  0.1754
 1779TIP3    H1 5301   3.814   2.476   1.736 -0.6579 -0.3290  1.9966
 1779TIP3    H2 5302   3.788   2.338   1.680 -0.0245  0.2214  0.2876
 1780TIP3   OH2 5303   0.809   1.899   5.460  0.3139 -0.2108 -0.3705
 1780TIP3    H1 5304   0.771   1.812   5.453  0.0052 -0.1797  0.6730
 1780TIP3    H2 5305   0.754   1.944   5.524  1.6765  0.0887  0.6332
 1781TIP3   OH2 5306   2.140   5.274   3.234  0.2338  0.0550  0.6665
 1781TIP3    H1 5307   2.213   5.218   3.208  0.0513  0.1056  0.0159
 1781TIP3    H2 5308   2.128   5.257   3.327  1.4598  0.4961  0.9169
 1782TIP3   OH2 5309   5.879   2.477   0.784 -0.1863 -0.1511  0.2536
 1782TIP3    H1 5310   5.896   2.419   0.709  1.3922 -0.1145  0.5347
 1782TIP3    H2 5311   5.813   2.539   0.753 -1.9963 -2.1186 -0.0372
 1783TIP3   OH2 5312   6.085   0.050   4.025 -0.1607  0.3917 -0.0670
 1783TIP3    H1 5313   6.065   0.084   4.112  1.2824  0.6038  0.2050
 1783TIP3    H2 5314   6.026   0.097   3.966  0.8707  2.4282  0.4570
 1784TIP3   OH2 5315   4.258   5.605   1.356 -0.0336  0.6258  0.6097
 1784TIP3    H1 5316   4.187   5.667   1.375 -1.0827 -1.1708  3.0280
 1784TIP3    H2 5317   4.289   5.576   1.442  2.1564 -0.3321 -0.4190
 1785TIP3   OH2 5318   6.417   6.242   3.673  0.1770 -0.5238 -0.2948
 1785TIP3    H1 5319   6.488   6.194   3.715  0.2146 -0.4506 -0.2750
 1785TIP3    H2 5320   6.338   6.207   3.714  0.1961 -0.6577 -0.3686
 1786TIP3   OH2 5321   4.685   6.101   2.787  0.0211 -0.4772  0.0700
 1786TIP3    H1 5322   4.666   6.193   2.803 -1.2294 -0.5834 -0.7134
 1786TIP3    H2 5323   4.775   6.089   2.819 -0.3026  0.6659  1.4671
 1787TIP3   OH2 5324   3.949   0.044   4.236 -0.7422 -0.3196  0.1264
 1787TIP3    H1 5325   3.914  -0.015   4.302  0.5589 -0.0174  1.1276
 1787TIP3    H2 5326   3.894   0.029   4.159 -2.5279 -0.4298  1.3495
 1788TIP3   OH2 5327   3.355   1.016   3.744 -0.0480  0.6495  0.4337
 1788TIP3    H1 5328   3.316   0.950   3.687  0.5076  0.8086 -0.1387
 1788TIP3    H2 5329   3.339   0.984   3.833 -5.2391  2.6630  0.6023
 1789TIP3   OH2 5330   6.785   1.619   0.640 -0.1723 -0.1131 -0.3808
 1789TIP3    H1 5331   6.756   1.647   0.553  0.3086 -2.5790 -1.4432
 1789TIP3    H2 5332   6.875   1.589   0.626 -0.5465 -1.8493  0.6333
 1790TIP3   OH2 5333   0.208   4.413   2.760  0.0783 -0.3617  0.4042
 1790TIP3    H1 5334   0.178   4.421   2.851  0.1047  0.6094  0.3335
 1790TIP3    H2 5335   0.140   4.362   2.716 -0.4283  0.0176  0.7389
 1791TIP3   OH2 5336   4.844   3.477   0.700 -0.0193 -0.2743  0.1988
 1791TIP3    H1 5337   4.819   3.445   0.613 -0.2342 -0.0317  0.1685
 1791TIP3    H2 5338   4.778   3.442   0.759 -1.3878  1.6492 -0.1016
 1792TIP3   OH2 5339   2.254   1.809   4.596  0.3808  0.3134  0.8185
 1792TIP3    H1 5340   2.303   1.889   4.582  3.3781 -1.4658  0.2580
 1792TIP3    H2 5341   2.303   1.762   4.663  0.2362 -2.1380 -0.6652
 1793TIP3   OH2 5342   0.056   0.240   5.056 -0.1579  0.4230  0.0520
 1793TIP3    H1 5343   0.036   0.236   4.962  0.5143  0.8590 -0.1185
 1793TIP3    H2 5344   0.089   0.152   5.076 -0.0545  0.4063 -0.1801
 1794TIP3   OH2 5345   5.028   5.736   3.395 -0.0598 -0.2879 -1.0763
 1794TIP3    H1 5346   4.973   5.773   3.464 -0.9116 -1.2460 -1.2223
 1794TIP3    H2 5347   4.966   5.705   3.328  0.6905 -0.6002 -1.6427
 1795TIP3   OH2 5348   6.113   1.953   3.613 -0.5530 -0.1744  0.1014
 1795TIP3    H1 5349   6.031   1.981   3.653 -0.4982  2.8460 -1.5668
 1795TIP3    H2 5350   6.087   1.885   3.551 -1.9765  1.1113 -0.7991
 1796TIP3   OH2 5351   5.383   5.911   2.130 -0.0611 -0.2764  0.1206
 1796TIP3    H1 5352   5.408   5.840   2.190 -1.9286 -0.6938  0.4624
 1796TIP3    H2 5353   5.421   5.990   2.169  0.4464 -0.8182  0.7567
 1797TIP3   OH2 5354   2.138   5.785   3.281 -0.3460  0.2971 -0.1527
 1797TIP3    H1 5355   2.175   5.716   3.225  1.9287  0.6404  0.8269
 1797TIP3    H2 5356   2.115   5.855   3.220 -0.1660 -0.2679 -0.8851
 1798TIP3   OH2 5357   0.677   2.158   4.954 -0.0075 -0.1808 -0.6107
 1798TIP3    H1 5358   0.596   2.202   4.978  0.8368  1.0550  0.0854
 1798TIP3    H2 5359   0.671   2.072   4.995 -0.0590  0.6749  1.2986
 1799TIP3   OH2 5360   0.689   1.350   1.368  0.7774  0.5517 -0.1082
 1799TIP3    H1 5361   0.635   1.409   1.316  2.1477  1.4832 -0.5416
 1799TIP3    H2 5362   0.639   1.269   1.372  0.2008  0.7486 -2.1104
 1800TIP3   OH2 5363   0.716   4.053   2.878  0.0132  0.3992  0.0076
 1800TIP3    H1 5364   0.739   4.073   2.787 -1.0251 -0.5017 -0.4839
 1800TIP3    H2 5365   0.620   4.046   2.877  0.0246 -0.0903  1.0720
 1801TIP3   OH2 5366   7.083   0.706   3.883 -0.4063  0.5148  0.2133
 1801TIP3    H1 5367   7.050   0.730   3.970 -1.7030 -1.7354  0.4041
 1801TIP3    H2 5368   7.170   0.668   3.900 -0.9402 -0.5493  0.6350
 1802TIP3   OH2 5369   5.393   4.228   2.982 -0.3608 -0.2304  0.0828
 1802TIP3    H1 5370   5.345   4.225   3.065 -1.5820  3.0959 -0.3468
 1802TIP3    H2 5371   5.325   4.226   2.915  0.3168  0.9193 -0.6744
 1803TIP3   OH2 5372   6.373   1.937   4.508  0.3018 -0.2493 -0.3024
 1803TIP3    H1 5373   6.343   1.956   4.419 -1.2410  2.2258  0.6541
 1803TIP3    H2 5374   6.467   1.921   4.498  0.2882  0.6256 -2.3254
 1804TIP3   OH2 5375   1.763   4.320   4.427  0.2473 -0.0531  0.0481
 1804TIP3    H1 5376   1.815   4.296   4.350 -0.4303  0.1827 -0.4981
 1804TIP3    H2 5377   1.674   4.291   4.406  0.3059 -1.2863  1.3570
 1805TIP3   OH2 5378   5.830   0.977   3.179 -0.3078  0.6885 -0.2151
 1805TIP3    H1 5379   5.865   0.899   3.222  0.3309  1.3096  0.4152
 1805TIP3    H2 5380   5.904   1.012   3.130 -0.6070  0.8654 -0.5415
 1806TIP3   OH2 5381   1.189   1.563   2.216  0.0189 -0.0630  0.2850
 1806TIP3    H1 5382   1.166   1.528   2.130  1.7309 -0.0514 -0.2014
 1806TIP3    H2 5383   1.120   1.530   2.274 -1.3621  0.2166 -1.1303
 1807TIP3   OH2 5384   1.299   5.153   4.933 -0.0920  0.4850 -0.1774
 1807TIP3    H1 5385   1.237   5.216   4.970 -0.1435 -0.7846  2.0831
 1807TIP3    H2 5386   1.244   5.083   4.897 -0.2907 -1.9978  4.1843
 1808TIP3   OH2 5387   2.193   0.954   4.256 -0.2908 -0.5323 -0.6790
 1808TIP3    H1 5388   2.232   0.868   4.240  0.2313 -0.8335  1.8267
 1808TIP3    H2 5389   2.101   0.936   4.275  0.0357 -0.6999  0.8621
 1809TIP3   OH2 5390   1.152   0.675   4.023 -0.8377  0.0065 -0.2098
 1809TIP3    H1 5391   1.069   0.701   3.983 -0.3059  1.7799 -0.2623
 1809TIP3    H2 5392   1.129   0.604   4.083 -2.0970 -0.7356 -1.5230
 1810TIP3   OH2 5393   5.223   3.743   2.378 -0.2844  0.0392  0.1595
 1810TIP3    H1 5394   5.179   3.805   2.320 -0.4732 -0.1785  0.0651
 1810TIP3    H2 5395   5.161   3.730   2.450  0.6735  1.6618  1.3379
 1811TIP3   OH2 5396   0.921   4.981   2.329  0.2389 -0.0686  0.1834
 1811TIP3    H1 5397   0.921   5.004   2.236 -1.9768  0.0239  0.1437
 1811TIP3    H2 5398   0.947   4.889   2.332  0.4610 -0.0293 -0.5098
 1812TIP3   OH2 5399   6.902   1.796   1.850 -0.8309  0.0215 -0.1621
 1812TIP3    H1 5400   6.865   1.752   1.926  1.3835 -2.7070 -0.4887
 1812TIP3    H2 5401   6.940   1.877   1.886 -0.0785 -1.0593  1.6324
 1813TIP3   OH2 5402   6.755   5.264   3.621  0.6633 -0.3527 -0.5389
 1813TIP3    H1 5403   6.828   5.326   3.622  0.9667 -0.7058 -0.7438
 1813TIP3    H2 5404   6.679   5.316   3.650  1.0258 -0.0279 -0.1606
 1814TIP3   OH2 5405   6.221   5.602   0.922 -0.0180 -0.4217  0.5340
 1814TIP3    H1 5406   6.189   5.561   1.002 -1.3411 -1.8454 -0.6543
 1814TIP3    H2 5407   6.293   5.658   0.951 -1.1127 -0.0880  2.8339
 1815TIP3   OH2 5408   1.958   1.896   0.536 -0.1020  0.2382 -0.2615
 1815TIP3    H1 5409   1.872   1.911   0.498 -1.5626  2.0149  3.3255
 1815TIP3    H2 5410   2.017   1.950   0.484 -1.6628  1.2504 -1.0392
 1816TIP3   OH2 5411   1.953   4.660   4.071  0.1342 -0.1455  0.1736
 1816TIP3    H1 5412   1.865   4.633   4.045 -1.0039  2.2752  1.2172
 1816TIP3    H2 5413   1.971   4.611   4.151 -1.1961  0.8321  1.1192
 1817TIP3   OH2 5414   1.584   4.665   0.884 -0.0052  0.1332  0.2543
 1817TIP3    H1 5415   1.535   4.599   0.834  0.9325  0.2090 -0.8162
 1817TIP3    H2 5416   1.519   4.732   0.905 -0.8318 -0.7958  0.7839
 1818TIP3   OH2 5417   0.957   0.137   4.718  0.2336 -0.8685 -0.1929
 1818TIP3    H1 5418   1.048   0.111   4.733  0.5836 -0.9114 -2.1388
 1818TIP3    H2 5419   0.961   0.232   4.706 -0.3980 -0.4488  2.2653
 1819TIP3   OH2 5420   2.183   4.134   0.830 -0.2185 -0.1031 -0.0138
 1819TIP3    H1 5421   2.149   4.067   0.890 -0.1240  0.4718  0.7064
 1819TIP3    H2 5422   2.270   4.155   0.866  0.5869 -0.9756 -1.3634
 1820TIP3   OH2 5423   6.472   1.394   2.215 -0.2291 -0.4034  0.9098
 1820TIP3    H1 5424   6.478   1.396   2.119  0.4384  0.6285  0.9576
 1820TIP3    H2 5425   6.383   1.423   2.234  0.2020  1.2636  0.6204
 1821TIP3   OH2 5426   5.419   6.335   0.471 -0.1588  0.1867 -0.5609
 1821TIP3    H1 5427   5.478   6.323   0.545 -1.4009  0.2455  0.4659
 1821TIP3    H2 5428   5.451   6.274   0.405  0.3433 -0.6385  0.4109
 1822TIP3   OH2 5429   3.032   2.149   3.672 -0.0426 -0.2170  0.3959
 1822TIP3    H1 5430   3.027   2.229   3.724  1.3268 -0.2117  0.5388
 1822TIP3    H2 5431   2.949   2.147   3.624  0.2438  1.7006 -0.2440
 1823TIP3   OH2 5432   2.049   4.862   0.357  0.4986 -0.2244 -0.9508
 1823TIP3    H1 5433   2.032   4.901   0.442  0.4689 -0.2581 -0.9415
 1823TIP3    H2 5434   2.136   4.895   0.332  2.1996 -3.0321  0.7271
 1824TIP3   OH2 5435   5.140   6.055   1.825  0.0291 -0.4345  0.3902
 1824TIP3    H1 5436   5.102   6.016   1.904  0.0747 -0.1463  0.5559
 1824TIP3    H2 5437   5.220   6.004   1.809 -0.8854 -1.6617 -0.4983
 1825TIP3   OH2 5438   1.147   4.122   2.847  0.4228  0.0519 -0.2320
 1825TIP3    H1 5439   1.211   4.106   2.777  0.0298 -1.3646 -0.2958
 1825TIP3    H2 5440   1.201   4.139   2.925  0.9884 -2.8376  0.1235
 1826TIP3   OH2 5441   0.110   3.285   4.322  0.3835  0.3282  0.0570
 1826TIP3    H1 5442   0.105   3.369   4.369  1.1976  1.0548 -1.1186
 1826TIP3    H2 5443   0.110   3.309   4.230 -3.5520 -1.1729 -0.5099
 1827TIP3   OH2 5444   2.768   3.660   5.012  0.4878  0.6487 -0.4190
 1827TIP3    H1 5445   2.772   3.751   5.040 -1.5840  0.2354  1.5100
 1827TIP3    H2 5446   2.675   3.646   4.992  0.3109 -1.5982  1.5874
 1828TIP3   OH2 5447   4.876   2.546   3.332 -0.4826 -0.1460 -0.3410
 1828TIP3    H1 5448   4.866   2.506   3.245 -2.2861  1.0775 -0.7758
 1828TIP3    H2 5449   4.907   2.635   3.314  0.4886 -0.3328  0.3763
 1829TIP3   OH2 5450   2.498   4.406   3.164  0.9296 -0.1305 -0.1968
 1829TIP3    H1 5451   2.495   4.474   3.097  0.0301 -0.5392 -0.5787
 1829TIP3    H2 5452   2.526   4.452   3.243  0.9184  0.5640 -0.5887
 1830TIP3   OH2 5453   5.531   3.956   4.576  0.4110  0.8278 -0.2078
 1830TIP3    H1 5454   5.556   4.007   4.499 -0.2557  0.1640 -0.8861
 1830TIP3    H2 5455   5.463   4.009   4.619 -0.4614  0.4293 -1.0482
 1831TIP3   OH2 5456   4.503   6.342   3.711 -0.0038 -0.0693  0.8145
 1831TIP3    H1 5457   4.430   6.403   3.717  1.1348  1.2260  2.2816
 1831TIP3    H2 5458   4.579   6.392   3.741  1.8885 -0.7981 -2.2667
 1832TIP3   OH2 5459   4.194   2.645   2.264 -0.0342  0.6907 -0.0764
 1832TIP3    H1 5460   4.282   2.606   2.263 -0.4782 -0.3592  0.5690
 1832TIP3    H2 5461   4.198   2.709   2.336 -0.6981 -1.6196  2.1458
 1833TIP3   OH2 5462   7.089   1.642   0.828  0.3336 -0.0904 -0.0468
 1833TIP3    H1 5463   7.080   1.595   0.745 -2.3885  2.2756 -1.2803
 1833TIP3    H2 5464   7.148   1.714   0.809  1.0518 -0.5044  0.5816
 1834TIP3   OH2 5465   0.231   0.504   4.230 -0.3949 -0.3204  0.3231
 1834TIP3    H1 5466   0.234   0.409   4.214  0.8877 -0.6005  1.9513
 1834TIP3    H2 5467   0.199   0.541   4.148  1.3670 -1.9649 -1.2007
 1835TIP3   OH2 5468   1.966   5.177   0.593 -0.1069 -0.0386  0.0619
 1835TIP3    H1 5469   1.924   5.198   0.510 -0.2503 -0.5428  0.0044
 1835TIP3    H2 5470   2.036   5.242   0.601 -0.6544  0.5696 -0.0173
 1836TIP3   OH2 5471   0.766   4.665   2.135 -0.4998 -0.3277 -0.2777
 1836TIP3    H1 5472   0.691   4.617   2.171 -0.2867  0.8853  1.9516
 1836TIP3    H2 5473   0.730   4.749   2.109  0.1314  0.4948  1.3715
 1837TIP3   OH2 5474   0.026   6.580   2.077  0.5930 -0.6577 -0.0204
 1837TIP3    H1 5475   0.037   6.569   1.982 -0.4618  1.1507 -0.3926
 1837TIP3    H2 5476   0.026   6.675   2.090 -1.2515 -0.8214  1.5413
 1838TIP3   OH2 5477   3.983   6.512   2.631 -0.4967  0.0989 -0.9244
 1838TIP3    H1 5478   3.991   6.554   2.717  2.5283  2.4423 -2.1534
 1838TIP3    H2 5479   4.015   6.423   2.645 -0.2372  0.3757  0.4042
 1839TIP3   OH2 5480   2.084   1.184   2.444  0.0869 -0.2353 -0.1949
 1839TIP3    H1 5481   2.167   1.191   2.395  0.0396 -0.8224 -0.3543
 1839TIP3    H2 5482   2.111   1.157   2.532  0.1706  0.8056  0.1141
 1840TIP3   OH2 5483   5.906   4.062   3.099 -0.2755  0.3851  0.2098
 1840TIP3    H1 5484   5.940   4.036   3.014 -0.1563  0.5440  0.2075
 1840TIP3    H2 5485   5.940   4.150   3.113  0.8828 -0.1580  1.0358
 1841TIP3   OH2 5486   2.232   0.467   4.126  0.2954 -0.2234 -0.1270
 1841TIP3    H1 5487   2.294   0.538   4.110 -0.9913  1.0538  0.3252
 1841TIP3    H2 5488   2.170   0.471   4.053 -1.3108  0.8805  1.2047
 1842TIP3   OH2 5489   0.805   0.980   2.235 -0.9270  0.6313 -0.0206
 1842TIP3    H1 5490   0.776   0.964   2.145 -3.2273  0.8560  0.6295
 1842TIP3    H2 5491   0.736   0.943   2.290  0.1843  0.9481  1.6569
 1843TIP3   OH2 5492   0.545   2.792   5.778  0.8277 -0.6000 -0.2408
 1843TIP3    H1 5493   0.579   2.828   5.860  2.4682  0.1174 -1.1897
 1843TIP3    H2 5494   0.450   2.805   5.784  0.9704 -0.0592  1.2925
 1844TIP3   OH2 5495   6.151   0.096   2.732  0.1394 -0.5464  0.4300
 1844TIP3    H1 5496   6.176   0.079   2.641  2.4122  0.9227  0.7068
 1844TIP3    H2 5497   6.088   0.168   2.727 -0.9082 -1.4665 -0.0332
 1845TIP3   OH2 5498   0.955   3.174   5.800 -0.5989 -0.1953  0.0930
 1845TIP3    H1 5499   0.982   3.220   5.880  1.8539  0.3691 -0.9693
 1845TIP3    H2 5500   1.005   3.092   5.803  0.6607  0.4616 -1.5004
 1846TIP3   OH2 5501   5.035   4.427   5.643 -0.3558  0.0673  0.0777
 1846TIP3    H1 5502   4.991   4.469   5.570 -0.6542 -0.9945 -0.3755
 1846TIP3    H2 5503   4.984   4.347   5.658  0.0432 -0.0131  1.0694
 1847TIP3   OH2 5504   4.512   3.863   3.717 -0.0784  0.4940 -0.9406
 1847TIP3    H1 5505   4.556   3.797   3.664  0.8284 -0.2290  0.6369
 1847TIP3    H2 5506   4.546   3.946   3.685  0.7866  0.0494 -1.1998
 1848TIP3   OH2 5507   2.732   6.282   5.010 -0.1598  0.1614 -0.3088
 1848TIP3    H1 5508   2.807   6.231   4.978 -0.2789  0.2105 -0.6636
 1848TIP3    H2 5509   2.725   6.355   4.949 -0.5876  0.0798 -0.3573
 1849TIP3   OH2 5510   2.544   5.817   1.220 -0.1557  0.3750  0.2135
 1849TIP3    H1 5511   2.474   5.836   1.282 -2.8417 -1.2615 -2.0955
 1849TIP3    H2 5512   2.591   5.744   1.260  0.2132  1.3828  1.7179
 1850TIP3   OH2 5513   3.955   4.408   0.829 -0.2722  0.2550  0.4574
 1850TIP3    H1 5514   3.910   4.452   0.757 -0.0998  0.2296  0.3352
 1850TIP3    H2 5515   3.995   4.479   0.879  0.7071  0.1820 -0.2092
 1851TIP3   OH2 5516   3.778   4.588   2.692 -0.4892  0.5970 -0.4504
 1851TIP3    H1 5517   3.809   4.665   2.645  0.9038 -0.2747 -1.0260
 1851TIP3    H2 5518   3.742   4.531   2.623 -0.2519  0.1547 -0.2116
 1852TIP3   OH2 5519   6.363   5.365   1.805 -0.1629 -0.4070  0.2710
 1852TIP3    H1 5520   6.446   5.317   1.805 -0.0867 -0.2794  0.4993
 1852TIP3    H2 5521   6.386   5.453   1.835 -0.0769  0.2007 -1.4889
 1853TIP3   OH2 5522   5.293   3.189   2.182 -0.0532  0.2816 -0.0209
 1853TIP3    H1 5523   5.340   3.257   2.230  5.1313 -1.9222 -1.2603
 1853TIP3    H2 5524   5.320   3.107   2.223 -0.6919 -1.3383 -2.5835
 1854TIP3   OH2 5525   6.030   4.891   1.781 -0.2052  0.1315  0.3824
 1854TIP3    H1 5526   5.987   4.807   1.796 -1.1291  0.4897 -0.1994
 1854TIP3    H2 5527   6.103   4.892   1.843 -0.9812 -0.5263  1.3237
 1855TIP3   OH2 5528   2.168   0.461   0.633 -0.2495 -0.0627 -0.1980
 1855TIP3    H1 5529   2.113   0.398   0.680 -3.4468  2.9114  0.4494
 1855TIP3    H2 5530   2.179   0.423   0.546  0.4629 -2.7801  0.9697
 1856TIP3   OH2 5531   5.652   3.211   5.793 -0.5403 -0.2553 -0.3055
 1856TIP3    H1 5532   5.740   3.216   5.755 -1.0234 -1.9073 -1.7432
 1856TIP3    H2 5533   5.598   3.264   5.735 -0.6538  0.1456  0.1544
 1857TIP3   OH2 5534   0.636   5.856   4.461 -0.4106 -0.6774  0.1953
 1857TIP3    H1 5535   0.549   5.881   4.429  0.2260 -1.0263 -1.9532
 1857TIP3    H2 5536   0.651   5.769   4.423  0.7609 -0.7538  0.8019
 1858TIP3   OH2 5537   2.516   2.478   5.139 -0.4145  0.3699 -0.1276
 1858TIP3    H1 5538   2.460   2.433   5.075  1.7882 -0.6191 -1.4615
 1858TIP3    H2 5539   2.467   2.471   5.222 -1.7598 -1.4389 -0.9892
 1859TIP3   OH2 5540   7.163   0.340   1.982 -0.1553  0.4427 -0.0090
 1859TIP3    H1 5541   7.132   0.346   2.073 -0.5714 -0.9884 -0.0257
 1859TIP3    H2 5542   7.085   0.313   1.933  0.3435  0.0781 -0.6050
 1860TIP3   OH2 5543   2.995   2.417   5.839  0.0843  0.0122 -0.5539
 1860TIP3    H1 5544   2.994   2.380   5.751 -2.5149  0.0004 -0.5988
 1860TIP3    H2 5545   2.941   2.496   5.832 -1.8737 -1.0342  1.3606
 1861TIP3   OH2 5546   4.628   1.860   4.929  0.0911  0.5177 -0.1056
 1861TIP3    H1 5547   4.612   1.895   5.017 -0.1115 -0.8073  0.4064
 1861TIP3    H2 5548   4.558   1.897   4.875 -0.0861  0.9323  0.3960
 1862TIP3   OH2 5549   4.160   2.982   2.912  0.1052 -0.4628  0.3513
 1862TIP3    H1 5550   4.246   2.941   2.925  0.2532  0.3744  2.4302
 1862TIP3    H2 5551   4.098   2.918   2.948  0.1368  0.0871  1.4330
 1863TIP3   OH2 5552   2.829   1.875   4.238 -0.5384  0.0085 -0.2274
 1863TIP3    H1 5553   2.765   1.804   4.233  0.4459 -1.2149  2.7511
 1863TIP3    H2 5554   2.796   1.934   4.306  0.9771 -0.1741  0.7311
 1864TIP3   OH2 5555   4.610   0.984   0.064  0.0901  0.1645 -0.4859
 1864TIP3    H1 5556   4.581   1.062   0.113 -0.8725 -0.0641 -0.6607
 1864TIP3    H2 5557   4.638   1.018  -0.021 -1.8738  0.1842 -1.1714
 1865TIP3   OH2 5558   1.854   1.223   5.488  0.1299 -0.0250  0.2522
 1865TIP3    H1 5559   1.898   1.148   5.448 -0.4457  0.2466 -0.9216
 1865TIP3    H2 5560   1.906   1.299   5.461  0.2080  0.0911  0.7113
 1866TIP3   OH2 5561   1.059   1.623   3.833  0.5456 -0.2609 -0.3581
 1866TIP3    H1 5562   1.118   1.553   3.863  0.3764  0.1594  1.0191
 1866TIP3    H2 5563   1.113   1.702   3.835 -0.3546  0.3904  2.2936
 1867TIP3   OH2 5564   2.006   2.763   0.770  0.0937 -0.0624  0.0679
 1867TIP3    H1 5565   1.991   2.674   0.802 -0.3827  0.5823  1.7319
 1867TIP3    H2 5566   1.922   2.791   0.734  0.0467 -0.0140  0.2178
 1868TIP3   OH2 5567   5.314   0.917   2.774 -0.4038  0.5283 -0.1276
 1868TIP3    H1 5568   5.349   0.839   2.817  0.0381  0.1095 -1.2035
 1868TIP3    H2 5569   5.304   0.981   2.844 -0.6060 -0.4355  0.7452
 1869TIP3   OH2 5570   3.598   1.573   1.995 -0.5884 -0.5607 -0.0549
 1869TIP3    H1 5571   3.622   1.649   2.048 -0.8799  0.3730 -1.2178
 1869TIP3    H2 5572   3.522   1.535   2.040 -1.4872  0.8295 -0.3261
 1870TIP3   OH2 5573   4.784   5.413   4.891 -0.1418  0.5258 -0.6947
 1870TIP3    H1 5574   4.837   5.398   4.812 -0.9039 -0.0783 -1.1000
 1870TIP3    H2 5575   4.721   5.480   4.865  1.0980  2.0965  0.1215
 1871TIP3   OH2 5576   4.425   0.152   3.731 -0.4835  0.2810  0.0679
 1871TIP3    H1 5577   4.416   0.153   3.827 -0.0786 -2.6471  0.2556
 1871TIP3    H2 5578   4.520   0.150   3.717 -0.5370 -1.1710 -0.2497
 1872TIP3   OH2 5579   6.653   6.238   2.114  0.1031 -0.5376  0.5602
 1872TIP3    H1 5580   6.600   6.229   2.035 -0.9849 -1.0508  1.3257
 1872TIP3    H2 5581   6.723   6.298   2.089 -1.0639  0.4985 -0.3701
 1873TIP3   OH2 5582   6.708   6.654   5.042  0.1393  0.2660  0.1261
 1873TIP3    H1 5583   6.623   6.615   5.065  0.1328  1.2000  1.8939
 1873TIP3    H2 5584   6.706   6.661   4.947 -2.5184  1.8452  0.1880
 1874TIP3   OH2 5585   1.244   4.050   5.022  0.1430  0.2367  0.2120
 1874TIP3    H1 5586   1.335   4.023   5.007 -0.0694 -0.7880  0.6217
 1874TIP3    H2 5587   1.239   4.063   5.117 -0.1398  0.2869  0.1901
 1875TIP3   OH2 5588   5.598   0.008   4.957 -0.0517 -0.1785 -0.7234
 1875TIP3    H1 5589   5.535   0.030   5.026 -0.2736  0.6172 -1.1680
 1875TIP3    H2 5590   5.676  -0.020   5.005  0.9813  3.4349  0.0504
 1876TIP3   OH2 5591   2.510   6.209   0.719  0.2761  0.0943  0.1092
 1876TIP3    H1 5592   2.504   6.131   0.664  0.5877 -0.3574  0.7215
 1876TIP3    H2 5593   2.598   6.207   0.756  0.0185  0.3128  0.7509
 1877TIP3   OH2 5594   3.246   4.323   4.029 -0.7297 -0.1107  0.0865
 1877TIP3    H1 5595   3.269   4.391   3.966  1.2290 -0.1690  0.6715
 1877TIP3    H2 5596   3.320   4.263   4.028 -2.2963 -2.1283 -0.2092
 1878TIP3   OH2 5597   4.013   3.808   2.144  0.2868 -0.5850  0.1386
 1878TIP3    H1 5598   4.031   3.719   2.112 -1.6716 -0.8918 -0.2810
 1878TIP3    H2 5599   3.943   3.796   2.208 -1.9154  0.8409 -1.8368
 1879TIP3   OH2 5600   1.540   5.119   4.687  0.2728 -0.5168  0.2132
 1879TIP3    H1 5601   1.487   5.041   4.703  0.6809 -1.0822 -1.0838
 1879TIP3    H2 5602   1.630   5.090   4.703  0.3458 -0.0493  0.6596
 1880TIP3   OH2 5603   0.847   0.671   1.484 -0.3615 -0.4468  0.3986
 1880TIP3    H1 5604   0.809   0.753   1.452 -0.5309 -0.4294  0.6394
 1880TIP3    H2 5605   0.919   0.652   1.424  0.7138  0.7252  1.2684
 1881TIP3   OH2 5606   5.063   4.119   5.413 -0.2198 -0.6793 -0.5726
 1881TIP3    H1 5607   4.975   4.143   5.382 -0.1125 -0.9020 -1.0482
 1881TIP3    H2 5608   5.057   4.126   5.508 -0.2097  1.2304 -0.6710
 1882TIP3   OH2 5609   2.868   2.940   4.251 -0.1710 -0.3770  0.0157
 1882TIP3    H1 5610   2.848   2.847   4.262 -1.9274 -0.2287 -1.3580
 1882TIP3    H2 5611   2.883   2.950   4.157  0.5217  0.6587  0.2160
 1883TIP3   OH2 5612   1.456   6.280   1.629 -0.0873  0.8119 -0.4899
 1883TIP3    H1 5613   1.429   6.217   1.562  0.2373  1.1544 -0.9536
 1883TIP3    H2 5614   1.510   6.229   1.690 -2.7208 -0.1750  1.1633
 1884TIP3   OH2 5615   5.979   4.719   2.197  0.1565  0.1669 -0.0135
 1884TIP3    H1 5616   5.991   4.811   2.171 -0.5119  0.1405 -0.4314
 1884TIP3    H2 5617   5.916   4.723   2.270  2.4632  0.2993  2.1242
 1885TIP3   OH2 5618   6.723   0.238   5.577 -0.2583  0.2943  0.2896
 1885TIP3    H1 5619   6.641   0.273   5.614 -0.4644  0.7880 -0.6108
 1885TIP3    H2 5620   6.774   0.316   5.555  0.7330 -0.0140  1.4242
 1886TIP3   OH2 5621   2.831   4.167   1.942 -0.1647 -0.1895  0.6508
 1886TIP3    H1 5622   2.814   4.167   2.036  0.0460  0.5461  0.6943
 1886TIP3    H2 5623   2.922   4.139   1.934 -0.0360  0.2187  0.6947
 1887TIP3   OH2 5624   3.296   1.896   5.618 -0.9703 -0.5060 -0.1586
 1887TIP3    H1 5625   3.267   1.816   5.661 -3.6554  0.4918  0.0717
 1887TIP3    H2 5626   3.234   1.909   5.546 -0.5632  1.3126 -0.2311
 1888TIP3   OH2 5627   3.157   5.570   1.558  0.1261 -0.2462  0.3562
 1888TIP3    H1 5628   3.215   5.575   1.483  1.5321 -0.3522  1.3892
 1888TIP3    H2 5629   3.190   5.636   1.619 -2.5276  1.6620 -0.0696
 1889TIP3   OH2 5630   4.520   2.267   1.756  0.0750  0.1315 -0.3710
 1889TIP3    H1 5631   4.570   2.343   1.786  1.9812 -0.9919 -0.5167
 1889TIP3    H2 5632   4.558   2.193   1.804 -0.1179 -1.0329 -1.9451
 1890TIP3   OH2 5633   1.492   2.973   2.120  0.1309 -0.2125 -0.1303
 1890TIP3    H1 5634   1.571   3.024   2.139 -0.0038 -0.7834  2.3195
 1890TIP3    H2 5635   1.475   2.926   2.201 -1.6638 -1.5722 -1.2453
 1891TIP3   OH2 5636   2.201   6.611   4.416  0.0256  0.1616  0.0109
 1891TIP3    H1 5637   2.224   6.638   4.506  0.6368  2.2994 -0.7137
 1891TIP3    H2 5638   2.162   6.524   4.426  0.3699  0.2026  2.3094
 1892TIP3   OH2 5639   0.293   6.405   0.660  0.4134  0.3863  0.2130
 1892TIP3    H1 5640   0.336   6.409   0.575  0.4314  0.0011  0.2010
 1892TIP3    H2 5641   0.238   6.483   0.663 -0.7302 -0.3616 -0.7680
 1893TIP3   OH2 5642   1.689   2.912   0.285  0.3363 -0.5980 -0.4434
 1893TIP3    H1 5643   1.656   2.825   0.261  0.3761 -0.9710  0.7727
 1893TIP3    H2 5644   1.610   2.962   0.306  0.0959  0.4448 -3.3803
 1894TIP3   OH2 5645   2.265   5.000   0.179  0.1978  0.4869 -0.1602
 1894TIP3    H1 5646   2.311   5.047   0.249 -1.3923  0.7675  0.7548
 1894TIP3    H2 5647   2.189   5.055   0.160 -0.9336 -0.9973 -0.0814
 1895TIP3   OH2 5648   6.828   5.803   2.203  0.3783  0.2221  0.0806
 1895TIP3    H1 5649   6.763   5.873   2.213  1.4432  1.1481  0.9427
 1895TIP3    H2 5650   6.912   5.849   2.205  1.1645 -1.1688  1.7588
 1896TIP3   OH2 5651   6.187   4.928   1.529 -0.0804 -0.1054  0.3908
 1896TIP3    H1 5652   6.204   4.837   1.505  0.8018  0.4659 -1.3071
 1896TIP3    H2 5653   6.140   4.922   1.612 -0.9766 -2.1294 -0.1987
 1897TIP3   OH2 5654   5.203   3.114   5.383  0.5861 -0.1559  0.4843
 1897TIP3    H1 5655   5.118   3.081   5.412  1.3550 -2.1699  0.6088
 1897TIP3    H2 5656   5.202   3.103   5.288  0.2230  1.0889  0.3283
 1898TIP3   OH2 5657   4.354   2.200   4.648  0.0848  0.3359 -0.3402
 1898TIP3    H1 5658   4.284   2.240   4.700  0.2418  0.1915 -0.0120
 1898TIP3    H2 5659   4.373   2.118   4.695 -0.5555 -0.3597 -1.2570
 1899TIP3   OH2 5660   1.832   4.815   3.603 -0.5740  0.3558 -0.1458
 1899TIP3    H1 5661   1.875   4.878   3.545  0.7979 -0.0952  0.3337
 1899TIP3    H2 5662   1.879   4.823   3.686 -0.0888 -1.5367 -0.1745
 1900TIP3   OH2 5663   4.182   2.918   2.397 -0.3753 -0.4515 -1.0989
 1900TIP3    H1 5664   4.220   2.953   2.478  2.4792 -1.8392 -1.6872
 1900TIP3    H2 5665   4.130   2.990   2.362 -0.3901  0.7377  1.1475
 1901TIP3   OH2 5666   7.116   0.594   0.004 -0.4533  0.2021 -0.1714
 1901TIP3    H1 5667   7.158   0.541   0.072 -0.1419  0.7114  0.0425
 1901TIP3    H2 5668   7.045   0.539  -0.029  0.0998 -0.4955 -0.2197
 1902TIP3   OH2 5669   1.540   0.972   3.316  0.2122 -0.0700 -0.4976
 1902TIP3    H1 5670   1.475   1.017   3.263 -0.3251  1.4569  1.3399
 1902TIP3    H2 5671   1.561   1.034   3.386  0.0355 -2.3538  1.7229
 1903TIP3   OH2 5672   6.947   1.971   2.410  0.1547  0.1431  0.5361
 1903TIP3    H1 5673   6.990   1.989   2.327  2.8259 -0.4742  1.6663
 1903TIP3    H2 5674   6.935   1.876   2.411 -1.0790  0.2849  0.3384
 1904TIP3   OH2 5675   2.848   0.825   0.869  0.6524  0.1693 -0.1238
 1904TIP3    H1 5676   2.854   0.731   0.888  1.6574  0.0658 -0.8466
 1904TIP3    H2 5677   2.792   0.830   0.791  0.6240  0.1731 -0.1034
 1905TIP3   OH2 5678   5.203   4.049   4.369  0.1624  0.2163  0.6859
 1905TIP3    H1 5679   5.126   4.079   4.322  1.0176  1.4747  0.0462
 1905TIP3    H2 5680   5.239   4.128   4.409  2.1210 -0.0106 -0.5217
 1906TIP3   OH2 5681   1.248   3.147   4.025  0.0297  0.5075 -0.1612
 1906TIP3    H1 5682   1.197   3.071   3.996 -1.5635  1.4277  0.1451
 1906TIP3    H2 5683   1.306   3.166   3.951 -0.2740 -0.3750 -0.6428
 1907TIP3   OH2 5684   2.893   0.243   3.047  0.5396  0.0032 -0.0969
 1907TIP3    H1 5685   2.880   0.329   3.009  2.0599  1.0405  1.5338
 1907TIP3    H2 5686   2.811   0.196   3.032  0.5573  0.7812 -3.2720
 1908TIP3   OH2 5687   4.254   5.612   4.810  0.3785  1.0688  0.1206
 1908TIP3    H1 5688   4.278   5.694   4.854  0.5885 -0.0116  2.1348
 1908TIP3    H2 5689   4.159   5.618   4.800  0.3431  1.3951  0.6014
 1909TIP3   OH2 5690   7.139   3.405   4.039 -0.3446 -0.0474 -0.7641
 1909TIP3    H1 5691   7.229   3.435   4.030  0.0865 -0.7929  0.7131
 1909TIP3    H2 5692   7.086   3.483   4.020  0.6428  0.7492 -0.3781
 1910TIP3   OH2 5693   2.071   0.194   2.182 -0.0046 -0.3866  0.3937
 1910TIP3    H1 5694   2.076   0.236   2.268  1.2558 -2.6764  1.5088
 1910TIP3    H2 5695   1.977   0.181   2.167 -0.2682  0.6258  1.0902
 1911TIP3   OH2 5696   2.412   5.948   0.042 -0.2259 -0.0179  0.4566
 1911TIP3    H1 5697   2.369   5.866   0.065  0.0700 -0.5310 -0.7464
 1911TIP3    H2 5698   2.499   5.922   0.012  0.0686  0.7875  0.5852
 1912TIP3   OH2 5699   3.138   5.680   0.680 -0.3131  0.6231  0.5445
 1912TIP3    H1 5700   3.140   5.676   0.584 -2.1591  1.3445  0.4470
 1912TIP3    H2 5701   3.214   5.628   0.707  0.4240  0.6521 -1.3032
 1913TIP3   OH2 5702   5.392   2.816   5.084  0.0498  0.2681  0.1673
 1913TIP3    H1 5703   5.391   2.785   4.994 -0.1625  1.2050 -0.1527
 1913TIP3    H2 5704   5.485   2.820   5.107  0.1609  1.2688 -0.4376
 1914TIP3   OH2 5705   2.443   2.168   2.728  0.2157  0.1711  0.4596
 1914TIP3    H1 5706   2.397   2.239   2.682  0.0745 -0.4386 -0.3714
 1914TIP3    H2 5707   2.390   2.151   2.805 -1.0800 -0.6305 -0.5619
 1915TIP3   OH2 5708   1.076   0.283   3.913  0.1134 -0.1567  0.7446
 1915TIP3    H1 5709   1.096   0.230   3.836  2.5993  1.3564  0.2435
 1915TIP3    H2 5710   1.003   0.339   3.885 -0.1692 -0.8141  0.1148
 1916TIP3   OH2 5711   6.075   4.686   3.244 -0.2082 -0.1088  0.3551
 1916TIP3    H1 5712   6.024   4.693   3.163  0.4800 -0.0925 -0.0818
 1916TIP3    H2 5713   6.135   4.613   3.229  0.2178  0.1658  0.6847
 1917TIP3   OH2 5714   1.105   4.329   0.659  0.1372  0.1309 -0.6376
 1917TIP3    H1 5715   1.178   4.292   0.708 -0.5280  1.9699  1.9627
 1917TIP3    H2 5716   1.027   4.285   0.693 -0.2698  0.7972 -0.6708
 1918TIP3   OH2 5717   0.622   1.393   5.617 -0.1400 -0.5371 -0.0654
 1918TIP3    H1 5718   0.552   1.333   5.592 -0.2353 -0.0018 -1.1328
 1918TIP3    H2 5719   0.660   1.354   5.696 -1.6223 -0.8499  0.5330
 1919TIP3   OH2 5720   5.843   5.307   3.948 -0.1048  0.2348  0.1160
 1919TIP3    H1 5721   5.882   5.365   4.014  2.2923  1.2252 -1.9880
 1919TIP3    H2 5722   5.778   5.362   3.904  0.7549  0.7457 -0.5610
 1920TIP3   OH2 5723   1.401   0.845   4.724  0.1285 -0.1207 -0.0656
 1920TIP3    H1 5724   1.312   0.818   4.703 -0.7172  1.7032  0.9532
 1920TIP3    H2 5725   1.416   0.924   4.672  1.0507 -0.2409 -0.0086
 1921TIP3   OH2 5726   6.122   0.265   0.800 -0.4482 -0.2754  0.5496
 1921TIP3    H1 5727   6.110   0.342   0.856 -0.0405 -0.9134  1.5557
 1921TIP3    H2 5728   6.052   0.205   0.827  0.7625 -1.2591  1.5855
 1922TIP3   OH2 5729   3.007   6.456   2.849  0.3149 -0.3884 -0.1040
 1922TIP3    H1 5730   3.009   6.510   2.770 -1.6338  0.7887  0.5703
 1922TIP3    H2 5731   3.081   6.487   2.901 -0.0383  0.8213 -0.2720
 1923TIP3   OH2 5732   5.237   3.252   1.839 -0.0346  0.2434 -0.7825
 1923TIP3    H1 5733   5.315   3.296   1.804 -0.3371  0.7658 -0.8062
 1923TIP3    H2 5734   5.271   3.195   1.909  0.0424  2.9928  1.6049
 1924TIP3   OH2 5735   6.922   4.185   5.729 -0.2195  0.0982  0.2173
 1924TIP3    H1 5736   6.972   4.120   5.778  0.3538 -0.3252 -0.9053
 1924TIP3    H2 5737   6.967   4.268   5.747  1.9355 -0.4761 -2.0116
 1925TIP3   OH2 5738   0.484   5.952   1.348  0.2617  0.0227  0.0644
 1925TIP3    H1 5739   0.415   6.001   1.305 -0.1566 -0.6103  0.0007
 1925TIP3    H2 5740   0.440   5.876   1.387  1.1395 -1.3509 -1.4855
 1926TIP3   OH2 5741   1.237   1.814   3.106  0.1828 -0.6603 -0.7019
 1926TIP3    H1 5742   1.166   1.766   3.149 -0.2226  0.5963  0.0852
 1926TIP3    H2 5743   1.193   1.869   3.042  0.4417  0.0661 -0.2660
 1927TIP3   OH2 5744   6.932   2.775   3.567 -0.3745  0.0686  0.2358
 1927TIP3    H1 5745   6.962   2.808   3.482 -2.1288  1.7143  0.1946
 1927TIP3    H2 5746   6.856   2.721   3.547 -0.9517  0.6693  0.7650
 1928TIP3   OH2 5747   3.426   4.265   2.898 -0.3658  0.6852  0.2672
 1928TIP3    H1 5748   3.499   4.282   2.957  1.6491 -0.6064 -1.7339
 1928TIP3    H2 5749   3.422   4.170   2.890 -2.4991  0.6941  0.5306
 1929TIP3   OH2 5750   4.887   6.514   4.455 -0.1625 -0.4765  0.4041
 1929TIP3    H1 5751   4.895   6.584   4.391 -2.3700  0.2821  0.8591
 1929TIP3    H2 5752   4.973   6.471   4.455  0.4843  0.6687 -1.6530
 1930TIP3   OH2 5753   4.983   6.672   4.842 -0.3541  0.0962  0.1812
 1930TIP3    H1 5754   5.048   6.737   4.815  1.8253 -1.6542  0.9305
 1930TIP3    H2 5755   4.914   6.680   4.776  0.6285  1.9824 -0.7215
 1931TIP3   OH2 5756   0.442   3.507   2.562  0.3252 -0.3299 -0.3997
 1931TIP3    H1 5757   0.401   3.593   2.548  1.3328  0.5154  1.4590
 1931TIP3    H2 5758   0.379   3.444   2.527 -0.3423  1.1512 -2.0274
 1932TIP3   OH2 5759   4.895   4.462   2.581 -0.0362 -0.5811  0.4392
 1932TIP3    H1 5760   4.922   4.425   2.497  0.4864 -0.0449  0.3720
 1932TIP3    H2 5761   4.838   4.394   2.619 -0.5419 -0.6981 -0.4825
 1933TIP3   OH2 5762   7.063   3.472   2.099  0.3042 -0.1633  0.2637
 1933TIP3    H1 5763   7.063   3.515   2.184 -1.5857 -0.6502  0.5492
 1933TIP3    H2 5764   7.054   3.379   2.119 -0.3264 -0.2673 -0.4681
 1934TIP3   OH2 5765   2.968   6.566   4.571 -0.6052  0.0189  0.4836
 1934TIP3    H1 5766   3.018   6.628   4.624  1.2217 -0.1636 -0.9301
 1934TIP3    H2 5767   2.959   6.489   4.627  1.3261 -0.1865  0.6061
 1935TIP3   OH2 5768   1.985   0.558   2.886 -0.2088 -0.4953  0.2876
 1935TIP3    H1 5769   1.907   0.508   2.909 -0.2655 -0.2385  0.6732
 1935TIP3    H2 5770   2.012   0.523   2.801 -0.4704 -0.9089  0.3698
 1936TIP3   OH2 5771   5.080   0.684   4.615  0.1794  1.0702  0.3415
 1936TIP3    H1 5772   5.092   0.589   4.608 -1.4372  0.7783  1.0751
 1936TIP3    H2 5773   5.135   0.710   4.689 -0.7779  0.3839  1.3250
 1937TIP3   OH2 5774   5.597   4.436   4.024 -0.1450 -0.4074 -0.0546
 1937TIP3    H1 5775   5.649   4.506   4.064  2.8566 -1.8284 -1.1234
 1937TIP3    H2 5776   5.587   4.371   4.093 -0.6293 -0.1016  0.1727
 1938TIP3   OH2 5777   4.349   1.813   3.141  0.1772 -0.2128  0.0411
 1938TIP3    H1 5778   4.393   1.754   3.202  1.3238  0.5521 -0.0168
 1938TIP3    H2 5779   4.344   1.897   3.187 -0.8282 -0.1618 -0.1338
 1939TIP3   OH2 5780   0.288   4.612   1.239 -0.1878 -0.0817 -0.0360
 1939TIP3    H1 5781   0.283   4.560   1.159  2.6948  0.1782 -0.4695
 1939TIP3    H2 5782   0.256   4.553   1.308  1.1687 -1.7798 -0.7952
 1940TIP3   OH2 5783   0.237   5.416   4.728 -0.5661 -0.5171 -0.2222
 1940TIP3    H1 5784   0.197   5.411   4.641 -0.7543  2.2545 -0.3640
 1940TIP3    H2 5785   0.205   5.498   4.765  0.1383 -1.2416  2.1837
 1941TIP3   OH2 5786   1.119   4.816   2.650  0.0691 -0.2292 -0.2919
 1941TIP3    H1 5787   1.044   4.764   2.622 -0.4115  0.2247  0.1182
 1941TIP3    H2 5788   1.080   4.897   2.685  0.8276  0.8012 -1.7094
 1942TIP3   OH2 5789   5.921   1.939   1.847 -0.0096  0.5380  0.1969
 1942TIP3    H1 5790   6.007   1.928   1.886 -0.8707  0.9547  2.3061
 1942TIP3    H2 5791   5.922   2.027   1.809 -0.1794  1.4297  2.1479
 1943TIP3   OH2 5792   6.186   2.164   1.474 -0.1102 -0.1009 -0.0050
 1943TIP3    H1 5793   6.137   2.082   1.487  0.2094 -0.4404 -0.8670
 1943TIP3    H2 5794   6.136   2.230   1.523  0.2763 -1.0169  1.6906
 1944TIP3   OH2 5795   5.759   0.137   1.563 -0.2970 -0.1688  0.3272
 1944TIP3    H1 5796   5.791   0.221   1.529  0.6384 -0.8362 -0.5191
 1944TIP3    H2 5797   5.786   0.137   1.655  0.2477  0.2093  0.1760
 1945TIP3   OH2 5798   1.657   4.563   3.865 -0.0420  0.4602  0.5185
 1945TIP3    H1 5799   1.637   4.469   3.857 -1.1153  0.5897  1.4489
 1945TIP3    H2 5800   1.577   4.601   3.901  0.7221  1.5811  1.0632
 1946TIP3   OH2 5801   2.345   2.519   3.023  0.4872  0.1111  0.1944
 1946TIP3    H1 5802   2.289   2.563   2.959 -0.1545  0.6138  1.0706
 1946TIP3    H2 5803   2.299   2.531   3.106  1.9367  0.6215  0.9586
 1947TIP3   OH2 5804   4.702   0.285   0.715  0.2819 -0.1720  0.0457
 1947TIP3    H1 5805   4.743   0.218   0.770 -1.4660 -1.3472  0.0325
 1947TIP3    H2 5806   4.769   0.351   0.702  1.0365 -0.2723  2.8637
 1948TIP3   OH2 5807   3.589   2.202   1.152 -0.5586 -0.2084  0.0519
 1948TIP3    H1 5808   3.524   2.231   1.089  2.1151  2.5630 -1.7326
 1948TIP3    H2 5809   3.538   2.173   1.228 -3.8540  2.1026 -1.0323
 1949TIP3   OH2 5810   2.997   3.253   0.756 -0.0275 -0.3345  0.5637
 1949TIP3    H1 5811   3.062   3.322   0.768  0.6564 -0.6936 -0.7695
 1949TIP3    H2 5812   2.917   3.287   0.795  0.2306  1.3237 -0.2526
 1950TIP3   OH2 5813   1.619   0.644   1.893  0.1918  0.6555  0.4329
 1950TIP3    H1 5814   1.646   0.620   1.804  1.9135 -0.1801  1.1319
 1950TIP3    H2 5815   1.604   0.560   1.937 -1.1172  1.0708  0.8150
 1951TIP3   OH2 5816   5.057   5.324   1.044 -0.1219 -0.5898  0.1888
 1951TIP3    H1 5817   5.078   5.235   1.017  0.8762  0.0008 -1.1015
 1951TIP3    H2 5818   5.139   5.372   1.036 -0.9275  0.7473 -0.4372
 1952TIP3   OH2 5819   1.091   0.360   0.356  0.4080  0.0658 -0.2683
 1952TIP3    H1 5820   1.018   0.298   0.351  0.4307  0.0343 -0.2029
 1952TIP3    H2 5821   1.056   0.434   0.406 -0.8588  1.7909 -3.3789
 1953TIP3   OH2 5822   0.561   5.738   3.565 -0.4230 -0.7486 -0.1762
 1953TIP3    H1 5823   0.626   5.669   3.577  0.6210  0.0847 -0.8433
 1953TIP3    H2 5824   0.566   5.790   3.645  0.5365 -0.0522 -0.6724
 1954TIP3   OH2 5825   7.069   3.430   4.446  0.4922  0.0118 -0.3933
 1954TIP3    H1 5826   7.101   3.518   4.466  0.2829  0.3616 -1.5472
 1954TIP3    H2 5827   7.105   3.375   4.516 -0.0587  1.1368  0.8189
 1955TIP3   OH2 5828   1.556   4.960   3.740  0.2887  0.3751  0.6822
 1955TIP3    H1 5829   1.598   4.975   3.824  0.1165 -0.2230  0.8825
 1955TIP3    H2 5830   1.591   5.028   3.683 -0.1504  1.2430  1.4258
 1956TIP3   OH2 5831   1.332   0.453   3.014 -0.4576 -0.5079  0.2618
 1956TIP3    H1 5832   1.279   0.532   3.005  1.1543  0.7492  1.1874
 1956TIP3    H2 5833   1.317   0.424   3.103 -2.1662 -2.1596 -0.5037
 1957TIP3   OH2 5834   1.235   5.151   0.542  0.5007 -0.1171  0.4845
 1957TIP3    H1 5835   1.273   5.181   0.460  1.1788 -0.4570  0.6622
 1957TIP3    H2 5836   1.284   5.071   0.563  0.3845  0.0065  1.2534
 1958TIP3   OH2 5837   0.778   2.531   5.604  1.1695 -0.7851 -0.8774
 1958TIP3    H1 5838   0.824   2.581   5.537 -1.4899  1.4512 -1.1653
 1958TIP3    H2 5839   0.693   2.510   5.566  0.5097 -1.6196  0.9175
 1959TIP3   OH2 5840   2.681   0.261   5.692  0.2765  0.0185  0.8192
 1959TIP3    H1 5841   2.605   0.203   5.687 -0.9031  1.4437  1.3349
 1959TIP3    H2 5842   2.644   0.347   5.709  2.0148  0.8158  0.8035
 1960TIP3   OH2 5843   4.415   6.705   2.951  0.1791  0.0030  0.0363
 1960TIP3    H1 5844   4.446   6.693   2.862  0.1333  0.0638  0.0121
 1960TIP3    H2 5845   4.357   6.631   2.967 -0.5347  0.4668 -0.3013
 1961TIP3   OH2 5846   3.619   6.729   4.350 -0.1974  0.0155  0.1122
 1961TIP3    H1 5847   3.635   6.655   4.407 -1.2354  0.3588  0.8749
 1961TIP3    H2 5848   3.705   6.767   4.334  0.7435 -2.8231 -2.4015
 1962TIP3   OH2 5849   6.324   0.107   0.200 -0.1129  0.4513  0.2910
 1962TIP3    H1 5850   6.354   0.050   0.270 -1.9467 -0.3287  0.4978
 1962TIP3    H2 5851   6.298   0.048   0.130 -2.4571  0.9099  0.6758
 1963TIP3   OH2 5852   1.202   2.608   3.046  0.4436  0.2445 -0.7302
 1963TIP3    H1 5853   1.262   2.571   3.110  0.9534  2.7650  0.3218
 1963TIP3    H2 5854   1.116   2.575   3.072  0.7435  0.6066  0.7863
 1964TIP3   OH2 5855   4.488   2.554   3.100  0.2983 -0.8740  0.3647
 1964TIP3    H1 5856   4.414   2.520   3.049  1.0278 -2.7485  0.4660
 1964TIP3    H2 5857   4.452   2.629   3.148 -1.3330 -1.2731 -0.1686
 1965TIP3   OH2 5858   5.343   1.800   0.487  0.1220 -0.0451 -0.3747
 1965TIP3    H1 5859   5.299   1.776   0.405  0.3932  1.5412 -1.0200
 1965TIP3    H2 5860   5.412   1.861   0.460  0.6737 -0.0466  0.9715
 1966TIP3   OH2 5861   6.725   2.676   4.780  0.2959 -0.3168 -0.5338
 1966TIP3    H1 5862   6.713   2.771   4.780  0.5634 -0.2700 -1.7721
 1966TIP3    H2 5863   6.679   2.646   4.858 -0.2785  0.7719 -0.4400
 1967TIP3   OH2 5864   0.380   1.889   1.953  0.3334  0.0771  0.1824
 1967TIP3    H1 5865   0.358   1.839   2.033 -2.6221 -1.2754 -1.2998
 1967TIP3    H2 5866   0.440   1.957   1.983  1.7618 -2.1825  2.9938
 1968TIP3   OH2 5867   2.446   3.924   3.166  0.3299 -0.0847 -0.7244
 1968TIP3    H1 5868   2.515   3.864   3.138  2.5822  1.3814  1.3416
 1968TIP3    H2 5869   2.473   4.009   3.131 -0.6077  0.4729 -0.1288
 1969TIP3   OH2 5870   4.111   5.877   3.119  0.1282 -0.3964  0.5737
 1969TIP3    H1 5871   4.092   5.915   3.033  0.9623 -0.6154  0.2934
 1969TIP3    H2 5872   4.101   5.951   3.180 -0.4598 -0.2410  0.3035
 1970TIP3   OH2 5873   5.903   6.044   2.935  0.3785  0.7888 -0.7763
 1970TIP3    H1 5874   5.809   6.043   2.922 -0.0799 -0.9899  1.9323
 1970TIP3    H2 5875   5.916   6.088   3.019  1.7653 -0.4727 -0.2719
 1971TIP3   OH2 5876   3.544   2.622   0.616  0.4469 -0.8999  0.3003
 1971TIP3    H1 5877   3.632   2.653   0.635  1.2566 -2.0261 -1.3195
 1971TIP3    H2 5878   3.511   2.681   0.549 -0.2700 -0.1761  1.2550
 1972TIP3   OH2 5879   4.825   6.627   0.422 -0.2120  0.1962  0.0997
 1972TIP3    H1 5880   4.751   6.610   0.480  0.3396 -1.4196  0.3966
 1972TIP3    H2 5881   4.823   6.554   0.360 -0.1590  1.3220 -1.2817
 1973TIP3   OH2 5882   2.086   4.863   2.974  0.4928  0.0011  0.6331
 1973TIP3    H1 5883   2.035   4.940   2.998 -0.3236 -0.3585  0.0972
 1973TIP3    H2 5884   2.143   4.847   3.049 -0.5352  0.1153  1.4584
 1974TIP3   OH2 5885   3.796   2.201   1.948 -1.0889 -0.0315 -0.4619
 1974TIP3    H1 5886   3.712   2.162   1.972 -0.8630 -1.8547 -2.3826
 1974TIP3    H2 5887   3.797   2.200   1.852  1.3125 -0.4985 -0.4864
 1975TIP3   OH2 5888   0.458   2.829   2.353 -0.7726  0.7639 -0.5632
 1975TIP3    H1 5889   0.387   2.888   2.377  0.3367  2.0112 -0.1612
 1975TIP3    H2 5890   0.515   2.828   2.430  0.2214  0.7214 -1.2747
 1976TIP3   OH2 5891   6.519   1.304   5.776  0.2298 -0.2038  0.3199
 1976TIP3    H1 5892   6.537   1.349   5.693 -0.2354  2.3399  1.4949
 1976TIP3    H2 5893   6.579   1.345   5.839  0.4062 -1.9170  1.3203
 1977TIP3   OH2 5894   3.999   5.027   1.222  0.2742  0.5475  0.1604
 1977TIP3    H1 5895   3.934   5.094   1.203 -0.3325  0.4609  1.8063
 1977TIP3    H2 5896   3.955   4.945   1.202  0.1208  0.5237  0.5896
 1978TIP3   OH2 5897   2.190   1.672   3.547  0.0945 -0.1674  0.2496
 1978TIP3    H1 5898   2.128   1.711   3.608  1.5475  0.0635  1.6447
 1978TIP3    H2 5899   2.197   1.581   3.574  0.8552 -0.0306  0.5399
 1979TIP3   OH2 5900   3.697   6.689   0.493  0.5451 -0.3569  0.6277
 1979TIP3    H1 5901   3.723   6.713   0.581 -0.9598  0.2017  0.9502
 1979TIP3    H2 5902   3.602   6.678   0.498 -0.0318  2.4335 -1.4874
 1980TIP3   OH2 5903   1.437   5.286   3.070 -0.0406  0.0634  0.4321
 1980TIP3    H1 5904   1.438   5.366   3.123 -1.1157  0.4431 -0.1013
 1980TIP3    H2 5905   1.349   5.251   3.080  0.8629 -1.9446  1.9229
 1981TIP3   OH2 5906   5.625   5.930   0.068  0.1075  0.5337 -0.0902
 1981TIP3    H1 5907   5.548   5.878   0.044  0.8404 -0.3273 -0.6630
 1981TIP3    H2 5908   5.700   5.876   0.040  0.8929  1.9272 -0.7624
 1982TIP3   OH2 5909   2.424   1.259   1.181  0.0718  0.1763  0.3580
 1982TIP3    H1 5910   2.347   1.281   1.129  0.3795 -0.7280 -0.5001
 1982TIP3    H2 5911   2.454   1.343   1.216 -1.2404  0.5564  0.6332
 1983TIP3   OH2 5912   6.733   1.693   1.137  0.0933 -0.0756  0.1963
 1983TIP3    H1 5913   6.784   1.768   1.106  1.4580 -1.1249 -0.2177
 1983TIP3    H2 5914   6.656   1.732   1.178 -0.3210  1.4694 -1.8749
 1984TIP3   OH2 5915   2.361   5.185   1.963 -0.4041  0.1481 -0.1337
 1984TIP3    H1 5916   2.436   5.144   1.921 -1.1517 -1.1376 -0.2440
 1984TIP3    H2 5917   2.321   5.239   1.894 -0.6031 -0.5624 -0.5809
 1985TIP3   OH2 5918   3.816   1.717   1.372  0.0245  0.6071  0.5321
 1985TIP3    H1 5919   3.753   1.737   1.441 -3.1026  0.0888 -1.8963
 1985TIP3    H2 5920   3.838   1.802   1.334  0.5243  0.7675  1.1738
 1986TIP3   OH2 5921   2.561   1.083   2.882 -0.0267  0.4075 -0.2500
 1986TIP3    H1 5922   2.561   1.178   2.876 -0.2413  0.3307 -1.9343
 1986TIP3    H2 5923   2.528   1.064   2.970  0.1765  1.8758  0.1624
 1987TIP3   OH2 5924   0.144   2.095   0.096 -0.3970 -0.7406  0.1364
 1987TIP3    H1 5925   0.049   2.102   0.091 -0.6594 -2.5653  1.3699
 1987TIP3    H2 5926   0.171   2.075   0.006 -0.8919  1.7595 -0.6586
 1988TIP3   OH2 5927   1.297   0.281   3.534  0.0247 -0.4755 -0.4655
 1988TIP3    H1 5928   1.346   0.277   3.616 -0.2570 -1.9659 -0.3425
 1988TIP3    H2 5929   1.278   0.189   3.513 -1.1870 -0.0299 -1.4182
 1989TIP3   OH2 5930   4.783   2.700   2.473  0.2551 -0.0845  0.1035
 1989TIP3    H1 5931   4.694   2.665   2.464 -0.0407  0.4934  0.7304
 1989TIP3    H2 5932   4.771   2.786   2.514  0.9183  0.9832 -1.8118
 1990TIP3   OH2 5933   1.147   5.202   3.566  0.5671 -0.2167 -0.6078
 1990TIP3    H1 5934   1.207   5.174   3.497 -0.6729  0.5506 -2.0672
 1990TIP3    H2 5935   1.204   5.229   3.638  1.9087 -0.9867 -1.3411
 1991TIP3   OH2 5936   1.682   4.756   0.315 -0.2141  0.2767 -0.3669
 1991TIP3    H1 5937   1.704   4.663   0.320  0.2255  0.3680 -0.6022
 1991TIP3    H2 5938   1.677   4.784   0.406  0.4282  0.2034 -0.3056
 1992TIP3   OH2 5939   4.501   3.637   4.061 -0.2714  0.3412  0.1881
 1992TIP3    H1 5940   4.432   3.630   3.995 -0.7832 -1.6495  0.8658
 1992TIP3    H2 5941   4.580   3.659   4.011 -0.6433 -1.1552 -1.1108
 1993TIP3   OH2 5942   2.332   2.693   3.958 -0.1389  0.2196  0.5748
 1993TIP3    H1 5943   2.276   2.771   3.961  1.5164  1.4523  2.5257
 1993TIP3    H2 5944   2.418   2.725   3.985  0.6785 -2.2721  1.1680
 1994TIP3   OH2 5945   4.051   5.285   4.069  0.1130 -0.2251 -0.4841
 1994TIP3    H1 5946   4.137   5.310   4.034  1.1531 -0.0677  1.9933
 1994TIP3    H2 5947   4.046   5.330   4.153 -2.2412 -0.5857 -0.3817
 1995TIP3   OH2 5948   4.997   2.186   3.319  0.7630  0.6657 -0.0890
 1995TIP3    H1 5949   4.944   2.193   3.398 -1.0518  0.4091 -1.2424
 1995TIP3    H2 5950   4.974   2.263   3.268 -0.2976 -0.6102 -1.6329
 1996TIP3   OH2 5951   2.110   0.709   0.481  0.1040 -0.3229  0.4913
 1996TIP3    H1 5952   2.016   0.717   0.493 -0.0475 -1.0099 -0.1571
 1996TIP3    H2 5953   2.140   0.658   0.556 -0.1778 -0.8764  0.2301
 1997TIP3   OH2 5954   6.062   4.316   0.302  0.0907 -0.2714  0.5145
 1997TIP3    H1 5955   6.083   4.255   0.232  1.4197  0.9403 -0.1993
 1997TIP3    H2 5956   6.138   4.313   0.360  0.0822  0.5347  0.5795
 1998TIP3   OH2 5957   1.765   3.780   3.210  0.2983 -0.7860 -0.4190
 1998TIP3    H1 5958   1.791   3.782   3.302 -1.3410 -1.9599  0.1227
 1998TIP3    H2 5959   1.690   3.839   3.204  0.0302 -1.1637 -0.8747
 1999TIP3   OH2 5960   2.847   6.203   5.738  0.0072  0.2831 -0.2143
 1999TIP3    H1 5961   2.898   6.226   5.660 -0.3068  1.8583  0.0133
 1999TIP3    H2 5962   2.906   6.150   5.791 -0.2636 -2.1636 -2.1717
 2000TIP3   OH2 5963   7.103   4.021   5.845 -0.3062 -0.0157 -0.0121
 2000TIP3    H1 5964   7.185   4.050   5.884 -0.6749  0.9179  0.0986
 2000TIP3    H2 5965   7.094   3.930   5.871  1.1240 -0.3849 -0.7484
 2001TIP3   OH2 5966   5.299   4.202   5.003  0.3749 -0.2137 -0.1084
 2001TIP3    H1 5967   5.349   4.135   4.956 -1.0504 -1.6697  0.3471
 2001TIP3    H2 5968   5.208   4.184   4.980 -0.0498  1.7528 -0.1537
 2002TIP3   OH2 5969   3.686   6.418   0.661  0.2170 -0.1876 -0.0102
 2002TIP3    H1 5970   3.599   6.380   0.644  0.7720 -1.8984  0.7679
 2002TIP3    H2 5971   3.667   6.503   0.700 -1.1305 -0.6860  0.4958
 2003TIP3   OH2 5972   2.130   5.189   2.876 -0.3327  0.1099 -0.4926
 2003TIP3    H1 5973   2.117   5.137   2.797 -0.1281 -2.9050  1.3179
 2003TIP3    H2 5974   2.042   5.204   2.910 -0.3101 -2.0055  0.6723
 2004TIP3   OH2 5975   5.333   1.520   5.525 -0.0565  0.0967 -0.5941
 2004TIP3    H1 5976   5.335   1.606   5.568  1.0108 -0.7573  1.1568
 2004TIP3    H2 5977   5.314   1.458   5.595  0.2668 -1.2165 -1.6252
 2005TIP3   OH2 5978   3.700   3.965   3.121  0.9861 -0.1696  0.3652
 2005TIP3    H1 5979   3.690   3.891   3.181  2.5841 -1.0610 -0.3984
 2005TIP3    H2 5980   3.790   3.995   3.135  1.5146 -0.6114 -1.7634
 2006TIP3   OH2 5981   5.272   5.518   1.707  0.1795 -0.4444 -0.0243
 2006TIP3    H1 5982   5.331   5.570   1.653 -0.8318 -0.1706 -0.8872
 2006TIP3    H2 5983   5.210   5.581   1.744  0.1671 -0.7782  0.5453
 2007TIP3   OH2 5984   6.685   0.991   0.967 -0.6664 -0.6489  0.2529
 2007TIP3    H1 5985   6.669   0.945   1.050 -0.5826 -1.7500 -0.3231
 2007TIP3    H2 5986   6.736   0.929   0.915 -2.7991 -0.9809 -1.5692
 2008TIP3   OH2 5987   4.310   3.988   2.847 -0.2294  0.1580  0.3848
 2008TIP3    H1 5988   4.353   3.902   2.847 -0.7940 -0.1323  0.0466
 2008TIP3    H2 5989   4.377   4.048   2.879  0.5969 -0.1972 -0.6060
 2009TIP3   OH2 5990   0.531   6.031   5.590  0.0526 -0.3501 -0.9844
 2009TIP3    H1 5991   0.574   6.013   5.506  2.1092  0.9060 -0.2658
 2009TIP3    H2 5992   0.601   6.021   5.655 -0.5486  2.4021  0.1948
 2010TIP3   OH2 5993   0.454   5.363   2.663  0.8868 -0.3610 -0.0957
 2010TIP3    H1 5994   0.377   5.321   2.701  0.3010 -2.2908 -3.0812
 2010TIP3    H2 5995   0.420   5.439   2.616  1.0261 -0.2730 -0.0538
 2011TIP3   OH2 5996   6.102   5.745   3.562  0.1068 -0.1364  0.4624
 2011TIP3    H1 5997   6.036   5.703   3.508  1.3403 -0.7731 -0.6267
 2011TIP3    H2 5998   6.117   5.684   3.634  0.3829 -0.5894  0.0300
 2012TIP3   OH2 5999   3.367   6.516   5.633  0.3014  0.3473  0.1259
 2012TIP3    H1 6000   3.334   6.429   5.609 -1.6317  1.2771 -0.8355
 2012TIP3    H2 6001   3.433   6.536   5.567  1.7707 -0.9005  1.1489
 2013TIP3   OH2 6002   5.100   5.928   2.077 -0.5893  0.0145  0.1482
 2013TIP3    H1 6003   5.174   5.909   2.135 -0.7747  0.0972  0.4143
 2013TIP3    H2 6004   5.037   5.858   2.096 -0.1509 -0.6711 -0.8343
 2014TIP3   OH2 6005   2.763   0.180   4.834 -0.3469  0.3577  0.2838
 2014TIP3    H1 6006   2.740   0.205   4.745 -0.2819 -1.3528 -0.2307
 2014TIP3    H2 6007   2.833   0.115   4.825 -0.5782 -0.1100  1.5604
 2015TIP3   OH2 6008   1.104   5.542   5.619  0.2526 -0.1014 -0.2310
 2015TIP3    H1 6009   1.083   5.574   5.707  0.5335 -1.6359  0.4397
 2015TIP3    H2 6010   1.155   5.463   5.635 -0.7468 -1.1087 -1.7620
 2016TIP3   OH2 6011   0.195   2.810  -0.003 -0.1701  0.2260  0.1241
 2016TIP3    H1 6012   0.290   2.800   0.004 -0.3590 -1.4125  0.8249
 2016TIP3    H2 6013   0.170   2.849   0.081 -0.1870  0.0247  0.2131
 2017TIP3   OH2 6014   2.115   6.450   0.726 -0.3771 -0.1386 -0.2308
 2017TIP3    H1 6015   2.179   6.411   0.666 -1.1504 -0.5258 -0.8203
 2017TIP3    H2 6016   2.052   6.380   0.741 -1.0252  0.4503 -0.1943
 2018TIP3   OH2 6017   3.712   4.040   4.303  0.5730 -0.2448 -0.1461
 2018TIP3    H1 6018   3.617   4.036   4.294  0.5779  1.0269 -1.0313
 2018TIP3    H2 6019   3.727   4.103   4.374  0.7554 -0.4465 -0.0045
 2019TIP3   OH2 6020   3.464   5.148   3.230  0.4838  0.0129 -0.4013
 2019TIP3    H1 6021   3.499   5.150   3.141 -0.1514 -0.4990 -0.6804
 2019TIP3    H2 6022   3.384   5.096   3.222 -0.3864  1.2065  0.1836
 2020TIP3   OH2 6023   4.652   5.596   3.919 -0.3377 -0.0827 -0.2749
 2020TIP3    H1 6024   4.709   5.592   3.996  2.0954 -0.2549 -1.9434
 2020TIP3    H2 6025   4.587   5.663   3.939 -0.0891 -0.4912  2.0914
 2021TIP3   OH2 6026   6.401   0.047   1.935 -0.6208 -0.4380 -0.3992
 2021TIP3    H1 6027   6.408  -0.041   1.973 -1.1307  0.0384  0.8628
 2021TIP3    H2 6028   6.455   0.102   1.992 -0.6319  0.1388 -0.9328
 2022TIP3   OH2 6029   2.409   4.869   4.475 -0.2468 -0.2197 -0.1319
 2022TIP3    H1 6030   2.390   4.867   4.569  0.9822 -1.8897  0.1269
 2022TIP3    H2 6031   2.324   4.851   4.433 -0.7447  0.2305  0.6497
 2023TIP3   OH2 6032   2.701   1.064   0.250 -0.7165 -0.3571 -0.6485
 2023TIP3    H1 6033   2.669   0.989   0.301  0.8740  0.0326  1.0646
 2023TIP3    H2 6034   2.675   1.045   0.160 -1.7730 -2.1627 -0.0196
 2024TIP3   OH2 6035   3.976   4.375   2.050  0.4941  0.4866  0.3376
 2024TIP3    H1 6036   3.928   4.420   2.119  3.3961  0.2301  2.7181
 2024TIP3    H2 6037   3.983   4.285   2.081  2.4975  0.5397  0.1669
 2025TIP3   OH2 6038   5.785   5.418   1.352 -0.4782  0.0305  0.4428
 2025TIP3    H1 6039   5.742   5.479   1.411 -0.1913 -0.3991  1.1147
 2025TIP3    H2 6040   5.876   5.447   1.350 -0.4395 -0.0927  0.3978
 2026TIP3   OH2 6041   3.539   0.056   0.780 -0.0450  0.7671  0.5105
 2026TIP3    H1 6042   3.629   0.082   0.761 -0.6347  3.7784  1.2975
 2026TIP3    H2 6043   3.548  -0.015   0.843  1.8364  2.0602  1.8241
 2027TIP3   OH2 6044   4.973   3.342   1.958  0.4548 -0.1594  0.0355
 2027TIP3    H1 6045   5.025   3.320   1.880  1.2753 -0.9848  0.7911
 2027TIP3    H2 6046   4.987   3.269   2.017 -0.0548  0.5237  1.0184
 2028TIP3   OH2 6047   2.465   6.772   4.977  0.3685  0.1910  0.2969
 2028TIP3    H1 6048   2.415   6.774   5.058  1.0537  0.0796  0.7346
 2028TIP3    H2 6049   2.512   6.689   4.980  0.6495  0.3326 -0.0543
 2029TIP3   OH2 6050   4.579   3.131   5.723  0.0914  0.3040 -0.5131
 2029TIP3    H1 6051   4.584   3.054   5.780  0.1564  1.7468  1.4974
 2029TIP3    H2 6052   4.486   3.154   5.722  0.2929  1.2319  0.3730
 2030TIP3   OH2 6053   1.026   4.652   0.540 -0.0708  0.1228 -0.5998
 2030TIP3    H1 6054   1.022   4.736   0.585  0.4803 -0.3953  0.4555
 2030TIP3    H2 6055   1.079   4.596   0.598  0.2864 -0.6995 -1.6848
 2031TIP3   OH2 6056   3.784   1.207   4.117  0.0355 -0.0915 -0.3247
 2031TIP3    H1 6057   3.842   1.270   4.074  0.4730 -0.5936 -0.4843
 2031TIP3    H2 6058   3.766   1.246   4.203 -1.1469  1.0917 -1.0796
 2032TIP3   OH2 6059   1.435   6.316   5.071  0.0386 -0.5034  0.0585
 2032TIP3    H1 6060   1.382   6.269   5.006  0.2544  0.6335 -0.9648
 2032TIP3    H2 6061   1.378   6.387   5.100  0.5762  0.0225 -0.1765
 2033TIP3   OH2 6062   2.727   5.444   3.366  0.4598 -0.2310  0.0673
 2033TIP3    H1 6063   2.740   5.365   3.313  1.8824 -0.2713  0.4300
 2033TIP3    H2 6064   2.812   5.459   3.408 -0.0552  0.9653  0.7391
 2034TIP3   OH2 6065   3.446   0.656   3.802 -0.2674 -0.4825 -0.3039
 2034TIP3    H1 6066   3.437   0.750   3.817  1.3135 -0.4065  0.3472
 2034TIP3    H2 6067   3.357   0.627   3.781 -0.7098  1.2329 -1.0474
 2035TIP3   OH2 6068   4.296   0.382   2.334  0.5787  0.2911  0.1812
 2035TIP3    H1 6069   4.317   0.421   2.420  1.2423 -0.1276  0.2122
 2035TIP3    H2 6070   4.271   0.292   2.354 -1.6032  0.8445  0.1805
 2036TIP3   OH2 6071   6.765   1.016   3.091 -0.6032 -0.1192  0.0767
 2036TIP3    H1 6072   6.708   0.947   3.059 -0.0426 -0.8845  0.6736
 2036TIP3    H2 6073   6.789   0.988   3.179  3.1746 -1.5224 -1.1547
 2037TIP3   OH2 6074   6.002   4.691   4.237 -0.2997  0.2578  0.1499
 2037TIP3    H1 6075   5.989   4.771   4.287  0.3122 -1.0561  2.5753
 2037TIP3    H2 6076   6.031   4.721   4.150  1.4395  2.6424  1.4408
 2038TIP3   OH2 6077   1.248   0.477   2.157 -0.0982  0.2665  0.1717
 2038TIP3    H1 6078   1.156   0.497   2.144 -0.7902 -2.0869  0.9426
 2038TIP3    H2 6079   1.291   0.507   2.077 -1.9552 -0.9582 -1.3676
 2039TIP3   OH2 6080   1.655   3.474   2.309  0.1807  0.6308 -0.0772
 2039TIP3    H1 6081   1.678   3.384   2.285 -0.2788  0.0719  1.4598
 2039TIP3    H2 6082   1.720   3.498   2.375  0.1248  1.3382 -0.2722
 2040TIP3   OH2 6083   0.718   3.535   3.230  0.2430 -1.0232  0.3716
 2040TIP3    H1 6084   0.675   3.542   3.144  0.6801 -1.5840  0.0952
 2040TIP3    H2 6085   0.649   3.558   3.293  0.7464  2.6632 -0.2103
 2041TIP3   OH2 6086   3.586   1.129   3.326  0.0781 -0.1902 -0.3504
 2041TIP3    H1 6087   3.576   1.077   3.406  1.1212 -1.6028 -1.0945
 2041TIP3    H2 6088   3.497   1.139   3.293 -0.4129  0.7325  1.1419
 2042TIP3   OH2 6089   0.462   2.008   3.893 -0.3225  0.5781  0.1359
 2042TIP3    H1 6090   0.408   2.049   3.826 -0.0448 -1.4725 -1.4366
 2042TIP3    H2 6091   0.428   2.043   3.975 -2.2937  1.3421 -0.9264
 2043TIP3   OH2 6092   2.731   6.475   5.684  0.0325 -0.0121 -0.0005
 2043TIP3    H1 6093   2.764   6.386   5.697  0.4085  0.0108 -0.7591
 2043TIP3    H2 6094   2.637   6.465   5.670 -0.3883 -0.0681  2.3398
 2044TIP3   OH2 6095   5.237   6.490   0.331  0.6161  0.3119  0.1032
 2044TIP3    H1 6096   5.184   6.527   0.402 -0.1433 -0.7685  0.1131
 2044TIP3    H2 6097   5.284   6.417   0.371  1.0987  0.4355 -0.2290
 2045TIP3   OH2 6098   6.148   6.764   5.260 -0.1364 -0.1506  0.8582
 2045TIP3    H1 6099   6.107   6.724   5.184 -0.2297 -0.8582  1.2757
 2045TIP3    H2 6100   6.087   6.748   5.332  0.2436 -0.0449  1.2100
 2046TIP3   OH2 6101   0.098   0.252   2.812  0.0722 -0.4203 -0.1204
 2046TIP3    H1 6102   0.154   0.190   2.860 -1.2005 -1.6006 -0.1103
 2046TIP3    H2 6103   0.077   0.320   2.876 -0.4267 -1.2186  0.5775
 2047TIP3   OH2 6104   5.758   0.603   3.760  0.4938 -0.1245  0.1232
 2047TIP3    H1 6105   5.775   0.526   3.705 -1.4702 -1.4284  1.2383
 2047TIP3    H2 6106   5.837   0.614   3.811  1.6323 -0.0465 -1.5626
 2048TIP3   OH2 6107   2.521   6.125   5.080  0.0071 -0.5180 -0.0796
 2048TIP3    H1 6108   2.542   6.033   5.096 -0.3859 -0.9621 -1.8809
 2048TIP3    H2 6109   2.605   6.165   5.056  0.0087 -0.6322 -0.2623
 2049TIP3   OH2 6110   0.479   3.546   0.334 -0.6140  0.2318 -0.1267
 2049TIP3    H1 6111   0.518   3.599   0.404  2.2734 -0.6351 -0.9136
 2049TIP3    H2 6112   0.515   3.583   0.254 -2.0337 -0.2214 -0.9982
 2050TIP3   OH2 6113   5.502   2.047   3.236 -0.0272  0.3860 -0.2718
 2050TIP3    H1 6114   5.521   2.139   3.220 -0.8477  0.7268  0.6177
 2050TIP3    H2 6115   5.411   2.046   3.267 -0.7284 -0.9313 -2.1632
 2051TIP3   OH2 6116   6.900   1.477   2.281  0.0818  0.1164  0.2903
 2051TIP3    H1 6117   6.987   1.439   2.292 -0.3320 -0.3300  2.6169
 2051TIP3    H2 6118   6.877   1.459   2.190  2.1917 -0.2094 -0.2309
 2052TIP3   OH2 6119   6.385   5.573   3.548  0.0618 -0.2919  0.8277
 2052TIP3    H1 6120   6.346   5.657   3.571 -2.7931 -1.1636 -0.3589
 2052TIP3    H2 6121   6.361   5.559   3.457  1.6320 -1.8028  0.6003
 2053TIP3   OH2 6122   3.704   0.045   2.972  0.0419  0.1387 -0.0848
 2053TIP3    H1 6123   3.744   0.120   3.017  0.0449  0.0490  0.0597
 2053TIP3    H2 6124   3.742   0.048   2.884 -0.6051  0.8240 -0.3630
 2054TIP3   OH2 6125   0.533   4.144   3.936 -0.1339 -0.8124 -0.0650
 2054TIP3    H1 6126   0.506   4.232   3.910  2.9740  0.5084  0.7433
 2054TIP3    H2 6127   0.588   4.157   4.013  2.0561 -3.2640 -1.0632
 2055TIP3   OH2 6128   6.046   4.825   5.058 -0.2161  0.1738 -0.3020
 2055TIP3    H1 6129   5.976   4.890   5.062 -0.2698  0.1733 -1.0696
 2055TIP3    H2 6130   6.073   4.824   4.966  0.4527 -0.1857 -0.1086
 2056TIP3   OH2 6131   0.377   1.450   1.820  0.2956 -0.4396 -0.0511
 2056TIP3    H1 6132   0.356   1.480   1.732  1.4778  1.4511  0.2666
 2056TIP3    H2 6133   0.324   1.370   1.831 -1.1334  0.1860 -1.8387
 2057TIP3   OH2 6134   2.289   3.538   0.409  0.3897 -0.2740 -0.3431
 2057TIP3    H1 6135   2.337   3.481   0.470 -0.2629  1.2282  1.6900
 2057TIP3    H2 6136   2.326   3.625   0.425 -0.9948  0.4236 -0.8697
 2058TIP3   OH2 6137   3.807   0.753   2.117  0.1694 -0.2362  0.6202
 2058TIP3    H1 6138   3.752   0.757   2.039  1.5472 -1.1901 -0.4253
 2058TIP3    H2 6139   3.896   0.758   2.085  0.7563  0.3900  2.2308
 2059TIP3   OH2 6140   4.886   0.399   2.135  0.7692 -0.3134 -0.2156
 2059TIP3    H1 6141   4.841   0.484   2.141 -0.3640 -0.7545 -1.8098
 2059TIP3    H2 6142   4.959   0.415   2.076  0.8469 -0.3374 -0.1262
 2060TIP3   OH2 6143   6.786   6.060   3.750 -0.3771 -0.3338 -0.1261
 2060TIP3    H1 6144   6.691   6.052   3.745 -0.4440 -1.1338  1.6949
 2060TIP3    H2 6145   6.817   6.026   3.666 -1.6824 -0.1785 -0.6965
 2061TIP3   OH2 6146   2.102   4.365   2.040  0.1329 -0.0377 -0.3161
 2061TIP3    H1 6147   2.139   4.359   2.128  0.2339  2.7278 -0.0833
 2061TIP3    H2 6148   2.163   4.317   1.984  1.7446  0.7714  0.7016
 2062TIP3   OH2 6149   4.397   6.118   0.414 -0.0569 -0.0725 -0.6917
 2062TIP3    H1 6150   4.441   6.094   0.333  0.0427  0.3210 -0.7552
 2062TIP3    H2 6151   4.384   6.213   0.408 -0.7850 -0.1610 -0.6118
 2063TIP3   OH2 6152   2.836   3.391   0.980 -0.5677 -0.4497  0.1148
 2063TIP3    H1 6153   2.856   3.482   0.958  0.5301 -0.9824 -1.2602
 2063TIP3    H2 6154   2.764   3.397   1.042  0.5848  1.4134  1.3897
 2064TIP3   OH2 6155   3.934   0.448   3.785  0.1112 -0.8628  0.2211
 2064TIP3    H1 6156   4.004   0.382   3.785 -0.2435 -1.2662  1.0092
 2064TIP3    H2 6157   3.877   0.420   3.857  0.3885  0.7644  1.1213
 2065TIP3   OH2 6158   3.511   4.937   2.717  0.0074 -0.3373 -0.2466
 2065TIP3    H1 6159   3.549   4.894   2.641  0.4277 -0.8908  0.2657
 2065TIP3    H2 6160   3.573   4.919   2.788 -1.8914 -2.5682  0.9841
 2066TIP3   OH2 6161   0.329   6.531   2.077 -0.2385  0.1136 -0.6040
 2066TIP3    H1 6162   0.297   6.614   2.111  1.0516  0.1531  0.5967
 2066TIP3    H2 6163   0.264   6.506   2.010 -2.2265  0.6305  1.0179
 2067TIP3   OH2 6164   5.442   3.348   2.338 -0.1911  0.3269  0.0233
 2067TIP3    H1 6165   5.434   3.443   2.345  0.2365  0.3499  0.2471
 2067TIP3    H2 6166   5.520   3.334   2.284 -0.7262  0.1062 -0.7095
 2068TIP3   OH2 6167   3.285   4.810   2.791 -0.4795  0.5878  0.0459
 2068TIP3    H1 6168   3.288   4.814   2.886  1.5792 -1.3388  0.1403
 2068TIP3    H2 6169   3.359   4.865   2.762  0.5927 -0.9708 -0.2825
 2069TIP3   OH2 6170   0.776   3.870   1.710  0.4674  0.1188 -0.3595
 2069TIP3    H1 6171   0.857   3.838   1.671  0.8123 -0.3575  0.7039
 2069TIP3    H2 6172   0.781   3.843   1.802 -1.6037 -1.2804 -0.5930
 2070TIP3   OH2 6173   1.997   1.001   0.502  0.4858  0.0182 -0.2879
 2070TIP3    H1 6174   2.082   0.984   0.543  0.8888  0.3777 -0.9564
 2070TIP3    H2 6175   2.017   1.009   0.409 -0.1572  0.8949 -0.3587
 2071TIP3   OH2 6176   2.180   2.360   2.448 -0.7528  0.7634 -0.3577
 2071TIP3    H1 6177   2.197   2.428   2.382 -0.5198  0.1279 -0.9585
 2071TIP3    H2 6178   2.215   2.397   2.529 -0.8984  1.4889 -0.6160
 2072TIP3   OH2 6179   2.161   5.047   3.675  0.2830 -0.2936  0.3098
 2072TIP3    H1 6180   2.217   5.101   3.730  0.9861 -1.9602  1.3188
 2072TIP3    H2 6181   2.137   4.973   3.731 -0.7613 -0.9579 -0.9567
 2073TIP3   OH2 6182   1.236   2.944   1.352 -0.1279  0.6064 -0.6637
 2073TIP3    H1 6183   1.282   2.994   1.284 -1.8317  1.9719 -0.8929
 2073TIP3    H2 6184   1.284   2.962   1.432  1.0191  0.2088 -1.2487
 2074TIP3   OH2 6185   1.925   4.283   1.030 -0.4244 -0.5056 -0.4791
 2074TIP3    H1 6186   1.974   4.318   0.955  1.1803 -2.4115 -0.4076
 2074TIP3    H2 6187   1.837   4.266   0.995  0.0432 -0.5442 -1.7022
 2075TIP3   OH2 6188   2.502   3.504   1.292 -0.2460 -0.1057 -0.3958
 2075TIP3    H1 6189   2.542   3.436   1.237  1.2606 -0.0501  0.5694
 2075TIP3    H2 6190   2.577   3.549   1.332 -1.2809  0.4214  1.0066
 2076TIP3   OH2 6191   5.212   1.724   0.278 -0.2565  0.1946  0.1708
 2076TIP3    H1 6192   5.194   1.631   0.294 -1.8835  0.5149  0.4584
 2076TIP3    H2 6193   5.203   1.734   0.183  0.0762  0.0191  0.1229
 2077TIP3   OH2 6194   3.141   0.577   1.247  1.0671  0.3230 -0.2663
 2077TIP3    H1 6195   3.191   0.616   1.176 -1.0578 -0.1658 -2.1557
 2077TIP3    H2 6196   3.119   0.489   1.216 -1.5902  0.7858  0.0748
 2078TIP3   OH2 6197   5.573   6.422   3.009  0.0906 -0.0219  0.1156
 2078TIP3    H1 6198   5.491   6.469   3.024 -0.3737 -0.3945 -1.1170
 2078TIP3    H2 6199   5.578   6.359   3.081 -0.5101  0.2503  0.4033
 2079TIP3   OH2 6200   1.049   2.384   1.944 -0.2156 -0.0725  0.3315
 2079TIP3    H1 6201   1.067   2.307   1.998  1.3777  0.2993  0.3770
 2079TIP3    H2 6202   1.090   2.457   1.992 -2.4983  0.9983  0.7747
 2080TIP3   OH2 6203   5.759   0.836   2.047 -0.1155 -0.0306  0.6407
 2080TIP3    H1 6204   5.719   0.755   2.080  2.5024 -1.4920  0.5352
 2080TIP3    H2 6205   5.711   0.906   2.090 -1.5885 -1.6595  1.8145
 2081TIP3   OH2 6206   2.076   6.757   0.886  0.0232 -0.2468 -0.5210
 2081TIP3    H1 6207   2.112   6.770   0.974  0.2775  0.2600 -0.6942
 2081TIP3    H2 6208   2.034   6.671   0.889 -2.2341  0.8351  0.8599
 2082TIP3   OH2 6209   0.751   3.101   5.100  0.7129 -0.0372 -0.0553
 2082TIP3    H1 6210   0.764   3.194   5.117 -0.2675  0.2702 -0.8574
 2082TIP3    H2 6211   0.779   3.057   5.180  0.5274  0.9990  0.5895
 2083TIP3   OH2 6212   0.106   0.191   1.428 -0.1832  0.1062 -0.1499
 2083TIP3    H1 6213   0.099   0.245   1.506 -0.6737  0.9621 -0.7733
 2083TIP3    H2 6214   0.027   0.210   1.378 -0.1170 -0.8114 -0.6246
 2084TIP3   OH2 6215   0.522   5.224   4.190 -0.1086  0.2684 -0.1526
 2084TIP3    H1 6216   0.504   5.316   4.210  0.8634  0.2090  1.1240
 2084TIP3    H2 6217   0.510   5.179   4.274 -0.4854 -0.7684 -0.7418
 2085TIP3   OH2 6218   6.917   6.586   3.790 -0.2612  0.3678  0.1316
 2085TIP3    H1 6219   6.928   6.629   3.706  0.1313  0.3716  0.1830
 2085TIP3    H2 6220   6.952   6.498   3.777 -0.5011  0.2606  0.1984
 2086TIP3   OH2 6221   0.788   2.361   3.923 -0.1412 -0.1197  0.3099
 2086TIP3    H1 6222   0.762   2.424   3.855  1.2912  1.1608  0.8914
 2086TIP3    H2 6223   0.868   2.321   3.889  0.2688  0.1176  0.9677
 2087TIP3   OH2 6224   4.240   4.261   1.330  0.3155 -0.0005 -0.5935
 2087TIP3    H1 6225   4.257   4.329   1.395 -0.0636  1.0226 -1.5275
 2087TIP3    H2 6226   4.168   4.210   1.366  1.5861 -0.8799  0.8092
 2088TIP3   OH2 6227   0.793   6.182   5.187 -0.2275  0.1211  0.2167
 2088TIP3    H1 6228   0.830   6.187   5.275 -0.5697  0.2833  0.3512
 2088TIP3    H2 6229   0.718   6.123   5.196  0.4675 -0.8618 -0.2179
 2089TIP3   OH2 6230   4.764   2.850   1.871 -0.1866 -0.0914 -0.3390
 2089TIP3    H1 6231   4.808   2.887   1.947 -1.1772  1.2768 -0.3958
 2089TIP3    H2 6232   4.709   2.921   1.838 -1.2273 -1.2499 -1.1926
 2090TIP3   OH2 6233   3.330   4.911   3.450 -0.1431  0.1679 -0.0924
 2090TIP3    H1 6234   3.275   4.945   3.380 -0.1979  0.4452  0.0814
 2090TIP3    H2 6235   3.390   4.851   3.406 -1.2212 -0.9137 -0.1430
 2091TIP3   OH2 6236   0.312   3.371   0.471 -0.5320 -0.1290 -0.2303
 2091TIP3    H1 6237   0.259   3.450   0.474 -0.3718 -0.0365  0.4076
 2091TIP3    H2 6238   0.389   3.394   0.419  1.0067  1.1018  2.3897
 2092TIP3   OH2 6239   5.561   0.214   5.463  0.4335  0.3706  0.3286
 2092TIP3    H1 6240   5.567   0.299   5.418 -1.6618 -0.4759 -1.7878
 2092TIP3    H2 6241   5.471   0.212   5.497  0.1160 -1.3527 -0.5318
 2093TIP3   OH2 6242   6.468   5.707   0.291 -0.2512  0.2889 -0.3997
 2093TIP3    H1 6243   6.557   5.719   0.257 -1.3256  1.8048 -2.9695
 2093TIP3    H2 6244   6.454   5.613   0.287  1.1458  0.0391 -0.1341
 2094TIP3   OH2 6245   3.151   3.337   3.980  0.2214 -0.1851  0.4870
 2094TIP3    H1 6246   3.135   3.312   4.071  1.2182 -0.2656  0.6493
 2094TIP3    H2 6247   3.188   3.425   3.986 -1.6275  0.6712  0.0210
 2095TIP3   OH2 6248   6.558   6.478   0.797  0.1007  0.1193 -0.3824
 2095TIP3    H1 6249   6.644   6.438   0.805  0.1503  0.0295 -1.2693
 2095TIP3    H2 6250   6.542   6.519   0.882  1.1901  0.4974 -0.3528
 2096TIP3   OH2 6251   1.190   0.386   2.663 -0.4318 -0.3397 -0.2365
 2096TIP3    H1 6252   1.209   0.297   2.635  0.3788 -0.0142 -0.7628
 2096TIP3    H2 6253   1.223   0.391   2.753 -2.2022 -1.1157  0.4861
 2097TIP3   OH2 6254   3.733   3.777   1.012 -0.0866 -0.1027  0.5212
 2097TIP3    H1 6255   3.737   3.726   1.093  2.6598  0.0985  0.6125
 2097TIP3    H2 6256   3.703   3.715   0.946 -0.5535 -0.7681  1.3370
 2098TIP3   OH2 6257   2.670   4.243   0.627 -0.2873  0.2915 -0.4818
 2098TIP3    H1 6258   2.745   4.268   0.574 -0.4272  0.3875 -0.6351
 2098TIP3    H2 6259   2.680   4.293   0.708 -0.4138  0.6287 -0.6730
 2099TIP3   OH2 6260   3.900   5.603   3.880  0.9273  0.3038 -0.1812
 2099TIP3    H1 6261   3.828   5.613   3.817  1.0847 -0.1608 -0.4393
 2099TIP3    H2 6262   3.961   5.544   3.837  1.5739  0.8692 -0.0543
 2100TIP3   OH2 6263   0.951   4.742   1.587 -0.2874  0.7474 -0.5529
 2100TIP3    H1 6264   0.859   4.717   1.575  0.0924 -0.7957 -0.5100
 2100TIP3    H2 6265   1.000   4.666   1.556  0.8880  0.1372  2.4822
 2101TIP3   OH2 6266   0.104   4.828   0.101 -0.1540  1.0262  0.3131
 2101TIP3    H1 6267   0.067   4.743   0.077 -0.1178  0.7651  1.1316
 2101TIP3    H2 6268   0.070   4.889   0.036 -2.1735  0.8410  1.1091
 2102TIP3   OH2 6269   6.052   0.331   0.300 -0.2679  0.1165 -0.0782
 2102TIP3    H1 6270   5.966   0.351   0.336  0.2582  0.5077  1.0322
 2102TIP3    H2 6271   6.108   0.321   0.377  0.2159 -2.4757 -0.6531
 2103TIP3   OH2 6272   0.419   4.948   4.724 -0.0100  0.2227 -0.0649
 2103TIP3    H1 6273   0.401   5.029   4.773 -0.0377 -0.7765  1.6617
 2103TIP3    H2 6274   0.386   4.878   4.781  0.5317 -1.0462 -1.2635
 2104TIP3   OH2 6275   4.449   2.863   0.807  0.1781  0.7296  0.4541
 2104TIP3    H1 6276   4.492   2.846   0.723  0.5232  2.3018  0.2817
 2104TIP3    H2 6277   4.388   2.790   0.817 -0.8429  1.1605 -1.8281
 2105TIP3   OH2 6278   3.633   6.574   3.448  0.5068  0.2321  0.0426
 2105TIP3    H1 6279   3.637   6.625   3.529  0.3811 -0.1598  0.3005
 2105TIP3    H2 6280   3.657   6.636   3.379  2.9075  0.0238  0.5962
 2106TIP3   OH2 6281   1.055   1.371   0.541  0.0643  0.3007 -0.5824
 2106TIP3    H1 6282   1.088   1.281   0.542 -0.6761 -0.0002  1.0588
 2106TIP3    H2 6283   1.133   1.425   0.551  0.3399 -0.3015  0.8877
 2107TIP3   OH2 6284   0.547   5.861   0.508  0.0975 -0.2294 -0.1018
 2107TIP3    H1 6285   0.637   5.884   0.486 -0.1268 -0.1690 -0.9819
 2107TIP3    H2 6286   0.504   5.846   0.424 -0.7454 -0.1505  0.2988
 2108TIP3   OH2 6287   0.084   6.330   4.633 -0.0734  0.0269  0.1329
 2108TIP3    H1 6288   0.008   6.365   4.588 -0.5981  0.1917  1.1304
 2108TIP3    H2 6289   0.142   6.405   4.645  0.4305 -0.1614 -0.9330
 2109TIP3   OH2 6290   1.645   4.256   4.141  0.4544 -0.2482  0.1072
 2109TIP3    H1 6291   1.737   4.235   4.153  0.3001 -0.3986  1.1316
 2109TIP3    H2 6292   1.598   4.177   4.170  0.0054 -0.3401 -0.8145
 2110TIP3   OH2 6293   0.652   5.900   2.012 -0.1117 -1.2460  0.1505
 2110TIP3    H1 6294   0.575   5.901   2.068  0.2642 -1.8023  0.6860
 2110TIP3    H2 6295   0.720   5.945   2.063 -0.1924 -0.3683 -0.4940
 2111TIP3   OH2 6296   2.252   2.967   1.267  0.0387 -0.0335  0.2929
 2111TIP3    H1 6297   2.316   2.988   1.336  1.0698 -0.7213 -0.4159
 2111TIP3    H2 6298   2.269   3.032   1.199 -0.3020  0.0332  0.2736
 2112TIP3   OH2 6299   6.868   1.971   3.531  0.6202 -0.5593 -0.0742
 2112TIP3    H1 6300   6.918   2.010   3.603  0.4930  0.6637 -0.6308
 2112TIP3    H2 6301   6.933   1.924   3.480  0.9854 -0.1084 -0.0346
 2113TIP3   OH2 6302   2.432   1.482   3.561  0.2566  0.2881  0.6631
 2113TIP3    H1 6303   2.473   1.485   3.475  0.1290  0.4797  0.6060
 2113TIP3    H2 6304   2.500   1.510   3.622  0.6840 -0.9147  0.7627
 2114TIP3   OH2 6305   6.810   3.061   5.003  0.3707  0.4283  0.2404
 2114TIP3    H1 6306   6.859   3.140   4.980 -3.4547  2.2297 -3.1645
 2114TIP3    H2 6307   6.788   3.071   5.095  1.7165  2.3028  0.4040
 2115TIP3   OH2 6308   6.510   4.261   3.371  0.2796  0.3030 -0.1979
 2115TIP3    H1 6309   6.458   4.234   3.295 -1.9062  0.7886  1.0350
 2115TIP3    H2 6310   6.528   4.354   3.357 -1.9228  0.9364  0.7703
 2116TIP3   OH2 6311   0.787   1.479   4.504 -0.0933 -0.2336 -0.0927
 2116TIP3    H1 6312   0.871   1.502   4.464 -0.1471  0.1642  0.0195
 2116TIP3    H2 6313   0.722   1.516   4.445 -0.1653  1.7332  1.1521
 2117TIP3   OH2 6314   4.215   2.375   4.453 -0.4420  0.3855  0.2869
 2117TIP3    H1 6315   4.276   2.314   4.494 -1.6320 -0.4855  0.8440
 2117TIP3    H2 6316   4.154   2.320   4.404  0.7231  1.3835 -2.4751
 2118TIP3   OH2 6317   1.956   0.702   4.469  0.1847  0.5404 -0.3895
 2118TIP3    H1 6318   2.014   0.745   4.531 -1.1320  2.9868 -0.7183
 2118TIP3    H2 6319   2.007   0.630   4.433  3.2186  2.7964 -0.9747
 2119TIP3   OH2 6320   0.174   6.079   1.618  0.2375 -0.2668  0.1601
 2119TIP3    H1 6321   0.168   5.987   1.591  1.3965 -0.9679  2.1452
 2119TIP3    H2 6322   0.213   6.077   1.705 -1.6147  1.9935  1.1546
 2120TIP3   OH2 6323   3.784   5.538   4.114 -0.1062 -0.4326 -0.6529
 2120TIP3    H1 6324   3.831   5.477   4.170  2.5453  2.2223  0.2735
 2120TIP3    H2 6325   3.842   5.550   4.038 -1.8419 -1.0152 -2.1614
 2121TIP3   OH2 6326   1.959   1.052   1.273  0.1278  0.5988 -0.5267
 2121TIP3    H1 6327   1.991   1.023   1.359 -1.3964  1.9139  0.5454
 2121TIP3    H2 6328   2.006   1.133   1.256  0.3900  0.3672 -0.9378
 2122TIP3   OH2 6329   0.082   1.575   5.806 -0.0917  0.2321  0.5776
 2122TIP3    H1 6330   0.128   1.505   5.852  0.4155 -0.5526 -1.0335
 2122TIP3    H2 6331  -0.009   1.566   5.833  0.5062  1.3769  3.2888
 2123TIP3   OH2 6332   5.967   0.301   2.719 -0.7393 -0.2802 -0.1785
 2123TIP3    H1 6333   5.928   0.370   2.773 -0.1763  0.7465 -1.0557
 2123TIP3    H2 6334   5.994   0.346   2.639 -0.1114 -1.4737 -0.6507
 2124TIP3   OH2 6335   1.945   4.269   0.254 -0.1178  0.3638 -0.4913
 2124TIP3    H1 6336   2.033   4.231   0.253 -0.2252  0.1075 -0.3207
 2124TIP3    H2 6337   1.925   4.286   0.162  1.4330  3.5467 -0.3606
 2125TIP3   OH2 6338   5.051   3.115   2.097  0.2993 -0.3012 -0.0308
 2125TIP3    H1 6339   5.055   3.023   2.069 -0.0363 -0.5753  0.8058
 2125TIP3    H2 6340   5.139   3.134   2.130  0.5359 -0.1416 -0.7308
 2126TIP3   OH2 6341   0.278   2.895   5.722  0.5466 -0.4704 -0.1692
 2126TIP3    H1 6342   0.251   2.872   5.633 -0.6042  0.8420 -0.1976
 2126TIP3    H2 6343   0.318   2.982   5.713 -1.2030  0.4835  0.8076
 2127TIP3   OH2 6344   6.216   4.185   2.887 -0.4933 -0.0629  0.4340
 2127TIP3    H1 6345   6.218   4.201   2.792 -0.9298 -0.3292  0.3746
 2127TIP3    H2 6346   6.150   4.116   2.898  0.9098 -1.4094  0.7302
 2128TIP3   OH2 6347   0.378   2.078   2.784  0.1974 -0.2295  0.1086
 2128TIP3    H1 6348   0.323   2.146   2.822  1.1775  1.3438 -1.1183
 2128TIP3    H2 6349   0.465   2.094   2.822  0.4413 -0.8079 -0.1926
 2129TIP3   OH2 6350   2.475   0.558   1.203  0.5815  0.0480 -0.2044
 2129TIP3    H1 6351   2.485   0.498   1.277 -1.1484  1.4878  1.2925
 2129TIP3    H2 6352   2.560   0.602   1.195  0.6378  0.2400  1.2715
 2130TIP3   OH2 6353   1.840   2.924   4.392  0.5736 -0.2308 -0.2576
 2130TIP3    H1 6354   1.849   2.898   4.300 -1.9295  0.7861 -0.8905
 2130TIP3    H2 6355   1.906   2.992   4.404 -0.7996  1.5903 -2.2021
 2131TIP3   OH2 6356   0.322   1.670   5.732 -0.1761 -0.2436  0.7952
 2131TIP3    H1 6357   0.293   1.745   5.678  1.1267  0.1735  0.6431
 2131TIP3    H2 6358   0.240   1.628   5.758 -0.8862 -0.2253 -1.1675
 2132TIP3   OH2 6359   0.556   4.699   0.843 -0.6641  0.2977  0.3520
 2132TIP3    H1 6360   0.595   4.631   0.898 -0.4302  1.1599  1.2907
 2132TIP3    H2 6361   0.468   4.667   0.825 -0.4102 -0.4513  0.4254
 2133TIP3   OH2 6362   1.288   1.250   0.292  0.2061  0.1436  0.1731
 2133TIP3    H1 6363   1.248   1.316   0.348  0.5031 -0.2733  0.8889
 2133TIP3    H2 6364   1.381   1.271   0.292  0.4057 -0.6829  0.9880
 2134TIP3   OH2 6365   4.682   3.867   3.109  0.2518 -0.4748  0.2497
 2134TIP3    H1 6366   4.660   3.959   3.124  2.3824  0.0161  0.6325
 2134TIP3    H2 6367   4.645   3.847   3.023  0.7976  1.0976 -0.3725
 2135TIP3   OH2 6368   4.378   0.754   1.016  0.3704 -0.0860  0.1503
 2135TIP3    H1 6369   4.434   0.720   1.087 -1.2403 -2.2084  0.5065
 2135TIP3    H2 6370   4.321   0.681   0.993  0.9028  0.4489 -3.5062
 2136TIP3   OH2 6371   4.894   6.669   2.523  0.2243 -0.8990  0.6109
 2136TIP3    H1 6372   4.912   6.605   2.454 -2.4220 -0.0447 -1.0405
 2136TIP3    H2 6373   4.833   6.625   2.582 -2.1114  0.1273 -0.8736
 2137TIP3   OH2 6374   1.704   3.938   0.370  0.3172 -0.4167 -0.0645
 2137TIP3    H1 6375   1.744   4.015   0.410  0.3499 -0.0264 -0.8344
 2137TIP3    H2 6376   1.757   3.920   0.293 -0.2500 -0.6399 -0.4144
 2138TIP3   OH2 6377   5.097   4.768   3.392 -0.4438 -0.1028  0.0172
 2138TIP3    H1 6378   5.086   4.693   3.333 -2.1199 -0.8409  1.1892
 2138TIP3    H2 6379   5.190   4.791   3.384 -0.2373 -1.3008 -1.5463
 2139TIP3   OH2 6380   3.291   6.213   4.006 -0.6739 -0.6521  0.2954
 2139TIP3    H1 6381   3.256   6.182   3.922 -2.3224  1.4172  0.1395
 2139TIP3    H2 6382   3.213   6.222   4.061  0.0156  0.8868  1.0553
 2140TIP3   OH2 6383   1.191   4.039   0.137  0.1109 -0.1400  0.1758
 2140TIP3    H1 6384   1.208   4.000   0.051 -1.9599  1.1846 -0.9290
 2140TIP3    H2 6385   1.276   4.074   0.165  0.8463 -0.6552 -1.2907
 2141TIP3   OH2 6386   1.009   5.701   1.702  0.0108 -0.2694 -0.4731
 2141TIP3    H1 6387   0.924   5.724   1.738  0.3544  1.5781 -0.7472
 2141TIP3    H2 6388   1.066   5.774   1.726  1.1883 -0.8269 -1.4543
 2142TIP3   OH2 6389   3.424   2.309   0.905 -0.3258  0.1462  0.0246
 2142TIP3    H1 6390   3.437   2.389   0.957 -2.2269 -0.2083  1.1501
 2142TIP3    H2 6391   3.467   2.328   0.821 -0.3232  2.1669  0.4239
 2143TIP3   OH2 6392   2.187   6.248   1.450 -0.1123 -0.3475 -0.0307
 2143TIP3    H1 6393   2.139   6.207   1.522 -0.1150 -0.5956 -0.1746
 2143TIP3    H2 6394   2.119   6.290   1.397  0.0235  1.3705  1.0720
 2144TIP3   OH2 6395   4.723   2.369   5.430  0.0564  0.3177 -1.0274
 2144TIP3    H1 6396   4.743   2.457   5.398  1.4641 -0.2794 -1.8616
 2144TIP3    H2 6397   4.629   2.371   5.448 -0.2094  1.5731 -2.3794
 2145TIP3   OH2 6398   2.618   0.175   2.655 -0.3845  0.0278 -0.0429
 2145TIP3    H1 6399   2.594   0.268   2.656  0.7483  0.3886  3.0082
 2145TIP3    H2 6400   2.609   0.147   2.746  1.8717 -2.1515 -0.4027
 2146TIP3   OH2 6401   1.291   3.799   4.206  0.0303  0.1643 -0.3469
 2146TIP3    H1 6402   1.357   3.738   4.240  0.0694  0.2377 -0.2906
 2146TIP3    H2 6403   1.243   3.827   4.284 -0.8800 -0.8379 -0.5199
 2147TIP3   OH2 6404   4.605   0.628   1.124  0.0680  0.0558  0.3498
 2147TIP3    H1 6405   4.603   0.538   1.091 -0.3891  0.2864 -0.2854
 2147TIP3    H2 6406   4.675   0.670   1.075 -0.5033  0.3565 -0.2266
 2148TIP3   OH2 6407   6.347   5.080   2.229  0.4362 -0.3731  0.2264
 2148TIP3    H1 6408   6.380   5.144   2.166 -1.6527  0.4317 -0.1289
 2148TIP3    H2 6409   6.320   5.132   2.304  0.0892 -0.9912  0.5368
 2149TIP3   OH2 6410   0.647   5.185   1.898 -0.4239 -0.6412  0.1079
 2149TIP3    H1 6411   0.662   5.166   1.991 -0.8704 -2.2418 -0.1233
 2149TIP3    H2 6412   0.734   5.206   1.864  0.1157 -2.1887  0.4519
 2150TIP3   OH2 6413   2.291   0.024   3.631 -0.1117  0.5392  0.4435
 2150TIP3    H1 6414   2.299   0.093   3.565 -0.3235  0.2065  0.0626
 2150TIP3    H2 6415   2.236  -0.043   3.589  1.6448 -0.7441  0.0461
 2151TIP3   OH2 6416   7.112   6.374   3.571  0.3234  0.3981  0.1846
 2151TIP3    H1 6417   7.077   6.346   3.656 -0.0929  0.3109 -0.0134
 2151TIP3    H2 6418   7.041   6.357   3.509  0.0006  1.9827  0.0706
 2152TIP3   OH2 6419   2.745   2.811   2.039 -0.0767 -0.7188 -0.0256
 2152TIP3    H1 6420   2.808   2.749   2.076  0.9968  0.7027  0.6191
 2152TIP3    H2 6421   2.665   2.797   2.090 -0.0459 -1.9635 -0.2870
 2153TIP3   OH2 6422   3.357   3.200   4.913  0.9916 -0.3810  0.1235
 2153TIP3    H1 6423   3.408   3.260   4.859 -0.6203  1.1337  0.2320
 2153TIP3    H2 6424   3.400   3.115   4.901  1.1006  0.0190 -2.9860
 2154TIP3   OH2 6425   0.622   6.655   1.515 -0.1264  0.5725  0.2823
 2154TIP3    H1 6426   0.713   6.682   1.506  0.1171 -0.4642 -0.5235
 2154TIP3    H2 6427   0.581   6.681   1.432 -0.1904 -0.3538  0.0169
 2155TIP3   OH2 6428   6.117   0.253   1.284 -0.3663 -0.4531 -0.2315
 2155TIP3    H1 6429   6.136   0.186   1.349 -0.2787 -1.6052 -1.4099
 2155TIP3    H2 6430   6.081   0.326   1.335  1.3566 -0.6117  1.2969
 2156TIP3   OH2 6431   3.873   2.613   5.400 -0.0459 -0.3894  0.4985
 2156TIP3    H1 6432   3.877   2.596   5.494  0.8952 -2.7604  0.0999
 2156TIP3    H2 6433   3.877   2.708   5.392  1.1570 -0.1855  2.8191
 2157TIP3   OH2 6434   6.855   6.433   4.231 -0.2844 -0.4652  0.0065
 2157TIP3    H1 6435   6.856   6.516   4.280 -3.2569  0.8689 -1.8884
 2157TIP3    H2 6436   6.821   6.369   4.294 -0.0566  0.2210  0.8598
 2158TIP3   OH2 6437   1.261   3.351   4.399  0.2626 -0.2062 -0.2139
 2158TIP3    H1 6438   1.313   3.275   4.426  0.2529  0.6638  2.6512
 2158TIP3    H2 6439   1.172   3.318   4.388  0.3247 -0.6851  0.6705
 2159TIP3   OH2 6440   3.477   3.377   5.088  0.9787  0.8178 -0.4466
 2159TIP3    H1 6441   3.438   3.306   5.037  2.1807  1.3185 -2.1464
 2159TIP3    H2 6442   3.551   3.336   5.133 -0.8145  0.0819  2.0366
 2160TIP3   OH2 6443   4.560   1.711   5.493  0.1705  0.4886  1.0393
 2160TIP3    H1 6444   4.565   1.717   5.589 -0.2269  1.3255  1.0149
 2160TIP3    H2 6445   4.467   1.720   5.473  0.1512 -0.5254  0.6143
 2161TIP3   OH2 6446   5.087   0.785   1.054  0.2672  0.7559 -0.0331
 2161TIP3    H1 6447   5.176   0.752   1.040 -0.3358 -0.8590 -0.2130
 2161TIP3    H2 6448   5.099   0.867   1.103  1.7864 -0.1333  1.1677
 2162TIP3   OH2 6449   4.492   5.637   4.446 -0.1269 -0.0959 -0.2581
 2162TIP3    H1 6450   4.504   5.665   4.355 -0.6073  1.4120  0.1136
 2162TIP3    H2 6451   4.527   5.710   4.498  1.4619 -1.5258  0.7957
 2163TIP3   OH2 6452   1.073   6.245   2.820 -0.6222  0.1419 -0.6290
 2163TIP3    H1 6453   1.087   6.243   2.725  0.9940  2.5372 -0.5263
 2163TIP3    H2 6454   0.984   6.211   2.832 -0.2953 -1.8084 -2.8037
 2164TIP3   OH2 6455   2.778   3.923   3.487  0.5069  1.3254  0.6172
 2164TIP3    H1 6456   2.789   3.833   3.454 -0.3475  1.7290 -0.8465
 2164TIP3    H2 6457   2.685   3.929   3.508  0.7449  1.5885  1.6299
 2165TIP3   OH2 6458   0.464   4.796   2.481 -0.2251 -0.1717  0.1194
 2165TIP3    H1 6459   0.490   4.736   2.411  0.7798  1.3337 -0.8714
 2165TIP3    H2 6460   0.411   4.743   2.540 -4.1462 -0.8406 -3.4778
 2166TIP3   OH2 6461   3.511   1.865   4.879  0.0407 -0.0496 -0.4500
 2166TIP3    H1 6462   3.557   1.784   4.896 -0.3395 -0.2770 -0.4851
 2166TIP3    H2 6463   3.510   1.911   4.963 -0.4679 -0.4623 -0.2198
 2167TIP3   OH2 6464   5.757   2.096   5.009 -0.2893  0.0091  0.0734
 2167TIP3    H1 6465   5.705   2.021   5.037  0.4220 -0.9178 -0.9851
 2167TIP3    H2 6466   5.831   2.058   4.962 -0.2592  1.4010 -1.0841
 2168TIP3   OH2 6467   2.216   6.789   5.089  0.2291 -0.2109 -0.5090
 2168TIP3    H1 6468   2.137   6.735   5.086  0.2962 -0.3052 -0.6094
 2168TIP3    H2 6469   2.204   6.846   5.165  0.7089 -1.2331  0.3776
 2169TIP3   OH2 6470   2.554   1.264   4.583  0.3286  0.6142 -0.9328
 2169TIP3    H1 6471   2.475   1.315   4.601  0.0327 -0.0179 -0.4096
 2169TIP3    H2 6472   2.547   1.240   4.491 -1.1101 -1.1343 -0.4264
 2170TIP3   OH2 6473   2.007   0.328   2.455 -0.1786  0.0305  0.2864
 2170TIP3    H1 6474   2.050   0.372   2.529  0.2618  0.5016 -0.2450
 2170TIP3    H2 6475   1.961   0.254   2.495  1.1819 -0.5289  0.8707
 2171TIP3   OH2 6476   6.673   4.019   4.553  0.2235 -0.4578 -0.5804
 2171TIP3    H1 6477   6.754   4.021   4.502  0.6385 -0.1697  0.0753
 2171TIP3    H2 6478   6.702   4.023   4.644 -0.5149 -0.7947 -0.3247
 2172TIP3   OH2 6479   6.157   1.906   5.756  0.2985  0.0239  0.3878
 2172TIP3    H1 6480   6.197   1.822   5.780 -1.4757 -0.5424  1.5050
 2172TIP3    H2 6481   6.193   1.968   5.819  0.5627 -0.1697  0.4310
 2173TIP3   OH2 6482   1.625   4.389   3.476  0.5482 -0.1685 -0.1656
 2173TIP3    H1 6483   1.648   4.442   3.400 -0.2327 -0.4002 -0.5823
 2173TIP3    H2 6484   1.701   4.332   3.491  0.3650 -0.7379 -1.3285
 2174TIP3   OH2 6485   0.197   2.119   4.655 -0.1922 -0.7211  0.4851
 2174TIP3    H1 6486   0.237   2.090   4.573  1.3736  0.0139  0.9410
 2174TIP3    H2 6487   0.204   2.214   4.653 -1.7301 -0.5771  0.7156
 2175TIP3   OH2 6488   0.426   6.500   2.801 -0.5633  0.1085  0.6624
 2175TIP3    H1 6489   0.363   6.548   2.749 -0.4515 -0.7056 -0.2512
 2175TIP3    H2 6490   0.374   6.440   2.854 -0.5818 -0.6054 -0.1349
 2176TIP3   OH2 6491   0.370   1.522   5.442 -0.6338  0.2032 -0.0538
 2176TIP3    H1 6492   0.408   1.536   5.529 -0.6129  0.3186 -0.0821
 2176TIP3    H2 6493   0.425   1.455   5.402  0.7170  1.7240 -0.8323
 2177TIP3   OH2 6494   1.389   3.660   0.254  0.1803 -0.6058  0.4208
 2177TIP3    H1 6495   1.442   3.705   0.187  0.1179 -0.1870  0.6493
 2177TIP3    H2 6496   1.331   3.728   0.288  1.2616 -0.4178  1.9924
 2178TIP3   OH2 6497   2.185   5.302   0.328  0.0329  0.2745  0.0450
 2178TIP3    H1 6498   2.173   5.313   0.234  2.6409 -0.5174 -0.4594
 2178TIP3    H2 6499   2.248   5.370   0.352 -1.1940  0.9786  1.4082
 2179TIP3   OH2 6500   3.324   2.936   2.337 -0.0985 -0.5923  0.2627
 2179TIP3    H1 6501   3.329   2.863   2.275  2.2088 -0.3272  0.0356
 2179TIP3    H2 6502   3.244   2.982   2.314 -0.3600 -1.6994 -1.1654
 2180TIP3   OH2 6503   2.356   6.717   2.157  0.0939 -0.2210 -0.1136
 2180TIP3    H1 6504   2.397   6.701   2.072  2.8734 -1.3501  1.3045
 2180TIP3    H2 6505   2.297   6.644   2.170 -1.3882  0.6504 -1.5717
 2181TIP3   OH2 6506   4.132   3.145   3.461  0.0489  0.0941  0.8153
 2181TIP3    H1 6507   4.212   3.190   3.435 -0.1805 -0.2993 -0.6829
 2181TIP3    H2 6508   4.063   3.211   3.451  0.1214  0.2957  1.6379
 2182TIP3   OH2 6509   4.298   5.158   0.614 -0.1735 -0.6707  0.2945
 2182TIP3    H1 6510   4.330   5.070   0.592  0.2202 -1.0019  2.0117
 2182TIP3    H2 6511   4.274   5.197   0.530  1.4844 -1.7017 -0.7065
 2183TIP3   OH2 6512   0.936   6.747   1.288 -0.5107  0.7436 -0.0036
 2183TIP3    H1 6513   0.895   6.721   1.206 -0.2566 -1.1619  0.4387
 2183TIP3    H2 6514   0.871   6.730   1.355  0.5221 -1.2251  0.5729
 2184TIP3   OH2 6515   4.516   2.588   1.055  0.4154 -0.0925  0.0342
 2184TIP3    H1 6516   4.583   2.588   0.987  1.1592 -0.8280  0.7364
 2184TIP3    H2 6517   4.562   2.559   1.134 -0.5066  0.3819  0.7702
 2185TIP3   OH2 6518   6.668   0.876   0.325  0.5110  0.1246  0.0158
 2185TIP3    H1 6519   6.680   0.910   0.414 -3.1083  2.0020 -0.0070
 2185TIP3    H2 6520   6.724   0.931   0.270  2.1057 -0.4655  0.9954
 2186TIP3   OH2 6521   1.190   1.474   3.367 -0.3310 -0.2914 -0.5609
 2186TIP3    H1 6522   1.231   1.472   3.281 -0.0316  0.6968 -0.4467
 2186TIP3    H2 6523   1.106   1.430   3.355  0.9316 -2.8615 -0.6870
 2187TIP3   OH2 6524   4.326   3.232   1.326 -0.3992  0.0586 -0.2438
 2187TIP3    H1 6525   4.330   3.159   1.388  1.1132  0.4845  0.1940
 2187TIP3    H2 6526   4.236   3.230   1.293 -1.7318  0.6750  2.9837
 2188TIP3   OH2 6527   4.064   3.502   4.736  0.3899  0.9188  0.2306
 2188TIP3    H1 6528   4.125   3.443   4.691 -0.7518  0.3757 -0.6522
 2188TIP3    H2 6529   4.000   3.444   4.777  0.1583  1.4960  0.7039
 2189TIP3   OH2 6530   5.666   0.336   2.519 -0.2025  0.1154 -0.1197
 2189TIP3    H1 6531   5.633   0.340   2.609 -1.6508 -0.5102 -0.5877
 2189TIP3    H2 6532   5.588   0.335   2.465  0.6599  1.3272 -1.4543
 2190TIP3   OH2 6533   0.022   3.804   1.285  0.1279 -0.6343  0.1059
 2190TIP3    H1 6534  -0.037   3.778   1.355 -0.1221 -1.3958 -0.3730
 2190TIP3    H2 6535   0.110   3.797   1.323 -0.0621  3.3978  1.8098
 2191TIP3   OH2 6536   6.645   5.226   4.835  0.2249 -0.3074  0.6439
 2191TIP3    H1 6537   6.649   5.296   4.899  1.6089  0.1567  0.0942
 2191TIP3    H2 6538   6.714   5.165   4.861  0.3768 -0.4360 -0.0340
 2192TIP3   OH2 6539   0.731   2.387   4.311 -0.4904 -0.8077  0.4646
 2192TIP3    H1 6540   0.708   2.368   4.220  0.0632 -0.5310  0.2664
 2192TIP3    H2 6541   0.826   2.381   4.314 -0.2073  2.1562  0.3138
 2193TIP3   OH2 6542   4.169   5.800   2.119 -0.3130 -0.0675  0.3758
 2193TIP3    H1 6543   4.096   5.761   2.072  0.1639  2.4537 -2.8778
 2193TIP3    H2 6544   4.129   5.861   2.181 -0.9320 -1.5420  1.4845
 2194TIP3   OH2 6545   6.765   2.983   4.026 -0.0570  0.1891 -0.1144
 2194TIP3    H1 6546   6.810   2.944   4.101  1.8541  0.9896 -0.7590
 2194TIP3    H2 6547   6.713   3.055   4.062  0.5137  0.3000  0.4973
 2195TIP3   OH2 6548   0.776   2.900   4.009 -0.3580 -0.3354 -0.0948
 2195TIP3    H1 6549   0.866   2.866   4.016  0.4419  1.8002  0.6799
 2195TIP3    H2 6550   0.724   2.836   4.058  0.8416 -1.1907  0.1353
 2196TIP3   OH2 6551   5.248   5.317   1.292  0.4792 -0.5489  0.3652
 2196TIP3    H1 6552   5.206   5.288   1.373  0.9894 -1.7055  0.2366
 2196TIP3    H2 6553   5.179   5.309   1.226  0.3844 -0.7035  0.4822
 2197TIP3   OH2 6554   1.143   3.056   5.079 -0.1435 -0.2921 -0.0202
 2197TIP3    H1 6555   1.095   3.135   5.105  1.4552  0.6537  0.1767
 2197TIP3    H2 6556   1.210   3.087   5.018  0.5597 -1.4832  0.1194
 2198TIP3   OH2 6557   1.364   5.194   5.258 -0.1086 -0.5448 -0.5974
 2198TIP3    H1 6558   1.438   5.193   5.319  0.5132 -1.6935 -1.3507
 2198TIP3    H2 6559   1.288   5.212   5.314  0.4844 -1.2941  0.4848
 2199TIP3   OH2 6560   4.687   4.644   0.380 -0.6627  0.5237 -0.5275
 2199TIP3    H1 6561   4.609   4.658   0.326 -0.5745 -1.3580 -1.2310
 2199TIP3    H2 6562   4.740   4.582   0.329  0.2888  0.1154  0.9073
 2200TIP3   OH2 6563   0.958   1.505   0.313  0.2841 -0.7208 -0.0113
 2200TIP3    H1 6564   0.873   1.474   0.344  0.2957 -2.2427 -1.3538
 2200TIP3    H2 6565   1.019   1.483   0.383 -0.3615  0.1817  0.8658
 2201TIP3   OH2 6566   0.797   0.859   0.385 -0.5932 -0.2928 -0.1624
 2201TIP3    H1 6567   0.829   0.949   0.385 -0.7965 -0.2105  0.7888
 2201TIP3    H2 6568   0.739   0.854   0.462 -0.2956 -1.3344  0.0109
 2202TIP3   OH2 6569   4.934   0.981   4.354 -0.1443 -0.2228  0.2437
 2202TIP3    H1 6570   4.924   0.895   4.314  1.2674 -0.3105  0.0334
 2202TIP3    H2 6571   4.930   1.042   4.280 -1.0012 -0.0932  0.3776
 2203TIP3   OH2 6572   1.133   5.878   1.934  0.4097 -0.1369 -0.0889
 2203TIP3    H1 6573   1.196   5.807   1.945  1.3465  0.2081 -2.6039
 2203TIP3    H2 6574   1.179   5.943   1.880 -0.9706  1.6634  0.7982
 2204TIP3   OH2 6575   1.094   2.643   0.701  0.3343 -0.4534  0.0466
 2204TIP3    H1 6576   1.059   2.656   0.789  0.5150  0.9464 -0.0649
 2204TIP3    H2 6577   1.173   2.589   0.714  0.2151 -0.4739  0.7037
 2205TIP3   OH2 6578   0.437   3.427   2.995  0.3199 -0.3801 -0.5213
 2205TIP3    H1 6579   0.378   3.498   3.020 -0.3779 -1.6585  1.8690
 2205TIP3    H2 6580   0.514   3.471   2.958 -0.8773  1.4753 -0.9486
 2206TIP3   OH2 6581   6.147   3.000   3.590  0.8351  0.3623 -0.5420
 2206TIP3    H1 6582   6.053   2.985   3.583  0.7198  1.6416 -2.8188
 2206TIP3    H2 6583   6.156   3.094   3.608  1.7051 -0.1718  2.3935
 2207TIP3   OH2 6584   3.264   3.623   4.484  0.3096 -0.3458  0.0464
 2207TIP3    H1 6585   3.214   3.546   4.512 -0.4094  0.6880  1.7224
 2207TIP3    H2 6586   3.345   3.586   4.448 -0.2285 -1.9159  0.3469
 2208TIP3   OH2 6587   1.376   4.732   1.816 -0.6696 -0.0755  0.2923
 2208TIP3    H1 6588   1.341   4.770   1.735 -1.8870  3.3817  2.2166
 2208TIP3    H2 6589   1.463   4.770   1.825 -0.6134 -0.2936  0.7164
 2209TIP3   OH2 6590   3.668   3.129   0.186  0.2208 -0.8162  0.3861
 2209TIP3    H1 6591   3.581   3.107   0.153 -0.2305 -1.0513  1.6939
 2209TIP3    H2 6592   3.727   3.105   0.114 -0.5797 -2.9935  0.3870
 2210TIP3   OH2 6593   4.801   3.078   1.298  0.3727 -0.4457  0.2065
 2210TIP3    H1 6594   4.720   3.129   1.304  0.5732 -0.2277  1.4253
 2210TIP3    H2 6595   4.871   3.144   1.297  0.5561 -0.6400 -0.5679
 2211TIP3   OH2 6596   0.444   2.989   5.133  0.0858  0.4331  0.0242
 2211TIP3    H1 6597   0.506   2.950   5.072  1.2387 -1.1519  2.1231
 2211TIP3    H2 6598   0.441   3.081   5.108 -0.2763 -0.2908 -3.0249
 2212TIP3   OH2 6599   4.783   4.690   2.413  0.4323 -0.0114  0.7909
 2212TIP3    H1 6600   4.724   4.666   2.342 -0.3852  1.0474  1.0712
 2212TIP3    H2 6601   4.799   4.608   2.460  0.5855 -0.6267 -0.3067
 2213TIP3   OH2 6602   4.306   4.008   5.461 -0.2742 -0.1351 -0.8247
 2213TIP3    H1 6603   4.370   3.975   5.525 -2.0361 -0.9326  0.6088
 2213TIP3    H2 6604   4.338   3.974   5.377  0.5569 -1.5334  0.0022
 2214TIP3   OH2 6605   6.188   6.218   1.693  0.3040  0.3312  0.2733
 2214TIP3    H1 6606   6.231   6.274   1.629  0.5047 -0.2458 -0.1101
 2214TIP3    H2 6607   6.095   6.242   1.689  0.4997  1.1583  0.6666
 2215TIP3   OH2 6608   0.095   0.444   3.081 -0.6031 -0.0772 -0.4307
 2215TIP3    H1 6609   0.122   0.522   3.130  0.4977 -0.5406 -0.2711
 2215TIP3    H2 6610   0.043   0.394   3.144 -0.2629 -0.0669 -0.1414
 2216TIP3   OH2 6611   1.503   0.698   0.150  0.2846 -0.3883 -0.3150
 2216TIP3    H1 6612   1.532   0.731   0.235 -0.3935 -1.1440  0.2119
 2216TIP3    H2 6613   1.409   0.715   0.148 -0.2182 -2.7940  0.2307
 2217TIP3   OH2 6614   3.256   0.654   1.031  0.1006  0.0078 -0.1612
 2217TIP3    H1 6615   3.199   0.593   0.984 -1.4741  0.2536  1.3249
 2217TIP3    H2 6616   3.345   0.627   1.008 -0.5116 -3.0168  0.6418
 2218TIP3   OH2 6617   3.989   6.294   2.292  0.5812 -0.2835  0.3013
 2218TIP3    H1 6618   3.997   6.328   2.203 -1.7423  1.5342  0.6809
 2218TIP3    H2 6619   3.895   6.282   2.305  0.7107  0.6714  2.8666
 2219TIP3   OH2 6620   3.234   0.948   2.653  0.6544  0.1835  0.3932
 2219TIP3    H1 6621   3.323   0.982   2.660  0.2866  1.1416  0.5966
 2219TIP3    H2 6622   3.229   0.880   2.720  1.0710  0.4861  0.7375
 2220TIP3   OH2 6623   4.493   1.650   3.305  0.3343 -0.1115  0.5593
 2220TIP3    H1 6624   4.510   1.580   3.368 -0.3893 -0.4684  0.3724
 2220TIP3    H2 6625   4.515   1.613   3.220 -0.8866 -0.4264  0.3645
 2221TIP3   OH2 6626   2.960   5.071   1.076 -0.0425  0.3421  0.1797
 2221TIP3    H1 6627   2.870   5.066   1.043 -0.2856 -0.5728  0.9043
 2221TIP3    H2 6628   2.984   5.163   1.069 -1.0315  0.5920 -0.0551
 2222TIP3   OH2 6629   5.300   4.195   3.665 -0.6552 -0.1176  0.3395
 2222TIP3    H1 6630   5.297   4.208   3.760  0.2742  1.1374  0.2115
 2222TIP3    H2 6631   5.381   4.237   3.637 -1.0196 -0.2934 -1.0516
 2223TIP3   OH2 6632   0.417   5.531   1.164 -0.6832 -0.5137  0.0871
 2223TIP3    H1 6633   0.463   5.455   1.199  0.4859  1.1577  2.4903
 2223TIP3    H2 6634   0.339   5.539   1.219 -0.6816  0.1063  0.0092
 2224TIP3   OH2 6635   5.781   0.476   4.094  0.1621  0.1615 -0.2363
 2224TIP3    H1 6636   5.866   0.459   4.134  0.9863  1.2675 -1.4444
 2224TIP3    H2 6637   5.764   0.399   4.039  1.4196  0.8380 -1.6419
 2225TIP3   OH2 6638   5.805   2.283   4.661  0.5787  0.4059  0.3843
 2225TIP3    H1 6639   5.717   2.310   4.687  0.0297  1.1085 -1.9485
 2225TIP3    H2 6640   5.795   2.193   4.631  0.6407  0.4652  0.1776
 2226TIP3   OH2 6641   6.382   0.747   3.662 -0.4626  0.8694 -0.0097
 2226TIP3    H1 6642   6.365   0.840   3.674 -1.4844  0.5567  1.2675
 2226TIP3    H2 6643   6.295   0.707   3.655 -0.0902  0.3405 -4.0375
 2227TIP3   OH2 6644   5.119   0.514   0.409 -0.1975 -0.4461  0.0008
 2227TIP3    H1 6645   5.122   0.455   0.334  1.3790  0.6342 -0.8618
 2227TIP3    H2 6646   5.106   0.601   0.370 -2.5700 -0.1539  1.2272
 2228TIP3   OH2 6647   4.025   3.455   1.180  0.3636 -0.9930  0.1096
 2228TIP3    H1 6648   3.978   3.512   1.241  0.5345 -0.4376 -0.2695
 2228TIP3    H2 6649   4.020   3.368   1.219 -0.3694 -0.8126  0.4230
 2229TIP3   OH2 6650   2.323   2.076   4.661  0.7253  0.5067 -0.4380
 2229TIP3    H1 6651   2.307   2.041   4.748  1.4935 -1.2650 -0.9596
 2229TIP3    H2 6652   2.280   2.161   4.661 -3.3231 -1.3160  0.2098
 2230TIP3   OH2 6653   6.846   0.301   5.837  0.9748 -0.0983 -0.4911
 2230TIP3    H1 6654   6.934   0.321   5.870  1.6301 -1.6298 -1.2314
 2230TIP3    H2 6655   6.861   0.240   5.764 -0.6685  0.1234 -1.0520
 2231TIP3   OH2 6656   1.211   3.767   5.166  0.0054  0.0119  0.1907
 2231TIP3    H1 6657   1.239   3.789   5.077  0.4686  1.5672  0.6768
 2231TIP3    H2 6658   1.290   3.777   5.219 -0.4008 -0.3055  0.8617
 2232TIP3   OH2 6659   4.534   5.005   5.418 -0.0357 -0.2955  0.4548
 2232TIP3    H1 6660   4.468   5.068   5.389  0.1804 -0.2688  0.0013
 2232TIP3    H2 6661   4.557   4.957   5.338 -1.8746 -2.5561  1.2032
 2233TIP3   OH2 6662   3.053   6.258   4.152 -0.0907 -0.6455  0.5674
 2233TIP3    H1 6663   2.978   6.316   4.165  0.4018  0.1141  0.0709
 2233TIP3    H2 6664   3.014   6.171   4.140 -0.9288 -0.1848 -0.1791
 2234TIP3   OH2 6665   0.865   1.759   1.553  1.1173  0.0570  0.1633
 2234TIP3    H1 6666   0.770   1.763   1.540  1.1448  1.9595  0.2830
 2234TIP3    H2 6667   0.882   1.818   1.626  2.4263 -0.0245 -0.0473
 2235TIP3   OH2 6668   2.614   5.244   0.448  0.4292  0.0733 -0.0686
 2235TIP3    H1 6669   2.537   5.194   0.421  0.0675 -0.0071  1.0407
 2235TIP3    H2 6670   2.658   5.267   0.366 -0.2260 -0.7436 -0.6674
 2236TIP3   OH2 6671   1.572   2.922   4.245 -0.4912 -0.0257  0.0198
 2236TIP3    H1 6672   1.477   2.928   4.238 -0.5683 -0.8980  0.2069
 2236TIP3    H2 6673   1.587   2.890   4.334  0.0141  0.8034  0.2423
 2237TIP3   OH2 6674   2.159   6.155   3.952 -0.4294 -0.1342  0.0399
 2237TIP3    H1 6675   2.180   6.067   3.985  1.1018 -0.2773 -1.1669
 2237TIP3    H2 6676   2.084   6.183   4.004  1.2885 -0.6492  3.0446
 2238TIP3   OH2 6677   1.482   1.094   4.952  0.1512  0.1360 -0.1030
 2238TIP3    H1 6678   1.405   1.151   4.951  0.2390  0.2463 -0.7196
 2238TIP3    H2 6679   1.516   1.096   4.863  0.5341 -0.3755  0.0202
 2239TIP3   OH2 6680   2.231   1.427   1.549 -0.3894 -0.2064  0.0198
 2239TIP3    H1 6681   2.199   1.463   1.467 -0.0593  1.1886  0.4703
 2239TIP3    H2 6682   2.152   1.398   1.595 -0.6488 -0.2128 -0.4255
 2240TIP3   OH2 6683   5.390   5.621   5.382 -0.3198  0.2146 -1.0176
 2240TIP3    H1 6684   5.346   5.706   5.382 -0.5626  0.0927 -0.2483
 2240TIP3    H2 6685   5.358   5.576   5.460  2.2433  0.6920  0.4284
 2241TIP3   OH2 6686   1.898   4.121   0.478 -0.1462  0.3841 -0.0857
 2241TIP3    H1 6687   1.865   4.190   0.420 -0.2883  0.0626 -0.3849
 2241TIP3    H2 6688   1.980   4.157   0.513  1.1998 -0.3664 -2.3111
 2242TIP3   OH2 6689   1.579   0.365   0.453 -0.3378 -0.0453 -0.1793
 2242TIP3    H1 6690   1.563   0.311   0.376  0.4337  0.3114 -0.6018
 2242TIP3    H2 6691   1.496   0.410   0.468 -0.7667 -0.8058 -0.2496
 2243TIP3   OH2 6692   3.071   6.288   1.663 -0.4994  0.2416  0.0345
 2243TIP3    H1 6693   3.032   6.344   1.731 -0.6127  1.0550 -0.6874
 2243TIP3    H2 6694   3.154   6.261   1.701 -1.3407 -0.8112  1.2402
 2244TIP3   OH2 6695   4.024   4.249   1.610 -0.0615 -0.0437  0.1156
 2244TIP3    H1 6696   3.953   4.304   1.578  0.2981  1.9071  2.4105
 2244TIP3    H2 6697   3.983   4.194   1.678 -0.3013 -2.3561 -1.7762
 2245TIP3   OH2 6698   3.980   6.351   2.008 -0.8579 -0.1958  0.1161
 2245TIP3    H1 6699   4.031   6.385   1.934 -2.3374 -1.9922 -1.8623
 2245TIP3    H2 6700   3.927   6.425   2.037 -1.2614  0.2254 -1.5836
 2246TIP3   OH2 6701   1.349   0.255   5.435 -0.4613 -0.6410  0.4541
 2246TIP3    H1 6702   1.409   0.318   5.474 -2.5430 -0.0461  2.9647
 2246TIP3    H2 6703   1.396   0.221   5.358  2.7453  0.2253  1.8817
 2247TIP3   OH2 6704   5.963   1.058   2.953 -0.5260  0.3239  0.7870
 2247TIP3    H1 6705   5.947   0.980   2.901  0.5172 -0.1894  1.2050
 2247TIP3    H2 6706   5.927   1.130   2.901 -1.2556 -0.4044  0.2758
 2248TIP3   OH2 6707   2.313   1.517   5.663 -0.3420  0.1000  0.1503
 2248TIP3    H1 6708   2.312   1.534   5.757  0.6976 -3.2708  0.9141
 2248TIP3    H2 6709   2.406   1.513   5.640 -0.4380 -2.7135 -0.1253
 2249TIP3   OH2 6710   6.131   2.071  -0.004  0.4687 -0.2966  0.3737
 2249TIP3    H1 6711   6.112   2.041   0.085  1.4462 -1.3198  0.2605
 2249TIP3    H2 6712   6.204   2.132   0.007  0.7932 -0.6567  0.2584
 2250TIP3   OH2 6713   4.234   4.368   3.090 -0.5437  0.1930 -0.5898
 2250TIP3    H1 6714   4.190   4.451   3.110  2.9335  1.5788  2.5981
 2250TIP3    H2 6715   4.197   4.305   3.152  0.0417  0.6532  0.2453
 2251TIP3   OH2 6716   3.108   2.874   3.486 -0.6725 -0.0630 -0.7044
 2251TIP3    H1 6717   3.145   2.959   3.464 -2.6834  1.1111  0.1751
 2251TIP3    H2 6718   3.069   2.886   3.573  0.1991 -2.3012  0.0674
 2252TIP3   OH2 6719   5.606   3.398   4.990  0.1755 -0.4667 -0.0537
 2252TIP3    H1 6720   5.634   3.342   4.917  0.5672  1.3871 -1.3921
 2252TIP3    H2 6721   5.592   3.337   5.063  1.6606 -2.1720 -1.1077
 2253TIP3   OH2 6722   6.310   1.031   1.146 -0.1180 -0.7636  0.0049
 2253TIP3    H1 6723   6.296   0.956   1.089  1.3577 -1.3061  0.3045
 2253TIP3    H2 6724   6.394   1.067   1.118  0.6329 -1.0112  1.7548
 2254TIP3   OH2 6725   0.241   6.046   1.910 -0.5206  0.3658  0.5423
 2254TIP3    H1 6726   0.230   6.041   2.005  0.6464  1.3801  0.7557
 2254TIP3    H2 6727   0.275   5.959   1.886  1.6504  0.9103  1.4536
 2255TIP3   OH2 6728   3.078   3.619   0.436 -0.0251 -0.2872  0.0628
 2255TIP3    H1 6729   3.024   3.554   0.482  0.4260 -0.2532  0.6559
 2255TIP3    H2 6730   3.168   3.599   0.462  0.3221 -0.7042 -1.3769
 2256TIP3   OH2 6731   2.005   0.841   2.831  0.5606  0.0094  0.1937
 2256TIP3    H1 6732   2.101   0.835   2.838  0.7903 -1.0926 -2.6392
 2256TIP3    H2 6733   1.976   0.750   2.831 -0.4715  0.3319  0.7735
 2257TIP3   OH2 6734   5.554   1.402   1.812  0.9264  0.6466  0.2209
 2257TIP3    H1 6735   5.460   1.411   1.795  0.4582  0.7311  2.5554
 2257TIP3    H2 6736   5.591   1.380   1.727 -1.1278  1.1247 -0.8765
 2258TIP3   OH2 6737   0.758   5.415   5.792 -0.2118 -0.2454 -0.3180
 2258TIP3    H1 6738   0.819   5.488   5.784  0.6012 -0.9932 -1.1464
 2258TIP3    H2 6739   0.797   5.345   5.739  0.0986 -2.0000  2.0586
 2259TIP3   OH2 6740   5.928   4.540   0.343 -0.1195  0.0735  0.3709
 2259TIP3    H1 6741   5.927   4.577   0.255  0.1399  1.5377  0.9579
 2259TIP3    H2 6742   5.976   4.458   0.334  2.6268  1.6491 -0.3380
 2260TIP3   OH2 6743   1.962   5.131   0.857  0.0260  0.2757  0.6191
 2260TIP3    H1 6744   1.919   5.207   0.897 -1.0537 -0.8577  1.7436
 2260TIP3    H2 6745   1.957   5.147   0.763 -0.0717  1.6336  0.8289
 2261TIP3   OH2 6746   0.337   5.376   0.668  0.8225 -0.7305 -0.1943
 2261TIP3    H1 6747   0.345   5.467   0.638 -1.6162 -0.1861  0.5133
 2261TIP3    H2 6748   0.338   5.383   0.764  1.3423 -1.5578 -0.1347
 2262TIP3   OH2 6749   0.557   1.357   4.127  0.4231  0.1643 -0.6086
 2262TIP3    H1 6750   0.497   1.292   4.164 -0.5094  1.2738 -0.1164
 2262TIP3    H2 6751   0.643   1.315   4.131  0.1615 -0.2785  1.5995
 2263TIP3   OH2 6752   5.062   4.733   4.836 -0.3599  0.0433  0.1246
 2263TIP3    H1 6753   5.014   4.715   4.755 -1.5204 -0.5999  0.9231
 2263TIP3    H2 6754   5.151   4.701   4.818 -0.5080  0.2043 -0.9936
 2264TIP3   OH2 6755   5.551   6.127   3.622  0.4276 -0.3917  0.5585
 2264TIP3    H1 6756   5.508   6.210   3.602  1.5857 -0.0554 -0.6964
 2264TIP3    H2 6757   5.580   6.136   3.713  0.1482  0.4102  0.5770
 2265TIP3   OH2 6758   3.352   4.511   1.523 -0.0256 -0.3810 -0.2160
 2265TIP3    H1 6759   3.320   4.564   1.596  1.1785 -0.6829  0.5489
 2265TIP3    H2 6760   3.447   4.515   1.530  0.1179 -0.4132 -1.7832
 2266TIP3   OH2 6761   3.028   5.730   2.934  0.4429 -0.0227  0.3634
 2266TIP3    H1 6762   3.075   5.740   3.016  1.8738  0.0057 -0.4321
 2266TIP3    H2 6763   3.041   5.639   2.909  1.8181  0.4709 -0.8563
 2267TIP3   OH2 6764   7.201   1.299   2.823  0.5226  0.2388 -0.4120
 2267TIP3    H1 6765   7.197   1.334   2.912  0.8574  0.5888 -0.5274
 2267TIP3    H2 6766   7.139   1.352   2.773 -1.0932 -1.1900 -0.0059
 2268TIP3   OH2 6767   5.258   6.312   4.171 -0.6069 -0.1132  0.1656
 2268TIP3    H1 6768   5.249   6.236   4.229  1.4191 -1.3093 -0.9832
 2268TIP3    H2 6769   5.203   6.291   4.096 -0.8419  0.0269  0.2980
 2269TIP3   OH2 6770   3.672   2.804   5.673 -0.5639 -0.6353 -0.1075
 2269TIP3    H1 6771   3.639   2.719   5.700 -0.2522 -0.3326  1.3127
 2269TIP3    H2 6772   3.745   2.822   5.733  1.0603 -0.5032 -2.0245
 2270TIP3   OH2 6773   6.390   0.085   5.606 -0.1992 -0.0791 -0.1176
 2270TIP3    H1 6774   6.384   0.179   5.623  0.4623  0.2386 -1.5446
 2270TIP3    H2 6775   6.434   0.050   5.684  0.3541  0.9248  0.0461
 2271TIP3   OH2 6776   6.274   0.195   2.956 -0.3341  0.1585 -0.4696
 2271TIP3    H1 6777   6.243   0.154   2.875 -0.8416 -1.3567  0.4568
 2271TIP3    H2 6778   6.229   0.279   2.958 -1.2819 -0.3101 -1.1452
 2272TIP3   OH2 6779   5.987   1.701   3.481 -0.3618  0.6711 -0.2399
 2272TIP3    H1 6780   6.071   1.696   3.435  0.0641  1.6550  0.3919
 2272TIP3    H2 6781   6.003   1.655   3.564 -0.9658 -0.6286 -0.8219
 2273TIP3   OH2 6782   2.187   4.787   3.314  0.2948  0.3312 -0.1561
 2273TIP3    H1 6783   2.146   4.700   3.310 -0.7942  0.6885  1.7931
 2273TIP3    H2 6784   2.116   4.845   3.343  1.5155  1.4747  0.6230
 2274TIP3   OH2 6785   0.172   4.541   3.758  0.0322  0.0202  0.5680
 2274TIP3    H1 6786   0.079   4.537   3.782  0.0184  1.4482  0.8634
 2274TIP3    H2 6787   0.174   4.517   3.665 -0.8224  1.2484  0.2067
 2275TIP3   OH2 6788   1.443   6.412   3.639 -0.0023 -0.1772  0.7159
 2275TIP3    H1 6789   1.508   6.420   3.569  0.1077  0.1267  0.8495
 2275TIP3    H2 6790   1.367   6.372   3.597  0.5671 -1.3440  0.7528
 2276TIP3   OH2 6791   6.461   6.330   5.606  0.3447  0.4277 -0.0175
 2276TIP3    H1 6792   6.479   6.289   5.690 -0.2267  0.1079 -0.0467
 2276TIP3    H2 6793   6.547   6.340   5.564  0.7204  1.3207  0.9362
 2277TIP3   OH2 6794   1.564   3.577   4.063  0.3877 -0.0051  0.5349
 2277TIP3    H1 6795   1.576   3.616   4.150  0.4651 -1.6918  1.3039
 2277TIP3    H2 6796   1.470   3.559   4.057  0.2063  1.0780 -0.1837
 2278TIP3   OH2 6797   0.081   3.434   0.783 -0.0596 -0.2455 -0.3843
 2278TIP3    H1 6798   0.011   3.406   0.725 -2.6771  1.6194  1.6031
 2278TIP3    H2 6799   0.076   3.374   0.858  0.3341  0.0192 -0.1413
 2279TIP3   OH2 6800   3.604   3.652   5.761 -0.3625  0.7054  0.0639
 2279TIP3    H1 6801   3.655   3.716   5.712 -0.5876  1.0348  0.2579
 2279TIP3    H2 6802   3.562   3.598   5.694  2.4042 -1.3673 -0.1528
 2280TIP3   OH2 6803   4.068   1.155   0.955 -0.4079 -0.2696  0.2047
 2280TIP3    H1 6804   4.115   1.223   0.907 -0.1170 -1.1149 -0.7356
 2280TIP3    H2 6805   4.117   1.075   0.938 -1.4146 -0.9301  0.3274
 2281TIP3   OH2 6806   0.402   5.846   3.097 -0.3319 -0.0876 -0.1541
 2281TIP3    H1 6807   0.381   5.779   3.033 -2.1184 -0.5577  0.8684
 2281TIP3    H2 6808   0.495   5.865   3.082 -0.1611 -1.7232 -1.4195
 2282TIP3   OH2 6809   6.337   0.517   1.337 -0.2344  0.7502  0.8293
 2282TIP3    H1 6810   6.309   0.607   1.352 -2.0081  0.0722  1.9798
 2282TIP3    H2 6811   6.334   0.476   1.424 -0.4819 -0.6820  0.1852
 2283TIP3   OH2 6812   0.157   1.499   2.030  0.1402  0.0626 -0.2737
 2283TIP3    H1 6813   0.149   1.409   1.998 -3.0186 -0.3073  1.1126
 2283TIP3    H2 6814   0.206   1.545   1.962  2.6541 -2.8398 -0.6250
 2284TIP3   OH2 6815   4.465   1.690   2.690 -0.2492  0.5260 -0.4002
 2284TIP3    H1 6816   4.383   1.726   2.655 -1.7461 -1.2912  0.9964
 2284TIP3    H2 6817   4.487   1.747   2.764 -0.3154  0.9527 -0.7080
 2285TIP3   OH2 6818   0.744   3.156   4.265  0.0250 -0.0730  0.2165
 2285TIP3    H1 6819   0.708   3.085   4.212  1.7544 -1.6151  0.9984
 2285TIP3    H2 6820   0.723   3.131   4.355  3.2512 -1.3114  0.7658
 2286TIP3   OH2 6821   4.848   1.203   0.903  0.2183 -0.2962 -0.2423
 2286TIP3    H1 6822   4.853   1.132   0.840 -0.6797 -1.6317  1.1293
 2286TIP3    H2 6823   4.936   1.209   0.940  0.1544 -1.1704  0.0889
 2287TIP3   OH2 6824   5.431   6.717   0.860 -0.9756 -0.3768 -0.0072
 2287TIP3    H1 6825   5.383   6.638   0.836 -0.3459 -1.0092  0.7497
 2287TIP3    H2 6826   5.372   6.789   0.838 -1.7087 -1.0714 -0.3568
 2288TIP3   OH2 6827   7.134   1.995   3.370 -0.5133  0.1067  0.4567
 2288TIP3    H1 6828   7.100   2.085   3.371  0.0859  0.6743 -4.5672
 2288TIP3    H2 6829   7.206   1.998   3.307 -1.3212 -4.1090 -0.9508
 2289TIP3   OH2 6830   7.144   2.039   1.505  0.2191  0.3992  0.1908
 2289TIP3    H1 6831   7.062   2.003   1.470 -2.0072  0.8936  4.1592
 2289TIP3    H2 6832   7.141   2.131   1.482  0.8139  0.0438 -1.4533
 2290TIP3   OH2 6833   2.490   4.140   1.352  0.0009  0.3893 -0.6823
 2290TIP3    H1 6834   2.570   4.192   1.347  0.6861 -0.7622 -4.4337
 2290TIP3    H2 6835   2.419   4.204   1.342  0.6547  0.9958 -1.5494
 2291TIP3   OH2 6836   1.851   3.900   1.897 -0.3155 -0.3207  0.4106
 2291TIP3    H1 6837   1.938   3.934   1.915 -0.3828 -0.0110  0.1700
 2291TIP3    H2 6838   1.852   3.810   1.929 -1.1558  0.8340  4.1834
 2292TIP3   OH2 6839   2.063   1.086   2.132  0.1530  0.0524 -0.0251
 2292TIP3    H1 6840   1.977   1.043   2.125  0.3123 -0.0992 -1.2486
 2292TIP3    H2 6841   2.085   1.079   2.225 -0.9635 -0.2880  0.2359
 2293TIP3   OH2 6842   4.806   3.707   4.352 -0.2172 -0.4365 -0.4197
 2293TIP3    H1 6843   4.748   3.645   4.307  0.3155 -0.4834 -1.0600
 2293TIP3    H2 6844   4.767   3.792   4.335 -0.4422 -0.5183 -0.3192
 2294TIP3   OH2 6845   3.731   6.017   2.960 -0.1938  0.0110 -0.0001
 2294TIP3    H1 6846   3.800   6.022   3.027  0.3809  1.0132 -0.6488
 2294TIP3    H2 6847   3.706   5.924   2.959  3.0071 -1.0050 -1.6003
 2295TIP3   OH2 6848   7.034   2.142   2.153  0.2054 -0.0762 -0.3122
 2295TIP3    H1 6849   7.111   2.109   2.107  0.3023 -1.3065  0.6741
 2295TIP3    H2 6850   7.066   2.219   2.201  1.3607 -1.6913  1.6470
 2296TIP3   OH2 6851   3.321   2.416   5.646 -0.3087 -0.9545  0.9844
 2296TIP3    H1 6852   3.240   2.436   5.599 -1.0475 -3.8414  0.8447
 2296TIP3    H2 6853   3.381   2.486   5.619 -1.8301 -0.3972 -1.3206
 2297TIP3   OH2 6854   2.334   2.795   2.678 -0.3785 -0.1021  0.5631
 2297TIP3    H1 6855   2.381   2.730   2.627  0.0848 -0.7477  1.7817
 2297TIP3    H2 6856   2.401   2.842   2.726 -0.6216  1.8813 -0.9020
 2298TIP3   OH2 6857   6.133   5.405   1.670 -0.4057 -0.0113 -0.1679
 2298TIP3    H1 6858   6.097   5.321   1.699  0.1232 -0.7833 -1.6382
 2298TIP3    H2 6859   6.225   5.401   1.695 -0.8477  1.1675  1.8828
 2299TIP3   OH2 6860   3.613   1.174   4.609 -0.8189 -0.1240 -0.3568
 2299TIP3    H1 6861   3.619   1.136   4.522  1.3549 -1.8604  0.4276
 2299TIP3    H2 6862   3.605   1.098   4.667  0.2033  0.8138  1.0825
 2300TIP3   OH2 6863   3.913   0.148   4.694  0.2632  0.0864  0.3044
 2300TIP3    H1 6864   4.004   0.123   4.680  0.2461  0.7841 -1.2349
 2300TIP3    H2 6865   3.862   0.083   4.647 -0.0581 -0.3924  1.2928
 2301TIP3   OH2 6866   7.068   4.037   3.348 -0.2653 -0.0738 -0.5067
 2301TIP3    H1 6867   7.125   3.961   3.360  0.9849  0.9734  0.4791
 2301TIP3    H2 6868   7.110   4.086   3.277 -0.8348 -0.0717 -0.8495
 2302TIP3   OH2 6869   6.453   5.193   3.211 -0.2138 -0.2294  0.1836
 2302TIP3    H1 6870   6.369   5.149   3.225 -1.3265  1.4488 -0.9167
 2302TIP3    H2 6871   6.504   5.171   3.289 -2.3868  0.2794  1.8645
 2303TIP3   OH2 6872   1.781   3.968   0.681 -0.6567  0.4822  0.3803
 2303TIP3    H1 6873   1.697   3.980   0.725 -0.7198 -0.9587  0.6960
 2303TIP3    H2 6874   1.784   4.039   0.616 -2.7124 -0.1912 -0.5421
 2304TIP3   OH2 6875   1.751   1.042   1.630 -0.1470  0.3208  0.8496
 2304TIP3    H1 6876   1.776   0.958   1.592 -0.3804  0.3299  0.6726
 2304TIP3    H2 6877   1.831   1.095   1.628  0.3425 -0.3226  2.1356
 2305TIP3   OH2 6878   6.175   2.170   4.311  0.3076 -0.9536  0.0787
 2305TIP3    H1 6879   6.136   2.257   4.312  0.8376 -0.7119  0.9325
 2305TIP3    H2 6880   6.190   2.149   4.403  0.7501 -1.6917 -0.1478
 2306TIP3   OH2 6881   0.293   4.433   5.764  0.3252 -0.1309 -0.1196
 2306TIP3    H1 6882   0.233   4.396   5.700  0.3172  1.4930 -1.0964
 2306TIP3    H2 6883   0.368   4.464   5.713 -0.9909  3.9579  0.1219
 2307TIP3   OH2 6884   5.177   3.119   5.825 -0.4188 -0.7738 -0.0465
 2307TIP3    H1 6885   5.082   3.115   5.840 -0.7236 -1.7521 -1.9711
 2307TIP3    H2 6886   5.191   3.200   5.777 -0.4864 -1.2772 -0.9361
 2308TIP3   OH2 6887   6.910   1.968   2.922  0.4189  0.0765 -0.2578
 2308TIP3    H1 6888   6.891   2.000   2.833 -3.4627 -2.3437 -0.5443
 2308TIP3    H2 6889   6.981   1.905   2.910 -0.9237 -1.2343 -2.0287
 2309TIP3   OH2 6890   1.125   3.816   3.013  0.0138  0.9037  0.0632
 2309TIP3    H1 6891   1.211   3.859   3.010  0.3619  0.4296  2.0801
 2309TIP3    H2 6892   1.120   3.768   2.930  1.3370  1.5870 -0.4536
 2310TIP3   OH2 6893   3.717   1.250   0.789  0.4055  0.3911 -0.0906
 2310TIP3    H1 6894   3.662   1.287   0.858  0.8325  0.1365  0.3962
 2310TIP3    H2 6895   3.738   1.162   0.820 -1.1490 -0.5429 -1.5305
 2311TIP3   OH2 6896   5.201   4.982   1.225 -0.1580  0.3392  0.5129
 2311TIP3    H1 6897   5.268   4.933   1.273  1.4391 -0.6384 -2.4500
 2311TIP3    H2 6898   5.250   5.032   1.160 -1.9916  3.7445  1.4995
 2312TIP3   OH2 6899   0.839   1.631   2.694  0.0003 -0.1030  0.2597
 2312TIP3    H1 6900   0.824   1.549   2.741  1.1484 -0.0828  0.6884
 2312TIP3    H2 6901   0.759   1.682   2.710 -0.5402 -0.9485  0.3569
 2313TIP3   OH2 6902   4.444   5.268   0.239  0.7064 -0.1653  0.2346
 2313TIP3    H1 6903   4.529   5.306   0.216  0.3560 -0.3940 -1.5649
 2313TIP3    H2 6904   4.462   5.174   0.248  0.8383 -0.0793  0.9258
 2314TIP3   OH2 6905   1.602   2.352   2.845  0.4917  0.2391 -0.1193
 2314TIP3    H1 6906   1.647   2.269   2.828 -0.0746  0.0868 -0.9456
 2314TIP3    H2 6907   1.551   2.368   2.766  1.8291  2.2213 -0.6452
 2315TIP3   OH2 6908   4.328   2.022   1.985 -0.3215  0.4979 -0.3011
 2315TIP3    H1 6909   4.399   1.960   1.969 -1.1227 -0.6110  0.2824
 2315TIP3    H2 6910   4.279   2.025   1.903 -1.4644 -1.2584  0.2621
 2316TIP3   OH2 6911   3.480   5.032   4.225 -0.0161 -0.0529  0.2968
 2316TIP3    H1 6912   3.405   5.072   4.182 -0.0991  1.8188  2.0385
 2316TIP3    H2 6913   3.449   5.010   4.312  1.0985 -0.4694  0.6110
 2317TIP3   OH2 6914   2.662   0.611   3.059 -0.2101 -0.3765 -0.3204
 2317TIP3    H1 6915   2.591   0.634   3.000 -0.7546 -0.8507  0.1386
 2317TIP3    H2 6916   2.619   0.567   3.133  0.6208 -1.2349 -0.3264
 2318TIP3   OH2 6917   6.599   4.760   2.367  0.5342  0.5593  0.1122
 2318TIP3    H1 6918   6.686   4.739   2.400 -0.2318 -0.9552  1.2831
 2318TIP3    H2 6919   6.608   4.760   2.272  1.6652 -0.2579  0.2079
 2319TIP3   OH2 6920   2.003   1.699   4.644  0.1068 -0.2012  0.5589
 2319TIP3    H1 6921   2.074   1.760   4.627 -0.6453  0.7292  0.7065
 2319TIP3    H2 6922   2.007   1.683   4.738 -0.4365  0.5777  0.7265
 2320TIP3   OH2 6923   3.906   0.992   2.302  0.0565  0.2284  0.3059
 2320TIP3    H1 6924   3.876   0.919   2.248 -1.2047 -0.3150  1.6516
 2320TIP3    H2 6925   3.995   1.009   2.273  0.1049 -1.3421 -0.5599
 2321TIP3   OH2 6926   6.441   1.890   1.613  0.5358  0.6732 -0.2999
 2321TIP3    H1 6927   6.532   1.922   1.616  0.9430 -0.4829  1.4266
 2321TIP3    H2 6928   6.450   1.794   1.618 -0.7758  0.5795  0.7535
 2322TIP3   OH2 6929   3.569   3.252   5.676  0.6404  0.1364  0.4021
 2322TIP3    H1 6930   3.642   3.251   5.614 -0.0788  0.4151 -0.4545
 2322TIP3    H2 6931   3.535   3.163   5.675  2.4253 -0.6725  2.5972
 2323TIP3   OH2 6932   2.578   6.617   0.024 -0.8959 -0.6321 -0.3294
 2323TIP3    H1 6933   2.498   6.621  -0.028 -1.1966 -1.1379  0.0788
 2323TIP3    H2 6934   2.548   6.596   0.113 -0.2777 -1.4687 -0.2966
 2324TIP3   OH2 6935   6.207   3.285   4.982 -0.0319 -0.7693 -0.7945
 2324TIP3    H1 6936   6.286   3.301   5.035  0.2807 -0.8199 -1.2393
 2324TIP3    H2 6937   6.206   3.190   4.970 -1.1373 -0.9868  0.6936
 2325TIP3   OH2 6938   4.781   2.632   4.584 -0.3451 -0.3063 -0.1340
 2325TIP3    H1 6939   4.696   2.635   4.540  0.4902 -2.7707 -2.1323
 2325TIP3    H2 6940   4.824   2.714   4.559 -2.2015  1.2272  1.3284
 2326TIP3   OH2 6941   0.335   3.291   3.215 -0.3754  0.0152  0.3248
 2326TIP3    H1 6942   0.348   3.317   3.124  1.6693 -0.9928  0.2527
 2326TIP3    H2 6943   0.301   3.369   3.258 -0.5559  0.7701 -1.1297
 2327TIP3   OH2 6944   1.924   4.551   0.522 -0.0808 -0.2909 -0.3079
 2327TIP3    H1 6945   2.005   4.510   0.493 -0.8914 -0.7975 -2.0351
 2327TIP3    H2 6946   1.946   4.643   0.533  1.0572 -0.6623  0.6895
 2328TIP3   OH2 6947   5.785   6.504   1.935 -0.0871  0.9496 -0.1499
 2328TIP3    H1 6948   5.821   6.489   2.022 -0.3653 -0.9916 -0.3267
 2328TIP3    H2 6949   5.804   6.596   1.917  0.3398  1.2819  1.7743
 2329TIP3   OH2 6950   3.235   0.898   1.876  0.1029 -0.4594  0.3777
 2329TIP3    H1 6951   3.236   0.993   1.869  2.7809 -0.4408  0.2073
 2329TIP3    H2 6952   3.217   0.881   1.968  0.1571  0.2151  0.5177
 2330TIP3   OH2 6953   2.088   5.608   3.948  0.6943 -0.0004  0.2471
 2330TIP3    H1 6954   2.009   5.555   3.956  0.6670 -0.2420 -1.3613
 2330TIP3    H2 6955   2.157   5.547   3.923  1.6332  0.0634  2.4277
 2331TIP3   OH2 6956   3.411   3.991   2.299 -0.1673 -0.3398  0.1319
 2331TIP3    H1 6957   3.332   3.948   2.266  0.6739 -0.6892 -1.5734
 2331TIP3    H2 6958   3.463   3.920   2.336  1.0087 -0.8049 -2.2492
 2332TIP3   OH2 6959   6.877   6.165   0.606  0.2034  0.1205  0.3649
 2332TIP3    H1 6960   6.852   6.217   0.683  0.2713  0.1041  0.3972
 2332TIP3    H2 6961   6.931   6.225   0.554  0.3314  0.0629  0.4310
 2333TIP3   OH2 6962   5.490   5.403   1.378 -0.2686 -0.4771 -0.3800
 2333TIP3    H1 6963   5.476   5.388   1.471 -1.6928  1.9942 -0.1090
 2333TIP3    H2 6964   5.410   5.371   1.336 -1.8195  2.7057 -0.1405
 2334TIP3   OH2 6965   1.528   3.345   2.872  0.0841  0.1698 -0.2352
 2334TIP3    H1 6966   1.504   3.432   2.903  0.0170  0.4764 -1.1366
 2334TIP3    H2 6967   1.446   3.306   2.843  0.3885  0.5538 -1.6646
 2335TIP3   OH2 6968   2.339   5.371   0.942  0.0712 -0.1986 -0.2131
 2335TIP3    H1 6969   2.419   5.330   0.974 -0.8526 -1.3911  0.7069
 2335TIP3    H2 6970   2.350   5.464   0.959  1.3507 -0.3220 -0.3298
 2336TIP3   OH2 6971   2.025   0.318   1.472 -0.2758 -0.5638 -0.2374
 2336TIP3    H1 6972   2.066   0.374   1.538 -2.8832  0.8641  0.2879
 2336TIP3    H2 6973   2.000   0.378   1.402  1.1527 -1.8556 -1.9475
 2337TIP3   OH2 6974   3.050   6.377   2.210  0.6115 -0.0055  0.0897
 2337TIP3    H1 6975   3.030   6.324   2.287  2.2069  1.0850  1.3237
 2337TIP3    H2 6976   3.113   6.325   2.161 -2.5363 -2.0270 -2.1459
 2338TIP3   OH2 6977   0.428   1.602   3.521 -0.7962 -0.5254  0.5711
 2338TIP3    H1 6978   0.356   1.648   3.565 -1.0215 -0.2623 -0.0655
 2338TIP3    H2 6979   0.406   1.509   3.530 -2.8707 -0.4506 -2.2583
 2339TIP3   OH2 6980   1.082   2.704   5.514 -0.4153 -0.0387 -0.4605
 2339TIP3    H1 6981   1.175   2.720   5.498 -0.3975 -0.0077 -0.3301
 2339TIP3    H2 6982   1.039   2.734   5.434 -0.3271  0.0916 -0.4605
 2340TIP3   OH2 6983   2.914   2.979   0.604  0.0077 -0.1040 -0.1517
 2340TIP3    H1 6984   2.894   3.015   0.518 -0.4221  2.5182  0.9373
 2340TIP3    H2 6985   2.982   3.037   0.638  1.2809 -2.0278  0.6914
 2341TIP3   OH2 6986   0.914   2.255   1.274  0.4746  0.2055  0.1281
 2341TIP3    H1 6987   0.834   2.250   1.326  0.8068  1.0209  0.7255
 2341TIP3    H2 6988   0.891   2.311   1.200  0.0776 -0.7472 -0.4898
 2342TIP3   OH2 6989   5.740   0.808   5.142 -0.1572 -0.5392 -0.0188
 2342TIP3    H1 6990   5.751   0.769   5.229 -0.0350  0.3724  0.3849
 2342TIP3    H2 6991   5.655   0.777   5.112 -2.0595  2.2120  2.0940
 2343TIP3   OH2 6992   4.198   5.343   5.626  0.7617  0.2946  0.0159
 2343TIP3    H1 6993   4.141   5.284   5.576 -1.3232  1.7695  0.4884
 2343TIP3    H2 6994   4.208   5.301   5.711  1.9963 -0.8691 -0.6600
 2344TIP3   OH2 6995   2.083   6.630   0.518 -0.4149 -0.2943  0.4047
 2344TIP3    H1 6996   2.040   6.693   0.575 -0.1607  0.1785  0.0909
 2344TIP3    H2 6997   2.081   6.547   0.566  0.2024  0.1902  1.3010
 2345TIP3   OH2 6998   5.073   5.298   3.980 -0.5071  0.1446 -0.0148
 2345TIP3    H1 6999   5.160   5.334   3.963  0.7876 -2.0136  1.4677
 2345TIP3    H2 7000   5.081   5.205   3.960 -2.1477 -0.3191  1.2436
 2346TIP3   OH2 7001   5.790   1.233   0.098  0.1159  0.8481  0.0423
 2346TIP3    H1 7002   5.878   1.270   0.094 -0.1303  1.7224  1.5845
 2346TIP3    H2 7003   5.732   1.309   0.100 -0.5989  0.3143  0.1367
 2347TIP3   OH2 7004   6.875   1.368   5.202 -0.3862  0.1308  0.4763
 2347TIP3    H1 7005   6.970   1.383   5.197 -0.0385 -1.9734  0.0460
 2347TIP3    H2 7006   6.853   1.323   5.121 -1.6143 -0.1708  0.9519
 2348TIP3   OH2 7007   3.133   0.292   1.200 -0.2797 -0.3259 -0.1748
 2348TIP3    H1 7008   3.071   0.275   1.129 -0.9016  1.0253  0.0112
 2348TIP3    H2 7009   3.217   0.302   1.157 -0.7433  1.0366 -0.8106
 2349TIP3   OH2 7010   4.078   2.536   4.620 -0.5257  0.2876 -0.1459
 2349TIP3    H1 7011   4.128   2.481   4.561 -1.3140  1.5985 -2.1444
 2349TIP3    H2 7012   4.083   2.492   4.705  1.9672 -0.8355 -0.8077
 2350TIP3   OH2 7013   2.263   3.496   0.759  0.2140 -0.0496  0.9700
 2350TIP3    H1 7014   2.213   3.552   0.699  0.9951  0.5272  0.8387
 2350TIP3    H2 7015   2.227   3.408   0.745  0.0452  0.1523  0.0175
 2351TIP3   OH2 7016   7.078   0.683   0.381 -0.0163 -0.0021  0.4617
 2351TIP3    H1 7017   7.140   0.712   0.448  0.9425  0.5124 -0.6151
 2351TIP3    H2 7018   7.002   0.740   0.392  0.8943  1.3639 -0.0727
 2352TIP3   OH2 7019   2.084   6.380   2.171 -0.2448 -0.3382 -1.1031
 2352TIP3    H1 7020   2.117   6.358   2.084  1.3055 -0.0331 -0.6150
 2352TIP3    H2 7021   2.161   6.408   2.220 -1.3473  1.2197 -0.1602
 2353TIP3   OH2 7022   5.006   5.978   5.013 -0.2109 -0.0379 -0.7210
 2353TIP3    H1 7023   5.080   5.972   5.073 -0.9097 -2.7254 -0.0071
 2353TIP3    H2 7024   5.017   5.903   4.954  0.2189  2.2403 -3.7947
 2354TIP3   OH2 7025   1.336   5.470   2.216  0.1300 -0.1656 -0.0513
 2354TIP3    H1 7026   1.408   5.411   2.197 -1.2142 -2.0689  0.4882
 2354TIP3    H2 7027   1.283   5.424   2.282  0.1255  2.5538  2.0308
 2355TIP3   OH2 7028   6.400   4.460   1.281  1.0288  0.2822  0.0510
 2355TIP3    H1 7029   6.344   4.456   1.203 -0.2039  0.4549  0.8848
 2355TIP3    H2 7030   6.489   4.457   1.247  0.5761 -2.9825 -1.1905
 2356TIP3   OH2 7031   6.139   1.229   4.658 -0.2174 -0.2804  0.1135
 2356TIP3    H1 7032   6.147   1.304   4.599 -1.4394 -0.5095 -0.3792
 2356TIP3    H2 7033   6.157   1.265   4.745  1.1433  0.1591 -0.3291
 2357TIP3   OH2 7034   6.703   5.440   4.676 -0.0812  0.5050  0.7881
 2357TIP3    H1 7035   6.780   5.448   4.733  0.3773  0.3511  0.2049
 2357TIP3    H2 7036   6.667   5.354   4.696 -0.4680  0.8186  1.4992
 2358TIP3   OH2 7037   0.126   5.011   3.153 -0.3418  0.6399 -0.4848
 2358TIP3    H1 7038   0.072   5.090   3.153 -1.3513 -0.0401 -1.0150
 2358TIP3    H2 7039   0.098   4.963   3.231 -1.5927 -0.4259 -1.5543
 2359TIP3   OH2 7040   3.552   2.806   5.131 -0.0277 -0.3499  0.0313
 2359TIP3    H1 7041   3.544   2.892   5.171 -0.1482 -0.8718  1.1542
 2359TIP3    H2 7042   3.463   2.784   5.103 -0.0557 -0.2436  0.0376
 2360TIP3   OH2 7043   5.390   4.434   5.824 -0.2054 -0.1546 -0.5542
 2360TIP3    H1 7044   5.327   4.362   5.831  0.1218 -0.4417 -0.5339
 2360TIP3    H2 7045   5.337   4.510   5.801 -0.4564 -0.5764 -1.4163
 2361TIP3   OH2 7046   3.060   5.548   5.340 -0.5007 -0.2484  0.1202
 2361TIP3    H1 7047   3.110   5.503   5.272 -2.1038  0.4878 -1.6312
 2361TIP3    H2 7048   3.062   5.488   5.415  1.6812 -0.8835 -0.3869
 2362TIP3   OH2 7049   4.715   4.171   4.405  0.0009 -0.1215  0.6547
 2362TIP3    H1 7050   4.773   4.232   4.359 -2.7075  2.5636  0.4959
 2362TIP3    H2 7051   4.754   4.160   4.491  0.5730  1.9320  0.6985
 2363TIP3   OH2 7052   5.862   5.394   0.423 -0.1390 -0.1732 -0.4965
 2363TIP3    H1 7053   5.945   5.422   0.385  1.0162 -1.0149  1.2808
 2363TIP3    H2 7054   5.844   5.458   0.492  0.5747 -1.5868  1.0626
 2364TIP3   OH2 7055   2.503   6.702   5.289  0.1526 -0.3018 -0.3214
 2364TIP3    H1 7056   2.509   6.682   5.382 -4.1791 -1.1239  0.0052
 2364TIP3    H2 7057   2.491   6.617   5.247 -1.1272  0.2662 -1.1732
 2365TIP3   OH2 7058   1.358   4.924   5.237 -0.6151 -0.2118  0.4779
 2365TIP3    H1 7059   1.348   5.017   5.219  1.6091 -0.0779 -0.4132
 2365TIP3    H2 7060   1.295   4.880   5.180 -1.7217  0.7192  0.9550
 2366TIP3   OH2 7061   3.906   0.561   5.385  0.2812  0.0466  0.2882
 2366TIP3    H1 7062   3.945   0.573   5.298  2.2169 -1.5189  0.8469
 2366TIP3    H2 7063   3.817   0.530   5.367  0.2247  0.9221 -1.1061
 2367TIP3   OH2 7064   2.582   5.249   4.204 -0.2399 -0.2730  0.2488
 2367TIP3    H1 7065   2.505   5.247   4.260  0.0853  0.9667  0.7645
 2367TIP3    H2 7066   2.634   5.173   4.231 -1.5252 -1.4600 -0.5024
 2368TIP3   OH2 7067   2.341   1.885   3.384 -0.6477 -0.2151 -0.2631
 2368TIP3    H1 7068   2.389   1.826   3.442  0.9346  1.0187 -0.2355
 2368TIP3    H2 7069   2.264   1.911   3.434  0.8353  1.0690  1.4971
 2369TIP3   OH2 7070   2.495   2.083   5.158 -0.4723 -0.4648 -0.2558
 2369TIP3    H1 7071   2.552   2.093   5.234 -0.2017  1.1040 -0.6166
 2369TIP3    H2 7072   2.411   2.055   5.194  0.1148 -1.3487  0.4364
 2370TIP3   OH2 7073   0.709   5.120   2.181 -0.0592 -0.3703 -0.1994
 2370TIP3    H1 7074   0.678   5.210   2.187  2.4354  0.7462 -2.3020
 2370TIP3    H2 7075   0.703   5.086   2.271 -0.8391  1.9533  0.6864
 2371TIP3   OH2 7076   6.431   1.655   0.640 -0.3108  0.3017 -0.4725
 2371TIP3    H1 7077   6.408   1.580   0.696 -1.1199  1.1502  0.3695
 2371TIP3    H2 7078   6.472   1.717   0.700 -0.2049  0.7832 -1.0455
 2372TIP3   OH2 7079   3.394   5.830   0.827 -0.2457  0.0450 -0.4001
 2372TIP3    H1 7080   3.342   5.893   0.877 -0.7336  0.2020 -1.1026
 2372TIP3    H2 7081   3.480   5.872   0.819 -0.3828  0.3414 -0.3271
 2373TIP3   OH2 7082   6.457   6.567   2.799 -0.0525  0.2136 -0.0537
 2373TIP3    H1 7083   6.506   6.606   2.727 -1.6035  0.3556 -1.0678
 2373TIP3    H2 7084   6.427   6.483   2.764 -1.0885  0.4231  0.3008
 2374TIP3   OH2 7085   3.521   3.354   0.870 -1.2772 -0.1819 -0.1328
 2374TIP3    H1 7086   3.502   3.284   0.933 -0.3723 -1.3025 -1.0707
 2374TIP3    H2 7087   3.613   3.374   0.884 -0.6012 -1.5955 -2.1727
 2375TIP3   OH2 7088   1.384   1.336   3.544  0.6181  0.2150  0.2750
 2375TIP3    H1 7089   1.466   1.380   3.567  0.6304 -0.3563  1.3612
 2375TIP3    H2 7090   1.327   1.407   3.513  1.5517  0.5950 -0.6302
 2376TIP3   OH2 7091   0.711   1.787   3.917  0.4283 -0.0324  0.3644
 2376TIP3    H1 7092   0.627   1.785   3.963  0.7235  0.4999  0.9511
 2376TIP3    H2 7093   0.736   1.880   3.917  0.9994 -0.1794  0.1629
 2377TIP3   OH2 7094   0.500   6.346   1.866 -0.5713  0.1118 -0.0854
 2377TIP3    H1 7095   0.540   6.299   1.939 -0.5428 -0.2639 -0.3352
 2377TIP3    H2 7096   0.406   6.338   1.882 -0.5639  1.4383  0.7769
 2378TIP3   OH2 7097   2.826   1.779   5.416 -0.2289  0.2005 -0.3457
 2378TIP3    H1 7098   2.810   1.776   5.322  0.4576  0.7407 -0.4862
 2378TIP3    H2 7099   2.911   1.821   5.425 -1.0192  1.6740  0.5876
 2379TIP3   OH2 7100   2.914   4.841   0.377 -0.0966 -0.0265  0.1188
 2379TIP3    H1 7101   2.824   4.817   0.400  0.3809 -0.5152  1.6060
 2379TIP3    H2 7102   2.940   4.777   0.311 -0.9738  0.3896 -0.6571
 2380TIP3   OH2 7103   5.015   1.109   2.301 -0.3974 -0.8400  0.0219
 2380TIP3    H1 7104   5.055   1.141   2.221 -1.0449 -1.1822 -0.4456
 2380TIP3    H2 7105   5.087   1.071   2.351 -0.0247 -0.8060 -0.4880
 2381TIP3   OH2 7106   0.298   6.128   2.992  0.5076 -0.3757  0.2119
 2381TIP3    H1 7107   0.315   6.045   3.036  2.5464 -0.2781 -0.2731
 2381TIP3    H2 7108   0.344   6.120   2.908 -2.0733 -0.0043 -1.3290
 2382TIP3   OH2 7109   3.952   1.830   0.579 -0.3573  0.2621  0.0441
 2382TIP3    H1 7110   3.861   1.826   0.547 -0.3719 -2.0462  0.2007
 2382TIP3    H2 7111   4.002   1.780   0.514  0.9271  1.8549 -0.2695
 2383TIP3   OH2 7112   4.891   0.821   2.793 -0.1063  0.1392  0.2070
 2383TIP3    H1 7113   4.834   0.763   2.743  1.3086  0.7954 -2.3474
 2383TIP3    H2 7114   4.852   0.908   2.784 -1.2420 -0.0368  2.5409
 2384TIP3   OH2 7115   4.059   0.145   5.732 -0.8954 -0.2875  0.1866
 2384TIP3    H1 7116   4.144   0.155   5.690 -1.1791 -1.1300 -0.6205
 2384TIP3    H2 7117   4.010   0.222   5.706 -1.2365 -1.0309 -1.4940
 2385TIP3   OH2 7118   2.552   1.123   5.522 -0.2351  0.0578 -0.5630
 2385TIP3    H1 7119   2.459   1.125   5.544 -0.1064 -1.0877  0.1989
 2385TIP3    H2 7120   2.596   1.099   5.603  0.7219  0.5090 -0.9303
 2386TIP3   OH2 7121   6.130   3.975   0.611 -0.2796  0.0423 -0.1857
 2386TIP3    H1 7122   6.175   4.049   0.652  1.2048  0.0737 -1.7692
 2386TIP3    H2 7123   6.038   3.999   0.613  0.0591  1.4032  0.3811
 2387TIP3   OH2 7124   5.168   4.589   4.121  0.2345  0.3448  0.1622
 2387TIP3    H1 7125   5.258   4.614   4.100  0.2649  1.2745  1.3147
 2387TIP3    H2 7126   5.177   4.511   4.175  0.2608 -0.5652 -1.1283
 2388TIP3   OH2 7127   0.334   5.113   5.893  0.2166  0.0248  0.9497
 2388TIP3    H1 7128   0.298   5.024   5.898  0.3159 -0.0496  0.3358
 2388TIP3    H2 7129   0.275   5.159   5.834  0.8623  0.0315  0.3008
 2389TIP3   OH2 7130   6.232   5.280   0.308 -0.0654 -0.4757 -0.0833
 2389TIP3    H1 7131   6.259   5.194   0.340  2.0575  0.0451 -0.3118
 2389TIP3    H2 7132   6.191   5.263   0.223  2.0169 -1.1946 -1.0311
 2390TIP3   OH2 7133   4.816   6.074   1.001 -0.1115  0.0288 -0.6424
 2390TIP3    H1 7134   4.827   6.149   1.060 -0.6866  0.6605 -1.3196
 2390TIP3    H2 7135   4.749   6.021   1.044  0.4759 -0.2357 -0.0358
 2391TIP3   OH2 7136   2.422   0.745   0.034 -0.1691 -0.0898  0.4548
 2391TIP3    H1 7137   2.346   0.782   0.080  0.2999 -0.8786  1.9225
 2391TIP3    H2 7138   2.440   0.663   0.080  1.6355  0.1377  0.2119
 2392TIP3   OH2 7139   1.522   3.548   3.390 -0.2084  1.0839 -0.6420
 2392TIP3    H1 7140   1.458   3.539   3.320 -0.1481  2.3829 -0.8846
 2392TIP3    H2 7141   1.587   3.480   3.372 -2.0721 -1.0823  0.2798
 2393TIP3   OH2 7142   2.531   4.457   3.435 -0.3568 -0.2457  0.0692
 2393TIP3    H1 7143   2.447   4.503   3.431  0.5174  1.4000 -0.4832
 2393TIP3    H2 7144   2.554   4.456   3.529 -0.2228  0.8102  0.0583
 2394TIP3   OH2 7145   4.280   1.420   5.490  0.5595 -0.3863  0.0152
 2394TIP3    H1 7146   4.348   1.449   5.429  0.1303 -0.0635 -0.3234
 2394TIP3    H2 7147   4.213   1.380   5.434 -0.3333  0.8629  0.1468
 2395TIP3   OH2 7148   0.187   6.153   5.129 -0.1170 -0.1990 -0.1792
 2395TIP3    H1 7149   0.138   6.194   5.200 -0.5872 -1.1624  0.0789
 2395TIP3    H2 7150   0.183   6.216   5.057  1.0489  1.1300  0.8900
 2396TIP3   OH2 7151   1.833   2.550   3.025  0.5003  0.2277 -0.3727
 2396TIP3    H1 7152   1.821   2.534   2.932  0.2554  0.1863 -0.3351
 2396TIP3    H2 7153   1.908   2.610   3.030  0.8059 -0.1387 -0.5652
 2397TIP3   OH2 7154   4.684   0.170   2.128  0.3058 -0.0375  0.0037
 2397TIP3    H1 7155   4.766   0.218   2.115 -0.5035  0.7283 -2.9826
 2397TIP3    H2 7156   4.711   0.085   2.161  2.0757  1.0411  1.5428
 2398TIP3   OH2 7157   1.400   0.703   2.582  0.1184 -0.3657  0.1894
 2398TIP3    H1 7158   1.339   0.742   2.645  0.5380  0.4464  0.1154
 2398TIP3    H2 7159   1.368   0.733   2.497  0.8976  0.4908  0.1810
 2399TIP3   OH2 7160   5.779   2.956   4.124 -0.1650 -0.3385 -0.2621
 2399TIP3    H1 7161   5.801   2.873   4.081  0.2057 -0.0674 -0.6086
 2399TIP3    H2 7162   5.863   2.988   4.160 -0.2198  0.0945 -0.5071
 2400TIP3   OH2 7163   6.604   4.068   1.551 -0.0335  0.4493  0.3471
 2400TIP3    H1 7164   6.516   4.061   1.588  1.0303 -0.3508  3.0031
 2400TIP3    H2 7165   6.643   4.142   1.596  1.1510 -0.1927  0.4114
 2401TIP3   OH2 7166   6.517   4.154   5.308 -0.0257 -0.2707 -0.1197
 2401TIP3    H1 7167   6.424   4.152   5.333 -0.4939  0.3785 -1.6925
 2401TIP3    H2 7168   6.526   4.081   5.247  0.5415 -0.3845  0.0949
 2402TIP3   OH2 7169   5.982   3.166   1.102  0.1570 -0.3837 -0.5182
 2402TIP3    H1 7170   5.984   3.077   1.068  0.4585  0.5862 -3.3087
 2402TIP3    H2 7171   6.049   3.213   1.052 -0.2684  1.5186  0.5666
 2403TIP3   OH2 7172   3.038   4.564   5.613 -0.2249  0.2254  0.0200
 2403TIP3    H1 7173   3.132   4.572   5.597 -0.0322 -0.5462  0.6845
 2403TIP3    H2 7174   3.003   4.525   5.533  0.0318  0.4617 -0.2063
 2404TIP3   OH2 7175   5.197   4.766   0.773  0.0152  0.1043  0.2351
 2404TIP3    H1 7176   5.262   4.830   0.743 -0.7447  1.0612  0.5935
 2404TIP3    H2 7177   5.193   4.779   0.868 -1.4833  0.8426  0.0963
 2405TIP3   OH2 7178   5.994   4.177   5.238 -0.6183  0.7882  0.0146
 2405TIP3    H1 7179   5.992   4.124   5.318 -0.2963  0.8077  0.0336
 2405TIP3    H2 7180   6.064   4.240   5.252  1.4806 -1.0760 -1.4779
 2406TIP3   OH2 7181   6.142   3.268   3.650  0.4375 -0.4698 -0.5853
 2406TIP3    H1 7182   6.087   3.346   3.642  0.3190 -0.2712  1.6004
 2406TIP3    H2 7183   6.225   3.301   3.686  1.1217 -1.1000 -1.5404
 2407TIP3   OH2 7184   5.396   3.626   4.945  0.0671  0.6198 -0.6976
 2407TIP3    H1 7185   5.438   3.542   4.957 -0.5148  0.2443 -1.2118
 2407TIP3    H2 7186   5.430   3.659   4.862 -0.7394  0.2520 -1.1829
 2408TIP3   OH2 7187   0.137   5.352   1.734 -0.1633  0.3938 -0.0982
 2408TIP3    H1 7188   0.060   5.405   1.755  0.4918  1.1789  0.4241
 2408TIP3    H2 7189   0.109   5.262   1.749 -2.7087  0.0034 -5.1841
 2409TIP3   OH2 7190   5.076   2.643   4.641  0.3292 -0.0065  0.6038
 2409TIP3    H1 7191   5.030   2.662   4.560  0.3377 -2.2717  0.0028
 2409TIP3    H2 7192   5.169   2.641   4.616  0.4050  0.1694  0.8636
 2410TIP3   OH2 7193   3.006   5.462   1.267  0.0585  0.2785 -1.1451
 2410TIP3    H1 7194   2.969   5.390   1.319  0.8110 -0.0109 -1.0055
 2410TIP3    H2 7195   3.093   5.476   1.303  0.2086  0.7535 -1.6747
 2411TIP3   OH2 7196   3.023   6.214   2.692  0.0807  0.1803 -0.4507
 2411TIP3    H1 7197   2.991   6.288   2.743 -1.8355 -1.8035  1.4489
 2411TIP3    H2 7198   3.021   6.140   2.753  2.6937 -1.3135 -2.0144
 2412TIP3   OH2 7199   0.586   4.694   3.078 -0.3936  0.3644  0.3246
 2412TIP3    H1 7200   0.504   4.649   3.056 -0.8267  1.9189 -1.4625
 2412TIP3    H2 7201   0.613   4.654   3.161 -1.1550 -2.5698 -0.6961
 2413TIP3   OH2 7202   7.085   1.225   4.556 -0.2301 -0.0614 -0.3909
 2413TIP3    H1 7203   7.107   1.142   4.513  1.6861 -0.8704  1.9564
 2413TIP3    H2 7204   7.131   1.291   4.504  1.1014 -0.8777 -0.2896
 2414TIP3   OH2 7205   1.446   5.607   0.453  0.3177  0.0843 -0.1146
 2414TIP3    H1 7206   1.379   5.566   0.508  0.8922 -0.3146  0.3044
 2414TIP3    H2 7207   1.508   5.536   0.434  2.0669  1.0136  1.7676
 2415TIP3   OH2 7208   6.514   4.242   3.670  0.0869 -0.0617 -0.7516
 2415TIP3    H1 7209   6.527   4.158   3.714 -2.0294 -0.7434 -1.3063
 2415TIP3    H2 7210   6.495   4.219   3.579  0.4079  1.0870 -1.1296
 2416TIP3   OH2 7211   2.911   4.623   1.663  0.0409 -0.1961  0.1574
 2416TIP3    H1 7212   2.945   4.534   1.668 -0.2516 -0.3803 -0.8591
 2416TIP3    H2 7213   2.947   4.659   1.582  0.8553  0.9299  0.9871
 2417TIP3   OH2 7214   3.958   1.403   5.549 -0.3008 -0.0166  0.3440
 2417TIP3    H1 7215   4.039   1.411   5.598 -0.9559 -0.5195  1.5673
 2417TIP3    H2 7216   3.967   1.464   5.476  1.0535  0.1200  0.6023
 2418TIP3   OH2 7217   6.118   5.725   0.297 -0.1070  0.1821  0.3353
 2418TIP3    H1 7218   6.161   5.695   0.217  2.3659  0.9992  1.2330
 2418TIP3    H2 7219   6.102   5.646   0.348 -1.3772 -0.3054 -0.7744
 2419TIP3   OH2 7220   5.895   4.577   3.054  0.3223 -0.2745  0.1896
 2419TIP3    H1 7221   5.849   4.513   3.109 -1.5797 -0.1024 -1.0982
 2419TIP3    H2 7222   5.954   4.524   3.000 -0.8827 -0.9396 -0.5286
 2420TIP3   OH2 7223   6.528   4.678   1.704  0.4071 -0.0697  0.0104
 2420TIP3    H1 7224   6.500   4.756   1.657  0.3418  0.0028  0.1677
 2420TIP3    H2 7225   6.447   4.631   1.722  0.4172 -0.0208  0.1839
 2421TIP3   OH2 7226   1.678   3.594   2.637 -0.2580 -0.2184 -0.2454
 2421TIP3    H1 7227   1.734   3.565   2.564 -0.3686  1.6658 -1.1269
 2421TIP3    H2 7228   1.592   3.557   2.618 -0.3568  0.4976 -1.2502
 2422TIP3   OH2 7229   5.805   6.289   4.282  0.7248  0.0543 -0.3557
 2422TIP3    H1 7230   5.841   6.364   4.330 -0.1170 -1.4735  3.0336
 2422TIP3    H2 7231   5.724   6.320   4.243 -0.5492  0.6189  2.5005
 2423TIP3   OH2 7232   2.569   0.795   0.324  0.5639  0.1958  0.4171
 2423TIP3    H1 7233   2.482   0.832   0.310  0.0225 -0.3246  2.0879
 2423TIP3    H2 7234   2.576   0.724   0.260  0.5026  1.3451 -0.9203
 2424TIP3   OH2 7235   0.320   4.577   0.895 -0.2636  0.6744 -0.3994
 2424TIP3    H1 7236   0.239   4.552   0.850  0.1703 -0.6993 -0.4769
 2424TIP3    H2 7237   0.348   4.497   0.940 -0.6920  1.9754  2.3903
 2425TIP3   OH2 7238   0.581   3.914   5.461  0.0879 -0.3982  0.4583
 2425TIP3    H1 7239   0.606   3.967   5.386 -0.3720 -0.2472  0.4108
 2425TIP3    H2 7240   0.659   3.912   5.516  1.1060 -2.1049 -0.9285
 2426TIP3   OH2 7241   5.998   2.560   2.724 -0.2944 -1.0745  0.1556
 2426TIP3    H1 7242   6.042   2.591   2.645  0.3470 -0.7046  0.6491
 2426TIP3    H2 7243   5.968   2.640   2.768 -0.2916 -1.2507  0.4831
 2427TIP3   OH2 7244   0.547   4.672   1.938  0.0682 -0.3425  0.6679
 2427TIP3    H1 7245   0.633   4.714   1.945 -1.0092  2.2732 -0.5562
 2427TIP3    H2 7246   0.538   4.650   1.846 -1.2060  0.9498  0.4545
 2428TIP3   OH2 7247   5.930   0.740   0.595 -0.0886  0.3257 -0.0434
 2428TIP3    H1 7248   5.871   0.751   0.670 -0.7954 -1.0383 -0.3705
 2428TIP3    H2 7249   5.959   0.649   0.601  1.4752  0.7869 -0.2768
 2429TIP3   OH2 7250   1.724   5.566   3.349  0.2657 -0.0804  0.0447
 2429TIP3    H1 7251   1.676   5.643   3.378  1.8723  1.4186 -1.0491
 2429TIP3    H2 7252   1.724   5.572   3.253  1.4318 -0.7542 -0.0209
 2430TIP3   OH2 7253   7.019   5.446   0.478 -0.1419 -0.6428  0.3793
 2430TIP3    H1 7254   7.100   5.397   0.464 -0.8990 -1.4463 -1.5562
 2430TIP3    H2 7255   7.047   5.538   0.474  0.8577 -0.8910  1.1184
 2431TIP3   OH2 7256   6.204   3.099   2.677  0.1113  0.0307 -0.0316
 2431TIP3    H1 7257   6.248   3.180   2.649 -0.4248  1.5400  3.0865
 2431TIP3    H2 7258   6.114   3.125   2.693 -0.5514 -1.6821 -0.7610
 2432TIP3   OH2 7259   0.264   6.675   5.853 -0.3058  0.3570  0.0305
 2432TIP3    H1 7260   0.359   6.684   5.848 -0.1112 -1.4800 -0.1199
 2432TIP3    H2 7261   0.236   6.666   5.763 -0.4010 -0.9690  0.1840
 2433TIP3   OH2 7262   4.546   4.884   5.655 -0.3107  0.1761 -0.3303
 2433TIP3    H1 7263   4.528   4.931   5.574  2.1437  0.7539 -0.6292
 2433TIP3    H2 7264   4.636   4.909   5.678 -0.0601 -1.8663  1.2431
 2434TIP3   OH2 7265   4.906   6.233   3.309  0.1478 -0.1708 -0.2889
 2434TIP3    H1 7266   4.849   6.187   3.370  1.5866 -1.2372  0.3023
 2434TIP3    H2 7267   4.932   6.313   3.356 -1.6481  0.8749 -0.9763
 2435TIP3   OH2 7268   0.074   3.624   4.527 -0.4807  0.2114  0.5112
 2435TIP3    H1 7269   0.155   3.575   4.514 -0.6598 -0.1300  0.6925
 2435TIP3    H2 7270   0.097   3.714   4.502  0.1829  0.2851  1.3340
 2436TIP3   OH2 7271   6.558   1.218   3.066  0.3657  0.4818 -0.1135
 2436TIP3    H1 7272   6.586   1.297   3.112 -0.1707  1.2300 -1.0192
 2436TIP3    H2 7273   6.628   1.155   3.080  0.3018  0.7457  1.5410
 2437TIP3   OH2 7274   1.996   5.604   2.001  0.1304  0.6759  1.0406
 2437TIP3    H1 7275   1.959   5.539   2.060 -0.5954  0.8693  0.8109
 2437TIP3    H2 7276   2.090   5.601   2.018  0.2724 -1.3249  0.1342
 2438TIP3   OH2 7277   2.523   0.658   4.351 -0.0503  0.2068  0.1503
 2438TIP3    H1 7278   2.523   0.753   4.362 -0.1464  0.1314  0.8640
 2438TIP3    H2 7279   2.474   0.643   4.270  0.4588  0.7895 -0.2792
 2439TIP3   OH2 7280   1.570   2.385   2.170  0.3647  0.1341 -0.4458
 2439TIP3    H1 7281   1.623   2.312   2.202 -0.2737  0.7821  2.3706
 2439TIP3    H2 7282   1.484   2.347   2.151  0.7385 -0.2506 -1.4296
 2440TIP3   OH2 7283   4.220   4.868   1.018  0.1034  0.0804  0.0120
 2440TIP3    H1 7284   4.183   4.929   1.082 -0.5512 -1.6519  1.3942
 2440TIP3    H2 7285   4.299   4.834   1.061  0.6361  0.1988 -0.8662
 2441TIP3   OH2 7286   1.696   6.020   2.739 -0.1976 -0.1197 -0.0017
 2441TIP3    H1 7287   1.604   6.046   2.744 -0.5900 -1.1685 -1.2081
 2441TIP3    H2 7288   1.695   5.925   2.750  0.6476 -0.2444 -0.8496
 2442TIP3   OH2 7289   5.825   4.468   5.637 -0.0346 -0.3586 -0.0920
 2442TIP3    H1 7290   5.766   4.500   5.569 -0.1518  0.5717  0.4388
 2442TIP3    H2 7291   5.895   4.533   5.642  0.2916 -0.7271  0.2686
 2443TIP3   OH2 7292   5.207   5.782   4.378  0.3142 -0.2179 -0.2648
 2443TIP3    H1 7293   5.142   5.852   4.369  2.4363  1.7695 -1.2926
 2443TIP3    H2 7294   5.179   5.714   4.318 -0.1406  1.1991 -1.7247
 2444TIP3   OH2 7295   0.973   6.384   1.529  0.5959  0.2627  0.1300
 2444TIP3    H1 7296   0.990   6.351   1.441 -0.2551  0.6171 -0.1713
 2444TIP3    H2 7297   1.030   6.461   1.537  0.6904  0.2173 -0.1014
 2445TIP3   OH2 7298   6.352   3.615   3.054  0.3427  0.4702 -0.1577
 2445TIP3    H1 7299   6.386   3.585   2.970  1.3968 -1.0667  0.7462
 2445TIP3    H2 7300   6.427   3.655   3.098  0.0958  0.2630  0.4723
 2446TIP3   OH2 7301   1.698   3.167   1.294  0.6574 -0.4206  0.4923
 2446TIP3    H1 7302   1.742   3.249   1.316  1.6084 -0.2886 -1.6941
 2446TIP3    H2 7303   1.764   3.116   1.247 -1.0733 -0.8064 -1.6720
 2447TIP3   OH2 7304   2.454   1.001   4.046  0.6228  0.1564  0.4214
 2447TIP3    H1 7305   2.435   1.081   4.094  0.6696 -0.3865  1.3770
 2447TIP3    H2 7306   2.477   0.937   4.114  2.8240 -0.0595 -0.4474
 2448TIP3   OH2 7307   3.823   5.994   3.221  0.2219  0.3329 -0.5792
 2448TIP3    H1 7308   3.904   6.032   3.254 -0.8107  2.3930 -0.2793
 2448TIP3    H2 7309   3.838   5.899   3.225  1.8462  0.5977  1.3858
 2449TIP3   OH2 7310   2.296   0.476   3.445 -0.1909  0.2533 -0.1013
 2449TIP3    H1 7311   2.341   0.511   3.522  0.7961  1.3410 -1.1375
 2449TIP3    H2 7312   2.218   0.531   3.436 -0.0153  0.4829 -0.2096
 2450TIP3   OH2 7313   3.800   1.882   2.636  0.7400 -0.3198  0.3032
 2450TIP3    H1 7314   3.846   1.798   2.634  0.2207 -0.5990 -0.4520
 2450TIP3    H2 7315   3.812   1.918   2.548  0.2121 -0.0191  0.3455
 2451TIP3   OH2 7316   7.173   5.225   3.176 -0.2516  0.0034  0.4042
 2451TIP3    H1 7317   7.216   5.286   3.237 -0.6237  0.7788 -0.0942
 2451TIP3    H2 7318   7.080   5.244   3.185 -0.3533 -0.3202  0.0552
 2452TIP3   OH2 7319   0.444   4.320   4.381  0.8053  0.3195  0.3995
 2452TIP3    H1 7320   0.533   4.351   4.394  0.5771  1.2315 -0.0555
 2452TIP3    H2 7321   0.404   4.386   4.324  0.8313 -1.7739 -2.2423
 2453TIP3   OH2 7322   6.335   5.154   0.615  0.2385 -0.5610 -0.4097
 2453TIP3    H1 7323   6.408   5.212   0.596  0.1940  1.2088  3.6317
 2453TIP3    H2 7324   6.375   5.074   0.649  0.3377 -0.1939  0.3564
 2454TIP3   OH2 7325   1.686   3.153   5.281  0.6085  0.2189 -0.0951
 2454TIP3    H1 7326   1.672   3.175   5.373  0.2496  1.3855 -0.4098
 2454TIP3    H2 7327   1.608   3.103   5.256  0.5154  0.2620  0.1122
 2455TIP3   OH2 7328   0.809   6.243   3.354 -0.0801  0.2331 -0.1133
 2455TIP3    H1 7329   0.806   6.303   3.429 -0.8346 -1.6175  1.4395
 2455TIP3    H2 7330   0.720   6.209   3.348  0.3714 -0.8607 -0.8393
 2456TIP3   OH2 7331   1.844   2.357   5.705  0.2251  0.0118 -1.1100
 2456TIP3    H1 7332   1.802   2.438   5.734  0.9256  1.2817 -3.4729
 2456TIP3    H2 7333   1.809   2.290   5.765 -0.6713  1.9489  0.6530
 2457TIP3   OH2 7334   6.404   2.195   3.328 -0.1035  0.0811 -0.3132
 2457TIP3    H1 7335   6.322   2.146   3.324 -0.9669  1.4803 -0.2005
 2457TIP3    H2 7336   6.415   2.218   3.420  0.0552  0.4685 -0.4247
 2458TIP3   OH2 7337   1.081   5.133   5.779  0.4573 -0.1493  0.1000
 2458TIP3    H1 7338   1.086   5.053   5.830 -0.5312 -0.0404  0.3746
 2458TIP3    H2 7339   0.991   5.136   5.746  0.7607  0.3385 -0.7420
 2459TIP3   OH2 7340   5.639   1.215   4.548  0.0690  0.6982 -0.2198
 2459TIP3    H1 7341   5.595   1.163   4.480  2.0256 -0.8980 -0.3841
 2459TIP3    H2 7342   5.724   1.236   4.510  1.7268 -1.2849  2.0774
 2460TIP3   OH2 7343   6.518   1.220   1.631  0.1034 -0.2407  0.2540
 2460TIP3    H1 7344   6.549   1.179   1.712  0.3874 -0.6989 -0.0802
 2460TIP3    H2 7345   6.565   1.303   1.627 -0.5798  0.2029  1.0075
 2461TIP3   OH2 7346   4.941   3.921   3.798  0.1744  0.1365 -0.0775
 2461TIP3    H1 7347   4.896   3.907   3.882 -2.0350  2.5832 -0.7555
 2461TIP3    H2 7348   4.919   3.844   3.746 -0.0581 -0.4803  0.9039
 2462TIP3   OH2 7349   6.198   3.672   1.884  0.3514  0.7624  0.1808
 2462TIP3    H1 7350   6.230   3.735   1.949 -0.9456  2.0657 -0.3754
 2462TIP3    H2 7351   6.273   3.615   1.866  0.6269  0.0461  3.1336
 2463TIP3   OH2 7352   3.715   3.392   4.534 -0.6579 -0.1136 -0.4923
 2463TIP3    H1 7353   3.810   3.401   4.526 -0.5586 -0.9804 -0.3124
 2463TIP3    H2 7354   3.680   3.456   4.471  0.0486 -0.3201 -1.1064
 2464TIP3   OH2 7355   2.453   2.156   1.563  0.1696 -0.0056  0.4791
 2464TIP3    H1 7356   2.432   2.188   1.650 -1.1170 -1.1362  0.6279
 2464TIP3    H2 7357   2.547   2.170   1.554  0.0714  1.5197  1.4347
 2465TIP3   OH2 7358   0.950   4.902   1.824  0.0312  0.5352  0.3661
 2465TIP3    H1 7359   0.936   4.992   1.792 -1.5974  0.6054  1.1559
 2465TIP3    H2 7360   0.938   4.848   1.746 -2.1801  0.8283  0.4194
 2466TIP3   OH2 7361   3.616   2.124   2.980  0.1627 -0.2054 -0.0417
 2466TIP3    H1 7362   3.619   2.093   3.070  1.4823 -0.4988 -0.1604
 2466TIP3    H2 7363   3.701   2.099   2.944 -1.1370 -2.1681 -2.0502
 2467TIP3   OH2 7364   4.355   5.975   5.311  0.3020 -0.4622 -0.0942
 2467TIP3    H1 7365   4.396   6.028   5.379 -0.4054 -0.5249  0.3937
 2467TIP3    H2 7366   4.264   5.965   5.340 -0.7557  1.7034 -2.3279
 2468TIP3   OH2 7367   6.108   6.162   0.712 -0.0572  0.3855 -0.1820
 2468TIP3    H1 7368   6.124   6.126   0.625 -0.4170  0.0199 -0.0978
 2468TIP3    H2 7369   6.132   6.255   0.704  2.3331 -0.1380 -0.0112
 2469TIP3   OH2 7370   4.878   5.051   5.389 -0.4819  0.1231  0.2304
 2469TIP3    H1 7371   4.825   4.973   5.400 -0.2639 -0.2007 -0.8721
 2469TIP3    H2 7372   4.966   5.018   5.371 -0.0859  0.6429  1.1221
 2470TIP3   OH2 7373   3.900   5.268   4.769 -0.4320 -0.3517  0.3832
 2470TIP3    H1 7374   3.910   5.321   4.849 -1.0951  1.0588 -0.4317
 2470TIP3    H2 7375   3.981   5.281   4.721 -1.1783  1.2269 -0.5311
 2471TIP3   OH2 7376   6.275   6.141  -0.000  0.8043 -0.4253 -0.0203
 2471TIP3    H1 7377   6.324   6.083   0.058 -0.9941  0.1482  2.2170
 2471TIP3    H2 7378   6.250   6.215   0.054 -1.6103 -0.1971 -1.2904
 2472TIP3   OH2 7379   1.473   0.073   4.475  0.3445  0.3965 -0.5839
 2472TIP3    H1 7380   1.533  -0.001   4.465  0.9966  0.7610  0.4403
 2472TIP3    H2 7381   1.528   0.144   4.508 -0.5328  0.9206 -0.2061
 2473TIP3   OH2 7382   1.055   3.275   0.136  0.2881  0.1290  0.1457
 2473TIP3    H1 7383   1.051   3.194   0.086 -0.3181 -0.4446  1.0931
 2473TIP3    H2 7384   1.139   3.314   0.113 -0.0081 -0.0796 -1.3678
 2474TIP3   OH2 7385   3.463   5.389   2.830  0.4727 -0.0275  0.0335
 2474TIP3    H1 7386   3.396   5.321   2.839  0.9656 -0.4368  0.7264
 2474TIP3    H2 7387   3.425   5.467   2.869 -0.2630  0.2220 -1.1439
 2475TIP3   OH2 7388   4.036   6.050   0.692 -0.2290 -0.0177 -0.0440
 2475TIP3    H1 7389   4.123   6.012   0.699  0.1907  1.0453  0.8347
 2475TIP3    H2 7390   3.992   5.998   0.625  0.7266 -1.2291  0.2327
 2476TIP3   OH2 7391   5.615   1.894   1.018  0.1946 -0.2186  0.4196
 2476TIP3    H1 7392   5.650   1.822   0.965 -0.4464  0.1100 -0.4860
 2476TIP3    H2 7393   5.681   1.963   1.011  0.0420 -0.1184 -0.1029
 2477TIP3   OH2 7394   3.845   0.060   0.729 -0.0984 -0.4202 -0.2226
 2477TIP3    H1 7395   3.858   0.138   0.783 -0.7792 -0.7511  0.4426
 2477TIP3    H2 7396   3.932   0.040   0.695  0.1368  0.4562 -0.1702
 2478TIP3   OH2 7397   6.425   2.014   1.868 -0.0093  0.3354  0.1894
 2478TIP3    H1 7398   6.418   1.943   1.804  1.6643  0.0467  0.3001
 2478TIP3    H2 7399   6.403   1.973   1.952 -0.2091  0.2379  0.0909
 2479TIP3   OH2 7400   3.409   2.835   0.453  1.0219  0.4654  0.1138
 2479TIP3    H1 7401   3.371   2.801   0.372  0.6370  2.0411 -0.3883
 2479TIP3    H2 7402   3.478   2.894   0.424  0.9566  0.9568  0.9326
 2480TIP3   OH2 7403   0.347   6.184   4.481  0.0373  0.4971  0.3886
 2480TIP3    H1 7404   0.309   6.145   4.560  1.1024 -0.2196  0.5590
 2480TIP3    H2 7405   0.362   6.276   4.505 -1.0784  0.6646  0.4910
 2481TIP3   OH2 7406   1.064   4.603   5.536 -0.5438  0.0534  0.6394
 2481TIP3    H1 7407   1.082   4.653   5.457 -3.4506 -0.2816 -0.3677
 2481TIP3    H2 7408   1.098   4.657   5.607  2.2886  0.2861 -0.7711
 2482TIP3   OH2 7409   0.952   4.025   4.687  0.4106  0.1371  0.0381
 2482TIP3    H1 7410   0.913   3.956   4.633 -0.6532 -0.7931  1.8763
 2482TIP3    H2 7411   1.013   3.979   4.745  3.0823  1.3584 -1.5942
 2483TIP3   OH2 7412   0.784   6.096   4.888  0.2831 -0.3715  0.2802
 2483TIP3    H1 7413   0.760   6.052   4.807  0.5817 -0.5249  0.2740
 2483TIP3    H2 7414   0.810   6.025   4.947 -0.0920 -0.2779  0.5691
 2484TIP3   OH2 7415   3.747   3.501   1.070 -0.3622 -0.2438 -0.3050
 2484TIP3    H1 7416   3.698   3.444   1.130 -0.8979  0.3292 -0.1812
 2484TIP3    H2 7417   3.838   3.474   1.080 -0.3704  0.1470  1.1231
 2485TIP3   OH2 7418   5.578   0.960   1.494 -0.0063  0.3277 -0.2337
 2485TIP3    H1 7419   5.627   0.900   1.438 -1.8871 -0.9156 -0.6335
 2485TIP3    H2 7420   5.639   0.983   1.564  0.8232 -1.9747 -0.1242
 2486TIP3   OH2 7421   0.344   3.787   5.514  0.0983  0.3780  0.0532
 2486TIP3    H1 7422   0.429   3.825   5.491 -0.1582  0.6180 -0.5136
 2486TIP3    H2 7423   0.353   3.765   5.607  1.9837 -2.7992 -0.7259
 2487TIP3   OH2 7424   3.220   2.860   4.594 -0.3621  0.0357 -0.6309
 2487TIP3    H1 7425   3.207   2.943   4.640 -1.6779 -0.8466  0.6927
 2487TIP3    H2 7426   3.224   2.794   4.663 -2.0237 -1.3090 -1.7216
 2488TIP3   OH2 7427   2.968   5.985   4.154  0.1418  0.3447  0.2211
 2488TIP3    H1 7428   2.911   5.953   4.224 -0.0785 -0.1482 -0.1775
 2488TIP3    H2 7429   2.991   5.907   4.103  0.7892  0.6069  0.0947
 2489TIP3   OH2 7430   6.054   5.175   4.948  0.1525 -0.1124 -0.1315
 2489TIP3    H1 7431   5.999   5.169   5.027 -0.1864 -0.2722 -0.3796
 2489TIP3    H2 7432   6.021   5.107   4.890 -0.5619  0.9515 -1.0170
 2490TIP3   OH2 7433   3.456   5.257   5.559  0.8354  0.1725  0.2139
 2490TIP3    H1 7434   3.500   5.310   5.625 -1.4720  1.4085  0.8747
 2490TIP3    H2 7435   3.475   5.302   5.476  1.0158  0.5563  0.4599
 2491TIP3   OH2 7436   0.433   5.696   5.324 -0.1177  0.5662  0.3867
 2491TIP3    H1 7437   0.473   5.669   5.406 -0.7276  0.5323  0.6776
 2491TIP3    H2 7438   0.471   5.782   5.306 -0.7894  1.0788  1.2883
 2492TIP3   OH2 7439   4.499   6.188   4.740 -0.3819  0.0813  0.2293
 2492TIP3    H1 7440   4.436   6.159   4.674  0.3440  0.5671 -0.6971
 2492TIP3    H2 7441   4.516   6.110   4.793 -0.3753 -0.5210 -0.6414
 2493TIP3   OH2 7442   2.493   1.757   2.864 -0.1967  0.0952 -0.3578
 2493TIP3    H1 7443   2.555   1.796   2.925  0.4394 -0.4905 -0.6197
 2493TIP3    H2 7444   2.546   1.734   2.787 -0.8580  0.1856 -0.8540
 2494TIP3   OH2 7445   3.088   4.118   2.408 -0.3137 -0.4276  0.3269
 2494TIP3    H1 7446   3.008   4.157   2.372  0.8958  2.3299  0.3712
 2494TIP3    H2 7447   3.108   4.045   2.350 -1.9270 -0.1138 -0.6860
 2495TIP3   OH2 7448   3.748   0.189   3.542  0.3838  0.7807 -0.3416
 2495TIP3    H1 7449   3.751   0.130   3.617 -0.1489  0.9777 -0.1620
 2495TIP3    H2 7450   3.718   0.134   3.470  0.7973  0.6152 -0.3890
 2496TIP3   OH2 7451   6.522   4.433   4.287 -0.9079  0.3960  0.3061
 2496TIP3    H1 7452   6.439   4.385   4.291  0.3095 -1.8044  1.9617
 2496TIP3    H2 7453   6.505   4.514   4.334 -2.3338  0.3743 -0.1214
 2497TIP3   OH2 7454   0.604   5.073   5.767 -0.0008  1.0756 -0.2376
 2497TIP3    H1 7455   0.529   5.076   5.827 -0.0864  1.0110 -0.3421
 2497TIP3    H2 7456   0.579   5.130   5.695 -0.6264 -0.1875 -1.0573
 2498TIP3   OH2 7457   0.741   2.595   1.352  0.1174  0.3569  0.0694
 2498TIP3    H1 7458   0.778   2.572   1.267 -1.3372  1.2365 -0.8615
 2498TIP3    H2 7459   0.657   2.548   1.355  1.2616 -1.7704  2.2067
 2499TIP3   OH2 7460   6.202   4.708   0.414  0.1399  0.5661  0.0280
 2499TIP3    H1 7461   6.126   4.655   0.387  2.1825 -1.1895 -2.8783
 2499TIP3    H2 7462   6.178   4.797   0.390 -1.0046  0.0511 -0.9020
 2500TIP3   OH2 7463   1.857   3.218   2.533 -0.3400  0.0098 -0.2848
 2500TIP3    H1 7464   1.920   3.192   2.599 -0.3075  0.8231  0.0124
 2500TIP3    H2 7465   1.910   3.239   2.456  0.1535  3.8463  0.9012
 2501TIP3   OH2 7466   5.556   4.489   2.345  0.0680 -0.1412 -0.6961
 2501TIP3    H1 7467   5.643   4.498   2.305  0.1128  0.8857 -0.3801
 2501TIP3    H2 7468   5.524   4.579   2.353 -0.6380 -0.4527  0.0475
 2502TIP3   OH2 7469   4.199   4.972   4.277 -0.6432 -0.4873 -0.0844
 2502TIP3    H1 7470   4.261   5.044   4.285 -0.9093 -0.2700  0.0416
 2502TIP3    H2 7471   4.248   4.895   4.303 -0.5087 -0.2742  0.2969
 2503TIP3   OH2 7472   2.911   2.055   2.268  0.0224 -0.2418  0.4911
 2503TIP3    H1 7473   2.987   2.000   2.287 -1.0265 -1.9176  0.0743
 2503TIP3    H2 7474   2.840   2.014   2.317 -1.2434 -0.5190 -1.4980
 2504TIP3   OH2 7475   0.621   1.733   1.236 -0.6156 -0.9005 -0.3747
 2504TIP3    H1 7476   0.585   1.766   1.318 -0.7481 -2.1373  0.0785
 2504TIP3    H2 7477   0.582   1.789   1.169 -0.5163  0.1251  0.3809
 2505TIP3   OH2 7478   6.425   5.050   1.920  0.2444  0.4225  0.0349
 2505TIP3    H1 7479   6.482   5.073   1.847  0.4783 -0.8838 -0.2119
 2505TIP3    H2 7480   6.457   5.105   1.993  2.7594 -1.2091  0.2945
 2506TIP3   OH2 7481   5.308   1.394   4.678  0.0641 -0.9519 -0.1524
 2506TIP3    H1 7482   5.222   1.355   4.697 -1.0976  1.3978 -0.1987
 2506TIP3    H2 7483   5.287   1.473   4.628  2.2156  0.0979  0.5076
 2507TIP3   OH2 7484   3.947   5.422   4.292 -0.5590 -0.5259  0.3446
 2507TIP3    H1 7485   3.926   5.503   4.339 -0.7587 -0.5194  0.2444
 2507TIP3    H2 7486   3.948   5.355   4.361 -0.5501 -0.4655  0.4036
 2508TIP3   OH2 7487   6.902   5.262   4.355 -0.6707 -0.4445  0.7935
 2508TIP3    H1 7488   6.884   5.330   4.291 -0.6432 -1.5299 -0.3962
 2508TIP3    H2 7489   6.821   5.210   4.359  0.5904 -2.7753 -1.3982
 2509TIP3   OH2 7490   3.247   5.670   2.568 -0.6874 -0.2206  0.3160
 2509TIP3    H1 7491   3.268   5.661   2.475 -0.7227 -0.8790  0.3674
 2509TIP3    H2 7492   3.153   5.654   2.572 -0.6451 -0.4107  0.4991
 2510TIP3   OH2 7493   0.821   0.492   0.027 -0.0205 -0.3196 -0.1189
 2510TIP3    H1 7494   0.814   0.417   0.086  1.8890 -0.4566 -0.0103
 2510TIP3    H2 7495   0.744   0.546   0.047 -0.2720 -1.1715  1.3298
 2511TIP3   OH2 7496   2.868   4.505   2.460  0.3148 -0.2347 -0.3737
 2511TIP3    H1 7497   2.963   4.493   2.464  0.6660  1.7424 -1.4314
 2511TIP3    H2 7498   2.853   4.554   2.379 -1.5295  0.1449  0.1418
 2512TIP3   OH2 7499   6.341   2.814   5.198  0.4793 -0.6085 -0.6556
 2512TIP3    H1 7500   6.299   2.738   5.238  1.5027 -1.3271 -0.8914
 2512TIP3    H2 7501   6.385   2.859   5.270 -1.1240  0.4762 -0.3086
 2513TIP3   OH2 7502   6.317   2.308   4.563 -0.1175  0.2851 -0.0063
 2513TIP3    H1 7503   6.397   2.256   4.556 -1.0784 -1.1124 -1.9503
 2513TIP3    H2 7504   6.345   2.398   4.549  1.0831 -0.2265 -1.1361
 2514TIP3   OH2 7505   4.627   4.934   1.606  0.3439  0.2070  0.7969
 2514TIP3    H1 7506   4.624   4.885   1.688 -2.9312 -0.7026  0.2785
 2514TIP3    H2 7507   4.580   5.016   1.625 -0.6550 -0.1118 -0.1653
 2515TIP3   OH2 7508   2.832   4.641   1.309  0.7405  0.2605 -0.1634
 2515TIP3    H1 7509   2.906   4.687   1.349  0.8137  0.5596 -0.6344
 2515TIP3    H2 7510   2.779   4.711   1.269  0.6454 -0.0252 -0.5451
 2516TIP3   OH2 7511   6.533   6.773   0.724  0.1358  0.6276 -0.2035
 2516TIP3    H1 7512   6.546   6.678   0.720  2.8220  0.8611  1.0115
 2516TIP3    H2 7513   6.458   6.789   0.668  0.8741 -1.9951 -2.1271
 2517TIP3   OH2 7514   5.962   3.496   1.839 -0.0311 -0.5211  0.1539
 2517TIP3    H1 7515   6.028   3.561   1.866 -2.4742  2.7997 -1.1232
 2517TIP3    H2 7516   5.990   3.469   1.752  1.5313 -2.0889  1.0744
 2518TIP3   OH2 7517   6.531   6.213   5.839  0.4989 -0.4187 -0.3101
 2518TIP3    H1 7518   6.582   6.133   5.833  0.3632 -0.4598 -1.0729
 2518TIP3    H2 7519   6.444   6.184   5.865  0.9987 -0.2830  1.6643
 2519TIP3   OH2 7520   5.105   1.009   5.355 -0.6769  0.2167 -0.0637
 2519TIP3    H1 7521   5.155   1.091   5.349  1.5221 -0.8194  2.0790
 2519TIP3    H2 7522   5.054   1.006   5.275  0.8598  2.6211 -1.2587
 2520TIP3   OH2 7523   0.474   0.884   2.276  0.3342  0.3940  0.3945
 2520TIP3    H1 7524   0.418   0.913   2.204  0.1065  0.7494  0.7149
 2520TIP3    H2 7525   0.497   0.793   2.253  0.2827  0.5097 -0.1358
 2521TIP3   OH2 7526   7.012   2.164   4.024 -0.0114 -0.3144  0.9189
 2521TIP3    H1 7527   6.972   2.159   4.111 -0.1648 -1.5990  0.7861
 2521TIP3    H2 7528   7.030   2.073   4.001  0.1369  0.0280 -0.3492
 2522TIP3   OH2 7529   6.509   5.248   2.088 -0.0192  0.8321  0.4761
 2522TIP3    H1 7530   6.571   5.289   2.028  1.8221  0.5024  2.0562
 2522TIP3    H2 7531   6.564   5.204   2.153 -1.9323 -0.3677  1.3602
 2523TIP3   OH2 7532   1.870   2.785   5.391  0.1359 -0.1948  0.0737
 2523TIP3    H1 7533   1.825   2.716   5.343 -0.7160 -0.8593  1.7336
 2523TIP3    H2 7534   1.932   2.739   5.448  0.8446  0.5377 -0.0851
 2524TIP3   OH2 7535   0.767   3.423   1.424 -0.0167 -0.3396  0.1477
 2524TIP3    H1 7536   0.802   3.375   1.500  0.7085 -1.0105 -0.5767
 2524TIP3    H2 7537   0.675   3.400   1.422  0.2903 -1.6392 -0.1053
 2525TIP3   OH2 7538   5.031   2.039   4.791  0.6985  0.2354 -0.2431
 2525TIP3    H1 7539   5.120   2.039   4.826  0.7117 -2.3506 -0.0932
 2525TIP3    H2 7540   4.975   2.029   4.868  0.3918  0.0788 -0.4825
 2526TIP3   OH2 7541   2.517   5.408   0.658 -0.1525 -0.4042  0.3073
 2526TIP3    H1 7542   2.556   5.339   0.605 -0.1051 -0.7908  0.8319
 2526TIP3    H2 7543   2.506   5.368   0.745  1.2688  0.7104  1.0356
 2527TIP3   OH2 7544   2.207   0.437   2.648 -0.8525 -0.3500 -0.3803
 2527TIP3    H1 7545   2.295   0.408   2.626 -1.2268 -0.5191 -1.7589
 2527TIP3    H2 7546   2.188   0.506   2.583 -1.5407  0.0341  0.2210
 2528TIP3   OH2 7547   0.410   6.511   0.362  0.3739 -0.7055  0.1098
 2528TIP3    H1 7548   0.483   6.571   0.380  1.1790 -1.7151  0.2667
 2528TIP3    H2 7549   0.448   6.424   0.369 -0.7614 -1.2443 -0.2312
 2529TIP3   OH2 7550   6.629   0.971   0.581  0.1790  0.1807  0.0384
 2529TIP3    H1 7551   6.638   1.063   0.557 -0.8001 -0.0935 -1.5341
 2529TIP3    H2 7552   6.682   0.961   0.660  1.9788  1.6182 -0.9145
 2530TIP3   OH2 7553   6.878   5.659   5.372  0.2385  0.1117 -0.0848
 2530TIP3    H1 7554   6.878   5.704   5.287 -0.2414  1.3764  0.5571
 2530TIP3    H2 7555   6.820   5.584   5.359 -0.1508  0.5113 -0.7727
 2531TIP3   OH2 7556   0.670   2.513   4.821  0.3290  0.3671 -0.0055
 2531TIP3    H1 7557   0.594   2.457   4.802 -1.2470  2.6378 -0.8253
 2531TIP3    H2 7558   0.722   2.512   4.741 -0.1090  0.6298 -0.3040
 2532TIP3   OH2 7559   6.223   4.318   2.385  0.1780 -0.4817 -0.1414
 2532TIP3    H1 7560   6.312   4.287   2.371  0.2889  0.1883 -1.0323
 2532TIP3    H2 7561   6.228   4.413   2.374 -0.7236 -0.4879 -0.7386
 2533TIP3   OH2 7562   3.471   5.809   1.347 -0.4930 -0.0745  0.1205
 2533TIP3    H1 7563   3.526   5.885   1.326 -2.1374  1.2861  0.4812
 2533TIP3    H2 7564   3.457   5.815   1.442 -1.9455  0.1182 -0.0884
 2534TIP3   OH2 7565   4.010   0.183   0.399  0.2538  0.4462 -0.1567
 2534TIP3    H1 7566   4.085   0.242   0.399 -0.7580  1.7764 -0.6592
 2534TIP3    H2 7567   3.938   0.235   0.435 -0.2782 -1.0439  1.0844
 2535TIP3   OH2 7568   4.398   6.113   2.337  0.4706  0.2327 -0.1082
 2535TIP3    H1 7569   4.423   6.042   2.396  1.0312  1.0104  0.6168
 2535TIP3    H2 7570   4.385   6.070   2.252 -0.6238 -0.9518  0.6152
 2536TIP3   OH2 7571   0.021   3.484   0.318  0.1275 -0.0573 -0.1061
 2536TIP3    H1 7572  -0.003   3.566   0.361 -0.4659 -0.1966 -0.1495
 2536TIP3    H2 7573  -0.011   3.495   0.228  0.6775 -0.0623 -0.3008
 2537TIP3   OH2 7574   3.005   6.091   4.582  0.4824  0.4868 -0.1640
 2537TIP3    H1 7575   3.058   6.061   4.657 -0.1373 -0.7869 -0.2179
 2537TIP3    H2 7576   3.024   6.029   4.513 -0.9305  0.1241 -0.2472
 2538TIP3   OH2 7577   0.280   2.520   0.715 -0.3911  0.1378  0.6320
 2538TIP3    H1 7578   0.200   2.573   0.718  0.2428  1.3600 -1.8083
 2538TIP3    H2 7579   0.299   2.510   0.622  2.3214 -0.1271  1.1409
 2539TIP3   OH2 7580   6.698   1.323   0.671  0.1000  0.1767 -0.0533
 2539TIP3    H1 7581   6.703   1.338   0.766 -0.0070 -0.7768  0.1177
 2539TIP3    H2 7582   6.690   1.410   0.633 -0.3418  0.5479  0.8527
 2540TIP3   OH2 7583   0.950   1.913   2.466  0.5517  0.2417  0.4209
 2540TIP3    H1 7584   1.031   1.889   2.423  0.5751 -0.1708  0.6869
 2540TIP3    H2 7585   0.886   1.921   2.395  0.4288 -1.0850  0.3603
 2541TIP3   OH2 7586   5.928   0.383   3.037 -0.6365 -0.2636  0.0198
 2541TIP3    H1 7587   5.893   0.443   2.971  0.3253 -0.2918 -0.5296
 2541TIP3    H2 7588   5.858   0.319   3.050 -1.3201  0.4565 -0.0420
 2542TIP3   OH2 7589   0.427   2.795   0.620  0.1312 -0.5708  0.0859
 2542TIP3    H1 7590   0.493   2.865   0.622 -0.2830 -0.1037 -1.2973
 2542TIP3    H2 7591   0.447   2.745   0.541 -0.2443 -1.3629  0.4804
 2543TIP3   OH2 7592   1.880   6.663   2.329  0.3712  0.2361 -0.4832
 2543TIP3    H1 7593   1.875   6.572   2.357 -0.1016  0.4824  0.2496
 2543TIP3    H2 7594   1.882   6.658   2.233 -0.1970 -0.5173 -0.4656
 2544TIP3   OH2 7595   1.428   4.545   2.734  0.5890  0.0717 -0.2492
 2544TIP3    H1 7596   1.421   4.506   2.647  0.2904  0.3394 -0.3472
 2544TIP3    H2 7597   1.451   4.472   2.791  1.7234  0.0594 -0.6995
 2545TIP3   OH2 7598   4.831   3.412   3.537  0.0348 -0.8325 -0.0265
 2545TIP3    H1 7599   4.738   3.431   3.548 -0.3321 -1.7333 -1.2368
 2545TIP3    H2 7600   4.874   3.456   3.610 -1.1233  1.2586 -0.5289
 2546TIP3   OH2 7601   4.050   4.500   4.245 -0.1405  0.2379  0.4342
 2546TIP3    H1 7602   3.997   4.579   4.240  0.7407  0.7908 -0.8648
 2546TIP3    H2 7603   4.118   4.521   4.309 -0.8827 -0.1024  1.3468
 2547TIP3   OH2 7604   0.291   0.275   0.518 -0.1315  0.3361  0.3589
 2547TIP3    H1 7605   0.284   0.180   0.507 -2.5458  0.2894  1.6605
 2547TIP3    H2 7606   0.260   0.291   0.607 -1.7826  2.5010 -0.5193
 2548TIP3   OH2 7607   4.355   3.456   1.490  0.0540 -0.1268  0.1906
 2548TIP3    H1 7608   4.263   3.473   1.513 -0.2515  0.9341 -1.6172
 2548TIP3    H2 7609   4.349   3.398   1.413  0.9442 -0.9917  0.7530
 2549TIP3   OH2 7610   2.515   0.025   0.309 -0.1723 -0.2568 -0.5157
 2549TIP3    H1 7611   2.516  -0.063   0.347  2.9223 -0.9673 -1.9527
 2549TIP3    H2 7612   2.485   0.081   0.381  1.9294 -1.9735  1.8823
 2550TIP3   OH2 7613   2.647  -0.003   2.152 -0.4671  0.2978 -0.1721
 2550TIP3    H1 7614   2.658   0.031   2.241 -1.0287 -0.0306  0.0257
 2550TIP3    H2 7615   2.646   0.075   2.097 -3.6367  0.8319  0.4511
 2551TIP3   OH2 7616   4.335   3.653   0.495 -0.5917  0.0164 -0.3054
 2551TIP3    H1 7617   4.301   3.602   0.569 -3.3187  0.2799 -1.2708
 2551TIP3    H2 7618   4.393   3.592   0.449 -1.0292 -1.0706  0.5223
 2552TIP3   OH2 7619   3.940   0.733   3.927 -0.1983  0.7037 -0.0950
 2552TIP3    H1 7620   3.971   0.700   4.011 -1.1647  1.0095  0.3949
 2552TIP3    H2 7621   3.939   0.657   3.869 -2.2272 -0.1246  0.9614
 2553TIP3   OH2 7622   7.017   1.562   5.543 -0.4488  0.3043  0.9066
 2553TIP3    H1 7623   7.104   1.566   5.503 -0.7524  3.2275  0.3467
 2553TIP3    H2 7624   7.031   1.514   5.625  1.6977  0.7804  0.8795
 2554TIP3   OH2 7625   1.992   0.224   3.810  0.4737 -0.4578  0.3769
 2554TIP3    H1 7626   1.922   0.281   3.840  0.8021 -0.0569  0.3924
 2554TIP3    H2 7627   2.001   0.243   3.717 -0.5437 -1.7015 -0.0028
 2555TIP3   OH2 7628   0.120   3.851   2.043  0.1202 -0.4403  0.3999
 2555TIP3    H1 7629   0.105   3.758   2.025  0.4290 -0.4557  0.2196
 2555TIP3    H2 7630   0.051   3.896   1.993  1.4534 -0.4348 -1.5598
 2556TIP3   OH2 7631   4.401   2.106   2.289  0.7299 -0.0433 -0.4443
 2556TIP3    H1 7632   4.322   2.066   2.326  1.0210 -0.6988 -0.5146
 2556TIP3    H2 7633   4.391   2.096   2.195 -0.3218  2.2182 -0.6223
 2557TIP3   OH2 7634   5.337   3.675   0.875 -0.0216 -0.7342 -0.3995
 2557TIP3    H1 7635   5.368   3.764   0.855 -2.3139 -0.0726 -1.3289
 2557TIP3    H2 7636   5.342   3.669   0.971  2.1945 -0.4424 -0.4561
 2558TIP3   OH2 7637   0.432   5.913   4.903  0.3051  0.2746  0.2179
 2558TIP3    H1 7638   0.504   5.861   4.869 -0.6711  0.6107 -2.5608
 2558TIP3    H2 7639   0.474   5.982   4.954  1.8144 -0.5824  0.1727
 2559TIP3   OH2 7640   3.357   5.545   4.537  0.3885 -0.5296 -0.3070
 2559TIP3    H1 7641   3.408   5.540   4.456 -1.4308 -0.1489 -1.5391
 2559TIP3    H2 7642   3.279   5.492   4.519 -1.1010  1.3119  0.3360
 2560TIP3   OH2 7643   4.422   0.506   0.207 -0.4187  0.0629 -0.0808
 2560TIP3    H1 7644   4.502   0.512   0.258  0.0982  2.5998 -1.0291
 2560TIP3    H2 7645   4.447   0.534   0.119 -2.1440 -0.0340 -0.6423
 2561TIP3   OH2 7646   1.497   3.644   2.916 -0.0198 -0.2512 -0.1061
 2561TIP3    H1 7647   1.437   3.659   2.843 -0.3187 -1.4367 -0.1255
 2561TIP3    H2 7648   1.463   3.699   2.986 -1.3190 -1.0954 -0.0301
 2562TIP3   OH2 7649   6.078   4.229   3.266  0.3539  0.3781  0.3781
 2562TIP3    H1 7650   6.144   4.179   3.314  0.3699  1.3540  1.4141
 2562TIP3    H2 7651   6.122   4.311   3.244  0.5595 -0.2947 -1.9215
 2563TIP3   OH2 7652   0.498   3.337   4.575 -0.3769  0.5260 -0.5148
 2563TIP3    H1 7653   0.447   3.256   4.575  0.2923  0.0614  1.3132
 2563TIP3    H2 7654   0.588   3.309   4.560 -0.3621  1.1421 -1.7054
 2564TIP3   OH2 7655   0.778   3.401   5.861 -0.1403  0.3898 -0.1137
 2564TIP3    H1 7656   0.776   3.495   5.846 -1.6293  0.1984 -1.3782
 2564TIP3    H2 7657   0.733   3.389   5.944  2.3417  0.9362  1.4328
 2565TIP3   OH2 7658   4.194   4.292   3.941 -0.1644 -0.2787 -0.6439
 2565TIP3    H1 7659   4.265   4.273   3.879  0.0097 -1.0606 -0.2164
 2565TIP3    H2 7660   4.174   4.207   3.982 -0.9498  0.0419 -0.3398
 2566TIP3   OH2 7661   6.709   6.482   0.405 -0.1530  0.1180  0.3160
 2566TIP3    H1 7662   6.681   6.556   0.351  0.3540 -0.5247 -0.8753
 2566TIP3    H2 7663   6.694   6.510   0.495 -0.2940  1.5298 -0.1297
 2567TIP3   OH2 7664   3.297   2.625   2.145 -0.0658  0.1609  0.2018
 2567TIP3    H1 7665   3.251   2.708   2.157 -0.1485 -0.1477  2.4920
 2567TIP3    H2 7666   3.230   2.558   2.161  0.3783 -0.3481 -0.0087
 2568TIP3   OH2 7667   5.340   1.593   2.173 -0.5017 -0.1219 -0.4505
 2568TIP3    H1 7668   5.392   1.668   2.202  1.2222 -0.2657 -2.8617
 2568TIP3    H2 7669   5.250   1.625   2.171  0.3186  2.4542 -2.7659
 2569TIP3   OH2 7670   0.713   6.318   2.994  0.4505 -0.0282  0.4715
 2569TIP3    H1 7671   0.782   6.267   3.038  0.5124 -1.1107 -0.8370
 2569TIP3    H2 7672   0.665   6.253   2.943 -0.1149  1.0848 -0.4250
 2570TIP3   OH2 7673   4.146   4.845   2.963 -0.2176  0.0000 -0.0501
 2570TIP3    H1 7674   4.241   4.845   2.977  0.0605  1.8724 -1.5037
 2570TIP3    H2 7675   4.133   4.907   2.891 -2.5186 -0.5152 -0.1376
 2571TIP3   OH2 7676   4.341   3.770   2.121  0.9286 -0.5737  0.0347
 2571TIP3    H1 7677   4.291   3.751   2.201 -1.4077  0.7331 -1.0057
 2571TIP3    H2 7678   4.429   3.791   2.152 -0.0050  0.2529  2.3174
 2572TIP3   OH2 7679   3.324   0.186   5.856 -0.3761 -1.0445  0.5887
 2572TIP3    H1 7680   3.306   0.164   5.765  0.7450  3.0985 -0.8543
 2572TIP3    H2 7681   3.407   0.143   5.876  2.6374  2.5807 -2.6054
 2573TIP3   OH2 7682   2.565   6.751   1.056 -0.4634 -1.0810  0.1988
 2573TIP3    H1 7683   2.638   6.768   1.115 -0.8975  0.5493  0.2916
 2573TIP3    H2 7684   2.569   6.656   1.040  1.2013 -1.1356  0.7918
 2574TIP3   OH2 7685   2.752   3.542   2.033  0.3477  0.1289  0.2183
 2574TIP3    H1 7686   2.716   3.582   1.953 -0.3806  0.0387  0.4990
 2574TIP3    H2 7687   2.687   3.477   2.059  1.7456 -1.6333 -0.5037
 2575TIP3   OH2 7688   2.409   5.948   1.744  0.6306 -0.1275 -0.3424
 2575TIP3    H1 7689   2.462   5.935   1.665 -0.0260  0.1600 -0.8404
 2575TIP3    H2 7690   2.473   5.956   1.814  1.2143 -0.8688 -0.7718
 2576TIP3   OH2 7691   2.020   5.279   4.750 -0.1602  0.1442 -0.0208
 2576TIP3    H1 7692   1.957   5.231   4.803  0.0927 -0.5123 -0.3117
 2576TIP3    H2 7693   2.061   5.340   4.811 -0.0640 -0.4099  0.4784
 2577TIP3   OH2 7694   3.289   0.863   3.979 -0.0236  0.3561 -0.4622
 2577TIP3    H1 7695   3.362   0.908   4.022  0.1541  0.5675 -0.9726
 2577TIP3    H2 7696   3.243   0.818   4.050  1.1068 -0.4986 -0.2458
 2578TIP3   OH2 7697   5.792   0.464   4.675  0.5659 -0.4862 -0.4169
 2578TIP3    H1 7698   5.836   0.516   4.743 -1.2646  0.8818 -0.1912
 2578TIP3    H2 7699   5.721   0.419   4.721 -0.2796 -0.0694 -1.2605
 2579TIP3   OH2 7700   3.323   5.133   2.633  0.6485 -0.0287  0.2217
 2579TIP3    H1 7701   3.306   5.049   2.590  0.6351  0.6708 -1.2000
 2579TIP3    H2 7702   3.416   5.130   2.656  0.9789  0.0606 -1.0144
 2580TIP3   OH2 7703   3.875   5.839   1.182  0.1975 -0.1055  0.3159
 2580TIP3    H1 7704   3.920   5.908   1.133  0.7872  0.6109  1.7649
 2580TIP3    H2 7705   3.797   5.882   1.217 -0.9719 -0.9917 -1.1045
 2581TIP3   OH2 7706   0.905   4.277   1.516  0.1485  0.6823 -0.0620
 2581TIP3    H1 7707   0.866   4.212   1.574  1.1348  0.8666  0.8395
 2581TIP3    H2 7708   0.840   4.346   1.510 -0.5987 -0.0358 -0.4223
 2582TIP3   OH2 7709   1.679   2.844   1.733 -0.0732 -0.2747 -0.0126
 2582TIP3    H1 7710   1.670   2.910   1.664 -0.9728 -0.9054 -0.5191
 2582TIP3    H2 7711   1.765   2.805   1.717 -0.2642 -0.4038 -0.7774
 2583TIP3   OH2 7712   0.064   5.701   1.955  0.0149  0.3327 -0.3635
 2583TIP3    H1 7713  -0.010   5.759   1.976 -0.0751 -0.3333  1.3381
 2583TIP3    H2 7714   0.029   5.613   1.967  0.4827 -0.0561 -1.7560
 2584TIP3   OH2 7715   1.390   5.046   1.737  0.0951  0.0978 -0.0684
 2584TIP3    H1 7716   1.321   5.060   1.802 -0.7012  0.6796 -1.0062
 2584TIP3    H2 7717   1.463   5.009   1.787 -0.2471  1.1481  1.2778
 2585TIP3   OH2 7718   2.158   0.933   1.436  0.1931 -0.0381 -0.2769
 2585TIP3    H1 7719   2.231   0.883   1.473 -1.2286 -2.0224  0.0303
 2585TIP3    H2 7720   2.199   1.001   1.382  2.2441 -0.3921  0.7604
 2586TIP3   OH2 7721   0.177   6.718   1.876  0.3309 -0.1219  0.1574
 2586TIP3    H1 7722   0.213   6.771   1.804  0.5701  0.9680  1.0510
 2586TIP3    H2 7723   0.215   6.757   1.955  0.1374 -1.3532  0.8761
 2587TIP3   OH2 7724   4.453   2.299   0.090  0.1320 -0.1755 -0.5227
 2587TIP3    H1 7725   4.429   2.210   0.062 -0.1973 -0.0655 -0.6019
 2587TIP3    H2 7726   4.519   2.327   0.027  1.2784 -0.8858  0.3231
 2588TIP3   OH2 7727   2.389   5.784   3.142 -0.8116 -0.2487  0.1890
 2588TIP3    H1 7728   2.473   5.824   3.121  0.0181 -1.7215  0.5858
 2588TIP3    H2 7729   2.332   5.858   3.162 -0.2504  0.9340 -2.2115
 2589TIP3   OH2 7730   4.534   0.494   1.419 -0.0865 -0.3642 -0.2045
 2589TIP3    H1 7731   4.492   0.497   1.505  0.1054  0.1894 -0.1276
 2589TIP3    H2 7732   4.533   0.401   1.396 -1.1213 -0.3964 -0.0958
 2590TIP3   OH2 7733   0.966   1.164   3.774  0.9635 -0.3960  0.4539
 2590TIP3    H1 7734   1.048   1.120   3.753  0.8328 -1.4290  1.9983
 2590TIP3    H2 7735   0.985   1.215   3.852 -0.3518 -2.3204  2.1230
 2591TIP3   OH2 7736   2.645   0.358   5.423 -0.1784  0.0348 -0.1730
 2591TIP3    H1 7737   2.677   0.319   5.505  1.1667 -1.5887 -1.4027
 2591TIP3    H2 7738   2.605   0.285   5.376  3.1118 -0.2612 -2.9026
 2592TIP3   OH2 7739   0.972   5.663   3.575 -0.2069 -0.0688 -0.5162
 2592TIP3    H1 7740   0.944   5.710   3.653  2.2513  0.5907  0.0577
 2592TIP3    H2 7741   0.981   5.572   3.604 -0.8596 -0.1201 -0.4716
 2593TIP3   OH2 7742   3.335   3.658   5.197 -0.5779 -0.3673  0.2714
 2593TIP3    H1 7743   3.292   3.618   5.272 -1.0334 -0.5664 -0.0912
 2593TIP3    H2 7744   3.292   3.744   5.188  0.9388  0.5695  1.5346
 2594TIP3   OH2 7745   0.293   3.813   4.473 -0.0383 -0.3771  0.2187
 2594TIP3    H1 7746   0.373   3.766   4.448  0.2195 -0.2507  0.7792
 2594TIP3    H2 7747   0.313   3.905   4.458 -0.7283 -0.4707 -1.3749
 2595TIP3   OH2 7748   2.784   5.064   0.596 -0.0925  0.3581 -0.2185
 2595TIP3    H1 7749   2.795   5.122   0.672  1.4591  1.8448 -1.4929
 2595TIP3    H2 7750   2.712   5.103   0.547  1.8415  2.1856 -1.8009
 2596TIP3   OH2 7751   0.890   6.599   4.468 -0.3040 -0.2114  0.3736
 2596TIP3    H1 7752   0.907   6.676   4.522  0.6556  1.9133 -2.6928
 2596TIP3    H2 7753   0.796   6.601   4.452 -0.3507  0.0862  0.6707
 2597TIP3   OH2 7754   0.730   3.791   4.148 -0.2781  0.0330  0.0451
 2597TIP3    H1 7755   0.723   3.711   4.199 -1.0121 -0.5950 -1.0009
 2597TIP3    H2 7756   0.788   3.770   4.075  0.9965  1.0077  0.7254
 2598TIP3   OH2 7757   7.124   6.262   2.089  0.1932  0.6502  0.0416
 2598TIP3    H1 7758   7.203   6.292   2.134 -0.0361  1.2808  0.0303
 2598TIP3    H2 7759   7.157   6.217   2.012  0.6508 -1.5200  1.4074
 2599TIP3   OH2 7760   0.799   6.021   5.729  0.4619  0.0850  0.2709
 2599TIP3    H1 7761   0.764   5.975   5.805 -0.2947  0.2691  0.0489
 2599TIP3    H2 7762   0.890   5.995   5.725  0.1562 -1.0538  0.3989
 2600TIP3   OH2 7763   3.905   5.283   1.739  0.4106  0.2728 -0.4918
 2600TIP3    H1 7764   3.826   5.232   1.725 -0.0083 -0.6021  3.6438
 2600TIP3    H2 7765   3.976   5.219   1.737  0.3820  0.1872  0.5048
 2601TIP3   OH2 7766   2.716   1.777   2.693 -0.4110 -0.0209  0.0373
 2601TIP3    H1 7767   2.749   1.696   2.654  0.0430  0.3659 -0.3914
 2601TIP3    H2 7768   2.782   1.801   2.758 -0.6168 -0.0663  0.2673
 2602TIP3   OH2 7769   5.118   2.388   5.745 -0.1266  0.2550  0.4114
 2602TIP3    H1 7770   5.028   2.370   5.718  0.5376 -0.0161 -1.7926
 2602TIP3    H2 7771   5.171   2.366   5.669  1.5594  3.4371  0.5080
 2603TIP3   OH2 7772   7.168   0.259   3.239 -0.1957  0.2877 -0.3218
 2603TIP3    H1 7773   7.121   0.235   3.159 -0.0396 -0.1374 -0.2855
 2603TIP3    H2 7774   7.193   0.176   3.279  1.1226  0.5129 -0.6449
 2604TIP3   OH2 7775   2.183   3.745   3.804  0.1317  0.2617  0.0328
 2604TIP3    H1 7776   2.190   3.838   3.783  1.3462  0.0989 -0.3324
 2604TIP3    H2 7777   2.263   3.706   3.769 -1.4803 -1.3636 -2.1703
 2605TIP3   OH2 7778   3.157   0.540   3.810  0.7663 -0.1020 -0.4466
 2605TIP3    H1 7779   3.102   0.518   3.885  0.5650  1.2159 -0.1719
 2605TIP3    H2 7780   3.199   0.458   3.785  0.9260 -0.5488  1.1858
 2606TIP3   OH2 7781   5.978   0.277   1.692 -0.2664  0.6032 -0.1886
 2606TIP3    H1 7782   5.927   0.329   1.754 -1.6330 -1.1750  0.2581
 2606TIP3    H2 7783   5.976   0.328   1.611 -0.6850  1.7091  0.4982
 2607TIP3   OH2 7784   6.572   0.717   0.785 -0.2767 -0.0953 -0.3989
 2607TIP3    H1 7785   6.564   0.688   0.694 -0.5960  0.9558 -0.7305
 2607TIP3    H2 7786   6.660   0.756   0.790 -0.1339 -0.4454 -0.1661
 2608TIP3   OH2 7787   5.741   5.865   4.979  0.1816 -0.0194 -0.1312
 2608TIP3    H1 7788   5.813   5.927   4.988 -0.3363  0.3549  2.0670
 2608TIP3    H2 7789   5.662   5.919   4.981 -0.2446 -0.6450  0.7302
 2609TIP3   OH2 7790   4.238   5.721   2.817 -0.7854 -0.6806 -0.0166
 2609TIP3    H1 7791   4.151   5.752   2.794 -0.6650  0.6921  1.1983
 2609TIP3    H2 7792   4.294   5.798   2.805  0.3259 -1.5979 -1.0003
 2610TIP3   OH2 7793   5.429   4.226   2.274 -0.1275 -0.2095  0.4961
 2610TIP3    H1 7794   5.454   4.316   2.293 -1.0232  0.6869 -2.2048
 2610TIP3    H2 7795   5.470   4.207   2.189 -0.9508 -1.9439  0.4397
 2611TIP3   OH2 7796   4.579   1.893   0.426  0.6765 -0.2559 -0.5474
 2611TIP3    H1 7797   4.560   1.863   0.338  0.8936  0.7802 -0.9603
 2611TIP3    H2 7798   4.659   1.945   0.418 -0.9382  2.4829 -0.3485
 2612TIP3   OH2 7799   0.682   5.505   3.643  0.3800  0.3174  0.2758
 2612TIP3    H1 7800   0.628   5.427   3.639  0.5626  0.1502  0.9683
 2612TIP3    H2 7801   0.772   5.472   3.649  0.4169  0.5715  1.1672
 2613TIP3   OH2 7802   5.896   1.212   3.534 -0.4678  0.2181 -0.4151
 2613TIP3    H1 7803   5.914   1.270   3.460 -0.7017  0.8480  0.0122
 2613TIP3    H2 7804   5.835   1.262   3.589 -0.7132 -0.4559 -0.0658
 2614TIP3   OH2 7805   5.952   5.481   2.113  0.5882  0.4042  0.5228
 2614TIP3    H1 7806   6.033   5.488   2.063  1.5549 -1.2805  1.7736
 2614TIP3    H2 7807   5.888   5.529   2.061  2.0266  0.4943 -1.2568
 2615TIP3   OH2 7808   3.472   4.801   5.401  1.0755 -0.0203 -0.5782
 2615TIP3    H1 7809   3.541   4.736   5.415  0.5247 -0.4346  0.2917
 2615TIP3    H2 7810   3.500   4.877   5.451 -0.3471 -1.1138  2.0914
 2616TIP3   OH2 7811   3.114   1.489   3.714  0.3332 -0.2278 -0.1047
 2616TIP3    H1 7812   3.148   1.533   3.792  1.8157 -1.4608 -0.0337
 2616TIP3    H2 7813   3.179   1.422   3.693 -1.9167 -2.5779 -0.0828
 2617TIP3   OH2 7814   4.108   6.108   1.627  0.8082  0.0132  0.0039
 2617TIP3    H1 7815   4.088   6.085   1.536  0.4359 -0.9790  0.3298
 2617TIP3    H2 7816   4.041   6.173   1.649 -0.8006 -1.6984  0.3896
 2618TIP3   OH2 7817   4.429   3.486   1.049 -0.3931  0.3665  0.3138
 2618TIP3    H1 7818   4.351   3.541   1.054 -1.4708 -0.5664 -3.2399
 2618TIP3    H2 7819   4.400   3.399   1.076 -0.4636  0.1474 -0.4394
 2619TIP3   OH2 7820   1.630   1.267   4.109 -0.3831  0.3551  0.1976
 2619TIP3    H1 7821   1.588   1.281   4.024  1.2548 -2.3976 -1.2113
 2619TIP3    H2 7822   1.685   1.344   4.122 -0.6309  0.8024 -1.2755
 2620TIP3   OH2 7823   0.779   5.204   0.204 -0.0282  0.4499 -0.4911
 2620TIP3    H1 7824   0.744   5.271   0.263 -0.6821 -0.0140 -0.3439
 2620TIP3    H2 7825   0.702   5.166   0.163  0.4381  1.1762 -2.1224
 2621TIP3   OH2 7826   5.129   6.152   4.500 -0.3921 -0.6709  0.0453
 2621TIP3    H1 7827   5.052   6.102   4.528 -1.6605  0.3217 -1.5570
 2621TIP3    H2 7828   5.172   6.095   4.436  0.9138 -1.7159  1.7645
 2622TIP3   OH2 7829   6.760   1.018   2.258 -0.5355  0.3132 -0.1297
 2622TIP3    H1 7830   6.781   0.977   2.343 -1.1639  0.2497 -0.0023
 2622TIP3    H2 7831   6.689   1.079   2.278  1.1006  2.3148 -0.1090
 2623TIP3   OH2 7832   1.219   2.116   5.126 -0.1635 -0.4213 -0.9657
 2623TIP3    H1 7833   1.130   2.094   5.155  0.1824  2.0453  2.7681
 2623TIP3    H2 7834   1.215   2.211   5.111  1.5290 -0.5106 -2.1210
 2624TIP3   OH2 7835   0.620   3.032   0.057  0.4727  0.2178 -0.0659
 2624TIP3    H1 7836   0.622   3.079   0.140 -0.6494  0.2915 -0.0619
 2624TIP3    H2 7837   0.531   3.046   0.024  0.5671 -0.7117 -0.7512
 2625TIP3   OH2 7838   5.305   6.144   2.639 -0.2247 -0.0932  0.3013
 2625TIP3    H1 7839   5.270   6.108   2.720 -0.0617 -3.3048 -0.9392
 2625TIP3    H2 7840   5.396   6.166   2.659 -0.0174 -1.3994  0.8885
 2626TIP3   OH2 7841   5.102   3.316   5.016  0.0670 -0.5090  0.4595
 2626TIP3    H1 7842   5.050   3.237   5.028 -0.3455 -0.2565  0.3744
 2626TIP3    H2 7843   5.174   3.290   4.958 -1.7788 -0.1390 -2.2274
 2627TIP3   OH2 7844   6.937   2.384   4.425 -0.6151  0.4121  0.2697
 2627TIP3    H1 7845   6.984   2.405   4.506 -1.9059  2.3439  0.5836
 2627TIP3    H2 7846   6.918   2.469   4.385 -0.3185 -0.4706 -1.9185
 2628TIP3   OH2 7847   2.771   0.456   1.525  0.8169  0.2241  0.4498
 2628TIP3    H1 7848   2.858   0.453   1.486  0.8144  0.5981  0.4091
 2628TIP3    H2 7849   2.728   0.530   1.481 -0.3691 -1.4062 -1.2819
 2629TIP3   OH2 7850   5.017   0.080   4.017  0.0120 -0.7651  0.2304
 2629TIP3    H1 7851   4.982   0.000   4.055 -1.4131 -0.0215  0.5397
 2629TIP3    H2 7852   5.093   0.102   4.071 -0.9545 -0.6747  1.5829
 2630TIP3   OH2 7853   0.256   6.648   2.637 -0.1094 -0.0358 -0.2182
 2630TIP3    H1 7854   0.222   6.660   2.548  1.0278  1.1786 -0.5234
 2630TIP3    H2 7855   0.309   6.726   2.653 -0.8862  0.1235  1.8240
 2631TIP3   OH2 7856   0.920   2.108   2.651 -0.4964 -0.5180  0.5765
 2631TIP3    H1 7857   0.934   2.059   2.571 -0.0593  2.3872 -1.2607
 2631TIP3    H2 7858   0.831   2.142   2.644 -1.1321 -1.6348  2.2553
 2632TIP3   OH2 7859   1.867   6.237   4.662  0.5825 -0.3794  0.1530
 2632TIP3    H1 7860   1.926   6.163   4.674  0.4531 -0.9642 -2.2339
 2632TIP3    H2 7861   1.781   6.203   4.685  0.6042 -0.8008 -0.3771
 2633TIP3   OH2 7862   1.049   1.590   5.726 -0.3974 -0.6670  0.2298
 2633TIP3    H1 7863   1.025   1.506   5.765  1.5264 -1.3387  0.1005
 2633TIP3    H2 7864   1.047   1.575   5.632 -0.3441 -0.4860  0.1987
 2634TIP3   OH2 7865   6.794   0.238   4.166 -0.0016 -0.0440 -0.3286
 2634TIP3    H1 7866   6.714   0.245   4.113  0.2526  0.3633 -0.6664
 2634TIP3    H2 7867   6.763   0.242   4.257 -0.5982 -2.3445 -0.3757
 2635TIP3   OH2 7868   6.168   2.967   4.999  0.1305 -0.1313  0.1551
 2635TIP3    H1 7869   6.211   2.907   5.060  1.5186  0.3228 -0.3401
 2635TIP3    H2 7870   6.208   2.948   4.914 -0.8099  0.1699 -0.3584
 2636TIP3   OH2 7871   0.746   2.212   5.345 -0.0870 -0.3633 -0.5006
 2636TIP3    H1 7872   0.770   2.131   5.299  2.3457  0.8843 -1.6270
 2636TIP3    H2 7873   0.800   2.212   5.423 -0.8825 -0.3097  0.0639
 2637TIP3   OH2 7874   6.240   4.843   1.926 -0.1844 -0.1212 -0.2880
 2637TIP3    H1 7875   6.212   4.855   2.017  1.5259 -0.2228  0.2971
 2637TIP3    H2 7876   6.319   4.898   1.919  1.1880 -2.0846 -0.9360
 2638TIP3   OH2 7877   1.353   3.614   0.922  0.0056 -0.4068 -0.2704
 2638TIP3    H1 7878   1.353   3.552   0.995  0.1046 -0.2569 -0.1417
 2638TIP3    H2 7879   1.345   3.559   0.844  0.8564 -0.6410 -0.2075
 2639TIP3   OH2 7880   3.671   5.084   1.260  0.1762  0.0792  0.1378
 2639TIP3    H1 7881   3.673   5.024   1.334  1.6262  1.3080  1.1467
 2639TIP3    H2 7882   3.656   5.028   1.184 -0.6446 -1.2902  1.2493
 2640TIP3   OH2 7883   6.108   6.061   1.907  0.1207 -0.1176  0.1229
 2640TIP3    H1 7884   6.105   6.127   1.977  2.5848 -1.1844  1.3851
 2640TIP3    H2 7885   6.113   6.111   1.826 -0.5494  1.1973  0.8724
 2641TIP3   OH2 7886   5.506   5.133   1.823 -0.4286 -0.3636  0.3460
 2641TIP3    H1 7887   5.486   5.040   1.815 -1.4717 -0.3508  2.1472
 2641TIP3    H2 7888   5.576   5.137   1.888 -1.3740  0.1710  1.3553
 2642TIP3   OH2 7889   2.637   1.905   5.583  0.3702  0.1661 -0.2425
 2642TIP3    H1 7890   2.682   1.939   5.660  0.0901  0.9759 -0.4301
 2642TIP3    H2 7891   2.708   1.879   5.523  0.6449  2.1696 -0.8709
 2643TIP3   OH2 7892   4.364   4.340   2.238 -0.0941 -0.2432  0.2030
 2643TIP3    H1 7893   4.433   4.376   2.294  0.9622  0.1789 -1.3140
 2643TIP3    H2 7894   4.352   4.250   2.269  0.1627  0.0906  1.3460
 2644TIP3   OH2 7895   5.370   2.010   1.236 -0.2474 -0.1058 -0.2589
 2644TIP3    H1 7896   5.304   2.028   1.302 -0.3847 -2.4371  0.3257
 2644TIP3    H2 7897   5.453   2.033   1.278 -0.5413  1.8161 -0.6223
 2645TIP3   OH2 7898   6.454   5.860   2.299 -0.0186 -0.0387 -0.1190
 2645TIP3    H1 7899   6.498   5.854   2.215 -0.2979  1.3387 -0.3890
 2645TIP3    H2 7900   6.519   5.898   2.358  0.0487 -0.6247  0.1881
 2646TIP3   OH2 7901   6.221   4.499   3.530 -0.2157  0.3214  0.0433
 2646TIP3    H1 7902   6.271   4.506   3.448  0.3961 -1.6000  0.2137
 2646TIP3    H2 7903   6.151   4.437   3.512 -0.8885  0.8840  0.6230
 2647TIP3   OH2 7904   1.206   3.472   5.343 -0.7879 -0.1987 -0.2902
 2647TIP3    H1 7905   1.269   3.496   5.275 -0.3427 -1.4568 -0.3401
 2647TIP3    H2 7906   1.252   3.488   5.425 -0.4731 -0.8874 -0.3242
 2648TIP3   OH2 7907   1.963   4.258   2.993 -0.1429 -0.0724  0.3152
 2648TIP3    H1 7908   1.995   4.217   2.913 -0.7379 -0.8402  0.4550
 2648TIP3    H2 7909   1.944   4.348   2.969  1.6494  0.2904  0.1092
 2649TIP3   OH2 7910   5.714   5.769   3.539  0.0144 -0.2639  0.2705
 2649TIP3    H1 7911   5.752   5.843   3.587 -0.8124 -1.4679  2.9512
 2649TIP3    H2 7912   5.788   5.727   3.496  1.0124  0.1326  1.5638
 2650TIP3   OH2 7913   2.618   4.741   0.054  0.4913 -0.0829  0.0626
 2650TIP3    H1 7914   2.707   4.750   0.019  0.4028 -0.3159 -0.2260
 2650TIP3    H2 7915   2.611   4.648   0.077  0.1846 -0.1475 -0.2876
 2651TIP3   OH2 7916   2.094   6.480   2.633 -0.1147  0.1632 -0.1551
 2651TIP3    H1 7917   2.133   6.398   2.604 -0.2067  0.4741 -1.2171
 2651TIP3    H2 7918   2.145   6.548   2.589  1.3651  0.8211  2.3603
 2652TIP3   OH2 7919   4.345   5.150   3.138 -0.2443  0.4191 -0.1409
 2652TIP3    H1 7920   4.315   5.187   3.221  0.9560 -0.0910  0.5493
 2652TIP3    H2 7921   4.441   5.156   3.142 -0.1605  3.0596 -2.7484
 2653TIP3   OH2 7922   6.187   1.678   0.242 -0.2011 -0.4213 -0.1169
 2653TIP3    H1 7923   6.204   1.616   0.314 -0.7151  0.2161  0.5620
 2653TIP3    H2 7924   6.223   1.634   0.164  0.1403 -1.2308  0.4804
 2654TIP3   OH2 7925   6.436   3.399   1.505  0.0722  0.1605  0.4227
 2654TIP3    H1 7926   6.501   3.469   1.504  0.1805  0.1203  1.9155
 2654TIP3    H2 7927   6.394   3.404   1.419  1.1794  1.0001 -0.0980
 2655TIP3   OH2 7928   0.471   1.491   1.251  0.1481 -0.2909  0.5382
 2655TIP3    H1 7929   0.380   1.511   1.277 -0.0683 -0.1435 -0.3025
 2655TIP3    H2 7930   0.517   1.574   1.260 -0.2507  0.1142 -0.8455
 2656TIP3   OH2 7931   0.626   0.718   4.015 -0.0731 -0.2893 -0.5621
 2656TIP3    H1 7932   0.581   0.703   3.932 -0.7539 -0.7335 -0.1158
 2656TIP3    H2 7933   0.573   0.783   4.060 -0.3756 -0.9380  0.0379
 2657TIP3   OH2 7934   2.738   5.482   2.653 -0.6267 -0.0692 -0.1307
 2657TIP3    H1 7935   2.648   5.484   2.683 -0.0839 -0.2972  1.6540
 2657TIP3    H2 7936   2.769   5.572   2.663 -0.4294 -0.1574  0.1001
 2658TIP3   OH2 7937   2.401   4.806   1.584  0.2483  0.5850 -0.1726
 2658TIP3    H1 7938   2.320   4.758   1.603 -0.7061  2.0667 -0.3269
 2658TIP3    H2 7939   2.459   4.785   1.658  0.0635 -1.1754 -0.4906
 2659TIP3   OH2 7940   7.133   2.925   2.336 -0.3648 -0.6698  0.2187
 2659TIP3    H1 7941   7.068   2.974   2.386  0.1199 -0.0049  0.2149
 2659TIP3    H2 7942   7.144   2.843   2.383 -0.7638 -0.5315  0.5546
 2660TIP3   OH2 7943   6.196   6.723   4.188  0.1564  0.4604  0.0320
 2660TIP3    H1 7944   6.132   6.780   4.230 -0.6709  0.2551 -0.9186
 2660TIP3    H2 7945   6.159   6.704   4.102  1.6114  0.5430 -0.6466
 2661TIP3   OH2 7946   0.068   2.551   5.139 -0.2168  0.4374  0.4697
 2661TIP3    H1 7947  -0.005   2.590   5.188  0.5294  1.8933  0.4949
 2661TIP3    H2 7948   0.135   2.619   5.139  0.9608 -0.6884  0.0247
 2662TIP3   OH2 7949   2.099   0.932   5.654  0.2421  0.0908  0.2118
 2662TIP3    H1 7950   2.023   0.901   5.703 -0.9809  0.8679 -1.0979
 2662TIP3    H2 7951   2.134   0.853   5.612 -1.8154  0.1089 -1.7300
 2663TIP3   OH2 7952   3.417   2.907   1.387  0.1209 -0.2307  0.0228
 2663TIP3    H1 7953   3.389   2.913   1.296  1.3298 -1.1725 -0.4451
 2663TIP3    H2 7954   3.495   2.963   1.392 -0.6570  0.8168  0.8084
 2664TIP3   OH2 7955   3.261   1.924   3.933  0.3379  0.1820 -0.0844
 2664TIP3    H1 7956   3.240   1.929   3.840  1.8111 -0.9753 -0.5273
 2664TIP3    H2 7957   3.177   1.903   3.976  0.0667 -1.9465 -1.4798
 2665TIP3   OH2 7958   6.255   0.642   3.961  0.3966  0.3877  0.5988
 2665TIP3    H1 7959   6.248   0.577   4.032  0.9078 -1.9014 -1.3151
 2665TIP3    H2 7960   6.329   0.612   3.909  0.3833  2.3287 -0.6254
 2666TIP3   OH2 7961   5.119   1.859   3.428 -0.2867 -0.3290 -0.5861
 2666TIP3    H1 7962   5.204   1.827   3.459  0.4344 -0.8954 -2.9440
 2666TIP3    H2 7963   5.119   1.841   3.334 -2.8500  0.0848 -0.7494
 2667TIP3   OH2 7964   1.103   5.979   4.357  0.2875  0.4084  0.2031
 2667TIP3    H1 7965   1.154   6.060   4.360 -0.5317  1.0789 -2.0027
 2667TIP3    H2 7966   1.127   5.939   4.273  0.0504 -1.2322  0.8851
 2668TIP3   OH2 7967   0.336   5.396   0.929  0.1806 -0.0499 -0.2427
 2668TIP3    H1 7968   0.327   5.433   1.017  0.6058  0.5950 -0.4643
 2668TIP3    H2 7969   0.375   5.310   0.943 -1.2121 -0.6227  0.3111
 2669TIP3   OH2 7970   0.791   2.222   3.641 -0.0509  0.2963 -0.0659
 2669TIP3    H1 7971   0.770   2.128   3.643  0.3138  0.1585 -1.5455
 2669TIP3    H2 7972   0.706   2.265   3.631 -0.1567  0.0995 -0.0269
 2670TIP3   OH2 7973  -0.002   1.441   4.418  0.1422  0.2076 -0.4417
 2670TIP3    H1 7974   0.044   1.522   4.442  0.1317  0.6204 -1.7245
 2670TIP3    H2 7975  -0.035   1.458   4.330 -2.5927 -0.0106  0.4457
 2671TIP3   OH2 7976   6.358   5.865   3.607  0.5225  0.2315 -0.2851
 2671TIP3    H1 7977   6.414   5.866   3.529  0.7518 -2.4761 -0.2497
 2671TIP3    H2 7978   6.269   5.856   3.572  0.4878  0.4136 -0.2462
 2672TIP3   OH2 7979   1.446   6.078   2.765  0.3657 -0.8825  1.0225
 2672TIP3    H1 7980   1.383   6.066   2.694  2.3910 -0.7843 -0.9278
 2672TIP3    H2 7981   1.414   6.022   2.836 -2.1184 -0.4410  0.3452
 2673TIP3   OH2 7982   4.542   3.476   0.356  0.6869  0.2787 -0.2366
 2673TIP3    H1 7983   4.553   3.409   0.290  0.6343 -0.5817  0.6026
 2673TIP3    H2 7984   4.630   3.514   0.367  0.7282  0.3091 -0.6768
 2674TIP3   OH2 7985   1.318   0.459   0.464 -0.5223  0.0498  0.2790
 2674TIP3    H1 7986   1.277   0.541   0.435 -0.6014 -0.1279 -0.1174
 2674TIP3    H2 7987   1.279   0.392   0.409  0.2688 -0.1235 -0.0905
 2675TIP3   OH2 7988   6.018   5.767   1.229  0.7280 -0.3996  0.4424
 2675TIP3    H1 7989   6.092   5.708   1.230  0.7298 -0.3872  1.9205
 2675TIP3    H2 7990   5.975   5.755   1.313 -0.3737  0.3229  0.0152
 2676TIP3   OH2 7991   1.406   3.719   4.963  0.9118 -0.1003  0.0858
 2676TIP3    H1 7992   1.468   3.654   4.930  0.4815 -0.9627  0.9379
 2676TIP3    H2 7993   1.460   3.786   5.005  1.2740 -0.8358  0.8103
 2677TIP3   OH2 7994   2.457   5.653   3.544  0.0604  0.1714 -0.1393
 2677TIP3    H1 7995   2.434   5.731   3.494  2.1162  1.2147  0.4227
 2677TIP3    H2 7996   2.412   5.582   3.499 -0.7350  1.4745 -1.5214
 2678TIP3   OH2 7997   4.201   5.239   0.360 -0.1155 -0.6341  0.1467
 2678TIP3    H1 7998   4.139   5.231   0.287 -0.6991  1.0694  0.3920
 2678TIP3    H2 7999   4.281   5.274   0.320 -0.0460 -0.7922  0.1484
 2679TIP3   OH2 8000   1.148   0.354   1.401  0.6902  0.0045 -0.2769
 2679TIP3    H1 8001   1.077   0.301   1.438  1.5927 -0.1433  1.3263
 2679TIP3    H2 8002   1.105   0.435   1.373 -0.3899 -0.7821 -0.9977
 2680TIP3   OH2 8003   0.665   5.641   3.274  0.1092  0.4276  0.0390
 2680TIP3    H1 8004   0.675   5.714   3.335  0.6509  0.5072 -0.1374
 2680TIP3    H2 8005   0.738   5.651   3.213  0.5340 -0.5869  0.3602
 2681TIP3   OH2 8006   5.804   1.724   0.470 -0.3416 -0.5985 -0.1593
 2681TIP3    H1 8007   5.898   1.717   0.482 -0.4223 -1.1923  0.1438
 2681TIP3    H2 8008   5.793   1.751   0.379  0.1026 -0.9883 -0.3286
 2682TIP3   OH2 8009   5.060   4.102   1.432  0.7345  0.3049  0.1615
 2682TIP3    H1 8010   5.045   4.027   1.489  0.1411  0.8459  0.7259
 2682TIP3    H2 8011   4.977   4.114   1.385  0.5489  1.0873  0.6597
 2683TIP3   OH2 8012   2.650   2.657   1.716  0.7177  0.6772  0.1107
 2683TIP3    H1 8013   2.600   2.605   1.653  1.6315  0.8086 -0.7505
 2683TIP3    H2 8014   2.706   2.593   1.761 -0.7198  0.4150  1.6157
 2684TIP3   OH2 8015   0.365   5.541   3.693 -0.2749  0.0013  0.5372
 2684TIP3    H1 8016   0.320   5.582   3.619  0.2768 -0.3816 -0.0199
 2684TIP3    H2 8017   0.457   5.538   3.667 -0.1718 -0.7598  0.9457
 2685TIP3   OH2 8018   0.699   6.273   5.798 -0.4030 -0.5902  0.1737
 2685TIP3    H1 8019   0.721   6.182   5.778  1.3430 -0.4665  1.2747
 2685TIP3    H2 8020   0.676   6.311   5.713 -1.7284 -2.1614 -0.2197
 2686TIP3   OH2 8021   4.620   5.220   1.388 -0.2069 -0.2125  0.2643
 2686TIP3    H1 8022   4.651   5.302   1.350 -0.6971 -0.6238 -1.0645
 2686TIP3    H2 8023   4.669   5.212   1.470 -1.1353  2.0697  1.1135
 2687TIP3   OH2 8024   1.081   0.644   0.556  0.3379  0.4371 -0.3620
 2687TIP3    H1 8025   1.117   0.724   0.595  1.0291  0.1240 -0.3347
 2687TIP3    H2 8026   1.074   0.582   0.629  2.2465 -0.3640 -0.7919
 2688TIP3   OH2 8027   4.757   4.501   0.936 -0.1373 -0.1726 -0.3759
 2688TIP3    H1 8028   4.768   4.568   0.868 -0.3368  0.2628  0.0166
 2688TIP3    H2 8029   4.687   4.445   0.904  0.4036 -0.5249 -0.9660
 2689TIP3   OH2 8030   2.131   4.678   2.790  0.6625 -0.3574  0.2958
 2689TIP3    H1 8031   2.225   4.685   2.775  0.7826  0.9685  1.3961
 2689TIP3    H2 8032   2.115   4.736   2.865 -1.1350  0.0040 -0.3247
 2690TIP3   OH2 8033   2.362   1.184   4.268 -0.3420 -0.9612 -0.7580
 2690TIP3    H1 8034   2.272   1.155   4.283 -0.7767  1.6025  2.7363
 2690TIP3    H2 8035   2.353   1.269   4.225  0.5847 -1.5704 -2.2754
 2691TIP3   OH2 8036   4.844   4.848   3.059 -0.4442 -0.3114 -0.4702
 2691TIP3    H1 8037   4.897   4.771   3.078 -0.2506 -0.3241 -1.0529
 2691TIP3    H2 8038   4.817   4.837   2.968 -1.5910 -0.3896 -0.1423
 2692TIP3   OH2 8039   5.997   1.606   0.822  0.0183  0.2875  0.3416
 2692TIP3    H1 8040   6.027   1.529   0.775 -1.5392  0.5146 -1.1041
 2692TIP3    H2 8041   5.921   1.576   0.871 -0.4649  0.8578 -0.0573
 2693TIP3   OH2 8042   0.982   4.942   1.193 -0.0785 -0.1649  0.4583
 2693TIP3    H1 8043   0.942   4.927   1.279 -1.1466 -0.8078 -0.1225
 2693TIP3    H2 8044   0.908   4.963   1.136  0.2922 -1.9776 -0.7787
 2694TIP3   OH2 8045   5.608   4.770   1.960  0.1754 -0.1411  0.4198
 2694TIP3    H1 8046   5.678   4.706   1.947 -0.0407 -0.3912  0.4743
 2694TIP3    H2 8047   5.618   4.799   2.050 -1.0215 -1.6856  1.1004
 2695TIP3   OH2 8048   4.311   3.662   5.561  0.5484 -0.0393 -0.1040
 2695TIP3    H1 8049   4.348   3.633   5.477  2.6919  1.1029  0.3818
 2695TIP3    H2 8050   4.324   3.587   5.620 -1.6044 -1.1111 -0.9048
 2696TIP3   OH2 8051   3.387   2.607   3.307 -0.0330 -0.1399  0.5359
 2696TIP3    H1 8052   3.418   2.539   3.367  0.7040  0.1140  0.4495
 2696TIP3    H2 8053   3.467   2.645   3.270 -0.4667  0.0299 -0.2460
 2697TIP3   OH2 8054   0.951   0.904   3.325 -0.0826  0.2461 -0.5879
 2697TIP3    H1 8055   0.937   0.991   3.363 -2.9900 -0.1440 -0.5879
 2697TIP3    H2 8056   0.907   0.845   3.386  1.1371 -1.1831 -1.0405
 2698TIP3   OH2 8057   2.752   1.609   4.042 -0.1636 -0.5089  0.4358
 2698TIP3    H1 8058   2.835   1.649   4.017 -0.1238 -0.6541  0.3389
 2698TIP3    H2 8059   2.687   1.677   4.024 -0.1821 -0.7442 -0.4187
 2699TIP3   OH2 8060   1.319   5.901   5.835  0.1992  0.0383  0.2404
 2699TIP3    H1 8061   1.384   5.876   5.770 -0.0850 -0.9115  0.2931
 2699TIP3    H2 8062   1.368   5.953   5.899  1.0210 -1.0408  0.5198
 2700TIP3   OH2 8063   5.908   4.029   4.481  0.0655 -0.2955 -0.5416
 2700TIP3    H1 8064   5.902   4.105   4.539 -0.6788 -0.5054 -0.3234
 2700TIP3    H2 8065   5.986   3.982   4.510 -1.0499 -1.1624  1.2700
 2701TIP3   OH2 8066   2.459   5.528   3.276  0.2400 -0.0675 -0.2827
 2701TIP3    H1 8067   2.532   5.475   3.309 -0.4363  0.2176  1.8052
 2701TIP3    H2 8068   2.479   5.617   3.305 -1.2251 -0.0905  0.9400
 2702TIP3   OH2 8069   5.883   1.727   1.660  0.6343  0.0093  0.3985
 2702TIP3    H1 8070   5.924   1.658   1.711  1.3043  1.4422  1.8999
 2702TIP3    H2 8071   5.855   1.792   1.725 -0.2107  1.0358 -0.9219
 2703TIP3   OH2 8072   5.866   2.506   4.198 -0.0367 -0.0653 -0.5466
 2703TIP3    H1 8073   5.840   2.417   4.176 -0.4197  0.0452 -0.5362
 2703TIP3    H2 8074   5.878   2.504   4.293 -1.6846  0.3079 -0.2991
 2704TIP3   OH2 8075   0.443   4.466   5.541 -0.6100 -0.9792 -0.3758
 2704TIP3    H1 8076   0.406   4.509   5.464  1.1870  1.9133  0.2590
 2704TIP3    H2 8077   0.508   4.404   5.505 -0.3218 -0.2002 -1.2273
 2705TIP3   OH2 8078   1.257   5.461   0.976  0.1120  0.3274  0.1919
 2705TIP3    H1 8079   1.228   5.471   1.067 -1.7918 -0.1575 -0.3288
 2705TIP3    H2 8080   1.327   5.396   0.981  1.4703  1.7595  1.5212
 2706TIP3   OH2 8081   6.669   6.206   0.400  0.1380 -0.1530 -0.4091
 2706TIP3    H1 8082   6.680   6.298   0.421 -0.9639 -0.0576 -0.1934
 2706TIP3    H2 8083   6.753   6.166   0.423  0.6147  0.7805 -0.4753
 2707TIP3   OH2 8084   2.683   4.524   5.232  0.2102  0.5119  0.2378
 2707TIP3    H1 8085   2.687   4.479   5.148  1.2607  0.0510  0.5209
 2707TIP3    H2 8086   2.594   4.507   5.264  0.4697 -1.1122  0.1969
 2708TIP3   OH2 8087   0.322   0.478   5.860 -0.5912 -0.3559  0.0646
 2708TIP3    H1 8088   0.368   0.522   5.789  2.1295 -2.7490  0.1587
 2708TIP3    H2 8089   0.286   0.399   5.819  0.1933 -1.2860  1.1314
 2709TIP3   OH2 8090   5.219   0.784   3.741 -0.0611  0.4677  0.3583
 2709TIP3    H1 8091   5.128   0.807   3.720 -0.0535 -0.4010 -0.7107
 2709TIP3    H2 8092   5.245   0.849   3.807 -1.3768  0.8693  0.5227
 2710TIP3   OH2 8093   6.029   5.542   4.707 -0.4881 -0.2497 -0.3339
 2710TIP3    H1 8094   5.968   5.606   4.670 -0.3408  0.0833 -0.0139
 2710TIP3    H2 8095   6.099   5.595   4.746  0.9449 -0.6519 -2.2313
 2711TIP3   OH2 8096   0.136   2.400   1.425 -0.1146  0.2122 -0.3788
 2711TIP3    H1 8097   0.207   2.343   1.457 -0.6794 -0.3187 -0.0534
 2711TIP3    H2 8098   0.056   2.350   1.442 -0.6997  1.4674  0.7259
 2712TIP3   OH2 8099   5.900   2.346   2.152 -0.0800  0.0597  0.1928
 2712TIP3    H1 8100   5.938   2.384   2.231  2.1123 -0.5900 -0.4711
 2712TIP3    H2 8101   5.891   2.253   2.173 -0.9840  0.1449  0.2047
 2713TIP3   OH2 8102   4.956   5.696   0.783  0.0584 -0.0492 -0.0612
 2713TIP3    H1 8103   5.009   5.748   0.843 -1.7612 -0.9600  2.5489
 2713TIP3    H2 8104   4.930   5.619   0.834 -3.1237 -0.0109 -1.3445
 2714TIP3   OH2 8105   3.847   2.314   4.496  0.0485 -0.4205  0.1592
 2714TIP3    H1 8106   3.768   2.265   4.520 -0.5485  0.4952  0.1505
 2714TIP3    H2 8107   3.838   2.397   4.543  1.4842 -0.6546  0.9134
 2715TIP3   OH2 8108   5.893   6.529   0.953 -0.4003 -0.8734 -0.2112
 2715TIP3    H1 8109   5.965   6.485   0.909  0.2768 -0.1262  0.1185
 2715TIP3    H2 8110   5.925   6.543   1.042 -0.7579 -0.0894 -0.1992
 2716TIP3   OH2 8111   3.443   6.653   1.504 -0.1116 -0.3515 -0.0190
 2716TIP3    H1 8112   3.455   6.643   1.599  1.6812  1.8942  0.0774
 2716TIP3    H2 8113   3.410   6.742   1.494 -0.7851 -0.7429 -1.5095
 2717TIP3   OH2 8114   2.899   6.223   3.079  0.4757 -0.1630 -0.5856
 2717TIP3    H1 8115   2.861   6.305   3.111 -1.8171 -2.0645  2.0610
 2717TIP3    H2 8116   2.851   6.205   2.999 -1.2322 -0.3528  0.4292
 2718TIP3   OH2 8117   5.918   6.065   3.318 -0.1619  0.4067  0.4409
 2718TIP3    H1 8118   5.832   6.025   3.330  0.0511 -0.4689 -0.7488
 2718TIP3    H2 8119   5.966   6.046   3.399 -0.8277  0.2407  0.7995
 2719TIP3   OH2 8120   3.150   0.700   0.720  0.8572  0.5286  0.5575
 2719TIP3    H1 8121   3.130   0.774   0.778  1.5593  0.2831  1.1241
 2719TIP3    H2 8122   3.092   0.713   0.645  0.3669  1.1890  1.0322
 2720TIP3   OH2 8123   0.125   1.244   3.808 -0.0070 -0.2739  0.1442
 2720TIP3    H1 8124   0.086   1.190   3.877 -2.1142  1.2155  0.1897
 2720TIP3    H2 8125   0.217   1.251   3.833 -0.4216 -0.9427  2.0380
 2721TIP3   OH2 8126   4.326   4.226   4.272 -0.6276  0.1773  0.1139
 2721TIP3    H1 8127   4.387   4.298   4.253 -0.8224 -0.1245 -1.9043
 2721TIP3    H2 8128   4.352   4.195   4.358  0.3848  1.7420  0.4264
 2722TIP3   OH2 8129   5.330   1.605   2.599 -0.0619 -0.2066  0.4587
 2722TIP3    H1 8130   5.412   1.607   2.549  1.7249 -0.3428  3.1853
 2722TIP3    H2 8131   5.284   1.527   2.566  1.2706 -0.6142 -0.5523
 2723TIP3   OH2 8132   5.505   0.335   1.219 -0.0713 -0.0612  0.4048
 2723TIP3    H1 8133   5.557   0.259   1.247  0.9395  0.9929  1.5185
 2723TIP3    H2 8134   5.455   0.304   1.143 -0.0508 -1.9682  1.1162
 2724TIP3   OH2 8135   6.967   2.866   3.307  0.4193 -0.2402 -0.2355
 2724TIP3    H1 8136   6.944   2.785   3.262 -0.7113  0.8483 -1.7474
 2724TIP3    H2 8137   7.050   2.892   3.267  0.5385 -0.4143 -0.1000
 2725TIP3   OH2 8138   3.092   4.705   1.472  0.4527  0.1860  0.2589
 2725TIP3    H1 8139   3.173   4.715   1.522  0.5484  3.1716 -0.3127
 2725TIP3    H2 8140   3.067   4.794   1.449 -1.7211 -0.8169 -1.6609
 2726TIP3   OH2 8141   2.911   3.237   4.654  0.2394  0.2345  0.1582
 2726TIP3    H1 8142   2.870   3.194   4.580  0.1503 -1.5408  1.1823
 2726TIP3    H2 8143   2.838   3.255   4.715  0.8034 -2.8311  1.9358
 2727TIP3   OH2 8144   1.637   4.471   0.004  0.0011  0.3069 -0.1684
 2727TIP3    H1 8145   1.647   4.550  -0.049  2.4021  0.6328  0.6329
 2727TIP3    H2 8146   1.611   4.503   0.091 -1.5820 -0.0417 -0.4759
 2728TIP3   OH2 8147   2.129   1.598   0.955 -0.0205  0.9354 -0.4614
 2728TIP3    H1 8148   2.123   1.640   0.869 -2.2679 -1.4819 -1.6343
 2728TIP3    H2 8149   2.046   1.621   0.997  1.0639  2.1027  1.1545
 2729TIP3   OH2 8150   2.286   6.322   0.215  0.6592  0.1882  0.1741
 2729TIP3    H1 8151   2.344   6.316   0.139  0.3914 -0.5536  0.0189
 2729TIP3    H2 8152   2.246   6.408   0.208  1.0596  0.3474 -0.2191
 2730TIP3   OH2 8153   2.982   0.710   3.632 -0.3078 -0.0916  0.0169
 2730TIP3    H1 8154   2.973   0.642   3.566 -1.3396  0.1694 -0.1262
 2730TIP3    H2 8155   2.935   0.676   3.708 -0.0423  0.0651  0.2529
 2731TIP3   OH2 8156   5.163   6.224   3.212 -0.1572  0.1380  0.3899
 2731TIP3    H1 8157   5.138   6.288   3.145 -1.6820 -1.1305 -0.3371
 2731TIP3    H2 8158   5.093   6.229   3.277 -0.0966 -0.5236  0.5109
 2732TIP3   OH2 8159   2.113   1.285   5.038 -0.2591  0.0962 -0.3915
 2732TIP3    H1 8160   2.056   1.236   4.979 -0.4178  0.3335 -0.4374
 2732TIP3    H2 8161   2.153   1.219   5.094 -0.7770 -0.0501 -0.1905
 2733TIP3   OH2 8162   4.304   1.478   2.735 -0.0409 -0.2613  0.1751
 2733TIP3    H1 8163   4.375   1.539   2.717  0.0382 -0.5152 -0.4054
 2733TIP3    H2 8164   4.253   1.520   2.804  1.7099 -0.9203  1.9541
 2734TIP3   OH2 8165   6.552   0.546   3.576 -0.2456  0.1395 -0.2373
 2734TIP3    H1 8166   6.496   0.615   3.611 -0.3600  0.5013 -1.1071
 2734TIP3    H2 8167   6.637   0.589   3.563 -0.4284  0.2388 -1.1646
 2735TIP3   OH2 8168   5.717   5.137   1.976 -0.3050 -0.0588  0.3900
 2735TIP3    H1 8169   5.738   5.158   2.066 -1.2916 -0.9324  0.8588
 2735TIP3    H2 8170   5.800   5.115   1.935  0.0702 -0.3099  1.2787
 2736TIP3   OH2 8171   6.181   5.078   4.626 -0.2983 -0.3064  0.1628
 2736TIP3    H1 8172   6.185   5.171   4.645 -2.4913 -0.3093  0.8829
 2736TIP3    H2 8173   6.273   5.051   4.621  0.4115  1.4325  2.1500
 2737TIP3   OH2 8174   4.668   3.956   4.231  0.4908  0.6823 -0.1946
 2737TIP3    H1 8175   4.582   3.966   4.191  0.3255  0.1748  0.0224
 2737TIP3    H2 8176   4.669   4.018   4.304 -0.3242 -0.4618  0.8265
 2738TIP3   OH2 8177   2.503   6.085   0.286  0.3073  0.2349 -0.2394
 2738TIP3    H1 8178   2.516   6.122   0.198 -1.1992 -0.0708 -0.6183
 2738TIP3    H2 8179   2.520   5.992   0.275  0.0956  0.1933 -0.2237
 2739TIP3   OH2 8180   6.423   5.316   1.086 -0.1263  0.1857  0.2927
 2739TIP3    H1 8181   6.425   5.391   1.145 -1.4057  0.3145  0.2109
 2739TIP3    H2 8182   6.400   5.354   1.001 -1.7429 -0.3600  0.4354
 2740TIP3   OH2 8183   6.109   3.510   2.298 -0.4200  0.1936  0.4313
 2740TIP3    H1 8184   6.137   3.418   2.303 -0.8466  0.0983  1.2861
 2740TIP3    H2 8185   6.041   3.510   2.231  0.9644  0.2678 -1.0326
 2741TIP3   OH2 8186   0.309   2.048   4.120  0.0354 -0.1205  1.3294
 2741TIP3    H1 8187   0.215   2.032   4.126 -0.1910  0.4558 -0.3341
 2741TIP3    H2 8188   0.324   2.123   4.179 -0.6582  0.2065  1.1018
 2742TIP3   OH2 8189   6.965   3.021   0.295 -0.4697 -0.3883 -0.2096
 2742TIP3    H1 8190   6.979   3.036   0.389  0.6642 -0.0469 -0.4184
 2742TIP3    H2 8191   6.898   2.953   0.291 -0.7056 -0.2295  0.8470
 2743TIP3   OH2 8192   1.770   0.421   2.990  0.1739 -0.5095  0.0226
 2743TIP3    H1 8193   1.713   0.457   2.922  1.9268  1.0956 -0.6657
 2743TIP3    H2 8194   1.729   0.337   3.013 -1.4054 -0.3001 -1.7675
 2744TIP3   OH2 8195   1.856   5.107   1.257 -0.0205  0.1981  0.0136
 2744TIP3    H1 8196   1.792   5.177   1.249 -0.4664 -0.1294  0.6505
 2744TIP3    H2 8197   1.804   5.029   1.277  0.1649 -0.8948 -3.1075
 2745TIP3   OH2 8198   3.352   6.390   2.115 -0.5300  0.2962 -0.5587
 2745TIP3    H1 8199   3.329   6.453   2.047  0.8866 -0.3098 -1.6236
 2745TIP3    H2 8200   3.419   6.434   2.168 -0.7926  0.3289 -0.2480
 2746TIP3   OH2 8201   2.307   4.302   4.802 -0.7372  0.9406 -0.3915
 2746TIP3    H1 8202   2.390   4.279   4.844 -0.4028  2.0653 -0.3896
 2746TIP3    H2 8203   2.322   4.389   4.766 -2.4564  1.9609  1.1457
 2747TIP3   OH2 8204   0.878   1.127   1.532 -0.0471  0.1124 -0.0256
 2747TIP3    H1 8205   0.854   1.180   1.456  2.0676  0.6563 -0.3647
 2747TIP3    H2 8206   0.941   1.063   1.499  0.8314  0.2861  1.2385
 2748TIP3   OH2 8207   6.215   4.323   5.055  0.2379 -0.2194  0.1828
 2748TIP3    H1 8208   6.249   4.340   4.968  0.8713  0.3546  0.5292
 2748TIP3    H2 8209   6.208   4.410   5.096 -0.3268 -0.4554  0.6016
 2749TIP3   OH2 8210   7.166   4.017   4.781 -0.2532 -0.1489 -0.2931
 2749TIP3    H1 8211   7.259   4.028   4.757 -0.2081 -0.0916 -0.0957
 2749TIP3    H2 8212   7.156   4.071   4.860 -0.2409 -0.8444  0.1928
 2750TIP3   OH2 8213   4.145   2.003   1.772  1.1140 -0.0717  0.6735
 2750TIP3    H1 8214   4.188   1.988   1.688  0.6087 -0.5046  0.4825
 2750TIP3    H2 8215   4.062   1.955   1.765 -0.1253  1.9598  0.4433
 2751TIP3   OH2 8216   1.513   0.050   2.091  0.1989 -0.1852  0.5714
 2751TIP3    H1 8217   1.561  -0.033   2.087 -1.7446 -1.3222 -2.0136
 2751TIP3    H2 8218   1.458   0.050   2.012 -2.3436  2.0344  2.1632
 2752TIP3   OH2 8219   4.508   6.769   5.565  0.0721  0.6929  0.6273
 2752TIP3    H1 8220   4.511   6.680   5.600  2.8213 -0.1367 -1.3768
 2752TIP3    H2 8221   4.539   6.824   5.637 -1.4038  0.0756  1.8025
 2753TIP3   OH2 8222   6.827   4.035   1.216 -0.1940  0.2679 -0.3440
 2753TIP3    H1 8223   6.820   4.083   1.298  2.1208 -1.6603  1.1116
 2753TIP3    H2 8224   6.888   4.086   1.163 -0.8121  0.9146 -0.4616
 2754TIP3   OH2 8225   5.988   2.303   3.372  0.5791  0.1904 -0.1110
 2754TIP3    H1 8226   5.935   2.238   3.418  0.8387 -0.8335 -1.2015
 2754TIP3    H2 8227   6.077   2.287   3.402  0.4093  1.3692  1.1003
 2755TIP3   OH2 8228   3.585   2.134   0.090  0.0347 -0.1684 -0.4409
 2755TIP3    H1 8229   3.518   2.177   0.143  2.1913  0.7782  1.6797
 2755TIP3    H2 8230   3.553   2.140   0.000 -2.9131 -0.2087  0.5099
 2756TIP3   OH2 8231   1.324   5.961   4.156  0.0593 -0.0520 -0.2829
 2756TIP3    H1 8232   1.288   5.971   4.068  1.8514  0.5551 -0.9895
 2756TIP3    H2 8233   1.328   5.866   4.169  1.6178 -0.2283 -1.7043
 2757TIP3   OH2 8234   4.791   2.713   4.871  0.1449  0.4328 -0.7363
 2757TIP3    H1 8235   4.726   2.700   4.940 -0.2044 -1.4391 -1.3454
 2757TIP3    H2 8236   4.748   2.770   4.807 -0.2071  0.7022 -0.2594
 2758TIP3   OH2 8237   2.375   6.709   3.523  0.5833  0.2301 -0.0575
 2758TIP3    H1 8238   2.308   6.743   3.583  0.7520 -0.6072  0.6278
 2758TIP3    H2 8239   2.423   6.787   3.495 -0.9856  0.9272 -0.9884
 2759TIP3   OH2 8240   5.190  -0.003   0.873 -0.0488 -0.1391 -0.0313
 2759TIP3    H1 8241   5.108  -0.019   0.921 -1.0523  0.6896 -1.4050
 2759TIP3    H2 8242   5.179   0.084   0.836  0.8798 -0.5732 -1.3796
 2760TIP3   OH2 8243   2.085   4.170   1.683  0.3465 -0.1063  0.2565
 2760TIP3    H1 8244   2.048   4.123   1.608  0.4827  3.0243 -1.9289
 2760TIP3    H2 8245   2.177   4.143   1.685  0.5066  0.2545 -1.1651
 2761TIP3   OH2 8246   4.904   2.902   1.467  0.1180 -0.4443  0.6348
 2761TIP3    H1 8247   4.999   2.893   1.470  0.0511 -1.1458  0.8830
 2761TIP3    H2 8248   4.889   2.977   1.410  0.9013  1.7408  3.1260
 2762TIP3   OH2 8249   1.119   2.806   1.832  0.2234  0.2970 -0.0027
 2762TIP3    H1 8250   1.159   2.750   1.765 -1.1466 -1.6926  0.7370
 2762TIP3    H2 8251   1.076   2.876   1.782  1.8958  0.6845 -0.9704
 2763TIP3   OH2 8252   3.411   6.417   5.883 -0.4929 -0.7989 -0.4182
 2763TIP3    H1 8253   3.398   6.477   5.810  0.1328 -0.5293 -0.3160
 2763TIP3    H2 8254   3.329   6.369   5.890 -0.7930 -0.3551 -0.8678
 2764TIP3   OH2 8255   3.724   3.032   5.480  0.0885  0.2921  0.4670
 2764TIP3    H1 8256   3.818   3.046   5.477  0.4468 -1.9867 -0.8843
 2764TIP3    H2 8257   3.709   2.979   5.558  0.0118  0.1064  0.3275
 2765TIP3   OH2 8258   1.063   3.452   4.746  0.1448  0.5091 -0.6145
 2765TIP3    H1 8259   1.055   3.365   4.707  0.9692  0.2009 -0.1278
 2765TIP3    H2 8260   1.143   3.488   4.709 -0.2045  1.0751 -0.8270
 2766TIP3   OH2 8261   1.148   0.957   1.251 -0.1013 -0.0721  0.0525
 2766TIP3    H1 8262   1.138   0.879   1.307 -0.6154  0.0208  0.0968
 2766TIP3    H2 8263   1.216   1.008   1.293  0.5308 -0.6941 -0.1986
 2767TIP3   OH2 8264   4.682   2.901   0.108 -0.4105 -0.1654 -0.4353
 2767TIP3    H1 8265   4.738   2.978   0.116  1.0760 -1.3142  0.6640
 2767TIP3    H2 8266   4.737   2.828   0.136 -1.4399 -1.7934 -2.3856
 2768TIP3   OH2 8267   4.154   0.505   1.585 -0.4739 -0.0404 -0.0994
 2768TIP3    H1 8268   4.105   0.485   1.664  1.3685 -2.4344  0.5458
 2768TIP3    H2 8269   4.245   0.486   1.607  0.2762  0.5027 -2.4017
 2769TIP3   OH2 8270   0.852   2.966   0.469  0.1196  0.6883  0.2202
 2769TIP3    H1 8271   0.885   3.053   0.451  1.8747  0.1316  0.5661
 2769TIP3    H2 8272   0.922   2.922   0.517  0.0146 -1.4613 -1.3984
 2770TIP3   OH2 8273   1.582   1.935   5.610 -0.0323  0.0381 -0.0043
 2770TIP3    H1 8274   1.493   1.958   5.636 -0.7678 -1.2079 -1.2335
 2770TIP3    H2 8275   1.625   2.019   5.595 -0.0664  0.7832  3.2887
 2771TIP3   OH2 8276   6.249   3.775   2.129  0.6443 -0.5799  0.7912
 2771TIP3    H1 8277   6.203   3.693   2.147  0.9804 -0.5974  1.6221
 2771TIP3    H2 8278   6.326   3.772   2.185  1.8673 -0.7117 -0.8269
 2772TIP3   OH2 8279   3.059   2.818   5.669  0.3503  0.1000  0.0394
 2772TIP3    H1 8280   3.027   2.888   5.613 -0.2216 -0.7113 -0.6882
 2772TIP3    H2 8281   3.092   2.752   5.608  0.1153 -0.6171  0.6724
 2773TIP3   OH2 8282   5.612   1.048   2.154  0.0893 -0.3244  0.5346
 2773TIP3    H1 8283   5.659   1.105   2.093  0.6580 -0.7314  0.5824
 2773TIP3    H2 8284   5.634   1.082   2.241  1.1815 -1.1680  0.6036
 2774TIP3   OH2 8285   3.384   0.868   0.703 -0.4330 -0.1233  0.3366
 2774TIP3    H1 8286   3.310   0.808   0.695 -0.6867  0.3346 -0.8235
 2774TIP3    H2 8287   3.359   0.928   0.773 -1.8539  0.9723 -1.0535
 2775TIP3   OH2 8288   1.425   5.827   1.055 -0.0317 -0.0141 -0.2685
 2775TIP3    H1 8289   1.427   5.732   1.068 -0.1669 -0.3442 -2.3591
 2775TIP3    H2 8290   1.368   5.840   0.979 -0.3925  1.7982  0.2524
 2776TIP3   OH2 8291   6.689   6.520   1.583  0.6187  0.1981  0.3978
 2776TIP3    H1 8292   6.648   6.460   1.644 -0.3288  0.6822  0.2570
 2776TIP3    H2 8293   6.707   6.599   1.634  0.8320  0.2064  0.3130
 2777TIP3   OH2 8294   3.938   2.769   2.802  0.5970  0.4130  0.4963
 2777TIP3    H1 8295   3.870   2.738   2.861 -2.0672  1.7991 -1.6277
 2777TIP3    H2 8296   3.937   2.865   2.811  1.7209  0.5197 -0.1803
 2778TIP3   OH2 8297   2.672   1.542   3.678 -0.9947  0.6929  0.3922
 2778TIP3    H1 8298   2.675   1.586   3.763  0.7854  0.4369  0.4965
 2778TIP3    H2 8299   2.758   1.501   3.669 -1.7130 -0.6391 -0.8325
 2779TIP3   OH2 8300   4.560   4.844   3.142 -0.6519  0.8083  0.0487
 2779TIP3    H1 8301   4.653   4.837   3.117 -0.9055  1.5856 -1.2228
 2779TIP3    H2 8302   4.527   4.916   3.089 -2.0598  0.3551  0.2802
 2780TIP3   OH2 8303   0.192   1.284   3.389  0.5859 -0.3149 -0.2687
 2780TIP3    H1 8304   0.150   1.308   3.472 -0.0524 -1.4359 -0.2567
 2780TIP3    H2 8305   0.262   1.349   3.379 -0.9459  1.4458 -0.1612
 2781TIP3   OH2 8306   5.586   4.651   1.693 -0.2699  0.2953  0.2613
 2781TIP3    H1 8307   5.591   4.716   1.764  0.6570  2.0735 -1.3231
 2781TIP3    H2 8308   5.492   4.631   1.686 -0.8841  2.9812 -0.4207
 2782TIP3   OH2 8309   2.796   5.370   5.529 -0.4393 -0.2328 -0.1691
 2782TIP3    H1 8310   2.764   5.326   5.608  2.0810  0.4094  1.3171
 2782TIP3    H2 8311   2.864   5.430   5.560 -0.9909  1.8390 -2.5831
 2783TIP3   OH2 8312   2.095   3.643   1.076 -0.3447 -0.9232  0.4914
 2783TIP3    H1 8313   2.142   3.696   1.011 -0.4150 -1.9299 -0.4217
 2783TIP3    H2 8314   2.148   3.649   1.155 -0.5442  0.7734  0.5222
 2784TIP3   OH2 8315   0.010   4.632   5.761 -0.3612 -0.5193  0.0691
 2784TIP3    H1 8316  -0.071   4.682   5.752 -0.1624 -0.0264  0.9659
 2784TIP3    H2 8317   0.078   4.690   5.725 -0.1647 -0.2125  0.9034
 2785TIP3   OH2 8318   4.598   0.471   4.981 -0.2714 -0.5901 -0.0693
 2785TIP3    H1 8319   4.671   0.410   4.968 -1.4344 -1.5230 -3.1821
 2785TIP3    H2 8320   4.540   0.426   5.042  1.8762  0.4493  3.0063
 2786TIP3   OH2 8321   0.949   4.652   4.318 -0.4498  0.1397 -0.8596
 2786TIP3    H1 8322   0.879   4.692   4.371 -0.8727 -0.0902 -1.2462
 2786TIP3    H2 8323   0.930   4.679   4.229 -0.3676 -0.4037 -1.0402
 2787TIP3   OH2 8324   2.692   4.477   4.870  0.1417  0.2944 -1.0071
 2787TIP3    H1 8325   2.729   4.417   4.805  1.4004  0.5539 -0.5645
 2787TIP3    H2 8326   2.642   4.421   4.929  2.6154 -0.6522  0.3633
 2788TIP3   OH2 8327   5.568   5.236   3.487  0.5361 -0.5197 -0.0251
 2788TIP3    H1 8328   5.503   5.307   3.486  1.0571 -0.0445 -0.7493
 2788TIP3    H2 8329   5.552   5.191   3.569 -0.3165 -0.0325  0.0902
 2789TIP3   OH2 8330   1.679   6.779   3.550 -0.0544 -0.0741 -0.0118
 2789TIP3    H1 8331   1.769   6.767   3.519 -0.2713 -0.6867 -0.4115
 2789TIP3    H2 8332   1.628   6.792   3.470 -0.1914  1.2072  0.2618
 2790TIP3   OH2 8333   3.921   4.191   3.560  0.0339  0.1380  1.0057
 2790TIP3    H1 8334   3.895   4.218   3.648  0.5406  0.7254  0.9874
 2790TIP3    H2 8335   3.977   4.263   3.529 -1.1310  0.5345 -0.2813
 2791TIP3   OH2 8336   5.782   0.019   3.222  0.4505 -0.5011  0.1273
 2791TIP3    H1 8337   5.860  -0.037   3.223  0.3468 -0.6615 -0.4660
 2791TIP3    H2 8338   5.784   0.063   3.308  0.5101 -1.4310  0.6194
 2792TIP3   OH2 8339   3.988   5.711   2.705 -0.0153 -0.0883 -0.3071
 2792TIP3    H1 8340   4.041   5.632   2.716  1.0032  0.5806 -0.2759
 2792TIP3    H2 8341   3.916   5.684   2.648  0.0180 -1.1681  0.1347
 2793TIP3   OH2 8342   0.787   1.651   2.402 -0.0761  0.0498 -0.3509
 2793TIP3    H1 8343   0.857   1.585   2.403 -0.6262 -0.5580  0.9884
 2793TIP3    H2 8344   0.821   1.723   2.456  0.1043  0.4092 -0.9399
 2794TIP3   OH2 8345   4.823   6.362   2.857  0.4570  0.6203  0.5459
 2794TIP3    H1 8346   4.793   6.308   2.930 -1.1654  0.6350 -0.0782
 2794TIP3    H2 8347   4.919   6.352   2.857  0.3700 -0.3740  1.8796
 2795TIP3   OH2 8348   4.536   4.459   2.451  0.6352  0.3452  0.2489
 2795TIP3    H1 8349   4.524   4.466   2.546 -2.6389 -1.2392  0.0768
 2795TIP3    H2 8350   4.496   4.538   2.416  0.6932  0.3145  0.1122
 2796TIP3   OH2 8351   0.435   6.075   0.617 -0.4222 -0.7139  0.4431
 2796TIP3    H1 8352   0.451   6.058   0.710  1.1560  0.5491  0.4532
 2796TIP3    H2 8353   0.470   5.998   0.572 -0.9514 -1.2108  0.8576
 2797TIP3   OH2 8354   3.179   2.006   4.811  0.3317 -0.4585  0.3684
 2797TIP3    H1 8355   3.104   2.007   4.751  0.9584 -1.0753 -0.4562
 2797TIP3    H2 8356   3.180   1.918   4.848 -0.7856  0.2723  2.3013
 2798TIP3   OH2 8357   0.035   2.268   3.571  0.0269  0.4786  0.2260
 2798TIP3    H1 8358   0.045   2.335   3.638  0.2655 -0.1120  0.7843
 2798TIP3    H2 8359   0.124   2.245   3.546 -0.0536  0.3584  0.0470
 2799TIP3   OH2 8360   6.661   3.695   4.022 -0.2820 -0.1639  0.1853
 2799TIP3    H1 8361   6.629   3.758   3.959  1.2841  2.5022  1.8449
 2799TIP3    H2 8362   6.584   3.669   4.073 -1.1355 -0.5457 -1.2616
 2800TIP3   OH2 8363   5.154   5.563   4.196  0.7910 -0.3362 -0.0665
 2800TIP3    H1 8364   5.250   5.566   4.199  0.8898 -2.0679 -0.5772
 2800TIP3    H2 8365   5.130   5.486   4.248 -0.4523  0.9744  1.4289
 2801TIP3   OH2 8366   6.634   2.297   1.632 -0.2554 -0.5540  0.3276
 2801TIP3    H1 8367   6.589   2.254   1.559  1.4739  0.3484 -1.3594
 2801TIP3    H2 8368   6.571   2.362   1.663 -1.3598 -1.5537  0.2736
 2802TIP3   OH2 8369   2.500   6.681   5.546  0.5423 -0.0492  0.3682
 2802TIP3    H1 8370   2.552   6.718   5.617 -0.2567 -0.7897  1.3688
 2802TIP3    H2 8371   2.470   6.596   5.580  0.0664 -0.3746 -0.8223
 2803TIP3   OH2 8372   4.234   6.257   2.091  0.2827  0.1292  0.6309
 2803TIP3    H1 8373   4.284   6.176   2.105  1.0203  0.1600 -1.3971
 2803TIP3    H2 8374   4.162   6.229   2.034 -0.2902  0.6422  1.1059
 2804TIP3   OH2 8375   6.515   4.838   2.607  0.6962 -0.1365 -0.2468
 2804TIP3    H1 8376   6.530   4.931   2.592  1.2635 -0.5700 -2.9701
 2804TIP3    H2 8377   6.538   4.797   2.524 -0.2095 -2.6466  0.6550
 2805TIP3   OH2 8378   3.148   0.736   4.195 -0.0006 -0.0650 -0.5766
 2805TIP3    H1 8379   3.082   0.756   4.261 -0.1654 -0.4353 -0.6312
 2805TIP3    H2 8380   3.166   0.643   4.205 -0.0350 -0.1282 -1.0574
 2806TIP3   OH2 8381   3.650   3.959   3.466  0.3730 -0.1709 -0.6912
 2806TIP3    H1 8382   3.713   3.963   3.538 -0.0940  1.3154 -0.3410
 2806TIP3    H2 8383   3.564   3.963   3.508  0.0774 -0.1602 -1.2828
 2807TIP3   OH2 8384   5.998   0.152   4.893 -0.3564  0.8046 -0.4912
 2807TIP3    H1 8385   6.046   0.233   4.883 -2.8715  2.1584 -2.9332
 2807TIP3    H2 8386   5.959   0.158   4.980  0.9942  1.2580  0.1131
 2808TIP3   OH2 8387   5.972   4.950   4.315 -0.3307  0.4461  0.6843
 2808TIP3    H1 8388   5.889   4.945   4.364 -0.5032 -1.9217  0.2437
 2808TIP3    H2 8389   5.969   5.037   4.274 -4.1696 -0.6117 -1.9009
 2809TIP3   OH2 8390   0.373   1.309   3.886  0.1007  0.5094  0.2158
 2809TIP3    H1 8391   0.455   1.260   3.881 -0.0318  0.2972 -4.9593
 2809TIP3    H2 8392   0.385   1.382   3.825 -2.8032  1.7854  1.0195
 2810TIP3   OH2 8393   4.693   4.971   1.239  0.6775  0.0589  0.2326
 2810TIP3    H1 8394   4.634   5.035   1.280  0.1134  0.3363 -0.9604
 2810TIP3    H2 8395   4.777   4.985   1.282 -0.1593 -0.5225  2.1611
 2811TIP3   OH2 8396   4.598   1.300   0.870  0.2595  0.6008 -0.1877
 2811TIP3    H1 8397   4.532   1.234   0.845  0.0014 -0.1011  2.0857
 2811TIP3    H2 8398   4.680   1.265   0.835 -0.2130  0.2289 -0.9597
 2812TIP3   OH2 8399   0.463   1.686   4.530  0.6383  0.0010 -0.6719
 2812TIP3    H1 8400   0.515   1.684   4.450 -1.6357 -0.6170 -2.2145
 2812TIP3    H2 8401   0.377   1.719   4.503  0.1817  1.0697  1.7822
 2813TIP3   OH2 8402   4.352   0.831   1.806  0.3691  0.1790 -0.1524
 2813TIP3    H1 8403   4.417   0.867   1.746  1.9287  0.7013  1.7405
 2813TIP3    H2 8404   4.391   0.751   1.840 -0.8586 -0.5709 -0.4463
 2814TIP3   OH2 8405   3.686   6.607   1.040 -0.1451  0.0207  0.6638
 2814TIP3    H1 8406   3.592   6.601   1.054 -0.5710  2.5268 -0.5484
 2814TIP3    H2 8407   3.711   6.690   1.082  1.3204 -0.0704  0.0405
 2815TIP3   OH2 8408   6.451   2.695   2.107 -0.0217  0.0686  0.3745
 2815TIP3    H1 8409   6.386   2.655   2.165 -1.0399  0.1806 -0.6792
 2815TIP3    H2 8410   6.404   2.764   2.061  1.5725  2.2526  1.7794
 2816TIP3   OH2 8411   2.687   6.072   2.400 -0.0023 -0.1536  0.8200
 2816TIP3    H1 8412   2.595   6.070   2.428 -0.4263  1.3527 -0.2826
 2816TIP3    H2 8413   2.690   6.142   2.335  1.2826 -2.2654 -1.5524
 2817TIP3   OH2 8414   5.274   2.701   1.320  0.4424 -0.2699  0.0615
 2817TIP3    H1 8415   5.314   2.671   1.401  1.0161  1.5626  0.5073
 2817TIP3    H2 8416   5.328   2.663   1.251 -0.2685 -2.1483  0.4682
 2818TIP3   OH2 8417   5.703   5.674   1.544  0.2747 -0.4855 -0.5283
 2818TIP3    H1 8418   5.779   5.624   1.573 -0.0530 -0.3134  0.6607
 2818TIP3    H2 8419   5.640   5.666   1.616  0.7188  2.7632  0.3475
 2819TIP3   OH2 8420   5.843   5.214   0.840  0.1700 -0.3420  0.0502
 2819TIP3    H1 8421   5.871   5.196   0.930  0.3242  0.0603  0.0850
 2819TIP3    H2 8422   5.924   5.230   0.792  0.1400 -1.2888 -0.3328
 2820TIP3   OH2 8423   0.229   3.201   4.798  0.4125  0.0361 -0.0425
 2820TIP3    H1 8424   0.322   3.179   4.797  0.2149 -0.8504  0.1678
 2820TIP3    H2 8425   0.210   3.220   4.890  0.3659  0.1177 -0.0688
 2821TIP3   OH2 8426   2.417   0.161   2.346 -0.1824  0.0992  0.7392
 2821TIP3    H1 8427   2.504   0.156   2.386  0.8995  1.5558 -1.2494
 2821TIP3    H2 8428   2.382   0.072   2.354  2.4464 -1.1675 -0.3702
 2822TIP3   OH2 8429   2.611   3.991   5.726  0.1049 -0.3173  0.3765
 2822TIP3    H1 8430   2.586   4.039   5.805 -1.8580 -1.5943  0.5917
 2822TIP3    H2 8431   2.656   3.913   5.758  2.6348  0.9173  0.0485
 2823TIP3   OH2 8432   6.397   2.702   2.759 -0.0939 -0.0103 -0.1080
 2823TIP3    H1 8433   6.321   2.760   2.762  0.8520  1.2794 -0.0844
 2823TIP3    H2 8434   6.370   2.624   2.809 -1.8429 -0.1902 -1.2383
 2824TIP3   OH2 8435   0.175   3.756   1.501 -0.2737 -0.0436  0.7203
 2824TIP3    H1 8436   0.247   3.819   1.505 -0.6179  0.4323 -0.4260
 2824TIP3    H2 8437   0.137   3.758   1.589 -0.4652  1.5600  0.6156
 2825TIP3   OH2 8438   1.483   6.714   3.721  0.4401  0.3721  0.5526
 2825TIP3    H1 8439   1.453   6.643   3.665 -0.5348  1.2668 -0.1042
 2825TIP3    H2 8440   1.552   6.756   3.671 -0.3223  1.0730  0.0596
 2826TIP3   OH2 8441   3.060   1.067   3.133  0.4552  0.1933  0.0177
 2826TIP3    H1 8442   3.049   0.973   3.147  0.0144  0.1770 -0.3920
 2826TIP3    H2 8443   2.971   1.102   3.135  0.5492  0.4864 -0.5917
 2827TIP3   OH2 8444   4.993   3.788   1.255  0.5284 -0.1408 -0.1850
 2827TIP3    H1 8445   5.064   3.849   1.234 -1.2135  1.5918 -1.3924
 2827TIP3    H2 8446   4.966   3.752   1.171 -0.6788 -0.0081  0.1237
 2828TIP3   OH2 8447   0.665   1.100   3.848  0.2265 -0.1017  0.1065
 2828TIP3    H1 8448   0.712   1.054   3.918 -0.6156 -0.1784  0.6335
 2828TIP3    H2 8449   0.734   1.128   3.788  0.8165 -1.6453  0.0157
 2829TIP3   OH2 8450   1.652   0.717   4.771 -0.3798  0.4417 -0.2173
 2829TIP3    H1 8451   1.677   0.656   4.702 -2.1065  0.8449 -1.2574
 2829TIP3    H2 8452   1.574   0.761   4.737  0.1968  2.4914  0.9303
 2830TIP3   OH2 8453   5.260   5.485   5.565 -0.3347  0.2191 -0.0864
 2830TIP3    H1 8454   5.200   5.419   5.600 -1.6523  0.8728 -1.0284
 2830TIP3    H2 8455   5.289   5.534   5.642 -2.3643  0.9567  0.2846
 2831TIP3   OH2 8456   6.696   6.323   4.862 -0.3904 -0.0010  0.2541
 2831TIP3    H1 8457   6.760   6.287   4.923 -1.2398  0.1708  1.2699
 2831TIP3    H2 8458   6.732   6.408   4.836 -1.3324  1.2994  2.8089
 2832TIP3   OH2 8459   2.331   2.947   0.971  0.0223 -0.1222  0.9737
 2832TIP3    H1 8460   2.374   2.861   0.974  0.4463  0.1166  2.2267
 2832TIP3    H2 8461   2.401   3.009   0.989 -0.1747  0.5478 -0.4794
 2833TIP3   OH2 8462   5.221   1.027   2.538  1.2554 -0.1886  0.1754
 2833TIP3    H1 8463   5.242   0.970   2.613  0.8348 -1.0590 -0.3509
 2833TIP3    H2 8464   5.294   1.014   2.478  1.8902  0.9675  0.6757
 2834TIP3   OH2 8465   1.158   4.551   0.826  0.4837 -0.0387  0.6939
 2834TIP3    H1 8466   1.131   4.463   0.799  1.7727 -0.4053  0.5254
 2834TIP3    H2 8467   1.104   4.571   0.902 -1.6307  0.0804 -0.7585
 2835TIP3   OH2 8468   5.732   5.358   4.432  0.2486 -0.1419 -0.6554
 2835TIP3    H1 8469   5.749   5.435   4.378 -1.7733  0.7883 -0.1030
 2835TIP3    H2 8470   5.644   5.330   4.406  0.1831 -1.0824  0.4904
 2836TIP3   OH2 8471   6.076   3.835   5.237 -0.0105  0.2063 -0.3482
 2836TIP3    H1 8472   5.992   3.808   5.199  0.1211  0.2103 -0.6472
 2836TIP3    H2 8473   6.052   3.881   5.317 -0.1304 -2.7437  1.4169
 2837TIP3   OH2 8474   6.699   4.812   5.334  0.4733 -0.1475 -0.3977
 2837TIP3    H1 8475   6.615   4.826   5.379  0.3552 -0.2574 -0.5834
 2837TIP3    H2 8476   6.752   4.889   5.358 -0.3181  0.8617 -1.7378
 2838TIP3   OH2 8477   6.873   4.933   1.269 -0.0861  0.2771 -0.3535
 2838TIP3    H1 8478   6.839   4.882   1.343 -1.4501 -1.2091 -1.9123
 2838TIP3    H2 8479   6.831   5.019   1.279 -0.0901  0.1728  0.6974
 2839TIP3   OH2 8480   4.035   0.514   0.402  0.0436 -0.5020  0.0999
 2839TIP3    H1 8481   4.091   0.486   0.475 -1.2200 -1.7088  0.6460
 2839TIP3    H2 8482   3.986   0.588   0.437 -0.5702 -1.0877  0.5029
 2840TIP3   OH2 8483   0.551   3.619   1.095  0.6801 -0.3717  0.3203
 2840TIP3    H1 8484   0.510   3.533   1.097 -0.6935  0.1804 -1.4836
 2840TIP3    H2 8485   0.608   3.617   1.018  0.3423  0.4445  0.0396
 2841TIP3   OH2 8486   1.924   2.580   2.231  0.3739 -0.6066  0.4530
 2841TIP3    H1 8487   1.946   2.643   2.299 -0.6255  0.0092  0.2334
 2841TIP3    H2 8488   1.886   2.632   2.160  0.7295 -1.3151 -0.2804
 2842TIP3   OH2 8489   4.636   2.643   0.714  0.4343  0.8571  0.4348
 2842TIP3    H1 8490   4.564   2.646   0.651 -0.3525  1.6806  1.3525
 2842TIP3    H2 8491   4.619   2.564   0.766  1.4427 -0.1922 -0.7556
 2843TIP3   OH2 8492   3.228   3.733   2.630  0.7738  0.2492 -0.2002
 2843TIP3    H1 8493   3.309   3.684   2.615  1.5376  1.6127 -0.7412
 2843TIP3    H2 8494   3.175   3.717   2.552  1.2262  0.6516 -0.5963
 2844TIP3   OH2 8495   3.447   2.476   4.628  0.2414  0.7202  0.2047
 2844TIP3    H1 8496   3.492   2.548   4.583 -0.4171 -0.0551 -1.8220
 2844TIP3    H2 8497   3.398   2.432   4.559  0.4427 -1.5532  1.4234
 2845TIP3   OH2 8498   6.937   4.911   0.278 -0.2798 -0.1614  0.2229
 2845TIP3    H1 8499   6.942   4.848   0.206  0.5191  1.5144 -1.2646
 2845TIP3    H2 8500   7.009   4.887   0.336  0.7541  0.0655 -0.9355
 2846TIP3   OH2 8501   3.669   0.262   5.589 -0.5010 -0.0338 -0.3288
 2846TIP3    H1 8502   3.729   0.259   5.663  1.5771 -1.7645 -1.9043
 2846TIP3    H2 8503   3.655   0.169   5.567 -1.9239  0.4106 -1.4291
 2847TIP3   OH2 8504   6.196   2.680   0.130  0.5790  0.1756 -0.0843
 2847TIP3    H1 8505   6.262   2.736   0.090  0.4556  0.1536 -0.3193
 2847TIP3    H2 8506   6.153   2.736   0.195  1.0836  0.0789  0.3357
 2848TIP3   OH2 8507   4.083   4.127   2.903  0.1156 -0.0827  0.6555
 2848TIP3    H1 8508   4.152   4.188   2.930  0.7765 -1.6059  2.6548
 2848TIP3    H2 8509   4.117   4.041   2.926 -2.3045 -0.9255  1.3668
 2849TIP3   OH2 8510   4.844   1.919   3.273 -0.0680  0.3437 -0.4632
 2849TIP3    H1 8511   4.877   1.886   3.189 -1.1962 -0.7749 -0.4951
 2849TIP3    H2 8512   4.916   1.971   3.308  1.4233 -1.3541 -0.8800
 2850TIP3   OH2 8513   1.161   3.756   3.474 -0.6224  0.6270  0.7833
 2850TIP3    H1 8514   1.084   3.699   3.469 -0.4438  0.4522 -0.2596
 2850TIP3    H2 8515   1.144   3.813   3.549 -0.1739 -1.6973  2.7730
 2851TIP3   OH2 8516   1.488   0.941   1.950  0.2432  0.1012  0.0356
 2851TIP3    H1 8517   1.463   0.947   2.042 -0.2014 -1.5633  0.0644
 2851TIP3    H2 8518   1.584   0.945   1.952  0.2499 -0.1738  0.6013
 2852TIP3   OH2 8519   7.185   2.194   4.862  0.6937  0.0026 -0.8875
 2852TIP3    H1 8520   7.247   2.137   4.816  0.6973  0.1372 -1.0525
 2852TIP3    H2 8521   7.134   2.235   4.792 -0.3665 -0.9760 -0.7039
 2853TIP3   OH2 8522   6.926   6.108   3.182  0.6533  0.2143  0.3934
 2853TIP3    H1 8523   6.844   6.096   3.230  2.2309 -3.0193  2.6497
 2853TIP3    H2 8524   6.905   6.082   3.092 -0.9599  0.3544  0.6846
 2854TIP3   OH2 8525   3.681   1.800   1.600 -0.5919  0.1970 -0.0240
 2854TIP3    H1 8526   3.592   1.793   1.568 -1.0558 -0.1204  1.2655
 2854TIP3    H2 8527   3.691   1.891   1.627 -1.0402 -0.0924  1.1929
 2855TIP3   OH2 8528   7.048   3.411   1.799 -0.0013  0.1124  0.2670
 2855TIP3    H1 8529   6.994   3.391   1.722 -0.4466  2.4122 -0.0697
 2855TIP3    H2 8530   6.986   3.443   1.865  0.4730 -1.1534  1.3893
 2856TIP3   OH2 8531   4.182   2.894   3.999  0.2906 -0.4785 -0.0815
 2856TIP3    H1 8532   4.221   2.812   3.969  3.4116  0.9031 -0.2505
 2856TIP3    H2 8533   4.180   2.887   4.094 -0.8328 -1.2869 -0.1559
 2857TIP3   OH2 8534   2.362   0.398   0.991  0.0337 -0.0907  0.2556
 2857TIP3    H1 8535   2.394   0.446   1.067  0.4552 -1.8030  1.2305
 2857TIP3    H2 8536   2.283   0.353   1.023 -1.1720  1.0234 -1.0234
 2858TIP3   OH2 8537   1.069   3.320   3.235  0.4535 -0.3001 -0.1663
 2858TIP3    H1 8538   0.981   3.282   3.243  0.5155 -0.4482 -0.1913
 2858TIP3    H2 8539   1.057   3.412   3.256  0.2107 -0.2303 -0.5961
 2859TIP3   OH2 8540   0.173   2.867   1.149 -0.1347 -0.2172  0.5827
 2859TIP3    H1 8541   0.108   2.799   1.132 -0.7842  0.3134  0.8564
 2859TIP3    H2 8542   0.229   2.830   1.217 -0.7429 -0.3289  1.0389
 2860TIP3   OH2 8543   5.833   2.496   4.848 -0.5443 -0.7343 -0.1438
 2860TIP3    H1 8544   5.832   2.410   4.807  0.7802 -1.5336  1.3990
 2860TIP3    H2 8545   5.926   2.517   4.857 -0.7891 -0.3238  1.8495
 2861TIP3   OH2 8546   6.449   0.317   2.325 -0.3651 -0.5453 -0.0234
 2861TIP3    H1 8547   6.426   0.274   2.407 -1.9442  0.7440  0.2791
 2861TIP3    H2 8548   6.410   0.404   2.333  1.6552  0.5136 -1.1030
 2862TIP3   OH2 8549  -0.010   3.366   5.259 -0.3177  0.6676 -0.2900
 2862TIP3    H1 8550   0.068   3.411   5.229 -1.5703  3.3184  0.1169
 2862TIP3    H2 8551   0.022   3.290   5.307  2.1141  2.6766  1.5142
 2863TIP3   OH2 8552   6.169   6.523   3.514  0.1904  0.4267 -0.1968
 2863TIP3    H1 8553   6.190   6.604   3.468  2.3109  0.8052  1.2439
 2863TIP3    H2 8554   6.178   6.546   3.607 -0.0879 -1.2313  0.2726
 2864TIP3   OH2 8555   6.241   1.564   2.285  0.0782  0.3838 -0.1082
 2864TIP3    H1 8556   6.177   1.634   2.273  0.6021  1.0539  0.8675
 2864TIP3    H2 8557   6.190   1.483   2.277 -0.9786  0.9074  1.0784
 2865TIP3   OH2 8558   3.215   5.269   5.377 -0.0418 -0.0552  0.8433
 2865TIP3    H1 8559   3.182   5.315   5.454 -0.3013 -0.1215  0.7728
 2865TIP3    H2 8560   3.297   5.314   5.356 -1.7762  2.4932 -1.1085
 2866TIP3   OH2 8561   5.827   5.535   0.918  0.1595 -0.1037 -0.0465
 2866TIP3    H1 8562   5.897   5.555   0.980 -0.0877 -0.0131  0.2016
 2866TIP3    H2 8563   5.765   5.482   0.968 -0.7452  1.1692  0.1990
 2867TIP3   OH2 8564   1.756   2.358   4.301  0.1475  0.5496 -0.1722
 2867TIP3    H1 8565   1.761   2.265   4.280 -0.7468  0.5890 -0.6076
 2867TIP3    H2 8566   1.681   2.390   4.252  1.1609  1.7791 -0.9739
 2868TIP3   OH2 8567   1.996   3.206   4.393  0.0998  0.6359 -0.7899
 2868TIP3    H1 8568   2.075   3.240   4.350 -0.1918  0.0687 -1.7844
 2868TIP3    H2 8569   1.925   3.224   4.331 -0.4747  0.6134 -0.1526
 2869TIP3   OH2 8570   7.047   4.488   0.562 -0.3996 -0.0083 -0.0662
 2869TIP3    H1 8571   7.012   4.445   0.485 -2.5896  1.1821  0.1792
 2869TIP3    H2 8572   6.979   4.550   0.589  0.3116 -0.2755  2.7496
 2870TIP3   OH2 8573   6.884   2.415   1.541 -0.1891  0.1558  0.2850
 2870TIP3    H1 8574   6.805   2.361   1.539 -0.9326  1.2488 -0.8799
 2870TIP3    H2 8575   6.861   2.492   1.592  0.1910  0.3820  0.1271
 2871TIP3   OH2 8576   1.750   3.623   0.032 -0.1895 -0.2141  0.1349
 2871TIP3    H1 8577   1.833   3.649   0.072 -0.5002 -0.1954  0.7799
 2871TIP3    H2 8578   1.766   3.535  -0.002  0.6608  0.5082 -1.4337
 2872TIP3   OH2 8579   1.711   2.080   3.752  0.0144 -0.6462 -0.3743
 2872TIP3    H1 8580   1.722   1.990   3.722  1.5975 -0.2737 -1.0344
 2872TIP3    H2 8581   1.772   2.090   3.824  0.8935  0.2613 -1.2015
 2873TIP3   OH2 8582   2.861   2.688   4.290 -0.0172 -0.1482 -0.5834
 2873TIP3    H1 8583   2.950   2.667   4.319  0.0772 -1.0132 -1.4471
 2873TIP3    H2 8584   2.809   2.613   4.318 -0.2702 -0.1365 -1.0138
 2874TIP3   OH2 8585   2.160   1.038   1.881  0.0854 -0.2457  0.3804
 2874TIP3    H1 8586   2.154   0.942   1.879 -2.2979 -0.1564  1.0499
 2874TIP3    H2 8587   2.135   1.062   1.970  0.7983  1.0188  0.2604
 2875TIP3   OH2 8588   6.249   3.327   1.683  0.1439 -0.1806 -0.1888
 2875TIP3    H1 8589   6.323   3.331   1.623 -0.0303  0.6563 -0.3512
 2875TIP3    H2 8590   6.197   3.404   1.663 -0.8284 -0.8115 -0.1425
 2876TIP3   OH2 8591   1.890   0.792   4.167  0.1361 -0.5050  0.5242
 2876TIP3    H1 8592   1.888   0.762   4.258  0.3018 -1.2462  0.2921
 2876TIP3    H2 8593   1.871   0.885   4.172 -1.8576 -0.9062  1.1540
 2877TIP3   OH2 8594   2.078   0.950   3.157  0.7622 -0.1602  0.4119
 2877TIP3    H1 8595   2.071   1.012   3.084  0.6316 -0.8665 -0.1857
 2877TIP3    H2 8596   1.997   0.963   3.207  0.4717 -0.2438 -0.0316
 2878TIP3   OH2 8597   4.664   1.358   5.525  0.0840 -0.5180 -0.1290
 2878TIP3    H1 8598   4.735   1.326   5.580  0.9267 -0.5227 -1.1982
 2878TIP3    H2 8599   4.674   1.311   5.443 -0.2192  0.5999 -0.8283
 2879TIP3   OH2 8600   3.910   6.467   1.002  0.2420 -0.6752 -0.5269
 2879TIP3    H1 8601   3.966   6.537   0.967  0.3975 -1.0838 -1.1130
 2879TIP3    H2 8602   3.821   6.502   0.996  0.3069 -0.5749 -0.9468
 2880TIP3   OH2 8603   5.255   6.404   3.579  0.0562 -0.3674  0.1562
 2880TIP3    H1 8604   5.205   6.327   3.552 -1.1384  0.2326  0.5814
 2880TIP3    H2 8605   5.205   6.442   3.651  0.5855  0.8324 -0.0713
 2881TIP3   OH2 8606   2.188   6.539   1.137 -0.1248  0.7327 -0.0055
 2881TIP3    H1 8607   2.236   6.568   1.215  0.2125 -0.9654  0.4467
 2881TIP3    H2 8608   2.125   6.476   1.170  0.1240 -0.1267 -1.1287
 2882TIP3   OH2 8609   2.758   6.616   3.930  0.7073  0.6540  0.2535
 2882TIP3    H1 8610   2.808   6.618   3.848 -0.2534  1.3538 -0.3408
 2882TIP3    H2 8611   2.753   6.708   3.957  0.2260  0.5266  0.6087
 2883TIP3   OH2 8612   3.944   3.377   0.133  0.0651 -0.2340 -0.3410
 2883TIP3    H1 8613   3.940   3.472   0.123  1.1827  0.0655  1.6789
 2883TIP3    H2 8614   3.902   3.359   0.217  0.4192 -1.4674 -0.4049
 2884TIP3   OH2 8615   5.818   3.607   5.392  0.0421 -0.2613  0.5687
 2884TIP3    H1 8616   5.831   3.524   5.345 -2.3070 -0.5830  0.3985
 2884TIP3    H2 8617   5.869   3.596   5.472 -0.4623 -2.0174  0.7002
 2885TIP3   OH2 8618   2.563   1.537   3.202  0.1679  0.0262 -0.3626
 2885TIP3    H1 8619   2.549   1.450   3.239  1.9770 -0.3213 -0.4430
 2885TIP3    H2 8620   2.475   1.565   3.174 -0.3210 -2.1931 -1.2963
 2886TIP3   OH2 8621   5.610   0.482   4.315 -0.0466 -0.6546 -0.3189
 2886TIP3    H1 8622   5.637   0.406   4.367 -0.3989 -0.1928  0.5608
 2886TIP3    H2 8623   5.673   0.485   4.243  1.4894 -0.3606  0.9784
 2887TIP3   OH2 8624   5.303   4.017   0.171 -0.6885  0.1801  0.0073
 2887TIP3    H1 8625   5.371   4.081   0.194 -0.2931 -0.0951 -0.3955
 2887TIP3    H2 8626   5.341   3.933   0.194 -1.1507  0.0683  0.3839
 2888TIP3   OH2 8627   0.381   2.952   5.416  0.4063  0.8822 -0.1645
 2888TIP3    H1 8628   0.361   3.023   5.477 -2.1679  0.6637 -0.6098
 2888TIP3    H2 8629   0.363   2.988   5.329  1.2845  0.3508 -0.5811
 2889TIP3   OH2 8630   1.079   1.753   0.278  0.0228 -0.2353  0.0499
 2889TIP3    H1 8631   1.103   1.805   0.354  1.8619 -0.1445 -0.5410
 2889TIP3    H2 8632   1.022   1.685   0.312 -0.0015  0.4013  1.3285
 2890TIP3   OH2 8633   3.371   3.596   2.244  0.3168  0.3938 -0.4196
 2890TIP3    H1 8634   3.447   3.576   2.299  0.8565  0.3646 -1.1600
 2890TIP3    H2 8635   3.300   3.615   2.306 -0.1947 -3.4604  0.4452
 2891TIP3   OH2 8636   1.540   0.849   3.700 -0.3853  0.1896 -0.1559
 2891TIP3    H1 8637   1.621   0.837   3.750 -1.2942  1.8180  1.8770
 2891TIP3    H2 8638   1.560   0.917   3.636  0.4325 -0.9860 -1.1862
 2892TIP3   OH2 8639   6.313   4.398   4.818  0.4250  0.0070 -0.5875
 2892TIP3    H1 8640   6.401   4.434   4.820  0.7334 -0.7192  1.1422
 2892TIP3    H2 8641   6.323   4.313   4.773  0.5139  0.1233 -0.7889
 2893TIP3   OH2 8642   1.589   0.233   0.711 -0.1905 -0.4410 -0.5241
 2893TIP3    H1 8643   1.526   0.162   0.702 -2.8203  1.7966 -1.2289
 2893TIP3    H2 8644   1.604   0.264   0.622  0.0413  0.5482 -0.1597
 2894TIP3   OH2 8645   0.913   4.918   3.151 -0.1745  0.2005 -0.6251
 2894TIP3    H1 8646   0.915   4.959   3.237 -1.3332 -1.4521  0.2203
 2894TIP3    H2 8647   0.993   4.865   3.148  0.9663  1.8430 -1.4549
 2895TIP3   OH2 8648   0.985   3.997   3.200  0.0206  0.2098  0.1732
 2895TIP3    H1 8649   1.000   3.927   3.136 -0.0548  0.1302  0.2419
 2895TIP3    H2 8650   0.979   4.077   3.147 -3.1442 -0.1953 -0.2947
 2896TIP3   OH2 8651   4.979   6.043   2.621  0.1949 -0.3219  0.5453
 2896TIP3    H1 8652   4.922   6.113   2.590  0.6525 -0.0300  0.3636
 2896TIP3    H2 8653   5.032   6.019   2.545 -0.7441 -1.6713  0.2636
 2897TIP3   OH2 8654   6.441   1.647   4.823  0.0010  0.1551 -0.4212
 2897TIP3    H1 8655   6.376   1.636   4.754 -1.1489 -1.0130  0.7789
 2897TIP3    H2 8656   6.443   1.741   4.840 -0.5823  0.3224 -1.2194
 2898TIP3   OH2 8657   2.669   0.199   0.926 -0.0222  0.5674 -0.1939
 2898TIP3    H1 8658   2.710   0.268   0.874  2.1820 -0.7899 -0.3870
 2898TIP3    H2 8659   2.742   0.143   0.954 -1.5376 -0.7142  1.4012
 2899TIP3   OH2 8660   0.096   3.788   3.038  0.1089 -0.2156  0.1476
 2899TIP3    H1 8661   0.150   3.720   3.079 -1.3136 -0.7602  1.2184
 2899TIP3    H2 8662   0.030   3.740   2.988 -0.8596  0.3321  0.8490
 2900TIP3   OH2 8663   0.811   4.235   4.837 -0.2586 -0.0378 -0.0195
 2900TIP3    H1 8664   0.876   4.269   4.898 -1.7335  1.6791  0.6924
 2900TIP3    H2 8665   0.855   4.164   4.791  1.9509  0.7891  0.7261
 2901TIP3   OH2 8666   0.089   2.011   5.079 -0.7764 -0.7826  0.2139
 2901TIP3    H1 8667   0.058   2.082   5.023 -1.5743 -1.1481  0.1747
 2901TIP3    H2 8668   0.095   2.050   5.166 -1.0837 -0.6266  0.1675
 2902TIP3   OH2 8669   0.164   5.244   2.440  0.2513 -0.3593  0.2906
 2902TIP3    H1 8670   0.177   5.235   2.534  0.6676 -0.8957  0.1860
 2902TIP3    H2 8671   0.230   5.186   2.401  0.8631  0.7381 -0.3540
 2903TIP3   OH2 8672   4.726   1.351   0.271 -0.0630 -0.1184  0.4574
 2903TIP3    H1 8673   4.687   1.348   0.359 -0.3493 -0.0621  0.3303
 2903TIP3    H2 8674   4.669   1.296   0.217  1.0860 -1.6080  0.6875
 2904TIP3   OH2 8675   4.149   1.596   3.342 -0.1158  0.6923 -0.6258
 2904TIP3    H1 8676   4.116   1.684   3.325  1.3219  1.1032 -1.4828
 2904TIP3    H2 8677   4.100   1.540   3.282 -0.2790  1.0627 -0.8409
 2905TIP3   OH2 8678   1.334   0.932   0.430 -0.1615 -0.2711 -0.1330
 2905TIP3    H1 8679   1.273   0.916   0.358 -1.9365 -1.0407  1.4636
 2905TIP3    H2 8680   1.280   0.968   0.500  1.5467  0.6289  0.7858
 2906TIP3   OH2 8681   6.052   3.612   0.836  0.3501  0.1919  0.2582
 2906TIP3    H1 8682   6.050   3.641   0.745 -0.8649  1.0578  0.5357
 2906TIP3    H2 8683   6.122   3.664   0.876 -0.8568  1.7977  0.4021
 2907TIP3   OH2 8684   0.579   4.615   3.980  0.0553 -0.3038  0.3052
 2907TIP3    H1 8685   0.674   4.613   3.991 -0.0262 -1.1076  1.0024
 2907TIP3    H2 8686   0.555   4.706   3.991  0.7221 -0.1342  0.4000
 2908TIP3   OH2 8687   2.720   5.700   3.678 -0.7498 -0.0176 -0.6085
 2908TIP3    H1 8688   2.644   5.702   3.619 -0.9882 -1.0640 -0.3536
 2908TIP3    H2 8689   2.722   5.610   3.712  0.5229  0.0318 -0.5038
 2909TIP3   OH2 8690   5.303   2.925   4.090  0.1579 -0.1872 -0.3632
 2909TIP3    H1 8691   5.247   2.889   4.158  0.0859 -1.2694 -0.9770
 2909TIP3    H2 8692   5.266   2.892   4.008 -0.4577  2.0266 -1.0456
 2910TIP3   OH2 8693   5.286   1.495   3.408  0.0785  0.1124 -0.3280
 2910TIP3    H1 8694   5.272   1.471   3.500 -1.2114  1.0011 -0.2561
 2910TIP3    H2 8695   5.287   1.591   3.409  2.5100  0.1487 -0.9385
 2911TIP3   OH2 8696   7.237   1.975   0.409  0.4495 -0.4097 -0.6446
 2911TIP3    H1 8697   7.229   2.045   0.345 -1.4147  0.0634  0.0487
 2911TIP3    H2 8698   7.147   1.943   0.421  0.6768 -0.2339  1.9683
 2912TIP3   OH2 8699   0.331   4.533   5.091  0.5399 -0.1939 -0.4649
 2912TIP3    H1 8700   0.327   4.616   5.043 -0.4867  0.4493  0.6878
 2912TIP3    H2 8701   0.279   4.473   5.038  0.0035  0.3174 -0.5361
 2913TIP3   OH2 8702   0.203   0.738   3.565  0.0938  0.0773 -0.1874
 2913TIP3    H1 8703   0.186   0.645   3.574 -2.7252  0.3893 -1.3964
 2913TIP3    H2 8704   0.270   0.744   3.496  0.9926 -1.0333  0.5519
 2914TIP3   OH2 8705   3.718   0.611   5.807 -0.2373  0.1881  0.2603
 2914TIP3    H1 8706   3.680   0.534   5.765  0.9517  0.2133 -0.9431
 2914TIP3    H2 8707   3.708   0.681   5.742 -1.8578  1.2449  1.5705
 2915TIP3   OH2 8708   3.332   2.870   0.167  0.2164  0.0272 -0.2455
 2915TIP3    H1 8709   3.270   2.930   0.209 -0.1929 -0.6062  0.0741
 2915TIP3    H2 8710   3.283   2.833   0.094  0.3751 -0.1314 -0.2720
 2916TIP3   OH2 8711   0.224   5.220   2.725 -0.0089  0.0540 -0.6480
 2916TIP3    H1 8712   0.131   5.218   2.746  0.3829 -0.3019  1.1918
 2916TIP3    H2 8713   0.266   5.173   2.797  1.8176  2.2786 -0.1456
 2917TIP3   OH2 8714   4.622   4.629   4.261  0.2919  0.7431 -0.1586
 2917TIP3    H1 8715   4.622   4.638   4.356  1.6866 -0.0988 -0.0586
 2917TIP3    H2 8716   4.615   4.535   4.245  1.9390  0.6833 -0.8103
 2918TIP3   OH2 8717   4.366   2.889   4.969 -0.6720  0.3903 -0.0751
 2918TIP3    H1 8718   4.437   2.952   4.954  0.2523 -0.2451  1.4806
 2918TIP3    H2 8719   4.407   2.803   4.958 -1.6580  0.0133 -1.0068
 2919TIP3   OH2 8720   2.750   2.602   5.095 -0.5933  0.5553  0.3196
 2919TIP3    H1 8721   2.758   2.606   5.000  0.3768  1.0601  0.4169
 2919TIP3    H2 8722   2.663   2.563   5.109  0.4518 -2.4945 -0.7788
 2920TIP3   OH2 8723   6.342   2.156   3.871  0.1329  0.2206  0.3458
 2920TIP3    H1 8724   6.419   2.151   3.927  0.4331  0.2058 -0.0696
 2920TIP3    H2 8725   6.376   2.177   3.785 -0.3474  0.4280  0.2044
 2921TIP3   OH2 8726   2.440   0.507   0.475 -1.0197  0.2941  0.8270
 2921TIP3    H1 8727   2.450   0.598   0.446  1.4063 -0.1436  0.0159
 2921TIP3    H2 8728   2.416   0.459   0.396  0.0008 -0.0641  0.7094
 2922TIP3   OH2 8729   5.829   5.305   3.554  0.2374  0.1076  0.5798
 2922TIP3    H1 8730   5.743   5.263   3.543  0.4450 -0.1199 -0.2623
 2922TIP3    H2 8731   5.883   5.265   3.485  1.2333 -0.3012  1.5789
 2923TIP3   OH2 8732   5.748   0.983   1.171 -0.3284 -0.5872 -0.5567
 2923TIP3    H1 8733   5.816   1.036   1.129 -0.5703 -1.3221 -1.9280
 2923TIP3    H2 8734   5.791   0.947   1.249  1.3516 -2.1054 -2.0761
 2924TIP3   OH2 8735   6.837   3.951   3.210  0.6487  0.1268  0.2205
 2924TIP3    H1 8736   6.918   3.987   3.247  0.5065 -0.4694  1.1483
 2924TIP3    H2 8737   6.796   4.026   3.166  0.6710  0.9733  1.5611
 2925TIP3   OH2 8738   0.808   5.795   2.306 -0.3772  0.0255 -0.4909
 2925TIP3    H1 8739   0.843   5.715   2.267  0.2966  0.7062 -1.3159
 2925TIP3    H2 8740   0.770   5.767   2.390 -0.3861 -1.1908 -0.8895
 2926TIP3   OH2 8741   1.564   0.562   1.296  0.4986 -0.2261  0.3504
 2926TIP3    H1 8742   1.542   0.654   1.283 -0.6186 -0.5754 -0.3537
 2926TIP3    H2 8743   1.524   0.539   1.380  0.2293 -0.2309  0.2215
 2927TIP3   OH2 8744   0.465   0.307   4.145 -0.4048  0.4133  0.4656
 2927TIP3    H1 8745   0.553   0.275   4.129 -0.7676 -0.3383 -0.0754
 2927TIP3    H2 8746   0.414   0.228   4.163 -1.0104  0.8183  0.5383
 2928TIP3   OH2 8747   4.575   4.607   5.541 -0.6695 -0.4053 -0.8117
 2928TIP3    H1 8748   4.551   4.696   5.565 -0.7275 -0.4485 -0.7101
 2928TIP3    H2 8749   4.506   4.577   5.483 -1.1570 -0.7254 -0.0852
 2929TIP3   OH2 8750   1.004   2.539   2.566  0.3446 -0.4638  0.2690
 2929TIP3    H1 8751   0.985   2.614   2.509  1.3982 -1.3103 -1.2754
 2929TIP3    H2 8752   1.095   2.552   2.593  0.0265 -0.3638  1.3373
 2930TIP3   OH2 8753   5.477   0.198   5.152 -0.1362 -0.0594 -0.3721
 2930TIP3    H1 8754   5.544   0.262   5.176  0.0221 -0.5403  0.5026
 2930TIP3    H2 8755   5.445   0.164   5.236 -2.3737  1.0407 -0.6872
 2931TIP3   OH2 8756   2.218   2.030   4.909 -0.0141  0.5290 -0.2580
 2931TIP3    H1 8757   2.275   1.998   4.980 -0.5567  1.8614  0.8164
 2931TIP3    H2 8758   2.130   2.003   4.934  0.0492 -1.3786 -1.8344
 2932TIP3   OH2 8759   1.343   6.144   0.449 -0.6743 -0.5248  0.0269
 2932TIP3    H1 8760   1.310   6.234   0.449  0.9865  0.1295  1.6974
 2932TIP3    H2 8761   1.378   6.131   0.361 -0.2999  0.6963 -0.0108
 2933TIP3   OH2 8762   3.684   3.742   3.290  0.0163 -0.2191 -0.3036
 2933TIP3    H1 8763   3.673   3.802   3.363 -1.4042  0.4630 -1.0403
 2933TIP3    H2 8764   3.665   3.656   3.326 -1.6776  0.2222 -0.0687
 2934TIP3   OH2 8765   0.637   4.055   2.289 -0.0989 -0.5688 -0.0806
 2934TIP3    H1 8766   0.680   4.047   2.204 -2.3492 -0.2602 -1.3124
 2934TIP3    H2 8767   0.674   4.134   2.327 -0.0908  0.1114 -1.4351
 2935TIP3   OH2 8768   3.286   4.909   2.455  0.4548 -0.3046 -0.4779
 2935TIP3    H1 8769   3.364   4.855   2.457  0.8735  0.3029  0.4699
 2935TIP3    H2 8770   3.213   4.849   2.470  1.0153 -0.4614  1.9556
 2936TIP3   OH2 8771   2.423   4.247   5.174  0.4614  0.1288 -0.0258
 2936TIP3    H1 8772   2.330   4.233   5.156  0.8526 -1.8405 -0.8275
 2936TIP3    H2 8773   2.428   4.334   5.212 -1.7397  0.1755  0.2648
 2937TIP3   OH2 8774   1.455   3.126   4.492  0.1206  0.0311  0.5205
 2937TIP3    H1 8775   1.405   3.050   4.464  1.0070 -0.4976  0.3390
 2937TIP3    H2 8776   1.520   3.091   4.552 -0.1436  0.8030  1.2780
 2938TIP3   OH2 8777   6.138   5.571   3.756 -0.6764  0.2771  0.4834
 2938TIP3    H1 8778   6.111   5.479   3.760 -0.8083  0.3327  1.0553
 2938TIP3    H2 8779   6.202   5.580   3.827 -1.7767  0.9743  1.4215
 2939TIP3   OH2 8780   0.084   3.532   3.683 -0.3334  0.2841 -0.0089
 2939TIP3    H1 8781  -0.004   3.562   3.706  0.3299  1.6375  0.8382
 2939TIP3    H2 8782   0.140   3.607   3.697  1.1375 -0.8560  0.4772
 2940TIP3   OH2 8783   4.689   5.881   3.730  0.3245  0.1582  0.5693
 2940TIP3    H1 8784   4.601   5.860   3.760  0.8581 -0.3151  1.8753
 2940TIP3    H2 8785   4.721   5.945   3.793  1.2847 -0.4580  0.7328
 2941TIP3   OH2 8786   5.778   1.422   3.948  0.7988  0.2515  0.0153
 2941TIP3    H1 8787   5.758   1.453   4.037  0.5172 -0.5284  0.2335
 2941TIP3    H2 8788   5.871   1.398   3.952  0.9147  0.6806 -0.0435
 2942TIP3   OH2 8789   6.314   0.728   5.402 -0.2713 -0.3638  0.2042
 2942TIP3    H1 8790   6.365   0.701   5.325  1.0059 -0.9100  1.2039
 2942TIP3    H2 8791   6.290   0.819   5.384 -0.6859 -0.7171 -1.1810
 2943TIP3   OH2 8792   4.507   2.456   4.079 -0.3732 -0.5790  0.0539
 2943TIP3    H1 8793   4.439   2.477   4.144  1.5830 -0.9058  2.3416
 2943TIP3    H2 8794   4.507   2.531   4.020 -1.8348  0.0254  0.7610
 2944TIP3   OH2 8795   3.760   1.518   0.467 -0.2545  0.0962  0.4596
 2944TIP3    H1 8796   3.689   1.579   0.486  0.1044  0.3144  1.1400
 2944TIP3    H2 8797   3.803   1.504   0.551  1.4257  1.1266 -0.1619
 2945TIP3   OH2 8798   6.601   1.201   0.322  1.0323  0.0624  0.3830
 2945TIP3    H1 8799   6.682   1.162   0.290  1.1103  0.5096  0.0335
 2945TIP3    H2 8800   6.609   1.295   0.303  0.4866  0.1306  0.4538
 2946TIP3   OH2 8801   7.112   3.552   3.411  0.3609  0.4486  0.2150
 2946TIP3    H1 8802   7.070   3.547   3.325 -1.1795 -1.3367  1.0111
 2946TIP3    H2 8803   7.041   3.538   3.474  1.6657  0.3908  1.7451
 2947TIP3   OH2 8804   7.121   5.714   0.478  0.3550  0.3658  0.0384
 2947TIP3    H1 8805   7.212   5.741   0.467 -0.2213  2.6897  0.5405
 2947TIP3    H2 8806   7.076   5.791   0.512 -1.7521 -0.8246  0.1629
 2948TIP3   OH2 8807   2.274   6.235   4.990  0.3198 -0.1680 -0.1178
 2948TIP3    H1 8808   2.359   6.194   4.999 -0.5051 -1.5224  2.3995
 2948TIP3    H2 8809   2.236   6.233   5.078 -1.5497  2.1451 -0.7435
 2949TIP3   OH2 8810   5.992   3.809   3.161 -0.7157  0.2886  0.2142
 2949TIP3    H1 8811   5.958   3.753   3.091  3.5423 -0.9739 -1.1677
 2949TIP3    H2 8812   5.962   3.897   3.139 -0.8031 -0.3116 -2.3724
 2950TIP3   OH2 8813   4.610   3.723   0.157 -0.1041 -0.2077  0.3586
 2950TIP3    H1 8814   4.533   3.733   0.102 -0.6300  0.6818  1.2257
 2950TIP3    H2 8815   4.576   3.709   0.246  0.7178 -0.1182  0.7066
 2951TIP3   OH2 8816   0.896   4.381   5.397 -0.0876 -0.4557  0.1812
 2951TIP3    H1 8817   0.952   4.304   5.398 -0.1121 -0.5437 -1.3982
 2951TIP3    H2 8818   0.949   4.451   5.435  0.9716 -0.6281 -0.9133
 2952TIP3   OH2 8819   3.258   2.150   1.365 -0.1218  0.2572  0.0988
 2952TIP3    H1 8820   3.224   2.201   1.291  1.7610  0.8099 -0.4413
 2952TIP3    H2 8821   3.315   2.085   1.325  2.4059  1.7273  1.0655
 2953TIP3   OH2 8822   2.241   2.973   4.220 -0.2466 -0.2423  0.0429
 2953TIP3    H1 8823   2.194   2.946   4.299 -0.3620  1.1197  0.4537
 2953TIP3    H2 8824   2.186   2.944   4.148 -0.2921 -1.2225  0.4437
 2954TIP3   OH2 8825   0.799   2.749   2.487  0.6582  0.3374 -0.1920
 2954TIP3    H1 8826   0.775   2.839   2.511 -1.7044 -0.0693 -0.7912
 2954TIP3    H2 8827   0.737   2.694   2.534 -0.2334 -0.7600 -2.4729
 2955TIP3   OH2 8828   1.991   4.447   0.818  0.9036 -0.3622 -0.5697
 2955TIP3    H1 8829   1.963   4.463   0.729 -0.2888  0.6741 -0.0312
 2955TIP3    H2 8830   2.077   4.488   0.824  1.3040 -1.0384 -1.4114
 2956TIP3   OH2 8831   1.121   3.292   1.609  0.5814 -0.1296  0.0777
 2956TIP3    H1 8832   1.188   3.263   1.547  1.4015  0.4339  0.6797
 2956TIP3    H2 8833   1.169   3.345   1.673  0.0952 -2.0269  2.1544
 2957TIP3   OH2 8834   1.304   0.298   2.350 -0.0626  0.3401  0.2213
 2957TIP3    H1 8835   1.344   0.365   2.405  0.0593  0.1929  0.3150
 2957TIP3    H2 8836   1.300   0.336   2.263  0.6179  0.2179  0.1363
 2958TIP3   OH2 8837   5.454   5.285   4.381  0.5527 -0.2514  0.1052
 2958TIP3    H1 8838   5.441   5.374   4.348 -0.5310 -0.4053  0.0804
 2958TIP3    H2 8839   5.459   5.230   4.302 -1.1985 -0.5089  0.1340
 2959TIP3   OH2 8840   6.984   1.468   2.765 -0.6061  0.0436 -0.3091
 2959TIP3    H1 8841   6.931   1.391   2.784 -0.0414  0.1366  1.9942
 2959TIP3    H2 8842   6.922   1.541   2.762 -0.8219 -0.0981  0.5419
 2960TIP3   OH2 8843   4.632   2.538   3.472  0.0121  0.4389 -0.2187
 2960TIP3    H1 8844   4.722   2.529   3.441 -0.2798 -1.4872 -0.6228
 2960TIP3    H2 8845   4.628   2.482   3.550 -0.6499  1.0951  0.2329
 2961TIP3   OH2 8846   0.858   1.228   5.678  0.3553  0.0639  0.5988
 2961TIP3    H1 8847   0.902   1.158   5.630 -1.1288 -1.1362  0.9292
 2961TIP3    H2 8848   0.923   1.257   5.743  1.2712 -0.4051 -0.0824
 2962TIP3   OH2 8849   0.926   6.756   1.911 -0.4819  0.1935 -0.3940
 2962TIP3    H1 8850   0.992   6.725   1.849  0.3026 -2.2937  1.5238
 2962TIP3    H2 8851   0.974   6.818   1.967 -0.0113 -0.7509  0.2851
 2963TIP3   OH2 8852   2.526   2.783   4.926 -0.5554 -0.1161 -0.1004
 2963TIP3    H1 8853   2.461   2.846   4.960 -0.8297 -0.7211  0.5129
 2963TIP3    H2 8854   2.503   2.700   4.968  0.0285 -0.5512 -0.6288
 2964TIP3   OH2 8855   4.260   3.386   4.350  0.6508  0.8238  0.6483
 2964TIP3    H1 8856   4.301   3.364   4.266 -0.8549 -1.2133  0.3575
 2964TIP3    H2 8857   4.333   3.411   4.406  1.7672  1.6630 -1.0771
 2965TIP3   OH2 8858   2.192   2.503   4.550  0.1028 -0.3519  0.3419
 2965TIP3    H1 8859   2.152   2.583   4.583  0.1373 -0.4451  0.6154
 2965TIP3    H2 8860   2.209   2.451   4.629 -0.8895 -1.0776  0.0996
 2966TIP3   OH2 8861   5.255   2.523   4.868  0.0053 -0.2517  0.6104
 2966TIP3    H1 8862   5.289   2.547   4.781  0.8939 -2.3842  0.2941
 2966TIP3    H2 8863   5.236   2.607   4.910  1.1325  0.9060 -1.0229
 2967TIP3   OH2 8864   0.617   4.302   5.435 -0.1966  0.2316  0.2106
 2967TIP3    H1 8865   0.604   4.209   5.417 -0.7301  0.2536  0.4488
 2967TIP3    H2 8866   0.712   4.314   5.435  0.0020 -0.8177  2.5928
 2968TIP3   OH2 8867   6.376   5.702  -0.012  0.1616 -0.5579 -0.1182
 2968TIP3    H1 8868   6.388   5.754   0.067  1.9830  0.3021 -0.9062
 2968TIP3    H2 8869   6.318   5.631   0.015 -0.0336  0.2481  1.7299
 2969TIP3   OH2 8870   5.887   3.195   3.792  0.2352 -0.0010 -0.1897
 2969TIP3    H1 8871   5.978   3.215   3.770  0.5474  0.2296  1.2125
 2969TIP3    H2 8872   5.874   3.237   3.877 -0.5532 -1.7657  0.5910
 2970TIP3   OH2 8873   5.136   3.459   4.306  0.7439 -0.2940 -0.2301
 2970TIP3    H1 8874   5.085   3.486   4.382 -0.4424 -0.2489 -1.0221
 2970TIP3    H2 8875   5.205   3.402   4.342  1.0252  0.7818  1.0196
 2971TIP3   OH2 8876   2.509   3.090   4.513  0.3055  0.0011  0.5686
 2971TIP3    H1 8877   2.450   3.101   4.438  0.6747  1.7759  0.5038
 2971TIP3    H2 8878   2.588   3.138   4.488  2.1121 -2.8244  0.3774
 2972TIP3   OH2 8879   5.598   5.199   4.057 -0.7761  0.4195 -0.1931
 2972TIP3    H1 8880   5.593   5.108   4.084 -1.5943  1.1918  2.5708
 2972TIP3    H2 8881   5.691   5.213   4.038 -0.5458 -0.8307 -0.0817
 2973TIP3   OH2 8882   0.410   3.172   2.725  0.2732  0.0056 -0.1446
 2973TIP3    H1 8883   0.466   3.099   2.698 -0.1571 -0.3840 -0.0133
 2973TIP3    H2 8884   0.335   3.130   2.767 -0.3575  0.4819 -0.7531
 2974TIP3   OH2 8885   2.692   0.945   1.676 -0.8825 -0.1573  0.0575
 2974TIP3    H1 8886   2.734   0.952   1.762 -1.5543 -1.2430  0.5041
 2974TIP3    H2 8887   2.607   0.905   1.695 -1.6252  0.8664 -0.9629
 2975TIP3   OH2 8888   2.009   0.937   0.816 -0.3373 -0.1156  0.2468
 2975TIP3    H1 8889   2.089   0.921   0.765 -2.1201 -0.6721 -2.6283
 2975TIP3    H2 8890   1.985   0.851   0.850 -0.5072 -0.2336 -0.1689
 2976TIP3   OH2 8891   6.065   1.766   0.604  0.2746  0.7508 -0.4119
 2976TIP3    H1 8892   6.115   1.693   0.568 -1.5504 -0.7548 -0.0617
 2976TIP3    H2 8893   6.073   1.757   0.699 -1.6288 -0.3047 -0.3029
 2977TIP3   OH2 8894   5.118   4.218   2.914 -0.0357  0.7526  0.1039
 2977TIP3    H1 8895   5.048   4.208   2.979 -0.9640  2.2593 -0.5928
 2977TIP3    H2 8896   5.137   4.129   2.885 -0.5505  0.1795  1.4622
 2978TIP3   OH2 8897   2.769   0.729   0.092 -0.2651 -0.1491 -0.4211
 2978TIP3    H1 8898   2.687   0.778   0.081  1.7886  3.6605 -0.3716
 2978TIP3    H2 8899   2.815   0.740   0.009  1.2639  0.0160  0.4206
 2979TIP3   OH2 8900   7.027   5.498   1.447  0.8374  0.2634  0.0439
 2979TIP3    H1 8901   7.006   5.530   1.360 -1.5874  0.2267  0.5604
 2979TIP3    H2 8902   7.031   5.577   1.502  0.2696  0.1283  0.2854
 2980TIP3   OH2 8903   6.193   4.565   2.276  0.4362 -0.0947 -0.0019
 2980TIP3    H1 8904   6.256   4.631   2.306 -0.8977  1.2409 -0.0081
 2980TIP3    H2 8905   6.125   4.616   2.232 -1.8593 -1.2037  2.0609
 2981TIP3   OH2 8906   2.736   5.117   4.639 -0.2042  0.0782  0.4887
 2981TIP3    H1 8907   2.714   5.093   4.549  0.8804 -2.7427  0.8639
 2981TIP3    H2 8908   2.663   5.171   4.668 -3.0542 -2.8768 -0.5932
 2982TIP3   OH2 8909   4.993   0.060   1.791 -0.0429 -0.4166 -0.2351
 2982TIP3    H1 8910   5.012   0.149   1.820  0.3761 -0.2773 -0.9044
 2982TIP3    H2 8911   5.021   0.058   1.700  0.5347 -1.4216 -0.0522
 2983TIP3   OH2 8912   5.455   3.144   3.519 -0.0356  0.2631 -0.3172
 2983TIP3    H1 8913   5.476   3.129   3.426  2.3498 -1.2742  0.3646
 2983TIP3    H2 8914   5.388   3.212   3.518  0.3062  0.6855 -3.1438
 2984TIP3   OH2 8915   5.139   6.347   1.203 -0.3644  0.2751 -0.0730
 2984TIP3    H1 8916   5.085   6.384   1.272 -2.7149 -1.6579 -0.7261
 2984TIP3    H2 8917   5.228   6.376   1.223 -1.3073  1.7202  2.3706
 2985TIP3   OH2 8918   3.560   1.838   1.225  0.3001  0.1723  0.4491
 2985TIP3    H1 8919   3.526   1.786   1.152 -0.4031  0.5406  0.5082
 2985TIP3    H2 8920   3.482   1.870   1.270  0.7250  0.1686  1.2128
 2986TIP3   OH2 8921   6.321   1.599   1.972  0.8609 -0.1386 -0.3562
 2986TIP3    H1 8922   6.344   1.656   1.899 -0.9007 -0.3004 -1.0886
 2986TIP3    H2 8923   6.293   1.517   1.931 -0.3282 -0.1722  0.4697
 2987TIP3   OH2 8924   5.363   3.399   3.193 -0.6544 -0.2790 -0.0859
 2987TIP3    H1 8925   5.336   3.460   3.261  0.3200 -1.8509  1.8275
 2987TIP3    H2 8926   5.282   3.376   3.148 -1.6443 -0.4891  1.6972
 2988TIP3   OH2 8927   3.067   5.422   5.593 -0.5067 -0.1595 -0.7570
 2988TIP3    H1 8928   3.143   5.465   5.632 -0.8731  0.1043 -0.3244
 2988TIP3    H2 8929   3.034   5.364   5.661 -2.0247  1.3847 -0.1052
 2989TIP3   OH2 8930   5.140   4.787   0.281 -0.2314  0.2402  0.3130
 2989TIP3    H1 8931   5.081   4.838   0.226  0.5297  0.1466 -0.6109
 2989TIP3    H2 8932   5.140   4.700   0.243  2.3337  0.8157 -1.2195
 2990TIP3   OH2 8933   3.665   0.435   2.791  0.0206 -0.0734 -0.5125
 2990TIP3    H1 8934   3.711   0.483   2.860  0.6007  0.5722 -1.3317
 2990TIP3    H2 8935   3.621   0.503   2.740 -0.0963 -0.5099 -1.0033
 2991TIP3   OH2 8936   2.875   5.693   5.225  0.2141  0.4613  0.0392
 2991TIP3    H1 8937   2.885   5.674   5.132 -1.2755 -2.3105  0.3497
 2991TIP3    H2 8938   2.936   5.633   5.268  0.4282  1.2698  0.8796
 2992TIP3   OH2 8939   2.773   6.478   1.169  0.3009  0.0170 -0.2193
 2992TIP3    H1 8940   2.748   6.493   1.078 -0.5703 -1.3576 -0.2340
 2992TIP3    H2 8941   2.827   6.398   1.166 -0.2605 -0.4033  0.5304
 2993TIP3   OH2 8942   6.244   2.520   0.998 -0.8050  0.0295  0.1237
 2993TIP3    H1 8943   6.172   2.502   1.059  0.3423 -1.3226  1.1195
 2993TIP3    H2 8944   6.246   2.443   0.941 -1.2972  0.8923 -1.1109
 2994TIP3   OH2 8945   5.031   3.021   5.574 -0.0681 -0.2829 -0.4357
 2994TIP3    H1 8946   5.106   3.027   5.632 -0.1280  0.3228 -0.4216
 2994TIP3    H2 8947   4.961   3.066   5.620 -1.3150 -3.3209  0.9132
 2995TIP3   OH2 8948   5.522   3.835   4.222  0.8229 -0.7520 -0.0163
 2995TIP3    H1 8949   5.518   3.742   4.198 -0.0238  0.1893 -4.4346
 2995TIP3    H2 8950   5.430   3.859   4.238  0.6991 -0.2134 -1.4048
 2996TIP3   OH2 8951   0.825   1.664   3.700  0.1956 -0.5535 -0.6109
 2996TIP3    H1 8952   0.909   1.639   3.740  0.2416 -0.0603 -0.4013
 2996TIP3    H2 8953   0.766   1.677   3.774  0.2481  0.2395 -0.7029
 2997TIP3   OH2 8954   6.380   5.718   5.325  0.5540 -0.1122  0.2305
 2997TIP3    H1 8955   6.289   5.720   5.354  0.9017  0.5139  1.3182
 2997TIP3    H2 8956   6.428   5.681   5.398  1.0664 -1.4042 -0.7203
 2998TIP3   OH2 8957   6.614   2.960   4.463  0.0244 -0.5175 -0.1672
 2998TIP3    H1 8958   6.570   3.046   4.456  0.5302 -0.2561 -0.1719
 2998TIP3    H2 8959   6.638   2.954   4.556  0.9821 -0.1523 -0.3817
 2999TIP3   OH2 8960   5.649   4.856   2.232  0.6080 -0.1269  0.0858
 2999TIP3    H1 8961   5.701   4.796   2.286  0.1656 -0.7242 -0.1309
 2999TIP3    H2 8962   5.653   4.940   2.278  1.0948 -0.3652  0.4923
 3000TIP3   OH2 8963   3.811   1.007   0.904 -0.0745  0.1647 -0.1862
 3000TIP3    H1 8964   3.905   1.003   0.923 -0.0545 -1.5249 -0.4739
 3000TIP3    H2 8965   3.772   0.946   0.966 -0.6539 -1.1774 -1.8090
 3001TIP3   OH2 8966   0.941   5.145   1.693 -0.6461 -0.2111 -0.3512
 3001TIP3    H1 8967   0.945   5.240   1.696 -0.5538 -0.1451 -1.8900
 3001TIP3    H2 8968   0.886   5.125   1.618 -0.4125 -1.3825 -0.2349
 3002TIP3   OH2 8969   0.248   0.169   2.025  0.1372  0.4317 -0.2928
 3002TIP3    H1 8970   0.248   0.085   1.979 -0.4582 -0.2976  0.9789
 3002TIP3    H2 8971   0.180   0.220   1.981 -0.4175 -0.2508 -0.2494
 3003TIP3   OH2 8972   5.816   4.264   4.649  0.0217 -0.0104  0.6229
 3003TIP3    H1 8973   5.795   4.323   4.721  1.3975 -0.8388  1.7621
 3003TIP3    H2 8974   5.898   4.299   4.613  0.7506 -1.0790  1.1916
 3004TIP3   OH2 8975   4.393   4.907   0.577 -0.0714 -0.0457 -0.0570
 3004TIP3    H1 8976   4.450   4.886   0.503  2.1080 -1.0758  1.7764
 3004TIP3    H2 8977   4.359   4.823   0.607 -0.9038  0.3496  0.1410
 3005TIP3   OH2 8978   1.563   0.495   2.801 -0.6186 -0.0764 -0.0105
 3005TIP3    H1 8979   1.549   0.589   2.792  2.6382  0.6447  1.2083
 3005TIP3    H2 8980   1.499   0.467   2.866 -2.3565  1.0298 -1.1676
 3006TIP3   OH2 8981   1.176   1.580   0.919  0.5797 -0.3381  0.4127
 3006TIP3    H1 8982   1.250   1.541   0.967  2.0802  1.0535 -0.6535
 3006TIP3    H2 8983   1.125   1.504   0.890  3.2348 -1.6409 -1.3491
 3007TIP3   OH2 8984   4.955   2.128   5.727  0.4153 -0.1564 -0.0647
 3007TIP3    H1 8985   4.875   2.076   5.720  1.2060 -1.4115  0.0385
 3007TIP3    H2 8986   4.982   2.143   5.636  0.6925 -0.7385 -0.0820
 3008TIP3   OH2 8987   2.598   0.122   5.292  0.1876  0.4647  0.0659
 3008TIP3    H1 8988   2.629   0.035   5.269 -1.7825 -0.4541  0.6399
 3008TIP3    H2 8989   2.589   0.168   5.208 -1.5001 -0.8989 -0.5418
 3009TIP3   OH2 8990   2.308   4.004   1.737 -0.0953 -0.0636 -0.1637
 3009TIP3    H1 8991   2.347   3.941   1.798  0.6386 -0.7350 -1.2836
 3009TIP3    H2 8992   2.260   3.949   1.674  0.0603  0.5243 -0.8101
 3010TIP3   OH2 8993   4.734   2.281   1.941 -0.2651 -0.1832  0.1636
 3010TIP3    H1 8994   4.821   2.247   1.962  0.5784  1.5203 -0.3344
 3010TIP3    H2 8995   4.691   2.291   2.026  0.2538 -0.4802  0.4682
 3011TIP3   OH2 8996   0.685   6.436   3.510 -0.2579  0.0869  0.5113
 3011TIP3    H1 8997   0.593   6.464   3.509  0.1197  1.8568  2.9729
 3011TIP3    H2 8998   0.731   6.504   3.460 -0.1926 -0.4595 -0.1850
 3012TIP3   OH2 8999   1.900   5.937   1.511 -0.3048 -0.3602  0.3247
 3012TIP3    H1 9000   1.885   5.976   1.597 -1.1928 -1.2196  0.5803
 3012TIP3    H2 9001   1.971   5.874   1.525 -1.0647 -1.1552  0.6406
 3013TIP3   OH2 9002   2.988   2.503   2.474 -0.3744  0.0604  0.2371
 3013TIP3    H1 9003   2.913   2.502   2.534  0.2435  0.2169  1.0298
 3013TIP3    H2 9004   2.971   2.431   2.413 -2.1591  1.3343 -0.8812
 3014TIP3   OH2 9005   3.543   3.777   2.467  0.1744 -0.2767 -0.2191
 3014TIP3    H1 9006   3.578   3.809   2.550  0.0595  1.5310 -0.8297
 3014TIP3    H2 9007   3.509   3.690   2.488 -0.2109  0.2864  1.7120
 3015TIP3   OH2 9008   4.051   5.959   0.156 -0.1088 -0.5462 -0.2330
 3015TIP3    H1 9009   3.994   6.036   0.145  1.5665  0.8786  0.5180
 3015TIP3    H2 9010   4.124   5.974   0.096  1.1079 -0.6380  1.1455
 3016TIP3   OH2 9011   2.248   5.155   4.647 -0.1562 -0.0470 -0.0367
 3016TIP3    H1 9012   2.172   5.206   4.677 -0.5883 -0.8266  0.2176
 3016TIP3    H2 9013   2.237   5.069   4.688 -0.4942 -1.0100 -2.0000
 3017TIP3   OH2 9014   1.378   2.075   1.396  0.1602 -0.5502 -0.3531
 3017TIP3    H1 9015   1.310   2.097   1.333 -0.3329  0.6534  0.5666
 3017TIP3    H2 9016   1.444   2.144   1.386 -0.9456  0.9642  1.8885
 3018TIP3   OH2 9017   5.393   6.171   4.641 -0.6239  0.2240 -0.1562
 3018TIP3    H1 9018   5.419   6.108   4.708 -0.4079 -0.3762 -0.7903
 3018TIP3    H2 9019   5.304   6.145   4.617 -0.2746 -0.3141 -0.9350
 3019TIP3   OH2 9020   4.343   0.074   0.691 -0.2907  0.4664 -0.5947
 3019TIP3    H1 9021   4.368   0.166   0.692  0.6744  0.2136 -1.0193
 3019TIP3    H2 9022   4.392   0.035   0.764  0.1678  0.0732 -1.1100
 3020TIP3   OH2 9023   0.432   4.557   4.194 -0.2480 -0.1847 -0.4720
 3020TIP3    H1 9024   0.440   4.637   4.244 -0.0862 -0.8734  0.6292
 3020TIP3    H2 9025   0.496   4.567   4.123 -0.7677  0.9654 -0.7966
 3021TIP3   OH2 9026   2.173   2.467   3.318 -0.6595 -0.0233 -0.0186
 3021TIP3    H1 9027   2.185   2.396   3.255 -1.6566 -1.3221  1.1694
 3021TIP3    H2 9028   2.110   2.432   3.381 -1.2622  1.9680  0.5762
 3022TIP3   OH2 9029   1.169   4.805   3.176 -0.1167 -0.2330  0.0134
 3022TIP3    H1 9030   1.245   4.854   3.145 -0.0915  0.1157  0.6053
 3022TIP3    H2 9031   1.133   4.764   3.098  0.3986 -0.0054 -0.3475
 3023TIP3   OH2 9032   3.582   0.049   5.825  0.2524 -0.0261 -0.1791
 3023TIP3    H1 9033   3.644   0.117   5.799 -0.5531  0.1257 -1.8599
 3023TIP3    H2 9034   3.593  -0.020   5.760 -0.3344 -0.6258  0.3427
 3024TIP3   OH2 9035   3.941   3.917   3.449  0.1630  0.4143  0.0223
 3024TIP3    H1 9036   3.948   3.997   3.502 -0.2574  0.9057 -0.6439
 3024TIP3    H2 9037   3.883   3.941   3.377 -0.0198 -0.5208 -0.1560
 3025TIP3   OH2 9038   0.610   3.590   3.907 -0.4876 -0.0685 -1.1226
 3025TIP3    H1 9039   0.704   3.596   3.921 -0.2954  1.6097 -2.8228
 3025TIP3    H2 9040   0.600   3.536   3.829 -0.9375 -0.1728 -0.9969
 3026TIP3   OH2 9041   1.604   1.104   2.627  0.3368 -0.0107 -0.1542
 3026TIP3    H1 9042   1.667   1.096   2.699  0.0353  0.7735  0.2108
 3026TIP3    H2 9043   1.657   1.132   2.552  0.6719 -0.9553 -0.2762
 3027TIP3   OH2 9044   4.903   1.704   1.276  0.0933  0.0287  0.4385
 3027TIP3    H1 9045   4.988   1.741   1.299  0.7632 -0.6787 -0.7799
 3027TIP3    H2 9046   4.917   1.610   1.278 -0.5432 -0.0829 -0.2076
 3028TIP3   OH2 9047   4.208   0.145   2.420  0.6649  0.4148 -0.3606
 3028TIP3    H1 9048   4.213   0.051   2.400  1.7744  0.5849 -0.9164
 3028TIP3    H2 9049   4.116   0.168   2.403 -0.2974 -1.0920  2.2092
 3029TIP3   OH2 9050   5.934   1.430   3.311  0.3038 -0.7384 -0.7810
 3029TIP3    H1 9051   5.991   1.420   3.235  1.9209  2.8056 -0.2145
 3029TIP3    H2 9052   5.887   1.512   3.296 -1.4611 -1.3943  0.7843
 3030TIP3   OH2 9053   5.093   1.435   2.927 -0.2467  0.1197 -0.1020
 3030TIP3    H1 9054   5.093   1.341   2.910  0.6890  0.2030 -0.6481
 3030TIP3    H2 9055   5.094   1.442   3.022  1.3550 -0.4618 -0.0498
 3031TIP3   OH2 9056   6.620   3.626   3.140  0.1137 -0.0870 -0.8414
 3031TIP3    H1 9057   6.705   3.642   3.099  0.3186  0.1082 -0.3490
 3031TIP3    H2 9058   6.589   3.713   3.165 -0.3514 -0.1325 -1.2533
 3032TIP3   OH2 9059   6.103   0.081   2.120  0.7889 -0.5036  0.2389
 3032TIP3    H1 9060   6.123   0.129   2.040  1.9528  0.4978  1.1009
 3032TIP3    H2 9061   6.070  -0.004   2.089  0.0038  0.3107 -1.2936
 3033TIP3   OH2 9062   2.665   5.165   5.677  0.3291  0.1679 -0.4756
 3033TIP3    H1 9063   2.626   5.079   5.663  0.9930  0.1308 -2.3107
 3033TIP3    H2 9064   2.635   5.191   5.764  0.6266 -2.1816  0.3905
 3034TIP3   OH2 9065   5.129   4.130   1.067 -0.3592 -0.2961  0.3632
 3034TIP3    H1 9066   5.161   4.178   0.990 -0.5421 -0.2241  0.3315
 3034TIP3    H2 9067   5.117   4.197   1.134 -2.0500 -0.0482 -0.1348
 3035TIP3   OH2 9068   4.867   5.783   2.673 -0.3284  0.1131  0.2156
 3035TIP3    H1 9069   4.920   5.858   2.699  0.2957 -0.1635 -0.2483
 3035TIP3    H2 9070   4.853   5.795   2.579  0.8906 -1.0296 -0.1323
 3036TIP3   OH2 9071   3.381   2.933   1.111  0.1120  0.3516 -0.0512
 3036TIP3    H1 9072   3.468   2.906   1.079 -0.5607 -1.3569 -0.5359
 3036TIP3    H2 9073   3.325   2.927   1.034 -0.4153  1.7279  0.1918
 3037TIP3   OH2 9074   3.674   1.482   4.576  0.1377  0.5395 -0.0746
 3037TIP3    H1 9075   3.643   1.399   4.541  0.8202  0.2194  0.0540
 3037TIP3    H2 9076   3.685   1.468   4.670 -0.2264  0.9311  0.0309
 3038TIP3   OH2 9077   2.113   4.709   2.448  0.1284  0.0803 -0.3998
 3038TIP3    H1 9078   2.175   4.780   2.467 -0.1723  0.7594 -1.7909
 3038TIP3    H2 9079   2.031   4.738   2.487  0.5204 -0.5632  0.9627
 3039TIP3   OH2 9080   7.019   3.705   4.603 -0.5419  0.7645 -0.2573
 3039TIP3    H1 9081   7.001   3.779   4.660 -0.2813  1.0873 -0.5939
 3039TIP3    H2 9082   7.113   3.711   4.585  0.1809 -1.3347  2.1110
 3040TIP3   OH2 9083   6.448   0.566   2.866  0.2435 -0.0354 -0.1804
 3040TIP3    H1 9084   6.372   0.590   2.919 -1.0885 -1.7141 -1.2090
 3040TIP3    H2 9085   6.505   0.518   2.926 -1.2942 -2.0073 -0.1978
 3041TIP3   OH2 9086   7.060   5.106   3.875  0.1342 -0.7695  0.0809
 3041TIP3    H1 9087   6.978   5.155   3.882 -0.0764 -1.2627  1.3103
 3041TIP3    H2 9088   7.127   5.174   3.866 -0.1182 -0.1803  2.1715
 3042TIP3   OH2 9089   5.701   3.127   1.145  0.1734  0.0244  0.6163
 3042TIP3    H1 9090   5.715   3.047   1.196 -0.6551  0.9955  2.4885
 3042TIP3    H2 9091   5.789   3.157   1.121  0.5671 -0.6979  1.1262
 3043TIP3   OH2 9092   2.280   5.190   3.469 -0.2832  0.8746  0.0991
 3043TIP3    H1 9093   2.353   5.128   3.464 -1.5424 -0.6903  0.2634
 3043TIP3    H2 9094   2.228   5.160   3.543 -2.5510  0.2228 -1.6337
 3044TIP3   OH2 9095   6.649   2.096   1.260 -0.4282  0.1698 -0.0579
 3044TIP3    H1 9096   6.588   2.139   1.320 -1.1595 -1.1545  0.1885
 3044TIP3    H2 9097   6.620   2.005   1.257  0.0397  0.0338 -1.8667
 3045TIP3   OH2 9098   4.311   5.542   1.095 -0.1875  0.0873  0.0148
 3045TIP3    H1 9099   4.313   5.554   1.190  1.1604 -0.4926  0.0701
 3045TIP3    H2 9100   4.267   5.620   1.062  3.4603  2.6917  0.7743
 3046TIP3   OH2 9101   6.753   2.770   3.067  0.0123  0.1935 -0.2826
 3046TIP3    H1 9102   6.763   2.675   3.070 -0.7170  0.0125 -2.0500
 3046TIP3    H2 9103   6.744   2.797   3.158  0.2947 -1.4158  0.2458
 3047TIP3   OH2 9104   1.144   1.886   0.870  0.3683  0.4468 -0.0191
 3047TIP3    H1 9105   1.202   1.921   0.938 -0.0851 -1.5661  1.5240
 3047TIP3    H2 9106   1.151   1.791   0.881  0.4631  0.0340 -3.0112
 3048TIP3   OH2 9107   4.345   1.472   0.991  0.0760 -0.5930 -0.8000
 3048TIP3    H1 9108   4.349   1.444   1.083 -0.2144 -0.0575 -0.6195
 3048TIP3    H2 9109   4.420   1.429   0.950  1.2111  0.4868  0.0618
 3049TIP3   OH2 9110   2.989   4.834   1.830 -0.0893 -0.2849 -0.3273
 3049TIP3    H1 9111   3.033   4.782   1.897 -2.7998 -1.1357  0.9298
 3049TIP3    H2 9112   2.947   4.768   1.773 -1.3916  0.4674 -0.2714
 3050TIP3   OH2 9113   0.039   6.141   5.453  0.3845  0.0490 -0.2363
 3050TIP3    H1 9114   0.021   6.233   5.432 -0.6141 -0.0771  0.0101
 3050TIP3    H2 9115  -0.038   6.094   5.421 -0.2664 -0.4079  1.8470
 3051TIP3   OH2 9116   1.331   6.759   5.598 -0.6402 -0.6590 -0.1772
 3051TIP3    H1 9117   1.424   6.738   5.587 -0.8396 -0.7342 -1.9995
 3051TIP3    H2 9118   1.293   6.679   5.634  0.0426 -0.5002  0.9585
 3052TIP3   OH2 9119   3.966   4.512   4.696  0.2131 -0.0941 -0.0809
 3052TIP3    H1 9120   3.992   4.585   4.752  0.5899  1.0748 -1.6995
 3052TIP3    H2 9121   3.925   4.554   4.620  0.0010 -1.5940 -0.8223
 3053TIP3   OH2 9122   5.510   5.756   0.729 -0.1795 -0.0496 -0.0339
 3053TIP3    H1 9123   5.590   5.793   0.767  0.6497 -0.7170 -1.0424
 3053TIP3    H2 9124   5.500   5.802   0.645 -0.0667 -0.9000 -0.5319
 3054TIP3   OH2 9125   6.668   4.698   4.603  0.1113 -0.1026 -0.0517
 3054TIP3    H1 9126   6.579   4.719   4.574 -0.6157  0.0441  2.0861
 3054TIP3    H2 9127   6.724   4.735   4.535 -1.3842  2.2856 -0.1335
 3055TIP3   OH2 9128   4.881   4.811   1.996  0.0027 -0.5767  0.4298
 3055TIP3    H1 9129   4.930   4.834   2.075  1.1693 -0.0761 -0.4074
 3055TIP3    H2 9130   4.935   4.845   1.924  1.4325 -5.0565 -0.9205
 3056TIP3   OH2 9131   4.169   0.745   1.372  0.0804  0.9151 -0.3329
 3056TIP3    H1 9132   4.184   0.726   1.465 -1.7832  0.5370 -0.0845
 3056TIP3    H2 9133   4.137   0.835   1.370 -1.4802  0.3824 -0.4147
 3057TIP3   OH2 9134   7.118   6.060   3.368  0.4742  0.3591 -0.0530
 3057TIP3    H1 9135   7.033   6.076   3.328  0.8807  0.3625 -0.9469
 3057TIP3    H2 9136   7.178   6.120   3.322  1.1003 -0.1997  0.0184
 3058TIP3   OH2 9137   1.377   4.688   5.532  0.7982 -0.0799  0.4632
 3058TIP3    H1 9138   1.365   4.663   5.624  1.7406  2.8833  1.5247
 3058TIP3    H2 9139   1.454   4.639   5.503  0.5423 -0.9848  1.2699
 3059TIP3   OH2 9140   1.798   5.641   1.778 -0.0291  0.4720 -0.1460
 3059TIP3    H1 9141   1.855   5.588   1.833  1.4229  1.6202 -0.4665
 3059TIP3    H2 9142   1.805   5.602   1.691  0.0686  0.4460 -0.1269
 3060TIP3   OH2 9143   2.817   1.670   1.865 -0.4678  0.6649  0.0982
 3060TIP3    H1 9144   2.724   1.676   1.890 -0.6036 -0.6094 -0.0077
 3060TIP3    H2 9145   2.827   1.580   1.834  0.8275  0.7665  0.1743
 3061TIP3   OH2 9146   1.851   4.307   0.012  0.4040  0.9033  0.0285
 3061TIP3    H1 9147   1.778   4.365  -0.006  0.1585  0.0747 -1.9282
 3061TIP3    H2 9148   1.815   4.219   0.002  1.7954  0.4689 -1.9019
 3062TIP3   OH2 9149   0.893   5.776   4.705  0.7508 -0.0478 -0.2636
 3062TIP3    H1 9150   0.985   5.801   4.693  1.3543 -1.9681  0.0253
 3062TIP3    H2 9151   0.896   5.681   4.719 -1.4376 -0.5416 -2.3887
 3063TIP3   OH2 9152   5.998   6.519   4.787  0.6024  0.4847 -0.2154
 3063TIP3    H1 9153   5.932   6.459   4.821  1.2598  0.9168  2.0062
 3063TIP3    H2 9154   6.080   6.469   4.790  0.6245  0.3579 -1.7948
 3064TIP3   OH2 9155   4.139   0.329   4.535  0.1402  0.5900  0.4140
 3064TIP3    H1 9156   4.056   0.335   4.581  0.7211 -2.6797  2.2020
 3064TIP3    H2 9157   4.204   0.311   4.603  1.8016  0.0583 -1.2127
 3065TIP3   OH2 9158   5.248   5.693   0.547  0.3224 -0.2441  0.0862
 3065TIP3    H1 9159   5.165   5.739   0.546 -0.2554 -1.2340 -1.0168
 3065TIP3    H2 9160   5.286   5.712   0.633 -1.3319 -0.2907  0.8581
 3066TIP3   OH2 9161   6.733   2.259   2.490 -0.0565  0.1782  0.1880
 3066TIP3    H1 9162   6.805   2.316   2.519  0.9355 -0.0250 -1.7041
 3066TIP3    H2 9163   6.694   2.305   2.416 -0.7127 -0.5637  0.0568
 3067TIP3   OH2 9164   5.647   0.576   3.041  0.1171 -0.0305  0.8381
 3067TIP3    H1 9165   5.704   0.590   3.117 -0.1725 -2.0605  1.4990
 3067TIP3    H2 9166   5.578   0.518   3.074  0.7552 -2.1551 -1.2965
 3068TIP3   OH2 9167   5.624   5.613   3.112 -0.2804 -0.0468 -0.0543
 3068TIP3    H1 9168   5.562   5.580   3.046  0.2486 -0.6477 -0.2609
 3068TIP3    H2 9169   5.576   5.683   3.156 -0.0163  1.6185 -2.2613
 3069TIP3   OH2 9170   2.588   3.671   4.069 -0.4037 -0.8380  0.5289
 3069TIP3    H1 9171   2.543   3.589   4.088  1.6235 -2.0534  0.4512
 3069TIP3    H2 9172   2.608   3.667   3.975 -0.9481  0.1296  0.3522
 3070TIP3   OH2 9173   5.995   4.357   3.527  0.1822  0.1345  0.3114
 3070TIP3    H1 9174   5.933   4.370   3.599 -0.2546  2.7756 -0.4443
 3070TIP3    H2 9175   5.953   4.293   3.470 -0.7362  0.0733  1.0331
 3071TIP3   OH2 9176   0.966   4.161   2.414 -0.0949  0.6479 -0.5486
 3071TIP3    H1 9177   0.956   4.066   2.407  2.2424  0.2126  1.1512
 3071TIP3    H2 9178   1.007   4.187   2.331  1.3389 -0.1959 -0.1308
 3072TIP3   OH2 9179   1.195   0.801   0.751  0.1772 -0.3441 -0.5270
 3072TIP3    H1 9180   1.256   0.730   0.730  0.0682 -1.0511  1.3689
 3072TIP3    H2 9181   1.232   0.878   0.707  1.3532 -1.1661 -1.0246
 3073TIP3   OH2 9182   2.974   5.041   3.244  0.1976  0.5906 -0.0667
 3073TIP3    H1 9183   3.066   5.023   3.223  0.4347  1.2944  0.3210
 3073TIP3    H2 9184   2.978   5.114   3.306 -0.6113  0.4068  0.2106
 3074TIP3   OH2 9185   6.766   4.159   3.581  0.8679  0.5828 -0.1077
 3074TIP3    H1 9186   6.728   4.123   3.500  2.7039 -0.5617 -0.5028
 3074TIP3    H2 9187   6.742   4.096   3.649  1.2942  0.3198 -0.1976
 3075TIP3   OH2 9188   2.512   2.733   1.950 -0.5101  0.2105  0.5817
 3075TIP3    H1 9189   2.594   2.684   1.943 -0.5048  0.3698 -0.5931
 3075TIP3    H2 9190   2.503   2.777   1.866 -1.3241  0.9636  1.0458
 3076TIP3   OH2 9191   4.495   1.868   0.980  0.2348  0.0023  0.0207
 3076TIP3    H1 9192   4.537   1.823   1.053 -1.0651 -0.6453  0.3893
 3076TIP3    H2 9193   4.478   1.956   1.012  0.7007  0.0657  0.0986
 3077TIP3   OH2 9194   0.813   6.579   0.178 -0.1823 -0.4130 -0.2628
 3077TIP3    H1 9195   0.722   6.585   0.149 -0.7712  3.1049  1.7499
 3077TIP3    H2 9196   0.864   6.602   0.101 -1.2474  0.8551 -0.6329
 3078TIP3   OH2 9197   4.449   6.380   1.479 -0.0360 -0.5500 -0.2677
 3078TIP3    H1 9198   4.415   6.330   1.405 -0.6961 -0.3824 -0.0844
 3078TIP3    H2 9199   4.408   6.466   1.471  0.8447 -0.1304 -0.4026
 3079TIP3   OH2 9200   4.544   4.066   1.426 -0.4149  0.4088  0.3857
 3079TIP3    H1 9201   4.605   4.115   1.480  0.2079 -0.0913  0.1429
 3079TIP3    H2 9202   4.511   4.131   1.364 -1.0603  0.9596  1.2853
 3080TIP3   OH2 9203   5.645   5.067   2.397 -0.1532 -0.0091 -0.2792
 3080TIP3    H1 9204   5.702   5.134   2.359  1.4420 -0.1168  1.7572
 3080TIP3    H2 9205   5.618   5.104   2.482 -0.3094 -1.3852  0.2990
 3081TIP3   OH2 9206   0.892   3.652   3.916 -0.1009  0.0456 -0.3069
 3081TIP3    H1 9207   0.934   3.738   3.922  1.4160 -0.6269 -0.5871
 3081TIP3    H2 9208   0.952   3.601   3.860 -0.7134 -1.3265  0.2499
 3082TIP3   OH2 9209   4.585   2.282   3.171 -0.3115 -0.4281  0.8929
 3082TIP3    H1 9210   4.680   2.286   3.185  0.1021  2.0898 -1.4910
 3082TIP3    H2 9211   4.555   2.371   3.189 -1.7850 -0.5609 -0.6187
 3083TIP3   OH2 9212   3.596   1.485   1.300 -0.7917 -0.5055 -0.4066
 3083TIP3    H1 9213   3.591   1.568   1.253  0.0076 -0.8252 -1.0672
 3083TIP3    H2 9214   3.641   1.425   1.240  0.2427 -0.9266  0.7606
 3084TIP3   OH2 9215   0.005   2.644   1.498 -1.1926  0.3736  0.3345
 3084TIP3    H1 9216   0.082   2.679   1.453 -2.9712  1.5737 -2.0477
 3084TIP3    H2 9217   0.011   2.549   1.485 -0.2372  0.4683 -0.0351
 3085TIP3   OH2 9218   2.058   4.073   1.435  0.2119  0.9665 -0.3408
 3085TIP3    H1 9219   2.067   4.109   1.346 -0.9229  0.9649 -0.4737
 3085TIP3    H2 9220   2.082   3.981   1.426  0.0944  0.9647 -0.6556
 3086TIP3   OH2 9221   5.741   6.773   2.264 -0.1002 -0.5553  0.0790
 3086TIP3    H1 9222   5.797   6.748   2.191 -0.6792 -0.0645 -0.5492
 3086TIP3    H2 9223   5.801   6.789   2.337  0.7001  1.0964 -0.8877
 3087TIP3   OH2 9224   0.245   5.823   2.622 -0.3002  0.0187  0.2299
 3087TIP3    H1 9225   0.238   5.918   2.612  1.8702  0.1520 -0.4452
 3087TIP3    H2 9226   0.313   5.811   2.689 -0.3741 -1.0682  0.1251
 3088TIP3   OH2 9227   6.549   3.789   2.203 -0.2261  0.4849 -0.3383
 3088TIP3    H1 9228   6.501   3.871   2.189 -0.9553 -0.0767 -1.2675
 3088TIP3    H2 9229   6.608   3.783   2.128 -0.2915  0.0898 -0.3611
 3089TIP3   OH2 9230   0.823   5.130   3.501 -0.3908 -0.5575  0.3791
 3089TIP3    H1 9231   0.831   5.124   3.596 -0.0223 -0.7789  0.3361
 3089TIP3    H2 9232   0.736   5.097   3.482 -1.8159  2.5162  0.9230
 3090TIP3   OH2 9233   0.992   5.631   0.060 -0.2230 -0.0549 -0.4828
 3090TIP3    H1 9234   0.918   5.579   0.091  1.6506 -2.6303  0.0224
 3090TIP3    H2 9235   1.069   5.579   0.084  1.6659  1.3893 -2.9898
 3091TIP3   OH2 9236   3.277   1.618   1.195 -0.0311  0.5380  0.3001
 3091TIP3    H1 9237   3.278   1.528   1.227  1.0946  1.0633  1.8486
 3091TIP3    H2 9238   3.367   1.636   1.169  0.5736  2.2264  3.1367
 3092TIP3   OH2 9239   1.424   3.906   1.481 -0.5866  0.1385  0.0977
 3092TIP3    H1 9240   1.377   3.886   1.562 -0.0086  2.8858  1.2048
 3092TIP3    H2 9241   1.514   3.924   1.509 -0.4651  1.5303 -1.0644
 3093TIP3   OH2 9242   7.109   1.628   0.328  0.3551 -0.2504  0.2237
 3093TIP3    H1 9243   7.138   1.691   0.263 -1.9207  1.4991  0.7755
 3093TIP3    H2 9244   7.055   1.566   0.278 -2.5648  1.8824  0.4592
 3094TIP3   OH2 9245   3.655   3.435   2.735  0.5691 -0.0976 -0.2523
 3094TIP3    H1 9246   3.684   3.505   2.676  1.7855 -2.3634 -2.5778
 3094TIP3    H2 9247   3.727   3.371   2.733 -1.3468 -2.3987  0.0181
 3095TIP3   OH2 9248   6.175   5.075   3.146 -0.4595 -0.2490  0.0248
 3095TIP3    H1 9249   6.191   5.013   3.218 -0.4788 -1.4333 -0.9422
 3095TIP3    H2 9250   6.082   5.095   3.152 -1.7594 -4.2378 -2.4828
 3096TIP3   OH2 9251   3.274   5.536   5.698  1.0940  0.6315 -0.5626
 3096TIP3    H1 9252   3.248   5.625   5.725 -1.3376 -0.0194 -0.5252
 3096TIP3    H2 9253   3.346   5.514   5.757 -0.7968  1.1658  2.1330
 3097TIP3   OH2 9254   1.937   5.011   3.984 -0.9226  0.4250 -0.6208
 3097TIP3    H1 9255   1.937   5.107   3.989  0.2247  0.4052  0.0008
 3097TIP3    H2 9256   2.001   4.990   3.916  0.0864  0.0692  0.4134
 3098TIP3   OH2 9257   1.974   2.354   3.454  0.0162  0.1962 -0.0370
 3098TIP3    H1 9258   1.965   2.259   3.445 -1.9154  0.4985 -2.1075
 3098TIP3    H2 9259   1.947   2.372   3.545  1.4014 -1.2674  0.7222
 3099TIP3   OH2 9260   2.372   3.666   2.673  0.2642  0.4419  0.1503
 3099TIP3    H1 9261   2.465   3.665   2.652  0.0735 -1.4791 -0.8227
 3099TIP3    H2 9262   2.368   3.691   2.766  1.6620  1.4761 -0.0434
 3100TIP3   OH2 9263   1.073   1.314   1.188  0.2252 -0.1726  0.2150
 3100TIP3    H1 9264   1.130   1.275   1.254  0.0659 -1.1296 -0.1988
 3100TIP3    H2 9265   1.071   1.407   1.210 -0.9254 -0.6435  2.3967
 3101TIP3   OH2 9266   1.780   0.686   0.769  0.1985 -0.4869  0.3981
 3101TIP3    H1 9267   1.736   0.609   0.805  0.3189 -0.9960 -0.5220
 3101TIP3    H2 9268   1.746   0.759   0.821 -0.2286 -1.1039  1.0080
 3102TIP3   OH2 9269   0.199   3.050   2.851  0.2238 -0.2623  0.1217
 3102TIP3    H1 9270   0.231   2.994   2.922 -0.4810 -0.7706  0.0582
 3102TIP3    H2 9271   0.109   3.072   2.878  0.9208  1.9495  0.7980
 3103TIP3   OH2 9272   5.172   1.126   0.231 -0.2706  1.0551 -0.2519
 3103TIP3    H1 9273   5.077   1.128   0.242 -0.2563 -0.2830  0.3765
 3103TIP3    H2 9274   5.206   1.122   0.321  0.2990 -0.0459 -0.4994
 3104TIP3   OH2 9275   4.314   1.214   0.325 -0.1184  0.0336 -0.0549
 3104TIP3    H1 9276   4.346   1.132   0.362 -0.4881  1.3018  3.4566
 3104TIP3    H2 9277   4.224   1.222   0.358 -0.9779  0.7742 -2.3500
 3105TIP3   OH2 9278   5.959   0.964   5.688 -0.0566 -0.4743  0.3240
 3105TIP3    H1 9279   6.053   0.950   5.701 -0.4298 -1.8265  2.0717
 3105TIP3    H2 9280   5.953   1.006   5.603  2.1349 -0.2940  0.1788
 3106TIP3   OH2 9281   0.110   1.576   2.322 -0.0197  0.2525  0.1366
 3106TIP3    H1 9282   0.111   1.543   2.232 -0.4597 -1.2668  0.6562
 3106TIP3    H2 9283   0.115   1.497   2.376 -0.1551  1.1188  1.4533
 3107TIP3   OH2 9284   3.154   1.729   4.595  0.5395 -0.2004  0.3089
 3107TIP3    H1 9285   3.161   1.727   4.690 -0.7137  0.3169  0.4265
 3107TIP3    H2 9286   3.111   1.647   4.572 -0.3769  0.2746  0.3106
 3108TIP3   OH2 9287   2.230   0.620   1.298  0.0743 -0.2897 -0.3642
 3108TIP3    H1 9288   2.319   0.623   1.264  0.1045  0.8432 -0.2238
 3108TIP3    H2 9289   2.197   0.534   1.271  0.8884 -0.3542 -1.2139
 3109TIP3   OH2 9290   6.178   6.382   4.060  0.6037  0.1275  0.3798
 3109TIP3    H1 9291   6.231   6.454   4.093  0.5037 -0.2730  1.4291
 3109TIP3    H2 9292   6.100   6.424   4.025  0.5382  0.5334  1.0054
 3110TIP3   OH2 9293   1.123   1.685   1.494 -0.2750  0.4873 -0.5551
 3110TIP3    H1 9294   1.045   1.717   1.539 -0.6877  0.9517 -1.5795
 3110TIP3    H2 9295   1.195   1.733   1.535 -0.6180  0.7337 -0.2322
 3111TIP3   OH2 9296   1.534   0.294   1.288  0.3741  0.6313 -0.1556
 3111TIP3    H1 9297   1.566   0.379   1.258  2.0936  0.0733 -0.0019
 3111TIP3    H2 9298   1.592   0.230   1.245 -0.8345 -0.4745 -0.2098
 3112TIP3   OH2 9299   2.111   2.135   1.754  0.1561 -0.5033  0.0817
 3112TIP3    H1 9300   2.109   2.046   1.718 -0.7185  0.1013 -1.4434
 3112TIP3    H2 9301   2.028   2.174   1.727  1.7816  1.7966 -2.0274
 3113TIP3   OH2 9302   4.820   4.198   1.318 -0.4809 -0.3252 -0.0309
 3113TIP3    H1 9303   4.776   4.223   1.399 -0.4768 -0.3573 -0.0189
 3113TIP3    H2 9304   4.770   4.242   1.249 -1.1137 -1.1282 -0.0968
 3114TIP3   OH2 9305   2.856   4.777   4.523  0.6180 -0.1328  0.0174
 3114TIP3    H1 9306   2.877   4.826   4.602  2.6592 -0.0172 -0.5368
 3114TIP3    H2 9307   2.806   4.838   4.469  1.2943  0.6254  0.2303
 3115TIP3   OH2 9308   5.992   4.360   4.884  0.2061  0.7387 -0.0732
 3115TIP3    H1 9309   6.029   4.279   4.850  0.3532  0.6836  0.2152
 3115TIP3    H2 9310   6.023   4.365   4.974 -0.7909  0.5130  0.2919
 3116TIP3   OH2 9311   1.318   0.712   3.563  0.2971 -0.0593  0.4879
 3116TIP3    H1 9312   1.289   0.775   3.498  0.9949  0.8496  1.0441
 3116TIP3    H2 9313   1.400   0.748   3.598  0.9970 -1.5268  0.4410
 3117TIP3   OH2 9314   6.620   3.811   4.953  0.5887  0.1683 -0.4307
 3117TIP3    H1 9315   6.597   3.796   4.861  4.1569 -2.5558 -1.0980
 3117TIP3    H2 9316   6.590   3.732   4.998 -0.8217  1.3335  0.7654
 3118TIP3   OH2 9317   4.888   0.302   5.211 -0.3201  0.4165 -0.3069
 3118TIP3    H1 9318   4.869   0.238   5.280 -1.5944  1.3053  0.2097
 3118TIP3    H2 9319   4.981   0.291   5.194 -0.5182 -1.6327 -0.3159
 3119TIP3   OH2 9320   5.096   0.520   3.008 -0.1400  0.1871 -0.4262
 3119TIP3    H1 9321   5.046   0.470   2.943  1.3040 -1.4802 -0.3278
 3119TIP3    H2 9322   5.184   0.482   3.004  0.6356  1.7772  0.7174
 3120TIP3   OH2 9323   3.610   4.466   0.487 -0.4948 -0.0161 -0.2475
 3120TIP3    H1 9324   3.543   4.398   0.483  1.0557 -1.7486  1.6594
 3120TIP3    H2 9325   3.668   4.447   0.414 -0.1499 -0.6756  0.1903
 3121TIP3   OH2 9326   3.819   5.491   0.184  0.0608  0.2100  0.1996
 3121TIP3    H1 9327   3.904   5.516   0.220 -0.0129 -0.2953  0.7360
 3121TIP3    H2 9328   3.789   5.569   0.138  1.7695 -0.2454 -1.8454
 3122TIP3   OH2 9329   0.477   6.283   3.694  0.5819  0.7556 -0.6707
 3122TIP3    H1 9330   0.436   6.328   3.620 -0.2419  0.4097 -0.4323
 3122TIP3    H2 9331   0.495   6.195   3.661  0.4977  0.6951 -0.5525
 3123TIP3   OH2 9332   2.179   4.067   2.242 -0.4443  0.8251 -0.2129
 3123TIP3    H1 9333   2.151   4.104   2.325  2.0986  2.0623  0.1924
 3123TIP3    H2 9334   2.223   3.985   2.265 -1.0811  0.3893 -0.5179
 3124TIP3   OH2 9335   4.121   5.937   5.483 -0.7877 -0.0254 -0.6003
 3124TIP3    H1 9336   4.110   6.031   5.476 -2.6245 -0.1313  0.3275
 3124TIP3    H2 9337   4.041   5.906   5.525  0.8183 -1.6880  1.5007
 3125TIP3   OH2 9338   2.187   2.009   1.150  0.1745  0.3720  1.0518
 3125TIP3    H1 9339   2.241   2.052   1.084  0.3052 -2.2727 -0.7162
 3125TIP3    H2 9340   2.227   2.033   1.234  2.7122  0.3585 -0.0732
 3126TIP3   OH2 9341   3.371   1.165   1.998 -0.6742  0.3469  0.6100
 3126TIP3    H1 9342   3.430   1.171   2.074  1.1367 -2.2369 -0.4422
 3126TIP3    H2 9343   3.428   1.185   1.923 -1.7881  0.2790 -0.2749
 3127TIP3   OH2 9344   5.499   5.869   3.173 -0.1622 -0.2453  0.0199
 3127TIP3    H1 9345   5.411   5.876   3.211 -0.8636 -0.9439 -1.3720
 3127TIP3    H2 9346   5.552   5.931   3.222 -1.0278 -0.9684  1.9836
 3128TIP3   OH2 9347   2.126   5.640   4.515  0.1172 -0.2800  0.3100
 3128TIP3    H1 9348   2.207   5.645   4.463 -0.3790  0.6769 -0.4097
 3128TIP3    H2 9349   2.144   5.693   4.592 -0.2212  0.9984 -0.4503
 3129TIP3   OH2 9350   0.009   0.172   4.797  0.0819 -0.3016  0.3821
 3129TIP3    H1 9351   0.033   0.103   4.735  1.7327  0.3037  0.3102
 3129TIP3    H2 9352  -0.005   0.249   4.742 -0.8946 -0.3431  0.5490
 3130TIP3   OH2 9353   2.167   5.371   0.692 -0.1155 -0.0940  1.0421
 3130TIP3    H1 9354   2.110   5.430   0.741  0.0102 -0.0611  1.1459
 3130TIP3    H2 9355   2.255   5.388   0.725 -0.1946 -1.0407  1.7980
 3131TIP3   OH2 9356   6.310   5.846   1.964  0.1991  0.1829 -0.3639
 3131TIP3    H1 9357   6.243   5.898   1.920  0.2435 -0.4194 -1.1575
 3131TIP3    H2 9358   6.391   5.893   1.947 -0.1523  1.8071  1.9423
 3132TIP3   OH2 9359   2.068   4.852   5.778 -0.1882  0.3184 -0.0450
 3132TIP3    H1 9360   2.132   4.877   5.711  1.2557  0.6300  1.4027
 3132TIP3    H2 9361   2.055   4.758   5.764  0.5688  0.2526 -0.3894
 3133TIP3   OH2 9362   1.496   2.060   2.000  0.0418  0.0463  0.7638
 3133TIP3    H1 9363   1.492   1.986   1.940 -1.9200 -0.0438  0.9642
 3133TIP3    H2 9364   1.510   2.136   1.943  1.0137 -0.3290  0.4753
 3134TIP3   OH2 9365   6.563   0.856   3.358  0.4007 -0.3120  0.3311
 3134TIP3    H1 9366   6.610   0.774   3.377  1.2456  0.2655  0.7715
 3134TIP3    H2 9367   6.620   0.925   3.393 -1.8287  0.3121  3.0863
 3135TIP3   OH2 9368   0.508   5.655   4.148  1.2407  0.2325  0.0499
 3135TIP3    H1 9369   0.484   5.701   4.067 -0.7711 -2.0824 -0.8129
 3135TIP3    H2 9370   0.433   5.669   4.206  0.7038 -1.6199 -0.1395
 3136TIP3   OH2 9371   4.767   0.260   4.965 -0.7305  0.3541  0.0992
 3136TIP3    H1 9372   4.759   0.165   4.959 -0.6130  0.3606 -0.1918
 3136TIP3    H2 9373   4.800   0.277   5.053  0.4619  0.0510 -0.2814
 3137TIP3   OH2 9374   6.501   3.595   0.412 -0.1171  0.3135  0.1798
 3137TIP3    H1 9375   6.568   3.648   0.455  1.2675 -2.1159  1.2411
 3137TIP3    H2 9376   6.422   3.608   0.464  0.3824  0.7838  0.8281
 3138TIP3   OH2 9377   5.731   5.497   0.128  0.0331 -0.3886 -0.4147
 3138TIP3    H1 9378   5.764   5.527   0.044  1.7927  0.3485  0.4881
 3138TIP3    H2 9379   5.665   5.431   0.106 -2.2827  2.3375 -2.4227
 3139TIP3   OH2 9380   3.067   4.399   4.227 -0.0435  0.0828  0.0093
 3139TIP3    H1 9381   3.032   4.481   4.262 -0.4451 -0.1866  0.2485
 3139TIP3    H2 9382   3.120   4.425   4.152 -2.3935  0.3812 -1.6756
 3140TIP3   OH2 9383   3.333   1.771   1.565  0.0914  0.1533 -0.6372
 3140TIP3    H1 9384   3.256   1.776   1.508  0.6690 -0.1594 -1.4539
 3140TIP3    H2 9385   3.370   1.685   1.549  0.5405  0.2442 -0.1346
 3141TIP3   OH2 9386   4.804   5.440   0.879  0.3019 -0.4770  0.0978
 3141TIP3    H1 9387   4.720   5.410   0.913 -0.3799 -0.3445 -1.4260
 3141TIP3    H2 9388   4.868   5.410   0.944 -0.8193 -1.3088  0.8513
 3142TIP3   OH2 9389   3.753   0.876   1.140 -0.0615  0.1130  0.3154
 3142TIP3    H1 9390   3.834   0.825   1.143  0.1631  0.4812  1.2326
 3142TIP3    H2 9391   3.733   0.892   1.233 -1.8328 -0.9674  0.1435
 3143TIP3   OH2 9392   2.746   3.024   3.787 -0.0433  0.1300  0.4027
 3143TIP3    H1 9393   2.779   2.934   3.788 -1.5544 -0.4411  0.2588
 3143TIP3    H2 9394   2.788   3.065   3.863  3.4844  0.4117 -1.4521
 3144TIP3   OH2 9395   0.180   3.787   0.267  0.0764 -0.5959  0.1264
 3144TIP3    H1 9396   0.111   3.796   0.332  0.2155  0.1805  0.1724
 3144TIP3    H2 9397   0.252   3.839   0.300  0.5380 -1.0591 -0.1311
 3145TIP3   OH2 9398   3.929   2.963   0.585 -0.4279  0.1187  0.0728
 3145TIP3    H1 9399   4.015   2.932   0.556 -0.9583 -0.5803 -0.7986
 3145TIP3    H2 9400   3.919   3.048   0.542 -1.0524 -0.7457 -1.5739
 3146TIP3   OH2 9401   6.676   3.290   2.199  0.3641  0.1601  0.3993
 3146TIP3    H1 9402   6.651   3.301   2.291  1.3125  1.7175  0.4884
 3146TIP3    H2 9403   6.610   3.339   2.150 -0.7005 -1.4406  0.1288
 3147TIP3   OH2 9404   1.393   0.377   5.089  0.4198  0.1942  0.1717
 3147TIP3    H1 9405   1.303   0.407   5.096  0.5649  0.3491  1.7376
 3147TIP3    H2 9406   1.386   0.285   5.064 -0.1297  0.4764 -0.7485
 3148TIP3   OH2 9407   0.375   0.456   4.765 -0.2035  0.2392 -0.1146
 3148TIP3    H1 9408   0.308   0.516   4.796 -0.3049 -0.7704  1.7302
 3148TIP3    H2 9409   0.441   0.455   4.834  0.6870 -0.3809 -0.9436
 3149TIP3   OH2 9410   3.494   5.589   0.338  0.0792  0.0820 -0.1603
 3149TIP3    H1 9411   3.526   5.614   0.252 -2.0404 -1.7687 -1.6193
 3149TIP3    H2 9412   3.562   5.533   0.374 -0.1541 -1.4188 -1.9043
 3150TIP3   OH2 9413   0.165   1.720   3.334  0.5398  0.1634  0.1063
 3150TIP3    H1 9414   0.161   1.793   3.272  1.5195  1.4001  1.4279
 3150TIP3    H2 9415   0.077   1.682   3.333  0.0674  1.2340 -0.7582
 3151TIP3   OH2 9416   0.623   3.939   0.382 -0.2068  0.4032 -0.3573
 3151TIP3    H1 9417   0.678   3.998   0.332  1.6096 -1.0371 -0.1889
 3151TIP3    H2 9418   0.597   3.871   0.320  0.3983 -0.3081  0.1336
 3152TIP3   OH2 9419   5.187   3.558   2.021  0.5364  0.3145  0.1444
 3152TIP3    H1 9420   5.123   3.488   2.028 -0.2373  0.9990  0.0910
 3152TIP3    H2 9421   5.180   3.587   1.930  0.3174  0.9477  0.3584
 3153TIP3   OH2 9422   1.102   0.128   2.436 -0.1651  0.0048 -0.0988
 3153TIP3    H1 9423   1.170   0.189   2.404 -1.9366  1.6212 -0.9993
 3153TIP3    H2 9424   1.119   0.122   2.530  1.6923 -0.2852 -0.4011
 3154TIP3   OH2 9425   0.697   2.407   2.789  0.0755 -0.2986  0.2219
 3154TIP3    H1 9426   0.620   2.381   2.840 -1.3186  1.4635 -0.8965
 3154TIP3    H2 9427   0.740   2.473   2.843 -0.1494 -0.0557  0.1056
 3155TIP3   OH2 9428   5.173   5.153   3.390  0.6789 -0.3455 -0.3933
 3155TIP3    H1 9429   5.204   5.062   3.394  4.7115  0.8664  0.4842
 3155TIP3    H2 9430   5.197   5.191   3.474 -0.5614  1.6797 -0.8695
 3156TIP3   OH2 9431   5.374   5.072   0.340  0.2491 -0.7400  0.2936
 3156TIP3    H1 9432   5.392   4.981   0.317  0.1696 -0.7603  0.3141
 3156TIP3    H2 9433   5.461   5.110   0.356  0.3214 -0.6482 -0.3202
 3157TIP3   OH2 9434   2.691   0.220   4.547  0.2052  0.4286  0.2389
 3157TIP3    H1 9435   2.725   0.300   4.508  1.3195 -1.6848 -3.6452
 3157TIP3    H2 9436   2.599   0.217   4.520  0.8925 -0.8685 -2.2876
 3158TIP3   OH2 9437   0.466   5.897   2.185  0.4092 -0.6172 -0.2574
 3158TIP3    H1 9438   0.417   5.822   2.152  0.1673 -2.0381  2.9657
 3158TIP3    H2 9439   0.406   5.971   2.175 -1.3701 -1.8080  0.9915
 3159TIP3   OH2 9440   1.429   5.920   3.007  0.4613  0.3960  0.0861
 3159TIP3    H1 9441   1.446   5.829   2.985 -0.0822  0.2941  0.0647
 3159TIP3    H2 9442   1.405   5.919   3.100  1.5912  0.6725  0.3931
 3160TIP3   OH2 9443   1.885   3.794   4.783 -0.1001 -0.0390  0.0144
 3160TIP3    H1 9444   1.911   3.800   4.875 -1.1092 -0.1849  0.3169
 3160TIP3    H2 9445   1.868   3.885   4.757  0.8933  0.0858 -0.2556
 3161TIP3   OH2 9446   4.636   2.425   1.534  0.2728 -0.3324 -0.1330
 3161TIP3    H1 9447   4.606   2.360   1.597 -1.3876  0.4293 -0.0730
 3161TIP3    H2 9448   4.705   2.473   1.581 -2.1107  1.4081  1.9357
 3162TIP3   OH2 9449   7.061   1.127   4.843  0.6373 -0.6643 -0.5268
 3162TIP3    H1 9450   7.072   1.159   4.753  0.4119 -0.4415 -0.4769
 3162TIP3    H2 9451   7.080   1.034   4.838  1.8635 -0.4226 -0.5721
 3163TIP3   OH2 9452   4.321   6.034   0.953  0.6772  0.1273 -0.2191
 3163TIP3    H1 9453   4.290   6.031   0.863  0.8769  2.5899 -0.4329
 3163TIP3    H2 9454   4.416   6.040   0.945  0.6797  0.6166  0.1233
 3164TIP3   OH2 9455   6.297   4.800   0.035  0.5284  0.0490 -0.0753
 3164TIP3    H1 9456   6.266   4.859   0.103  1.3520  1.0060 -0.5042
 3164TIP3    H2 9457   6.228   4.801  -0.031  0.2253 -0.0116  0.2411
 3165TIP3   OH2 9458   0.487   3.542   4.142 -0.7548  0.2222 -0.5424
 3165TIP3    H1 9459   0.518   3.582   4.061 -0.6504  1.4410  0.0711
 3165TIP3    H2 9460   0.565   3.503   4.181 -1.0706 -1.8103 -1.7586
 3166TIP3   OH2 9461   6.349   2.703   4.872  0.0812  0.1246  0.0896
 3166TIP3    H1 9462   6.414   2.695   4.943  0.4863 -0.8055 -0.3720
 3166TIP3    H2 9463   6.385   2.650   4.801 -1.4013 -0.7831 -0.0198
 3167TIP3   OH2 9464   4.175   6.291   1.359  0.5230 -0.8759 -0.3918
 3167TIP3    H1 9465   4.127   6.247   1.429  1.2609  0.0710  0.7375
 3167TIP3    H2 9466   4.117   6.285   1.283 -0.3037 -1.9000  0.2888
 3168TIP3   OH2 9467   0.724   4.900   2.027  0.4282  0.2493 -0.4958
 3168TIP3    H1 9468   0.725   4.988   2.064  1.1697  1.6670 -3.5000
 3168TIP3    H2 9469   0.802   4.898   1.971  0.2563 -2.2247 -0.7182
 3169TIP3   OH2 9470   0.555   5.033   0.198 -0.4941 -0.1058  0.2856
 3169TIP3    H1 9471   0.470   5.024   0.156 -1.0441  1.9363  0.8148
 3169TIP3    H2 9472   0.535   5.061   0.288  0.7084 -1.5660  1.0502
 3170TIP3   OH2 9473   6.144   6.449   1.976  0.1315  0.2170  0.2651
 3170TIP3    H1 9474   6.108   6.363   1.995 -0.6433 -0.0484 -2.1099
 3170TIP3    H2 9475   6.085   6.511   2.019 -0.2238 -0.3653  0.6199
 3171TIP3   OH2 9476   1.260   4.751   0.318  0.0761  0.7406 -0.0553
 3171TIP3    H1 9477   1.234   4.684   0.382 -3.8060  2.3050  0.2662
 3171TIP3    H2 9478   1.248   4.834   0.364  0.3940  1.8202 -1.8309
 3172TIP3   OH2 9479   0.628   6.569   2.090 -0.0438 -0.0851  0.8429
 3172TIP3    H1 9480   0.533   6.560   2.084 -0.2061  1.0037  1.3812
 3172TIP3    H2 9481   0.655   6.601   2.004  0.0532 -1.8477  0.1877
 3173TIP3   OH2 9482   6.714   3.170   0.480 -0.4543 -0.3089 -0.7087
 3173TIP3    H1 9483   6.657   3.223   0.424 -1.0789 -0.7948 -0.5498
 3173TIP3    H2 9484   6.685   3.080   0.464 -0.9433 -0.4274  0.7164
 3174TIP3   OH2 9485   4.417   5.970   1.289 -0.1441 -0.0810 -0.2485
 3174TIP3    H1 9486   4.440   5.964   1.382 -1.3357 -0.8102  0.0336
 3174TIP3    H2 9487   4.325   5.944   1.286 -0.6762  1.7529 -1.4078
 3175TIP3   OH2 9488   3.195   0.584   4.568  0.2180 -0.1085 -0.3161
 3175TIP3    H1 9489   3.155   0.505   4.530  1.5900 -0.6253 -0.7561
 3175TIP3    H2 9490   3.256   0.550   4.633  0.9620  0.5838 -0.6436
 3176TIP3   OH2 9491   2.809   0.463   2.881 -0.2375  0.3019 -0.3055
 3176TIP3    H1 9492   2.868   0.526   2.839 -2.2925  0.7891 -2.7069
 3176TIP3    H2 9493   2.764   0.513   2.949  1.4731  0.1040  1.0558
 3177TIP3   OH2 9494   2.180   1.581   3.955 -0.1562 -0.2163  0.3075
 3177TIP3    H1 9495   2.200   1.674   3.949  0.9002 -0.5166 -2.1985
 3177TIP3    H2 9496   2.137   1.560   3.871 -1.1499 -1.8266  1.1638
 3178TIP3   OH2 9497   2.727   2.355   3.307  0.0344 -0.1375 -0.2524
 3178TIP3    H1 9498   2.711   2.412   3.232  0.4960  0.0577 -0.2064
 3178TIP3    H2 9499   2.655   2.292   3.305  0.1404 -0.2475 -0.9654
 3179TIP3   OH2 9500   3.831   1.554   1.137 -0.3518  0.6460 -0.5101
 3179TIP3    H1 9501   3.925   1.570   1.141 -0.2497 -0.1196  0.5773
 3179TIP3    H2 9502   3.795   1.607   1.208 -0.5852 -0.0257 -0.1206
 3180TIP3   OH2 9503   3.264   4.764   5.761  0.2811 -0.4452  0.7505
 3180TIP3    H1 9504   3.301   4.678   5.739  0.2813 -0.5209  1.0334
 3180TIP3    H2 9505   3.295   4.822   5.692 -1.0331 -0.9973 -0.3564
 3181TIP3   OH2 9506   0.081   1.065   5.122 -0.7383 -0.1120 -0.2352
 3181TIP3    H1 9507   0.099   1.139   5.065 -0.3621 -0.1495 -0.1691
 3181TIP3    H2 9508  -0.014   1.053   5.117 -0.8302  0.5324 -0.0433
 3182TIP3   OH2 9509   1.209   1.965   1.742 -0.6033  1.1168 -0.2664
 3182TIP3    H1 9510   1.135   2.019   1.712 -1.2403 -0.1556 -1.0861
 3182TIP3    H2 9511   1.192   1.951   1.835 -1.0821  1.3146 -0.3192
 3183TIP3   OH2 9512   5.439   2.972   1.352  0.2021 -0.3789 -0.6893
 3183TIP3    H1 9513   5.517   2.936   1.309 -0.2280  0.6074 -2.3936
 3183TIP3    H2 9514   5.374   2.902   1.346  0.9311 -1.2483  0.8321
 3184TIP3   OH2 9515   1.165   0.693   5.235  0.1395 -0.3678 -0.4413
 3184TIP3    H1 9516   1.143   0.617   5.181  0.9243 -0.3879 -0.7448
 3184TIP3    H2 9517   1.231   0.661   5.296 -1.4411 -0.6111  1.2392
 3185TIP3   OH2 9518   4.132   2.884   1.384  0.2619  0.0286  0.4771
 3185TIP3    H1 9519   4.215   2.917   1.419  0.0532  1.2076 -0.0939
 3185TIP3    H2 9520   4.105   2.950   1.320 -2.2263  0.7811  2.1877
 3186TIP3   OH2 9521   2.164   3.059   3.541 -0.2474 -0.6155 -0.2516
 3186TIP3    H1 9522   2.200   2.986   3.591 -0.5918 -1.0695 -0.6428
 3186TIP3    H2 9523   2.240   3.110   3.514  0.1213 -1.5736 -1.0934
 3187TIP3   OH2 9524   4.946   6.334   4.244 -0.3726 -0.1186  0.3163
 3187TIP3    H1 9525   4.979   6.261   4.191  1.5484  0.9853 -0.1171
 3187TIP3    H2 9526   4.895   6.292   4.313  0.8818 -1.9122  0.2399
 3188TIP3   OH2 9527   5.001   5.375   3.403 -0.0628  0.0801  0.4636
 3188TIP3    H1 9528   5.047   5.291   3.398  0.9871  0.6586  0.1493
 3188TIP3    H2 9529   5.048   5.424   3.471 -1.7445 -0.2068  1.8959
 3189TIP3   OH2 9530   6.073   6.048   1.318  0.3128  0.5879 -0.0587
 3189TIP3    H1 9531   6.142   5.993   1.354  0.5972  1.7445  1.2653
 3189TIP3    H2 9532   6.028   5.992   1.255  0.9593 -0.9540  0.7920
 3190TIP3   OH2 9533   1.439   1.957   4.842 -0.4916 -0.4921 -0.0898
 3190TIP3    H1 9534   1.428   2.013   4.764  0.6915 -0.3381 -0.1570
 3190TIP3    H2 9535   1.512   1.900   4.820  0.5220  0.2329  1.2928
 3191TIP3   OH2 9536   4.409   4.603   4.950 -0.0134 -0.1617 -0.0462
 3191TIP3    H1 9537   4.385   4.663   5.020 -1.9190  1.1342 -1.6925
 3191TIP3    H2 9538   4.337   4.539   4.948  1.6163 -2.1599  1.1956
 3192TIP3   OH2 9539   5.461   4.970   4.522 -0.1335 -0.4776  0.1753
 3192TIP3    H1 9540   5.540   5.023   4.522  0.9252 -1.9491 -1.1262
 3192TIP3    H2 9541   5.426   4.978   4.433 -1.3344 -0.0420  0.6609
 3193TIP3   OH2 9542   2.028   1.102   1.639 -0.0730 -0.4124 -0.4238
 3193TIP3    H1 9543   2.075   1.051   1.573  0.2761  0.1130 -0.5856
 3193TIP3    H2 9544   2.084   1.098   1.717  1.5103  2.2065 -1.3000
 3194TIP3   OH2 9545   2.666   0.069   2.419 -0.4636  0.3933  0.2608
 3194TIP3    H1 9546   2.649   0.127   2.493 -1.9871 -0.6804  0.8030
 3194TIP3    H2 9547   2.742   0.019   2.446  0.8111  2.0142 -0.1700
 3195TIP3   OH2 9548   4.715   2.406   5.823  0.1744  0.0209  0.3989
 3195TIP3    H1 9549   4.735   2.367   5.738  1.2400  0.5487  0.3957
 3195TIP3    H2 9550   4.727   2.336   5.886  0.3472 -0.1125  0.2156
 3196TIP3   OH2 9551   5.263   5.291   0.190  0.0918 -1.0655  0.0630
 3196TIP3    H1 9552   5.287   5.221   0.251  1.2782 -0.2885  0.5132
 3196TIP3    H2 9553   5.226   5.359   0.245  1.9638  0.0035  0.0857
 3197TIP3   OH2 9554   2.283   3.663   1.316 -0.3129  0.1671  0.3891
 3197TIP3    H1 9555   2.334   3.585   1.296 -0.0792  0.1362  1.0887
 3197TIP3    H2 9556   2.347   3.734   1.317 -0.6333  0.5024 -0.9939
 3198TIP3   OH2 9557   6.061   3.867   4.268  0.4196  0.1607 -0.8234
 3198TIP3    H1 9558   5.992   3.901   4.211 -0.7926  1.0229  1.0627
 3198TIP3    H2 9559   6.043   3.773   4.275  0.0392  0.2101 -1.1423
 3199TIP3   OH2 9560   6.241   0.598   0.425  0.0734 -0.0860 -0.2888
 3199TIP3    H1 9561   6.214   0.601   0.333  0.0772  0.7026 -0.2671
 3199TIP3    H2 9562   6.333   0.573   0.422  0.0278 -0.2369 -0.4866
 3200TIP3   OH2 9563   6.427   1.922   4.863 -0.0583 -0.1461  0.1512
 3200TIP3    H1 9564   6.505   1.977   4.854 -0.8451  0.8946 -0.3992
 3200TIP3    H2 9565   6.369   1.951   4.793 -1.1191 -0.6387  0.8132
 3201TIP3   OH2 9566   5.186   2.337   0.143 -0.6624 -0.6290  0.5058
 3201TIP3    H1 9567   5.258   2.394   0.115  0.0525 -0.8204  1.8707
 3201TIP3    H2 9568   5.108   2.392   0.136 -0.2653 -0.1382 -0.1585
 3202TIP3   OH2 9569   0.226   3.981   5.117 -0.1917  0.4881  0.2070
 3202TIP3    H1 9570   0.315   3.954   5.093 -0.7189 -2.5523  1.2164
 3202TIP3    H2 9571   0.180   3.989   5.033  0.1743 -1.5126 -0.2394
 3203TIP3   OH2 9572   2.568   5.754   0.957 -0.7578 -0.5219  0.2515
 3203TIP3    H1 9573   2.580   5.819   1.026  1.3466 -0.1690 -0.3742
 3203TIP3    H2 9574   2.495   5.701   0.987 -0.3372  0.0172  2.4447
 3204TIP3   OH2 9575   4.305   1.362   2.458 -0.2478  0.4150 -0.0838
 3204TIP3    H1 9576   4.210   1.365   2.447 -0.1000  0.7289 -1.3486
 3204TIP3    H2 9577   4.320   1.399   2.546 -1.1815  1.8606 -0.4975
 3205TIP3   OH2 9578   4.068   2.552   5.022 -0.6300  0.2621 -0.0802
 3205TIP3    H1 9579   3.980   2.553   5.058 -0.2115  1.3598  0.9720
 3205TIP3    H2 9580   4.072   2.629   4.965 -0.6408 -0.3179 -0.8791
 3206TIP3   OH2 9581   6.735   3.213   1.646  0.1688  0.4825  0.7196
 3206TIP3    H1 9582   6.646   3.189   1.671  0.8825 -1.5139  1.5059
 3206TIP3    H2 9583   6.761   3.147   1.582  1.5330  0.2312  1.4981
 3207TIP3   OH2 9584   4.306   0.528   1.234  0.1663 -0.1465 -0.4076
 3207TIP3    H1 9585   4.386   0.515   1.286  0.8048 -0.0641 -1.3507
 3207TIP3    H2 9586   4.240   0.551   1.299  1.3132  1.5458  0.2314
 3208TIP3   OH2 9587   5.945   0.298   0.580  0.3760  0.7153 -0.4640
 3208TIP3    H1 9588   6.028   0.318   0.624 -0.2616 -1.7632  2.1408
 3208TIP3    H2 9589   5.880   0.346   0.630 -0.2206 -1.0914  0.5740
 3209TIP3   OH2 9590   0.838   4.200   5.823 -0.4584  0.3007 -0.0308
 3209TIP3    H1 9591   0.768   4.262   5.804 -0.7486  0.1247  0.4350
 3209TIP3    H2 9592   0.858   4.214   5.916 -0.8339 -0.5949  0.2010
 3210TIP3   OH2 9593   1.670   4.293   1.360  0.1340  0.2973 -0.0385
 3210TIP3    H1 9594   1.597   4.289   1.298 -0.0453  0.6904  0.1409
 3210TIP3    H2 9595   1.646   4.364   1.420  1.0408  0.9617 -0.4528
 3211TIP3   OH2 9596   0.638   6.589   4.359  0.1317 -0.0017 -0.1671
 3211TIP3    H1 9597   0.554   6.626   4.334  0.7066 -0.1133 -2.5264
 3211TIP3    H2 9598   0.626   6.494   4.349  0.5308 -0.0160 -0.5348
 3212TIP3   OH2 9599   2.806   3.104   4.447  0.1787 -0.7307  0.5163
 3212TIP3    H1 9600   2.771   3.159   4.378  1.6730  1.9238  1.6932
 3212TIP3    H2 9601   2.840   3.027   4.402 -1.0111 -0.1968 -1.3857
 3213TIP3   OH2 9602   6.850   4.158   3.923  0.5565 -0.4559 -0.0938
 3213TIP3    H1 9603   6.887   4.224   3.864 -1.7087 -0.9104 -2.1976
 3213TIP3    H2 9604   6.820   4.208   3.999  0.8252  0.6238 -0.6773
 3214TIP3   OH2 9605   5.240   0.870   5.546 -0.0014  0.7525  0.3623
 3214TIP3    H1 9606   5.327   0.911   5.545  0.1571  0.4184  0.0204
 3214TIP3    H2 9607   5.197   0.904   5.468 -0.1408  0.8437  0.4800
 3215TIP3   OH2 9608   5.940   5.902   1.762  0.5369  0.7191 -0.1506
 3215TIP3    H1 9609   5.946   5.968   1.830 -0.0490  1.5171 -0.8449
 3215TIP3    H2 9610   5.855   5.919   1.720 -0.5505 -1.6836  0.8687
 3216TIP3   OH2 9611   1.114   0.748   4.794 -0.9235 -0.3519  0.5085
 3216TIP3    H1 9612   1.032   0.699   4.786 -0.4686 -1.3808  1.7770
 3216TIP3    H2 9613   1.125   0.762   4.889  0.4903 -0.4590  0.3863
 3217TIP3   OH2 9614   6.777   6.347   5.546 -0.0134 -0.4476 -0.7799
 3217TIP3    H1 9615   6.808   6.267   5.504 -0.0192 -0.2927 -1.0833
 3217TIP3    H2 9616   6.835   6.358   5.621 -0.9647 -1.5489  0.1516
 3218TIP3   OH2 9617   5.122   3.302   2.484 -0.6635  0.0702 -0.0549
 3218TIP3    H1 9618   5.159   3.384   2.515 -2.2011  1.2797 -1.2902
 3218TIP3    H2 9619   5.140   3.301   2.390 -1.2361 -0.7117 -0.1680
 3219TIP3   OH2 9620   5.129   1.171   4.697  0.0394 -0.4513  0.3736
 3219TIP3    H1 9621   5.148   1.100   4.636  0.5957 -0.1336  0.1670
 3219TIP3    H2 9622   5.142   1.131   4.784  2.1201 -0.1662  0.2471
 3220TIP3   OH2 9623   0.820   0.581   5.866 -0.4104  0.3672 -0.4247
 3220TIP3    H1 9624   0.770   0.604   5.787 -0.0378  1.6309 -0.3189
 3220TIP3    H2 9625   0.880   0.512   5.838 -1.8862 -0.8844 -0.6579
 3221TIP3   OH2 9626   2.084   3.209   3.879 -0.5456 -0.6689  0.5627
 3221TIP3    H1 9627   2.120   3.279   3.824 -2.6467 -0.0320 -0.1324
 3221TIP3    H2 9628   2.008   3.177   3.829  0.1676 -3.2713  1.0207
 3222TIP3   OH2 9629   0.206   5.672   4.784  0.4398 -0.1654  0.6062
 3222TIP3    H1 9630   0.256   5.724   4.847  0.5115 -0.5370  0.8564
 3222TIP3    H2 9631   0.127   5.723   4.768  0.1689 -0.3275  1.4004
 3223TIP3   OH2 9632   5.692   0.887   4.427 -0.4905  0.4737 -0.1248
 3223TIP3    H1 9633   5.692   0.846   4.513 -1.3492  0.1781 -0.2502
 3223TIP3    H2 9634   5.600   0.905   4.409 -0.3494  0.3588 -1.0576
 3224TIP3   OH2 9635   3.908   4.292   4.460 -0.1972 -0.5642 -0.4127
 3224TIP3    H1 9636   3.878   4.273   4.371 -1.9947 -0.4751  0.1432
 3224TIP3    H2 9637   3.874   4.379   4.479  2.3707  0.5562 -0.5216
 3225TIP3   OH2 9638   3.313   4.743   4.643  0.5412 -0.1799  0.3556
 3225TIP3    H1 9639   3.260   4.764   4.719  0.2500  0.9918 -0.1461
 3225TIP3    H2 9640   3.305   4.649   4.633  1.8591 -0.6217  2.6901
 3226TIP3   OH2 9641   0.403   0.054   4.788 -0.0491 -0.1889  0.0770
 3226TIP3    H1 9642   0.438   0.139   4.762  0.3919 -0.5076 -0.4104
 3226TIP3    H2 9643   0.481  -0.002   4.796 -0.2602 -0.3374  1.2009
 3227TIP3   OH2 9644   7.033   0.218   2.976  0.1743 -0.0948  0.5416
 3227TIP3    H1 9645   6.949   0.200   3.018 -1.2956 -1.2268 -2.5777
 3227TIP3    H2 9646   7.069   0.132   2.954  2.4971  0.3291  2.2028
 3228TIP3   OH2 9647   4.291   5.684   3.256 -0.5913  0.1561 -0.2474
 3228TIP3    H1 9648   4.337   5.726   3.328  0.5089  0.0845 -0.8944
 3228TIP3    H2 9649   4.232   5.753   3.223 -1.4273  0.0631  0.9567
 3229TIP3   OH2 9650   2.484   1.784   1.315  0.8591  0.5620  0.3582
 3229TIP3    H1 9651   2.552   1.850   1.307  1.9477 -0.4062  1.1526
 3229TIP3    H2 9652   2.443   1.780   1.229  1.3891  1.5996  0.0435
 3230TIP3   OH2 9653   4.440   4.928   2.114  0.3176  0.0576 -0.1348
 3230TIP3    H1 9654   4.367   4.867   2.125  0.0889  0.4803  0.8372
 3230TIP3    H2 9655   4.517   4.872   2.106  0.3177 -0.3821  2.2798
 3231TIP3   OH2 9656   4.634   2.252   2.199 -0.7094  0.5049 -0.1561
 3231TIP3    H1 9657   4.558   2.228   2.252  0.7072 -2.4030  0.8131
 3231TIP3    H2 9658   4.698   2.285   2.263 -0.2645  0.4549 -0.5727
 3232TIP3   OH2 9659   1.524   2.839   3.817  0.2750  0.7759 -0.2383
 3232TIP3    H1 9660   1.474   2.820   3.738  0.2296 -0.5465  0.0841
 3232TIP3    H2 9661   1.613   2.809   3.797  0.0165 -0.6321  0.5781
 3233TIP3   OH2 9662   2.891   3.232   5.774  0.1319 -0.0075  0.0122
 3233TIP3    H1 9663   2.816   3.280   5.739 -1.5992 -0.0275  3.2715
 3233TIP3    H2 9664   2.862   3.141   5.778  0.1772  0.0189  1.5054
 3234TIP3   OH2 9665   4.456   5.029   2.936  0.2933 -0.1872 -0.0287
 3234TIP3    H1 9666   4.441   5.032   2.841  0.0344 -1.2599 -0.0335
 3234TIP3    H2 9667   4.376   5.065   2.974  0.5360  0.5705 -0.2163
 3235TIP3   OH2 9668   4.566   5.730   2.622 -0.4119 -0.3234 -0.4212
 3235TIP3    H1 9669   4.541   5.658   2.563 -1.8030 -0.6548  0.5384
 3235TIP3    H2 9670   4.652   5.704   2.656  0.1472 -0.4042 -1.8226
 3236TIP3   OH2 9671   3.221   0.274   3.783  0.3847 -0.2895 -0.2911
 3236TIP3    H1 9672   3.168   0.220   3.842 -0.6535 -0.7682 -1.6066
 3236TIP3    H2 9673   3.259   0.211   3.721  2.3027  0.0785  0.4518
 3237TIP3   OH2 9674   1.471   5.651   3.447  0.0889 -0.6055 -0.2700
 3237TIP3    H1 9675   1.487   5.738   3.411  2.6371 -0.5512  0.8046
 3237TIP3    H2 9676   1.402   5.665   3.513 -0.6471  0.2720 -1.1915
 3238TIP3   OH2 9677   6.455   0.714   0.267  0.8010 -0.2245 -0.2340
 3238TIP3    H1 9678   6.407   0.759   0.337 -0.3029  0.5115 -1.3916
 3238TIP3    H2 9679   6.540   0.758   0.264  1.2266 -0.8886  1.2195
 3239TIP3   OH2 9680   2.751   4.066   0.228  0.0653  0.6952  0.0298
 3239TIP3    H1 9681   2.803   4.081   0.150  0.0644  0.0897 -0.0928
 3239TIP3    H2 9682   2.772   4.139   0.287  1.5148  0.1298  0.2371
 3240TIP3   OH2 9683   1.528   2.094   0.268 -0.5261  0.3301 -0.0207
 3240TIP3    H1 9684   1.511   2.088   0.174  1.5091 -2.8776 -0.3476
 3240TIP3    H2 9685   1.565   2.182   0.281 -0.3164  0.6292 -2.3397
 3241TIP3   OH2 9686   4.561   4.139   1.031 -1.0348 -0.1207  0.1614
 3241TIP3    H1 9687   4.580   4.218   1.081 -2.9662  0.1851  0.5034
 3241TIP3    H2 9688   4.630   4.078   1.056 -2.1085 -0.1626  3.6241
 3242TIP3   OH2 9689   1.074   0.073   3.201 -0.5325 -0.3468  0.3086
 3242TIP3    H1 9690   1.072  -0.022   3.193  1.3105 -0.4636  0.6137
 3242TIP3    H2 9691   1.157   0.098   3.160 -1.5045  1.2515 -0.7817
 3243TIP3   OH2 9692   7.031   3.891   0.232 -0.3037  0.6176  0.1759
 3243TIP3    H1 9693   7.018   3.835   0.309 -1.2062  0.2476 -0.2237
 3243TIP3    H2 9694   7.067   3.973   0.266 -1.3164  0.7014  1.0684
 3244TIP3   OH2 9695   6.864   3.216   4.586  0.2391 -0.1042 -0.4984
 3244TIP3    H1 9696   6.784   3.178   4.551  0.3415 -0.0307 -0.8171
 3244TIP3    H2 9697   6.875   3.298   4.538 -0.7250  1.0566  1.1512
 3245TIP3   OH2 9698   2.871   5.825   2.290  0.6156  0.5637 -0.2706
 3245TIP3    H1 9699   2.803   5.774   2.245  0.9335 -0.2143  0.1141
 3245TIP3    H2 9700   2.824   5.869   2.360  0.7058 -1.0617  0.8662
 3246TIP3   OH2 9701   4.086   6.060   3.339  0.0288 -0.0903  0.0582
 3246TIP3    H1 9702   4.092   6.093   3.428 -0.1937 -1.1264  0.4687
 3246TIP3    H2 9703   4.168   6.086   3.297  0.6133 -0.5537  0.8981
 3247TIP3   OH2 9704   3.568   3.365   1.436  0.3000  0.1297  0.1097
 3247TIP3    H1 9705   3.633   3.418   1.481  0.0954  1.1578 -0.7640
 3247TIP3    H2 9706   3.485   3.409   1.454 -0.4162 -1.8980  2.3293
 3248TIP3   OH2 9707   3.932   6.094   1.389 -0.2453  0.2986  0.0011
 3248TIP3    H1 9708   3.871   6.074   1.460 -1.1576 -0.3946 -0.9499
 3248TIP3    H2 9709   3.880   6.145   1.327  0.5591  0.9478 -0.1561
 3249TIP3   OH2 9710   1.465   6.428   4.571  0.2015 -0.2395 -0.0234
 3249TIP3    H1 9711   1.552   6.406   4.537  0.4954  1.2643 -0.3196
 3249TIP3    H2 9712   1.483   6.472   4.654 -0.2477  0.3739 -0.2459
 3250TIP3   OH2 9713   3.198   0.465   4.235 -0.3500  0.2908  0.4197
 3250TIP3    H1 9714   3.241   0.411   4.301  0.6232 -0.3316 -0.6868
 3250TIP3    H2 9715   3.238   0.439   4.152 -1.0867  1.4982 -0.3554
 3251TIP3   OH2 9716   4.557   5.096   4.037  0.1055  0.4760  0.2937
 3251TIP3    H1 9717   4.499   5.087   3.961 -1.0403 -1.2579  1.3215
 3251TIP3    H2 9718   4.641   5.061   4.007 -0.3107 -0.1141 -0.2114
 3252TIP3   OH2 9719   4.518   2.650   3.880  0.8396 -0.1931 -0.0061
 3252TIP3    H1 9720   4.561   2.702   3.812  1.1729 -2.1751 -1.4152
 3252TIP3    H2 9721   4.424   2.666   3.868  0.9721  1.1210  0.5225
 3253TIP3   OH2 9722   6.014   4.382   1.620  0.2888 -0.3615 -0.0418
 3253TIP3    H1 9723   5.963   4.463   1.626  1.1699  0.2347 -0.4638
 3253TIP3    H2 9724   5.981   4.338   1.542 -0.1618 -0.3861  0.1626
 3254TIP3   OH2 9725   5.348   2.631   2.809  0.8948 -0.3601 -0.0322
 3254TIP3    H1 9726   5.394   2.555   2.774  2.3395  0.2021  0.5689
 3254TIP3    H2 9727   5.412   2.674   2.866  0.6452  2.1574 -1.5126
 3255TIP3   OH2 9728   4.790   2.821   0.863 -0.4587  0.2147 -0.3132
 3255TIP3    H1 9729   4.744   2.746   0.825  0.9036 -1.1400  0.5850
 3255TIP3    H2 9730   4.834   2.786   0.940  1.4970  1.5665 -0.7388
 3256TIP3   OH2 9731   1.719   2.530   5.305 -0.3314 -0.7805 -0.4558
 3256TIP3    H1 9732   1.702   2.438   5.285 -1.6498 -0.5364 -0.5445
 3256TIP3    H2 9733   1.785   2.556   5.241 -0.7922 -1.3591 -1.1904
 3257TIP3   OH2 9734   2.519   3.880   3.905 -0.1392  0.1621 -0.1753
 3257TIP3    H1 9735   2.528   3.971   3.934  1.2102  0.2831 -0.9103
 3257TIP3    H2 9736   2.564   3.828   3.972  1.9379  0.3458 -1.3270
 3258TIP3   OH2 9737   3.583   2.742   3.969  0.0370  0.0513  0.2880
 3258TIP3    H1 9738   3.668   2.729   3.927 -0.6454 -1.4551 -0.7204
 3258TIP3    H2 9739   3.526   2.775   3.900 -0.8326 -1.4423  0.2354
 3259TIP3   OH2 9740   0.999   3.585   3.126 -0.5981  0.3923  0.4833
 3259TIP3    H1 9741   0.908   3.566   3.102 -0.1928 -0.1795 -0.6676
 3259TIP3    H2 9742   1.019   3.668   3.083 -0.4154  0.2563  0.3052
 3260TIP3   OH2 9743   6.558   5.321   0.611  0.0180  0.0504 -0.4578
 3260TIP3    H1 9744   6.613   5.358   0.542  0.3242  0.7952  0.1792
 3260TIP3    H2 9745   6.616   5.264   0.661  0.2010  0.7707  0.1631
 3261TIP3   OH2 9746   2.574   1.364   2.909 -0.1969  0.7456  0.5516
 3261TIP3    H1 9747   2.576   1.396   2.819  0.0792  1.0601  0.6671
 3261TIP3    H2 9748   2.572   1.443   2.963  1.6733  0.6219  0.8699
 3262TIP3   OH2 9749   3.001   1.932   1.061 -0.4501  0.2545 -0.4648
 3262TIP3    H1 9750   2.938   1.916   1.131 -0.4483  1.9945 -0.0273
 3262TIP3    H2 9751   3.005   1.849   1.013 -0.8932 -0.7927  1.2242
 3263TIP3   OH2 9752   4.153   3.456   5.803  0.2949  0.0802  0.1101
 3263TIP3    H1 9753   4.160   3.529   5.865  0.9595 -0.1082  0.2648
 3263TIP3    H2 9754   4.243   3.440   5.774 -0.1140  0.9000 -1.7729
 3264TIP3   OH2 9755   1.959   4.619   4.701 -0.3324  0.3409  0.6160
 3264TIP3    H1 9756   1.925   4.654   4.783  1.4292 -0.6356  1.8365
 3264TIP3    H2 9757   1.881   4.598   4.649 -1.5183  0.2080  2.3786
 3265TIP3   OH2 9758   1.985   1.391   4.733  0.1953 -0.3190  0.9463
 3265TIP3    H1 9759   1.898   1.426   4.750  0.4373 -0.4365  2.5076
 3265TIP3    H2 9760   1.992   1.390   4.637 -1.2726  0.2626  0.8144
 3266TIP3   OH2 9761   7.129   6.075   0.903 -0.5169  0.0045 -0.7165
 3266TIP3    H1 9762   7.102   6.158   0.942  0.4594  0.0128 -0.0201
 3266TIP3    H2 9763   7.128   6.093   0.809  1.5881  1.4826 -0.5457
 3267TIP3   OH2 9764   6.976   3.299   5.798 -0.5544 -0.0120  0.3670
 3267TIP3    H1 9765   7.017   3.385   5.789 -0.3448 -0.1821 -0.3510
 3267TIP3    H2 9766   6.891   3.308   5.756 -0.7068 -0.0427  0.6643
 3268TIP3   OH2 9767   3.281   6.580   4.768 -0.2245  0.5786 -0.1958
 3268TIP3    H1 9768   3.302   6.673   4.754  0.2005  0.3956 -0.8428
 3268TIP3    H2 9769   3.278   6.543   4.679  1.0294 -0.3262  0.1012
 3269TIP3   OH2 9770   3.453   6.444   4.303 -0.1416  0.4630 -0.5451
 3269TIP3    H1 9771   3.436   6.510   4.235  1.3316  0.9946 -0.4474
 3269TIP3    H2 9772   3.502   6.375   4.257 -0.1754  0.2555 -0.2725
 3270TIP3   OH2 9773   6.088   0.561   5.260  0.1534  0.4758  0.4228
 3270TIP3    H1 9774   6.152   0.509   5.211 -0.2024  0.4062  0.0286
 3270TIP3    H2 9775   6.097   0.649   5.225 -2.6779 -0.2306 -2.4982
 3271TIP3   OH2 9776   1.122   4.500   3.161  0.2478  0.2995  0.1281
 3271TIP3    H1 9777   1.185   4.524   3.230 -1.5814  2.0494  1.3280
 3271TIP3    H2 9778   1.152   4.549   3.084  0.1475  1.4643  0.8004
 3272TIP3   OH2 9779   3.195   4.347   5.308  0.0799 -0.1361  0.2205
 3272TIP3    H1 9780   3.211   4.442   5.305 -0.7525  0.0587  1.4461
 3272TIP3    H2 9781   3.240   4.313   5.230 -0.5385  1.3995 -0.8591
 3273TIP3   OH2 9782   7.176   0.761   0.693  0.6594 -0.0254 -1.0243
 3273TIP3    H1 9783   7.214   0.762   0.780  1.2901 -0.1176 -1.2908
 3273TIP3    H2 9784   7.090   0.801   0.703  0.6965 -0.1074 -0.3498
 3274TIP3   OH2 9785   0.503   3.603   0.681 -0.0907 -0.2990 -0.2229
 3274TIP3    H1 9786   0.469   3.686   0.713 -0.5078  0.5318 -2.6469
 3274TIP3    H2 9787   0.595   3.602   0.706  0.1429  1.3324 -0.9203
 3275TIP3   OH2 9788   0.661   0.610   2.838  0.2729  0.1909  0.0223
 3275TIP3    H1 9789   0.602   0.550   2.793  0.6745 -0.2983  0.1429
 3275TIP3    H2 9790   0.747   0.569   2.831  0.7439  1.2795 -0.8499
 3276TIP3   OH2 9791   4.205   5.732   3.581 -0.8830  0.1130  0.1969
 3276TIP3    H1 9792   4.129   5.735   3.523 -0.3062 -0.3935 -0.5920
 3276TIP3    H2 9793   4.267   5.795   3.543  0.0654 -1.2463 -0.5745
 3277TIP3   OH2 9794   0.340   3.986   2.833  0.7409 -0.5034 -0.0130
 3277TIP3    H1 9795   0.378   3.958   2.916  1.3063  2.7480  0.9620
 3277TIP3    H2 9796   0.246   3.974   2.844  0.9701 -2.2955  0.1554
 3278TIP3   OH2 9797   4.153   5.870   1.328 -0.1110 -0.1228  0.1206
 3278TIP3    H1 9798   4.183   5.836   1.244 -0.0092 -1.4990  0.6875
 3278TIP3    H2 9799   4.063   5.898   1.311 -1.1348 -3.0575  0.1653
 3279TIP3   OH2 9800   6.873   3.734   0.934 -0.3505  0.5011  0.7536
 3279TIP3    H1 9801   6.809   3.673   0.898 -0.3291  0.7732  0.2482
 3279TIP3    H2 9802   6.954   3.682   0.940 -0.7523 -0.0117  1.9464
 3280TIP3   OH2 9803   6.666   5.725   4.474 -0.7268 -0.5750 -0.2227
 3280TIP3    H1 9804   6.644   5.813   4.444 -0.6051 -0.5869 -0.3482
 3280TIP3    H2 9805   6.683   5.676   4.394  2.0868  0.0444 -0.1143
 3281TIP3   OH2 9806   0.321   4.618   5.352  0.1520 -0.9239 -0.2630
 3281TIP3    H1 9807   0.228   4.631   5.373  0.5461  2.6101 -0.1747
 3281TIP3    H2 9808   0.322   4.602   5.258 -0.5826 -2.2903 -0.0689
 3282TIP3   OH2 9809   3.487   3.520   2.478  0.4199 -0.2390  0.5173
 3282TIP3    H1 9810   3.455   3.467   2.550  1.0809  0.4272  1.3235
 3282TIP3    H2 9811   3.569   3.479   2.451  0.3021 -0.3406  0.3097
 3283TIP3   OH2 9812   5.053   3.221   1.359 -0.1344 -0.0773 -0.0815
 3283TIP3    H1 9813   5.079   3.195   1.271 -0.0800  1.8322 -0.6651
 3283TIP3    H2 9814   5.011   3.306   1.348 -0.0927  0.2215  1.7441
 3284TIP3   OH2 9815   3.334   2.109   1.613  0.2415 -0.5085  0.6944
 3284TIP3    H1 9816   3.282   2.139   1.539  1.0916 -0.4849  0.0938
 3284TIP3    H2 9817   3.313   2.015   1.621 -1.6263 -0.0465  1.9228
 3285TIP3   OH2 9818   2.861   2.301   0.935 -0.2202  0.2064  0.0565
 3285TIP3    H1 9819   2.944   2.317   0.889 -0.7767 -0.2665 -1.1559
 3285TIP3    H2 9820   2.806   2.375   0.909 -0.3973  0.1721  0.3357
 3286TIP3   OH2 9821   4.576   4.028   0.323  0.3280  0.0784  0.5035
 3286TIP3    H1 9822   4.546   3.985   0.403  0.1826  0.4929  0.6745
 3286TIP3    H2 9823   4.514   4.002   0.256 -0.5742  1.1143  0.9025
 3287TIP3   OH2 9824   1.170   1.494   4.905  0.1022  0.0892 -0.2885
 3287TIP3    H1 9825   1.149   1.582   4.873  1.0675  0.5524  0.3144
 3287TIP3    H2 9826   1.086   1.458   4.934 -0.1217  1.2695  0.5697
 3288TIP3   OH2 9827   4.746   6.039   5.148  0.0403  0.2778 -0.0672
 3288TIP3    H1 9828   4.782   6.126   5.166  1.9936 -0.6979  1.0384
 3288TIP3    H2 9829   4.816   5.993   5.103 -0.4290 -1.1743  0.6511
 3289TIP3   OH2 9830   5.755   2.135   5.560 -0.1216  0.4557  0.2349
 3289TIP3    H1 9831   5.718   2.079   5.491 -0.0888  0.8396 -0.0989
 3289TIP3    H2 9832   5.782   2.074   5.628  0.4525  0.0089 -0.3781
 3290TIP3   OH2 9833   0.956   4.733   0.275  0.7194 -0.2226 -0.0465
 3290TIP3    H1 9834   0.969   4.744   0.369 -3.4877  3.7939  0.4137
 3290TIP3    H2 9835   0.915   4.647   0.266 -0.0695 -0.1132  2.0091
 3291TIP3   OH2 9836   2.177   6.232   5.243 -0.5873  0.3224  0.0412
 3291TIP3    H1 9837   2.120   6.155   5.230  2.1385 -1.5140 -2.2931
 3291TIP3    H2 9838   2.224   6.213   5.324  1.0373 -1.2885 -1.1917
 3292TIP3   OH2 9839   5.370   2.591   4.644  0.0453  0.1870  0.2134
 3292TIP3    H1 9840   5.380   2.666   4.586  1.3477 -0.2450 -0.1373
 3292TIP3    H2 9841   5.451   2.588   4.695  0.5951 -1.7055 -0.6626
 3293TIP3   OH2 9842   5.419   2.060   2.276  0.3366  0.3946  0.1432
 3293TIP3    H1 9843   5.461   1.978   2.253  1.5206  0.4198  1.9919
 3293TIP3    H2 9844   5.332   2.035   2.308  0.3726 -0.0504 -0.1052
 3294TIP3   OH2 9845   0.262   2.573   2.543 -0.5740  0.0814  0.3030
 3294TIP3    H1 9846   0.353   2.570   2.515 -0.5122  0.2549  0.4812
 3294TIP3    H2 9847   0.258   2.647   2.605 -0.2100 -1.7053  2.5789
 3295TIP3   OH2 9848   4.938   2.163   5.441  0.5260 -0.0064 -0.0781
 3295TIP3    H1 9849   4.987   2.244   5.431 -0.5569  0.9063  1.6071
 3295TIP3    H2 9850   4.849   2.185   5.414 -0.2669  0.0004  2.3159
 3296TIP3   OH2 9851   3.059   4.704   1.060  0.3109  0.2379  0.1220
 3296TIP3    H1 9852   3.050   4.758   0.981 -1.3229  1.3113  0.9749
 3296TIP3    H2 9853   2.992   4.636   1.050  1.3164 -0.7303 -0.2229
 3297TIP3   OH2 9854   6.983   2.355   3.830 -0.0516 -0.5662  0.2860
 3297TIP3    H1 9855   6.981   2.280   3.890 -0.9982  0.0669  1.0699
 3297TIP3    H2 9856   7.037   2.420   3.875  0.0058 -0.4331  0.0234
 3298TIP3   OH2 9857   2.994   1.212   4.536 -0.2967 -0.2988 -0.0604
 3298TIP3    H1 9858   3.004   1.152   4.462 -0.4770  0.3014 -0.5769
 3298TIP3    H2 9859   2.901   1.209   4.557  0.0670 -2.0974  1.5426
 3299TIP3   OH2 9860   6.358   5.211   5.023 -0.1828 -0.5515 -0.0410
 3299TIP3    H1 9861   6.435   5.163   4.993  0.8699  1.2512 -0.3618
 3299TIP3    H2 9862   6.301   5.215   4.946  0.9047  0.9309 -0.8192
 3300TIP3   OH2 9863   4.367   1.348   1.563 -0.4398  0.0997 -0.1967
 3300TIP3    H1 9864   4.348   1.432   1.605  0.3672  0.0423  0.2930
 3300TIP3    H2 9865   4.335   1.282   1.624 -0.9499  0.0457 -0.5196
 3301TIP3   OH2 9866   6.008   3.702   0.580 -0.2926  0.0612  0.0618
 3301TIP3    H1 9867   6.011   3.798   0.589  1.9564  0.2915 -2.1176
 3301TIP3    H2 9868   5.917   3.684   0.556 -0.1667  2.0370 -2.2881
 3302TIP3   OH2 9869   3.833   3.776   5.555 -0.0238 -0.5611  0.3083
 3302TIP3    H1 9870   3.831   3.830   5.635 -1.1774 -1.7862  1.1457
 3302TIP3    H2 9871   3.901   3.816   5.501  0.9674  0.1736  2.0109
 3303TIP3   OH2 9872   2.718   2.145   2.087  0.5961  0.2082 -0.1679
 3303TIP3    H1 9873   2.788   2.104   2.138  0.9164 -1.0464 -1.5644
 3303TIP3    H2 9874   2.638   2.119   2.133  0.8920 -0.6660 -0.1139
 3304TIP3   OH2 9875   5.244   0.221   4.175 -0.4342 -0.6664 -0.6850
 3304TIP3    H1 9876   5.254   0.297   4.232  3.0475  2.0818 -4.4140
 3304TIP3    H2 9877   5.283   0.149   4.226  1.8757  1.4346  0.7928
 3305TIP3   OH2 9878   1.876   2.416   1.823 -0.5435 -0.2489 -0.2882
 3305TIP3    H1 9879   1.888   2.336   1.874  1.4356  1.0189  1.4216
 3305TIP3    H2 9880   1.824   2.474   1.879 -1.4458 -0.0873 -1.2534
 3306TIP3   OH2 9881   4.162   0.898   3.559  0.0685 -0.1650  0.6314
 3306TIP3    H1 9882   4.167   0.807   3.531 -0.5377 -0.2737  0.8746
 3306TIP3    H2 9883   4.152   0.894   3.654 -1.6922  0.0959  0.4917
 3307TIP3   OH2 9884   4.425   5.821   2.339  0.1403 -0.0540 -0.9251
 3307TIP3    H1 9885   4.462   5.741   2.377 -0.2954 -0.4097 -1.2318
 3307TIP3    H2 9886   4.340   5.831   2.382  1.3446  1.8464  1.2261
 3308TIP3   OH2 9887   5.535   4.171   1.743  0.2597  0.2086 -0.0456
 3308TIP3    H1 9888   5.446   4.172   1.706  0.0234 -0.0350  0.5157
 3308TIP3    H2 9889   5.578   4.245   1.701 -0.0871  0.0950 -0.6203
 3309TIP3   OH2 9890   1.234   2.606   0.264 -0.3633  0.4309  0.1461
 3309TIP3    H1 9891   1.324   2.600   0.295 -0.2568 -0.7814 -0.3407
 3309TIP3    H2 9892   1.182   2.569   0.335 -0.2335 -1.1470 -0.5362
 3310TIP3   OH2 9893   0.133   6.177   0.535  0.0268  0.0806 -0.2271
 3310TIP3    H1 9894   0.131   6.116   0.461  0.1181  1.3397 -1.3247
 3310TIP3    H2 9895   0.223   6.208   0.538 -0.3615  1.3338 -0.7353
 3311TIP3   OH2 9896   0.816   0.161   3.530  0.1992 -0.2752  0.2964
 3311TIP3    H1 9897   0.725   0.155   3.558  0.1571 -0.3548  0.1406
 3311TIP3    H2 9898   0.824   0.100   3.457  0.3570 -0.2100  0.2570
 3312TIP3   OH2 9899   0.164   1.264   1.872 -0.1970 -0.2892 -0.2526
 3312TIP3    H1 9900   0.180   1.173   1.898  1.4894  0.5851  2.0855
 3312TIP3    H2 9901   0.069   1.274   1.881 -0.3569 -1.6828 -0.1052
 3313TIP3   OH2 9902   5.947   3.597   4.681 -0.8684  0.4032  0.4175
 3313TIP3    H1 9903   5.945   3.671   4.620  1.2385  0.6554  0.5954
 3313TIP3    H2 9904   5.889   3.624   4.752 -1.2670  1.2516 -0.2061
 3314TIP3   OH2 9905   4.470   2.201   0.385 -0.9950 -0.7451 -0.6771
 3314TIP3    H1 9906   4.458   2.260   0.310  1.9252 -2.4152 -2.6392
 3314TIP3    H2 9907   4.433   2.118   0.356 -0.5941 -1.1972  0.0811
 3315TIP3   OH2 9908   1.684   2.285   4.758 -0.3364 -0.3197  0.2463
 3315TIP3    H1 9909   1.601   2.286   4.806 -0.6834  1.3899 -0.3142
 3315TIP3    H2 9910   1.670   2.346   4.685  0.7617 -1.5209 -1.0313
 3316TIP3   OH2 9911   2.839   3.913   0.610  0.4632 -0.1549  0.0239
 3316TIP3    H1 9912   2.843   4.006   0.586  0.0622 -0.2829 -0.5690
 3316TIP3    H2 9913   2.930   3.885   0.613  0.5790  0.2078  0.0131
 3317TIP3   OH2 9914   3.624   4.475   5.488  0.4621 -0.4608 -0.2756
 3317TIP3    H1 9915   3.680   4.398   5.501 -0.4466 -0.9416  0.8632
 3317TIP3    H2 9916   3.543   4.440   5.452  0.1782  0.0100 -0.0984
 3318TIP3   OH2 9917   5.308   1.758   0.967 -0.0534 -0.2985 -0.4054
 3318TIP3    H1 9918   5.370   1.695   1.003 -0.5446  1.1259  3.3564
 3318TIP3    H2 9919   5.360   1.836   0.948 -0.4036  0.7013  2.2342
 3319TIP3   OH2 9920   5.949   3.062   5.446 -0.1672  0.1274  0.1402
 3319TIP3    H1 9921   5.882   3.084   5.381  0.8023  3.2594  0.0364
 3319TIP3    H2 9922   6.024   3.032   5.394 -0.4354 -0.4025  0.0528
 3320TIP3   OH2 9923   3.274   6.016   5.304  0.2361 -0.4063  0.0629
 3320TIP3    H1 9924   3.234   5.960   5.371 -0.4207 -2.1566 -1.6837
 3320TIP3    H2 9925   3.221   6.096   5.304 -1.5524 -1.5274 -0.2392
 3321TIP3   OH2 9926   1.018   5.364   0.265  0.0722 -0.2489  0.1049
 3321TIP3    H1 9927   0.944   5.304   0.258 -1.3680  1.3913  0.5799
 3321TIP3    H2 9928   1.094   5.312   0.240 -1.2209 -2.0204 -0.2928
 3322TIP3   OH2 9929   1.452   3.750   2.449 -0.1363  0.5978  0.1456
 3322TIP3    H1 9930   1.524   3.794   2.496  2.7832 -0.3145 -3.0583
 3322TIP3    H2 9931   1.450   3.662   2.486 -1.0334  1.1963  1.6015
 3323TIP3   OH2 9932   6.855   2.618   4.309  0.0865  1.0269 -0.1325
 3323TIP3    H1 9933   6.803   2.683   4.355  0.8820  0.9696  0.8785
 3323TIP3    H2 9934   6.899   2.668   4.239 -3.1318  0.6760 -2.6638
 3324TIP3   OH2 9935   1.106   1.058   5.749  0.2565  0.2355  0.4036
 3324TIP3    H1 9936   1.072   1.141   5.784  0.7208 -0.0964  1.7066
 3324TIP3    H2 9937   1.182   1.084   5.697 -0.2303  0.7147 -0.0792
 3325TIP3   OH2 9938   0.905   2.005   1.158 -0.2066 -0.4314  0.1641
 3325TIP3    H1 9939   0.890   2.089   1.202  2.9020  0.7141 -0.7055
 3325TIP3    H2 9940   0.849   2.009   1.081 -2.5389 -0.6478  1.7539
 3326TIP3   OH2 9941   0.420   6.487   3.489 -0.1693  0.0453 -0.1783
 3326TIP3    H1 9942   0.374   6.531   3.561  0.1313 -0.5418  0.3851
 3326TIP3    H2 9943   0.350   6.454   3.433 -0.4045  0.7166 -0.2866
 3327TIP3   OH2 9944   3.851   1.101   0.469 -0.2911  0.6604 -0.3772
 3327TIP3    H1 9945   3.760   1.075   0.487 -0.5263  1.1717 -0.7849
 3327TIP3    H2 9946   3.899   1.018   0.464 -0.8738  0.3397 -0.8522
 3328TIP3   OH2 9947   1.729   6.666   4.753 -0.4232  0.2858 -0.2870
 3328TIP3    H1 9948   1.810   6.616   4.769 -0.0377  0.9770 -0.0037
 3328TIP3    H2 9949   1.726   6.677   4.658 -0.0598  0.4485 -0.2822
 3329TIP3   OH2 9950   2.972   6.264   1.208  0.0521 -0.1452 -0.0012
 3329TIP3    H1 9951   2.998   6.181   1.170  1.7069  0.0662  0.5953
 3329TIP3    H2 9952   3.054   6.305   1.236 -0.7732  1.4224  0.2563
 3330TIP3   OH2 9953   0.524   1.595   2.056 -0.1389 -0.6109 -0.5885
 3330TIP3    H1 9954   0.468   1.609   1.980 -0.4853  0.1799 -0.1953
 3330TIP3    H2 9955   0.572   1.515   2.036 -0.2550 -0.4353 -1.6250
 3331TIP3   OH2 9956   1.605   6.086   5.065 -0.5012  0.0373 -0.1251
 3331TIP3    H1 9957   1.549   6.018   5.030 -0.5232 -0.1054  0.1847
 3331TIP3    H2 9958   1.550   6.164   5.068 -0.3332  0.1944 -0.9423
 3332TIP3   OH2 9959   3.112   4.704   2.418  0.0230 -0.4790  0.1666
 3332TIP3    H1 9960   3.066   4.675   2.497  1.6968  0.3047  1.4756
 3332TIP3    H2 9961   3.043   4.710   2.351 -1.9915  1.6021  2.2673
 3333TIP3   OH2 9962   1.755   4.952   4.671 -0.7639  0.3491  0.7228
 3333TIP3    H1 9963   1.700   4.885   4.630 -2.1354  1.4927  0.6540
 3333TIP3    H2 9964   1.834   4.954   4.618 -1.4888  0.0845 -0.3959
 3334TIP3   OH2 9965   3.630   4.429   4.165  0.2386  0.2990 -0.0123
 3334TIP3    H1 9966   3.607   4.405   4.075  0.7174  1.3563 -0.4355
 3334TIP3    H2 9967   3.721   4.400   4.175  0.3575  0.6500 -0.0541
 3335TIP3   OH2 9968   5.425   5.055   5.231  0.2252 -0.0054 -0.1552
 3335TIP3    H1 9969   5.398   5.000   5.305  1.0883  0.1594  0.3018
 3335TIP3    H2 9970   5.421   5.144   5.265 -1.0119  0.2107 -0.8434
 3336TIP3   OH2 9971   0.716   4.111   4.327 -0.1410  0.5242 -0.0210
 3336TIP3    H1 9972   0.740   4.157   4.247 -0.2736 -0.8942 -0.9273
 3336TIP3    H2 9973   0.775   4.145   4.394  1.0352  0.6341 -1.0910
 3337TIP3   OH2 9974   5.269   4.192   3.265  0.1642 -0.7472  0.1552
 3337TIP3    H1 9975   5.259   4.170   3.357  0.6393  1.0385  0.6614
 3337TIP3    H2 9976   5.182   4.179   3.227  0.2217 -2.5790  0.5724
 3338TIP3   OH2 9977   3.803   3.344   0.779  0.3389 -0.3300  0.1236
 3338TIP3    H1 9978   3.857   3.389   0.715  1.4311 -2.3330 -0.4547
 3338TIP3    H2 9979   3.848   3.260   0.794 -1.7316 -1.3844  0.8735
 3339TIP3   OH2 9980   6.093   1.918   2.690  0.0255 -0.3768 -0.1716
 3339TIP3    H1 9981   6.179   1.921   2.733  0.0022  0.3282 -0.1612
 3339TIP3    H2 9982   6.113   1.895   2.599  0.2080 -0.4039 -0.1255
 3340TIP3   OH2 9983   6.382   6.414   1.487 -0.5257 -0.0677 -0.2022
 3340TIP3    H1 9984   6.370   6.502   1.451 -0.7473  0.5476  1.2670
 3340TIP3    H2 9985   6.384   6.428   1.582 -1.2407 -1.7472  0.0866
 3341TIP3   OH2 9986   6.134   5.975   2.675  0.0572 -0.0920  0.3895
 3341TIP3    H1 9987   6.104   6.030   2.747 -0.3786  1.0439 -0.6115
 3341TIP3    H2 9988   6.109   6.024   2.596 -0.7985 -1.9723 -0.5646
 3342TIP3   OH2 9989   6.013   2.924  -0.026 -0.3236 -0.2433 -0.1721
 3342TIP3    H1 9990   6.027   2.946   0.066 -0.1787 -1.9482  0.2421
 3342TIP3    H2 9991   5.918   2.919  -0.034 -0.3848  0.9391 -0.3985
 3343TIP3   OH2 9992   5.343   4.478   0.790 -0.0381  0.0256  0.2429
 3343TIP3    H1 9993   5.391   4.515   0.864  1.4275 -0.0437 -0.6334
 3343TIP3    H2 9994   5.255   4.514   0.797 -0.3842 -1.1134  2.8372
 3344TIP3   OH2 9995   6.568   1.682   2.153 -0.2273  0.2893 -0.1299
 3344TIP3    H1 9996   6.487   1.650   2.114 -0.1458  0.3650 -0.3679
 3344TIP3    H2 9997   6.611   1.730   2.082  1.6279 -2.5584 -1.0768
 3345TIP3   OH2 9998   4.709   6.411   0.300  0.1543 -0.0688 -0.3902
 3345TIP3    H1 9999   4.651   6.436   0.373 -1.0207 -2.5967 -0.3526
 3345TIP3    H210000   4.669   6.452   0.223 -0.6869 -0.3176 -0.1035
 3346TIP3   OH210001   6.538   6.438   1.120 -0.4667 -0.0385  0.2810
 3346TIP3    H110002   6.613   6.449   1.179  0.1084 -0.3842 -0.3782
 3346TIP3    H210003   6.498   6.356   1.150  1.7080 -2.0046 -1.7787
 3347TIP3   OH210004   6.030   5.343   3.285 -0.0885 -0.1523 -0.0796
 3347TIP3    H110005   6.021   5.261   3.333  0.2719  0.0894  0.4052
 3347TIP3    H210006   5.960   5.341   3.220 -0.3961 -0.6127  0.2660
 3348TIP3   OH210007   3.283   1.343   2.755 -0.2686  0.0014 -0.2308
 3348TIP3    H110008   3.371   1.346   2.717 -0.3724 -0.4194 -0.5148
 3348TIP3    H210009   3.279   1.258   2.799 -1.4254 -1.1731 -2.4441
 3349TIP3   OH210010   0.686   3.689   0.879  0.0892 -0.0991 -0.1252
 3349TIP3    H110011   0.661   3.781   0.886  0.4915  0.0510 -0.5879
 3349TIP3    H210012   0.780   3.688   0.893  0.1455 -0.3906 -0.4901
 3350TIP3   OH210013   6.393   3.579   5.035 -0.4676  0.0411 -0.5456
 3350TIP3    H110014   6.306   3.617   5.042 -1.1777 -1.3261 -1.6113
 3350TIP3    H210015   6.394   3.511   5.102  0.7698  1.7344  1.2952
 3351TIP3   OH210016   5.148   0.439   3.608  0.0408 -0.3652  0.1204
 3351TIP3    H110017   5.068   0.435   3.660 -1.0347  1.3814 -1.2652
 3351TIP3    H210018   5.125   0.397   3.525  0.1917  1.0075 -0.6560
 3352TIP3   OH210019   4.384   0.914   5.357  0.2033 -0.4641  0.3360
 3352TIP3    H110020   4.374   1.002   5.320 -2.5318  0.2922  2.5164
 3352TIP3    H210021   4.412   0.860   5.283 -1.8039  1.4902 -2.0366
 3353TIP3   OH210022   2.371   5.763   0.589  0.3199 -0.6256 -0.3044
 3353TIP3    H110023   2.454   5.780   0.635 -1.8939  0.5212  3.7342
 3353TIP3    H210024   2.368   5.831   0.521  1.8244  0.6299  0.7838
 3354TIP3   OH210025   2.242   0.996   0.662 -0.3273  0.2313  0.1550
 3354TIP3    H110026   2.287   1.038   0.589 -1.6363  0.7892 -0.3589
 3354TIP3    H210027   2.291   0.915   0.677  1.0289  0.9584 -0.1571
 3355TIP3   OH210028   2.543   3.185   1.962  0.4400  0.5007  0.4108
 3355TIP3    H110029   2.537   3.222   1.875  0.5358  1.8684  0.9663
 3355TIP3    H210030   2.457   3.147   1.979  0.4381  0.1896 -0.2839
 3356TIP3   OH210031   5.654   5.706   4.120  0.8401 -0.3142  0.0619
 3356TIP3    H110032   5.691   5.674   4.203 -0.7727 -0.3806  0.7881
 3356TIP3    H210033   5.647   5.801   4.132  0.0767 -0.3862  0.2413
 3357TIP3   OH210034   2.611   0.590   2.452  0.0083  0.2812 -0.8295
 3357TIP3    H110035   2.613   0.686   2.449  0.3578  0.2742 -0.8694
 3357TIP3    H210036   2.540   0.565   2.393  0.2091  0.4995 -1.1650
 3358TIP3   OH210037   2.594   2.818   1.378  0.5014 -0.7317 -0.4673
 3358TIP3    H110038   2.542   2.741   1.355  2.1039 -2.0428  0.0968
 3358TIP3    H210039   2.633   2.846   1.295  1.8632 -2.0597 -0.3060
 3359TIP3   OH210040   1.004   3.997   5.201 -0.2894  0.1471 -0.3738
 3359TIP3    H110041   1.080   4.014   5.145  0.9327 -1.4256  0.6918
 3359TIP3    H210042   1.020   4.047   5.280 -0.7941  0.4735 -0.4763
 3360TIP3   OH210043   6.048   5.422   4.094  0.3383 -0.7755 -0.5456
 3360TIP3    H110044   6.111   5.350   4.100  1.2883  0.0356 -0.6120
 3360TIP3    H210045   6.101   5.501   4.100 -0.5082 -0.0472 -2.1762
 3361TIP3   OH210046   3.158   3.043   4.779  0.0073  0.0235  0.1266
 3361TIP3    H110047   3.199   3.128   4.764 -2.1508  1.1320  0.1000
 3361TIP3    H210048   3.140   3.041   4.872 -0.2274 -0.2629  0.0756
 3362TIP3   OH210049   0.999   3.801   5.629  0.5215  0.2593  0.1119
 3362TIP3    H110050   1.016   3.788   5.536  2.2894 -1.3069  0.5960
 3362TIP3    H210051   0.976   3.715   5.662  0.0848  0.7641  1.1805
 3363TIP3   OH210052   3.413   5.071   0.642  0.2454 -0.1248 -0.2845
 3363TIP3    H110053   3.494   5.034   0.679 -0.0746 -0.6639 -0.1154
 3363TIP3    H210054   3.349   5.001   0.649 -0.5266  0.6293  0.5220
 3364TIP3   OH210055   2.689   2.586   2.792 -0.2770 -0.0219 -0.5888
 3364TIP3    H110056   2.681   2.657   2.729  0.8344  0.2673 -0.4203
 3364TIP3    H210057   2.735   2.516   2.744 -0.7002 -0.3460 -0.5296
 3365TIP3   OH210058   1.686   3.061   4.600 -0.9087 -0.4114 -0.0165
 3365TIP3    H110059   1.733   3.134   4.642 -0.8114 -1.5597  2.0001
 3365TIP3    H210060   1.741   3.035   4.527 -0.9910  1.5765 -0.8469
 3366TIP3   OH210061   5.722   2.124   4.312 -0.3884  0.8569 -0.4644
 3366TIP3    H110062   5.664   2.184   4.359 -1.2510  0.6355 -1.2301
 3366TIP3    H210063   5.762   2.178   4.244  0.0582  0.9318 -0.1452
 3367TIP3   OH210064   2.799   6.117   1.937  0.6986  0.0653 -0.3456
 3367TIP3    H110065   2.891   6.130   1.961  1.3374 -2.1962 -1.2905
 3367TIP3    H210066   2.784   6.177   1.864  0.8969  1.6221  0.8402
 3368TIP3   OH210067   1.677   3.227   5.825 -0.1778  0.1127  0.1389
 3368TIP3    H110068   1.719   3.154   5.872  1.9000  0.3948 -1.1822
 3368TIP3    H210069   1.742   3.297   5.826 -1.8589  1.7415  0.7208
 3369TIP3   OH210070   1.624   2.613   0.248 -0.1638  0.0531 -0.6436
 3369TIP3    H110071   1.714   2.586   0.263  0.3458  0.3357 -2.8101
 3369TIP3    H210072   1.571   2.552   0.299  1.1844 -1.3688 -0.8794
 3370TIP3   OH210073   5.348   0.942   2.270  0.6767  0.4583 -0.1300
 3370TIP3    H110074   5.321   0.994   2.194  1.6174 -0.4688 -1.1315
 3370TIP3    H210075   5.436   0.973   2.291  0.8859 -0.0885 -0.1697
 3371TIP3   OH210076   3.598   0.848   0.321 -0.8118 -0.8188  0.0277
 3371TIP3    H110077   3.678   0.870   0.273  0.2479  1.1401  2.4547
 3371TIP3    H210078   3.528   0.888   0.270  0.0594 -0.2596 -0.7781
 3372TIP3   OH210079   4.342   5.540   0.821 -0.0241 -0.2674  0.1532
 3372TIP3    H110080   4.429   5.578   0.821 -0.1242  0.0134 -1.2933
 3372TIP3    H210081   4.330   5.507   0.910  1.0790  0.7571  0.7028
 3373TIP3   OH210082   1.257   2.676   1.635 -0.1065  0.0874  0.2475
 3373TIP3    H110083   1.291   2.611   1.696 -0.8888 -0.8748 -0.3098
 3373TIP3    H210084   1.289   2.648   1.549 -0.5247  0.3853 -0.0114
 3374TIP3   OH210085   5.856   1.982   0.281 -0.2246 -0.7150  0.1354
 3374TIP3    H110086   5.799   1.933   0.221 -0.2044 -0.1942 -0.3180
 3374TIP3    H210087   5.945   1.958   0.254 -0.1770  0.7193 -1.0993
 3375TIP3   OH210088   5.420   6.240   1.353  0.0516 -0.2032  0.0028
 3375TIP3    H110089   5.366   6.318   1.349  1.5328  0.9454  1.2006
 3375TIP3    H210090   5.484   6.251   1.283 -0.6048 -1.0814 -0.7697
 3376TIP3   OH210091   2.734   1.333   3.995  0.7162  0.4565  0.3035
 3376TIP3    H110092   2.721   1.425   4.018  1.5669  0.4423  0.8550
 3376TIP3    H210093   2.776   1.336   3.909 -0.9540  0.5311 -0.5657
 3377TIP3   OH210094   1.068   5.566   4.966 -0.3263  0.8153  0.1430
 3377TIP3    H110095   0.989   5.551   4.913 -0.8023 -0.2699  1.1154
 3377TIP3    H210096   1.106   5.478   4.977  0.7614  1.2700  0.0835
 3378TIP3   OH210097   1.276   2.763   0.492  0.2792 -0.5237  0.4225
 3378TIP3    H110098   1.280   2.814   0.411  1.2358  1.4274  1.6336
 3378TIP3    H210099   1.234   2.821   0.555  2.0805 -0.8884  2.0616
 3379TIP3   OH210100   4.416   5.951  -0.005  0.4154  0.1029 -0.2540
 3379TIP3    H110101   4.386   5.918   0.079  0.0806  0.0276 -0.3999
 3379TIP3    H210102   4.486   5.892  -0.031 -0.4129 -0.7187 -0.6782
 3380TIP3   OH210103   1.445   1.680   2.249 -0.7404  0.3635  0.0501
 3380TIP3    H110104   1.382   1.624   2.204 -2.3610  0.8715  1.5974
 3380TIP3    H210105   1.422   1.673   2.342  0.4945  1.7981  0.5103
 3381TIP3   OH210106   5.102   0.481   4.225  0.7496  0.3227 -0.6845
 3381TIP3    H110107   5.120   0.472   4.132  0.4749 -0.3365 -0.6799
 3381TIP3    H210108   5.035   0.415   4.243  2.6507 -1.3974  0.5048
 3382TIP3   OH210109   5.021   3.063   2.925  0.2468 -0.0833 -0.2750
 3382TIP3    H110110   4.989   2.999   2.862 -0.6415  0.0826 -0.0109
 3382TIP3    H210111   4.946   3.121   2.940  0.4821 -0.0501  0.8339
 3383TIP3   OH210112   1.702   1.690   3.920  0.2282  0.3715 -0.0923
 3383TIP3    H110113   1.765   1.726   3.857  0.3334  0.1594 -0.1097
 3383TIP3    H210114   1.742   1.608   3.949 -0.0611  0.2157 -0.1348
 3384TIP3   OH210115   0.378   6.677   4.272  0.1034  0.4961  0.1835
 3384TIP3    H110116   0.349   6.719   4.353 -0.0021  0.3341  0.2315
 3384TIP3    H210117   0.296   6.655   4.226  0.1553  2.6412 -1.0459
 3385TIP3   OH210118   4.354   4.511   4.408 -0.1764  0.1623 -0.1713
 3385TIP3    H110119   4.296   4.464   4.468 -0.4405  1.0562  0.2804
 3385TIP3    H210120   4.427   4.450   4.394 -0.6124 -0.4720  0.2354
 3386TIP3   OH210121   4.519   0.666   3.774 -0.0854  0.5377  0.4120
 3386TIP3    H110122   4.434   0.623   3.764  0.5226 -0.8199  0.7698
 3386TIP3    H210123   4.507   0.726   3.847 -0.7722  0.4579  0.3739
 3387TIP3   OH210124   5.687   2.547   5.364  0.4392 -0.2048 -0.7312
 3387TIP3    H110125   5.646   2.629   5.392 -0.4020 -0.0473 -2.3285
 3387TIP3    H210126   5.626   2.510   5.300  0.0382 -2.8515  0.9994
 3388TIP3   OH210127   0.722   1.672   0.164  0.3847 -0.1700  0.0406
 3388TIP3    H110128   0.704   1.641   0.253  1.5259  0.4421  0.5032
 3388TIP3    H210129   0.671   1.752   0.155  0.0701 -0.3683  0.0503
 3389TIP3   OH210130   0.440   1.113   0.773 -0.1253  0.0735 -0.2781
 3389TIP3    H110131   0.410   1.187   0.827 -1.5132  0.4301 -1.4634
 3389TIP3    H210132   0.508   1.151   0.717  0.3782  0.0208  0.2860
 3390TIP3   OH210133   2.768   4.084   3.197  0.1029 -0.1261  0.2740
 3390TIP3    H110134   2.766   4.025   3.273 -1.4114  0.8882  1.0796
 3390TIP3    H210135   2.784   4.171   3.235  1.3604  0.1360 -0.7948
 3391TIP3   OH210136   3.598   4.228   1.394  0.1717 -0.3025 -0.0562
 3391TIP3    H110137   3.522   4.246   1.339  0.2848  0.4949  0.0416
 3391TIP3    H210138   3.567   4.244   1.483  0.5293  0.2829 -0.0363
 3392TIP3   OH210139   1.294   5.506   5.423  0.5779  0.7234  0.1306
 3392TIP3    H110140   1.240   5.485   5.348  1.4691 -0.8002 -0.1080
 3392TIP3    H210141   1.237   5.559   5.479 -0.9306 -0.2391 -0.4323
 3393TIP3   OH210142   2.900   3.210   2.707 -0.1086 -0.0381  0.0030
 3393TIP3    H110143   2.900   3.158   2.626 -2.9727  0.3225 -0.3039
 3393TIP3    H210144   2.949   3.156   2.769 -0.3957 -1.7165 -1.1528
 3394TIP3   OH210145   0.969   2.000   5.200 -0.4043 -0.0833 -0.6031
 3394TIP3    H110146   0.964   1.922   5.145  0.5031 -0.9853  0.5315
 3394TIP3    H210147   0.956   1.968   5.289  2.1289  0.6728  0.1404
 3395TIP3   OH210148   6.107   0.768   2.936 -0.6071  0.9527  0.3838
 3395TIP3    H110149   6.119   0.683   2.893  1.2291  1.1130  0.4628
 3395TIP3    H210150   6.034   0.808   2.890 -1.5441 -0.6732  0.3695
 3396TIP3   OH210151   4.847   4.623   5.810 -0.2683  0.3591  0.1531
 3396TIP3    H110152   4.911   4.569   5.763  0.0508  0.5674  0.3400
 3396TIP3    H210153   4.848   4.707   5.763  0.2817  0.6745  0.7057
 3397TIP3   OH210154   5.939   0.645   4.853  0.3115 -0.7401  0.0605
 3397TIP3    H110155   5.937   0.612   4.942  1.4364 -0.6014  0.1449
 3397TIP3    H210156   6.015   0.703   4.850 -0.5884  0.4633 -0.5673
 3398TIP3   OH210157   2.355   3.501   4.104  0.3207  0.0954 -0.1384
 3398TIP3    H110158   2.354   3.420   4.054 -0.1694 -0.6295  0.9920
 3398TIP3    H210159   2.271   3.542   4.086  0.2277 -0.0645 -0.0724
 3399TIP3   OH210160   3.328   4.535   5.636 -0.3960 -0.5240  0.1392
 3399TIP3    H110161   3.350   4.493   5.552  3.7312  0.1710  0.6470
 3399TIP3    H210162   3.339   4.467   5.701  2.9094  0.3021  0.6180
 3400TIP3   OH210163   5.344   4.050   1.436  0.4862 -0.1608 -0.5887
 3400TIP3    H110164   5.251   4.066   1.420  1.0181  1.2801 -2.6683
 3400TIP3    H210165   5.360   4.087   1.523 -0.4734  1.6442 -1.1232
 3401TIP3   OH210166   0.804   5.212   4.218  0.8821  0.4912 -0.1699
 3401TIP3    H110167   0.730   5.273   4.215 -0.4865 -1.0178  0.9354
 3401TIP3    H210168   0.876   5.263   4.255  0.2445  1.8446 -0.7308
 3402TIP3   OH210169   4.049   1.325   0.405 -0.2169  0.2835  0.5497
 3402TIP3    H110170   3.997   1.270   0.464 -0.5504  0.2357  0.2093
 3402TIP3    H210171   4.060   1.407   0.453  1.4820 -0.5189  1.6912
 3403TIP3   OH210172   0.565   2.446   1.702 -0.5014  0.6900  0.0612
 3403TIP3    H110173   0.646   2.423   1.748 -0.0161  0.2881 -0.9512
 3403TIP3    H210174   0.575   2.538   1.679 -0.8622  0.9667  0.9663
 3404TIP3   OH210175   2.553   3.249   2.964 -0.1967 -0.1426  0.0060
 3404TIP3    H110176   2.472   3.201   2.948 -0.5727  0.5361 -0.1575
 3404TIP3    H210177   2.587   3.269   2.877 -1.1619  1.7401  0.0231
 3405TIP3   OH210178   5.701   3.720   0.525 -0.9992 -0.7516  0.1589
 3405TIP3    H110179   5.618   3.767   0.522 -0.8122 -0.2865  1.7425
 3405TIP3    H210180   5.676   3.627   0.528 -1.6086 -0.5878  3.0598
 3406TIP3   OH210181   4.854   4.593   1.584 -0.6199  0.5104 -0.3090
 3406TIP3    H110182   4.796   4.524   1.615  1.0545 -0.2183  1.3965
 3406TIP3    H210183   4.855   4.657   1.656  0.3980  0.6648 -0.4444
 3407TIP3   OH210184   3.403   2.993   1.853 -0.4027 -0.0236 -1.1300
 3407TIP3    H110185   3.330   2.975   1.794 -1.7001  2.2417 -0.3567
 3407TIP3    H210186   3.468   3.038   1.799 -0.4213 -0.3404 -1.4141
 3408TIP3   OH210187   6.660   5.423   3.971  0.5377 -0.1856 -0.0916
 3408TIP3    H110188   6.619   5.462   3.894 -0.4321 -1.5159 -0.2739
 3408TIP3    H210189   6.598   5.439   4.043  0.9817  0.1864  0.2180
 3409TIP3   OH210190   1.033   0.471   4.181 -0.2131  0.3247  0.3813
 3409TIP3    H110191   1.025   0.378   4.161 -0.6681  0.3378  0.4987
 3409TIP3    H210192   0.943   0.502   4.189 -0.0691  0.8470  0.0156
 3410TIP3   OH210193   4.376   3.880   3.161  0.4774 -0.5310  0.3042
 3410TIP3    H110194   4.420   3.818   3.103  0.7587 -0.8984  0.8926
 3410TIP3    H210195   4.445   3.910   3.221  0.0960 -0.5184  0.7416
 3411TIP3   OH210196   0.028   0.801   5.848  0.1544  0.1896 -0.2323
 3411TIP3    H110197   0.001   0.888   5.878  2.2146  0.8889 -0.2733
 3411TIP3    H210198  -0.022   0.787   5.767 -0.7626  0.9776  0.1739
 3412TIP3   OH210199   1.770   5.169   2.140 -0.3234 -0.0939  0.0082
 3412TIP3    H110200   1.755   5.248   2.088 -0.5320 -0.6142 -0.7453
 3412TIP3    H210201   1.851   5.188   2.188 -0.7354  0.8358  0.3628
 3413TIP3   OH210202   2.868   0.070   2.704  0.2102 -0.0805  0.0162
 3413TIP3    H110203   2.828   0.150   2.670  1.0066  0.0696 -0.6239
 3413TIP3    H210204   2.827   0.056   2.789  0.7410  1.5451  0.5783
 3414TIP3   OH210205   6.145   6.419   5.832  0.3090 -0.0734  0.1755
 3414TIP3    H110206   6.056   6.385   5.823  0.6536 -1.0499  0.2632
 3414TIP3    H210207   6.200   6.340   5.833  1.2585  0.5566 -0.8977
 3415TIP3   OH210208   4.605   0.822   0.809 -0.2784  0.0715  0.5394
 3415TIP3    H110209   4.637   0.773   0.885 -0.7356  0.2721  0.8649
 3415TIP3    H210210   4.639   0.774   0.733  4.1417  2.2847  0.7585
 3416TIP3   OH210211   0.833   3.258   1.626 -0.2186  0.1122 -0.1817
 3416TIP3    H110212   0.824   3.339   1.675 -0.4508  0.3524 -0.6122
 3416TIP3    H210213   0.926   3.255   1.602 -0.6831  1.6501 -2.4929
 3417TIP3   OH210214   1.682   4.957   0.523  0.0501  0.0279  0.3533
 3417TIP3    H110215   1.698   4.943   0.617  1.0731 -0.4191  0.1295
 3417TIP3    H210216   1.703   5.049   0.509  1.5345 -0.2916  0.2756
 3418TIP3   OH210217   1.387   0.623   4.949 -0.2278 -0.4864  0.1174
 3418TIP3    H110218   1.362   0.645   4.859  0.3968 -1.6093 -0.3523
 3418TIP3    H210219   1.369   0.530   4.957 -0.1058 -0.4373  1.1025
 3419TIP3   OH210220   0.162   6.377   2.812 -0.1793 -0.1309  0.0746
 3419TIP3    H110221   0.090   6.382   2.749  1.1164  2.0112 -1.3806
 3419TIP3    H210222   0.196   6.288   2.802 -1.3355 -0.4997 -0.7166
 3420TIP3   OH210223   4.571   2.116   2.953 -0.0060 -0.2817  0.0507
 3420TIP3    H110224   4.542   2.186   2.894  1.2116 -0.9618 -1.4236
 3420TIP3    H210225   4.604   2.163   3.030 -0.4730  0.6923 -0.3196
 3421TIP3   OH210226   4.037   4.487   1.078  0.2474 -0.5292 -0.4241
 3421TIP3    H110227   4.073   4.557   1.132  0.2344 -2.1349  1.8224
 3421TIP3    H210228   3.948   4.475   1.111 -0.7619  0.2168 -2.6859
 3422TIP3   OH210229   7.058   3.041   4.424 -0.1894 -0.2615 -0.3600
 3422TIP3    H110230   7.103   2.959   4.448 -0.2194  0.2758  1.7735
 3422TIP3    H210231   7.107   3.109   4.471 -1.4587  0.6726 -0.3499
 3423TIP3   OH210232   4.812   5.756   4.494 -0.3467  0.0119 -0.5112
 3423TIP3    H110233   4.820   5.844   4.530  1.7978 -0.5663  0.5920
 3423TIP3    H210234   4.784   5.770   4.403 -1.4940  1.7206  0.0596
 3424TIP3   OH210235   5.363   1.624   5.143  0.8040 -0.1323  0.1480
 3424TIP3    H110236   5.361   1.601   5.050  0.1851  1.2654 -0.2079
 3424TIP3    H210237   5.274   1.652   5.164  1.7199  3.3165  0.1085
 3425TIP3   OH210238   6.524   6.452   4.189  0.4611 -0.4555 -0.1495
 3425TIP3    H110239   6.484   6.531   4.223 -0.5950 -0.3688 -1.4893
 3425TIP3    H210240   6.567   6.479   4.108 -1.8696 -1.5701 -1.8911
 3426TIP3   OH210241   5.105   2.926   4.791  0.4519 -0.2469 -0.6233
 3426TIP3    H110242   5.054   2.869   4.734  0.1794 -0.3641 -0.2696
 3426TIP3    H210243   5.132   2.869   4.863  1.3310 -0.2530 -0.9551
 3427TIP3   OH210244   2.824   6.546   3.056 -0.2819 -0.4151  0.2925
 3427TIP3    H110245   2.749   6.606   3.058 -0.4111 -0.5906  0.7725
 3427TIP3    H210246   2.847   6.540   2.963 -0.3701  0.2512  0.2205
 3428TIP3   OH210247   2.318   3.275   2.337 -0.5557  0.0806 -0.0160
 3428TIP3    H110248   2.382   3.316   2.395 -1.2081  1.1311 -0.0109
 3428TIP3    H210249   2.370   3.219   2.280  0.2249 -0.0470  0.7883
 3429TIP3   OH210250   6.112   4.455   2.709 -0.4052 -0.4032 -0.1561
 3429TIP3    H110251   6.122   4.363   2.685  0.7002 -0.7768  1.5818
 3429TIP3    H210252   6.192   4.497   2.677 -1.0181  0.0355 -1.1670
 3430TIP3   OH210253   1.783   0.976   3.722 -0.2948  0.1784  0.4716
 3430TIP3    H110254   1.825   0.891   3.708  0.7200  0.8959 -1.2572
 3430TIP3    H210255   1.848   1.026   3.771  1.4903  1.5689 -2.9149
 3431TIP3   OH210256   5.421   4.443   4.826  0.1490 -0.5250  0.2998
 3431TIP3    H110257   5.346   4.390   4.855 -1.1824 -0.1609 -2.2730
 3431TIP3    H210258   5.493   4.380   4.820 -0.1565 -1.0742  1.8503
 3432TIP3   OH210259   7.034   0.457   3.774  0.6692  0.8541 -0.4191
 3432TIP3    H110260   7.063   0.502   3.694 -0.8721  3.0595  0.1711
 3432TIP3    H210261   7.044   0.522   3.843 -1.7963  0.3948  0.4708
 3433TIP3   OH210262   4.575   5.602   5.140 -0.2326  0.1014  0.5579
 3433TIP3    H110263   4.505   5.633   5.082  0.7368  1.4693  0.0626
 3433TIP3    H210264   4.542   5.622   5.228 -0.8912 -0.2100  0.3894
 3434TIP3   OH210265   2.481   1.902   4.202  0.1861  0.2838 -0.1813
 3434TIP3    H110266   2.521   1.958   4.136  1.1822  0.4099  0.5055
 3434TIP3    H210267   2.456   1.962   4.272 -0.7976  0.1415 -0.3859
 3435TIP3   OH210268   3.721   4.212   5.725 -0.2527  0.5577 -0.4688
 3435TIP3    H110269   3.685   4.229   5.812 -1.7581  0.9694 -1.1537
 3435TIP3    H210270   3.815   4.225   5.736  0.2036 -3.2261  2.0498
 3436TIP3   OH210271   5.256   3.008   3.042 -0.0030 -0.3238 -0.2675
 3436TIP3    H110272   5.309   3.067   2.988 -0.6316  0.1072 -0.4331
 3436TIP3    H210273   5.170   3.008   3.000 -1.1352  1.6369  1.8038
 3437TIP3   OH210274   2.062   3.114   1.408  0.4104  0.0636 -0.3748
 3437TIP3    H110275   2.091   3.186   1.351 -1.5266  1.0287 -0.2272
 3437TIP3    H210276   2.107   3.037   1.374 -0.9568  0.5066 -3.5446
 3438TIP3   OH210277   0.036   6.612   4.926 -0.0461 -0.1753 -0.0943
 3438TIP3    H110278   0.071   6.680   4.869  0.0187 -0.3268 -0.2389
 3438TIP3    H210279  -0.059   6.622   4.920 -0.0319  0.0238  0.0342
 3439TIP3   OH210280   1.027   2.310   2.837 -0.0692  0.4445  0.3782
 3439TIP3    H110281   1.051   2.384   2.780  1.8556  0.2606  0.8720
 3439TIP3    H210282   0.992   2.244   2.777  2.0762  0.1819 -0.6706
 3440TIP3   OH210283   5.457   6.203   3.913  0.0756  0.0440 -0.0620
 3440TIP3    H110284   5.546   6.173   3.934 -0.3441 -0.9793  0.3700
 3440TIP3    H210285   5.469   6.289   3.874  1.3887 -0.7163 -1.4712
 3441TIP3   OH210286   2.950   3.498   1.691 -0.5659 -0.5185  0.0019
 3441TIP3    H110287   2.883   3.564   1.709 -1.7354 -1.3349 -1.1901
 3441TIP3    H210288   2.930   3.426   1.751 -0.6034 -0.6455 -0.1593
 3442TIP3   OH210289   1.042   5.205   2.160  0.1102  0.7121 -0.0218
 3442TIP3    H110290   1.113   5.252   2.205  0.5762  0.5599 -0.5861
 3442TIP3    H210291   0.967   5.213   2.218  1.2172 -1.2391  1.8519
 3443TIP3   OH210292   6.455   5.404   5.386  0.2561  0.6428  0.3759
 3443TIP3    H110293   6.411   5.455   5.318  0.2119  1.7694  1.2208
 3443TIP3    H210294   6.417   5.317   5.378 -1.0958  1.2233  0.1422
 3444TIP3   OH210295   2.431   1.514   0.581 -0.3457  0.7313  0.0265
 3444TIP3    H110296   2.501   1.449   0.573 -0.2618  0.9154 -0.9002
 3444TIP3    H210297   2.350   1.462   0.580 -0.4233  0.6780 -3.1047
 3445TIP3   OH210298   1.818   2.142   1.838  0.0103  0.1916 -0.3007
 3445TIP3    H110299   1.744   2.198   1.860  0.0047  0.0180  0.1236
 3445TIP3    H210300   1.851   2.111   1.922 -1.0486 -1.8127 -0.5486
 3446TIP3   OH210301   6.969   1.651   3.552  0.0324 -0.0617  0.4314
 3446TIP3    H110302   6.936   1.565   3.576  0.1964 -0.4549 -0.6840
 3446TIP3    H210303   7.032   1.673   3.621 -1.4593  0.0730  1.8062
 3447TIP3   OH210304   0.902   1.003   2.585  0.0246  0.0537  0.3137
 3447TIP3    H110305   0.832   0.964   2.638  0.3096  0.7149  1.1945
 3447TIP3    H210306   0.949   0.928   2.549  0.3819 -0.4345  1.7461
 3448TIP3   OH210307   1.399   2.202   3.029 -0.3537 -0.0451 -0.7815
 3448TIP3    H110308   1.466   2.269   3.017  0.3235 -0.7188 -0.8344
 3448TIP3    H210309   1.331   2.244   3.082  0.5799  0.3461  0.1373
 3449TIP3   OH210310   2.964   2.131   5.229 -0.6569 -0.1614 -0.2947
 3449TIP3    H110311   2.947   2.056   5.173 -2.2403 -1.5502  1.9231
 3449TIP3    H210312   2.911   2.202   5.191 -0.2597 -0.5346 -1.5827
 3450TIP3   OH210313   2.259   1.751   5.869 -0.3905  0.6038  0.3044
 3450TIP3    H110314   2.224   1.834   5.836  0.6478 -0.0657 -2.9005
 3450TIP3    H210315   2.354   1.765   5.875  0.0468 -0.7038 -1.9904
 3451TIP3   OH210316   5.919   3.387   0.630 -0.1089 -0.2530 -0.5382
 3451TIP3    H110317   5.835   3.425   0.605 -0.0889  0.1928  0.0584
 3451TIP3    H210318   5.898   3.298   0.660 -0.3018 -0.3091 -0.8395
 3452TIP3   OH210319   5.179   4.193   2.183 -0.3177  0.3694 -0.2165
 3452TIP3    H110320   5.158   4.104   2.212 -1.0814  1.0109  1.3267
 3452TIP3    H210321   5.254   4.218   2.237 -1.6897  1.5495  1.2514
 3453TIP3   OH210322   5.988   2.930   4.562 -0.3852  0.4770  0.5385
 3453TIP3    H110323   5.958   3.016   4.591  2.1140  1.4735  0.4188
 3453TIP3    H210324   6.062   2.909   4.619 -1.4551 -2.0763  1.1674
 3454TIP3   OH210325   6.824   0.525   0.674  0.4850 -0.1611  0.0814
 3454TIP3    H110326   6.748   0.557   0.625 -0.7388 -1.5993  0.9514
 3454TIP3    H210327   6.853   0.601   0.725 -0.3871  0.4026 -0.2337
 3455TIP3   OH210328   2.066   6.044   0.644 -0.0505  0.4095 -0.6485
 3455TIP3    H110329   2.001   5.995   0.594  0.1010 -1.5588  0.9351
 3455TIP3    H210330   2.150   6.019   0.606  0.0243 -0.5991  0.1361
 3456TIP3   OH210331   4.446   1.809   4.157  0.1501 -0.1259  0.4274
 3456TIP3    H110332   4.525   1.823   4.208  0.0242 -0.0122  0.5917
 3456TIP3    H210333   4.468   1.737   4.097  0.2439 -0.3627  0.7473
 3457TIP3   OH210334   0.276   1.775   2.194 -0.4369 -0.0660 -0.4391
 3457TIP3    H110335   0.311   1.720   2.264  1.4514 -0.3975 -1.5628
 3457TIP3    H210336   0.258   1.859   2.236 -1.6070 -0.9428  0.9072
 3458TIP3   OH210337   5.745   1.655   2.222 -0.1843  0.0456  0.5328
 3458TIP3    H110338   5.694   1.618   2.293  1.7777 -0.3849  1.8076
 3458TIP3    H210339   5.728   1.598   2.147 -1.0280 -0.4654  1.1058
 3459TIP3   OH210340   1.424   1.063   0.019  0.1811 -0.0600  0.5260
 3459TIP3    H110341   1.349   1.073   0.078 -0.6505 -3.6969  0.3743
 3459TIP3    H210342   1.493   1.026   0.074  0.8132  0.4005  0.0481
 3460TIP3   OH210343   4.015   6.416   5.829 -0.1062  0.3852  0.5284
 3460TIP3    H110344   4.106   6.436   5.805  0.3659 -0.7635  1.3032
 3460TIP3    H210345   4.021   6.337   5.883 -1.5360  0.5110  0.9051
 3461TIP3   OH210346   0.016   5.461   4.943  0.2984  0.2888  0.1535
 3461TIP3    H110347   0.102   5.502   4.952  1.0665 -1.4738  1.3567
 3461TIP3    H210348   0.003   5.413   5.025 -2.8628  2.2535  0.9777
 3462TIP3   OH210349   0.943   1.037   0.948 -0.5051  0.3340  0.1940
 3462TIP3    H110350   0.922   1.077   0.864  0.3275 -0.3805 -0.3638
 3462TIP3    H210351   1.033   1.063   0.966 -0.7705  0.7322  1.0253
 3463TIP3   OH210352   2.488   3.475   2.136  0.2986  0.1403  0.3327
 3463TIP3    H110353   2.394   3.469   2.117 -0.4874  1.4200  3.3430
 3463TIP3    H210354   2.512   3.387   2.167  0.1857 -0.2451 -0.6338
 3464TIP3   OH210355   5.716   4.818   3.037  0.2935 -0.5331 -0.0296
 3464TIP3    H110356   5.731   4.869   2.958  1.1476 -0.6151  0.0696
 3464TIP3    H210357   5.784   4.750   3.035 -0.7770 -1.6382 -0.1250
 3465TIP3   OH210358   7.082   1.299   1.178 -0.3129  0.3436 -0.2128
 3465TIP3    H110359   7.067   1.211   1.142 -1.6152  0.4101  0.1038
 3465TIP3    H210360   7.110   1.283   1.268 -1.7419  0.2501  0.2387
 3466TIP3   OH210361   1.987   2.329   4.467 -0.3798 -0.3860 -0.4797
 3466TIP3    H110362   2.039   2.401   4.503  0.3357 -1.2347  0.2313
 3466TIP3    H210363   1.934   2.370   4.398  1.1568  0.5492 -1.1718
 3467TIP3   OH210364   6.348   2.819   3.667  0.4614  0.3520  0.3000
 3467TIP3    H110365   6.389   2.905   3.666  0.2531  0.4540 -0.7597
 3467TIP3    H210366   6.262   2.832   3.627 -0.2629 -0.0404  1.6444
 3468TIP3   OH210367   0.907   6.154   5.460 -0.4373  0.0219 -0.3074
 3468TIP3    H110368   0.905   6.068   5.418  2.1797 -0.5011  0.4808
 3468TIP3    H210369   0.890   6.136   5.552  0.8631  0.2057 -0.0115
 3469TIP3   OH210370   4.148   0.549   4.882  0.2721 -0.1766 -0.8253
 3469TIP3    H110371   4.176   0.622   4.827 -0.4614 -0.0748 -1.0765
 3469TIP3    H210372   4.193   0.473   4.846  1.9787  0.3167  0.1711
 3470TIP3   OH210373   5.618   3.468   0.540 -0.6102  0.4621  0.0655
 3470TIP3    H110374   5.626   3.468   0.445  0.4572 -1.1304  0.1106
 3470TIP3    H210375   5.550   3.403   0.559  1.7887 -2.1911  0.4267
 3471TIP3   OH210376   7.184   5.597   1.096 -0.8494 -0.0201  0.4180
 3471TIP3    H110377   7.218   5.658   1.032 -2.0952 -1.9858 -2.3238
 3471TIP3    H210378   7.098   5.632   1.119 -0.7681  0.2315  0.3444
 3472TIP3   OH210379   5.139   4.888   5.583 -0.0823 -0.0724 -0.3042
 3472TIP3    H110380   5.123   4.975   5.618  3.0512  0.3761  0.3040
 3472TIP3    H210381   5.161   4.903   5.491 -0.5247 -0.3532 -0.4584
 3473TIP3   OH210382   0.887   1.717   0.887  0.2948 -0.5079  0.0718
 3473TIP3    H110383   0.847   1.692   0.971  1.6923 -0.2428  0.8452
 3473TIP3    H210384   0.977   1.740   0.909  0.8056 -0.7861 -1.5731
 3474TIP3   OH210385   3.345   2.160   4.373  0.8970 -0.0687 -0.6949
 3474TIP3    H110386   3.355   2.146   4.467  1.4593  0.5847 -0.6526
 3474TIP3    H210387   3.330   2.072   4.337  1.0711 -0.3670 -0.0463
 3475TIP3   OH210388   5.295   5.882   0.266 -0.7985 -0.1429  0.2139
 3475TIP3    H110389   5.314   5.926   0.184 -0.1758 -1.4415 -0.3682
 3475TIP3    H210390   5.336   5.795   0.257 -1.2022 -0.5139  1.6611
 3476TIP3   OH210391   1.598   3.996   2.549  0.9992  0.0985 -0.3759
 3476TIP3    H110392   1.605   4.054   2.473  2.3699  1.1988  0.5384
 3476TIP3    H210393   1.682   4.005   2.594  0.3778 -0.8323  1.0519
 3477TIP3   OH210394   4.711   0.347   4.687 -0.2794 -0.4583  0.5741
 3477TIP3    H110395   4.706   0.406   4.612 -0.2846  1.3156  1.9152
 3477TIP3    H210396   4.797   0.364   4.725 -0.0637 -1.7196  0.6973
 3478TIP3   OH210397   0.838   1.986   0.322 -0.0304  0.0335  0.1663
 3478TIP3    H110398   0.796   2.031   0.396  1.3280 -0.4140  1.2572
 3478TIP3    H210399   0.871   1.904   0.359  2.6189  0.7678 -0.3499
 3479TIP3   OH210400   6.457   6.683   5.659 -0.3269  0.1729 -0.3147
 3479TIP3    H110401   6.380   6.626   5.654  0.7846 -1.6121  1.4194
 3479TIP3    H210402   6.469   6.699   5.752 -1.6660  4.9624 -0.7480
 3480TIP3   OH210403   1.696   2.976   0.860  0.2250  0.0720  0.1103
 3480TIP3    H110404   1.646   2.999   0.781  2.4730  1.2518 -1.0691
 3480TIP3    H210405   1.696   2.880   0.861  0.1307  0.0297 -1.3417
 3481TIP3   OH210406   6.279   1.637   4.316 -0.0173  0.6624  1.2442
 3481TIP3    H110407   6.257   1.727   4.340 -1.1428  0.0635  2.5814
 3481TIP3    H210408   6.361   1.645   4.268 -0.5422  2.4862  0.5571
 3482TIP3   OH210409   4.615   1.972   0.736  0.1169 -0.1777 -0.2776
 3482TIP3    H110410   4.590   1.942   0.823  1.2408  1.7896  0.7779
 3482TIP3    H210411   4.553   2.042   0.716  0.6357  0.2169 -0.5165
 3483TIP3   OH210412   4.939   1.944   1.433  0.2590  0.2797 -0.0752
 3483TIP3    H110413   5.019   1.915   1.474 -0.1608  0.1645  0.6726
 3483TIP3    H210414   4.877   1.873   1.446 -0.8074  1.4802  1.8695
 3484TIP3   OH210415   3.930   5.672   2.009  0.7427 -0.1279 -0.2590
 3484TIP3    H110416   3.859   5.736   2.000 -0.9179 -1.8704 -0.1194
 3484TIP3    H210417   3.917   5.611   1.936  0.3727 -2.0482  1.3197
 3485TIP3   OH210418   4.076   0.328   5.189 -0.1193 -0.2153  0.3751
 3485TIP3    H110419   4.095   0.314   5.096  1.7888 -2.3077  0.9963
 3485TIP3    H210420   4.065   0.423   5.197  1.0522  0.1680 -1.7470
 3486TIP3   OH210421   4.665   1.022   5.193  0.0577 -0.7322 -0.0680
 3486TIP3    H110422   4.621   0.990   5.114  0.2224  0.5913 -0.7261
 3486TIP3    H210423   4.598   1.075   5.238  0.9649  1.5334 -1.2226
 3487TIP3   OH210424   6.883   4.809   1.006 -0.0354  1.2282 -0.2346
 3487TIP3    H110425   6.873   4.825   1.100  1.7175 -0.0170  0.2131
 3487TIP3    H210426   6.964   4.855   0.982  1.6161 -1.4404 -0.2447
 3488TIP3   OH210427   5.763   0.059   3.524 -0.2869 -0.7068  0.3402
 3488TIP3    H110428   5.772   0.020   3.611 -0.1973 -0.5947  0.3808
 3488TIP3    H210429   5.799   0.147   3.533  1.1937 -1.2247 -0.2039
 3489TIP3   OH210430   6.457   6.823   5.186 -0.2194  0.0389  0.0220
 3489TIP3    H110431   6.374   6.779   5.165  1.1909 -1.6375 -2.7450
 3489TIP3    H210432   6.489   6.778   5.264 -1.9078  0.7905  1.1950
 3490TIP3   OH210433   5.423   0.296   2.398  0.6218  0.0086  0.6407
 3490TIP3    H110434   5.416   0.273   2.305 -1.4632 -0.1961  0.7881
 3490TIP3    H210435   5.405   0.390   2.400  0.5108 -0.0183  0.8500
 3491TIP3   OH210436   4.702   5.661   1.129  0.1598  0.1664 -0.1807
 3491TIP3    H110437   4.793   5.650   1.100 -0.5270 -0.9952 -2.0882
 3491TIP3    H210438   4.674   5.574   1.156 -0.3583  0.5375  0.4943
 3492TIP3   OH210439   2.182   4.384   3.306 -0.6214 -0.4097 -0.0264
 3492TIP3    H110440   2.267   4.375   3.264 -0.7005  0.9661 -0.5339
 3492TIP3    H210441   2.198   4.365   3.398  0.4779  0.8927  0.0810
 3493TIP3   OH210442   1.768   0.138   4.312  0.4527 -0.1109 -0.1920
 3493TIP3    H110443   1.860   0.161   4.300  0.9185 -0.8437  1.7203
 3493TIP3    H210444   1.723   0.223   4.316  1.1136  0.2686 -0.6190
 3494TIP3   OH210445   2.914   0.880   0.265 -0.0703 -0.0785  0.1094
 3494TIP3    H110446   2.881   0.830   0.190  0.4568 -0.9347  0.4363
 3494TIP3    H210447   2.857   0.957   0.269 -0.4792 -0.3188 -0.8073
 3495TIP3   OH210448   2.392   5.955   0.896 -0.6676 -0.3117 -0.2071
 3495TIP3    H110449   2.450   5.879   0.897 -0.8740 -0.4689 -0.2615
 3495TIP3    H210450   2.436   6.019   0.953  0.7598  0.4623 -2.0416
 3496TIP3   OH210451   3.167   5.091   4.792  0.0090 -0.2597  0.1070
 3496TIP3    H110452   3.162   4.996   4.802 -0.1148 -0.2004  0.6725
 3496TIP3    H210453   3.119   5.125   4.868  0.6632  0.2561  0.2984
 3497TIP3   OH210454   2.912   2.664   2.203  0.1309  0.2784  0.1487
 3497TIP3    H110455   2.881   2.574   2.202 -1.5636  0.7966 -1.6692
 3497TIP3    H210456   3.007   2.658   2.194 -0.1285 -1.3704 -3.5188
 3498TIP3   OH210457   0.492   0.313   2.976  0.0563  0.2091 -0.7308
 3498TIP3    H110458   0.461   0.387   2.924  2.5455  1.6515 -0.3044
 3498TIP3    H210459   0.445   0.321   3.059 -0.5942  0.5636 -1.1235
 3499TIP3   OH210460   5.069   5.015   3.627 -0.3970  0.0905  0.8252
 3499TIP3    H110461   4.998   5.052   3.573  0.2776  2.0127  1.1783
 3499TIP3    H210462   5.032   4.933   3.661 -2.5372  1.0957  1.1385
 3500TIP3   OH210463   6.247   4.241   0.662  0.0155 -0.0526  0.0761
 3500TIP3    H110464   6.248   4.234   0.567 -1.1681  2.6104 -0.2190
 3500TIP3    H210465   6.332   4.278   0.685  0.1131 -0.2415  0.0228
 3501TIP3   OH210466   6.681   0.853   1.230 -0.0065  0.1059 -0.3689
 3501TIP3    H110467   6.664   0.761   1.247  0.0366  0.2870  0.7040
 3501TIP3    H210468   6.668   0.896   1.314 -0.6465  1.1770 -0.9929
 3502TIP3   OH210469   6.719   3.960   0.168 -0.4545 -0.4254  0.1840
 3502TIP3    H110470   6.687   3.871   0.179  2.1203 -1.3833  0.5774
 3502TIP3    H210471   6.794   3.967   0.227 -0.8238  2.1714  0.4926
 3503TIP3   OH210472   3.369   0.512   0.808 -0.4636 -0.5172  0.5561
 3503TIP3    H110473   3.306   0.556   0.752  0.1824 -0.6767 -0.3182
 3503TIP3    H210474   3.403   0.440   0.755 -0.0712 -0.8725  1.2676
 3504TIP3   OH210475   5.112   2.772   3.470 -0.6156 -0.4714 -0.4130
 3504TIP3    H110476   5.049   2.845   3.466  0.0059  0.1150  0.1579
 3504TIP3    H210477   5.128   2.749   3.379 -1.0374 -0.0774 -0.5928
 3505TIP3   OH210478   1.027   2.493   4.760  0.0187  0.2100  0.0281
 3505TIP3    H110479   0.942   2.514   4.719  0.7467  1.1475 -1.0829
 3505TIP3    H210480   1.011   2.413   4.809 -1.1200 -0.5275 -1.4724
 3506TIP3   OH210481   6.723   5.249   2.397 -0.1628  0.2772 -0.5040
 3506TIP3    H110482   6.704   5.180   2.333  1.7621 -0.0444 -0.8032
 3506TIP3    H210483   6.817   5.263   2.389 -0.2429  1.7734  0.7513
 3507TIP3   OH210484   0.723   6.660   1.064  0.7790 -0.1721  0.0374
 3507TIP3    H110485   0.666   6.612   1.004  1.7332 -1.1737 -0.0978
 3507TIP3    H210486   0.811   6.633   1.040  1.2072 -0.3107  1.6325
 3508TIP3   OH210487   0.467   6.660   3.915  0.9314  0.2262  0.4664
 3508TIP3    H110488   0.409   6.600   3.963 -0.8451  1.0104 -0.5808
 3508TIP3    H210489   0.480   6.619   3.830  3.1679 -0.6263  1.1456
 3509TIP3   OH210490   0.631   2.697   4.124 -0.2211  0.6752 -0.1167
 3509TIP3    H110491   0.582   2.678   4.204 -1.0354  1.2492 -0.4659
 3509TIP3    H210492   0.581   2.653   4.055  1.2124 -0.9913 -0.1776
 3510TIP3   OH210493   4.919   6.015   2.309 -0.3221  0.0867 -0.3375
 3510TIP3    H110494   5.015   6.020   2.316 -0.1772 -1.7609 -0.4294
 3510TIP3    H210495   4.892   6.105   2.289  1.2933  0.8464  0.6502
 3511TIP3   OH210496   2.888   1.851   3.913  0.4117  0.5473 -0.4212
 3511TIP3    H110497   2.935   1.825   3.992  1.0840 -0.5648 -1.1596
 3511TIP3    H210498   2.950   1.837   3.841 -0.1601  1.5836 -1.1620
 3512TIP3   OH210499   3.182   4.482   3.414  0.5343  0.1704 -0.2896
 3512TIP3    H110500   3.142   4.554   3.366 -2.5019 -1.1607 -0.0191
 3512TIP3    H210501   3.236   4.436   3.350 -0.1557  0.7915 -1.3344
 3513TIP3   OH210502   5.108   3.817   2.616 -0.5742 -0.2718  0.3155
 3513TIP3    H110503   5.060   3.837   2.697 -1.3354  0.5529 -0.3188
 3513TIP3    H210504   5.167   3.891   2.603 -0.3947 -0.4404  0.1546
 3514TIP3   OH210505   6.209   5.034   5.191  0.4236 -0.2683  0.3704
 3514TIP3    H110506   6.218   5.081   5.108  0.2276  1.3726  1.2312
 3514TIP3    H210507   6.138   4.971   5.176  0.0101  0.3945 -0.5286
 3515TIP3   OH210508   5.973   1.745   2.333 -0.2026 -0.0964 -0.0048
 3515TIP3    H110509   5.913   1.757   2.406  0.2165  0.6980  0.2216
 3515TIP3    H210510   5.923   1.697   2.268 -0.0929 -2.3601  1.4443
 3516TIP3   OH210511   5.536   6.788   0.290 -0.3146  0.7745  0.3706
 3516TIP3    H110512   5.559   6.750   0.206  1.1129  0.2096  0.9944
 3516TIP3    H210513   5.442   6.772   0.299 -0.1885 -0.4899 -0.4356
 3517TIP3   OH210514   4.097   6.704   4.235  0.0793  0.0824 -0.3011
 3517TIP3    H110515   4.152   6.728   4.161 -0.2809 -0.2048 -0.6680
 3517TIP3    H210516   4.078   6.611   4.222 -0.8237  0.2692 -0.4098
 3518TIP3   OH210517   7.093   2.335   5.172 -0.3797  0.0034 -0.2866
 3518TIP3    H110518   7.166   2.388   5.142 -0.8401  0.8880  0.1310
 3518TIP3    H210519   7.134   2.267   5.226  0.1406  0.5367  0.0081
 3519TIP3   OH210520   4.962   3.787   5.517 -0.0932  0.2910  0.4883
 3519TIP3    H110521   4.970   3.751   5.429 -1.2907  1.0549  0.0518
 3519TIP3    H210522   4.868   3.805   5.528 -0.1623 -0.8550  2.3469
 3520TIP3   OH210523   1.820   1.762   4.221 -0.1616  0.0036 -0.3984
 3520TIP3    H110524   1.913   1.754   4.200 -0.5665 -1.7127 -1.8122
 3520TIP3    H210525   1.817   1.778   4.315  1.5317 -0.6886 -0.1966
 3521TIP3   OH210526   3.652   6.396   3.806  0.2351  0.4967  0.1928
 3521TIP3    H110527   3.668   6.353   3.890 -1.7426  1.2495  1.0049
 3521TIP3    H210528   3.699   6.480   3.813  0.4305  0.3731  0.3773
 3522TIP3   OH210529   3.056   2.638   1.890  0.5352  0.4304 -0.3323
 3522TIP3    H110530   3.052   2.545   1.911 -0.1966 -0.3538 -3.4790
 3522TIP3    H210531   3.131   2.647   1.832 -0.5469  1.3698 -1.6589
 3523TIP3   OH210532   5.010   5.917   1.134  0.0565  0.2792 -0.0038
 3523TIP3    H110533   4.958   5.860   1.191  0.5058  1.2673  1.4439
 3523TIP3    H210534   4.946   5.958   1.076 -0.4431 -0.5410 -0.0562
 3524TIP3   OH210535   3.707   3.491   3.954  0.3315 -0.3008 -0.4628
 3524TIP3    H110536   3.666   3.419   4.002  1.0384 -0.8027 -0.5792
 3524TIP3    H210537   3.715   3.457   3.864  1.7969 -0.5840 -0.2507
 3525TIP3   OH210538   1.990   2.411   1.496  0.2627 -0.4576 -0.2288
 3525TIP3    H110539   2.002   2.317   1.483  1.0783 -0.4605  0.4319
 3525TIP3    H210540   1.899   2.421   1.522  0.3028 -1.1208  0.1679
 3526TIP3   OH210541   0.003   4.007   1.077 -0.1793 -0.3086 -0.0461
 3526TIP3    H110542   0.061   4.004   1.001  0.4067  5.1420 -0.1455
 3526TIP3    H210543   0.034   3.935   1.132  2.5406 -1.4928 -2.8064
 3527TIP3   OH210544   3.368   2.798   2.800 -0.5013 -0.1281  0.5671
 3527TIP3    H110545   3.421   2.784   2.879 -1.0201  0.4369  1.0297
 3527TIP3    H210546   3.365   2.712   2.757  1.3133 -0.0324  0.1853
 3528TIP3   OH210547   5.047   1.107   3.776 -0.1587 -0.1605 -0.2181
 3528TIP3    H110548   5.008   1.181   3.731  0.6652 -0.4838 -1.5512
 3528TIP3    H210549   5.014   1.030   3.729 -1.2146 -0.6769  1.3094
 3529TIP3   OH210550   1.251   3.040   4.270  0.8797 -0.1637  0.2382
 3529TIP3    H110551   1.179   2.978   4.261  0.2863  0.2988  1.6284
 3529TIP3    H210552   1.263   3.075   4.181  0.4428 -1.3734 -0.3238
 3530TIP3   OH210553   2.584   2.181   2.494 -0.0452 -0.6773 -0.3466
 3530TIP3    H110554   2.629   2.097   2.485 -0.2404 -0.9159  0.7926
 3530TIP3    H210555   2.591   2.203   2.587  1.5465  1.4516 -0.8895
 3531TIP3   OH210556   0.295   2.441   0.416 -0.0384  0.5756 -0.2171
 3531TIP3    H110557   0.303   2.353   0.380 -0.3742 -0.4668  2.0774
 3531TIP3    H210558   0.271   2.496   0.341 -1.2939 -1.5374 -1.4605
 3532TIP3   OH210559   3.297   0.121   0.902  0.5064  0.4657 -0.0666
 3532TIP3    H110560   3.352   0.137   0.826  0.7239 -0.0981 -0.0285
 3532TIP3    H210561   3.309   0.028   0.923 -0.2631  0.3909  0.0947
 3533TIP3   OH210562   2.685   0.752   3.372  0.5081 -0.1385  0.5385
 3533TIP3    H110563   2.649   0.839   3.385  0.2397 -0.1694  0.0366
 3533TIP3    H210564   2.776   0.767   3.346  0.0059  0.0907 -1.2599
 3534TIP3   OH210565   1.493   0.460   5.581  0.0095  0.4203 -0.4361
 3534TIP3    H110566   1.493   0.532   5.644 -0.1450 -0.5486  0.6965
 3534TIP3    H210567   1.584   0.431   5.579  0.0634  0.6055 -0.8663
 3535TIP3   OH210568   1.859   6.505   1.712  0.0620  0.5842  0.2403
 3535TIP3    H110569   1.910   6.426   1.733 -0.5420 -0.0771 -0.7024
 3535TIP3    H210570   1.916   6.557   1.657  0.5460  0.9232  1.0445
 3536TIP3   OH210571   6.357   1.707   5.608 -0.5207 -0.3267 -0.4901
 3536TIP3    H110572   6.282   1.670   5.562 -0.5276  0.0065 -0.7499
 3536TIP3    H210573   6.428   1.707   5.543 -0.1556 -1.0947 -0.1046
 3537TIP3   OH210574   0.653   2.309   3.407 -0.0841 -0.3479 -0.1968
 3537TIP3    H110575   0.627   2.346   3.491  3.1097 -1.1596  1.2945
 3537TIP3    H210576   0.601   2.229   3.399 -3.7809  1.9289 -1.3564
 3538TIP3   OH210577   4.156   3.355   5.214  0.4346  0.0482  0.2228
 3538TIP3    H110578   4.164   3.366   5.309  0.5558 -1.1468  0.3637
 3538TIP3    H210579   4.244   3.330   5.185 -0.5078 -4.1647  0.4865
 3539TIP3   OH210580   1.795   3.563   4.375 -0.5991 -0.1060  0.2388
 3539TIP3    H110581   1.756   3.476   4.367 -0.4281 -0.0720 -1.3478
 3539TIP3    H210582   1.846   3.559   4.455 -1.1824 -1.2284  0.5834
 3540TIP3   OH210583   0.882   0.268   5.867 -0.2604  0.4799  0.2395
 3540TIP3    H110584   0.891   0.226   5.781  1.0399 -0.1322  0.6467
 3540TIP3    H210585   0.790   0.256   5.890 -0.3102 -0.5926 -0.4436
 3541TIP3   OH210586   2.634   2.203   0.158  0.0065 -0.1194  0.2116
 3541TIP3    H110587   2.657   2.269   0.223  0.9586  0.7803 -0.9877
 3541TIP3    H210588   2.645   2.120   0.204  1.5407  0.4549  0.9581
 3542TIP3   OH210589   1.439   6.122   0.194  0.0592  0.1655  0.3394
 3542TIP3    H110590   1.460   6.215   0.196  0.0400  0.2079 -0.7667
 3542TIP3    H210591   1.408   6.107   0.104 -2.2911 -0.3878  1.1685
 3543TIP3   OH210592   4.770   4.115   4.934 -0.8421  0.0023 -1.1635
 3543TIP3    H110593   4.699   4.114   4.870 -0.5583 -1.3839 -1.4955
 3543TIP3    H210594   4.748   4.046   4.996  0.0005 -0.1629 -1.0336
 3544TIP3   OH210595   1.087   2.311   1.488  0.2313  0.6338 -0.2184
 3544TIP3    H110596   1.161   2.320   1.427 -0.4138  1.6761 -0.8706
 3544TIP3    H210597   1.012   2.293   1.432  0.1781 -1.9302  0.5301
 3545TIP3   OH210598   5.627   0.407   5.223  0.2944 -0.0505 -0.5204
 3545TIP3    H110599   5.714   0.412   5.184 -0.0460 -0.4559 -1.3493
 3545TIP3    H210600   5.580   0.481   5.186  0.5227  0.6606  0.5660
 3546TIP3   OH210601   1.205   5.232   1.629 -0.3098 -0.1286 -0.4461
 3546TIP3    H110602   1.126   5.188   1.661 -0.4175 -0.6604 -1.4007
 3546TIP3    H210603   1.274   5.202   1.689 -0.9501  1.0325  0.9418
 3547TIP3   OH210604   6.794   0.411   4.760  0.5165  0.0864 -0.3602
 3547TIP3    H110605   6.829   0.500   4.771  0.4015  0.0189  0.6190
 3547TIP3    H210606   6.848   0.373   4.691 -1.2342  1.8258 -2.8465
 3548TIP3   OH210607   0.021   5.346   0.979  0.1927 -0.3369 -0.5784
 3548TIP3    H110608   0.114   5.330   0.960  0.0295 -0.7538 -1.0694
 3548TIP3    H210609   0.017   5.438   1.003  0.5433  0.0586 -1.9226
 3549TIP3   OH210610   3.030   6.471   0.286  0.0217 -0.2479  0.0584
 3549TIP3    H110611   3.086   6.487   0.210 -0.1674 -0.8145 -0.2093
 3549TIP3    H210612   3.088   6.431   0.351  0.7504  2.3966  1.1362
 3550TIP3   OH210613   4.497   4.330   3.178 -0.3336  0.0439  0.0954
 3550TIP3    H110614   4.547   4.266   3.127 -0.7884  1.1408 -1.8353
 3550TIP3    H210615   4.413   4.335   3.132 -0.9257  0.7959  1.2305
 3551TIP3   OH210616   4.572   5.456   1.753 -0.0168  0.1464  0.1711
 3551TIP3    H110617   4.567   5.478   1.846 -0.3643 -2.3824  0.8239
 3551TIP3    H210618   4.656   5.409   1.744 -0.4591 -0.5295 -0.5592
 3552TIP3   OH210619   6.807   1.176   1.405 -0.6698  0.0769  0.5709
 3552TIP3    H110620   6.749   1.109   1.444 -0.8842  0.1835  0.4398
 3552TIP3    H210621   6.847   1.219   1.480 -0.0100 -0.6458  0.6507
 3553TIP3   OH210622   3.063   6.441   3.831 -0.1402 -0.1721 -0.4946
 3553TIP3    H110623   3.006   6.505   3.788  0.6310 -0.0238 -1.3137
 3553TIP3    H210624   3.133   6.493   3.871 -0.0827 -0.4214 -0.2659
 3554TIP3   OH210625   4.918   2.972   0.682 -0.1463  0.3174  0.3958
 3554TIP3    H110626   4.891   2.917   0.609  0.0225 -0.8998  1.2133
 3554TIP3    H210627   4.868   2.939   0.757 -0.3898  1.5972  0.8206
 3555TIP3   OH210628   1.811   2.759   0.527  0.4382  0.0474  0.2072
 3555TIP3    H110629   1.809   2.672   0.568  0.8953  0.0822  0.3124
 3555TIP3    H210630   1.736   2.804   0.564  1.1386  0.2576  1.4285
 3556TIP3   OH210631   3.873   1.176   1.510 -0.1781 -0.0470 -0.3137
 3556TIP3    H110632   3.943   1.241   1.514 -0.9639  0.7623  1.4931
 3556TIP3    H210633   3.793   1.226   1.525 -0.8806 -1.3032  0.2844
 3557TIP3   OH210634   5.559   4.939   2.747  0.3976 -0.1964 -0.0111
 3557TIP3    H110635   5.582   5.001   2.677  0.6577  0.3682  0.5591
 3557TIP3    H210636   5.638   4.887   2.759  1.0120  0.9323  1.1080
 3558TIP3   OH210637   4.440   3.378   3.558 -0.1460 -0.0487 -0.4495
 3558TIP3    H110638   4.506   3.316   3.589 -1.7970 -1.0070  1.3864
 3558TIP3    H210639   4.408   3.340   3.476 -0.1063 -0.8797 -0.0907
 3559TIP3   OH210640   4.826   0.536   3.951 -0.2288  0.3959  0.4017
 3559TIP3    H110641   4.909   0.510   3.910 -0.7087 -1.7625  0.6816
 3559TIP3    H210642   4.790   0.602   3.892  0.5034 -0.4770 -1.0795
 3560TIP3   OH210643   4.286   0.096   5.550  0.3742  0.4286  0.2101
 3560TIP3    H110644   4.285   0.190   5.563 -1.5352  0.6143 -0.9085
 3560TIP3    H210645   4.296   0.085   5.455  0.8676 -0.5139  0.3541
 3561TIP3   OH210646   2.988   3.686   5.261  0.2772 -0.6401  0.2565
 3561TIP3    H110647   3.009   3.655   5.349  0.8425  0.0844  0.3841
 3561TIP3    H210648   2.893   3.672   5.253  0.2489 -0.8673  0.9128
 3562TIP3   OH210649   4.464   4.718   2.375 -0.0324  0.3275  0.2177
 3562TIP3    H110650   4.521   4.745   2.302  0.0633  0.1747  0.2345
 3562TIP3    H210651   4.401   4.789   2.384  0.5770  0.8352  0.6435
 3563TIP3   OH210652   3.336   4.304   5.801 -0.5052 -0.2037  0.2446
 3563TIP3    H110653   3.407   4.239   5.807 -0.2293  0.2333  2.2800
 3563TIP3    H210654   3.261   4.255   5.770  0.1533 -1.1274  0.0737
 3564TIP3   OH210655   3.110   5.295   1.064  0.0994  0.7864  0.3040
 3564TIP3    H110656   3.183   5.340   1.022 -0.0114  1.0248  0.3596
 3564TIP3    H210657   3.070   5.362   1.120 -1.0335  1.0863 -0.8187
 3565TIP3   OH210658   6.707   5.750   3.674 -0.3180  0.3801  0.0372
 3565TIP3    H110659   6.783   5.799   3.642  0.4896 -0.6157  0.3839
 3565TIP3    H210660   6.639   5.816   3.683  0.8038  1.4941  0.6966
 3566TIP3   OH210661   0.145   6.312   4.299 -0.0059  0.4645  0.0603
 3566TIP3    H110662   0.130   6.317   4.205 -0.2684 -0.4582  0.0402
 3566TIP3    H210663   0.237   6.287   4.307  0.7707  3.0827  0.1236
 3567TIP3   OH210664   2.824   0.079   4.072 -0.9001  0.5093  0.1333
 3567TIP3    H110665   2.817   0.028   4.153  0.5143  0.9145  0.5572
 3567TIP3    H210666   2.849   0.015   4.005 -2.1464  0.1604 -0.0116
 3568TIP3   OH210667   1.468   5.072   0.768  0.1384  0.3016  0.1212
 3568TIP3    H110668   1.501   5.139   0.708  0.6556 -0.3921 -0.3900
 3568TIP3    H210669   1.427   5.121   0.839 -0.1015  1.1461 -0.5825
 3569TIP3   OH210670   6.296   4.154   1.934  0.1727  0.1337  0.1429
 3569TIP3    H110671   6.345   4.236   1.933  1.0266 -0.3633 -0.8616
 3569TIP3    H210672   6.317   4.113   1.850 -2.8047  0.3680 -0.8245
 3570TIP3   OH210673   3.935   0.739   5.588  0.2951 -0.0674  0.3571
 3570TIP3    H110674   3.915   0.681   5.514 -1.0146 -1.6297  1.8704
 3570TIP3    H210675   3.851   0.777   5.613  0.7000  0.3279  1.1559
 3571TIP3   OH210676   6.798   0.314   5.279 -0.1848 -0.2903  0.1911
 3571TIP3    H110677   6.859   0.275   5.217  0.5210 -0.2756  0.8627
 3571TIP3    H210678   6.853   0.352   5.347 -0.8969  0.8924  0.1414
 3572TIP3   OH210679   0.567   1.516   3.902  0.4088  0.5287  0.6196
 3572TIP3    H110680   0.568   1.443   3.964  0.5863 -0.7924 -0.8785
 3572TIP3    H210681   0.489   1.566   3.926 -1.9019 -2.2204 -0.5391
 3573TIP3   OH210682   3.719   6.677   0.773  0.3924  0.1232 -0.0059
 3573TIP3    H110683   3.717   6.658   0.867  2.4967 -1.2528 -0.1800
 3573TIP3    H210684   3.794   6.736   0.762  0.6651 -0.3632 -0.8969
 3574TIP3   OH210685   3.682   1.639   4.895  0.1816  0.5431  0.4531
 3574TIP3    H110686   3.742   1.598   4.833  2.0677 -0.2373  2.6633
 3574TIP3    H210687   3.651   1.567   4.951  0.6379  1.5368  2.0631
 3575TIP3   OH210688   2.005   2.059   4.448 -0.5682  0.1302  0.1929
 3575TIP3    H110689   2.016   2.151   4.469 -0.0485 -0.3697  2.2808
 3575TIP3    H210690   1.933   2.029   4.504 -0.7022 -0.7500 -0.4201
 3576TIP3   OH210691   0.555   5.230   1.537 -0.1507 -0.1979 -0.1248
 3576TIP3    H110692   0.518   5.173   1.470  0.5494  0.5615 -1.1864
 3576TIP3    H210693   0.479   5.265   1.584 -0.6577 -0.4692 -0.7341
 3577TIP3   OH210694   1.072   6.015   5.690  0.0605 -0.2790  0.3305
 3577TIP3    H110695   1.125   6.086   5.653 -0.1975 -0.6138 -0.7335
 3577TIP3    H210696   1.133   5.964   5.743  0.8091 -0.5994 -0.7882
 3578TIP3   OH210697   3.517   1.628   0.680 -0.2448  0.3590  0.5804
 3578TIP3    H110698   3.589   1.615   0.742 -0.5677 -0.2172  0.8409
 3578TIP3    H210699   3.530   1.718   0.648  0.7346  0.1787  0.4266
 3579TIP3   OH210700   4.169   4.247   5.452 -0.4602 -0.1621 -0.3986
 3579TIP3    H110701   4.209   4.169   5.490  1.1227  1.0448  0.5133
 3579TIP3    H210702   4.075   4.231   5.459 -0.1736 -1.8411  0.0508
 3580TIP3   OH210703   2.942   3.415   3.374  0.6503 -0.1291 -0.6081
 3580TIP3    H110704   2.884   3.344   3.400 -3.5330  3.4554  1.3200
 3580TIP3    H210705   2.980   3.447   3.456  0.9287  0.9613 -1.1299
 3581TIP3   OH210706   5.353   0.199   4.885 -0.2402  0.0951 -0.2211
 3581TIP3    H110707   5.355   0.210   4.980  0.0048 -3.2955  0.2947
 3581TIP3    H210708   5.261   0.210   4.862 -0.2491  1.3207  0.3051
 3582TIP3   OH210709   4.782   3.434   5.741  0.0547  0.0839  0.3783
 3582TIP3    H110710   4.702   3.472   5.777 -1.2036 -2.7504  0.8607
 3582TIP3    H210711   4.848   3.450   5.808 -0.8430 -0.0442  1.3208
 3583TIP3   OH210712   7.102   5.893   3.062 -0.0097  0.1087 -0.1872
 3583TIP3    H110713   7.062   5.950   3.128  0.1788  0.2734 -0.2159
 3583TIP3    H210714   7.126   5.952   2.991 -0.3306 -0.0858 -0.4600
 3584TIP3   OH210715   2.570   1.534   0.873  0.0935 -0.0426  0.5042
 3584TIP3    H110716   2.569   1.484   0.955 -0.8221 -0.3264  0.3400
 3584TIP3    H210717   2.556   1.467   0.805 -0.1000  0.3038  0.2008
 3585TIP3   OH210718   5.557   1.630   0.804 -0.5973 -0.5274  0.3328
 3585TIP3    H110719   5.617   1.699   0.777 -0.8223 -0.1101  0.8932
 3585TIP3    H210720   5.470   1.662   0.780 -0.5648 -1.5849 -1.4728
 3586TIP3   OH210721   0.621   5.362   0.358  0.2884  0.9112  0.1097
 3586TIP3    H110722   0.629   5.330   0.448 -1.3714  1.5985  0.5448
 3586TIP3    H210723   0.553   5.429   0.363 -0.1425  0.6569 -1.7266
 3587TIP3   OH210724   3.184   6.060   1.858 -0.1565 -0.7710 -0.8397
 3587TIP3    H110725   3.271   6.095   1.878 -0.7972  0.7036 -0.4689
 3587TIP3    H210726   3.138   6.062   1.942 -1.0266 -0.0535 -1.3097
 3588TIP3   OH210727   1.369   1.507   1.308  0.4915  0.6494 -0.2438
 3588TIP3    H110728   1.365   1.422   1.352  0.1639  0.1497 -1.2074
 3588TIP3    H210729   1.280   1.542   1.316  0.7729  1.1844  0.6710
 3589TIP3   OH210730   1.003   6.605   0.444  0.2181  0.1553  0.5584
 3589TIP3    H110731   1.016   6.612   0.349  0.8920 -0.1160  0.6273
 3589TIP3    H210732   1.084   6.638   0.482 -0.3369  0.9764  1.0680
 3590TIP3   OH210733   3.162   6.254   4.401 -0.4771 -0.1944  0.7123
 3590TIP3    H110734   3.131   6.220   4.317  0.3255  1.1116 -0.1459
 3590TIP3    H210735   3.095   6.227   4.464 -1.3243 -0.8092 -0.4203
 3591TIP3   OH210736   5.176   1.779   1.351 -0.0576  0.3631  0.4276
 3591TIP3    H110737   5.193   1.861   1.397 -1.6254  0.4312  0.9425
 3591TIP3    H210738   5.166   1.714   1.420 -0.7928  0.1415  0.1245
 3592TIP3   OH210739   1.014   6.598   3.263  0.0318 -0.2835 -0.0319
 3592TIP3    H110740   1.046   6.622   3.176 -0.0772 -0.0076  0.0020
 3592TIP3    H210741   0.922   6.576   3.249 -0.1089  0.2070  0.0847
 3593TIP3   OH210742   6.452   4.052   2.145  0.3166  0.3238 -0.4123
 3593TIP3    H110743   6.470   4.107   2.221 -0.9626  0.2002 -0.0013
 3593TIP3    H210744   6.367   4.083   2.112  0.3994 -0.2664 -1.2094
 3594TIP3   OH210745   0.518   3.303   3.445  0.0229 -0.4737  0.0759
 3594TIP3    H110746   0.488   3.395   3.443 -1.3386 -0.8776  0.5883
 3594TIP3    H210747   0.526   3.279   3.353 -0.1166  0.0093 -0.0692
 3595TIP3   OH210748   4.999   6.238   0.024 -0.1561  0.2549 -0.2111
 3595TIP3    H110749   4.939   6.311   0.036 -0.5650 -0.3478  1.6303
 3595TIP3    H210750   5.000   6.193   0.108  3.3427  0.5798  0.0962
 3596TIP3   OH210751   3.253   4.274   2.051  0.1894 -0.1118  0.1461
 3596TIP3    H110752   3.234   4.271   2.145  0.3047 -0.2844  0.1659
 3596TIP3    H210753   3.336   4.226   2.043  0.5315  0.4914  0.0450
 3597TIP3   OH210754   5.672   4.948   5.233 -0.1573 -0.1176 -0.1332
 3597TIP3    H110755   5.700   4.951   5.324 -0.6873  1.6670  0.0118
 3597TIP3    H210756   5.581   4.976   5.235  0.0889  0.8287 -1.2976
 3598TIP3   OH210757   1.992   2.818   1.972 -0.0192  0.5505  0.4584
 3598TIP3    H110758   2.039   2.771   2.040  1.1253  0.8729 -0.0969
 3598TIP3    H210759   2.056   2.830   1.902 -1.1330  0.3334 -0.6325
 3599TIP3   OH210760   2.725   1.904   0.532 -0.2545 -0.3224 -0.3579
 3599TIP3    H110761   2.642   1.937   0.495  0.6564  1.0897 -1.2391
 3599TIP3    H210762   2.712   1.809   0.537 -1.9331 -0.1403 -0.4422
 3600TIP3   OH210763   2.882   5.773   4.363 -1.1588 -0.1587 -0.8069
 3600TIP3    H110764   2.844   5.813   4.442 -1.0891  1.4199 -1.5375
 3600TIP3    H210765   2.974   5.797   4.367 -1.1049 -0.3006 -1.2326
 3601TIP3   OH210766   0.005   4.560   3.241 -0.1481 -0.3933  0.2132
 3601TIP3    H110767   0.094   4.555   3.275  1.0814 -1.8780 -2.8154
 3601TIP3    H210768  -0.050   4.528   3.313  1.9098 -0.8686  1.6603
 3602TIP3   OH210769   5.813   3.569   0.979 -0.1184  0.5422 -0.0079
 3602TIP3    H110770   5.736   3.582   0.923 -0.7621 -0.7366  0.5550
 3602TIP3    H210771   5.887   3.595   0.924 -1.0191  3.3301 -0.0458
 3603TIP3   OH210772   3.910   1.192   2.607 -0.4194 -0.6129  0.6908
 3603TIP3    H110773   3.980   1.130   2.586  0.1932  0.1795  0.3452
 3603TIP3    H210774   3.829   1.143   2.592  0.0286 -0.9599 -0.7560
 3604TIP3   OH210775   5.569   0.313   3.636  0.4854 -0.3212 -0.1162
 3604TIP3    H110776   5.660   0.330   3.661 -0.1691  0.4853  1.9621
 3604TIP3    H210777   5.571   0.304   3.541  2.6713  0.0621 -0.1533
 3605TIP3   OH210778   6.790   4.996   3.565  0.0705  0.7379 -0.3320
 3605TIP3    H110779   6.754   5.052   3.497  0.9833  0.9871 -0.6321
 3605TIP3    H210780   6.759   5.035   3.647 -1.5236  0.0888 -0.5997
 3606TIP3   OH210781   5.298   5.820   2.666  0.6438  0.7993  0.2880
 3606TIP3    H110782   5.306   5.744   2.724  1.4454  0.0156 -0.8170
 3606TIP3    H210783   5.210   5.813   2.629  0.3983  0.8988  0.8478
 3607TIP3   OH210784   2.108   0.588   3.769 -0.1297  0.2454 -0.1362
 3607TIP3    H110785   2.034   0.617   3.717 -0.0711 -0.8967 -0.8936
 3607TIP3    H210786   2.165   0.542   3.707  0.6644  0.1365  0.6443
 3608TIP3   OH210787   3.199   1.149   5.053  0.1843 -0.1597  0.1635
 3608TIP3    H110788   3.137   1.163   4.981 -0.8143 -0.0850  1.0231
 3608TIP3    H210789   3.232   1.236   5.074 -2.2325  0.3805  2.1461
 3609TIP3   OH210790   1.890   3.542   1.756  0.1651 -0.4628 -0.3344
 3609TIP3    H110791   1.829   3.544   1.830  0.6061 -0.8007  0.0467
 3609TIP3    H210792   1.967   3.497   1.790 -0.3819 -2.4537 -1.5688
 3610TIP3   OH210793   2.411   4.828   3.585 -0.5204 -0.3177  0.2256
 3610TIP3    H110794   2.336   4.829   3.527  0.1785 -1.6136 -0.7670
 3610TIP3    H210795   2.480   4.784   3.535  1.5854  2.5845  0.2963
 3611TIP3   OH210796   2.801   0.660   5.348 -0.6741  0.5781  0.2347
 3611TIP3    H110797   2.767   0.572   5.364  0.1077  0.2240 -0.0175
 3611TIP3    H210798   2.843   0.654   5.262 -0.9554  1.3038  0.0374
 3612TIP3   OH210799   6.631   1.802   3.245 -0.3625 -0.2591 -0.1278
 3612TIP3    H110800   6.715   1.845   3.229 -0.6048  0.1944 -0.1635
 3612TIP3    H210801   6.584   1.859   3.305 -0.4959 -0.7035  0.2024
 3613TIP3   OH210802   0.448   1.816   2.499 -0.0846 -0.3779 -0.3107
 3613TIP3    H110803   0.508   1.800   2.426  0.4775  0.2726 -0.0051
 3613TIP3    H210804   0.432   1.910   2.497 -0.2078 -0.3786  0.2927
 3614TIP3   OH210805   4.463   5.482   2.908 -0.0185 -0.6044  0.2269
 3614TIP3    H110806   4.388   5.518   2.860 -0.4228  0.5608  1.6400
 3614TIP3    H210807   4.459   5.526   2.993  1.3717 -1.6994  0.8837
 3615TIP3   OH210808   4.757   6.764   2.819 -0.1337 -0.2587  0.0981
 3615TIP3    H110809   4.746   6.839   2.760  1.0860  0.3761  0.6497
 3615TIP3    H210810   4.741   6.687   2.764  0.7612  0.3303 -1.0074
 3616TIP3   OH210811   4.606   1.496   5.789  0.0406 -0.3048 -0.5748
 3616TIP3    H110812   4.568   1.425   5.841  1.4632 -1.0756 -0.5187
 3616TIP3    H210813   4.608   1.462   5.699  0.0354 -0.0369 -0.6786
 3617TIP3   OH210814   2.739   0.945   4.659 -0.6711 -0.3108  0.0932
 3617TIP3    H110815   2.788   1.024   4.683 -2.9541  1.5375 -0.8761
 3617TIP3    H210816   2.806   0.880   4.638  1.3272  1.6034  0.2320
 3618TIP3   OH210817   5.859   1.561   2.593  0.4878 -0.5129 -0.1215
 3618TIP3    H110818   5.950   1.533   2.578  0.5285 -0.6284  0.2998
 3618TIP3    H210819   5.865   1.617   2.671  0.3449  0.3455 -0.7173
 3619TIP3   OH210820   6.492   2.941   5.410 -0.0066  0.0225  0.2301
 3619TIP3    H110821   6.449   2.910   5.489  0.1246  1.4669  0.9063
 3619TIP3    H210822   6.584   2.951   5.435  0.4419 -1.4100 -0.7058
 3620TIP3   OH210823   5.228   2.866   5.688  0.3006  0.0303  0.4758
 3620TIP3    H110824   5.245   2.812   5.611 -1.8623  0.7382 -0.5840
 3620TIP3    H210825   5.314   2.883   5.725  1.3300 -1.0919 -1.2653
 3621TIP3   OH210826   3.903   2.175   1.681  0.6383 -0.2423 -0.2308
 3621TIP3    H110827   3.915   2.188   1.587 -0.6597  1.1755 -0.2348
 3621TIP3    H210828   3.979   2.218   1.720 -0.2095  1.6315 -0.5478
 3622TIP3   OH210829   1.710   5.326   1.241 -0.2815 -0.3108 -0.4049
 3622TIP3    H110830   1.686   5.335   1.148 -0.5385  0.4689 -0.2733
 3622TIP3    H210831   1.710   5.416   1.274  1.2922 -0.4260 -0.0078
 3623TIP3   OH210832   6.931   3.857   0.672 -0.2436 -1.0010  0.3210
 3623TIP3    H110833   6.954   3.948   0.693 -1.1284 -1.0657  1.7202
 3623TIP3    H210834   6.926   3.814   0.757  0.0016 -2.3378 -0.3168
 3624TIP3   OH210835   6.505   1.614   4.170 -0.0686 -0.2673 -0.1230
 3624TIP3    H110836   6.523   1.521   4.159  1.2336 -0.0462 -0.0583
 3624TIP3    H210837   6.541   1.655   4.091 -0.3537  0.2099 -0.0095
 3625TIP3   OH210838   1.692   5.758   2.719 -0.4316  0.2342  0.5297
 3625TIP3    H110839   1.659   5.675   2.752 -0.5583  0.2564  0.4595
 3625TIP3    H210840   1.770   5.735   2.669 -0.0447  0.2391  1.1314
 3626TIP3   OH210841   1.770   2.727   3.757 -0.1381 -0.3261 -0.1617
 3626TIP3    H110842   1.840   2.790   3.742  0.4138 -0.9247 -0.1299
 3626TIP3    H210843   1.747   2.696   3.669 -0.4223 -0.0674 -0.1792
 3627TIP3   OH210844   6.962   3.626   4.220 -0.2600  0.7947 -0.1431
 3627TIP3    H110845   6.983   3.700   4.278  0.4735  0.0783  0.5432
 3627TIP3    H210846   7.005   3.648   4.137 -0.4400  1.3513 -0.0924
 3628TIP3   OH210847   2.236   2.713   2.030 -0.1119  0.1722  0.0279
 3628TIP3    H110848   2.314   2.766   2.015 -0.5140  1.3279  1.6870
 3628TIP3    H210849   2.197   2.702   1.943  1.4206  0.2812 -0.7072
 3629TIP3   OH210850   2.985   5.349   1.565  0.7529 -0.1371  0.0694
 3629TIP3    H110851   3.051   5.419   1.561  1.8326 -1.1538 -0.3518
 3629TIP3    H210852   3.017   5.282   1.505 -0.1213 -1.1201  0.6657
 3630TIP3   OH210853   7.011   6.426   4.641  0.1024  0.2856  0.3582
 3630TIP3    H110854   7.016   6.495   4.574 -0.5911 -0.1390 -0.1409
 3630TIP3    H210855   6.948   6.363   4.606  2.2275 -1.6837 -0.1885
 3631TIP3   OH210856   6.137   1.320   2.226  0.2025 -0.0384 -0.7386
 3631TIP3    H110857   6.171   1.232   2.241  1.5027  0.3821 -1.0684
 3631TIP3    H210858   6.143   1.332   2.131  0.4020  0.5319 -0.6585
 3632TIP3   OH210859   7.008   1.034   1.183 -0.3032 -0.1218  0.4233
 3632TIP3    H110860   6.954   1.068   1.255  0.5830  1.0419  0.5835
 3632TIP3    H210861   7.064   0.968   1.225  1.9302  2.2464  1.4345
 3633TIP3   OH210862   5.193   4.464   3.365  0.3014 -0.2446  0.0437
 3633TIP3    H110863   5.256   4.510   3.420  0.9028  0.0232 -0.8391
 3633TIP3    H210864   5.246   4.401   3.316  0.6288  2.3765 -3.4251
 3634TIP3   OH210865   5.419   4.637   5.093  0.1956  0.2656  0.3805
 3634TIP3    H110866   5.426   4.554   5.140  1.4914  0.3519  0.3516
 3634TIP3    H210867   5.399   4.612   5.003 -0.4276  0.0335  0.5776
 3635TIP3   OH210868   0.195   1.440   3.614 -0.4598  0.0693  0.0362
 3635TIP3    H110869   0.153   1.374   3.670  1.3971 -2.0555 -0.8802
 3635TIP3    H210870   0.141   1.518   3.624 -2.0040 -1.1507  2.2979
 3636TIP3   OH210871   0.467   1.078   3.578 -0.5449  0.3263 -0.0426
 3636TIP3    H110872   0.543   1.101   3.631 -0.7609  0.7302  0.1016
 3636TIP3    H210873   0.415   1.020   3.634  0.0435 -0.5915 -0.4377
 3637TIP3   OH210874   5.064   1.922   0.426 -0.6517  0.5471  0.1459
 3637TIP3    H110875   5.109   1.941   0.508 -1.0655 -0.4078  0.6064
 3637TIP3    H210876   5.116   1.851   0.386 -2.7556 -2.0422  1.6534
 3638TIP3   OH210877   4.869   2.783   1.138 -0.4786  0.2631  0.2833
 3638TIP3    H110878   4.838   2.697   1.165  0.5154 -0.0818  0.3251
 3638TIP3    H210879   4.857   2.838   1.216  0.8561 -0.3447  0.9458
 3639TIP3   OH210880   1.881   5.647   5.067 -0.4654  0.1027  0.5313
 3639TIP3    H110881   1.857   5.705   5.139 -0.4136  0.4380  0.2789
 3639TIP3    H210882   1.902   5.705   4.995 -0.9360 -0.2423  0.1100
 3640TIP3   OH210883   2.419   5.860   5.465  0.4430  0.0854  0.0574
 3640TIP3    H110884   2.329   5.877   5.435  0.8915  1.3997 -0.6357
 3640TIP3    H210885   2.446   5.943   5.504  2.0474  0.3620 -1.5441
 3641TIP3   OH210886   2.752   0.989   4.997  0.3585  0.9167  0.2867
 3641TIP3    H110887   2.777   1.057   5.060  1.2527 -0.5453  1.6055
 3641TIP3    H210888   2.835   0.966   4.953  0.4512 -0.5565  1.1708
 3642TIP3   OH210889   4.836   4.795   4.087 -0.1380  0.3645  0.0157
 3642TIP3    H110890   4.807   4.871   4.138 -3.5642  0.8019 -2.2012
 3642TIP3    H210891   4.802   4.720   4.135 -1.6938  0.6661 -0.5301
 3643TIP3   OH210892   3.781   5.773   5.064  0.5156 -0.4174  0.2678
 3643TIP3    H110893   3.748   5.837   5.000 -0.4406 -3.2674 -2.3611
 3643TIP3    H210894   3.853   5.818   5.108  1.0219  1.8992 -2.5981
 3644TIP3   OH210895   2.318   2.185   0.937 -0.4793  0.2043 -0.5504
 3644TIP3    H110896   2.278   2.246   0.999 -0.4940 -0.3474  0.0030
 3644TIP3    H210897   2.272   2.201   0.854 -0.7770  0.6385 -0.3052
 3645TIP3   OH210898   0.163   0.620   3.266  0.1175  0.0390  0.3960
 3645TIP3    H110899   0.237   0.680   3.266 -0.4482  0.8117  2.5400
 3645TIP3    H210900   0.139   0.611   3.358 -2.4504 -0.1751 -0.2269
 3646TIP3   OH210901   7.136   0.879   4.782 -0.1119  0.2489 -0.2137
 3646TIP3    H110902   7.155   0.792   4.819 -0.6423  0.8012  1.4523
 3646TIP3    H210903   7.067   0.863   4.718 -0.0670 -0.5822 -0.0731
 3647TIP3   OH210904   5.620   0.892   0.944  0.0217  0.2616 -0.2771
 3647TIP3    H110905   5.593   0.976   0.907 -1.2165 -0.5943 -1.4079
 3647TIP3    H210906   5.680   0.915   1.015  1.2456  2.0333 -1.7977
 3648TIP3   OH210907   2.412   0.800   0.712  0.9338  0.2954 -0.3976
 3648TIP3    H110908   2.500   0.826   0.738  0.6262 -0.3598  1.4722
 3648TIP3    H210909   2.401   0.712   0.748 -0.9561  0.8962  0.6300
 3649TIP3   OH210910   2.166   0.902   3.415  0.0954 -0.1731  0.2967
 3649TIP3    H110911   2.150   0.949   3.333 -0.4299 -1.5880 -0.4571
 3649TIP3    H210912   2.245   0.850   3.397  0.4139  0.0718  0.9579
 3650TIP3   OH210913   0.799   1.267   5.147  0.2374  0.2095  0.0793
 3650TIP3    H110914   0.855   1.332   5.104  1.0875 -0.6478 -0.1317
 3650TIP3    H210915   0.782   1.305   5.234  0.7494  0.7065 -0.0245
 3651TIP3   OH210916   7.161   6.276   0.705 -0.2057 -0.1748 -0.2853
 3651TIP3    H110917   7.138   6.369   0.710 -1.3879 -0.5265  1.2428
 3651TIP3    H210918   7.226   6.272   0.635 -1.7660  1.4774 -1.9434
 3652TIP3   OH210919   4.094   1.300   2.216  0.0790  0.7849 -0.6296
 3652TIP3    H110920   4.022   1.300   2.153 -1.2056  2.7908  0.7258
 3652TIP3    H210921   4.143   1.220   2.197 -3.0429 -1.1968 -0.9926
 3653TIP3   OH210922   0.407   0.133   0.842  0.3388  0.0943 -0.3407
 3653TIP3    H110923   0.370   0.060   0.791 -0.0806 -0.6619  0.9827
 3653TIP3    H210924   0.336   0.197   0.848  0.7119  0.6386 -1.5178
 3654TIP3   OH210925   4.121   6.271   3.557  0.4498  0.2215 -0.0878
 3654TIP3    H110926   4.195   6.331   3.552 -0.4631  1.7532  2.8251
 3654TIP3    H210927   4.048   6.321   3.520  0.3964 -0.5443 -1.0792
 3655TIP3   OH210928   1.713   2.184   2.312  0.8321  0.5244  0.0393
 3655TIP3    H110929   1.790   2.204   2.366  2.1661  0.6458 -1.8078
 3655TIP3    H210930   1.674   2.107   2.354  2.1235  0.2925  0.8815
 3656TIP3   OH210931   0.899   1.820   0.555  0.0911  0.8585  0.1406
 3656TIP3    H110932   0.881   1.890   0.617 -1.0268  1.1038 -0.4365
 3656TIP3    H210933   0.826   1.759   0.565  1.4669 -0.7215  1.2528
 3657TIP3   OH210934   0.441   6.606   1.158 -0.0194  0.9074 -0.3170
 3657TIP3    H110935   0.489   6.673   1.208  2.1810  2.7707 -4.4367
 3657TIP3    H210936   0.365   6.652   1.124 -0.6768  0.0931  0.0114
 3658TIP3   OH210937   2.855   4.112   1.519 -0.7467 -0.0327  0.2678
 3658TIP3    H110938   2.791   4.112   1.590  1.0680  0.2431  2.0088
 3658TIP3    H210939   2.864   4.203   1.494  0.4761  0.2332  1.5409
 3659TIP3   OH210940   4.811   5.058   4.717  0.4778 -0.0079  0.4678
 3659TIP3    H110941   4.729   5.060   4.767  0.3059 -0.6678  0.2229
 3659TIP3    H210942   4.818   4.968   4.687  0.4497  0.4387 -0.9404
 3660TIP3   OH210943   4.034   2.447   2.753 -0.3747  0.2109 -0.3979
 3660TIP3    H110944   4.066   2.494   2.676  0.9230 -1.0024 -0.6320
 3660TIP3    H210945   3.950   2.409   2.725 -0.9938  1.5723 -0.4825
 3661TIP3   OH210946   3.221   1.632   0.754  0.1161 -0.1298  0.1688
 3661TIP3    H110947   3.170   1.700   0.709 -0.5560 -0.6649  0.1065
 3661TIP3    H210948   3.311   1.651   0.730 -0.1112  0.4210 -0.2905
 3662TIP3   OH210949   6.900   0.735   4.421 -0.2086  0.1798 -0.2694
 3662TIP3    H110950   6.828   0.739   4.358 -3.0956 -1.0783  2.6699
 3662TIP3    H210951   6.927   0.643   4.421 -2.6974 -0.7073  2.6186
 3663TIP3   OH210952   6.303   6.614   0.872  0.0245  0.7227 -0.6075
 3663TIP3    H110953   6.298   6.700   0.914  4.1900  1.1247 -0.5080
 3663TIP3    H210954   6.290   6.552   0.944 -1.8140  1.1978 -0.4734
 3664TIP3   OH210955   0.766   4.270   4.111 -0.0971  0.4158  0.2397
 3664TIP3    H110956   0.735   4.361   4.120  0.1759  0.3571  2.0393
 3664TIP3    H210957   0.831   4.275   4.041 -0.2291  1.5744  0.1655
 3665TIP3   OH210958   0.018   4.226   1.253  0.2907  0.4191  0.3013
 3665TIP3    H110959  -0.009   4.187   1.336  1.9139 -0.8496  0.2853
 3665TIP3    H210960   0.017   4.152   1.191 -1.6449  1.4810 -1.0437
 3666TIP3   OH210961   2.746   2.848   3.403  0.3642 -0.5438 -0.1681
 3666TIP3    H110962   2.828   2.857   3.355  0.8275  0.7716  0.7958
 3666TIP3    H210963   2.678   2.869   3.339  0.7592 -1.6441 -0.9744
 3667TIP3   OH210964   5.896   3.167   4.637  0.3851  0.2818 -0.3847
 3667TIP3    H110965   5.924   3.212   4.717 -1.0998  2.6296 -1.0811
 3667TIP3    H210966   5.819   3.216   4.608 -0.2796 -1.7167 -2.2052
 3668TIP3   OH210967   3.432   0.891   5.507  0.3422 -0.1462 -0.5468
 3668TIP3    H110968   3.431   0.986   5.519  0.5634 -0.0742 -1.0450
 3668TIP3    H210969   3.348   0.861   5.542  1.3091 -0.0922  2.0220
 3669TIP3   OH210970   0.770   0.338   2.195  0.3833 -0.4674  0.4527
 3669TIP3    H110971   0.758   0.430   2.171 -0.9409 -0.8274 -0.4019
 3669TIP3    H210972   0.804   0.297   2.115 -0.0901 -0.9174  0.4769
 3670TIP3   OH210973   1.881   2.402   3.714 -0.0518  0.3285 -0.1949
 3670TIP3    H110974   1.833   2.477   3.750 -1.6584 -0.7122 -0.0491
 3670TIP3    H210975   1.835   2.325   3.749 -0.4828 -0.7381 -2.8247
 3671TIP3   OH210976   0.326   6.354   2.450  0.2991 -0.7978 -0.5838
 3671TIP3    H110977   0.419   6.364   2.433  0.0128  0.9901 -1.2888
 3671TIP3    H210978   0.306   6.419   2.517 -0.3869 -1.3492 -0.2396
 3672TIP3   OH210979   6.617   5.069   5.139  0.7547  0.0161 -0.2862
 3672TIP3    H110980   6.678   5.035   5.073  1.7194 -0.1556  0.6696
 3672TIP3    H210981   6.546   5.005   5.142 -0.0824  0.7614 -2.1967
 3673TIP3   OH210982   6.057   1.393   3.964 -0.3704  0.1814  0.2162
 3673TIP3    H110983   6.066   1.303   3.934 -3.1367  0.1931 -1.0357
 3673TIP3    H210984   6.115   1.400   4.039 -1.2742 -3.1365  1.3926
 3674TIP3   OH210985   5.526   3.940   1.254  0.2373 -0.5296 -0.0723
 3674TIP3    H110986   5.608   3.914   1.297 -1.2674 -2.4337  1.8444
 3674TIP3    H210987   5.467   3.961   1.326 -0.7319  1.8184 -1.4414
 3675TIP3   OH210988   6.484   3.383   1.848 -0.2721  0.0516  0.8498
 3675TIP3    H110989   6.512   3.463   1.803 -0.8047  0.4733  1.2430
 3675TIP3    H210990   6.416   3.346   1.792  0.6896 -0.7017  0.1461
 3676TIP3   OH210991   1.528   0.659   4.291 -0.3309  0.0708  0.7300
 3676TIP3    H110992   1.485   0.725   4.237 -0.6048 -0.9410 -0.3172
 3676TIP3    H210993   1.590   0.709   4.345  0.6315  1.0082 -1.1673
 3677TIP3   OH210994   3.107   4.010   2.834 -0.1416 -0.0021  0.1110
 3677TIP3    H110995   3.061   3.960   2.902 -0.2090  0.4283  0.3809
 3677TIP3    H210996   3.197   3.978   2.838 -0.5069 -1.2698 -0.8045
 3678TIP3   OH210997   4.125   3.723   4.410  0.3606 -0.0283  0.5223
 3678TIP3    H110998   4.063   3.658   4.376 -0.1910  0.6691  0.1673
 3678TIP3    H210999   4.091   3.746   4.496 -0.0875  0.6156  0.1825
 3679TIP3   OH211000   2.088   3.304   4.973 -0.2941  0.3782  1.1458
 3679TIP3    H111001   2.093   3.237   4.905  2.2870  1.5175  0.0522
 3679TIP3    H211002   2.048   3.260   5.048 -0.6821 -1.7163 -0.2059
 3680TIP3   OH211003   1.068   4.151   5.679 -0.8045  0.4763  0.0245
 3680TIP3    H111004   1.143   4.181   5.732 -0.0215 -0.4230 -0.5350
 3680TIP3    H211005   0.996   4.146   5.742 -0.1866  0.5453  0.7696
 3681TIP3   OH211006   1.978   6.684   1.279  0.7766  0.7443  0.2892
 3681TIP3    H111007   2.053   6.641   1.238  1.6674  1.6301  0.9521
 3681TIP3    H211008   1.916   6.698   1.206  1.2918  0.1021 -0.2829
 3682TIP3   OH211009   2.048   3.891   3.572  0.3344  0.1618 -0.2227
 3682TIP3    H111010   1.964   3.905   3.529  0.6563 -0.2853 -1.0344
 3682TIP3    H211011   2.039   3.932   3.658  0.0854  2.2012 -1.1645
 3683TIP3   OH211012   3.654   6.066   4.692 -0.5193  0.1195 -0.4777
 3683TIP3    H111013   3.651   6.120   4.613  0.9173 -1.0971 -1.4317
 3683TIP3    H211014   3.594   5.994   4.674  1.3634 -1.2971 -1.4266
 3684TIP3   OH211015   6.771   0.343   3.800  0.6344  0.1163 -0.2054
 3684TIP3    H111016   6.713   0.366   3.727 -1.0746  1.3782  1.4795
 3684TIP3    H211017   6.857   0.374   3.772  0.0408  0.5030 -1.7118
 3685TIP3   OH211018   1.932   3.518   5.221 -0.0942  0.2478  0.1167
 3685TIP3    H111019   1.947   3.437   5.270  2.3137  0.2589 -0.4738
 3685TIP3    H211020   1.979   3.585   5.270 -2.1603  1.3933  0.6627
 3686TIP3   OH211021   3.370   3.456   5.649  0.0218 -0.3703  0.3160
 3686TIP3    H111022   3.292   3.428   5.697  0.8490 -1.3115  1.1801
 3686TIP3    H211023   3.420   3.375   5.637  0.7211  0.1666 -0.5003
 3687TIP3   OH211024   1.788   5.558   4.202 -0.3347  0.5879  0.1222
 3687TIP3    H111025   1.729   5.558   4.278 -0.7304 -1.3272 -0.1523
 3687TIP3    H211026   1.730   5.547   4.127  0.2387  0.3348 -0.2863
 3688TIP3   OH211027   4.950   2.168   2.081  0.2438  0.0085 -0.0913
 3688TIP3    H111028   4.997   2.134   2.157 -0.5930  0.3477  0.5967
 3688TIP3    H211029   5.018   2.191   2.018  0.8662 -2.3582 -0.3505
 3689TIP3   OH211030   3.493   2.457   1.496 -0.1884 -0.2448  0.6928
 3689TIP3    H111031   3.528   2.375   1.462  0.3866  0.1167  0.4015
 3689TIP3    H211032   3.460   2.504   1.419 -2.5720 -1.1289  1.0789
 3690TIP3   OH211033   1.778   5.670   4.501  0.2054  0.0245 -0.2418
 3690TIP3    H111034   1.814   5.582   4.487  0.4679 -0.1158  1.0996
 3690TIP3    H211035   1.827   5.703   4.577 -1.5470  0.3778  0.7808
 3691TIP3   OH211036   5.953   4.727   5.634 -0.1123  0.0132 -0.1039
 3691TIP3    H111037   5.866   4.757   5.661  0.4684  2.3410 -0.5251
 3691TIP3    H211038   5.957   4.746   5.540  0.5212 -0.9958 -0.2982
 3692TIP3   OH211039   4.092   2.985   5.840  0.1628 -0.3945  0.0505
 3692TIP3    H111040   4.034   2.910   5.828 -3.3369  1.9793  0.7593
 3692TIP3    H211041   4.037   3.061   5.824  3.1248  2.1351  0.8801
 3693TIP3   OH211042   1.500   1.892   0.578 -0.3324  0.4120 -0.2234
 3693TIP3    H111043   1.449   1.836   0.636  1.3002  0.0870  0.9814
 3693TIP3    H211044   1.445   1.968   0.563 -0.8387  0.4883  1.7479
 3694TIP3   OH211045   2.428   4.485   5.291 -0.0795  0.4285  0.0260
 3694TIP3    H111046   2.360   4.551   5.273 -2.0182 -1.0732  1.3402
 3694TIP3    H211047   2.440   4.488   5.386 -1.5068 -2.1804  0.3901
 3695TIP3   OH211048   0.185   1.160   4.273 -0.3111 -0.5889 -0.0198
 3695TIP3    H111049   0.272   1.126   4.252  0.1001 -1.6540  2.9393
 3695TIP3    H211050   0.194   1.255   4.270  1.4564 -0.6456  1.7475
 3696TIP3   OH211051   5.809   0.235   2.295 -0.0614  0.4770  0.1618
 3696TIP3    H111052   5.818   0.146   2.329  1.9650  0.8235  0.6527
 3696TIP3    H211053   5.753   0.280   2.359  0.3297  0.0039  0.8452
 3697TIP3   OH211054   5.110   4.335   1.255  0.2705  0.4217 -0.2814
 3697TIP3    H111055   5.045   4.403   1.273 -0.4710 -0.1647 -0.6999
 3697TIP3    H211056   5.091   4.266   1.319  2.4660  1.5224  1.6980
 3698TIP3   OH211057   2.051   0.998   4.555 -0.0375 -0.5042 -0.2541
 3698TIP3    H111058   2.118   0.930   4.563  0.5008  0.1372  0.9460
 3698TIP3    H211059   1.983   0.972   4.617 -0.3988 -0.5819 -0.6791
 3699TIP3   OH211060   6.111   6.596   0.057  0.2248  0.3716  0.6422
 3699TIP3    H111061   6.074   6.657   0.120  1.1954  2.3722 -0.6340
 3699TIP3    H211062   6.076   6.624  -0.028  0.3208 -1.1657  0.0577
 3700TIP3   OH211063   2.153   5.840   0.929 -0.6114  0.6330  0.1097
 3700TIP3    H111064   2.086   5.875   0.871 -1.0309 -0.7305 -0.2564
 3700TIP3    H211065   2.230   5.894   0.912 -1.4074  1.7646  0.0219
 3701TIP3   OH211066   5.882   5.420   2.682  1.2514 -0.0113 -0.6907
 3701TIP3    H111067   5.791   5.449   2.688  1.2792  0.2475 -1.5201
 3701TIP3    H211068   5.919   5.442   2.767  0.1380 -1.5242  0.2517
 3702TIP3   OH211069   7.012   4.202   2.423 -0.6074  0.1682  0.5102
 3702TIP3    H111070   7.016   4.297   2.409  0.1550  0.1228  0.3790
 3702TIP3    H211071   7.054   4.164   2.346 -1.1014 -0.2922  0.4585
 3703TIP3   OH211072   1.928   3.559   0.302 -0.3009  1.1550  0.7096
 3703TIP3    H111073   1.834   3.576   0.313 -0.6763  0.4715 -1.0170
 3703TIP3    H211074   1.935   3.464   0.297  0.1154  1.2432 -1.5270
 3704TIP3   OH211075   6.316   1.279   1.321 -0.1699 -0.2509  0.0921
 3704TIP3    H111076   6.243   1.272   1.260  0.0716  1.0389 -0.3879
 3704TIP3    H211077   6.388   1.316   1.269  0.5422 -0.6382  0.7705
 3705TIP3   OH211078   3.546   1.324   0.579 -0.5707  0.1062 -0.5053
 3705TIP3    H111079   3.518   1.402   0.627 -0.9529 -0.5422  0.3311
 3705TIP3    H211080   3.616   1.287   0.632 -0.7294 -0.4012 -0.6503
 3706TIP3   OH211081   6.781   4.331   4.119  0.4332  0.1904 -0.3025
 3706TIP3    H111082   6.734   4.349   4.038 -1.2423 -2.8645 -0.1428
 3706TIP3    H211083   6.714   4.330   4.186  1.7003  1.9355  1.1062
 3707TIP3   OH211084   1.007   0.135   0.061 -0.2771 -0.5271  0.4149
 3707TIP3    H111085   1.023   0.127  -0.033 -3.1831 -2.7888 -0.0167
 3707TIP3    H211086   0.952   0.213   0.069  0.0584 -0.2733  0.2635
 3708TIP3   OH211087   5.735   2.507   2.011 -0.0595 -0.1498 -0.7274
 3708TIP3    H111088   5.787   2.586   2.020 -0.0958 -0.2629  0.8090
 3708TIP3    H211089   5.775   2.445   2.073 -0.4526 -1.0940 -1.3933
 3709TIP3   OH211090   2.770   2.305   5.178 -0.4602 -0.0162 -0.0170
 3709TIP3    H111091   2.694   2.325   5.233  0.9636  1.7779  1.4287
 3709TIP3    H211092   2.771   2.374   5.111  0.4438  0.6240  0.6228
 3710TIP3   OH211093   3.048   0.406   0.672 -0.6665  0.2824 -0.1549
 3710TIP3    H111094   3.072   0.498   0.686 -0.2388  0.3146 -1.0082
 3710TIP3    H211095   3.088   0.384   0.588 -1.6935 -0.3683 -0.4883
 3711TIP3   OH211096   7.015   2.051   1.836  0.4231  0.6972 -0.5382
 3711TIP3    H111097   6.996   2.139   1.868  1.1591  0.4216  0.7232
 3711TIP3    H211098   7.103   2.033   1.869  0.6049 -0.2039 -1.4787
 3712TIP3   OH211099   4.900   3.803   3.301  0.2972  0.8719  0.4693
 3712TIP3    H111100   4.963   3.799   3.228  0.6641  0.0402  0.8178
 3712TIP3    H211101   4.815   3.790   3.260  0.4634  0.8371  0.1315
 3713TIP3   OH211102   1.724   4.935   2.259 -0.2519  0.4083 -0.0018
 3713TIP3    H111103   1.662   4.875   2.217 -0.0614  1.2717 -1.5804
 3713TIP3    H211104   1.733   5.008   2.197  1.6235  0.7505  0.6116
 3714TIP3   OH211105   3.471   0.218   1.323  0.1196 -0.6882  0.3868
 3714TIP3    H111106   3.413   0.278   1.277  0.7420  0.8188  1.5024
 3714TIP3    H211107   3.427   0.133   1.317 -1.0112 -0.0574 -0.8105
 3715TIP3   OH211108   2.341   4.373   0.251  0.1723 -0.9474 -0.6638
 3715TIP3    H111109   2.374   4.385   0.340 -2.5406  2.0205  0.0920
 3715TIP3    H211110   2.273   4.306   0.259  0.2544 -1.0243 -0.6065
 3716TIP3   OH211111   2.092   5.275   2.545 -0.1042  0.2448 -0.4998
 3716TIP3    H111112   2.044   5.212   2.598 -0.2512  0.7776  0.0024
 3716TIP3    H211113   2.070   5.360   2.582  0.0945  0.5979 -1.1717
 3717TIP3   OH211114   3.238   5.020   0.923 -0.1269 -0.6662 -0.2459
 3717TIP3    H111115   3.170   5.066   0.972 -1.0479 -0.6138 -1.5176
 3717TIP3    H211116   3.319   5.041   0.968 -0.4897  2.3068 -0.7972
 3718TIP3   OH211117   0.161   2.457   3.738  0.0224 -0.5607  0.1707
 3718TIP3    H111118   0.218   2.451   3.815 -0.1374  1.0924  0.4550
 3718TIP3    H211119   0.214   2.502   3.672 -0.5535 -0.0383  0.0533
 3719TIP3   OH211120   5.668   5.260   5.035  0.4886  0.1608  0.0576
 3719TIP3    H111121   5.702   5.173   5.057 -1.4247 -0.6684 -0.1275
 3719TIP3    H211122   5.747   5.314   5.024  1.7614 -0.6229  3.6628
 3720TIP3   OH211123   5.089   5.589   4.964 -0.4505  0.4067 -0.2219
 3720TIP3    H111124   5.095   5.521   4.896  1.7321  0.8379 -0.5465
 3720TIP3    H211125   5.008   5.636   4.945 -0.9390 -0.8078 -1.2476
 3721TIP3   OH211126   5.089   4.192   0.359 -0.4285 -0.0573  0.1654
 3721TIP3    H111127   5.048   4.113   0.326  0.3636 -0.6359  0.5327
 3721TIP3    H211128   5.178   4.189   0.325 -0.7656  1.3778 -0.9410
 3722TIP3   OH211129   2.813   0.320   3.944 -0.0292 -0.4523  0.1808
 3722TIP3    H111130   2.829   0.238   3.991  1.1925  0.2348  1.0107
 3722TIP3    H211131   2.878   0.381   3.980  1.2470  0.0078 -2.6784
 3723TIP3   OH211132   6.034   2.503   3.534  0.6607  0.1310  0.3435
 3723TIP3    H111133   6.008   2.455   3.456  0.5201  1.2260 -0.3048
 3723TIP3    H211134   6.050   2.435   3.600  0.4911 -0.7893 -0.5410
 3724TIP3   OH211135   1.312   6.754   4.935 -0.4188  0.0149 -0.2869
 3724TIP3    H111136   1.336   6.762   5.027 -0.2767 -1.2191 -0.2008
 3724TIP3    H211137   1.256   6.830   4.918 -0.8836 -0.0232  0.9675
 3725TIP3   OH211138   5.970   1.081   5.421 -0.0910  0.1587 -0.1932
 3725TIP3    H111139   5.917   1.052   5.347  0.3467  1.5488 -1.0974
 3725TIP3    H211140   6.061   1.070   5.392  0.0862  1.6340 -0.2824
 3726TIP3   OH211141   5.871   2.552   3.090  0.3695 -0.1067  0.2225
 3726TIP3    H111142   5.837   2.480   3.143 -0.9372  0.8488  0.7284
 3726TIP3    H211143   5.844   2.530   3.001  0.7450 -0.6686  0.2411
 3727TIP3   OH211144   5.465   1.745   3.802  0.4798  0.1623  0.5212
 3727TIP3    H111145   5.491   1.741   3.893  0.3536  1.1712  0.6189
 3727TIP3    H211146   5.466   1.839   3.781  2.7662 -0.1609 -1.1748
 3728TIP3   OH211147   6.778   4.613   4.167 -0.0073 -0.9871 -0.1883
 3728TIP3    H111148   6.828   4.592   4.088  1.0847 -2.8217  0.9111
 3728TIP3    H211149   6.727   4.534   4.184 -0.6412 -0.4120  0.6509
 3729TIP3   OH211150   2.242   4.567   0.871  0.5179  0.2782 -0.2152
 3729TIP3    H111151   2.311   4.596   0.931  0.4942  0.6597 -0.3647
 3729TIP3    H211152   2.250   4.626   0.796 -0.8205  1.2113  0.3256
 3730TIP3   OH211153   6.582   0.841   2.692 -0.0266 -0.1924 -0.0374
 3730TIP3    H111154   6.585   0.787   2.771  0.0590 -1.0454 -0.6041
 3730TIP3    H211155   6.489   0.864   2.682  0.3755  3.2366  2.4308
 3731TIP3   OH211156   0.553   1.236   1.841 -0.3390  0.2682  0.0723
 3731TIP3    H111157   0.581   1.187   1.764  2.4966  0.1401  1.0479
 3731TIP3    H211158   0.558   1.328   1.813 -0.2740  0.1866 -0.1912
 3732TIP3   OH211159   5.133   4.763   1.040  0.8626 -0.2237 -0.4483
 3732TIP3    H111160   5.061   4.713   1.002  0.6309  1.6117 -2.6900
 3732TIP3    H211161   5.097   4.799   1.121 -0.7288  0.4106 -1.3673
 3733TIP3   OH211162   6.942   2.708   0.802 -0.0957  0.1215  0.2586
 3733TIP3    H111163   6.913   2.649   0.871  0.7683  0.0413  0.5699
 3733TIP3    H211164   6.975   2.651   0.733 -0.4288  0.2151  0.0186
 3734TIP3   OH211165   2.773   1.081   3.200 -0.4165  0.6198 -0.3413
 3734TIP3    H111166   2.705   1.100   3.265 -0.1803  0.6649 -0.1064
 3734TIP3    H211167   2.755   0.991   3.172 -0.0980  0.3453  0.3079
 3735TIP3   OH211168   0.234   4.507   2.125 -0.3200  0.3201  0.8020
 3735TIP3    H111169   0.218   4.564   2.049  0.1182  1.2129  1.3691
 3735TIP3    H211170   0.205   4.421   2.096  1.4960  0.2493 -1.0325
 3736TIP3   OH211171   2.967   1.209   0.484 -0.2053  0.0866 -0.2100
 3736TIP3    H111172   2.964   1.152   0.561  2.0547 -0.7816 -0.6886
 3736TIP3    H211173   2.951   1.297   0.518  0.5042 -0.3171  1.2196
 3737TIP3   OH211174   4.947   1.116   4.118 -0.1818  0.0395 -0.5160
 3737TIP3    H111175   5.038   1.141   4.133 -0.2938  0.4346 -0.4922
 3737TIP3    H211176   4.899   1.199   4.115 -0.5438 -0.1665 -0.5103
 3738TIP3   OH211177   0.830   4.939   4.212 -0.4069 -0.5718  0.3048
 3738TIP3    H111178   0.820   5.034   4.206 -0.0416 -0.5457  0.0692
 3738TIP3    H211179   0.883   4.916   4.135 -0.0763 -0.8999  0.6281
 3739TIP3   OH211180   2.498   3.180   5.130 -0.0351  0.2914 -0.2955
 3739TIP3    H111181   2.493   3.151   5.039 -0.8956  1.5548 -0.6715
 3739TIP3    H211182   2.492   3.100   5.181  1.0798 -0.5000 -1.3500
 3740TIP3   OH211183   4.212   2.695   5.224  0.2071 -0.5935 -0.2959
 3740TIP3    H111184   4.262   2.618   5.253  0.0965 -0.3260  0.6569
 3740TIP3    H211185   4.182   2.673   5.136  0.4600 -1.5042 -0.1630
 3741TIP3   OH211186   2.917   3.915   3.764 -0.3128 -0.3013 -0.2099
 3741TIP3    H111187   3.007   3.945   3.779 -0.1104 -2.0385  2.7973
 3741TIP3    H211188   2.910   3.908   3.669  2.9768 -0.7349 -0.5333
 3742TIP3   OH211189   1.199   3.737   0.706 -0.6083 -0.2511 -0.9484
 3742TIP3    H111190   1.295   3.744   0.705 -0.6020  1.0715  1.5126
 3742TIP3    H211191   1.181   3.653   0.664  1.6148 -0.4402 -1.6594
 3743TIP3   OH211192   1.291   6.429   2.942 -0.0065  0.3205  0.1955
 3743TIP3    H111193   1.228   6.372   2.897  1.0653 -0.3524 -0.4929
 3743TIP3    H211194   1.377   6.399   2.912  0.7070  0.5900  1.8484
 3744TIP3   OH211195   2.149   2.290   4.974 -0.2922  0.1265  0.4155
 3744TIP3    H111196   2.171   2.199   4.951 -1.6977 -0.5394  1.5003
 3744TIP3    H211197   2.081   2.315   4.912  0.5672  0.6987 -0.3124
 3745TIP3   OH211198   2.236   3.408   3.040  0.4960  0.6044  0.0280
 3745TIP3    H111199   2.307   3.469   3.059  0.6549  0.6602 -0.7113
 3745TIP3    H211200   2.234   3.402   2.944 -0.9382  1.1280 -0.0110
 3746TIP3   OH211201   2.324   6.772   2.725  0.5919  0.1003  0.0252
 3746TIP3    H111202   2.245   6.808   2.685 -0.1687 -1.2033  0.3084
 3746TIP3    H211203   2.293   6.722   2.800  1.6692 -0.5627  0.0525
 3747TIP3   OH211204   5.433   2.604   3.268  0.0117 -0.0887  0.3071
 3747TIP3    H111205   5.400   2.693   3.280  0.1830 -0.1357  1.1665
 3747TIP3    H211206   5.494   2.611   3.194  1.4311  0.9091  1.5049
 3748TIP3   OH211207   6.006   4.401  -0.026  0.0981 -0.5425 -0.6059
 3748TIP3    H111208   5.914   4.392  -0.002  0.1343  0.9698  0.1790
 3748TIP3    H211209   6.052   4.409   0.057  0.9655 -1.2954 -0.9888
 3749TIP3   OH211210   0.234   3.933   4.145 -0.1600  0.3171 -0.1589
 3749TIP3    H111211   0.220   3.847   4.107  0.0750  0.8478 -1.5047
 3749TIP3    H211212   0.322   3.929   4.183  0.5326  0.4260 -1.6561
 3750TIP3   OH211213   3.404   1.393   5.731 -0.1357 -0.5722 -0.1891
 3750TIP3    H111214   3.433   1.303   5.721  0.1306 -0.4860 -0.1937
 3750TIP3    H211215   3.313   1.393   5.700 -0.2768 -0.9273  0.2129
 3751TIP3   OH211216   4.056   2.089   5.561  0.0539  0.1629 -0.4076
 3751TIP3    H111217   4.028   2.044   5.641 -0.0289 -0.1286 -0.5959
 3751TIP3    H211218   3.979   2.087   5.504  0.5506 -0.9803 -1.0748
 3752TIP3   OH211219   1.181   2.363   1.054  0.6951  0.3813  0.1286
 3752TIP3    H111220   1.088   2.383   1.059  0.4015 -0.7434 -0.5841
 3752TIP3    H211221   1.208   2.395   0.968  0.4504 -1.2468 -0.5914
 3753TIP3   OH211222   0.854   3.090   2.558 -0.3025 -0.5978 -0.2785
 3753TIP3    H111223   0.845   3.053   2.646 -0.5162  0.3597  0.1149
 3753TIP3    H211224   0.791   3.162   2.556 -0.2043 -0.5296 -1.1745
 3754TIP3   OH211225   7.103   4.859   5.644  0.2153 -0.3368  0.0647
 3754TIP3    H111226   7.082   4.929   5.707 -1.0508 -0.9210  0.3162
 3754TIP3    H211227   7.096   4.902   5.559  1.5380  0.3559  0.2621
 3755TIP3   OH211228   5.099   6.740   0.671 -0.1811 -0.0062  0.1229
 3755TIP3    H111229   5.081   6.763   0.580  1.8599  0.2719 -0.2452
 3755TIP3    H211230   5.117   6.646   0.669  2.5791  0.4640 -0.2783
 3756TIP3   OH211231   5.001   1.412   4.898 -0.2765 -0.2257  0.4579
 3756TIP3    H111232   4.967   1.350   4.834 -0.3823  0.2080  0.0864
 3756TIP3    H211233   5.086   1.376   4.923 -0.3595 -0.5454  0.2886
 3757TIP3   OH211234   3.109   2.654   3.322  0.2381 -0.3749  0.2256
 3757TIP3    H111235   3.124   2.740   3.362  0.5592 -0.8351  1.1201
 3757TIP3    H211236   3.185   2.602   3.347  0.8716 -0.4494 -1.7185
 3758TIP3   OH211237   0.818   1.270   4.174  0.0314 -0.6750  0.2171
 3758TIP3    H111238   0.881   1.273   4.103 -1.0806  2.1052 -0.7936
 3758TIP3    H211239   0.866   1.299   4.251  0.1224  1.2764 -0.5127
 3759TIP3   OH211240   3.215   0.696   4.925  0.8060 -0.1192  0.2578
 3759TIP3    H111241   3.179   0.610   4.948 -0.0708 -0.1331 -1.0755
 3759TIP3    H211242   3.141   0.744   4.888  1.2832  1.2284  0.9848
 3760TIP3   OH211243   3.816   2.526   2.107  0.0151  0.5747  0.1734
 3760TIP3    H111244   3.731   2.568   2.097 -0.9869 -1.4839 -0.4669
 3760TIP3    H211245   3.818   2.460   2.038  2.1964  0.6287  0.1182
 3761TIP3   OH211246   2.544   5.342   5.355  0.3195  0.0873 -0.0677
 3761TIP3    H111247   2.511   5.256   5.381 -0.8524  0.5280 -0.0333
 3761TIP3    H211248   2.623   5.353   5.408  1.2118 -1.4791 -0.9890
 3762TIP3   OH211249   3.184   6.318   0.902  0.0601 -0.4214 -0.1921
 3762TIP3    H111250   3.156   6.340   0.991  1.8767  0.5559  0.1816
 3762TIP3    H211251   3.272   6.282   0.913 -0.1156 -1.3423 -1.5171
 3763TIP3   OH211252   3.015   4.840   5.386 -0.4160 -0.0522  0.2644
 3763TIP3    H111253   2.971   4.818   5.304 -2.9615  1.3888  1.1286
 3763TIP3    H211254   3.096   4.884   5.359 -0.2581 -1.2930 -1.4194
 3764TIP3   OH211255   5.760   0.646   3.289  0.1380 -0.2858 -0.2989
 3764TIP3    H111256   5.848   0.667   3.259  1.3798 -2.1073  1.7882
 3764TIP3    H211257   5.739   0.715   3.352  0.2386 -0.0830 -0.4859
 3765TIP3   OH211258   6.251   2.218   5.243  0.2617  0.2018  0.0583
 3765TIP3    H111259   6.264   2.130   5.280  1.7823  0.5688  0.4483
 3765TIP3    H211260   6.290   2.277   5.308 -1.1813  1.2248  0.0435
 3766TIP3   OH211261   3.432   6.794   5.149  0.3930  0.0298  0.1903
 3766TIP3    H111262   3.496   6.723   5.149  0.1390 -0.2091  1.1113
 3766TIP3    H211263   3.460   6.851   5.220 -0.4791 -0.1437  0.6853
 3767TIP3   OH211264   1.286   1.292   4.212  0.0350  0.7153 -0.5357
 3767TIP3    H111265   1.338   1.214   4.234 -1.5949 -0.6657 -1.3517
 3767TIP3    H211266   1.321   1.360   4.270  1.0273 -0.7985  0.7596
 3768TIP3   OH211267   3.086   4.189   5.767  0.2519  0.6452 -0.0969
 3768TIP3    H111268   3.077   4.146   5.852  0.1432 -0.0094 -0.4290
 3768TIP3    H211269   3.023   4.261   5.769 -0.4869  0.0132  0.0002
 3769TIP3   OH211270   6.808   3.456   4.016  0.4055 -0.3484  0.6571
 3769TIP3    H111271   6.836   3.437   3.927  1.1770 -0.7327  0.9765
 3769TIP3    H211272   6.776   3.546   4.012 -1.0737 -0.8707 -0.3502
 3770TIP3   OH211273   4.998   4.620   3.068  0.3233  0.3748 -0.0070
 3770TIP3    H111274   5.023   4.566   2.994  0.7327 -0.0129  0.4061
 3770TIP3    H211275   5.073   4.677   3.084  0.1440  0.6244 -0.0347
 3771TIP3   OH211276   4.010   2.140   4.846 -0.4204 -0.1893  0.2423
 3771TIP3    H111277   3.932   2.153   4.900 -0.2726  0.9354  0.2190
 3771TIP3    H211278   4.005   2.049   4.816 -2.1144  0.0672 -0.3571
 3772TIP3   OH211279   3.159   5.862   5.058 -0.1835 -0.3136  0.0931
 3772TIP3    H111280   3.206   5.780   5.072  0.9355  0.1579 -0.8050
 3772TIP3    H211281   3.195   5.922   5.123  1.4327  0.4240 -1.4252
 3773TIP3   OH211282   3.939   4.078   1.815  0.5328 -0.3463 -0.2740
 3773TIP3    H111283   3.892   3.996   1.801  0.5694 -0.3301 -0.4978
 3773TIP3    H211284   3.914   4.105   1.903  0.0775 -0.3053 -0.4125
 3774TIP3   OH211285   7.060   5.023   5.244  0.2760  0.0107 -0.8005
 3774TIP3    H111286   7.048   4.935   5.279 -0.9844  1.5586  3.2180
 3774TIP3    H211287   6.985   5.037   5.186 -1.7762 -0.3454  1.6034
 3775TIP3   OH211288   6.554   6.749   4.775 -0.3944  0.3883  0.2565
 3775TIP3    H111289   6.552   6.694   4.697  1.7978 -0.6913  0.8690
 3775TIP3    H211290   6.482   6.718   4.829 -0.6602 -0.2563 -0.4538
 3776TIP3   OH211291   6.286   2.592   5.575 -0.0959 -0.0325 -0.0540
 3776TIP3    H111292   6.259   2.594   5.483 -0.7377 -0.5989  0.1157
 3776TIP3    H211293   6.271   2.502   5.602  0.6439 -0.0164  0.4521
 3777TIP3   OH211294   4.572   3.408   3.129 -0.2808  0.0610 -0.0453
 3777TIP3    H111295   4.517   3.367   3.062  0.8179 -0.5833 -0.6055
 3777TIP3    H211296   4.643   3.449   3.079  0.5582 -0.4240  0.7018
 3778TIP3   OH211297   1.984   6.227   5.871 -0.6904 -0.0848 -0.4893
 3778TIP3    H111298   2.041   6.178   5.931 -1.3386  2.3745  2.3797
 3778TIP3    H211299   2.028   6.221   5.786  0.8223 -2.9355  0.3558
 3779TIP3   OH211300   4.897   4.213   4.624 -0.0244  0.4638 -0.0194
 3779TIP3    H111301   4.988   4.243   4.624  0.1047  0.0928 -0.5410
 3779TIP3    H211302   4.852   4.272   4.685  0.3784  1.2296 -0.4435
 3780TIP3   OH211303   4.510   3.854   4.552 -0.4178  0.1645  0.1585
 3780TIP3    H111304   4.531   3.786   4.487  2.2985  0.7372  0.3194
 3780TIP3    H211305   4.439   3.817   4.603 -1.4130 -1.0607 -1.9883
 3781TIP3   OH211306   1.650   2.549   1.149  0.2628  0.5776 -0.0495
 3781TIP3    H111307   1.569   2.526   1.195  0.5949 -0.3334  0.0999
 3781TIP3    H211308   1.702   2.595   1.214 -0.0943  1.0925 -0.1212
 3782TIP3   OH211309   3.547   4.604   2.857  0.0769 -0.5510 -0.0921
 3782TIP3    H111310   3.467   4.582   2.808  1.0873 -1.4418 -1.4008
 3782TIP3    H211311   3.618   4.593   2.794  1.2464  0.3602  1.0076
 3783TIP3   OH211312   5.544   2.651   4.923 -0.0035 -0.0020 -0.1510
 3783TIP3    H111313   5.539   2.556   4.923 -0.6395  0.0219  0.6559
 3783TIP3    H211314   5.600   2.672   4.998  1.5854  0.2199 -1.3343
 3784TIP3   OH211315   3.433   2.270   0.301 -0.0459  0.4755  0.0811
 3784TIP3    H111316   3.442   2.349   0.247 -0.5981 -0.0356 -0.7735
 3784TIP3    H211317   3.369   2.295   0.368  0.7721  1.1689  0.6155
 3785TIP3   OH211318   3.419   5.807   5.618 -0.4323  0.8284  0.3123
 3785TIP3    H111319   3.512   5.792   5.604 -0.2637  0.1345  1.9152
 3785TIP3    H211320   3.377   5.773   5.539  0.5162 -1.1220  0.5924
 3786TIP3   OH211321   3.315   0.126   4.103  0.0457  0.0474 -0.3580
 3786TIP3    H111322   3.320   0.221   4.107  1.2829 -0.0108 -0.1435
 3786TIP3    H211323   3.242   0.103   4.160 -1.5096  0.9506 -1.8866
 3787TIP3   OH211324   5.049   3.402   0.227 -0.3402  0.3225  0.1563
 3787TIP3    H111325   5.003   3.476   0.187  0.3186  0.2233 -0.8390
 3787TIP3    H211326   5.049   3.334   0.159 -0.3099 -0.3392  0.7966
 3788TIP3   OH211327   2.511   3.965   3.455 -0.1138  0.0539 -0.2723
 3788TIP3    H111328   2.522   3.922   3.370  2.5508 -0.6866  0.3588
 3788TIP3    H211329   2.433   4.020   3.444 -2.2237 -2.9523 -1.9234
 3789TIP3   OH211330   7.048   3.678   0.447 -0.2368  0.0775  0.5243
 3789TIP3    H111331   7.032   3.747   0.512  1.6716  1.3868 -0.3010
 3789TIP3    H211332   6.995   3.604   0.477 -3.1660  2.1517  0.9515
 3790TIP3   OH211333   4.467  -0.011   2.849  0.1462  0.2997 -0.0476
 3790TIP3    H111334   4.382  -0.012   2.806  1.2285 -0.3989 -2.3628
 3790TIP3    H211335   4.472   0.075   2.892 -1.9406  0.0819  0.7245
 3791TIP3   OH211336   3.144   6.535   1.086  0.5046 -0.3904 -0.1716
 3791TIP3    H111337   3.095   6.559   1.164  1.5476  1.8475 -0.1139
 3791TIP3    H211338   3.084   6.551   1.013  0.0706 -0.9133  0.0649
 3792TIP3   OH211339   0.979   6.339   1.912  0.2337 -0.3318 -0.4047
 3792TIP3    H111340   1.052   6.392   1.942 -1.2545  0.6243  1.8383
 3792TIP3    H211341   0.984   6.258   1.963  0.3373 -0.7696 -1.0809
 3793TIP3   OH211342   1.492   3.991   5.056 -0.0626 -0.6016 -0.4823
 3793TIP3    H111343   1.571   4.033   5.022 -1.3372  0.7505 -1.9162
 3793TIP3    H211344   1.499   4.002   5.151  0.9463  0.4775 -0.6494
 3794TIP3   OH211345   6.649   5.553   0.734 -0.0762  0.5644 -0.7514
 3794TIP3    H111346   6.742   5.562   0.758 -0.0951 -0.9996  0.0054
 3794TIP3    H211347   6.650   5.505   0.652 -0.2214  0.7416 -0.8585
 3795TIP3   OH211348   2.721   5.987   3.497  0.3854 -0.1962  0.0147
 3795TIP3    H111349   2.758   5.997   3.409  0.0422 -2.1810 -0.3868
 3795TIP3    H211350   2.705   5.894   3.506  0.7862 -0.0881  2.3645
 3796TIP3   OH211351   4.703   4.350   4.016  0.1838 -0.1418 -0.2176
 3796TIP3    H111352   4.695   4.415   3.946 -0.0811  0.1480  0.0784
 3796TIP3    H211353   4.686   4.266   3.972  0.6131 -0.0258 -0.6162
 3797TIP3   OH211354   1.468   2.353   3.331  0.0874 -0.3335  0.3056
 3797TIP3    H111355   1.465   2.297   3.408 -2.0136 -1.4013 -0.4659
 3797TIP3    H211356   1.526   2.307   3.270 -0.0947 -0.7118  0.4106
 3798TIP3   OH211357   3.442   5.855   4.626  0.5324  0.0523 -0.4285
 3798TIP3    H111358   3.415   5.933   4.578  0.2714 -0.1762 -0.6514
 3798TIP3    H211359   3.381   5.787   4.598  0.0168  0.0546  0.6487
 3799TIP3   OH211360   4.280   0.823   4.467 -0.2407  0.0817 -0.1324
 3799TIP3    H111361   4.285   0.879   4.389  1.3197 -0.0577 -0.1558
 3799TIP3    H211362   4.205   0.766   4.450 -0.3259  0.4915 -1.2368
 3800TIP3   OH211363   0.161   1.833   0.892  0.4143 -0.3745 -0.3254
 3800TIP3    H111364   0.120   1.914   0.923 -0.2642 -0.4060 -1.0925
 3800TIP3    H211365   0.166   1.777   0.970 -0.5785 -0.1821 -0.1068
 3801TIP3   OH211366   3.284   6.393   0.158  0.2164  0.3379 -0.0386
 3801TIP3    H111367   3.281   6.298   0.164  2.5706  0.1314 -0.9594
 3801TIP3    H211368   3.372   6.416   0.187 -0.5442  2.3336  0.8849
 3802TIP3   OH211369   3.197   3.647   3.858 -0.1058 -0.5369 -0.5734
 3802TIP3    H111370   3.112   3.688   3.871 -0.0099 -0.1800 -1.0419
 3802TIP3    H211371   3.235   3.644   3.946 -0.4175 -0.2855 -0.4251
 3803TIP3   OH211372   1.566   0.765   0.415 -0.2239 -0.0238  0.1474
 3803TIP3    H111373   1.518   0.846   0.402  0.5446  0.3691 -0.3256
 3803TIP3    H211374   1.526   0.725   0.492 -1.6131  0.0396 -0.5212
 3804TIP3   OH211375   3.477   3.925   1.433 -0.3468  0.5386 -0.1775
 3804TIP3    H111376   3.406   3.986   1.452 -0.2523  0.3771  0.7896
 3804TIP3    H211377   3.542   3.976   1.386 -0.8279  0.8514 -0.5018
 3805TIP3   OH211378   1.233   4.200   0.954  0.1641  0.2662  0.1243
 3805TIP3    H111379   1.312   4.217   1.006  0.1992  0.5307 -0.0148
 3805TIP3    H211380   1.265   4.190   0.865  0.0181  0.5758  0.0367
 3806TIP3   OH211381   1.631   1.296   1.073  0.3481  0.0881  0.1139
 3806TIP3    H111382   1.635   1.386   1.106 -1.7968  1.7445 -3.5052
 3806TIP3    H211383   1.710   1.287   1.020  0.5430 -0.1582  0.4451
 3807TIP3   OH211384   2.652   2.371   5.557 -0.0176  0.1668  0.0644
 3807TIP3    H111385   2.717   2.436   5.582 -0.9686  0.5745  1.5887
 3807TIP3    H211386   2.608   2.348   5.639 -1.6871 -0.1963 -0.8866
 3808TIP3   OH211387   3.673   6.232   3.576  0.2347  0.3335 -0.0848
 3808TIP3    H111388   3.678   6.295   3.647  1.2882  0.2928 -0.1082
 3808TIP3    H211389   3.637   6.153   3.617  0.8573  0.3016  0.4178
 3809TIP3   OH211390   3.445   4.541   4.339 -0.4171  0.1144 -0.8311
 3809TIP3    H111391   3.469   4.632   4.357 -0.5587 -0.0060  0.0167
 3809TIP3    H211392   3.518   4.506   4.289 -0.3204  0.6664 -1.0856
 3810TIP3   OH211393   2.343   5.462   3.837 -0.0473  0.1857  0.5075
 3810TIP3    H111394   2.417   5.458   3.898  0.0477  1.1870  0.4751
 3810TIP3    H211395   2.363   5.395   3.771 -0.0418 -0.7516  1.4440
 3811TIP3   OH211396   5.543   2.615   4.350 -0.6205 -0.5267  0.4883
 3811TIP3    H111397   5.569   2.647   4.264  0.0894 -0.5240  0.6981
 3811TIP3    H211398   5.502   2.690   4.393 -1.0710 -0.5577  0.1235
 3812TIP3   OH211399   3.992   5.829   5.224 -0.3194 -0.7700 -0.1452
 3812TIP3    H111400   3.943   5.861   5.300 -1.0100 -1.2143 -0.3951
 3812TIP3    H211401   4.037   5.751   5.256 -1.1620 -1.3624 -0.3532
 3813TIP3   OH211402   2.926   5.358   1.851  0.1052 -0.2739 -0.0255
 3813TIP3    H111403   2.960   5.331   1.765  0.8246 -0.5882  0.3459
 3813TIP3    H211404   2.968   5.297   1.912  0.2701  0.5028  0.6387
 3814TIP3   OH211405   5.337   5.040   0.707 -0.0337  0.4828  0.4062
 3814TIP3    H111406   5.380   5.122   0.684 -0.5259  0.7233  0.3414
 3814TIP3    H211407   5.396   4.972   0.674 -0.9936  0.7831 -2.1603
 3815TIP3   OH211408   3.415   3.004   5.746  0.3406  0.0193 -0.2932
 3815TIP3    H111409   3.471   2.954   5.687  1.5815  0.1200  0.7342
 3815TIP3    H211410   3.345   3.037   5.691  0.3144 -1.5865 -1.2888
 3816TIP3   OH211411   2.221   6.530   4.876 -0.3923  0.3402  0.4368
 3816TIP3    H111412   2.237   6.579   4.957  2.0666  0.6125 -0.1384
 3816TIP3    H211413   2.223   6.438   4.903 -0.8364  0.4525  0.8669
 3817TIP3   OH211414   6.714   2.379   4.732  0.0524 -0.1582 -0.1962
 3817TIP3    H111415   6.748   2.468   4.731  0.4905 -0.3250 -0.6437
 3817TIP3    H211416   6.626   2.387   4.770  0.6910  0.2401  1.2302
 3818TIP3   OH211417   3.487   6.231   2.470  0.4982 -0.1691  0.3646
 3818TIP3    H111418   3.444   6.225   2.556 -0.2524  2.3801  0.2604
 3818TIP3    H211419   3.442   6.166   2.416 -0.6975 -0.1312  1.2685
 3819TIP3   OH211420   0.046   3.249   1.001 -0.1411 -0.1175  0.1890
 3819TIP3    H111421   0.038   3.272   1.093 -2.3593 -0.7008  0.2200
 3819TIP3    H211422   0.085   3.162   1.001 -1.7296 -0.8696  0.7342
 3820TIP3   OH211423   2.589   6.464   3.232  0.1071  0.4192  0.0753
 3820TIP3    H111424   2.508   6.492   3.276  0.4604  2.9039 -0.6760
 3820TIP3    H211425   2.628   6.400   3.291 -1.3821  0.7354  1.4741
 3821TIP3   OH211426   4.612   1.973   2.455  0.2345 -0.1185 -0.3310
 3821TIP3    H111427   4.576   2.046   2.405  1.0779 -0.3915 -1.3450
 3821TIP3    H211428   4.554   1.899   2.435  0.4411 -0.1722 -0.7325
 3822TIP3   OH211429   6.628   1.528   5.230  0.5568 -0.6669 -0.4185
 3822TIP3    H111430   6.709   1.570   5.261 -0.2419  1.8149 -1.4276
 3822TIP3    H211431   6.648   1.500   5.141  0.1971  0.4441 -0.8697
 3823TIP3   OH211432   5.210   6.026   2.405  0.1912 -0.1225  0.2696
 3823TIP3    H111433   5.295   6.027   2.360 -0.2892  0.3586 -0.6622
 3823TIP3    H211434   5.227   6.066   2.490  0.8601  0.1793  0.0019
 3824TIP3   OH211435   4.407   6.249   1.238  0.4959 -0.1130 -0.3873
 3824TIP3    H111436   4.413   6.157   1.264 -0.0091  0.2706  1.2069
 3824TIP3    H211437   4.314   6.270   1.249  0.6453  0.6417 -0.5470
 3825TIP3   OH211438   4.259   2.852   3.234  0.0738  0.2927 -0.3979
 3825TIP3    H111439   4.324   2.787   3.262 -0.8304  0.0301  1.1862
 3825TIP3    H211440   4.306   2.935   3.236  0.2469  0.1834  1.2620
 3826TIP3   OH211441   0.905   0.766   3.979 -0.1704 -0.0218 -0.0923
 3826TIP3    H111442   0.886   0.798   3.891 -0.3297 -2.0478 -0.8465
 3826TIP3    H211443   0.819   0.744   4.016  0.0730 -2.4683 -0.8101
 3827TIP3   OH211444   3.594   3.181   3.872 -0.0046 -0.2133  0.5476
 3827TIP3    H111445   3.504   3.170   3.841 -0.3952 -0.8793  1.8524
 3827TIP3    H211446   3.644   3.201   3.793 -1.0941 -1.0320 -0.3854
 3828TIP3   OH211447   2.313   3.192   3.197  0.6483  0.7444  0.0458
 3828TIP3    H111448   2.343   3.257   3.260  2.6586  1.6334 -1.6896
 3828TIP3    H211449   2.284   3.243   3.121 -0.7063 -0.3169 -0.1951
 3829TIP3   OH211450   6.134   3.209   4.259 -0.4575  0.4043  0.1247
 3829TIP3    H111451   6.111   3.116   4.260  0.1312  0.2086 -1.6773
 3829TIP3    H211452   6.216   3.214   4.308 -0.2765 -0.0934 -0.1149
 3830TIP3   OH211453   4.939   0.106   0.559  0.2038 -0.2787  0.2522
 3830TIP3    H111454   4.963   0.027   0.511  0.6841  0.5294 -0.8982
 3830TIP3    H211455   4.877   0.076   0.625 -1.5907 -1.2925 -1.7370
 3831TIP3   OH211456   3.123   4.172   3.377 -0.3116  0.3123  0.5605
 3831TIP3    H111457   3.118   4.176   3.472 -1.2802 -3.5625  0.8538
 3831TIP3    H211458   3.216   4.176   3.357  0.0030 -0.4181  1.8315
 3832TIP3   OH211459   5.561   2.445   1.677 -0.2857  0.4044 -0.0077
 3832TIP3    H111460   5.574   2.366   1.729 -1.4951  0.4565  0.4028
 3832TIP3    H211461   5.529   2.511   1.739  0.1872  1.0593 -0.4433
 3833TIP3   OH211462   4.703   0.197   3.082 -0.4038  0.6632  0.0746
 3833TIP3    H111463   4.616   0.173   3.051 -0.4976  0.1760  0.6900
 3833TIP3    H211464   4.698   0.291   3.098 -0.6041  0.7638 -0.5594
 3834TIP3   OH211465   2.168   4.851   4.146 -0.3207  0.1822 -0.0316
 3834TIP3    H111466   2.075   4.831   4.157 -0.7638  1.6579 -0.9217
 3834TIP3    H211467   2.177   4.941   4.175  0.8431  0.0539  0.0482
 3835TIP3   OH211468   5.078   0.368   3.924 -0.3878 -0.3614  0.2067
 3835TIP3    H111469   5.172   0.353   3.915 -0.1020  0.4602  1.5220
 3835TIP3    H211470   5.040   0.280   3.927 -0.0316 -0.7488 -3.0594
 3836TIP3   OH211471   5.610   0.839   2.886 -0.8552  0.5088 -0.6247
 3836TIP3    H111472   5.588   0.901   2.956  2.2235  0.1116  0.8510
 3836TIP3    H211473   5.600   0.753   2.925  1.8246  0.2911 -0.2085
 3837TIP3   OH211474   1.342   1.862   5.078  0.3631 -0.0707  0.2149
 3837TIP3    H111475   1.374   1.899   4.996 -1.2159  1.9528  0.4258
 3837TIP3    H211476   1.281   1.927   5.111 -1.8273 -2.4437  1.1915
 3838TIP3   OH211477   5.147   3.535   4.767  0.2871 -0.2162  0.2152
 3838TIP3    H111478   5.220   3.565   4.822  0.4262 -2.3945  1.3340
 3838TIP3    H211479   5.189   3.486   4.696  0.0250  1.3017 -1.0272
 3839TIP3   OH211480   6.708   1.414   4.010  0.0636 -0.4270  0.3285
 3839TIP3    H111481   6.621   1.379   3.991 -0.2846 -0.2103  1.4531
 3839TIP3    H211482   6.758   1.338   4.039 -0.1566 -0.3254  0.9934
 3840TIP3   OH211483   0.391   5.034   1.417  0.1178 -0.2390 -0.5015
 3840TIP3    H111484   0.422   4.947   1.392 -0.5269 -0.1178 -1.7859
 3840TIP3    H211485   0.332   5.018   1.491  0.0690 -0.8715 -0.6714
 3841TIP3   OH211486   4.898   3.469   1.392  0.4366  0.0740 -0.3682
 3841TIP3    H111487   4.852   3.520   1.325  0.2610 -0.0737 -0.3603
 3841TIP3    H211488   4.904   3.528   1.467 -0.8704 -0.3368  0.0775
 3842TIP3   OH211489   2.084   1.371   5.865 -0.2282  0.6638 -0.6385
 3842TIP3    H111490   2.048   1.289   5.831 -2.0656  0.7950  0.8634
 3842TIP3    H211491   2.062   1.436   5.798  0.3850  0.1344 -1.3826
 3843TIP3   OH211492   3.223   1.243   3.672  0.0521  0.5867  0.0201
 3843TIP3    H111493   3.139   1.198   3.668 -0.6463  1.6705  1.6226
 3843TIP3    H211494   3.282   1.181   3.714 -0.3466  0.3865  0.2849
 3844TIP3   OH211495   6.516   0.986   2.033 -0.3432  0.2071  0.8943
 3844TIP3    H111496   6.571   0.988   2.111  0.8889  0.7708  0.0549
 3844TIP3    H211497   6.490   0.895   2.023 -0.0956  0.0459  1.6657
 3845TIP3   OH211498   4.688   2.514   1.240  0.0588 -0.1164  0.1197
 3845TIP3    H111499   4.672   2.544   1.329 -1.2662 -1.2453  0.2928
 3845TIP3    H211500   4.710   2.421   1.249  1.2915  0.0727 -0.6364
 3846TIP3   OH211501   6.439   6.075   0.455 -0.1994  0.0836  0.0290
 3846TIP3    H111502   6.420   6.070   0.549 -0.8136 -0.3617 -0.1142
 3846TIP3    H211503   6.511   6.138   0.449 -0.3931  0.3901  0.7650
 3847TIP3   OH211504   0.143   1.700   1.754 -0.1008 -0.7615  0.0029
 3847TIP3    H111505   0.222   1.708   1.700 -0.7723  1.0643 -0.7965
 3847TIP3    H211506   0.168   1.738   1.838 -0.2683  0.4505 -0.4628
 3848TIP3   OH211507   0.482   3.082   4.822  0.2931  0.1120  0.5591
 3848TIP3    H111508   0.553   3.018   4.826  0.1146 -0.3230 -1.6399
 3848TIP3    H211509   0.497   3.139   4.897  2.3363 -0.6036  0.7749
 3849TIP3   OH211510   1.920   0.624   2.061 -0.3576 -0.4139 -0.6474
 3849TIP3    H111511   1.826   0.610   2.065 -0.1277 -2.5266 -1.2436
 3849TIP3    H211512   1.941   0.669   2.143 -2.0732  1.7993 -1.3228
 3850TIP3   OH211513   6.931   6.652   3.499 -0.1410 -0.0483  0.8597
 3850TIP3    H111514   6.871   6.684   3.432  1.3864 -0.1926 -0.6639
 3850TIP3    H211515   6.953   6.563   3.470  1.2742  0.2279  0.9998
 3851TIP3   OH211516   5.418   1.986   5.710  0.3646 -0.3399  0.0287
 3851TIP3    H111517   5.417   2.066   5.657 -0.9242 -0.2383  0.1755
 3851TIP3    H211518   5.457   2.013   5.793 -0.8985  0.3804  0.4161
 3852TIP3   OH211519   2.393   1.158   1.838 -0.2530 -0.4822 -0.0372
 3852TIP3    H111520   2.313   1.108   1.856 -0.0147 -0.2066  2.0032
 3852TIP3    H211521   2.403   1.215   1.914  1.7327 -0.3000 -0.3942
 3853TIP3   OH211522   0.686   5.423   5.112  0.0168  0.0707 -0.0210
 3853TIP3    H111523   0.693   5.415   5.207  1.5385 -0.6323 -0.1627
 3853TIP3    H211524   0.656   5.336   5.083 -0.4156  0.2753 -0.1968
 3854TIP3   OH211525   5.298   3.397   5.233  0.0001  0.3298 -0.4115
 3854TIP3    H111526   5.211   3.372   5.202 -0.2256  0.7153 -0.0860
 3854TIP3    H211527   5.289   3.403   5.328  0.0890  1.4932 -0.4603
 3855TIP3   OH211528   2.377   3.836   5.566 -0.0956 -0.5863 -0.4554
 3855TIP3    H111529   2.398   3.902   5.633 -3.2682 -0.7626  0.8873
 3855TIP3    H211530   2.357   3.887   5.488  0.3713 -0.1552 -0.2980
 3856TIP3   OH211531   2.927   0.210   1.671 -0.2128 -0.3662 -0.6629
 3856TIP3    H111532   2.983   0.223   1.748 -1.1002  0.6140 -0.1502
 3856TIP3    H211533   2.971   0.257   1.601 -0.0807 -0.1080 -0.4106
 3857TIP3   OH211534   0.382   5.214   1.753  0.3558  0.2432  0.0276
 3857TIP3    H111535   0.321   5.284   1.773 -0.2227 -0.5488  1.1471
 3857TIP3    H211536   0.459   5.234   1.807  0.5931  0.5504 -0.4177
 3858TIP3   OH211537   6.248   0.398   1.089 -0.0440  0.1906 -0.0346
 3858TIP3    H111538   6.205   0.333   1.145 -0.0933  0.8799  0.7389
 3858TIP3    H211539   6.291   0.458   1.150  0.2470  0.7231 -0.7473
 3859TIP3   OH211540   6.835   5.135   1.525  0.7901  0.2275 -0.4492
 3859TIP3    H111541   6.911   5.179   1.563  1.2154 -0.5961 -0.2957
 3859TIP3    H211542   6.788   5.203   1.478  1.2228  0.9037  0.0832
 3860TIP3   OH211543   6.288   1.549   3.841 -0.1463  0.3596  0.0079
 3860TIP3    H111544   6.196   1.522   3.831 -0.7124  1.7829  1.1142
 3860TIP3    H211545   6.285   1.644   3.846  1.5664  0.5476 -1.4529
 3861TIP3   OH211546   5.883   0.167   3.879 -0.5151  0.6055 -0.3736
 3861TIP3    H111547   5.920   0.232   3.819  1.1505  0.4164  0.3935
 3861TIP3    H211548   5.815   0.215   3.927  1.1569  2.0449  0.6819
 3862TIP3   OH211549   3.023   2.807   3.837 -0.6731  0.4555 -0.6314
 3862TIP3    H111550   2.999   2.743   3.905 -1.0838  1.5601  0.3085
 3862TIP3    H211551   2.958   2.794   3.768 -0.1000 -0.8568 -0.9436
 3863TIP3   OH211552   5.470   1.440   5.321  0.1250  0.6467  0.2226
 3863TIP3    H111553   5.425   1.466   5.401 -1.5907 -0.2439 -0.3950
 3863TIP3    H211554   5.444   1.505   5.256  1.0536  1.0413  0.2246
 3864TIP3   OH211555   2.280   4.495   3.569  0.1591  0.1920 -0.5808
 3864TIP3    H111556   2.292   4.547   3.648 -0.2392 -2.7271  1.5490
 3864TIP3    H211557   2.269   4.406   3.600 -1.6324 -0.9022 -3.8596
 3865TIP3   OH211558   3.409   6.264   4.678 -0.2578 -0.0479 -0.2951
 3865TIP3    H111559   3.390   6.342   4.626 -1.6519 -0.2607 -0.1512
 3865TIP3    H211560   3.434   6.298   4.764  0.3126  0.2640 -0.5815
 3866TIP3   OH211561   1.530   1.826   1.846  0.1550 -0.1036  0.0427
 3866TIP3    H111562   1.606   1.787   1.889  0.5928  0.6607 -0.0417
 3866TIP3    H211563   1.479   1.750   1.816  0.3205 -0.6325  1.0612
 3867TIP3   OH211564   4.777   0.676   1.379  0.0108 -0.4114  0.0361
 3867TIP3    H111565   4.752   0.584   1.390 -0.4361 -0.3348 -0.2852
 3867TIP3    H211566   4.717   0.708   1.311  0.1929  0.1058  0.1203
 3868TIP3   OH211567   2.840   5.180   5.349  0.3850 -0.0122  0.2411
 3868TIP3    H111568   2.824   5.255   5.406 -0.6505 -0.9486  1.2287
 3868TIP3    H211569   2.898   5.123   5.399 -0.9208 -1.0716  0.6117
 3869TIP3   OH211570   1.867   2.147   3.033 -0.7155  0.0780  0.1132
 3869TIP3    H111571   1.931   2.101   3.087  0.0309  1.1640  0.1789
 3869TIP3    H211572   1.797   2.171   3.093  0.5973  2.2124  0.8856
 3870TIP3   OH211573   4.578   3.164   2.412 -0.2543  0.2971 -0.5504
 3870TIP3    H111574   4.540   3.247   2.384  0.2814  0.5185 -0.6491
 3870TIP3    H211575   4.547   3.101   2.348 -0.8254  0.3841 -0.3608
 3871TIP3   OH211576   4.144   2.399   5.657 -0.6011 -0.0380  0.0466
 3871TIP3    H111577   4.054   2.378   5.683 -1.7070  2.9244 -0.9305
 3871TIP3    H211578   4.177   2.455   5.727  0.7293 -1.4965  0.6362
 3872TIP3   OH211579   6.404   5.005   3.661  0.0622  0.4921  0.1137
 3872TIP3    H111580   6.403   5.079   3.600 -1.4238  1.0395  0.7469
 3872TIP3    H211581   6.382   4.929   3.607  1.7224  0.4655 -0.5647
 3873TIP3   OH211582   6.070   4.972   5.538 -0.0331  0.3485  0.3374
 3873TIP3    H111583   6.104   4.970   5.628  1.2729 -0.2215 -0.1474
 3873TIP3    H211584   6.101   4.890   5.499 -1.3077  0.1950 -0.3829
 3874TIP3   OH211585   1.912   4.634   5.462 -0.3476 -0.5792 -0.5502
 3874TIP3    H111586   1.915   4.727   5.438  0.6393 -0.6731 -0.8440
 3874TIP3    H211587   1.999   4.601   5.439 -0.9937 -1.8022 -1.3452
 3875TIP3   OH211588   4.606   1.703   0.629  0.4482  0.4197 -0.1908
 3875TIP3    H111589   4.561   1.732   0.550  1.9902 -0.4102 -1.4403
 3875TIP3    H211590   4.622   1.783   0.678 -0.4011  0.9697 -0.7811
 3876TIP3   OH211591   2.533   4.870   5.208  0.1298  0.1452  0.5467
 3876TIP3    H111592   2.606   4.815   5.182 -1.4241 -2.2955  1.0087
 3876TIP3    H211593   2.541   4.949   5.154  2.0737 -0.8164 -0.6519
 3877TIP3   OH211594   0.411   5.223   2.182  0.4637 -0.4426 -0.1109
 3877TIP3    H111595   0.489   5.278   2.194 -0.1228 -0.0701  2.5513
 3877TIP3    H211596   0.354   5.274   2.125  1.1416  0.4004 -0.0473
 3878TIP3   OH211597   5.085   0.341   1.705 -0.1359 -0.2088 -0.3099
 3878TIP3    H111598   5.001   0.380   1.680 -0.9181 -0.7512  1.3285
 3878TIP3    H211599   5.137   0.343   1.625 -0.7528  2.5606 -0.7499
 3879TIP3   OH211600   1.056   1.217   4.042  0.1101  0.0764  0.4944
 3879TIP3    H111601   1.081   1.125   4.039 -0.5075 -0.1836  2.4299
 3879TIP3    H211602   1.135   1.262   4.074  0.1545  0.1240  0.3207
 3880TIP3   OH211603   1.906   1.546   5.701 -0.3017 -0.4557 -0.4556
 3880TIP3    H111604   1.839   1.478   5.706 -0.1570 -0.5572  0.1528
 3880TIP3    H211605   1.859   1.627   5.715 -0.5863 -0.3481 -1.8398
 3881TIP3   OH211606   3.956   2.417   4.191  0.4549  0.6999  0.6277
 3881TIP3    H111607   3.930   2.334   4.151  0.6481  0.4526  1.0090
 3881TIP3    H211608   3.989   2.393   4.277 -0.3956  1.2766  1.1220
 3882TIP3   OH211609   6.216   6.360   0.124 -0.3246 -0.5228  0.0765
 3882TIP3    H111610   6.229   6.386   0.215 -0.2481  0.5409 -0.2205
 3882TIP3    H211611   6.168   6.434   0.085 -0.5459 -1.0603 -0.6891
 3883TIP3   OH211612   0.526   2.286   4.465  0.1608  0.1719  0.6089
 3883TIP3    H111613   0.559   2.258   4.551  1.2307 -0.3671  0.0504
 3883TIP3    H211614   0.603   2.283   4.408 -0.6389 -0.0024 -0.5003
 3884TIP3   OH211615   2.173   2.669   2.854  0.2399 -0.2631 -0.0459
 3884TIP3    H111616   2.239   2.691   2.788  1.4555 -0.5912  1.0412
 3884TIP3    H211617   2.090   2.676   2.806  0.9902  0.7124 -1.2951
 3885TIP3   OH211618   4.054   6.730   4.837 -0.3487 -0.1994 -0.2618
 3885TIP3    H111619   4.074   6.744   4.930  0.3048 -0.7301 -0.3096
 3885TIP3    H211620   3.994   6.801   4.814  1.9944  1.9369 -0.2382
 3886TIP3   OH211621   7.049   5.980   5.329  0.2037 -0.5209  0.2785
 3886TIP3    H111622   7.027   6.004   5.239 -1.3621 -0.9104  0.5353
 3886TIP3    H211623   7.090   5.894   5.321 -0.5626 -0.8690 -0.0167
 3887TIP3   OH211624   4.461   3.219   0.120  0.6715 -1.0354  0.1433
 3887TIP3    H111625   4.397   3.288   0.136 -1.1937 -2.8135  0.6120
 3887TIP3    H211626   4.546   3.262   0.135 -0.2651  1.6885 -1.6246
 3888TIP3   OH211627   1.313   0.706   1.991  0.0525  0.4578 -0.6867
 3888TIP3    H111628   1.398   0.748   1.999 -1.3169  3.5514 -0.9943
 3888TIP3    H211629   1.252   0.766   2.035 -1.9252 -1.9115  0.0331
 3889TIP3   OH211630   2.680   4.406   5.878 -0.2218  0.1184  0.0043
 3889TIP3    H111631   2.768   4.373   5.894  0.1822  0.8533 -0.6708
 3889TIP3    H211632   2.691   4.476   5.814 -1.2866  0.2767 -0.0288
 3890TIP3   OH211633   6.263   1.285   5.349 -1.1824  0.4477 -0.1709
 3890TIP3    H111634   6.180   1.309   5.308 -1.2279  0.8373  0.1488
 3890TIP3    H211635   6.312   1.242   5.279 -2.6230 -2.1227  0.2546
 3891TIP3   OH211636   3.613   4.317   3.455 -0.1328  0.4550  0.3038
 3891TIP3    H111637   3.663   4.392   3.486  0.6571  0.1931 -0.2889
 3891TIP3    H211638   3.675   4.268   3.400 -0.9342 -0.0752 -0.1532
 3892TIP3   OH211639   0.473   2.981   4.390  0.1867 -0.3375 -0.5356
 3892TIP3    H111640   0.398   3.025   4.431  0.1520  0.2038 -1.1643
 3892TIP3    H211641   0.446   2.890   4.383  0.1490 -0.4254  0.5304
 3893TIP3   OH211642   4.824   2.741   0.500  0.1268  0.1498 -0.2337
 3893TIP3    H111643   4.798   2.702   0.417 -0.9762  2.0938 -0.8778
 3893TIP3    H211644   4.755   2.713   0.561 -0.1841  0.3746 -0.4762
 3894TIP3   OH211645   4.437   2.461   5.181  0.3205  0.0284 -0.5453
 3894TIP3    H111646   4.471   2.536   5.131  1.7189  0.5874  1.1463
 3894TIP3    H211647   4.474   2.384   5.137  0.5942  0.4354 -1.0406
 3895TIP3   OH211648   3.308   4.954   1.652  0.4491  0.8786 -0.0859
 3895TIP3    H111649   3.253   5.027   1.684 -1.5851 -0.5551 -0.1272
 3895TIP3    H211650   3.382   4.952   1.712 -0.4236  1.8074  1.0692
 3896TIP3   OH211651   6.106   2.292   2.912  0.4834  0.6830 -0.0078
 3896TIP3    H111652   6.147   2.258   2.833 -0.1721  1.4229 -0.6810
 3896TIP3    H211653   6.158   2.369   2.935  0.9776  0.1892  0.5876
 3897TIP3   OH211654   5.225   6.122   0.720  0.6770  0.2228 -0.1514
 3897TIP3    H111655   5.189   6.083   0.641  1.1127  0.0275 -0.2555
 3897TIP3    H211656   5.308   6.076   0.734  0.3630 -0.1085  0.7037
 3898TIP3   OH211657   4.123   1.743   0.348 -0.6450  0.5309  0.5350
 3898TIP3    H111658   4.161   1.655   0.355 -1.5476  0.0967  0.1595
 3898TIP3    H211659   4.189   1.801   0.385  0.6277 -0.1346 -0.6067
 3899TIP3   OH211660   1.833   6.097   1.288  0.1524 -0.1667  0.0151
 3899TIP3    H111661   1.909   6.123   1.236  0.2158 -1.9007 -0.8403
 3899TIP3    H211662   1.870   6.045   1.359 -0.1478 -0.1184  0.2075
 3900TIP3   OH211663   4.604   6.215   2.015 -0.1375 -0.3604 -0.4597
 3900TIP3    H111664   4.570   6.245   1.931 -0.2406  0.2315 -0.2133
 3900TIP3    H211665   4.554   6.136   2.034 -1.0954  0.2544 -0.3140
 3901TIP3   OH211666   1.208   2.319   3.602 -0.0550 -0.1571  0.3077
 3901TIP3    H111667   1.247   2.256   3.542  2.3009 -0.3995  1.9593
 3901TIP3    H211668   1.261   2.398   3.590 -2.1613  1.1847 -0.8034
 3902TIP3   OH211669   0.941   6.084   2.002 -0.1220 -0.0984 -0.3752
 3902TIP3    H111670   1.018   6.027   2.001  1.3593  1.8177 -0.3790
 3902TIP3    H211671   0.903   6.073   1.915  0.7335 -0.3009 -0.7378
 3903TIP3   OH211672   5.106   1.417   3.206 -0.1073  0.2785 -0.1588
 3903TIP3    H111673   5.085   1.329   3.237 -1.4383  0.2494 -1.0753
 3903TIP3    H211674   5.186   1.440   3.254 -0.6420 -0.7634  1.3258
 3904TIP3   OH211675   0.121   4.828   2.488 -0.2518 -0.4506  0.4051
 3904TIP3    H111676   0.193   4.888   2.507 -0.6715  0.4985 -0.8914
 3904TIP3    H211677   0.133   4.803   2.397 -0.5973 -1.6607  0.6724
 3905TIP3   OH211678   6.373   4.153   1.113  0.1941 -0.3193  0.6547
 3905TIP3    H111679   6.390   4.129   1.204  0.4853 -1.2732  0.3612
 3905TIP3    H211680   6.458   4.180   1.079  0.1217 -0.1450  0.6130
 3906TIP3   OH211681   0.425   4.314   2.633  0.2424 -0.7983  0.1260
 3906TIP3    H111682   0.508   4.355   2.658  0.4300 -1.2673  0.2872
 3906TIP3    H211683   0.365   4.335   2.705 -0.6570  2.0071 -1.2811
 3907TIP3   OH211684   5.094   2.383   4.021  0.1256  0.0395 -0.1727
 3907TIP3    H111685   5.174   2.420   4.059  0.4334 -0.3713 -0.4166
 3907TIP3    H211686   5.032   2.380   4.095  1.0151 -1.6144  0.5575
 3908TIP3   OH211687   3.381   2.691   4.941  0.0956  0.2787  0.0045
 3908TIP3    H111688   3.350   2.657   5.025  0.6840  0.5395  0.3330
 3908TIP3    H211689   3.407   2.612   4.892 -0.9671  0.0673 -0.2364
 3909TIP3   OH211690   4.733   4.501   3.047 -0.6049  0.1415  0.0806
 3909TIP3    H111691   4.809   4.559   3.037  1.3224 -2.4099 -1.0104
 3909TIP3    H211692   4.721   4.495   3.142  1.9522 -0.9868  0.4230
 3910TIP3   OH211693   5.066   4.617   0.605 -0.2338  0.1970  0.0125
 3910TIP3    H111694   5.105   4.677   0.669 -0.0500  0.5451 -0.4130
 3910TIP3    H211695   5.101   4.647   0.521 -0.2187 -0.4507 -0.2189
 3911TIP3   OH211696   6.998   3.858   4.359  0.5053 -0.3891  0.4298
 3911TIP3    H111697   7.007   3.907   4.441  0.4533 -0.0511  0.2318
 3911TIP3    H211698   7.034   3.916   4.292 -0.0662 -0.3966  0.1175
 3912TIP3   OH211699   6.455   0.041   5.095 -0.5275 -0.4984  0.0669
 3912TIP3    H111700   6.495   0.060   5.180  0.1789 -0.5824 -0.2309
 3912TIP3    H211701   6.404   0.119   5.073 -0.4459 -0.3457  0.4164
 3913TIP3   OH211702   2.545   2.678   0.557  0.4871  0.1131 -0.6504
 3913TIP3    H111703   2.496   2.606   0.518 -0.5020  0.6434 -0.4144
 3913TIP3    H211704   2.604   2.636   0.620 -1.1419 -0.4029  0.6003
 3914TIP3   OH211705   6.946   6.400   1.718  0.4928  0.0839 -0.3801
 3914TIP3    H111706   7.010   6.460   1.757 -0.1486 -0.0290  0.9123
 3914TIP3    H211707   6.924   6.439   1.634  0.2319  1.5859  0.3468
 3915TIP3   OH211708   4.780   5.069   2.612  0.4978  0.4092  0.2103
 3915TIP3    H111709   4.867   5.070   2.572 -0.0920  1.2039 -1.1262
 3915TIP3    H211710   4.790   5.122   2.691  1.7869 -1.5213  1.4292
 3916TIP3   OH211711   0.469   1.118   2.093 -0.6518 -0.0065 -0.5511
 3916TIP3    H111712   0.476   1.185   2.024 -2.0825 -0.4928 -1.2281
 3916TIP3    H211713   0.524   1.046   2.062  0.4121  0.5970 -0.1154
 3917TIP3   OH211714   5.830   6.366   2.932  0.7757 -0.5600  0.5186
 3917TIP3    H111715   5.873   6.303   2.990  0.4162 -1.8002 -0.5129
 3917TIP3    H211716   5.749   6.389   2.977 -0.8358 -3.5508 -0.5545
 3918TIP3   OH211717   3.672   1.619   2.803 -0.3286  0.0075 -0.4016
 3918TIP3    H111718   3.670   1.648   2.712  1.8486  2.7839  0.3065
 3918TIP3    H211719   3.720   1.536   2.800 -1.3024 -0.5493 -1.8576
 3919TIP3   OH211720   5.075   3.822   3.087 -0.4457  0.0211 -0.2735
 3919TIP3    H111721   5.045   3.864   3.007 -1.0356 -0.9338 -0.5626
 3919TIP3    H211722   5.066   3.729   3.071 -0.8683 -0.1867  1.0104
 3920TIP3   OH211723   4.551   4.617   5.242 -0.2703 -0.1542 -0.1673
 3920TIP3    H111724   4.484   4.685   5.253 -0.3449 -0.1592 -0.5913
 3920TIP3    H211725   4.505   4.535   5.261 -0.4505 -0.1802 -0.7101
 3921TIP3   OH211726   4.572   0.344   1.004 -0.0587 -0.1514 -0.6049
 3921TIP3    H111727   4.551   0.252   1.016 -0.9646 -0.0943 -1.5472
 3921TIP3    H211728   4.668   0.347   1.002  0.0968 -0.6766  2.0818
 3922TIP3   OH211729   1.176   0.102   2.715  0.2840  0.2909  0.0137
 3922TIP3    H111730   1.204   0.146   2.795 -0.6207  0.5811  0.1738
 3922TIP3    H211731   1.223   0.018   2.717  0.7719  0.5661  0.5131
 3923TIP3   OH211732   3.226   2.900   1.671  0.6937 -0.3478 -0.0497
 3923TIP3    H111733   3.215   2.992   1.648  4.0250  0.3535  0.6043
 3923TIP3    H211734   3.169   2.853   1.610 -1.2762  2.0902 -0.2541
 3924TIP3   OH211735   3.482   1.345   0.980 -0.1066 -0.5551  0.5487
 3924TIP3    H111736   3.502   1.282   1.048  0.1439 -0.7950  0.2595
 3924TIP3    H211737   3.392   1.326   0.954  0.7354 -2.4740 -1.2768
 3925TIP3   OH211738   2.829   1.843   1.495  0.4258 -0.8112  0.3452
 3925TIP3    H111739   2.865   1.932   1.494  1.5411 -1.2405  0.9580
 3925TIP3    H211740   2.743   1.853   1.537 -0.6818  0.3798 -1.9904
 3926TIP3   OH211741   4.672   1.283   4.551  0.0022  0.3699 -0.4706
 3926TIP3    H111742   4.712   1.351   4.496  0.3683  0.4199 -0.1473
 3926TIP3    H211743   4.732   1.275   4.625  0.6241 -1.1911 -1.1024
 3927TIP3   OH211744   6.093   6.074   5.626 -0.1177  0.1875 -0.3045
 3927TIP3    H111745   6.026   6.090   5.559 -0.7419  1.2467  0.5371
 3927TIP3    H211746   6.142   5.998   5.593 -1.8898 -0.7919 -0.8120
 3928TIP3   OH211747   2.685   5.847   5.100  0.5116  0.4029  0.5440
 3928TIP3    H111748   2.730   5.827   5.017 -0.4111 -0.6958  0.2924
 3928TIP3    H211749   2.742   5.810   5.167  1.0440  0.9126  0.3872
 3929TIP3   OH211750   5.314   2.422   2.464 -0.0904 -0.2354  0.2820
 3929TIP3    H111751   5.316   2.438   2.370  0.1931  0.4097  0.3949
 3929TIP3    H211752   5.221   2.417   2.486 -0.1628  0.0898  0.0454
 3930TIP3   OH211753   5.076   5.202   4.748 -0.2915 -0.8390 -0.6833
 3930TIP3    H111754   5.004   5.141   4.731 -2.1105  0.9644  0.1538
 3930TIP3    H211755   5.075   5.214   4.843  0.0414  0.4415 -0.8221
 3931TIP3   OH211756   6.209   2.945   0.775 -0.0513  0.6163  0.5284
 3931TIP3    H111757   6.141   2.984   0.829 -1.2875  0.0668 -0.5924
 3931TIP3    H211758   6.163   2.882   0.719  1.6683 -1.6054  1.4250
 3932TIP3   OH211759   4.588   6.638   3.652  0.4607  0.4893  0.4491
 3932TIP3    H111760   4.638   6.567   3.694  0.1019 -0.0574 -0.0277
 3932TIP3    H211761   4.621   6.718   3.693  0.1575 -0.0231  1.7444
 3933TIP3   OH211762   4.831   1.681   4.152  0.7302  0.0736  0.1157
 3933TIP3    H111763   4.821   1.585   4.151  0.1545  0.1327 -0.3607
 3933TIP3    H211764   4.794   1.709   4.068  2.6622  0.5413 -0.6418
 3934TIP3   OH211765   3.732   4.231   0.727 -0.4055  0.4981 -0.3418
 3934TIP3    H111766   3.812   4.179   0.720 -1.4336 -1.1339 -0.4850
 3934TIP3    H211767   3.759   4.312   0.770  1.3515  0.0791 -0.6045
 3935TIP3   OH211768   1.335   3.589   3.596  0.3226  0.1692  0.4050
 3935TIP3    H111769   1.270   3.637   3.546  0.5627 -0.1818 -0.2575
 3935TIP3    H211770   1.412   3.585   3.539 -0.7435 -3.9518 -1.1232
 3936TIP3   OH211771   4.059   4.968   0.288  0.1878  0.4031  0.7306
 3936TIP3    H111772   4.129   5.008   0.236  1.5038 -0.1846  1.9849
 3936TIP3    H211773   4.103   4.900   0.339 -1.1191  0.6910  2.3080
 3937TIP3   OH211774   4.276   6.034   3.717  0.3259 -0.0808 -0.1886
 3937TIP3    H111775   4.255   6.065   3.805  2.0119  2.9313 -0.7011
 3937TIP3    H211776   4.213   6.079   3.661 -1.2472 -2.5663 -0.5974
 3938TIP3   OH211777   4.037   6.605   3.617  0.0772 -0.0695  0.3138
 3938TIP3    H111778   4.008   6.685   3.660  1.0679  1.2022 -1.2545
 3938TIP3    H211779   3.983   6.600   3.538  1.2286  0.0515 -0.5012
 3939TIP3   OH211780   3.603   0.133   4.080  0.1349  0.2637  0.3425
 3939TIP3    H111781   3.514   0.124   4.115 -0.3671  2.1532 -0.3332
 3939TIP3    H211782   3.597   0.204   4.017  2.1686  0.4986  0.3423
 3940TIP3   OH211783   5.846   4.576   5.254  0.3451 -0.6738  0.6741
 3940TIP3    H111784   5.794   4.648   5.219  2.3428 -0.4864 -2.3231
 3940TIP3    H211785   5.786   4.529   5.311 -2.1007  1.3058 -0.0555
 3941TIP3   OH211786   1.476   0.947   2.248 -0.0328 -0.0374  0.0859
 3941TIP3    H111787   1.404   0.929   2.309 -0.5877 -1.1974 -0.8677
 3941TIP3    H211788   1.493   1.041   2.258 -1.9398  0.3500  0.0643
 3942TIP3   OH211789   4.404   1.316   4.612 -0.4141  0.3755 -0.4821
 3942TIP3    H111790   4.396   1.257   4.687 -0.2884  0.2634 -0.5541
 3942TIP3    H211791   4.495   1.306   4.584 -0.2700  0.9497 -0.2160
 3943TIP3   OH211792   5.450   0.008   4.712 -0.5152  0.5584 -0.6393
 3943TIP3    H111793   5.396   0.084   4.731 -0.5621  0.4295 -0.2437
 3943TIP3    H211794   5.502  -0.005   4.791 -1.1385 -0.3475 -0.3666
 3944TIP3   OH211795   0.066   1.337   0.853 -0.6697  0.1230  0.1824
 3944TIP3    H111796   0.134   1.393   0.816  0.1594 -0.2163  1.1405
 3944TIP3    H211797   0.050   1.271   0.785 -0.1298  0.2882 -0.1143
 3945TIP3   OH211798   1.585   6.781   3.304 -0.7799  0.0923  0.5036
 3945TIP3    H111799   1.532   6.704   3.286 -1.8046  0.8008  0.3978
 3945TIP3    H211800   1.621   6.807   3.219 -0.5913 -0.1483  0.5086
 3946TIP3   OH211801   4.858   0.674   2.139 -0.4596  0.4635  0.0087
 3946TIP3    H111802   4.859   0.741   2.208  0.4157  2.0739 -1.4941
 3946TIP3    H211803   4.944   0.681   2.098 -1.6457  1.0350 -2.5776
 3947TIP3   OH211804   4.734   2.823   3.091 -0.6440  0.4289 -0.5375
 3947TIP3    H111805   4.667   2.844   3.026 -1.1054  1.9787  0.3809
 3947TIP3    H211806   4.706   2.870   3.170  1.5127  1.0941 -0.1006
 3948TIP3   OH211807   1.385   2.438   5.085  0.0873 -0.4841  0.8709
 3948TIP3    H111808   1.304   2.486   5.099  0.3446 -0.2854  1.7342
 3948TIP3    H211809   1.430   2.441   5.169  1.4553  0.2774  0.1465
 3949TIP3   OH211810   5.916   2.938   0.912 -0.8593 -0.0443 -0.7320
 3949TIP3    H111811   5.845   2.910   0.970 -0.2227  1.3688  0.7986
 3949TIP3    H211812   5.966   2.858   0.895 -1.3092 -0.5702  0.3270
 3950TIP3   OH211813   2.646   1.197   5.194 -0.0393 -0.5532  0.5823
 3950TIP3    H111814   2.581   1.153   5.250 -0.1066 -2.8072 -1.1295
 3950TIP3    H211815   2.609   1.284   5.179 -1.8927 -1.2269  0.9448
 3951TIP3   OH211816   2.395   0.325   5.184 -0.0135 -0.1525 -0.7307
 3951TIP3    H111817   2.314   0.346   5.137 -0.4612 -1.1890 -0.4555
 3951TIP3    H211818   2.441   0.265   5.125  0.1176 -0.2898 -0.4872
 3952TIP3   OH211819   4.657   5.640   0.466  0.1659 -0.1143  0.6397
 3952TIP3    H111820   4.712   5.663   0.391 -0.8679  1.6860  0.3756
 3952TIP3    H211821   4.708   5.576   0.515  0.8945 -1.2925 -1.5482
 3953TIP3   OH211822   2.672   5.026   3.748 -0.8612  0.3165  0.1340
 3953TIP3    H111823   2.709   4.999   3.664  1.4690 -2.0658  1.7364
 3953TIP3    H211824   2.739   5.083   3.785 -1.1875  0.1801  0.9421
 3954TIP3   OH211825   0.503   4.575   0.457  0.7925 -0.5042 -0.2710
 3954TIP3    H111826   0.568   4.505   0.452  1.0273 -0.3495  0.5391
 3954TIP3    H211827   0.478   4.590   0.366  2.4157 -0.0878 -0.6830
 3955TIP3   OH211828   1.764   0.999   1.899  0.4319 -0.1195 -0.5054
 3955TIP3    H111829   1.827   0.934   1.869  0.5209  0.4707 -1.6453
 3955TIP3    H211830   1.756   1.060   1.826  0.1541  1.0060  0.4402
 3956TIP3   OH211831   5.657   4.196   4.435 -0.1275  0.2173  0.0637
 3956TIP3    H111832   5.711   4.139   4.381 -0.9604 -0.4802 -0.0606
 3956TIP3    H211833   5.709   4.211   4.514  1.0736  1.1898 -0.8755
 3957TIP3   OH211834   4.858   1.974   1.026  0.0983  0.0415 -0.0364
 3957TIP3    H111835   4.891   2.051   1.073 -2.7915  0.6107  1.2787
 3957TIP3    H211836   4.925   1.908   1.040  1.9496  1.8366  0.1239
 3958TIP3   OH211837   5.094   5.832   5.811  0.2875  0.7856 -0.2185
 3958TIP3    H111838   5.164   5.769   5.796 -0.0112  0.3732  0.1078
 3958TIP3    H211839   5.084   5.835   5.906 -0.0019  0.9912 -0.2539
 3959TIP3   OH211840   2.894   1.138   2.124  0.6438  0.3877 -0.0188
 3959TIP3    H111841   2.900   1.061   2.181  0.4051 -1.8654 -2.8139
 3959TIP3    H211842   2.984   1.171   2.119  1.1308 -0.9065 -0.2692
 3960TIP3   OH211843   0.224   3.456   5.181  0.2226  0.3234 -0.5119
 3960TIP3    H111844   0.306   3.493   5.214  0.1960 -0.0134 -0.0732
 3960TIP3    H211845   0.206   3.507   5.102  1.5669 -0.5049 -1.3940
 3961TIP3   OH211846   5.782   1.119   3.835 -0.3254  0.1828 -0.2564
 3961TIP3    H111847   5.792   1.084   3.924 -0.6333 -0.3158 -0.4166
 3961TIP3    H211848   5.705   1.175   3.839 -0.2532  0.2774 -0.1764
 3962TIP3   OH211849   3.718   0.735   1.861  0.5077 -0.0338 -0.3528
 3962TIP3    H111850   3.765   0.782   1.792 -0.2415  2.2445  0.6049
 3962TIP3    H211851   3.689   0.654   1.819  2.2112  0.1190 -1.9666
 3963TIP3   OH211852   4.607   0.883   2.120  0.4679 -0.6283 -0.4560
 3963TIP3    H111853   4.674   0.822   2.150  0.4768  0.4138  1.8918
 3963TIP3    H211854   4.524   0.841   2.142  0.4749  0.1618  1.2387
 3964TIP3   OH211855   3.292   6.282   2.690 -0.3147 -0.1645  0.2002
 3964TIP3    H111856   3.299   6.264   2.784  0.5585 -0.3589  0.1078
 3964TIP3    H211857   3.202   6.258   2.667  0.0254 -1.9538  0.5979
 3965TIP3   OH211858   5.442   0.377   2.721 -0.2029 -0.2548 -0.2836
 3965TIP3    H111859   5.379   0.305   2.718 -0.2887 -0.1995  0.1594
 3965TIP3    H211860   5.463   0.387   2.814 -0.7592  0.7806 -0.2562
 3966TIP3   OH211861   3.038   2.671   0.860  0.2874  0.0682 -0.4541
 3966TIP3    H111862   3.041   2.585   0.818 -0.2263 -0.6815  0.9538
 3966TIP3    H211863   2.946   2.681   0.886  0.4337  0.8553 -0.2147
 3967TIP3   OH211864   1.070   1.237   2.590  0.5767 -0.0142  0.0930
 3967TIP3    H111865   1.161   1.206   2.596  0.0948 -1.1938  2.9423
 3967TIP3    H211866   1.017   1.158   2.590 -0.5236  0.6775  1.6976
 3968TIP3   OH211867   4.293   3.102   5.648 -0.1619  0.1034  0.0969
 3968TIP3    H111868   4.243   3.074   5.725  1.2886 -1.2741  0.5968
 3968TIP3    H211869   4.299   3.024   5.593  2.9206 -0.3909  0.9383
 3969TIP3   OH211870   5.136   4.518   0.148 -0.0681 -0.1847  0.7082
 3969TIP3    H111871   5.197   4.445   0.157  1.0172  0.3068 -1.8957
 3969TIP3    H211872   5.051   4.477   0.132  0.5038 -0.9096 -0.5816
 3970TIP3   OH211873   5.384   0.963   1.249 -0.0324  0.7168  0.0299
 3970TIP3    H111874   5.472   0.936   1.278 -0.0178  0.2580 -0.4387
 3970TIP3    H211875   5.325   0.921   1.311  0.0552  0.6564  0.0734
 3971TIP3   OH211876   2.310   3.572   5.322 -0.6787 -0.2692 -0.2940
 3971TIP3    H111877   2.236   3.545   5.377 -1.8369  2.0044 -0.6167
 3971TIP3    H211878   2.295   3.527   5.239 -0.9327 -0.8844  0.0767
 3972TIP3   OH211879   4.992   2.002   4.481  0.1827  0.0766 -0.0406
 3972TIP3    H111880   5.039   1.922   4.455  1.5092  0.4730  1.0482
 3972TIP3    H211881   4.953   1.980   4.566  0.8409  0.6862  0.4278
 3973TIP3   OH211882  -0.005   4.036   3.093 -0.3409 -0.0176 -0.5069
 3973TIP3    H111883   0.058   4.026   3.165 -1.4361  0.3237  0.5341
 3973TIP3    H211884   0.007   3.958   3.040  0.0449 -0.6053  0.4168
 3974TIP3   OH211885   2.456   5.771   5.210  0.1137 -0.3987  0.1342
 3974TIP3    H111886   2.543   5.801   5.184  0.8859 -0.6471  2.2681
 3974TIP3    H211887   2.446   5.801   5.300 -3.1121  1.9083 -0.7983
 3975TIP3   OH211888   3.764   3.050   2.964 -0.2494  0.3858  0.8326
 3975TIP3    H111889   3.745   3.035   2.872  2.1561  3.8011 -0.4203
 3975TIP3    H211890   3.823   2.979   2.989 -1.0627 -0.6698 -0.1704
 3976TIP3   OH211891   6.793   0.927   4.747 -0.7994  0.5578  0.2389
 3976TIP3    H111892   6.754   0.870   4.680  1.0206  1.5860 -1.8192
 3976TIP3    H211893   6.800   1.012   4.704  1.6390  0.9495  1.2607
 3977TIP3   OH211894   6.304   2.269   2.689 -0.0402 -0.0422 -0.3628
 3977TIP3    H111895   6.316   2.364   2.692 -0.1132  0.1314 -2.9332
 3977TIP3    H211896   6.389   2.233   2.714  0.5435  0.7721 -1.0886
 3978TIP3   OH211897   2.911   6.535   0.860  0.3877  0.1616 -0.8356
 3978TIP3    H111898   2.847   6.503   0.796 -0.9329  1.0895 -0.0335
 3978TIP3    H211899   2.889   6.628   0.871  0.7446  0.0778  0.7726
 3979TIP3   OH211900   0.994   4.066   1.386  0.2826  0.3480  0.0671
 3979TIP3    H111901   0.930   4.040   1.319  1.0855  0.0695 -0.6018
 3979TIP3    H211902   0.972   4.157   1.406  0.2208  0.5222 -0.7821
 3980TIP3   OH211903   0.302   2.291   1.161 -0.2906  0.5514  0.4439
 3980TIP3    H111904   0.209   2.299   1.183 -0.7915 -0.1995 -1.2371
 3980TIP3    H211905   0.310   2.335   1.076  0.4537 -1.1756 -0.4175
 3981TIP3   OH211906   2.958   2.524   0.379  0.0370 -0.9291  0.2976
 3981TIP3    H111907   2.870   2.491   0.397  0.0402 -0.4313  1.2392
 3981TIP3    H211908   2.978   2.582   0.452  0.5128  0.2286 -0.7158
 3982TIP3   OH211909   2.774   6.438   1.666 -0.5259 -0.6341  0.4389
 3982TIP3    H111910   2.786   6.343   1.672  1.4676 -0.4353  0.0672
 3982TIP3    H211911   2.835   6.466   1.598  0.2432  1.1396  1.7742
 3983TIP3   OH211912   5.111   5.469   4.712  0.5306 -0.4308 -0.4210
 3983TIP3    H111913   5.132   5.376   4.711 -0.6560 -0.8924  3.4896
 3983TIP3    H211914   5.040   5.478   4.648  0.9590 -2.0989 -1.1744
 3984TIP3   OH211915   5.828   4.116   0.342  0.2560  0.1819 -0.0828
 3984TIP3    H111916   5.839   4.186   0.278 -1.3959  0.7853  0.2331
 3984TIP3    H211917   5.848   4.158   0.426 -0.8396  0.3214  0.1174
 3985TIP3   OH211918   6.897   1.988   5.284 -0.0515  0.1720  0.1354
 3985TIP3    H111919   6.893   2.053   5.214  0.3193 -0.2756 -0.3069
 3985TIP3    H211920   6.848   2.028   5.357 -1.3055  0.2349 -0.7077
 3986TIP3   OH211921   2.705   6.545   2.147  0.6474 -0.0353  0.0220
 3986TIP3    H111922   2.679   6.553   2.056  1.2869  0.5818 -0.1174
 3986TIP3    H211923   2.731   6.453   2.157 -0.9939 -0.5274  0.0268
 3987TIP3   OH211924   0.879   6.119   0.843  0.1182 -0.6026 -0.3366
 3987TIP3    H111925   0.818   6.183   0.879 -0.0446 -0.5471 -0.7160
 3987TIP3    H211926   0.892   6.057   0.915  0.3565 -0.0941  0.0646
 3988TIP3   OH211927   2.439   1.247   1.596  0.7104  0.1654  0.0797
 3988TIP3    H111928   2.378   1.321   1.597 -0.3941 -0.6970 -0.6354
 3988TIP3    H211929   2.437   1.212   1.685  0.5600  0.4606  0.1908
 3989TIP3   OH211930   2.739   3.135   0.041  0.2256  0.3613  0.3622
 3989TIP3    H111931   2.823   3.157   0.082 -0.6122  1.3723  1.5937
 3989TIP3    H211932   2.674   3.180   0.094 -0.9974  0.9155 -1.5204
 3990TIP3   OH211933   0.384   3.239   2.117 -0.3416  0.0946 -0.0984
 3990TIP3    H111934   0.312   3.239   2.181  0.9776  1.9213  1.5027
 3990TIP3    H211935   0.445   3.173   2.149  0.4795  1.2433  0.7969
 3991TIP3   OH211936   1.477   4.590   4.462  0.1173  0.7850 -0.8501
 3991TIP3    H111937   1.410   4.598   4.529  0.1548 -0.5410 -0.6368
 3991TIP3    H211938   1.462   4.505   4.422  1.1145  0.8523 -1.4171
 3992TIP3   OH211939   3.062   4.644   0.215 -0.2273  0.1894 -0.2400
 3992TIP3    H111940   3.070   4.623   0.122  0.8369  3.5364 -1.0501
 3992TIP3    H211941   3.143   4.610   0.254  1.1110  1.9761 -1.3322
 3993TIP3   OH211942   4.748   0.942   4.895 -0.4658 -0.5311 -0.7669
 3993TIP3    H111943   4.785   0.857   4.875 -0.8305 -0.8229 -0.2387
 3993TIP3    H211944   4.659   0.939   4.860 -1.2957 -1.2444  1.2582
 3994TIP3   OH211945   4.506   5.786   1.760  0.1576  0.0684 -0.3146
 3994TIP3    H111946   4.526   5.843   1.834  1.8448  0.0777 -0.7397
 3994TIP3    H211947   4.430   5.735   1.789  0.7121  0.1538  1.3839
 3995TIP3   OH211948   4.048   1.667   3.811  0.2047 -0.0205  0.1240
 3995TIP3    H111949   4.101   1.652   3.733  0.0174  0.9904 -0.2068
 3995TIP3    H211950   3.979   1.727   3.783 -1.0040 -1.1169  0.5926
 3996TIP3   OH211951   6.178   2.619   5.288  0.4804 -0.4531  0.0079
 3996TIP3    H111952   6.090   2.649   5.309  0.5120 -1.8681  2.5971
 3996TIP3    H211953   6.165   2.536   5.242  0.4769  0.1045 -1.0240
 3997TIP3   OH211954   2.397   3.720   1.004  0.4516  0.4605  0.0963
 3997TIP3    H111955   2.327   3.757   0.950  0.5812  0.1037 -0.3217
 3997TIP3    H211956   2.410   3.785   1.073 -0.9065  0.1300  0.7105
 3998TIP3   OH211957   3.081   2.795   1.276  0.4028 -0.4821 -0.0236
 3998TIP3    H111958   3.105   2.709   1.244  1.8310  0.2751 -1.1164
 3998TIP3    H211959   3.112   2.855   1.208 -0.0573  0.9246  0.9664
 3999TIP3   OH211960   1.509   2.804   1.254 -0.1333  0.3434  0.0608
 3999TIP3    H111961   1.472   2.893   1.253  0.9221  0.7942  0.0859
 3999TIP3    H211962   1.492   2.771   1.166  0.9421  1.2100 -0.4952
 4000TIP3   OH211963   5.563   2.680   2.972 -0.2873  0.5827 -0.1791
 4000TIP3    H111964   5.601   2.754   3.020  1.1473  0.8805 -1.6750
 4000TIP3    H211965   5.639   2.631   2.940 -1.2063 -0.3918 -0.9550
 4001TIP3   OH211966   7.231   0.142   0.882 -0.1386 -0.0097 -0.0044
 4001TIP3    H111967   7.233   0.065   0.825  0.6127  0.7025 -0.9734
 4001TIP3    H211968   7.150   0.133   0.932 -1.3299 -0.2111 -1.8627
 4002TIP3   OH211969   6.544   3.635   1.201  0.2654 -0.4108 -0.2288
 4002TIP3    H111970   6.549   3.620   1.295  3.1993  0.8194 -0.0670
 4002TIP3    H211971   6.597   3.565   1.162 -0.9743 -0.9536 -1.0110
 4003TIP3   OH211972   5.185   6.303   5.774 -0.4952 -0.7049  0.5311
 4003TIP3    H111973   5.163   6.386   5.816  0.3400  0.2781 -0.8793
 4003TIP3    H211974   5.276   6.315   5.745 -0.2694 -2.2263  0.5353
 4004TIP3   OH211975   4.276   5.405   3.959 -0.4702 -0.7043 -0.0496
 4004TIP3    H111976   4.274   5.486   3.908 -2.6736 -0.9347 -0.4149
 4004TIP3    H211977   4.299   5.338   3.896  0.0444 -0.5569 -0.0250
 4005TIP3   OH211978   4.356   4.545   0.970  0.0055 -0.0973  0.1255
 4005TIP3    H111979   4.298   4.479   1.007 -0.9970  1.0044  0.5634
 4005TIP3    H211980   4.402   4.581   1.045 -0.1112  0.3329 -0.0101
 4006TIP3   OH211981   5.218   0.282   0.769 -0.0621  0.6689 -0.2890
 4006TIP3    H111982   5.305   0.303   0.803  0.8382  0.6641 -2.3980
 4006TIP3    H211983   5.226   0.296   0.674 -1.3433 -2.7115 -1.0263
 4007TIP3   OH211984   6.789   2.983   1.446 -0.0906 -0.0705 -0.2228
 4007TIP3    H111985   6.878   2.956   1.468 -0.0408  0.6867  0.5438
 4007TIP3    H211986   6.793   3.002   1.352  0.6848  0.4536 -0.0911
 4008TIP3   OH211987   4.594   0.407   2.699 -0.2543 -0.7179  0.0043
 4008TIP3    H111988   4.504   0.436   2.683 -0.0791 -0.5990 -0.8440
 4008TIP3    H211989   4.593   0.313   2.680 -0.2675 -0.7762  0.2941
 4009TIP3   OH211990   4.988   2.379   0.574  0.4757  0.2944  0.1332
 4009TIP3    H111991   5.019   2.322   0.503  0.7252 -2.2265  2.1102
 4009TIP3    H211992   4.894   2.387   0.558  0.4573 -0.5861 -0.2569
 4010TIP3   OH211993   3.945   3.578   1.886  0.5032  0.0082 -0.2093
 4010TIP3    H111994   4.022   3.551   1.937  0.9421 -1.5468 -1.6160
 4010TIP3    H211995   3.872   3.533   1.928  0.6725 -0.2547 -0.1979
 4011TIP3   OH211996   1.673   4.821   5.606  0.3258 -0.4138 -0.1178
 4011TIP3    H111997   1.725   4.741   5.618 -1.2548 -1.3966  0.4786
 4011TIP3    H211998   1.606   4.817   5.674 -0.6288  0.7402 -0.9421
 4012TIP3   OH211999   1.077   2.318   2.312  0.7279  0.4002 -0.3827
 4012TIP3    H112000   1.018   2.377   2.357  0.2036 -0.6450  0.3362
 4012TIP3    H212001   1.020   2.261   2.260  1.1932  0.2967 -0.7920
 4013TIP3   OH212002   6.093   1.693   3.017  0.1672 -0.4009 -0.4954
 4013TIP3    H112003   6.070   1.601   3.032 -0.7134  0.0649  1.2563
 4013TIP3    H212004   6.166   1.710   3.077 -0.1477  0.2303 -0.2848
 4014TIP3   OH212005   5.368   5.892   4.785 -0.0564 -0.3718 -0.1160
 4014TIP3    H112006   5.360   5.860   4.696 -0.3175  1.4990 -0.8063
 4014TIP3    H212007   5.370   5.813   4.839  0.7948 -1.5661 -1.8099
 4015TIP3   OH212008   3.013   3.473   1.977 -0.4592 -0.0135  0.4836
 4015TIP3    H112009   2.941   3.535   1.991 -1.9991 -1.5181 -0.3348
 4015TIP3    H212010   3.005   3.412   2.049 -1.3876 -1.3898 -0.7214
 4016TIP3   OH212011   0.929   2.248   4.837 -0.1432 -0.0899 -0.5706
 4016TIP3    H112012   0.934   2.219   4.746 -0.1001  0.6802 -0.8255
 4016TIP3    H212013   0.850   2.206   4.871 -0.8156  0.5374 -1.3152
 4017TIP3   OH212014   2.841   0.721   2.256 -0.0059 -0.2713 -0.0098
 4017TIP3    H112015   2.905   0.768   2.202  2.3215 -2.0787  0.9497
 4017TIP3    H212016   2.885   0.638   2.278 -2.2679 -1.1385  1.6730
 4018TIP3   OH212017   6.221   5.321   2.060  0.3171  0.2731  0.4616
 4018TIP3    H112018   6.289   5.310   1.993 -1.2723  0.2787 -1.2381
 4018TIP3    H212019   6.201   5.414   2.057 -0.5917  0.0731  0.0650
 4019TIP3   OH212020   4.443   5.093   2.660  0.1165  0.1036  0.1959
 4019TIP3    H112021   4.539   5.100   2.665 -0.0119  1.0999  3.1312
 4019TIP3    H212022   4.414   5.181   2.637 -0.1358 -0.2737 -1.0182
 4020TIP3   OH212023   3.344   2.178   3.926 -0.4066  0.0380 -0.5334
 4020TIP3    H112024   3.428   2.178   3.880 -0.6596 -0.4627 -0.9963
 4020TIP3    H212025   3.330   2.087   3.950 -0.6705  0.1709 -0.1791
 4021TIP3   OH212026   2.251   1.973   5.220  0.4042 -0.3792 -0.0555
 4021TIP3    H112027   2.197   1.895   5.210  0.0695 -0.2164  0.4404
 4021TIP3    H212028   2.246   1.994   5.314  0.1393  0.4881 -0.2539
 4022TIP3   OH212029   4.004   4.750   0.864  0.2632 -0.3599 -0.2428
 4022TIP3    H112030   4.061   4.801   0.921  0.2102 -0.4633 -0.0974
 4022TIP3    H212031   4.056   4.673   0.840 -0.3678 -1.2838  1.1905
 4023TIP3   OH212032   7.175   3.229   4.632 -0.5283  0.1050  0.1661
 4023TIP3    H112033   7.258   3.231   4.680  0.2601 -1.6700 -1.0253
 4023TIP3    H212034   7.114   3.186   4.692 -0.6434  1.4125  1.0450
 4024TIP3   OH212035   6.408   1.804   2.514  0.5481 -1.2025 -0.2608
 4024TIP3    H112036   6.347   1.858   2.463  0.1138 -1.4330  0.0069
 4024TIP3    H212037   6.413   1.848   2.599  0.2411 -1.5459 -0.0619
 4025TIP3   OH212038   1.942   0.128   3.066  0.1272  0.3196  0.2470
 4025TIP3    H112039   1.969   0.189   2.997  0.3369  1.9312  1.6908
 4025TIP3    H212040   2.021   0.079   3.088 -0.3538 -1.6488 -1.9327
 4026TIP3   OH212041   5.545   1.055   2.455  0.2140 -0.0580  0.0300
 4026TIP3    H112042   5.556   1.058   2.550 -0.6313 -0.3041  0.1490
 4026TIP3    H212043   5.563   1.145   2.426 -1.0103  0.3985  0.6162
 4027TIP3   OH212044   1.287   3.275   3.741 -0.3871 -0.1184  0.1162
 4027TIP3    H112045   1.380   3.285   3.719 -0.3318  2.1066  1.1147
 4027TIP3    H212046   1.241   3.285   3.658  0.2069  0.3330 -0.1656
 4028TIP3   OH212047   2.682   0.876   2.427 -0.2232 -0.1019  0.4475
 4028TIP3    H112048   2.734   0.955   2.419  0.5076 -0.2813  2.5753
 4028TIP3    H212049   2.730   0.809   2.378 -2.5952  1.3264 -4.4439
 4029TIP3   OH212050   5.436   5.543   4.240 -0.0529  0.0646 -0.1110
 4029TIP3    H112051   5.474   5.605   4.302  0.6640 -0.9031  0.4449
 4029TIP3    H212052   5.485   5.556   4.159 -0.0029  0.3338 -0.0363
 4030TIP3   OH212053   1.184   0.962   1.621 -0.3044 -0.1417 -0.2368
 4030TIP3    H112054   1.277   0.982   1.634 -0.5036  0.8380 -0.2421
 4030TIP3    H212055   1.146   0.968   1.708 -0.4739  0.1238 -0.3248
 4031TIP3   OH212056   0.110   0.286   4.100  0.6147  0.1790 -0.3569
 4031TIP3    H112057   0.015   0.296   4.094  0.6336  0.5632 -0.0528
 4031TIP3    H212058   0.124   0.191   4.100  0.0564  0.0419  1.7562
 4032TIP3   OH212059   6.855   0.042   1.764  0.2015  0.7211 -0.2328
 4032TIP3    H112060   6.923   0.037   1.832  1.1562  0.5699 -1.1823
 4032TIP3    H212061   6.815   0.128   1.777 -0.0329  0.4703  0.8830
 4033TIP3   OH212062   5.829   1.958   3.226  0.2674 -0.4273  0.2407
 4033TIP3    H112063   5.905   2.000   3.184  1.0961 -1.0595  1.0529
 4033TIP3    H212064   5.818   2.005   3.309  0.8823 -1.4484  0.9205
 4034TIP3   OH212065   5.276   6.796   2.275  0.1960  0.4866  0.5874
 4034TIP3    H112066   5.247   6.823   2.363 -2.5539 -0.3235  0.0259
 4034TIP3    H212067   5.262   6.701   2.274  1.4594  0.2901 -0.3267
 4035TIP3   OH212068   6.600   5.123   5.575 -0.0039 -0.2243  1.0027
 4035TIP3    H112069   6.577   5.089   5.662 -0.2365  1.0434  1.4631
 4035TIP3    H212070   6.516   5.141   5.533  0.1048  0.7192  1.1650
 4036TIP3   OH212071   4.605   2.084   5.406 -0.6959 -0.4005 -0.3865
 4036TIP3    H112072   4.650   2.117   5.484 -1.6196 -3.5037  1.6542
 4036TIP3    H212073   4.512   2.095   5.425 -0.9395  0.6278 -2.0047
 4037TIP3   OH212074   6.599   1.930   3.485  0.2266 -0.0490  0.3241
 4037TIP3    H112075   6.684   1.934   3.529  0.2651 -0.9387  0.3584
 4037TIP3    H212076   6.536   1.958   3.552  0.5077  0.8338  0.2270
 4038TIP3   OH212077   3.827   0.907   3.145  0.2756  0.1787  0.2785
 4038TIP3    H112078   3.871   0.925   3.228  2.4633 -0.8203 -0.5774
 4038TIP3    H212079   3.809   0.813   3.147  0.4648  0.1221 -0.4092
 4039TIP3   OH212080   5.970   3.743   1.440 -0.3675 -0.1080  0.1597
 4039TIP3    H112081   6.033   3.811   1.419 -2.1421  1.2696 -1.0099
 4039TIP3    H212082   5.914   3.737   1.362 -2.0522 -0.8340  1.3599
 4040TIP3   OH212083   3.633   1.983   4.354  0.2248  0.6251 -0.4873
 4040TIP3    H112084   3.602   1.909   4.406  1.0377  1.1710  0.8375
 4040TIP3    H212085   3.621   2.059   4.410 -0.2415  1.4725 -1.6816
 4041TIP3   OH212086   0.526   2.379   1.317 -0.6329 -0.1401 -0.3956
 4041TIP3    H112087   0.466   2.353   1.247 -1.5828  0.2297  0.2562
 4041TIP3    H212088   0.471   2.381   1.396  0.2899  0.0016  0.2555
 4042TIP3   OH212089   6.281   5.912   1.662  0.4621  0.3174 -0.6311
 4042TIP3    H112090   6.211   5.852   1.636  1.0417 -0.6433 -0.0515
 4042TIP3    H212091   6.236   5.993   1.684 -0.6198 -0.6192  0.7978
 4043TIP3   OH212092   4.932   6.318   3.833 -0.0644 -0.0607 -0.5021
 4043TIP3    H112093   4.957   6.242   3.779  1.5498  0.0009  0.0929
 4043TIP3    H212094   5.011   6.372   3.835 -1.6633  2.5167 -2.2587
 4044TIP3   OH212095   4.577   6.750   0.290  0.0802  0.0708 -0.0571
 4044TIP3    H112096   4.597   6.760   0.383 -1.9454 -0.7510  0.5220
 4044TIP3    H212097   4.581   6.839   0.255  1.4077  0.3261  0.6677
 4045TIP3   OH212098   2.139   4.765   4.573  1.0204 -0.4979  0.3173
 4045TIP3    H112099   2.162   4.712   4.497  2.2285  0.1852  0.1794
 4045TIP3    H212100   2.091   4.706   4.631  1.2083 -1.3737 -0.4150
 4046TIP3   OH212101   5.068   6.474   3.129 -0.7545  0.0586 -0.1380
 4046TIP3    H112102   5.010   6.534   3.081  0.9380  2.0325  0.1733
 4046TIP3    H212103   5.048   6.490   3.221 -1.6582 -1.3394 -0.0537
 4047TIP3   OH212104   5.780   0.469   1.718 -0.5830 -0.3271  0.4739
 4047TIP3    H112105   5.699   0.440   1.760  0.5584 -2.3067  1.4563
 4047TIP3    H212106   5.751   0.533   1.653 -2.9370 -1.0073  0.7311
 4048TIP3   OH212107   2.544   1.435   5.053 -0.5478 -0.3286 -0.5214
 4048TIP3    H112108   2.514   1.515   5.096  0.7502  0.3488 -0.8159
 4048TIP3    H212109   2.484   1.424   4.979 -2.6015 -1.3196  1.1791
 4049TIP3   OH212110   7.191   5.832   4.675  0.1337 -0.0621  0.0565
 4049TIP3    H112111   7.208   5.919   4.711  0.1499 -0.6024  1.4075
 4049TIP3    H212112   7.113   5.802   4.723 -1.0470 -0.0326 -1.7665
 4050TIP3   OH212113   1.778   5.154   3.498  0.0509 -0.2864  0.3202
 4050TIP3    H112114   1.808   5.161   3.589 -0.3938 -0.1596  0.4557
 4050TIP3    H212115   1.733   5.236   3.480  1.0807  0.1446 -0.3695
 4051TIP3   OH212116   1.802   2.754   1.247  0.0652 -0.1300 -0.0751
 4051TIP3    H112117   1.829   2.839   1.214 -0.5361  0.0057 -0.2281
 4051TIP3    H212118   1.711   2.766   1.273  0.0367 -0.6746  0.0896
 4052TIP3   OH212119   4.570   1.979   1.737  0.0103  0.8873 -0.2243
 4052TIP3    H112120   4.664   1.965   1.733 -0.2147 -0.5082 -2.4516
 4052TIP3    H212121   4.537   1.901   1.782 -0.0686  1.7414  1.2691
 4053TIP3   OH212122   3.153   1.436   5.652  0.3834 -0.6958 -0.0429
 4053TIP3    H112123   3.086   1.424   5.585  0.8026 -0.8578 -0.4363
 4053TIP3    H212124   3.114   1.401   5.732  0.0658 -0.9464 -0.3058
 4054TIP3   OH212125   5.336   2.963   2.297 -0.3400  0.3087  0.1840
 4054TIP3    H112126   5.299   2.881   2.266  2.3950 -0.4434 -1.4527
 4054TIP3    H212127   5.374   2.941   2.382  0.6722 -0.2551 -0.3949
 4055TIP3   OH212128   5.079   6.365   2.734 -0.0003 -0.2617  0.0362
 4055TIP3    H112129   5.040   6.296   2.681 -1.2003 -0.0375  0.5996
 4055TIP3    H212130   5.114   6.428   2.671  1.2039 -1.4045 -0.4893
 4056TIP3   OH212131   3.211   4.052   4.558  0.1090  0.2981  0.0283
 4056TIP3    H112132   3.192   4.142   4.530 -1.5553  0.1035  0.4013
 4056TIP3    H212133   3.221   4.059   4.653 -0.1761  0.0835  0.0763
 4057TIP3   OH212134   4.122   3.796   3.081  0.1590 -0.2922  0.1295
 4057TIP3    H112135   4.144   3.703   3.081 -0.5632 -0.4685 -0.1788
 4057TIP3    H212136   4.204   3.840   3.102  0.6771 -0.9613 -0.4357
 4058TIP3   OH212137   1.809   5.398   4.979 -0.4146  0.1507  0.0915
 4058TIP3    H112138   1.755   5.407   4.900  0.1218  1.3468 -0.1642
 4058TIP3    H212139   1.848   5.485   4.991  3.0905 -1.1348 -0.9371
 4059TIP3   OH212140   0.839   0.308   0.471 -0.6344 -0.5203  0.2771
 4059TIP3    H112141   0.789   0.261   0.537 -1.5074  0.8425  0.6412
 4059TIP3    H212142   0.783   0.383   0.448  1.2230  1.0923  0.7022
 4060TIP3   OH212143   0.585   1.698   3.170  0.2016  0.2869  0.1480
 4060TIP3    H112144   0.667   1.746   3.161  0.1255  0.9123  2.2790
 4060TIP3    H212145   0.535   1.720   3.091  2.1450 -0.3435 -1.3306
 4061TIP3   OH212146   0.299   4.120   4.482  0.0892 -0.6072 -0.1793
 4061TIP3    H112147   0.212   4.157   4.495  0.0128 -0.7740 -0.2021
 4061TIP3    H212148   0.350   4.190   4.443  0.3805 -0.0328  1.1868
 4062TIP3   OH212149   4.232   3.879   0.401 -0.0701 -0.0374  0.3783
 4062TIP3    H112150   4.285   3.803   0.427  0.7408  0.7386  1.0371
 4062TIP3    H212151   4.266   3.902   0.314  0.7264  0.4956  0.8249
 4063TIP3   OH212152   6.755   1.429   1.279 -0.1139  0.2964 -0.2374
 4063TIP3    H112153   6.764   1.344   1.323  0.4046  0.6165  0.3010
 4063TIP3    H212154   6.755   1.492   1.351 -0.4592  0.7568 -0.6378
 4064TIP3   OH212155   0.769   4.703   5.082 -0.6958 -0.0565  0.1947
 4064TIP3    H112156   0.748   4.698   4.989 -1.5532 -2.0040  0.4323
 4064TIP3    H212157   0.807   4.617   5.102  1.3182  1.0024  1.2482
 4065TIP3   OH212158   5.132   5.027   3.992  0.2969  0.2156 -0.2501
 4065TIP3    H112159   5.076   4.958   3.955 -0.8867  0.4920  0.9451
 4065TIP3    H212160   5.144   5.001   4.084 -1.2552  2.2094  0.5820
 4066TIP3   OH212161   1.965   4.907   5.402 -0.0177 -0.3111 -0.3985
 4066TIP3    H112162   1.896   4.973   5.413  0.4178 -0.1637  2.0580
 4066TIP3    H212163   2.046   4.957   5.400  0.1819 -0.6426 -0.7207
 4067TIP3   OH212164   0.214   6.367   1.348  0.2127  0.1736  0.2781
 4067TIP3    H112165   0.174   6.287   1.314  2.6405 -0.4844 -1.3413
 4067TIP3    H212166   0.212   6.428   1.274  1.3102  0.4241  0.4356
 4068TIP3   OH212167   4.859   0.314   4.254 -0.6143  0.0808  0.1715
 4068TIP3    H112168   4.853   0.320   4.158 -0.2539 -0.1808  0.1313
 4068TIP3    H212169   4.807   0.237   4.276  0.4103 -0.6723  0.0546
 4069TIP3   OH212170   4.524   1.598   4.003 -0.6787 -0.9308 -0.6704
 4069TIP3    H112171   4.593   1.538   4.033 -0.4317 -0.5259 -0.4253
 4069TIP3    H212172   4.571   1.666   3.955 -0.8906 -0.5491 -0.3353
 4070TIP3   OH212173   5.719   1.537   1.362  0.0089 -0.3997 -0.3202
 4070TIP3    H112174   5.703   1.456   1.314 -0.9290  0.1907 -1.0323
 4070TIP3    H212175   5.814   1.539   1.376  0.3202 -0.5716 -2.1817
 4071TIP3   OH212176   3.454   0.467   5.784  0.1025  0.2401 -0.1993
 4071TIP3    H112177   3.475   0.483   5.876  2.4354  0.3889 -0.6917
 4071TIP3    H212178   3.389   0.396   5.786  1.9025 -1.5023  1.5404
 4072TIP3   OH212179   1.576   1.929   2.265 -0.6860 -0.3622  0.2291
 4072TIP3    H112180   1.574   1.981   2.185 -1.4698  0.5606  0.8145
 4072TIP3    H212181   1.522   1.852   2.246 -0.2638 -0.5149 -0.3572
 4073TIP3   OH212182   3.838   4.868   5.010 -0.1309  0.4316  0.3397
 4073TIP3    H112183   3.764   4.842   5.064 -0.4127 -0.8022 -0.6039
 4073TIP3    H212184   3.799   4.893   4.926  0.5542 -1.2234 -0.5201
 4074TIP3   OH212185   7.135   3.168   1.938 -0.0797 -0.2768 -0.5810
 4074TIP3    H112186   7.178   3.105   1.881  0.7118  0.6330 -1.0194
 4074TIP3    H212187   7.149   3.253   1.896  0.4985  0.4196  0.9172
 4075TIP3   OH212188   6.388   0.379   4.242  0.2196  0.2867 -0.5902
 4075TIP3    H112189   6.406   0.466   4.206  0.6968  0.1741 -0.6255
 4075TIP3    H212190   6.432   0.378   4.326  0.9763 -0.2327 -0.9794
 4076TIP3   OH212191   7.143   2.818   5.836  0.1562 -0.7135  0.4085
 4076TIP3    H112192   7.232   2.852   5.823  0.5947 -1.3163  1.6881
 4076TIP3    H212193   7.155   2.736   5.884 -0.9898 -1.9057 -1.2446
 4077TIP3   OH212194   4.152   2.629   1.310  0.2804 -0.2576 -0.3686
 4077TIP3    H112195   4.113   2.716   1.307  0.0134 -0.3786 -0.3770
 4077TIP3    H212196   4.245   2.645   1.324  0.2092  0.0252 -0.2258
 4078TIP3   OH212197   1.131   1.735   3.473 -0.0185 -0.4706  0.0566
 4078TIP3    H112198   1.046   1.772   3.451 -0.2331  0.2347  1.8988
 4078TIP3    H212199   1.129   1.647   3.436 -1.4467 -0.3878 -0.1207
 4079TIP3   OH212200   5.340   5.299   4.972  0.2320  0.1665  0.3073
 4079TIP3    H112201   5.246   5.290   4.990  0.4809  0.3045  1.8118
 4079TIP3    H212202   5.365   5.378   5.019  0.9494  0.6123 -0.7967
 4080TIP3   OH212203   4.092   0.569   4.408  0.5160  0.6505 -0.2328
 4080TIP3    H112204   4.152   0.510   4.452 -0.0276  0.1841 -0.1030
 4080TIP3    H212205   4.026   0.512   4.369  0.4085  1.1243 -0.7582
 4081TIP3   OH212206   0.786   1.846   3.096  0.5501  0.4292 -0.3628
 4081TIP3    H112207   0.789   1.868   3.003  1.1738 -1.6231 -0.8672
 4081TIP3    H212208   0.878   1.845   3.123  0.4497 -0.1146 -0.0273
 4082TIP3   OH212209   3.662   6.527   4.522  0.4302  0.2033 -0.3740
 4082TIP3    H112210   3.740   6.477   4.497  0.8170  0.3939  0.3976
 4082TIP3    H212211   3.678   6.551   4.613 -0.3480  0.6097 -0.3362
 4083TIP3   OH212212   0.042   5.295   1.355  0.5597  0.9485  0.5706
 4083TIP3    H112213  -0.039   5.335   1.386  1.0021  0.6718  2.1621
 4083TIP3    H212214   0.062   5.227   1.420  1.4137  0.1765 -0.4598
 4084TIP3   OH212215   6.782   3.386   1.865  0.0318  0.2218  0.1190
 4084TIP3    H112216   6.782   3.341   1.780 -1.3318  0.4114 -0.0000
 4084TIP3    H212217   6.689   3.396   1.887  0.2978 -1.6088  2.5852
 4085TIP3   OH212218   1.825   0.194   3.327  0.5939  0.7741 -0.2898
 4085TIP3    H112219   1.767   0.268   3.307  2.5407  2.0181 -1.6305
 4085TIP3    H212220   1.856   0.164   3.242  1.4882 -0.2179  0.3691
 4086TIP3   OH212221   6.719   4.593   0.418 -0.1761  0.2675 -1.1407
 4086TIP3    H112222   6.675   4.577   0.501 -0.4383 -0.0376 -1.3345
 4086TIP3    H212223   6.652   4.574   0.352  0.2019 -0.0657 -1.4335
 4087TIP3   OH212224   4.465   3.188   1.060 -0.1463 -0.0691  0.3805
 4087TIP3    H112225   4.371   3.186   1.078 -0.5974 -1.5158 -1.7821
 4087TIP3    H212226   4.490   3.096   1.055  1.6792  0.2786  2.0763
 4088TIP3   OH212227   3.204   6.045   3.433 -0.0608 -0.5820  0.2693
 4088TIP3    H112228   3.183   6.136   3.410  0.6138 -0.1794  1.1757
 4088TIP3    H212229   3.196   5.997   3.351 -0.1222  0.3564 -0.2889
 4089TIP3   OH212230   3.115   0.438   5.395 -0.3808  0.2786 -0.3182
 4089TIP3    H112231   3.045   0.419   5.332 -0.9977  0.9574  0.1468
 4089TIP3    H212232   3.073   0.426   5.480  0.7496 -1.7943  0.0042
 4090TIP3   OH212233   5.349   0.120   3.952  0.2341 -0.0612  0.1826
 4090TIP3    H112234   5.348   0.187   3.883  1.7721  0.0776  0.2570
 4090TIP3    H212235   5.300   0.159   4.024 -1.4149 -0.2058 -0.7839
 4091TIP3   OH212236   5.505   6.375   3.465 -0.2718 -0.0084 -0.1272
 4091TIP3    H112237   5.502   6.451   3.407 -0.5783  1.4195  1.6489
 4091TIP3    H212238   5.425   6.384   3.518  0.2581 -0.9515  0.8497
 4092TIP3   OH212239   0.062   6.282   4.034 -0.8235  0.2740 -0.0974
 4092TIP3    H112240  -0.031   6.302   4.028 -0.5125  1.6098 -0.6263
 4092TIP3    H212241   0.097   6.301   3.947 -0.2222 -1.2231 -0.2195
 4093TIP3   OH212242   3.111   2.393   0.830  0.5781 -0.2504 -0.4565
 4093TIP3    H112243   3.146   2.329   0.892  1.3427  1.5224  1.0046
 4093TIP3    H212244   3.189   2.433   0.790  0.1455  0.8151 -0.2514
 4094TIP3   OH212245   2.404   1.859   2.038  0.3949  0.6193 -0.0201
 4094TIP3    H112246   2.322   1.828   2.002  0.3728 -0.2128  0.7199
 4094TIP3    H212247   2.471   1.802   1.999  0.5684  0.9420 -0.2002
 4095TIP3   OH212248   6.467   3.053   4.816 -0.9405  0.4452 -0.4774
 4095TIP3    H112249   6.491   3.125   4.874 -2.5276  0.6369 -0.0216
 4095TIP3    H212250   6.551   3.013   4.792 -0.0465  2.2707 -0.5425
 4096TIP3   OH212251   5.084   3.571   2.989  0.3942 -0.0611  0.0949
 4096TIP3    H112252   5.086   3.488   3.037 -0.7260 -0.6908 -0.9125
 4096TIP3    H212253   5.170   3.577   2.948  1.2042  0.2492  1.7159
 4097TIP3   OH212254   3.703   1.479   5.712  0.1191 -0.3583 -0.2274
 4097TIP3    H112255   3.624   1.529   5.692  1.0340  1.0434 -0.4892
 4097TIP3    H212256   3.753   1.481   5.631 -0.3962 -2.9092 -0.6786
 4098TIP3   OH212257   6.369   2.843   5.642 -0.2442  0.4913  0.5111
 4098TIP3    H112258   6.349   2.755   5.611 -0.6323  0.1396  1.7166
 4098TIP3    H212259   6.288   2.873   5.684  0.2361  0.9613  1.1335
 4099TIP3   OH212260   5.370   0.747   0.995  0.5940 -0.3641  0.1634
 4099TIP3    H112261   5.376   0.757   1.090  0.0588 -1.5309  0.3414
 4099TIP3    H212262   5.454   0.780   0.962  1.6597 -1.8840  1.2335
 4100TIP3   OH212263   3.943   1.080   1.850 -0.2068  0.7815  0.2112
 4100TIP3    H112264   3.927   1.130   1.769  1.7717 -0.7483 -1.2373
 4100TIP3    H212265   3.865   1.025   1.859  0.2802 -0.3887 -1.8211
 4101TIP3   OH212266   6.167   2.873   2.235  0.2352  0.2235  0.0065
 4101TIP3    H112267   6.185   2.959   2.274 -0.6479  0.2871  0.3054
 4101TIP3    H212268   6.071   2.867   2.235  0.2414 -0.1588 -1.3327
 4102TIP3   OH212269   4.037   1.319   4.601 -0.6527  0.0687 -0.8657
 4102TIP3    H112270   4.006   1.378   4.669  0.3619 -1.1642  0.7346
 4102TIP3    H212271   3.984   1.240   4.612  1.4745 -1.2601  0.5142
 4103TIP3   OH212272   1.997   5.834   0.219 -0.4447 -0.5564  0.2039
 4103TIP3    H112273   2.050   5.910   0.194 -0.5315  0.0058  1.5913
 4103TIP3    H212274   1.936   5.822   0.146  1.3433 -1.0376 -1.2879
 4104TIP3   OH212275   1.632   1.549   1.168  0.1369  0.0243 -0.4561
 4104TIP3    H112276   1.543   1.519   1.190  0.4641  0.0942  1.0442
 4104TIP3    H212277   1.634   1.641   1.193  0.4266  0.2262 -1.1788
 4105TIP3   OH212278   5.499   4.833   3.835 -0.2178 -0.4937 -0.6179
 4105TIP3    H112279   5.430   4.900   3.828  0.5051  0.5070  1.1760
 4105TIP3    H212280   5.454   4.754   3.864 -0.6841  0.0378  0.1263
 4106TIP3   OH212281   5.021   2.579   5.258  0.0630 -0.5924 -0.1399
 4106TIP3    H112282   5.110   2.612   5.272  0.3766 -0.9969 -1.1244
 4106TIP3    H212283   5.033   2.501   5.204 -0.7576 -1.6317  1.1107
 4107TIP3   OH212284   1.849   1.951   5.757  0.4827 -0.1542  0.7414
 4107TIP3    H112285   1.832   1.858   5.773  0.5160 -0.5747 -1.3272
 4107TIP3    H212286   1.769   1.982   5.713  0.2954  0.9274  1.7949
 4108TIP3   OH212287   2.891   3.627   3.062 -0.6812 -0.0770  0.0520
 4108TIP3    H112288   2.877   3.537   3.034 -1.4175  0.1183 -0.2201
 4108TIP3    H212289   2.969   3.654   3.014  0.0687 -0.8418  0.8032
 4109TIP3   OH212290   6.393   0.297   4.541  0.5514  0.2820 -0.1633
 4109TIP3    H112291   6.367   0.206   4.551  1.8426  0.0029  1.0283
 4109TIP3    H212292   6.311   0.347   4.546 -0.1970 -0.8083 -1.1383
 4110TIP3   OH212293   4.414   6.387   2.387  0.1765  0.3523 -0.2059
 4110TIP3    H112294   4.388   6.304   2.347  1.4455 -0.0874 -0.1794
 4110TIP3    H212295   4.334   6.440   2.388 -0.1887 -0.0672 -2.1951
 4111TIP3   OH212296   0.574   4.745   1.678  0.1591  0.0669  0.5127
 4111TIP3    H112297   0.590   4.839   1.681 -0.0798  0.1273  0.0424
 4111TIP3    H212298   0.535   4.730   1.591 -1.9139 -0.1124  1.4031
 4112TIP3   OH212299   3.461   6.547   2.847  0.5910 -0.1436 -0.0245
 4112TIP3    H112300   3.406   6.511   2.777  0.2383 -2.3034  1.2446
 4112TIP3    H212301   3.406   6.540   2.925  0.1067  4.2574  0.2943
 4113TIP3   OH212302   2.372   6.795   0.773 -0.2063  0.3029 -0.8714
 4113TIP3    H112303   2.292   6.789   0.824  0.4340  0.0156  0.1292
 4113TIP3    H212304   2.402   6.704   0.765 -0.5819  0.2652 -2.2660
 4114TIP3   OH212305   2.467   0.712   2.863  0.3397 -0.0288  0.8329
 4114TIP3    H112306   2.408   0.780   2.894  0.6884  0.6580  0.0095
 4114TIP3    H212307   2.509   0.749   2.786 -0.2002 -1.5548 -0.2446
 4115TIP3   OH212308   6.919   4.715   4.390  0.0417 -0.3867 -0.1953
 4115TIP3    H112309   6.859   4.701   4.316 -0.7906  1.3172  0.1141
 4115TIP3    H212310   7.003   4.734   4.348  0.0399 -1.3373 -0.6610
 4116TIP3   OH212311   5.849   0.855   4.190 -0.1067  0.7714  0.3681
 4116TIP3    H112312   5.767   0.879   4.146 -1.0186 -0.4143  1.3405
 4116TIP3    H212313   5.827   0.861   4.283  1.4346  2.0935  0.6939
 4117TIP3   OH212314   7.056   2.319   3.364 -0.3467  0.5088  0.0830
 4117TIP3    H112315   7.055   2.301   3.458 -0.4148  1.3637  0.2567
 4117TIP3    H212316   7.148   2.339   3.345  0.2712 -2.5562 -0.6410
 4118TIP3   OH212317   3.230   0.564   2.650  0.5376  0.3617 -0.0569
 4118TIP3    H112318   3.184   0.521   2.723 -0.1977  0.0149 -0.7074
 4118TIP3    H212319   3.309   0.600   2.690  0.2457  0.0130  0.8780
 4119TIP3   OH212320   0.931   5.206   0.910  0.1010 -0.0658 -0.7446
 4119TIP3    H112321   0.854   5.155   0.888  0.6662 -0.3605 -2.1750
 4119TIP3    H212322   0.919   5.231   1.002 -1.3541 -0.6663 -0.7565
 4120TIP3   OH212323   6.685   0.252   4.433 -0.0453  0.3860 -0.0288
 4120TIP3    H112324   6.627   0.328   4.439  1.4773  1.7773 -1.9220
 4120TIP3    H212325   6.645   0.187   4.491 -3.5852  1.2044 -1.2991
 4121TIP3   OH212326   4.860   0.213   2.702 -0.2283  0.4621  0.2901
 4121TIP3    H112327   4.846   0.245   2.613  0.1829 -0.6859 -0.2088
 4121TIP3    H212328   4.816   0.128   2.704  0.7516 -0.0483  0.8112
 4122TIP3   OH212329   0.838   4.820   3.752  0.5111 -0.0126  0.1290
 4122TIP3    H112330   0.867   4.729   3.753  1.2909  0.2192  0.7459
 4122TIP3    H212331   0.902   4.865   3.696  0.0838  0.1441 -0.2391
 4123TIP3   OH212332   6.552   2.022   0.246 -0.2550 -0.3015 -0.1489
 4123TIP3    H112333   6.523   2.011   0.156  0.6485  0.0641 -0.4945
 4123TIP3    H212334   6.514   1.948   0.293 -0.7200 -0.4976 -0.8278
 4124TIP3   OH212335   2.539   2.852   3.222 -0.5442  0.0130  0.8984
 4124TIP3    H112336   2.524   2.942   3.193 -1.4423 -0.0319  1.2035
 4124TIP3    H212337   2.456   2.824   3.260 -0.0709 -0.7130  1.4389
 4125TIP3   OH212338   0.179   2.034   5.565  0.1372 -0.6093  0.2520
 4125TIP3    H112339   0.214   2.076   5.644 -1.4787 -1.6591  1.5836
 4125TIP3    H212340   0.085   2.033   5.578 -0.0552 -2.2153 -0.9780
 4126TIP3   OH212341   5.281   1.244   5.329  0.6650 -0.0932  0.4007
 4126TIP3    H112342   5.303   1.213   5.241 -0.3492  0.1832  0.0367
 4126TIP3    H212343   5.340   1.317   5.343  0.4415  0.2354 -0.2970
 4127TIP3   OH212344   2.490   5.805   0.309  0.0736 -0.6314 -0.2243
 4127TIP3    H112345   2.546   5.745   0.359  0.4632 -1.9777 -2.1948
 4127TIP3    H212346   2.462   5.755   0.233 -2.3836  0.6094 -0.2534
 4128TIP3   OH212347   5.978   1.456   1.261  0.3915  0.2315 -0.2150
 4128TIP3    H112348   5.921   1.389   1.299 -0.1179  0.6789 -0.1643
 4128TIP3    H212349   6.046   1.470   1.326 -1.0835  1.7945  1.1027
 4129TIP3   OH212350   5.726   4.810   0.772 -0.1219  0.3865  0.4429
 4129TIP3    H112351   5.707   4.883   0.713 -0.5753  0.4907  0.7082
 4129TIP3    H212352   5.803   4.768   0.735  0.5286  1.3792  0.6288
 4130TIP3   OH212353   4.501   5.215   5.246 -0.2860 -0.6445  0.4120
 4130TIP3    H112354   4.461   5.254   5.168 -1.3945  0.1598  1.3516
 4130TIP3    H212355   4.553   5.285   5.284 -1.2453 -0.4428  1.4006
 4131TIP3   OH212356   2.503   2.933   5.254  0.3381  0.1287 -0.2341
 4131TIP3    H112357   2.591   2.905   5.228  1.0414  0.3094  1.7851
 4131TIP3    H212358   2.479   2.872   5.324 -0.5734  0.9112  0.1449
 4132TIP3   OH212359   0.103   1.664   4.694 -0.4559 -0.0651 -0.2553
 4132TIP3    H112360   0.154   1.653   4.614 -0.0627  0.9836 -0.1726
 4132TIP3    H212361   0.150   1.732   4.743  0.5590 -2.1852  1.9113
 4133TIP3   OH212362   4.222   0.746   2.595 -0.1044  0.0356 -0.0326
 4133TIP3    H112363   4.308   0.711   2.572 -0.5350  0.5421 -2.7549
 4133TIP3    H212364   4.219   0.741   2.690  1.2907 -3.7947 -0.0249
 4134TIP3   OH212365   1.894   1.782   2.934 -0.3700  0.1617  0.1408
 4134TIP3    H112366   1.954   1.854   2.913 -0.8976  0.7506  0.5852
 4134TIP3    H212367   1.922   1.709   2.879 -0.1116  0.8591 -0.6703
 4135TIP3   OH212368   5.286   1.558   1.831  1.0521 -0.5510  0.4294
 4135TIP3    H112369   5.333   1.570   1.748 -1.1623 -0.7425 -0.9079
 4135TIP3    H212370   5.217   1.624   1.829 -0.3265 -1.9175  1.1519
 4136TIP3   OH212371   1.153   5.227   3.095 -0.1889  0.7681 -0.0197
 4136TIP3    H112372   1.081   5.243   3.034 -0.8319 -2.5832 -0.3383
 4136TIP3    H212373   1.110   5.202   3.177  0.4220 -1.9135 -0.3960
 4137TIP3   OH212374   1.436   5.329   1.344 -0.3522 -0.3060 -0.5442
 4137TIP3    H112375   1.345   5.326   1.315  0.1252  0.9933 -2.2798
 4137TIP3    H212376   1.483   5.275   1.281  0.0983 -1.0567  0.4036
 4138TIP3   OH212377   7.050   4.792   2.716 -0.1333  0.1739  0.1254
 4138TIP3    H112378   7.027   4.699   2.714  0.5573  0.0047 -0.4543
 4138TIP3    H212379   6.968   4.837   2.738 -0.8874 -0.4509 -1.3117
 4139TIP3   OH212380   2.158   5.383   2.145  0.1532  0.7072 -0.0701
 4139TIP3    H112381   2.229   5.443   2.167 -0.6573  1.2683  1.1105
 4139TIP3    H212382   2.202   5.305   2.110  1.2783  1.4627 -0.3757
 4140TIP3   OH212383   5.809   6.443   3.502  0.2419 -0.4875 -0.4079
 4140TIP3    H112384   5.870   6.391   3.554  0.7118  2.7643  2.6505
 4140TIP3    H212385   5.723   6.421   3.537  0.2650 -0.5635 -0.3986
 4141TIP3   OH212386   2.334   2.105   2.416 -0.0464  0.1595  0.1627
 4141TIP3    H112387   2.418   2.124   2.457  1.1296 -1.9103 -1.1499
 4141TIP3    H212388   2.293   2.191   2.405  2.4315  1.3618 -0.3273
 4142TIP3   OH212389   4.528   2.246   5.622 -0.7816  0.3595 -0.9380
 4142TIP3    H112390   4.505   2.335   5.595 -0.0424  0.5919 -0.8160
 4142TIP3    H212391   4.465   2.226   5.692  0.6518  1.7858  0.8702
 4143TIP3   OH212392   6.024   5.301   3.738 -0.6561 -0.0365  0.0127
 4143TIP3    H112393   5.969   5.286   3.814 -0.5220  0.3387  0.1882
 4143TIP3    H212394   5.963   5.316   3.666 -0.7827 -0.2326  0.0804
 4144TIP3   OH212395   4.757   1.167   3.000 -0.1013  0.3668  0.1316
 4144TIP3    H112396   4.755   1.100   3.068 -0.0881 -1.1852 -1.3290
 4144TIP3    H212397   4.672   1.210   3.005 -1.0087 -1.3017 -0.3475
 4145TIP3   OH212398   2.970  -0.000   1.281  0.5115 -0.0462 -0.0837
 4145TIP3    H112399   2.911   0.067   1.314  0.3972 -0.2745  0.1829
 4145TIP3    H212400   3.030   0.047   1.224 -0.1824  0.1296 -0.6941
 4146TIP3   OH212401   4.480   4.977   4.492 -0.6097  0.0944 -0.1014
 4146TIP3    H112402   4.423   4.955   4.566  1.1182  0.5488  1.4221
 4146TIP3    H212403   4.560   4.927   4.507  0.3278  1.2937 -0.8725
 4147TIP3   OH212404   6.609   2.662   2.561 -0.5115 -0.0939  0.0620
 4147TIP3    H112405   6.521   2.659   2.597 -0.1759 -0.9516  0.8680
 4147TIP3    H212406   6.663   2.698   2.632 -0.4755  2.2202 -1.0533
 4148TIP3   OH212407   5.441   0.027   4.233  0.0745  0.2507 -0.1549
 4148TIP3    H112408   5.468   0.050   4.322  0.7181 -0.3520 -0.1774
 4148TIP3    H212409   5.523  -0.000   4.191 -0.1943  0.7295 -0.9937
 4149TIP3   OH212410   4.868   4.100   2.726 -0.2631 -0.1309 -1.0459
 4149TIP3    H112411   4.804   4.088   2.657  0.1808 -2.3629 -1.1198
 4149TIP3    H212412   4.952   4.101   2.681 -0.0416 -0.4305 -0.6373
 4150TIP3   OH212413   2.553   6.331   0.396 -0.1258  0.0948 -0.2766
 4150TIP3    H112414   2.533   6.268   0.327 -0.3979 -0.8973  0.6640
 4150TIP3    H212415   2.642   6.310   0.423 -0.2026  0.1345  0.0126
 4151TIP3   OH212416   0.670   4.058   5.241 -0.4134 -0.1723  0.1265
 4151TIP3    H112417   0.622   4.062   5.158 -0.6845 -0.8123  0.2405
 4151TIP3    H212418   0.758   4.029   5.217 -0.6699 -0.9764  0.1152
 4152TIP3   OH212419   4.195   2.264   0.751 -0.3813 -0.7424 -0.4305
 4152TIP3    H112420   4.237   2.292   0.833 -0.5516 -3.3823  0.6409
 4152TIP3    H212421   4.101   2.273   0.769 -0.4130  0.6779 -1.1491
 4153TIP3   OH212422   4.491   6.022   5.549 -0.1279 -0.6065  0.1333
 4153TIP3    H112423   4.543   5.943   5.535 -1.2579 -1.2079 -0.8153
 4153TIP3    H212424   4.550   6.081   5.598  0.6065 -2.1408  1.1861
 4154TIP3   OH212425   4.861   4.606   5.268 -0.3781 -0.5086  0.1357
 4154TIP3    H112426   4.900   4.635   5.185  0.3344 -1.1790  0.2238
 4154TIP3    H212427   4.768   4.623   5.258 -0.3029 -0.5920 -0.8104
 4155TIP3   OH212428   6.244   1.223   2.568 -0.0626  0.0662  0.1651
 4155TIP3    H112429   6.215   1.194   2.655  0.4179 -1.5036 -0.1684
 4155TIP3    H212430   6.181   1.183   2.507  1.8144 -2.1401 -0.4550
 4156TIP3   OH212431   5.518   0.669   0.186 -0.7944  0.1366  0.1381
 4156TIP3    H112432   5.444   0.628   0.142  1.3829  0.5497 -4.4838
 4156TIP3    H212433   5.492   0.760   0.196 -1.3692  0.0331 -0.3606
 4157TIP3   OH212434   1.043   1.430   4.311  0.4242  0.0737  0.0991
 4157TIP3    H112435   1.095   1.362   4.268 -0.7106 -1.1019  0.5272
 4157TIP3    H212436   1.101   1.506   4.315  1.3573 -0.5309 -1.3553
 4158TIP3   OH212437   0.558   6.618   0.130 -0.1869  0.2044  0.3563
 4158TIP3    H112438   0.505   6.697   0.119 -0.6186 -0.1438 -0.1309
 4158TIP3    H212439   0.497   6.546   0.117  0.5966 -0.2072 -1.2679
 4159TIP3   OH212440   4.119   1.572   1.239  0.4896  0.5299  0.0622
 4159TIP3    H112441   4.088   1.584   1.329  0.7313 -0.2387  0.2604
 4159TIP3    H212442   4.184   1.502   1.246  1.1455  1.0621 -0.5825
 4160TIP3   OH212443   6.094   4.401   1.967 -0.5658  0.7013  0.2066
 4160TIP3    H112444   6.171   4.423   2.019  0.7946  1.7829 -2.1007
 4160TIP3    H212445   6.052   4.329   2.014  2.9281 -1.3024  0.5847
 4161TIP3   OH212446   1.972   0.804   1.826 -0.1836 -0.2185  0.0824
 4161TIP3    H112447   1.997   0.745   1.755  1.2566 -0.4054  0.7141
 4161TIP3    H212448   1.948   0.746   1.898 -0.0831 -0.0333  0.2665
 4162TIP3   OH212449   3.259   4.900   0.068  0.3840 -0.6881  0.4915
 4162TIP3    H112450   3.267   4.866   0.157  0.4928  0.1615  0.8152
 4162TIP3    H212451   3.275   4.994   0.077 -1.3528 -0.2903 -0.1472
 4163TIP3   OH212452   3.540   6.044   1.733 -0.0418  0.0563 -0.2554
 4163TIP3    H112453   3.473   6.047   1.665  0.9782  3.1521 -1.2496
 4163TIP3    H212454   3.509   6.105   1.800 -0.7312 -2.4868  1.9444
 4164TIP3   OH212455   3.629   5.657   1.842  0.0471 -0.0589 -0.0869
 4164TIP3    H112456   3.654   5.727   1.903  1.9350  0.0675 -0.9479
 4164TIP3    H212457   3.704   5.647   1.784 -0.7372 -1.8570 -0.8809
 4165TIP3   OH212458   2.946   2.722   3.121 -0.5250 -0.2347 -0.2141
 4165TIP3    H112459   3.028   2.755   3.083 -0.7356 -0.6372 -1.0557
 4165TIP3    H212460   2.969   2.695   3.209  0.1855 -0.0635 -0.3424
 4166TIP3   OH212461   4.491   1.119   2.039 -0.0950 -0.1196 -0.0454
 4166TIP3    H112462   4.490   1.158   2.126  2.1636 -0.8791  0.3852
 4166TIP3    H212463   4.514   1.027   2.054 -3.0444 -1.1838 -1.2100
 4167TIP3   OH212464   0.328   0.532   2.907  0.2501 -0.0572  0.2112
 4167TIP3    H112465   0.377   0.591   2.965  2.5882 -1.4616 -0.2009
 4167TIP3    H212466   0.255   0.502   2.960 -0.7164  2.7100  0.6165
 4168TIP3   OH212467   6.207   1.898   2.371 -0.2930  0.1151 -0.1563
 4168TIP3    H112468   6.125   1.858   2.343 -0.6486  0.3395  0.5418
 4168TIP3    H212469   6.240   1.941   2.292 -0.6211 -0.3462 -0.5532
 4169TIP3   OH212470   4.971   2.839   2.710  0.1700 -1.0598  0.0730
 4169TIP3    H112471   4.948   2.919   2.662  0.0439 -1.8998 -1.2981
 4169TIP3    H212472   5.019   2.786   2.647  2.4459 -1.0648  1.7047
 4170TIP3   OH212473   0.341   2.853   4.704 -0.1193  0.4663 -0.1176
 4170TIP3    H112474   0.389   2.803   4.771 -1.4172 -1.2903 -0.4093
 4170TIP3    H212475   0.394   2.931   4.690  2.5002 -1.1934 -0.2128
 4171TIP3   OH212476   4.180   0.347   3.465  0.4931 -0.3561  0.2322
 4171TIP3    H112477   4.094   0.318   3.435  0.3544 -0.2245  0.4965
 4171TIP3    H212478   4.181   0.441   3.448  1.0043 -0.5312 -0.7732
 4172TIP3   OH212479   4.912   5.208   2.820 -0.4487 -0.2323 -0.1803
 4172TIP3    H112480   5.007   5.200   2.827 -0.2031 -0.3429 -2.6294
 4172TIP3    H212481   4.880   5.197   2.909  1.8625  0.3163  0.7801
 4173TIP3   OH212482   2.736   4.877   1.507  0.4061 -0.6170  0.0781
 4173TIP3    H112483   2.675   4.830   1.563  0.4388  0.7758  1.3346
 4173TIP3    H212484   2.709   4.854   1.418 -2.0127 -0.0014  0.5886
 4174TIP3   OH212485   5.639   1.340   2.381 -0.1406  0.4185 -0.7552
 4174TIP3    H112486   5.621   1.423   2.425 -1.8395 -0.0800 -0.4453
 4174TIP3    H212487   5.615   1.357   2.289 -1.4122  0.0311 -0.5180
 4175TIP3   OH212488   6.111   4.045   5.453 -0.4000  0.5320 -0.5103
 4175TIP3    H112489   6.067   4.096   5.521 -0.6940  0.9067 -0.9710
 4175TIP3    H212490   6.203   4.045   5.478 -0.6756 -0.4615  0.5962
 4176TIP3   OH212491   4.764   1.023   1.673  0.6013 -0.1772 -0.4460
 4176TIP3    H112492   4.671   1.033   1.654  0.2798 -0.4357  0.9146
 4176TIP3    H212493   4.779   0.929   1.675  0.8311 -0.1414 -0.4189
 4177TIP3   OH212494   5.743   1.869   5.406  0.0726 -0.4671 -0.4236
 4177TIP3    H112495   5.829   1.911   5.398  0.2887 -0.7751  0.1446
 4177TIP3    H212496   5.759   1.795   5.466 -0.6075 -0.4662 -0.2359
 4178TIP3   OH212497   5.673   5.111   4.720 -0.2291 -0.4114  0.0494
 4178TIP3    H112498   5.728   5.051   4.770 -0.9351 -1.9026 -0.8686
 4178TIP3    H212499   5.730   5.144   4.651  0.2139  0.1178  0.6638
 4179TIP3   OH212500   5.968   0.988   4.584  0.3397 -0.0490 -0.1976
 4179TIP3    H112501   5.999   1.078   4.587  0.2269 -0.0221  0.2236
 4179TIP3    H212502   5.873   0.995   4.581  0.3445 -0.0765 -3.5094
 4180TIP3   OH212503   1.282   1.528   3.998 -0.4647  0.1912  0.0192
 4180TIP3    H112504   1.302   1.451   4.051 -1.6403  0.4323  0.8413
 4180TIP3    H212505   1.349   1.528   3.930  0.8700 -0.3440  1.2697
 4181TIP3   OH212506   6.375   5.750   0.545 -0.4045  0.3663 -0.2761
 4181TIP3    H112507   6.423   5.721   0.468 -1.8437 -1.5226 -0.5489
 4181TIP3    H212508   6.296   5.791   0.510 -2.2962 -2.6817  0.0537
 4182TIP3   OH212509   4.783   4.772   0.048 -0.3066 -0.0100 -0.3213
 4182TIP3    H112510   4.824   4.687   0.059  1.2363  0.5404 -1.4085
 4182TIP3    H212511   4.694   4.753   0.018  0.3375 -1.2445 -1.5617
 4183TIP3   OH212512   2.470   1.730   0.023 -0.4327 -0.1311  0.2881
 4183TIP3    H112513   2.426   1.692   0.099 -0.6677 -0.3989  0.0190
 4183TIP3    H212514   2.403   1.784  -0.019 -0.2582  0.1448  0.3540
 4184TIP3   OH212515   7.061   0.402   4.930 -0.2400 -0.1207  0.0900
 4184TIP3    H112516   6.999   0.329   4.926 -1.2121  0.6439  0.6594
 4184TIP3    H212517   7.056   0.432   5.021  0.2913  0.5274 -0.0870
 4185TIP3   OH212518   3.539   1.895   0.632  0.3914 -0.1369  0.3516
 4185TIP3    H112519   3.488   1.974   0.651  1.0630  0.4432 -0.2203
 4185TIP3    H212520   3.565   1.904   0.541  0.9337 -0.7642  0.4357
 4186TIP3   OH212521   5.130   5.074   3.135  0.4046  0.6924 -0.3918
 4186TIP3    H112522   5.037   5.060   3.150  0.4988  1.0597  0.6629
 4186TIP3    H212523   5.161   5.115   3.216  1.2238  1.8021 -1.2407
 4187TIP3   OH212524   3.750   4.319   4.793 -0.1050  0.6955  0.2600
 4187TIP3    H112525   3.676   4.379   4.777  0.9058  1.9691  0.2111
 4187TIP3    H212526   3.825   4.362   4.752  0.4468 -1.2128 -0.8452
 4188TIP3   OH212527   6.468   3.236   2.714  0.0941 -0.1614 -0.2480
 4188TIP3    H112528   6.534   3.233   2.783  1.5012 -0.5115 -1.5496
 4188TIP3    H212529   6.450   3.144   2.694  0.4690 -0.0751 -1.0251
 4189TIP3   OH212530   0.158   6.323   0.223  0.4194 -0.0645 -0.6406
 4189TIP3    H112531   0.151   6.367   0.138 -0.1616  2.8666  0.7974
 4189TIP3    H212532   0.249   6.296   0.229  0.7895  0.8616 -1.6740
 4190TIP3   OH212533   4.703   2.966   2.561 -0.5132 -0.4451  0.0493
 4190TIP3    H112534   4.641   3.025   2.518 -1.4329  0.8457  2.9347
 4190TIP3    H212535   4.782   3.019   2.573 -0.6407 -0.4171  0.8410
 4191TIP3   OH212536   2.819   5.711   3.122 -0.2244  0.6862 -0.3362
 4191TIP3    H112537   2.803   5.624   3.085 -1.0864  0.7629 -0.1570
 4191TIP3    H212538   2.912   5.728   3.103  0.1040 -0.4887  0.0987
 4192TIP3   OH212539   4.842   1.345   5.146  0.1001 -0.3362  0.1235
 4192TIP3    H112540   4.750   1.330   5.125  0.2634 -0.6873 -0.3585
 4192TIP3    H212541   4.884   1.357   5.061  0.4802 -0.0495  0.3489
 4193TIP3   OH212542   4.828   1.555   2.931  0.1543  0.2422  0.4553
 4193TIP3    H112543   4.846   1.646   2.909  0.1896  0.2303  0.4360
 4193TIP3    H212544   4.899   1.506   2.890 -1.2594 -0.0724 -1.7584
 4194TIP3   OH212545   4.948   4.456   2.199 -0.3843  0.0857 -0.4451
 4194TIP3    H112546   4.911   4.382   2.248 -0.5921  0.0714 -0.6230
 4194TIP3    H212547   5.026   4.481   2.249 -0.9188  0.4459  0.2158
 4195TIP3   OH212548   1.822   5.128   5.380  0.0043 -0.0386  0.4798
 4195TIP3    H112549   1.836   5.159   5.290  0.8501 -0.9480  0.2710
 4195TIP3    H212550   1.728   5.117   5.388 -0.1636  0.9241  0.0158
 4196TIP3   OH212551   5.740   3.608   4.889  0.1978  0.0956  0.7191
 4196TIP3    H112552   5.699   3.545   4.949  0.6554 -0.4611  0.4581
 4196TIP3    H212553   5.669   3.637   4.833 -0.1218  0.1951  1.1716
 4197TIP3   OH212554   2.571   6.257   4.394 -0.5474  0.2483  0.7554
 4197TIP3    H112555   2.523   6.239   4.313 -0.8468  0.2938  0.9244
 4197TIP3    H212556   2.605   6.345   4.382  2.2097 -0.8776 -0.7269
 4198TIP3   OH212557   7.071   5.398   5.672 -0.2983  0.1182 -0.5868
 4198TIP3    H112558   6.977   5.413   5.682 -0.0979  1.9997 -1.1790
 4198TIP3    H212559   7.099   5.462   5.606  1.5850  0.3717  0.3734
 4199TIP3   OH212560   5.793   0.294   1.972  0.3926  0.7778  0.8746
 4199TIP3    H112561   5.821   0.338   2.052 -1.0493  2.3330  0.5767
 4199TIP3    H212562   5.723   0.349   1.937 -0.2387 -0.8084 -0.5168
 4200TIP3   OH212563   0.648   1.706   5.292  0.1514  0.3847  0.1358
 4200TIP3    H112564   0.573   1.729   5.346  0.4896  0.1509  0.7160
 4200TIP3    H212565   0.621   1.625   5.247  0.3648 -0.1909  1.0132
 4201TIP3   OH212566   1.273   3.155   2.784 -0.4178  0.4135  0.3965
 4201TIP3    H112567   1.200   3.200   2.827  0.1952  0.5405  1.3365
 4201TIP3    H212568   1.238   3.128   2.699 -0.8977  2.4287 -0.0926
 4202TIP3   OH212569   4.196   3.515   0.164 -0.5308 -0.2887  0.4773
 4202TIP3    H112570   4.181   3.444   0.102 -0.3793  0.4778 -0.4573
 4202TIP3    H212571   4.250   3.578   0.116  2.6952 -1.2616  2.4977
 4203TIP3   OH212572   6.296   1.876   3.144 -0.4915  0.2842 -0.4230
 4203TIP3    H112573   6.357   1.828   3.088 -0.9497 -0.1048 -0.6041
 4203TIP3    H212574   6.262   1.946   3.089  1.8360  2.2601  0.4975
 4204TIP3   OH212575   3.544   6.050   3.196  0.0782  0.3308 -0.6490
 4204TIP3    H112576   3.520   6.071   3.106  1.6831 -0.0243 -1.1920
 4204TIP3    H212577   3.632   6.013   3.189  1.1677  2.3009  1.2627
 4205TIP3   OH212578   6.080  -0.023   3.219 -0.3052 -0.0061  0.0121
 4205TIP3    H112579   6.063   0.071   3.219 -2.1102 -0.2905 -0.4706
 4205TIP3    H212580   6.099  -0.044   3.128 -1.1826 -0.2880 -0.1185
 4206TIP3   OH212581   5.975   1.999   5.379 -0.2732 -0.1609 -0.2984
 4206TIP3    H112582   6.060   1.983   5.338 -1.1436 -2.0949 -1.4953
 4206TIP3    H212583   5.966   2.095   5.380  1.6328  0.0583 -0.7034
 4207TIP3   OH212584   4.469   2.128   4.281 -0.3922  0.7557 -0.3498
 4207TIP3    H112585   4.483   2.044   4.324  1.7619  1.0223 -0.4160
 4207TIP3    H212586   4.514   2.120   4.197 -0.0918  1.9679 -0.3287
 4208TIP3   OH212587   3.539   3.652   4.137 -0.7168 -0.3778  0.2063
 4208TIP3    H112588   3.550   3.739   4.099  3.7702  1.1453  3.9604
 4208TIP3    H212589   3.591   3.595   4.081  0.4759  0.5054  0.3591
 4209TIP3   OH212590   7.005   2.733   4.988  0.0089 -0.0199 -0.2724
 4209TIP3    H112591   6.935   2.739   4.923 -1.0402  0.1838  0.8517
 4209TIP3    H212592   7.055   2.814   4.976  0.6216 -0.5762 -1.6826
 4210TIP3   OH212593   4.827   3.503   5.458 -0.5762  0.0070  0.1628
 4210TIP3    H112594   4.745   3.532   5.419 -0.5800 -0.7825 -0.4550
 4210TIP3    H212595   4.809   3.500   5.552 -1.1744  0.0897  0.0559
 4211TIP3   OH212596   4.674   4.249   0.434 -0.6002  0.0861  0.1453
 4211TIP3    H112597   4.712   4.217   0.516 -0.6029  1.1478  0.5808
 4211TIP3    H212598   4.667   4.172   0.379 -1.2790 -0.8002  1.4141
 4212TIP3   OH212599   4.042   1.052   3.087  0.1391 -0.2706 -0.0130
 4212TIP3    H112600   3.962   1.001   3.099  0.5461 -0.4556  2.4930
 4212TIP3    H212601   4.078   1.022   3.003 -1.8331 -0.9517 -0.6608
 4213TIP3   OH212602   3.385   3.323   1.812 -0.2386 -0.0467 -0.0439
 4213TIP3    H112603   3.312   3.299   1.868 -0.5870 -0.8583 -0.8202
 4213TIP3    H212604   3.406   3.414   1.836 -0.6568 -0.2418  1.0719
 4214TIP3   OH212605   0.190   6.382   4.948 -0.2885  0.4349  0.5528
 4214TIP3    H112606   0.255   6.407   4.883  0.0255 -0.8220  0.3517
 4214TIP3    H212607   0.135   6.459   4.959  0.3365  1.0236 -0.3717
 4215TIP3   OH212608   5.825   2.664   3.591  0.0172 -0.5658  0.0017
 4215TIP3    H112609   5.851   2.745   3.547  0.8076  0.0625  1.5665
 4215TIP3    H212610   5.907   2.618   3.607 -0.3299 -1.1555  0.1117
 4216TIP3   OH212611   6.415   2.305   0.322 -0.2145  0.1414 -0.0940
 4216TIP3    H112612   6.450   2.369   0.260  0.4894  0.1785  0.3318
 4216TIP3    H212613   6.455   2.222   0.296 -2.8162 -0.6591 -2.0658
 4217TIP3   OH212614   4.897   6.150   4.696  0.4501 -0.0951 -0.3189
 4217TIP3    H112615   4.987   6.144   4.730  0.7527  1.3832 -0.8202
 4217TIP3    H212616   4.846   6.093   4.754  1.5267 -0.1148  0.6377
 4218TIP3   OH212617   2.409   4.165   2.816  0.1583  0.4231 -0.1568
 4218TIP3    H112618   2.468   4.171   2.891 -1.3528  1.6828  1.0094
 4218TIP3    H212619   2.389   4.072   2.809 -0.6753  0.3983  1.8683
 4219TIP3   OH212620   3.163   0.778   1.440 -0.0276 -0.2735 -0.3827
 4219TIP3    H112621   3.134   0.715   1.373  0.8834 -0.0812 -0.9807
 4219TIP3    H212622   3.243   0.815   1.404  2.2606 -2.3709  2.1166
 4220TIP3   OH212623   1.248   6.475   1.543 -0.1082  0.4640  0.4646
 4220TIP3    H112624   1.247   6.456   1.449  0.4128  0.3873  0.4736
 4220TIP3    H212625   1.308   6.409   1.580 -0.4508  0.3771  0.8751
 4221TIP3   OH212626   3.023   0.020   4.730 -0.3300  0.1591  0.1450
 4221TIP3    H112627   3.104   0.071   4.740  0.4006 -0.5744 -1.6376
 4221TIP3    H212628   3.051  -0.071   4.731 -1.2674 -0.1431  0.3783
 4222TIP3   OH212629   0.244   2.018   2.336 -0.8212  0.5996 -0.0467
 4222TIP3    H112630   0.237   2.075   2.259 -0.7373  0.4156 -0.1935
 4222TIP3    H212631   0.276   2.075   2.405 -0.0459  0.5821 -0.3740
 4223TIP3   OH212632   2.238   4.669   4.331 -0.2084  0.1992 -0.2107
 4223TIP3    H112633   2.239   4.708   4.244  1.2632  2.6097  0.7751
 4223TIP3    H212634   2.302   4.598   4.326 -1.4966 -0.9195 -1.5437
 4224TIP3   OH212635   5.253   5.880   3.337  0.6291  0.3180  0.4714
 4224TIP3    H112636   5.279   5.913   3.424 -0.0542  0.3655  0.6588
 4224TIP3    H212637   5.173   5.831   3.353  1.1717 -0.7386  0.0564
 4225TIP3   OH212638   4.044   6.780   0.416  0.1583 -0.4953  0.3573
 4225TIP3    H112639   3.980   6.763   0.486 -0.8442 -1.4868 -0.7588
 4225TIP3    H212640   4.129   6.776   0.460 -0.5284  1.8175  2.0745
 4226TIP3   OH212641   5.698   5.206   5.561 -0.5881 -0.2369  0.0466
 4226TIP3    H112642   5.627   5.240   5.614 -1.2796  0.4470 -1.2925
 4226TIP3    H212643   5.705   5.265   5.487 -0.6431 -1.9816 -1.4314
 4227TIP3   OH212644   3.744   6.771   5.620  0.2182 -0.3821  0.0088
 4227TIP3    H112645   3.832   6.801   5.597  0.0068 -0.7767 -1.3838
 4227TIP3    H212646   3.757   6.685   5.660  0.3641 -1.2721 -1.8611
 4228TIP3   OH212647   6.769   4.424   2.636  0.6349 -0.2622  0.3560
 4228TIP3    H112648   6.774   4.449   2.543  1.4082  0.7416  0.6548
 4228TIP3    H212649   6.859   4.428   2.667  0.6463 -2.3335  0.7401
 4229TIP3   OH212650   4.683   2.665   4.127 -0.2143 -0.1393  0.0811
 4229TIP3    H112651   4.639   2.581   4.115  0.4410 -0.2918 -1.4469
 4229TIP3    H212652   4.699   2.696   4.038  1.8735  0.3832  0.5997
 4230TIP3   OH212653   3.298   1.167   4.052 -0.0227 -0.1467 -0.6455
 4230TIP3    H112654   3.385   1.128   4.057  0.2243  0.5162  0.5422
 4230TIP3    H212655   3.266   1.166   4.142 -1.0815 -0.0054 -1.0089
 4231TIP3   OH212656   6.395   1.517   2.573 -0.0211 -0.2289  0.3065
 4231TIP3    H112657   6.367   1.426   2.584  0.5170 -0.7663 -2.2512
 4231TIP3    H212658   6.390   1.554   2.662 -0.3313 -2.6972  1.4058
 4232TIP3   OH212659   3.439   2.895   3.777 -0.0170  0.2011  0.0481
 4232TIP3    H112660   3.368   2.843   3.741  0.1435  0.6154 -0.8922
 4232TIP3    H212661   3.481   2.935   3.701  0.1047  1.3867  0.7111
 4233TIP3   OH212662   5.441   0.872   0.575  0.2565 -0.0383 -0.0912
 4233TIP3    H112663   5.499   0.891   0.501  0.7206 -0.2559  0.2113
 4233TIP3    H212664   5.394   0.953   0.590  1.3559  0.5258  0.4257
 4234TIP3   OH212665   4.560   0.593   3.407 -0.3620 -0.1160  0.0152
 4234TIP3    H112666   4.555   0.683   3.441  0.6166 -0.4992  1.2667
 4234TIP3    H212667   4.568   0.539   3.485 -1.9617 -1.4190 -0.6632
 4235TIP3   OH212668   3.328   1.177   3.190 -0.2156  0.9886  0.2474
 4235TIP3    H112669   3.257   1.129   3.149 -1.2779  2.1817  0.6330
 4235TIP3    H212670   3.286   1.252   3.233  1.1502  1.1845  1.3291
 4236TIP3   OH212671   2.233   3.061   5.703 -0.0232  0.8450 -0.5517
 4236TIP3    H112672   2.236   3.096   5.615 -0.2893 -1.7069 -1.6632
 4236TIP3    H212673   2.157   3.103   5.743 -0.9327  0.7807 -2.1386
 4237TIP3   OH212674   1.470   2.113   1.103  0.3816  0.2566 -0.1289
 4237TIP3    H112675   1.542   2.086   1.045 -0.0959 -0.3236 -0.4544
 4237TIP3    H212676   1.464   2.043   1.168  0.3193  0.4663  0.0929
 4238TIP3   OH212677   0.184   4.397   3.503 -1.1493  0.6564 -0.3981
 4238TIP3    H112678   0.136   4.324   3.543  1.1044  0.5750  2.5365
 4238TIP3    H212679   0.237   4.356   3.435  0.3839 -0.6386  1.4682
 4239TIP3   OH212680   0.972   4.751   4.818 -0.5653  0.3857 -0.1582
 4239TIP3    H112681   1.019   4.668   4.823  0.1247  0.7755  0.0136
 4239TIP3    H212682   0.880   4.727   4.825 -0.3093 -0.2294  1.5168
 4240TIP3   OH212683   0.548   0.392   0.124  0.1381 -0.0120 -0.6778
 4240TIP3    H112684   0.510   0.354   0.045  0.5427 -0.7405 -0.5282
 4240TIP3    H212685   0.614   0.328   0.152 -1.1194 -0.5644  1.1702
 4241TIP3   OH212686   1.916   1.416   2.425  0.3437 -0.5108  0.2484
 4241TIP3    H112687   1.979   1.345   2.434 -0.0883 -0.8823  0.4026
 4241TIP3    H212688   1.837   1.374   2.390 -0.4447 -0.4238  1.8231
 4242TIP3   OH212689   6.452   4.179   4.950 -0.3824  0.3800  0.0057
 4242TIP3    H112690   6.401   4.227   5.015  0.4360  0.6028  0.4970
 4242TIP3    H212691   6.388   4.127   4.903 -0.8576 -0.9783  2.0208
 4243TIP3   OH212692   4.761   6.091   3.968 -0.2386 -0.2184  0.7451
 4243TIP3    H112693   4.771   6.156   3.899  2.5280  0.4350  1.6413
 4243TIP3    H212694   4.706   6.134   4.034  2.8915  2.0847  2.1154
 4244TIP3   OH212695   6.710   4.889   0.800  0.5649  0.2601 -0.2169
 4244TIP3    H112696   6.764   4.958   0.763  0.5626  1.4467  1.8529
 4244TIP3    H212697   6.766   4.847   0.865 -0.0746 -0.3990 -0.0762
 4245TIP3   OH212698   6.948   2.774   5.289  0.9502 -0.5535  0.4792
 4245TIP3    H112699   6.861   2.744   5.317  0.4979  0.7247  0.5096
 4245TIP3    H212700   6.954   2.745   5.198  1.0203 -1.7215  0.8275
 4246TIP3   OH212701   2.005   2.345   2.818 -0.0371  0.1416 -0.2369
 4246TIP3    H112702   1.947   2.299   2.879  1.3962 -0.9813  0.3554
 4246TIP3    H212703   1.954   2.354   2.738 -0.0650 -3.5547 -0.7994
 4247TIP3   OH212704   0.216   1.899   4.821 -0.6523  0.1074 -0.2396
 4247TIP3    H112705   0.203   1.972   4.760 -0.2676 -1.0056 -1.7249
 4247TIP3    H212706   0.242   1.940   4.903  1.2592  1.6192 -1.5016
 4248TIP3   OH212707   5.010   3.320   4.122 -0.2830  0.4264  0.3790
 4248TIP3    H112708   5.073   3.318   4.051 -1.2827  2.6446 -0.6550
 4248TIP3    H212709   5.054   3.366   4.193 -0.0931  0.2873  0.3510
 4249TIP3   OH212710   1.551   2.855   0.592 -0.4696 -0.1514 -0.1046
 4249TIP3    H112711   1.506   2.847   0.508 -0.5228  0.4985 -0.1393
 4249TIP3    H212712   1.562   2.949   0.605  1.5711 -0.2825 -0.4784
 4250TIP3   OH212713   5.664   0.754   3.531  0.3798  1.0472  0.2279
 4250TIP3    H112714   5.712   0.836   3.543 -0.0233  1.5006 -1.0416
 4250TIP3    H212715   5.680   0.704   3.611  0.3001  2.5414  1.2145
 4251TIP3   OH212716   3.786   3.933   5.760 -0.0067  0.0700  0.1628
 4251TIP3    H112717   3.860   3.927   5.821 -1.0536  1.3158  1.6533
 4251TIP3    H212718   3.750   4.020   5.776 -0.6438  0.2390 -1.9298
 4252TIP3   OH212719   6.013   0.776   1.128  0.4115  0.3615 -0.3304
 4252TIP3    H112720   5.957   0.812   1.059  0.1597  2.3009  0.8139
 4252TIP3    H212721   6.081   0.843   1.140  1.0263 -0.4131  0.6070
 4253TIP3   OH212722   7.160   4.519   3.980 -0.0027 -0.3231 -0.4446
 4253TIP3    H112723   7.251   4.497   4.002 -0.2643 -0.7257  0.2813
 4253TIP3    H212724   7.158   4.615   3.982  0.4399 -0.3070 -0.6060
 4254TIP3   OH212725   0.463   5.585   2.352  0.0726 -0.2329 -0.4725
 4254TIP3    H112726   0.490   5.676   2.343 -0.3519  0.0232  0.5996
 4254TIP3    H212727   0.371   5.590   2.379  0.4700 -0.9075  1.1648
 4255TIP3   OH212728   0.101   2.456   0.218 -0.2959 -0.5333  0.0223
 4255TIP3    H112729   0.048   2.524   0.259  1.4362  0.5842  0.4839
 4255TIP3    H212730   0.114   2.486   0.128 -0.1137 -0.6244  0.0182
 4256TIP3   OH212731   2.923   2.207   2.515  0.8987  0.4738 -0.3255
 4256TIP3    H112732   2.916   2.129   2.460  1.4646 -1.1686  1.7739
 4256TIP3    H212733   3.001   2.192   2.569 -0.8814  0.7988  2.5703
 4257TIP3   OH212734   5.981   5.362   0.122 -0.6525 -0.2859 -0.1091
 4257TIP3    H112735   5.949   5.278   0.088 -0.3918 -0.1354 -0.7339
 4257TIP3    H212736   5.908   5.423   0.107  0.5819  0.5881 -3.5663
 4258TIP3   OH212737   0.909   2.619   2.265 -0.4084  0.0059  0.6407
 4258TIP3    H112738   0.885   2.674   2.339 -0.1676  0.4782  0.3688
 4258TIP3    H212739   0.879   2.668   2.188  0.8267  0.3044  0.3264
 4259TIP3   OH212740   2.259   2.089   5.470  0.4615  0.4703 -0.0067
 4259TIP3    H112741   2.260   2.160   5.534  0.5180 -0.1697  0.7166
 4259TIP3    H212742   2.303   2.016   5.514 -1.0281 -0.5293 -0.1230
 4260TIP3   OH212743   2.572   5.506   5.146  0.5659  0.5107 -0.1184
 4260TIP3    H112744   2.549   5.589   5.188  0.4252 -0.1422  1.1469
 4260TIP3    H212745   2.569   5.442   5.217  3.0939 -0.1862 -0.5448
 4261TIP3   OH212746   6.934   0.291   3.428  0.1134 -0.0896  0.6557
 4261TIP3    H112747   7.028   0.285   3.411  0.0894 -1.2910  0.8819
 4261TIP3    H212748   6.912   0.210   3.475 -1.0622  0.0945  0.4679
 4262TIP3   OH212749   4.210   4.866   4.772 -0.0992 -0.6747 -0.0327
 4262TIP3    H112750   4.234   4.805   4.703 -1.7161 -0.0773 -1.1761
 4262TIP3    H212751   4.292   4.883   4.819  0.7043 -2.3715 -0.7478
 4263TIP3   OH212752   1.363   3.965   3.500 -0.1879  0.0910 -0.5326
 4263TIP3    H112753   1.427   3.903   3.536 -0.8054 -0.9302 -1.1289
 4263TIP3    H212754   1.299   3.909   3.456 -1.5950  1.0779  0.1931
 4264TIP3   OH212755   1.490   1.317   5.587 -0.1363 -0.1087  0.3074
 4264TIP3    H112756   1.530   1.271   5.514 -0.8223 -2.0444  1.0768
 4264TIP3    H212757   1.430   1.379   5.547 -0.2219 -0.8779 -0.7817
 4265TIP3   OH212758   4.273   5.102   0.876 -0.5773 -0.1471  0.0559
 4265TIP3    H112759   4.307   5.013   0.887 -1.4602 -0.6102 -0.8156
 4265TIP3    H212760   4.304   5.129   0.790 -1.8888 -0.3623 -0.5130
 4266TIP3   OH212761   0.729   6.795   2.735  0.1446 -0.4140 -0.1001
 4266TIP3    H112762   0.716   6.799   2.830  1.0288  2.8198  0.0024
 4266TIP3    H212763   0.641   6.783   2.700 -0.6448  1.4045  1.1051
 4267TIP3   OH212764   2.224   5.051   2.207  0.1709  0.3589  0.2094
 4267TIP3    H112765   2.308   5.096   2.220  1.3751 -1.9531  0.8134
 4267TIP3    H212766   2.239   4.996   2.130 -0.6456 -0.4111  0.5944
 4268TIP3   OH212767   0.039   0.461   1.034  0.3105  0.7269 -0.5430
 4268TIP3    H112768   0.074   0.372   1.033 -2.1059 -0.3108 -0.1851
 4268TIP3    H212769  -0.034   0.460   0.972 -3.0198  0.8800  2.9366
 4269TIP3   OH212770   1.470   4.457   2.483  0.1344  0.0465  0.1659
 4269TIP3    H112771   1.483   4.391   2.415 -0.0956  1.0086 -0.8327
 4269TIP3    H212772   1.530   4.528   2.460 -0.3782  0.6460  0.6325
 4270TIP3   OH212773   1.503   0.734   5.630  0.1199 -0.1964 -0.4053
 4270TIP3    H112774   1.446   0.727   5.554 -0.6279 -0.9242  0.1985
 4270TIP3    H212775   1.503   0.827   5.652  0.2590  0.0028 -1.2185
 4271TIP3   OH212776   4.002   3.572   3.970  0.4659 -0.4950  0.2338
 4271TIP3    H112777   3.914   3.537   3.978 -0.5230  1.4891 -1.1645
 4271TIP3    H212778   4.047   3.512   3.911 -0.5364 -0.5647 -0.4862
 4272TIP3   OH212779   5.506   2.663   3.680  0.3459  0.0485  0.5580
 4272TIP3    H112780   5.451   2.723   3.629  0.1471 -0.8861 -0.3815
 4272TIP3    H212781   5.579   2.717   3.710  1.3484  0.3549 -2.1204
 4273TIP3   OH212782   4.341   1.042   3.362 -0.0824 -0.2803 -0.2960
 4273TIP3    H112783   4.310   1.112   3.305  0.1732  0.7043  0.7508
 4273TIP3    H212784   4.269   1.027   3.423 -0.5166 -1.6090 -1.0785
 4274TIP3   OH212785   0.467   5.607   4.646  0.1037 -0.3860 -0.0585
 4274TIP3    H112786   0.383   5.604   4.692  0.9326 -1.4756  1.4951
 4274TIP3    H212787   0.485   5.701   4.635 -0.2256 -0.0725  1.7428
 4275TIP3   OH212788   0.178   3.057   3.355 -0.1085  0.0612 -0.0182
 4275TIP3    H112789   0.215   3.070   3.443 -1.0735  0.3700  0.3643
 4275TIP3    H212790   0.220   3.124   3.301  0.1911  0.1373  0.3045
 4276TIP3   OH212791   1.533   1.452   2.105  0.0101  0.0647  0.3074
 4276TIP3    H112792   1.532   1.530   2.160  0.4356  1.2006 -1.2201
 4276TIP3    H212793   1.625   1.423   2.106  0.5589  1.5147 -1.6350
 4277TIP3   OH212794   4.305   3.719   3.867  0.4386  0.4174  0.1681
 4277TIP3    H112795   4.338   3.785   3.806 -2.1040  1.4287 -0.2721
 4277TIP3    H212796   4.253   3.660   3.813  1.0554 -0.7885  0.8659
 4278TIP3   OH212797   0.028   4.707   5.041 -0.7918  0.5587 -0.7510
 4278TIP3    H112798   0.033   4.674   4.951  1.8444  0.5482 -0.6732
 4278TIP3    H212799  -0.024   4.641   5.087  1.4099 -1.8213 -1.3734
 4279TIP3   OH212800   5.386   1.467   5.816  0.1171  0.3204 -0.1892
 4279TIP3    H112801   5.371   1.559   5.791  1.2939  0.2951 -1.0854
 4279TIP3    H212802   5.424   1.472   5.904 -1.2030  0.5856  0.3958
 4280TIP3   OH212803   0.214   5.094   1.042  0.5250  0.0155  0.1946
 4280TIP3    H112804   0.118   5.090   1.041  0.4835  0.7851 -0.4480
 4280TIP3    H212805   0.242   5.007   1.068 -0.3620 -0.0845  0.8368
 4281TIP3   OH212806   1.561   5.755   4.356 -0.0862 -0.3361 -0.0690
 4281TIP3    H112807   1.552   5.830   4.296 -2.1172  1.5067  2.3261
 4281TIP3    H212808   1.652   5.760   4.386  0.9631 -1.2699 -2.8259
 4282TIP3   OH212809   1.331   2.058   0.434  0.2596 -0.3728 -0.2215
 4282TIP3    H112810   1.261   2.112   0.399  0.8601  1.6201  1.4766
 4282TIP3    H212811   1.405   2.074   0.376  0.4567  0.7478  0.3180
 4283TIP3   OH212812   5.224   2.862   0.145 -0.2195  0.4425 -0.6611
 4283TIP3    H112813   5.161   2.896   0.082  1.4861 -1.2860 -3.5349
 4283TIP3    H212814   5.300   2.919   0.136 -0.0608  0.3677  0.1155
 4284TIP3   OH212815   3.087   3.284   5.411 -0.1575  0.6051  0.5730
 4284TIP3    H112816   3.135   3.219   5.359 -1.5357  0.2870 -0.3482
 4284TIP3    H212817   3.085   3.362   5.355  0.6412  1.1411  1.2700
 4285TIP3   OH212818   0.037   4.555   2.531  0.1348 -0.0786  0.4692
 4285TIP3    H112819   0.035   4.649   2.545 -0.6602  0.0080 -0.1635
 4285TIP3    H212820   0.127   4.529   2.552  0.6848  0.9968 -0.4915
 4286TIP3   OH212821   2.827   2.953   5.789  0.1241 -0.2100  0.2778
 4286TIP3    H112822   2.802   2.901   5.714  2.6321 -0.9480 -0.1435
 4286TIP3    H212823   2.761   2.933   5.856 -0.0429 -2.4685 -0.4847
 4287TIP3   OH212824   3.012   1.209   1.330 -0.7029 -0.1403  0.4294
 4287TIP3    H112825   3.076   1.256   1.383 -0.2437 -1.3269  0.9523
 4287TIP3    H212826   2.941   1.188   1.390 -1.4303  0.8257 -0.0599
 4288TIP3   OH212827   3.223   2.571   1.676 -0.3177 -0.5368  0.0375
 4288TIP3    H112828   3.179   2.565   1.591  2.4948  0.3202 -1.6220
 4288TIP3    H212829   3.238   2.479   1.701  0.2327 -0.8121 -1.2246
 4289TIP3   OH212830   2.028   5.283   3.955 -0.3914 -0.1160 -0.1678
 4289TIP3    H112831   2.039   5.314   4.045  1.0462 -0.5866 -0.1485
 4289TIP3    H212832   2.105   5.227   3.939 -1.1684 -0.9219 -1.3238
 4290TIP3   OH212833   3.170   0.104   3.557  0.2258 -0.1356  0.1529
 4290TIP3    H112834   3.192   0.018   3.594 -0.6718  0.2985  1.8013
 4290TIP3    H212835   3.075   0.109   3.561  0.1359  0.2648 -1.5835
 4291TIP3   OH212836   3.824   2.601   4.025 -0.5301 -0.3793 -0.0897
 4291TIP3    H112837   3.870   2.562   4.099 -1.1859  0.0182  0.5433
 4291TIP3    H212838   3.765   2.532   3.994  1.0811 -1.1958 -1.4699
 4292TIP3   OH212839   2.810   2.390   3.993 -0.1106 -0.1941  0.1078
 4292TIP3    H112840   2.841   2.399   3.903 -0.9504  0.6778 -0.1063
 4292TIP3    H212841   2.883   2.349   4.040  0.5199 -0.1915 -0.8592
 4293TIP3   OH212842   0.372   4.062   2.559 -0.1844  0.1821 -0.0966
 4293TIP3    H112843   0.400   4.154   2.559  1.0722 -0.1899 -0.2118
 4293TIP3    H212844   0.385   4.033   2.649  2.0251 -0.6201 -0.6091
 4294TIP3   OH212845   2.068   4.030   1.997  0.4366  0.2327 -0.0606
 4294TIP3    H112846   2.100   4.066   2.080 -1.2264  3.0979 -0.5276
 4294TIP3    H212847   2.051   4.107   1.943 -1.0320 -1.4328 -2.1225
 4295TIP3   OH212848   3.953   0.412   5.784 -0.1774  0.2071  0.2390
 4295TIP3    H112849   3.985   0.496   5.750  1.4160  0.2725  1.7818
 4295TIP3    H212850   3.966   0.418   5.879 -0.4456 -1.6144  0.4204
 4296TIP3   OH212851   4.537   4.491   2.722  0.8334 -0.2281 -0.0433
 4296TIP3    H112852   4.464   4.449   2.767  0.1963 -0.7713 -1.5477
 4296TIP3    H212853   4.615   4.465   2.772  0.0359  0.3556  1.5733
 4297TIP3   OH212854   3.256   1.743   4.869 -0.2054  0.0370  0.3799
 4297TIP3    H112855   3.298   1.657   4.881  1.2983  0.1990 -2.6066
 4297TIP3    H212856   3.329   1.802   4.850 -1.4901  0.8388 -2.6902
 4298TIP3   OH212857   5.663   3.717   2.840  0.1079 -0.5018  0.3144
 4298TIP3    H112858   5.614   3.665   2.777 -2.8795  1.7896  0.4901
 4298TIP3    H212859   5.647   3.674   2.924  1.5229 -1.7949 -0.0275
 4299TIP3   OH212860   1.608   3.197   3.112  0.1818 -0.4821 -0.3709
 4299TIP3    H112861   1.580   3.140   3.040  0.4847 -1.1947  0.0556
 4299TIP3    H212862   1.536   3.259   3.123  0.0015 -0.5520 -1.0856
 4300TIP3   OH212863   4.148   0.569   0.989 -0.2452 -0.0829  0.3125
 4300TIP3    H112864   4.133   0.495   0.931  0.0834 -0.3695  0.5943
 4300TIP3    H212865   4.201   0.534   1.060 -0.1863  0.3945  0.5070
 4301TIP3   OH212866   0.077   2.129   0.717  0.1805 -0.8613 -0.4569
 4301TIP3    H112867   0.149   2.082   0.675 -1.0563 -0.8388 -2.7660
 4301TIP3    H212868   0.061   2.205   0.660 -0.6233  0.0302  0.8893
 4302TIP3   OH212869   5.487   2.589   1.910  0.5125 -0.0080  0.7211
 4302TIP3    H112870   5.575   2.576   1.946  0.0983 -0.3365  1.6203
 4302TIP3    H212871   5.469   2.682   1.925  0.5775 -0.0102  0.8142
 4303TIP3   OH212872   3.732   1.764   5.414 -0.1604  0.1800  0.4809
 4303TIP3    H112873   3.664   1.783   5.478  0.0904  1.9331  0.2751
 4303TIP3    H212874   3.689   1.772   5.329 -0.4906 -2.1344  0.3422
 4304TIP3   OH212875   1.877   6.293   0.696 -0.0656 -0.2212  0.4015
 4304TIP3    H112876   1.847   6.334   0.615 -0.5788 -2.3035 -0.5470
 4304TIP3    H212877   1.830   6.210   0.699  1.9876 -1.4303  1.4095
 4305TIP3   OH212878   0.149   3.319   2.930 -0.4899 -0.4143 -0.5626
 4305TIP3    H112879   0.190   3.238   2.901 -0.5656 -0.3410 -0.8809
 4305TIP3    H212880   0.214   3.387   2.913 -0.9080 -0.2350 -1.4935
 4306TIP3   OH212881   1.730   4.150   3.379 -0.0690  0.4518 -0.2610
 4306TIP3    H112882   1.821   4.168   3.358  0.2154 -0.9759 -0.3010
 4306TIP3    H212883   1.731   4.122   3.471 -0.3117 -0.6367 -0.5804
 4307TIP3   OH212884   0.561   2.467   1.010 -0.6072  0.5999 -0.1166
 4307TIP3    H112885   0.519   2.438   1.092  0.9229 -0.5411  0.3115
 4307TIP3    H212886   0.654   2.453   1.025 -0.2986  0.2178 -2.1151
 4308TIP3   OH212887   5.821   2.327   5.148  0.4619  0.5567 -0.7054
 4308TIP3    H112888   5.809   2.236   5.122 -2.5068  0.4393  0.6156
 4308TIP3    H212889   5.894   2.325   5.210  0.4981 -0.9076 -0.7728
 4309TIP3   OH212890   5.608   1.079   3.038  0.1282 -0.3006 -0.3833
 4309TIP3    H112891   5.595   1.168   3.073 -1.4059 -0.8576  0.5570
 4309TIP3    H212892   5.694   1.053   3.070  0.6921  0.9174 -0.8484
 4310TIP3   OH212893   3.966   0.839   5.063 -0.2651 -0.2653  0.0019
 4310TIP3    H112894   3.889   0.872   5.110 -1.5017 -0.8443 -1.5163
 4310TIP3    H212895   3.936   0.830   4.972  0.8257 -2.9477 -0.1812
 4311TIP3   OH212896   0.929   6.398   5.806 -0.0169 -0.8044 -0.4957
 4311TIP3    H112897   0.846   6.351   5.812  0.2062 -1.0635  0.8216
 4311TIP3    H212898   0.939   6.418   5.713 -0.7142 -2.3058 -0.9213
 4312TIP3   OH212899   0.649   3.774   4.730 -0.2024 -0.4397 -0.1830
 4312TIP3    H112900   0.737   3.746   4.754 -0.3405 -1.7948 -1.1327
 4312TIP3    H212901   0.611   3.806   4.812  0.0560 -2.9206  0.9892
 4313TIP3   OH212902   4.188   3.799   1.279 -0.0779 -0.2730 -0.1374
 4313TIP3    H112903   4.180   3.893   1.296  0.8872 -0.1467 -0.2869
 4313TIP3    H212904   4.277   3.789   1.244 -1.0035 -0.9072 -2.4601
 4314TIP3   OH212905   4.601   4.060   4.715  0.4464  0.8286  0.3363
 4314TIP3    H112906   4.521   4.113   4.709 -1.9104 -2.3988  0.6829
 4314TIP3    H212907   4.585   3.986   4.656  1.0457 -2.3279  3.7722
 4315TIP3   OH212908   0.967   5.361   4.415  0.2425 -0.1211  0.2520
 4315TIP3    H112909   1.040   5.314   4.455  0.1202  0.8026  1.6125
 4315TIP3    H212910   1.001   5.450   4.401 -0.8513  0.5719  1.6982
 4316TIP3   OH212911   2.856   0.430   2.395  0.2441  0.4327  0.1911
 4316TIP3    H112912   2.869   0.404   2.486  1.1783 -0.6546 -0.2319
 4316TIP3    H212913   2.783   0.492   2.399  0.2020  0.3410  1.6623
 4317TIP3   OH212914   0.090   5.045   5.112  0.2509  0.2527 -1.0982
 4317TIP3    H112915   0.056   5.100   5.041 -2.3984  1.3536  0.8815
 4317TIP3    H212916   0.015   5.031   5.170  2.2216 -0.8322  1.3753
 4318TIP3   OH212917   6.751   4.738   2.788 -0.7133  0.2493  0.3300
 4318TIP3    H112918   6.697   4.796   2.734  3.1220  3.0130 -1.0009
 4318TIP3    H212919   6.761   4.658   2.736 -1.5916  0.6390 -0.4519
 4319TIP3   OH212920   0.109   4.861   5.400 -0.0705 -0.0073  0.1414
 4319TIP3    H112921   0.156   4.900   5.327 -1.8296  0.4334 -0.7980
 4319TIP3    H212922   0.034   4.816   5.360 -1.8388  1.3819  1.7321
 4320TIP3   OH212923   0.923   3.253   1.929 -0.2350  0.6885 -0.1467
 4320TIP3    H112924   0.938   3.212   1.844  1.1428 -1.2678  0.9592
 4320TIP3    H212925   0.933   3.182   1.992 -0.6167  2.2039  1.7124
 4321TIP3   OH212926   0.414   4.438   2.408 -0.0258 -0.1225 -0.0247
 4321TIP3    H112927   0.329   4.418   2.369 -0.2988  2.2356 -0.7737
 4321TIP3    H212928   0.409   4.401   2.496 -0.4068 -3.1852 -1.2285
 4322TIP3   OH212929   1.157   0.008   4.335 -0.4455 -0.6027  0.2060
 4322TIP3    H112930   1.179   0.101   4.333  0.3401 -0.7533  1.1070
 4322TIP3    H212931   1.187  -0.022   4.420  0.7851 -2.0138 -0.6689
 4323TIP3   OH212932   5.222   2.818   0.742  0.3231  0.3273 -0.1116
 4323TIP3    H112933   5.211   2.855   0.654  0.2925 -0.3293 -0.3938
 4323TIP3    H212934   5.139   2.776   0.761  0.7590 -0.6675 -0.3255
 4324TIP3   OH212935   3.505   0.040   5.430  0.2680  0.0371 -0.5754
 4324TIP3    H112936   3.548  -0.019   5.493 -0.3918  0.2573  0.0995
 4324TIP3    H212937   3.459  -0.018   5.370  0.0946 -0.1598 -0.2575
 4325TIP3   OH212938   3.901   5.553   1.739 -0.7856  0.3360  0.0725
 4325TIP3    H112939   3.893   5.459   1.724 -0.9015  0.1159  1.4218
 4325TIP3    H212940   3.943   5.586   1.660  0.2131 -1.0035  0.0145
 4326TIP3   OH212941   4.193   1.368   0.800 -0.2359  0.2063  0.2280
 4326TIP3    H112942   4.257   1.370   0.729 -2.3412  1.3290 -1.7689
 4326TIP3    H212943   4.227   1.430   0.865  1.7747 -0.9138  0.3340
 4327TIP3   OH212944   1.515   1.624   5.564 -1.1928 -0.1737 -0.7308
 4327TIP3    H112945   1.480   1.655   5.480 -1.9321 -0.6784 -0.6175
 4327TIP3    H212946   1.448   1.648   5.628  0.5046  2.6305  0.1866
 4328TIP3   OH212947   3.592   5.242   4.901 -0.5106  0.4906  0.0761
 4328TIP3    H112948   3.649   5.293   4.844 -0.9481  1.6501  0.6525
 4328TIP3    H212949   3.627   5.257   4.989 -0.5619 -0.3281  0.2463
 4329TIP3   OH212950   5.842   2.790   2.740 -0.0290  0.0624  0.0143
 4329TIP3    H112951   5.914   2.850   2.756  0.4029 -0.5151  0.2830
 4329TIP3    H212952   5.861   2.752   2.654  0.6832 -1.0317  0.6312
 4330TIP3   OH212953   3.743   4.201   1.055  0.1435  0.5430  0.2465
 4330TIP3    H112954   3.803   4.129   1.076  0.4695  0.4787 -0.8729
 4330TIP3    H212955   3.760   4.267   1.123 -1.6754 -1.2458  2.6335
 4331TIP3   OH212956   3.734   3.370   0.328  0.4193 -0.7293 -0.0251
 4331TIP3    H112957   3.717   3.304   0.261  1.3185  0.7385 -1.7782
 4331TIP3    H212958   3.685   3.447   0.299 -0.5184 -0.5194  1.9089
 4332TIP3   OH212959   3.053   2.321   1.901  0.2422  0.5115  0.1478
 4332TIP3    H112960   3.005   2.238   1.903 -0.3508  0.8558  1.5252
 4332TIP3    H212961   3.117   2.310   1.831 -0.0058 -1.0068  0.1207
 4333TIP3   OH212962   2.129   1.553   2.977 -0.2582  0.5162  0.2169
 4333TIP3    H112963   2.166   1.578   2.892  0.2872 -0.4869  0.1495
 4333TIP3    H212964   2.037   1.534   2.958  0.1411 -0.8926 -0.4019
 4334TIP3   OH212965   0.527   0.220   3.326  0.1339 -0.0077  0.2536
 4334TIP3    H112966   0.510   0.149   3.263 -0.4381  1.8744 -1.8626
 4334TIP3    H212967   0.495   0.298   3.282 -0.9068  1.3842  3.2138
 4335TIP3   OH212968   3.030   3.560   0.068  0.0618 -0.0077  0.5940
 4335TIP3    H112969   2.983   3.630   0.113  0.3760  0.9481 -0.5049
 4335TIP3    H212970   2.968   3.526   0.004 -0.1920 -0.9666  1.3295
 4336TIP3   OH212971   5.073   0.764   5.086 -0.2724 -0.2568  0.0361
 4336TIP3    H112972   5.061   0.699   5.156 -1.0047  0.8392  0.9685
 4336TIP3    H212973   5.019   0.732   5.014 -0.0355 -1.0623  0.1989
 4337TIP3   OH212974   6.355   3.832   1.158 -0.0093  0.3362  0.0970
 4337TIP3    H112975   6.411   3.756   1.174 -0.7326  0.1949  2.1467
 4337TIP3    H212976   6.407   3.907   1.186  0.3301  0.5364 -1.0085
 4338TIP3   OH212977   7.147   5.117   4.260 -0.3868  0.5454 -0.1476
 4338TIP3    H112978   7.090   5.042   4.239 -0.9035  1.4126 -2.0392
 4338TIP3    H212979   7.095   5.170   4.321  0.7671 -1.5528  2.8986
 4339TIP3   OH212980   2.056   1.627   2.249  0.5866  0.3535  0.8902
 4339TIP3    H112981   2.132   1.591   2.204  1.2013  0.2341  1.9892
 4339TIP3    H212982   2.010   1.550   2.284 -1.0167  0.2898 -1.2144
 4340TIP3   OH212983   6.611   0.014   4.599  0.6634 -0.2586  0.0783
 4340TIP3    H112984   6.583  -0.034   4.522 -0.0651  2.7591 -1.6945
 4340TIP3    H212985   6.530   0.034   4.646  0.9385 -0.6187  0.7166
 4341TIP3   OH212986   4.428   3.866   5.818 -0.0410  0.1467  0.0330
 4341TIP3    H112987   4.436   3.921   5.896  0.2528 -0.1139  0.1889
 4341TIP3    H212988   4.361   3.801   5.842 -0.9080  0.8550 -0.4036
 4342TIP3   OH212989   6.194   0.965   5.278 -0.2215  0.0052 -0.1311
 4342TIP3    H112990   6.256   0.983   5.208  0.2959  0.3755  0.4060
 4342TIP3    H212991   6.134   0.900   5.242  0.0281  0.2050 -0.9101
 4343TIP3   OH212992   1.736   4.842   2.888 -0.7129 -0.1940  0.3171
 4343TIP3    H112993   1.681   4.906   2.844  0.3773  1.2624  0.9525
 4343TIP3    H212994   1.744   4.770   2.827  0.3312  1.5232 -1.6930
 4344TIP3   OH212995   3.573   2.128   5.570 -0.2697 -0.4750  0.2970
 4344TIP3    H112996   3.639   2.071   5.610  0.8100 -0.5696 -1.4812
 4344TIP3    H212997   3.606   2.143   5.481 -0.5853  2.8101  0.6086
 4345TIP3   OH212998   5.031   4.350   5.897 -0.2739  0.0289 -0.7013
 4345TIP3    H112999   4.949   4.301   5.901  1.3666 -2.8796  1.4791
 4345TIP3    H213000   5.044   4.368   5.804 -2.9624 -0.0699 -1.1825
 4346TIP3   OH213001   1.967   5.249   2.302 -0.2491 -0.2552 -0.2304
 4346TIP3    H113002   2.037   5.281   2.244 -1.5868 -1.4409 -2.6377
 4346TIP3    H213003   2.013   5.223   2.382  2.0344 -0.5620 -1.5448
 4347TIP3   OH213004   5.764   4.843   1.561 -0.7003  0.4490 -0.1913
 4347TIP3    H113005   5.821   4.828   1.486  0.6733  0.9350  0.7060
 4347TIP3    H213006   5.683   4.798   1.540 -0.2578  0.3800 -1.8519
 4348TIP3   OH213007   3.961   2.858   1.747 -0.0262  0.1095  0.0798
 4348TIP3    H113008   4.014   2.792   1.703 -0.1121  0.9797 -1.3771
 4348TIP3    H213009   4.020   2.897   1.812  0.3583 -0.6003  0.1661
 4349TIP3   OH213010   6.065   3.276   0.411 -0.4362 -0.0792  0.0425
 4349TIP3    H113011   6.160   3.278   0.423 -0.4507 -2.1021  0.9000
 4349TIP3    H213012   6.031   3.325   0.486 -0.0918 -0.9112  0.7655
 4350TIP3   OH213013   6.410   3.375   0.978  0.5891 -0.8033  0.2134
 4350TIP3    H113014   6.330   3.408   0.936  0.4036 -1.3542  0.1184
 4350TIP3    H213015   6.382   3.292   1.018  0.5615  0.0733  2.0976
 4351TIP3   OH213016   6.621   2.225   0.553 -0.7632 -0.2030 -0.3945
 4351TIP3    H113017   6.635   2.282   0.628 -0.7980  0.3867 -0.8308
 4351TIP3    H213018   6.562   2.157   0.585 -0.5548 -0.1133  0.1847
 4352TIP3   OH213019   6.656   2.828   2.826  0.1038  0.6658 -0.2226
 4352TIP3    H113020   6.563   2.807   2.828 -0.3365  1.6762 -3.5989
 4352TIP3    H213021   6.689   2.799   2.911 -2.9932 -0.9384  0.5861
 4353TIP3   OH213022   0.183   1.924   1.460 -0.0552  0.1334 -0.4140
 4353TIP3    H113023   0.115   1.986   1.488 -0.2360 -0.1507 -0.2087
 4353TIP3    H213024   0.206   1.876   1.540 -0.2921 -0.4171 -0.6683
 4354TIP3   OH213025   0.238   5.427   2.102 -0.2654 -0.1060 -0.2781
 4354TIP3    H113026   0.155   5.443   2.057 -0.6942 -1.2684  0.0786
 4354TIP3    H213027   0.214   5.376   2.179  0.2629  2.7689  2.0062
 4355TIP3   OH213028   2.266   4.915   5.555  0.2203  0.1650  0.0082
 4355TIP3    H113029   2.219   4.924   5.472  0.5036 -0.6495 -0.2498
 4355TIP3    H213030   2.356   4.895   5.529  0.2016 -0.5921  0.5153
 4356TIP3   OH213031   4.315   5.590   3.766 -0.2774  0.3663  0.6256
 4356TIP3    H113032   4.265   5.616   3.689  1.4207 -0.4397 -0.8098
 4356TIP3    H213033   4.381   5.659   3.776  0.2750 -0.1498  0.6015
 4357TIP3   OH213034   5.962   4.058   1.137  0.5802  0.3815  0.2795
 4357TIP3    H113035   5.868   4.060   1.157  0.7454 -0.1534  1.1528
 4357TIP3    H213036   5.967   4.088   1.046 -0.3339  1.4622  0.5482
 4358TIP3   OH213037   2.452   4.607   1.037 -0.5406  0.4720  0.4589
 4358TIP3    H113038   2.514   4.678   1.019  1.9436 -1.8039 -0.5999
 4358TIP3    H213039   2.476   4.575   1.124 -0.0951 -0.5379 -0.0264
 4359TIP3   OH213040   4.297   1.189   4.338 -0.5263 -0.4499 -0.1067
 4359TIP3    H113041   4.361   1.236   4.285 -1.5878  1.0634 -0.0994
 4359TIP3    H213042   4.286   1.105   4.294  2.0549 -1.1200  0.3582
 4360TIP3   OH213043   5.922   0.970   2.267 -0.1555  0.6633 -0.2699
 4360TIP3    H113044   6.011   0.988   2.237  0.5613 -2.3534 -0.2920
 4360TIP3    H213045   5.876   0.937   2.189 -0.1006 -1.3833  0.5027
 4361TIP3   OH213046   1.366   0.521   1.511  0.3027 -0.3587  0.1809
 4361TIP3    H113047   1.353   0.517   1.605  1.8642 -1.6729  0.3902
 4361TIP3    H213048   1.306   0.455   1.475 -0.9862  0.8044  0.1342
 4362TIP3   OH213049   3.578   4.790   3.995  0.4071 -0.3685 -0.2361
 4362TIP3    H113050   3.636   4.856   3.958  0.5832 -0.8384 -0.8159
 4362TIP3    H213051   3.529   4.756   3.920 -0.6289  0.0240  0.2458
 4363TIP3   OH213052   1.488   6.556   4.797 -0.3071  0.0379 -0.4554
 4363TIP3    H113053   1.414   6.607   4.831  0.0321  0.0558  0.2627
 4363TIP3    H213054   1.565   6.608   4.820 -0.0354 -0.2476 -0.7231
 4364TIP3   OH213055   5.208   2.514   4.277 -0.3580 -0.2214 -0.1055
 4364TIP3    H113056   5.120   2.527   4.243 -0.2230  0.5184 -0.1888
 4364TIP3    H213057   5.195   2.467   4.359 -0.7715 -0.8414 -0.5211
 4365TIP3   OH213058   5.362   1.150   5.722 -0.2836  0.3102 -0.5742
 4365TIP3    H113059   5.377   1.160   5.816  1.7164 -0.7716 -0.7188
 4365TIP3    H213060   5.440   1.105   5.690 -1.7146 -1.0042 -2.4560
 4366TIP3   OH213061   0.800   2.695   4.969 -0.3440  0.3208  0.2999
 4366TIP3    H113062   0.887   2.727   4.945 -0.2199 -0.0785  0.2190
 4366TIP3    H213063   0.798   2.605   4.937  0.1347 -0.5410  2.5346
 4367TIP3   OH213064   0.066   2.651   4.170 -0.2124  0.2852 -0.0958
 4367TIP3    H113065   0.043   2.621   4.083 -1.0493 -1.5497  0.6964
 4367TIP3    H213066   0.089   2.571   4.218 -0.5532  1.1334  1.5759
 4368TIP3   OH213067   7.039   4.760   5.270 -0.4970  0.3232  0.4287
 4368TIP3    H113068   7.031   4.664   5.274 -1.8706  0.4128  0.3300
 4368TIP3    H213069   6.961   4.788   5.222  0.9179  1.3624 -1.3524
 4369TIP3   OH213070   6.304   3.069   0.357 -0.1514 -0.0839  0.7879
 4369TIP3    H113071   6.373   3.070   0.291  0.0472  0.8081  0.9973
 4369TIP3    H213072   6.310   3.154   0.400 -0.8267 -0.3252  1.3914
 4370TIP3   OH213073   0.393   1.659   0.569  0.4845 -0.3581  0.5755
 4370TIP3    H113074   0.301   1.678   0.550  0.6517  0.9146  0.9611
 4370TIP3    H213075   0.420   1.728   0.630  1.7627 -0.5750  0.2833
 4371TIP3   OH213076   1.862   0.612   2.620  0.5220 -0.4700 -0.4840
 4371TIP3    H113077   1.803   0.687   2.619 -0.0759 -0.9204  0.4144
 4371TIP3    H213078   1.805   0.536   2.609  1.0906 -0.8238 -1.0808
 4372TIP3   OH213079   4.253   1.972   1.544  0.0906 -0.4815 -0.5817
 4372TIP3    H113080   4.340   2.003   1.517  0.2668 -0.8218 -0.4037
 4372TIP3    H213081   4.192   2.021   1.488  0.3585  0.3302 -0.1848
 4373TIP3   OH213082   4.311   6.314   4.244  0.2068 -0.4208  0.0779
 4373TIP3    H113083   4.224   6.344   4.220 -0.0629 -1.1127  0.1745
 4373TIP3    H213084   4.298   6.265   4.326  0.8815  0.6106  0.8373
 4374TIP3   OH213085   2.996   0.981   2.337  0.4688 -0.5077  0.1508
 4374TIP3    H113086   2.933   1.021   2.397  1.5102  0.6598  0.5080
 4374TIP3    H213087   3.029   0.904   2.383  0.1648 -0.4670  0.4388
 4375TIP3   OH213088   0.818   2.868   1.238  0.2182  0.1195  0.0886
 4375TIP3    H113089   0.852   2.791   1.284 -1.8455 -0.8572  0.0971
 4375TIP3    H213090   0.724   2.850   1.228  0.0864  1.6207 -1.9256
 4376TIP3   OH213091   2.628   3.074   0.983 -0.3523 -0.3724  0.0403
 4376TIP3    H113092   2.680   3.017   0.926  0.2762  0.8313 -0.6171
 4376TIP3    H213093   2.675   3.074   1.067 -0.3336 -0.7560  0.0346
 4377TIP3   OH213094   1.458   0.945   1.683 -0.5011 -0.5927 -0.1500
 4377TIP3    H113095   1.444   0.918   1.773 -1.4891 -1.4883 -0.5603
 4377TIP3    H213096   1.549   0.975   1.681 -0.7992  0.5087  1.3887
 4378TIP3   OH213097   4.041   0.334   1.333  0.3613  0.4280  0.2751
 4378TIP3    H113098   4.092   0.289   1.266  0.8942  0.1639  0.8486
 4378TIP3    H213099   4.100   0.341   1.408  0.0104  1.3574  0.4789
 4379TIP3   OH213100   5.817   5.373   4.746  0.8992 -0.1430  0.1290
 4379TIP3    H113101   5.900   5.419   4.739  1.2843 -1.0177 -1.8234
 4379TIP3    H213102   5.759   5.420   4.685 -0.2248  0.7510  1.8102
 4380TIP3   OH213103   0.566   0.958   5.687 -0.3238 -0.1266  0.5792
 4380TIP3    H113104   0.505   0.885   5.698 -0.2811 -0.2967 -0.2944
 4380TIP3    H213105   0.650   0.916   5.670 -0.4474  0.1256 -0.6959
 4381TIP3   OH213106   1.834   5.202   3.767 -0.0435 -0.9767  0.1318
 4381TIP3    H113107   1.773   5.194   3.841 -0.5708  1.8751  0.1046
 4381TIP3    H213108   1.916   5.232   3.806  1.3600 -4.2855  0.0946
 4382TIP3   OH213109   0.547   5.287   3.855 -0.2410  0.6271  0.0058
 4382TIP3    H113110   0.596   5.219   3.808 -0.8158 -0.3928  0.8399
 4382TIP3    H213111   0.589   5.292   3.941 -1.2622  0.0743  0.5599
 4383TIP3   OH213112   0.167   6.324   2.234  0.0844  0.1116  0.2949
 4383TIP3    H113113   0.191   6.404   2.187 -0.9952  0.4701  0.3232
 4383TIP3    H213114   0.207   6.335   2.320 -0.2708  0.7566  0.3868
 4384TIP3   OH213115   3.401   1.722   5.290 -0.2043 -0.1784  0.9237
 4384TIP3    H113116   3.385   1.815   5.280 -0.6502 -0.2255  1.2029
 4384TIP3    H213117   3.326   1.679   5.249 -0.7693 -0.3928  2.1387
 4385TIP3   OH213118   5.970   0.596   1.848 -0.8636  0.0308  0.1327
 4385TIP3    H113119   5.948   0.551   1.930 -1.8835  0.0955 -0.0873
 4385TIP3    H213120   5.899   0.573   1.789  0.3318 -0.7584 -1.0429
 4386TIP3   OH213121   6.886   1.184   0.539  0.1230  0.2756  0.5957
 4386TIP3    H113122   6.839   1.238   0.602  2.4478  0.1163  2.6330
 4386TIP3    H213123   6.968   1.230   0.523  2.0285 -2.2826  2.1068
 4387TIP3   OH213124   2.127   5.866   1.316 -0.6141  0.4054 -0.1398
 4387TIP3    H113125   2.071   5.800   1.276 -1.2940  0.0847  1.2943
 4387TIP3    H213126   2.159   5.826   1.397  1.9754  0.4473 -1.0495
 4388TIP3   OH213127   1.615   2.716   3.097  0.3364 -0.0766  0.1188
 4388TIP3    H113128   1.643   2.793   3.148 -0.8581 -0.6120  1.6661
 4388TIP3    H213129   1.694   2.662   3.091  0.7666  0.4923  0.5109
 4389TIP3   OH213130   4.646   3.699   5.359  0.2628  0.1211  0.9808
 4389TIP3    H113131   4.658   3.761   5.431 -0.1615  1.3195  0.0686
 4389TIP3    H213132   4.551   3.693   5.348  0.3146 -0.3644  0.7894
 4390TIP3   OH213133   5.054   6.512   0.524 -0.4522 -0.4631 -0.8006
 4390TIP3    H113134   4.980   6.557   0.483 -0.8384 -0.5779 -0.2475
 4390TIP3    H213135   5.017   6.428   0.554 -0.1023 -0.5200 -0.5221
 4391TIP3   OH213136   3.103   2.178   0.266 -0.0348  0.6141 -0.0353
 4391TIP3    H113137   3.158   2.220   0.332  2.7235  0.0453 -1.8088
 4391TIP3    H213138   3.025   2.148   0.315  0.9666  1.9049  2.5120
 4392TIP3   OH213139   5.945   1.182   0.462 -0.7965  0.1045  0.4765
 4392TIP3    H113140   5.903   1.225   0.387 -0.7449  0.7000  0.7811
 4392TIP3    H213141   5.875   1.134   0.505 -0.4951 -1.6947 -0.9400
 4393TIP3   OH213142   0.972   0.866   4.227 -0.2466  0.5852  0.1207
 4393TIP3    H113143   0.909   0.801   4.257 -1.2010  1.7652  0.7892
 4393TIP3    H213144   0.981   0.850   4.133  0.3628 -1.1663  0.4521
 4394TIP3   OH213145   6.738   2.517   3.814  0.0973 -0.5893  0.3842
 4394TIP3    H113146   6.827   2.482   3.815  0.0654 -0.6840  0.0957
 4394TIP3    H213147   6.717   2.531   3.906  1.1838  1.4047  0.3730
 4395TIP3   OH213148   0.646   4.415   2.228 -0.3352 -0.0756 -0.6286
 4395TIP3    H113149   0.652   4.332   2.275  0.6378 -0.5100 -1.5002
 4395TIP3    H213150   0.564   4.454   2.259  1.2630  0.7203  3.0977
 4396TIP3   OH213151   4.371   4.452   1.503  0.5306  0.1983  0.3031
 4396TIP3    H113152   4.318   4.521   1.543  0.0624 -0.3185  0.5953
 4396TIP3    H213153   4.380   4.386   1.573 -2.3428 -1.8743 -1.0850
 4397TIP3   OH213154   6.262   4.591   1.735  0.0030  0.2967  0.3181
 4397TIP3    H113155   6.249   4.666   1.792 -0.5687 -0.1400  0.7700
 4397TIP3    H213156   6.199   4.526   1.765  2.3556 -1.4705  1.7815
 4398TIP3   OH213157   6.623   4.031   3.782 -0.1924  0.0297 -0.7243
 4398TIP3    H113158   6.618   3.936   3.788 -0.9560  0.1561  1.4589
 4398TIP3    H213159   6.702   4.054   3.832 -1.4556  0.6443  1.1119
 4399TIP3   OH213160   1.856   0.131   1.547  0.1287 -0.2289  0.0942
 4399TIP3    H113161   1.804   0.167   1.619  0.6063  0.3181  0.1660
 4399TIP3    H213162   1.907   0.205   1.515  0.5720 -0.6753 -0.2325
 4400TIP3   OH213163   6.674   2.316   4.368  0.3595 -0.1117 -0.1566
 4400TIP3    H113164   6.761   2.285   4.392 -0.1133 -2.1163 -0.8220
 4400TIP3    H213165   6.617   2.282   4.437 -0.1958 -0.8768 -0.9724
 4401TIP3   OH213166   1.321   5.149   3.362  0.3240 -0.4966  0.0623
 4401TIP3    H113167   1.327   5.158   3.267 -1.2838 -1.2796 -0.1487
 4401TIP3    H213168   1.391   5.088   3.385  0.7027 -0.3209 -0.6130
 4402TIP3   OH213169   3.880   4.777   3.543 -0.1547 -0.2570 -0.1767
 4402TIP3    H113170   3.972   4.799   3.563 -0.9101  0.2837  3.5306
 4402TIP3    H213171   3.840   4.860   3.519  0.1977 -0.4063 -1.3134
 4403TIP3   OH213172   3.291   3.556   4.890  0.3149  0.2378 -0.0802
 4403TIP3    H113173   3.199   3.575   4.907  0.6478  1.4455  0.4422
 4403TIP3    H213174   3.293   3.461   4.874 -0.6556 -0.3566  2.6244
 4404TIP3   OH213175   7.148   1.729   4.179 -0.3601 -0.2392 -0.2438
 4404TIP3    H113176   7.232   1.732   4.225 -0.2681 -1.2840 -0.3240
 4404TIP3    H213177   7.127   1.636   4.172 -1.4358 -0.0059 -0.3986
 4405TIP3   OH213178   5.782   0.654   5.374  0.0583  0.0978  0.6869
 4405TIP3    H113179   5.873   0.632   5.395 -0.2594 -0.5520  1.4471
 4405TIP3    H213180   5.743   0.676   5.458 -0.3443  0.9643  0.2836
 4406TIP3   OH213181   3.198   6.651   3.375 -0.1542  0.1928  0.3943
 4406TIP3    H113182   3.252   6.687   3.446 -0.3154  0.2531  0.4875
 4406TIP3    H213183   3.240   6.567   3.354  0.6913  0.7857 -0.3659
 4407TIP3   OH213184   6.452   2.983   0.144 -0.3849 -0.4179  0.3285
 4407TIP3    H113185   6.545   3.006   0.148 -0.5936  0.2298  2.0508
 4407TIP3    H213186   6.452   2.889   0.126  0.5942 -0.3626 -0.0251
 4408TIP3   OH213187   2.960   3.077   2.977 -0.1211  0.3335 -0.5109
 4408TIP3    H113188   2.887   3.016   2.983 -0.9647  1.3926  0.3508
 4408TIP3    H213189   3.038   3.023   2.986 -0.7219 -0.9531 -2.3871
 4409TIP3   OH213190   2.697   1.251   0.441  0.1532  0.2893  0.2397
 4409TIP3    H113191   2.638   1.218   0.374 -0.8760 -0.8630  1.6532
 4409TIP3    H213192   2.776   1.197   0.432  0.0023  0.1125 -0.0271
 4410TIP3   OH213193   1.402   5.534   1.566  0.0141  0.3181  0.1373
 4410TIP3    H113194   1.418   5.485   1.486 -1.5814  0.8888 -0.5565
 4410TIP3    H213195   1.468   5.501   1.627  1.1611 -0.2473 -1.3332
 4411TIP3   OH213196   3.658   5.317   3.823 -0.0782  0.1039 -0.2650
 4411TIP3    H113197   3.681   5.380   3.755  1.7614  1.0825  1.1692
 4411TIP3    H213198   3.705   5.348   3.901  0.2525 -2.5878  0.7051
 4412TIP3   OH213199   4.638   0.642   2.933 -0.1003 -0.3502  1.1527
 4412TIP3    H113200   4.662   0.643   2.841 -0.2348 -1.9864  1.0688
 4412TIP3    H213201   4.628   0.734   2.956  0.6827  0.1191 -0.2569
 4413TIP3   OH213202   2.394   5.194   4.407  0.3316  0.9735  0.0198
 4413TIP3    H113203   2.455   5.121   4.423 -0.1015  0.6035  0.0055
 4413TIP3    H213204   2.351   5.208   4.491 -0.1900  0.6504 -0.1872
 4414TIP3   OH213205   1.259   3.442   0.097  0.4452 -0.0653 -0.4879
 4414TIP3    H113206   1.314   3.511   0.133  0.3176  0.5236 -1.3970
 4414TIP3    H213207   1.210   3.484   0.027 -0.8216 -0.6971 -0.0103
 4415TIP3   OH213208   7.056   5.969   0.569  0.1086  0.1593 -0.0765
 4415TIP3    H113209   7.062   6.041   0.506  1.1576  0.9801  0.9056
 4415TIP3    H213210   6.979   5.990   0.622  0.7896  0.9606  0.6358
 4416TIP3   OH213211   1.426   5.470   4.405  0.1585  0.0300 -0.2134
 4416TIP3    H113212   1.500   5.531   4.408 -0.0716  0.3014 -0.0700
 4416TIP3    H213213   1.429   5.424   4.489 -0.2746  0.5591  0.0949
 4417TIP3   OH213214   1.043   0.710   0.283  0.2682 -0.5055 -0.1058
 4417TIP3    H113215   1.051   0.663   0.366 -1.0020 -1.7427 -0.6514
 4417TIP3    H213216   0.950   0.733   0.278  0.5958  0.8021 -0.5391
 4418TIP3   OH213217   4.858   5.957   0.225  0.6915  0.4329  0.0601
 4418TIP3    H113218   4.779   6.010   0.209 -0.0735 -0.3088  1.2375
 4418TIP3    H213219   4.908   6.008   0.288  0.9144  0.6592 -0.2943
 4419TIP3   OH213220   3.570   4.019   5.267  0.4531  0.0833  0.2617
 4419TIP3    H113221   3.659   4.048   5.246  0.5282 -0.1292  0.2780
 4419TIP3    H213222   3.564   4.029   5.362  0.2715  0.6103  0.1969
 4420TIP3   OH213223   3.080   4.341   1.479 -0.2049  0.1454  0.0781
 4420TIP3    H113224   3.136   4.401   1.430 -0.1643 -1.4288 -1.9195
 4420TIP3    H213225   2.991   4.363   1.450 -0.2094 -0.5547 -0.4590
 4421TIP3   OH213226   3.888   4.647   2.147  0.0777 -0.4452 -0.1150
 4421TIP3    H113227   3.803   4.687   2.130 -0.3834 -2.0730 -2.0115
 4421TIP3    H213228   3.878   4.605   2.233  0.7705  3.6908  2.2320
 4422TIP3   OH213229   4.553   5.998   3.125  0.1743 -0.2520  0.0688
 4422TIP3    H113230   4.640   5.958   3.132 -0.8370 -2.3598  2.6527
 4422TIP3    H213231   4.510   5.950   3.055  0.0750 -1.5107  0.9559
 4423TIP3   OH213232   3.198   0.191   4.909 -0.1862  0.3178  0.3982
 4423TIP3    H113233   3.280   0.235   4.933  0.6710 -0.4009 -1.1192
 4423TIP3    H213234   3.183   0.128   4.980  2.0227 -1.4018 -0.5423
 4424TIP3   OH213235   0.017   5.464   2.346 -0.1591 -0.3679 -0.0641
 4424TIP3    H113236   0.086   5.523   2.315  0.2584 -1.1369 -0.6345
 4424TIP3    H213237   0.063   5.392   2.388 -0.5677 -1.1889 -0.9768
 4425TIP3   OH213238   4.017   5.623   0.792 -0.2078  0.7069 -0.8864
 4425TIP3    H113239   4.098   5.645   0.839 -0.1613 -1.2433  0.0087
 4425TIP3    H213240   3.993   5.536   0.823 -3.2220  1.6017 -0.3638
 4426TIP3   OH213241   3.588   4.789   4.291  0.0703 -0.1427  0.0425
 4426TIP3    H113242   3.596   4.777   4.196  1.8986 -1.0608  0.2597
 4426TIP3    H213243   3.561   4.880   4.302 -0.0424  0.0159 -1.3524
 4427TIP3   OH213244   2.331   3.403   5.076 -0.3672 -0.0964 -0.3338
 4427TIP3    H113245   2.249   3.359   5.054 -1.1309  0.6347  0.9652
 4427TIP3    H213246   2.395   3.333   5.079 -1.0605 -0.7682 -0.7450
 4428TIP3   OH213247   3.466   5.969   2.648 -0.3521 -0.4094 -0.4317
 4428TIP3    H113248   3.410   5.980   2.571 -0.2344  0.3647 -0.4125
 4428TIP3    H213249   3.414   5.917   2.709 -1.0634  0.3150 -0.4041
 4429TIP3   OH213250   5.513   3.244   5.189  0.6529  0.5353 -0.1153
 4429TIP3    H113251   5.434   3.298   5.192 -0.1555 -0.6523  1.0346
 4429TIP3    H213252   5.481   3.156   5.172  1.6763 -0.0343  0.7675
 4430TIP3   OH213253   2.983   0.707   4.420 -0.0343  0.5811 -0.0546
 4430TIP3    H113254   3.051   0.671   4.477  0.3631 -1.1701 -1.5569
 4430TIP3    H213255   2.901   0.668   4.452  0.4380 -2.3109 -1.9597
 4431TIP3   OH213256   1.602   3.244   0.407 -0.3339  0.3690  0.1839
 4431TIP3    H113257   1.684   3.292   0.419  0.1022 -0.2933 -0.0565
 4431TIP3    H213258   1.584   3.251   0.313 -0.5202  0.4719  0.2286
 4432TIP3   OH213259   5.697   4.813   5.843  0.5898  0.3153  0.1940
 4432TIP3    H113260   5.615   4.860   5.828  0.3082 -0.1177  0.3615
 4432TIP3    H213261   5.764   4.880   5.835  0.4684  0.2113 -2.6579
 4433TIP3   OH213262   4.677   4.903   3.552  0.1776 -0.0949 -0.4730
 4433TIP3    H113263   4.710   4.877   3.638 -0.6259  1.8226  0.4512
 4433TIP3    H213264   4.607   4.840   3.534 -1.7182  1.2249  1.7122
 4434TIP3   OH213265   6.501   3.431   4.244 -0.3870 -0.0044 -0.0809
 4434TIP3    H113266   6.454   3.410   4.325  0.3487  0.7444  0.5575
 4434TIP3    H213267   6.461   3.512   4.213  0.9019  1.0442  0.8595
 4435TIP3   OH213268   6.432   5.041   4.731 -0.1874  0.4443  0.1704
 4435TIP3    H113269   6.501   4.980   4.759 -0.7184 -0.0178  0.5117
 4435TIP3    H213270   6.475   5.126   4.726  0.8087 -0.1176 -1.2714
 4436TIP3   OH213271   5.230   0.276   1.490 -0.3738  0.0828  0.3568
 4436TIP3    H113272   5.182   0.196   1.467  0.4849 -1.1229  2.4489
 4436TIP3    H213273   5.320   0.247   1.502  0.0265  1.4422  0.7601
 4437TIP3   OH213274   6.334   3.292   2.350 -0.6639 -0.1119  0.2758
 4437TIP3    H113275   6.365   3.316   2.262  1.2968 -2.3348  0.2436
 4437TIP3    H213276   6.412   3.299   2.405 -2.1788  2.8528  2.3382
 4438TIP3   OH213277   3.915   5.368   5.283  0.1143 -0.0142  0.0784
 4438TIP3    H113278   3.922   5.303   5.353 -1.7543 -1.8979 -1.3475
 4438TIP3    H213279   3.862   5.439   5.321  0.3458 -0.3334  1.0101
 4439TIP3   OH213280   6.911   1.388   2.023  0.0204  0.1028 -0.1121
 4439TIP3    H113281   7.004   1.371   2.038 -0.0080  0.9560  1.1857
 4439TIP3    H213282   6.877   1.307   1.985  1.6752  0.4222 -2.5106
 4440TIP3   OH213283   1.489   1.076   0.975  0.3802  0.1557  0.0530
 4440TIP3    H113284   1.550   1.147   0.993 -0.0902  0.6263 -0.1916
 4440TIP3    H213285   1.543   1.008   0.935  0.9021  0.2184  0.6252
 4441TIP3   OH213286   0.750   2.553   3.748  0.6587  0.2866  0.0232
 4441TIP3    H113287   0.826   2.577   3.694  0.8708  0.5676  0.4494
 4441TIP3    H213288   0.686   2.621   3.730  1.0760  0.9024  0.8471
 4442TIP3   OH213289   1.365   3.316   3.186 -0.4037 -0.7431  0.0557
 4442TIP3    H113290   1.295   3.284   3.244  1.9452  1.5094  4.7195
 4442TIP3    H213291   1.342   3.407   3.168  1.6069  0.4059  2.6308
 4443TIP3   OH213292   2.215   2.478   0.044 -0.2277  0.1732  0.0437
 4443TIP3    H113293   2.294   2.459  -0.006 -1.2680 -0.2755 -1.4937
 4443TIP3    H213294   2.233   2.563   0.086  0.8921  0.2865 -0.6275
 4444TIP3   OH213295   1.513   4.841   2.460  0.1669  0.3157 -0.6833
 4444TIP3    H113296   1.499   4.836   2.554  0.7947  1.0271 -0.5408
 4444TIP3    H213297   1.427   4.861   2.423  0.0864  0.9301 -0.1767
 4445TIP3   OH213298   6.324   4.519   3.264  0.9357  0.4268  0.7031
 4445TIP3    H113299   6.305   4.495   3.173 -0.8619  2.5302  0.4338
 4445TIP3    H213300   6.419   4.533   3.266  1.1988 -1.0169 -0.4738
 4446TIP3   OH213301   0.245   1.004   1.890 -0.1363 -0.0536 -0.3614
 4446TIP3    H113302   0.329   1.024   1.931 -0.0976  1.2987 -1.0639
 4446TIP3    H213303   0.267   0.965   1.806 -0.2177 -0.6767 -0.0971
 4447TIP3   OH213304   6.826   4.530   1.001  0.1923 -0.1386  0.3593
 4447TIP3    H113305   6.838   4.624   0.989  0.1526 -0.0403  1.0595
 4447TIP3    H213306   6.910   4.498   1.032 -0.1820 -0.1008  1.4503
 4448TIP3   OH213307   5.340   6.509   3.985  0.1635 -0.3000 -0.1754
 4448TIP3    H113308   5.431   6.537   3.987  0.1819 -0.1625 -1.8660
 4448TIP3    H213309   5.335   6.439   4.050  1.7649 -1.1496 -0.9209
 4449TIP3   OH213310   2.101   2.234   4.096 -0.5525 -0.2381 -0.2545
 4449TIP3    H113311   2.169   2.204   4.036 -0.2230  1.3229 -0.7082
 4449TIP3    H213312   2.146   2.293   4.156 -1.0217 -1.2138  1.1093
 4450TIP3   OH213313   5.452   2.808   4.503 -0.7997 -0.1945 -0.2274
 4450TIP3    H113314   5.531   2.860   4.520 -1.1989  0.0296  1.0592
 4450TIP3    H213315   5.380   2.870   4.514 -1.3534 -1.1488  2.3357
 4451TIP3   OH213316   6.627   5.139   0.988 -0.0999 -0.1825  0.2244
 4451TIP3    H113317   6.560   5.193   1.030  0.0450  0.1103  0.0777
 4451TIP3    H213318   6.653   5.076   1.055  0.5900  0.6838  0.7893
 4452TIP3   OH213319   1.929   3.029   5.545 -0.8335 -0.1709 -0.4746
 4452TIP3    H113320   2.001   3.052   5.486  0.5645 -0.2420  1.1362
 4452TIP3    H213321   1.873   2.972   5.493 -0.4906  1.0188 -2.2262
 4453TIP3   OH213322   4.874   1.212   1.827 -0.6125 -0.0148 -0.3157
 4453TIP3    H113323   4.879   1.181   1.918 -0.9246  0.4819 -0.1265
 4453TIP3    H213324   4.818   1.147   1.783  0.0399 -0.5989 -0.3074
 4454TIP3   OH213325   1.217   0.733   1.449  0.7393  0.1681 -0.8560
 4454TIP3    H113326   1.287   0.674   1.476  0.7905  0.3924 -0.4778
 4454TIP3    H213327   1.203   0.790   1.525 -2.0041 -1.8444  0.3371
 4455TIP3   OH213328   5.466   4.988   5.845  0.2450 -0.0636  0.3118
 4455TIP3    H113329   5.503   5.068   5.806  0.4359 -0.2494  0.1101
 4455TIP3    H213330   5.373   4.991   5.822  0.0956  0.4733  0.9326
 4456TIP3   OH213331   5.383   5.063   4.225 -0.8860 -0.0579  1.1473
 4456TIP3    H113332   5.298   5.030   4.196 -0.3841 -1.5569  1.2783
 4456TIP3    H213333   5.443   4.990   4.210  0.3687  0.9489  1.1267
 4457TIP3   OH213334   4.895   1.853   1.949  0.3403  0.6287  0.5948
 4457TIP3    H113335   4.858   1.881   2.032  0.6057  0.1722  0.8715
 4457TIP3    H213336   4.868   1.920   1.887 -1.9489 -0.2657  0.5188
 4458TIP3   OH213337   6.180   4.704   2.904  0.2104  0.2247  0.2153
 4458TIP3    H113338   6.245   4.753   2.953  0.8944 -0.7249  0.2841
 4458TIP3    H213339   6.108   4.766   2.891 -1.1200 -0.0878  4.4844
 4459TIP3   OH213340   2.155   1.592   2.519 -0.2465  0.0632  0.3930
 4459TIP3    H113341   2.090   1.561   2.455 -1.2173  0.2311  1.2613
 4459TIP3    H213342   2.181   1.678   2.487 -1.3709  0.5174  0.6619
 4460TIP3   OH213343   3.533   0.903   1.971  0.5641 -0.1112  0.4814
 4460TIP3    H113344   3.615   0.866   1.936  0.4213 -1.2781  1.3312
 4460TIP3    H213345   3.467   0.877   1.906  0.9066  1.2042 -0.4315
 4461TIP3   OH213346   3.391   5.708   3.080 -0.6212  0.1590  0.0578
 4461TIP3    H113347   3.409   5.634   3.137  0.4828  0.9706  0.7923
 4461TIP3    H213348   3.344   5.771   3.136 -1.5626  0.0258 -0.5589
 4462TIP3   OH213349   0.497   3.378   1.407  0.0682  0.1954  0.1843
 4462TIP3    H113350   0.514   3.343   1.320 -0.3335  0.1436  0.1218
 4462TIP3    H213351   0.494   3.473   1.394  0.7325  0.2300  0.2759
 4463TIP3   OH213352   6.774   4.192   3.062  0.1607 -0.6210 -0.2751
 4463TIP3    H113353   6.854   4.187   3.010  1.0217 -0.7772  1.0210
 4463TIP3    H213354   6.784   4.270   3.115 -0.2360 -1.0032  0.3778
 4464TIP3   OH213355   3.186   6.294   1.377  0.0855  0.1208 -0.3226
 4464TIP3    H113356   3.223   6.378   1.349 -0.2584  0.3316 -0.1556
 4464TIP3    H213357   3.185   6.299   1.473 -0.4262  0.1434 -0.3259
 4465TIP3   OH213358   4.948   2.546   3.853 -0.4492  0.1624 -0.2630
 4465TIP3    H113359   5.009   2.575   3.786 -0.4694 -1.9159 -1.2627
 4465TIP3    H213360   5.003   2.502   3.918 -0.4509  2.0012  1.0415
 4466TIP3   OH213361   3.071   2.088   3.049 -0.0704  0.0294 -0.8354
 4466TIP3    H113362   3.142   2.025   3.056  0.4122  0.5914 -0.5564
 4466TIP3    H213363   3.003   2.054   3.106 -0.6331 -1.2871 -2.2300
 4467TIP3   OH213364   2.699   6.754   5.750  0.4582  0.0539 -0.2166
 4467TIP3    H113365   2.733   6.777   5.836  1.7570  0.9892 -0.9441
 4467TIP3    H213366   2.744   6.673   5.727  2.9143  1.6656 -1.4871
 4468TIP3   OH213367   6.187   4.425   5.818  0.5446  0.2221 -0.0053
 4468TIP3    H113368   6.150   4.499   5.867  0.2237 -0.6727  1.1354
 4468TIP3    H213369   6.281   4.440   5.821  0.5092  0.3879  0.5598
 4469TIP3   OH213370   0.496   3.294   5.008 -0.2257  0.1498  0.1302
 4469TIP3    H113371   0.471   3.362   4.945  0.1689  0.1518 -0.0296
 4469TIP3    H213372   0.584   3.318   5.036 -0.3329  0.0537  0.5580
 4470TIP3   OH213373   6.875   5.038   2.723  0.1111  0.1031 -0.4421
 4470TIP3    H113374   6.872   5.129   2.752  1.3468  0.6880 -2.0207
 4470TIP3    H213375   6.793   5.025   2.676  0.2856  0.6691 -0.9166
 4471TIP3   OH213376   1.833   1.765   3.204  0.8322  0.4862  0.0097
 4471TIP3    H113377   1.918   1.779   3.246  0.7662  0.7755  0.0450
 4471TIP3    H213378   1.851   1.771   3.110  1.5956 -3.1942 -0.2509
 4472TIP3   OH213379   2.368   1.278   0.198  0.1124  0.5794 -0.1664
 4472TIP3    H113380   2.417   1.258   0.119  0.2853 -0.3441  0.1673
 4472TIP3    H213381   2.287   1.318   0.166  0.6257  1.1733 -0.7595
 4473TIP3   OH213382   5.803   6.089   2.477 -0.3191  0.4215  0.1588
 4473TIP3    H113383   5.755   6.097   2.394 -0.7419  3.3377  0.5976
 4473TIP3    H213384   5.894   6.107   2.453 -0.6376  2.6853  0.4684
 4474TIP3   OH213385  -0.006   3.802   3.376  0.1339  0.0633 -0.0419
 4474TIP3    H113386  -0.014   3.707   3.385 -0.0446  0.1038  0.2374
 4474TIP3    H213387   0.078   3.822   3.417  1.0719 -0.1870 -1.7200
 4475TIP3   OH213388   6.773   1.158   4.395 -0.0747 -0.6466 -0.0472
 4475TIP3    H113389   6.854   1.112   4.417 -0.6888 -1.0300  1.4881
 4475TIP3    H213390   6.703   1.094   4.411 -0.7153 -0.1991 -0.9861
 4476TIP3   OH213391   5.060   6.600   5.559  0.0451  0.1186  0.7700
 4476TIP3    H113392   5.064   6.660   5.484 -1.0520 -1.4772 -0.6374
 4476TIP3    H213393   5.140   6.618   5.609  0.8414  1.1689 -0.8127
 4477TIP3   OH213394   6.018   0.444   1.476 -0.3691 -0.0386  0.2952
 4477TIP3    H113395   5.970   0.488   1.407  0.4277 -1.0008 -0.9198
 4477TIP3    H213396   6.069   0.513   1.518  0.1669  0.3756 -0.9891
 4478TIP3   OH213397   5.202   5.571   3.528 -0.0448  0.2902  0.2787
 4478TIP3    H113398   5.131   5.622   3.489  0.1520  0.5849  0.2989
 4478TIP3    H213399   5.230   5.624   3.603 -0.4104 -0.2613  0.8116
 4479TIP3   OH213400   6.742   5.539   2.201  0.4310 -0.3681  0.7199
 4479TIP3    H113401   6.686   5.545   2.124 -0.3742 -1.1603  1.2180
 4479TIP3    H213402   6.789   5.622   2.203  1.4975 -0.8508 -1.3685
 4480TIP3   OH213403   1.950   0.849   2.478  0.4081 -0.1683 -0.3050
 4480TIP3    H113404   1.854   0.853   2.473  0.2387  1.6458  2.2271
 4480TIP3    H213405   1.967   0.772   2.533  0.2123  0.7338  1.0807
 4481TIP3   OH213406   6.558   5.397   4.411  0.1653 -0.4575 -0.1039
 4481TIP3    H113407   6.577   5.304   4.400 -0.9155 -0.7172  0.1336
 4481TIP3    H213408   6.582   5.416   4.502  1.0526 -0.3224 -0.3538
 4482TIP3   OH213409   4.246   6.305   4.909 -0.0728 -0.2684 -0.7109
 4482TIP3    H113410   4.168   6.353   4.881 -0.5837 -1.4065 -1.2994
 4482TIP3    H213411   4.233   6.217   4.876  2.2195 -0.1207 -2.2754
 4483TIP3   OH213412   1.219   2.384   4.008 -0.0096  0.0461 -0.7379
 4483TIP3    H113413   1.183   2.324   3.943 -0.0358 -0.8267  0.0743
 4483TIP3    H213414   1.298   2.340   4.040  0.9399  1.2265 -1.3650
 4484TIP3   OH213415   5.683   2.861   5.164 -0.0943 -0.3521  0.2650
 4484TIP3    H113416   5.733   2.932   5.204  0.0679 -1.6679  2.5778
 4484TIP3    H213417   5.748   2.792   5.147 -0.0984  0.2833 -2.7403
 4485TIP3   OH213418   5.586   2.894   2.738 -0.2001 -0.1060 -0.2066
 4485TIP3    H113419   5.535   2.898   2.819  0.6723  2.2402  0.2825
 4485TIP3    H213420   5.668   2.851   2.763 -0.6667 -1.1029 -0.3160
 4486TIP3   OH213421   0.996   2.432   5.318  0.3306 -0.8082 -0.2660
 4486TIP3    H113422   0.972   2.373   5.248 -1.2013  0.7088 -1.1056
 4486TIP3    H213423   0.937   2.410   5.390 -0.7089  0.0747 -0.8135
 4487TIP3   OH213424   7.111   3.520   4.810 -0.2061  0.0414 -0.3494
 4487TIP3    H113425   7.020   3.492   4.815 -0.3968  0.0996 -2.3820
 4487TIP3    H213426   7.123   3.545   4.718  2.8059 -3.4216 -1.1316
 4488TIP3   OH213427   1.114   5.011   0.179 -0.5929  0.0355 -0.3309
 4488TIP3    H113428   1.135   4.924   0.146 -0.7137 -1.0415  2.2559
 4488TIP3    H213429   1.044   5.043   0.121 -4.6217 -3.9101  1.7818
 4489TIP3   OH213430   5.774   1.415   0.362  0.2995  0.3030  0.2664
 4489TIP3    H113431   5.867   1.436   0.359  0.2706  0.2602 -1.7511
 4489TIP3    H213432   5.740   1.441   0.277 -1.1305 -1.5696  0.1935
 4490TIP3   OH213433   2.273   5.494   1.795  0.0767  0.6597  0.2632
 4490TIP3    H113434   2.326   5.421   1.765 -0.7272  0.8188 -1.7077
 4490TIP3    H213435   2.187   5.479   1.757 -0.3123  2.2578  0.4199
 4491TIP3   OH213436   4.877   5.959   1.544  0.0904 -0.4445 -0.1788
 4491TIP3    H113437   4.856   5.901   1.471 -1.5038 -1.4744  1.0350
 4491TIP3    H213438   4.947   5.914   1.590 -1.8914 -2.1196  1.4110
 4492TIP3   OH213439   1.065   5.970   4.619  0.4894 -0.2408  0.1994
 4492TIP3    H113440   1.006   6.044   4.631 -1.2602 -1.6112  0.3792
 4492TIP3    H213441   1.087   5.972   4.526  0.0264  0.2033  0.0968
 4493TIP3   OH213442   5.505   3.515   2.681 -0.2816 -0.0980  0.2958
 4493TIP3    H113443   5.455   3.539   2.602  0.4591 -0.3908 -0.2675
 4493TIP3    H213444   5.488   3.422   2.692  0.7773 -0.3831 -0.3720
 4494TIP3   OH213445   3.805   2.492   1.393  0.2615 -0.2678  0.0541
 4494TIP3    H113446   3.895   2.461   1.401  0.8728  0.8517 -1.9235
 4494TIP3    H213447   3.760   2.456   1.470  2.4930 -0.4530  1.3406
 4495TIP3   OH213448   6.465   1.782   0.405 -0.4386 -0.5095  0.2406
 4495TIP3    H113449   6.380   1.802   0.365  0.1967 -1.3223 -1.6422
 4495TIP3    H213450   6.443   1.746   0.491 -2.0504 -1.3683 -0.4767
 4496TIP3   OH213451   6.258   0.612   3.227  0.3734  0.2268  0.3357
 4496TIP3    H113452   6.190   0.574   3.284  0.2283  1.0887  0.7421
 4496TIP3    H213453   6.336   0.561   3.247 -0.0231 -0.4466  0.2300
 4497TIP3   OH213454   3.465   6.184   1.992  0.0215  0.4091  0.2500
 4497TIP3    H113455   3.412   6.233   2.053  0.1210  0.8161  0.0138
 4497TIP3    H213456   3.543   6.158   2.042 -1.9908 -3.4719  1.7841
 4498TIP3   OH213457   5.033   5.295   0.630 -0.2527  0.4038 -0.4332
 4498TIP3    H113458   5.066   5.210   0.600 -0.7759 -0.7191  1.9324
 4498TIP3    H213459   5.088   5.359   0.584  1.2081 -1.2501 -1.1234
 4499TIP3   OH213460   1.761   0.636   5.608  0.0659  0.0363 -0.1992
 4499TIP3    H113461   1.673   0.675   5.606 -0.5103 -1.1280  0.8043
 4499TIP3    H213462   1.787   0.631   5.516 -1.0770  0.0581 -0.5450
 4500TIP3   OH213463   1.950   2.634   5.134  0.1181 -0.1073 -0.0462
 4500TIP3    H113464   1.965   2.676   5.049  0.1295  0.0236  0.0212
 4500TIP3    H213465   2.032   2.588   5.153 -0.0282 -0.4804 -0.3022
 4501TIP3   OH213466   4.546   3.627   3.534 -0.4135 -0.0562 -0.2915
 4501TIP3    H113467   4.521   3.626   3.442  1.0069 -0.8697 -0.6956
 4501TIP3    H213468   4.501   3.552   3.572 -1.0665  0.3271 -0.2950
 4502TIP3   OH213469   2.454   4.738   4.886 -0.4100  0.2429  0.3080
 4502TIP3    H113470   2.530   4.755   4.943  0.2171  0.8506 -0.6719
 4502TIP3    H213471   2.479   4.661   4.835 -0.4259  0.4606 -0.0352
 4503TIP3   OH213472   0.053   2.915   3.887  0.4601  0.2555  0.4087
 4503TIP3    H113473   0.102   2.881   3.962 -0.2872 -1.3192  0.2141
 4503TIP3    H213474   0.036   3.007   3.909  0.8226 -0.0054  1.8585
 4504TIP3   OH213475   4.302   2.731   2.823 -0.4002 -0.5887 -0.3054
 4504TIP3    H113476   4.250   2.759   2.747  0.8433  0.1589 -0.9140
 4504TIP3    H213477   4.391   2.757   2.801 -0.0620 -0.0429  1.5697
 4505TIP3   OH213478   1.518   2.968   5.807 -0.4077  0.0064 -0.0542
 4505TIP3    H113479   1.595   2.947   5.860 -1.2640 -1.3728  0.6991
 4505TIP3    H213480   1.552   2.972   5.717  0.4232 -1.4073  0.1633
 4506TIP3   OH213481   4.065   1.899   2.892 -0.1724  0.0593  0.0942
 4506TIP3    H113482   4.124   1.825   2.895 -0.2496 -0.0486 -0.8465
 4506TIP3    H213483   3.978   1.861   2.903 -0.1342  0.1342  0.6929
 4507TIP3   OH213484   7.114   1.237   5.583  0.4334 -0.3198 -0.2056
 4507TIP3    H113485   7.201   1.275   5.598 -0.4049  1.9300 -0.6551
 4507TIP3    H213486   7.119   1.202   5.494  1.7935 -3.1058  0.8608
 4508TIP3   OH213487   3.972   0.875   0.461  0.0260 -0.2591 -0.4338
 4508TIP3    H113488   3.913   0.806   0.492  1.4399 -2.1330 -1.6320
 4508TIP3    H213489   4.037   0.828   0.409  0.9460  2.0539 -1.4974
 4509TIP3   OH213490   5.522   0.157   5.794  0.0151  1.1914 -0.0463
 4509TIP3    H113491   5.486   0.114   5.872 -1.7690  0.8052 -1.0398
 4509TIP3    H213492   5.505   0.096   5.723 -0.0199  2.3339 -1.0363
 4510TIP3   OH213493   1.843   2.112   3.491  0.4517  0.1194  0.4758
 4510TIP3    H113494   1.792   2.105   3.410  1.8552  1.7131 -0.6174
 4510TIP3    H213495   1.782   2.087   3.560 -0.5423 -2.1833 -1.1175
 4511TIP3   OH213496   5.718   5.080   0.632  0.9566  0.6308 -0.3531
 4511TIP3    H113497   5.764   5.115   0.709 -1.6367 -1.2839  2.2621
 4511TIP3    H213498   5.653   5.147   0.612  0.2476  0.2200  0.5158
 4512TIP3   OH213499   4.296   3.051   0.693  0.2784 -0.1733  0.5218
 4512TIP3    H113500   4.256   3.017   0.613 -0.2563 -1.5503  1.3405
 4512TIP3    H213501   4.327   2.974   0.739 -0.5203  0.4668  2.2306
 4513TIP3   OH213502   6.701   3.998   5.759  0.2458  0.0331 -0.0650
 4513TIP3    H113503   6.761   4.070   5.740  1.1747 -0.8793 -0.6920
 4513TIP3    H213504   6.640   3.997   5.686  1.4124 -0.9938 -1.0749
 4514TIP3   OH213505   4.858   5.094   3.160 -0.1383  0.6826 -0.1914
 4514TIP3    H113506   4.878   5.062   3.248  4.4729  1.7878 -0.5655
 4514TIP3    H213507   4.831   5.017   3.112 -1.4146 -0.1959  1.7919
 4515TIP3   OH213508   7.019   0.181   5.170  0.2143 -0.1336 -0.3153
 4515TIP3    H113509   6.980   0.173   5.083 -0.4349  0.7585 -0.1226
 4515TIP3    H213510   7.112   0.196   5.153  0.1015 -0.0089 -0.8537
 4516TIP3   OH213511   3.976   3.399   2.334  0.0228  0.8852 -0.4440
 4516TIP3    H113512   3.997   3.459   2.406 -0.3106 -1.7412  2.0405
 4516TIP3    H213513   3.891   3.363   2.358 -0.1142 -0.0901 -2.2267
 4517TIP3   OH213514   1.893   0.399   2.231 -0.1623 -0.2671  0.1977
 4517TIP3    H113515   1.962   0.412   2.166  1.2726  2.0756  2.0207
 4517TIP3    H213516   1.940   0.367   2.308 -1.4259 -0.5157  0.8753
 4518TIP3   OH213517   1.946   1.222   4.444  0.5129  0.2258  0.0075
 4518TIP3    H113518   2.015   1.288   4.445  1.6838 -0.9198 -1.0072
 4518TIP3    H213519   1.979   1.152   4.500  0.4340 -0.5493 -0.8809
 4519TIP3   OH213520   5.787   0.677   2.557 -0.3063 -0.0065  0.0588
 4519TIP3    H113521   5.830   0.662   2.473  0.5516  0.2086  0.4481
 4519TIP3    H213522   5.696   0.697   2.535 -0.4981 -1.5798 -0.7276
 4520TIP3   OH213523   6.142   0.168   1.876  0.0397  0.1585 -0.2566
 4520TIP3    H113524   6.216   0.183   1.816 -0.7527 -1.8944 -1.8547
 4520TIP3    H213525   6.065   0.188   1.823 -0.6513 -0.9810  0.3049
 4521TIP3   OH213526   1.193   6.716   3.792  0.1712 -0.6555 -0.3238
 4521TIP3    H113527   1.259   6.678   3.850  0.3552 -0.9475 -0.7263
 4521TIP3    H213528   1.111   6.707   3.841  0.1205 -2.0584 -0.6323
 4522TIP3   OH213529   4.980   6.728   3.840  0.0956  0.6798  0.2917
 4522TIP3    H113530   5.022   6.809   3.870 -0.0628  0.3517  1.4536
 4522TIP3    H213531   4.919   6.706   3.910 -1.6574  0.8477 -1.1084
 4523TIP3   OH213532   2.602   6.751   3.130 -0.2524  0.3520 -0.4045
 4523TIP3    H113533   2.661   6.791   3.194 -0.5401  0.5614 -0.2644
 4523TIP3    H213534   2.557   6.825   3.089 -0.2877  0.2039 -0.6339
 4524TIP3   OH213535   6.086   6.007   3.560  0.2768  0.1717  0.3444
 4524TIP3    H113536   6.089   5.916   3.532 -0.8771  0.1314  0.3254
 4524TIP3    H213537   6.126   6.007   3.647 -0.2175 -0.4478  0.5778
 4525TIP3   OH213538   5.781   0.444   0.738 -0.1985  0.3676 -0.0833
 4525TIP3    H113539   5.725   0.521   0.744  1.1355  1.3520  0.1928
 4525TIP3    H213540   5.818   0.435   0.826  0.2938 -0.0934 -0.3343
 4526TIP3   OH213541   1.915   1.275   1.038  0.3189  0.1081  0.4328
 4526TIP3    H113542   1.941   1.185   1.058 -0.5007 -0.0499  0.8215
 4526TIP3    H213543   1.955   1.327   1.107  0.1573 -0.0499  0.6450
 4527TIP3   OH213544   4.685   5.675   1.562  0.0561 -0.6985  0.1317
 4527TIP3    H113545   4.761   5.654   1.617  0.9658 -2.8113 -1.8017
 4527TIP3    H213546   4.615   5.691   1.625  1.8674  0.5920  1.9688
 4528TIP3   OH213547   7.008   3.797   2.499  0.3391 -0.1362  0.3791
 4528TIP3    H113548   6.967   3.856   2.435  0.6845  1.3903  1.5042
 4528TIP3    H213549   7.101   3.815   2.492  0.5977 -1.6488 -0.2896
 4529TIP3   OH213550   6.963   0.759   2.672 -0.7303 -0.2710  0.2819
 4529TIP3    H113551   7.042   0.813   2.663 -0.6610 -0.1258  1.5915
 4529TIP3    H213552   6.977   0.709   2.752 -0.9885 -1.9451 -0.6748
 4530TIP3   OH213553   3.681   3.744   1.343 -0.6862  0.4815  0.2423
 4530TIP3    H113554   3.706   3.833   1.319  1.2423 -0.3721 -1.1697
 4530TIP3    H213555   3.763   3.701   1.365 -1.6822 -0.7348  1.7616
 4531TIP3   OH213556   1.433   3.906   0.566 -1.3115  0.3433  0.1634
 4531TIP3    H113557   1.396   3.853   0.496 -1.8635  0.8835  0.0341
 4531TIP3    H213558   1.480   3.976   0.522  2.1935 -1.7452  0.2568
 4532TIP3   OH213559   1.064   6.527   3.556 -0.2638  0.2607  0.3685
 4532TIP3    H113560   1.026   6.549   3.470 -0.2639  0.6330  0.4587
 4532TIP3    H213561   1.110   6.607   3.582  0.0065  0.0398  0.5712
 4533TIP3   OH213562   2.667   1.302   2.371  0.1780  0.5194 -0.4045
 4533TIP3    H113563   2.751   1.346   2.359  1.3517 -1.3398  0.5377
 4533TIP3    H213564   2.621   1.314   2.288  1.8779  0.5958 -1.3673
 4534TIP3   OH213565   0.601   2.953   2.656  0.2302  0.4340  0.6123
 4534TIP3    H113566   0.549   2.936   2.735 -0.7927 -2.4246 -0.5816
 4534TIP3    H213567   0.689   2.970   2.689 -0.4695  0.7929  2.4164
 4535TIP3   OH213568   2.800   4.265   5.641  0.0899  0.0887 -0.1322
 4535TIP3    H113569   2.792   4.176   5.605 -1.8461  0.0833  0.2231
 4535TIP3    H213570   2.740   4.266   5.716  0.8790  1.3928  0.5113
 4536TIP3   OH213571   2.110   2.260   0.149 -0.4494 -0.5758  0.1386
 4536TIP3    H113572   2.175   2.215   0.096  0.7347 -0.0511  1.0860
 4536TIP3    H213573   2.143   2.350   0.157  0.1628 -0.9309  2.8187
 4537TIP3   OH213574   2.310   4.908   4.745 -0.2964  0.0482  0.6045
 4537TIP3    H113575   2.232   4.856   4.729  0.8070 -1.3663 -0.4841
 4537TIP3    H213576   2.364   4.853   4.802  0.4320  0.4464  0.3153
 4538TIP3   OH213577   5.025   1.396   3.874  0.0047 -0.4208  0.4146
 4538TIP3    H113578   5.098   1.360   3.925  0.8891  0.3752 -0.2350
 4538TIP3    H213579   4.953   1.404   3.936  0.9760  0.3120  1.4854
 4539TIP3   OH213580   4.116   2.697   2.010 -0.6187  0.1477  0.4181
 4539TIP3    H113581   4.155   2.783   1.992 -0.5013  0.0307  0.0991
 4539TIP3    H213582   4.162   2.665   2.087  1.3623 -0.8682 -1.1078
 4540TIP3   OH213583   0.732   6.455   1.265  0.5056  0.1637 -0.0454
 4540TIP3    H113584   0.722   6.514   1.190  1.1909  1.3300  0.7621
 4540TIP3    H213585   0.648   6.459   1.310 -0.1031 -0.9612 -1.0128
 4541TIP3   OH213586   6.177   1.575   1.470  0.1711 -0.5375  0.1121
 4541TIP3    H113587   6.216   1.524   1.541  0.7512 -0.5278 -0.1881
 4541TIP3    H213588   6.251   1.593   1.411 -0.0715  0.4290  0.0920
 4542TIP3   OH213589   1.159   2.332   3.095 -0.4470 -0.4455 -0.2378
 4542TIP3    H113590   1.121   2.331   3.007 -2.7466 -0.3109  0.6667
 4542TIP3    H213591   1.085   2.311   3.152  1.5350 -3.3109  1.4973
 4543TIP3   OH213592   5.930   4.688   0.106  0.3650 -0.8383 -0.0408
 4543TIP3    H113593   5.976   4.759   0.150 -0.2141 -1.1772  1.1365
 4543TIP3    H213594   5.887   4.730   0.032  1.4704 -0.2904 -0.4060
 4544TIP3   OH213595   7.135   6.240   1.466 -0.1934  0.2718  0.2275
 4544TIP3    H113596   7.189   6.227   1.389 -2.1407  0.6390 -1.2744
 4544TIP3    H213597   7.093   6.325   1.452 -2.7423 -0.8741  0.2459
 4545TIP3   OH213598   5.418   3.848   3.026  0.2231 -0.0064 -0.1670
 4545TIP3    H113599   5.390   3.899   3.102  0.5152  0.1303 -0.1477
 4545TIP3    H213600   5.487   3.791   3.061 -0.9569 -1.3115  0.0906
 4546TIP3   OH213601   5.463   6.337   5.386 -0.0360 -0.2835 -0.0396
 4546TIP3    H113602   5.482   6.259   5.438  1.0422 -2.0147 -2.8294
 4546TIP3    H213603   5.403   6.306   5.318 -0.8513  1.7318 -0.2981
 4547TIP3   OH213604   6.513   1.773   0.916  0.4058  0.4351 -0.0861
 4547TIP3    H113605   6.449   1.718   0.962  0.2121 -0.5043 -1.4286
 4547TIP3    H213606   6.468   1.857   0.905 -0.7195 -0.2599 -1.1651
 4548TIP3   OH213607   6.424   2.594   3.537  0.6354 -0.0742  0.2269
 4548TIP3    H113608   6.366   2.636   3.600  1.6337  0.0124  1.1161
 4548TIP3    H213609   6.390   2.622   3.451 -2.6579 -2.6889  0.4745
 4549TIP3   OH213610   3.437   0.757   1.563 -0.2851  0.3633  0.1455
 4549TIP3    H113611   3.423   0.784   1.473  2.6272 -0.7851 -0.7734
 4549TIP3    H213612   3.386   0.676   1.572  1.2134 -0.7988 -1.2812
 4550TIP3   OH213613   4.842   3.272   2.909 -0.3297 -0.3408 -0.2324
 4550TIP3    H113614   4.748   3.271   2.893 -0.3910 -2.0819  0.0170
 4550TIP3    H213615   4.864   3.364   2.923 -1.6203  0.3528 -2.3987
 4551TIP3   OH213616   5.001   6.770   5.361 -0.1397 -0.0831 -0.1535
 4551TIP3    H113617   5.070   6.833   5.339  0.3148 -0.2909  0.6578
 4551TIP3    H213618   4.958   6.751   5.277  0.6046  0.2624 -0.6166
 4552TIP3   OH213619   3.606   2.383   2.892  0.3907  0.7437 -0.4987
 4552TIP3    H113620   3.538   2.437   2.932  0.8720  1.5237 -0.6972
 4552TIP3    H213621   3.592   2.296   2.927 -0.6272  0.9208 -0.4363
 4553TIP3   OH213622   6.250   4.771   5.657  0.5566  0.2094 -0.7872
 4553TIP3    H113623   6.157   4.749   5.649  0.4796  0.8240 -1.7914
 4553TIP3    H213624   6.270   4.757   5.750  0.6971 -4.6576 -1.2950
 4554TIP3   OH213625   7.137   4.540   2.984  0.3634 -0.2248  0.2997
 4554TIP3    H113626   7.145   4.529   3.079  1.8268  0.9982  0.3557
 4554TIP3    H213627   7.072   4.610   2.973 -0.3780 -0.8914  0.3531
 4555TIP3   OH213628   0.182   2.318   4.213 -0.0475 -0.0190 -0.0877
 4555TIP3    H113629   0.109   2.269   4.250 -1.9248  3.3103  1.0552
 4555TIP3    H213630   0.218   2.367   4.286  0.5238  1.6649 -1.4234
 4556TIP3   OH213631   2.678   1.633   0.534  0.4234 -0.4729  0.2010
 4556TIP3    H113632   2.592   1.606   0.567  1.1009  0.1079  2.6423
 4556TIP3    H213633   2.677   1.608   0.441 -3.0196  1.0783 -0.3396
 4557TIP3   OH213634   4.111   1.239   1.244 -0.2781  0.2817  0.2611
 4557TIP3    H113635   4.074   1.192   1.170  0.0949  0.1823  0.1364
 4557TIP3    H213636   4.202   1.255   1.219 -0.4543  1.2525  0.2118
 4558TIP3   OH213637   4.928   4.494   3.307  0.2247 -0.1558  0.2876
 4558TIP3    H113638   5.016   4.482   3.344 -0.0045 -0.8564  0.6295
 4558TIP3    H213639   4.940   4.558   3.237  1.0079 -0.2277  0.3449
 4559TIP3   OH213640   2.448   4.216   0.988 -0.3858 -0.1958  0.1929
 4559TIP3    H113641   2.453   4.132   0.942 -0.4023 -0.5151  0.7654
 4559TIP3    H213642   2.533   4.224   1.032 -1.0644 -0.8126  1.6681
 4560TIP3   OH213643   5.907   1.377   1.535  0.0193 -0.4750 -0.0402
 4560TIP3    H113644   5.945   1.443   1.593  0.8875 -0.9323 -0.0707
 4560TIP3    H213645   5.970   1.305   1.536  0.0912 -0.4799 -1.5953
 4561TIP3   OH213646   0.924   5.201   4.840  0.2091 -0.3429  0.4671
 4561TIP3    H113647   0.838   5.180   4.803  0.2151  2.7026 -1.5728
 4561TIP3    H213648   0.905   5.226   4.930 -1.0605  0.1668  0.0858
 4562TIP3   OH213649   4.720   3.865   2.092  0.0753 -0.4646 -0.3918
 4562TIP3    H113650   4.674   3.822   2.021 -1.6618 -0.9390  0.9559
 4562TIP3    H213651   4.783   3.800   2.123 -0.2001 -0.7964 -0.5299
 4563TIP3   OH213652   5.941   1.298   5.093  0.4827 -0.5975 -0.2951
 4563TIP3    H113653   5.919   1.207   5.113 -0.0798 -0.1905  1.0422
 4563TIP3    H213654   5.930   1.345   5.176  2.4667  0.3873 -0.5185
 4564TIP3   OH213655   4.046   0.712   0.025  0.0294  0.1364 -0.2268
 4564TIP3    H113656   4.088   0.649   0.083 -1.0794  0.6521  1.1921
 4564TIP3    H213657   3.981   0.661  -0.024 -0.2364  0.0049  0.2614
 4565TIP3   OH213658   0.880   1.371   3.176 -0.4570  0.4286 -0.1401
 4565TIP3    H113659   0.883   1.299   3.238  0.3121 -0.0161 -0.6664
 4565TIP3    H213660   0.793   1.366   3.137 -0.9807  0.7760  0.9575
 4566TIP3   OH213661   1.578   4.719   3.594 -0.4421  0.1330  0.6816
 4566TIP3    H113662   1.671   4.732   3.613 -0.2580 -0.4048  0.1642
 4566TIP3    H213663   1.540   4.807   3.599  0.1427  0.3930  0.6252
 4567TIP3   OH213664   5.331   2.190   0.604 -0.0027 -0.1456 -0.4222
 4567TIP3    H113665   5.410   2.138   0.588  0.7184  0.3850  1.2405
 4567TIP3    H213666   5.270   2.129   0.644 -0.4672 -0.5538 -1.6985
 4568TIP3   OH213667   0.474   1.695   4.987  0.0415 -0.3144 -0.3622
 4568TIP3    H113668   0.496   1.655   5.071  0.7924  1.6344  0.4308
 4568TIP3    H213669   0.386   1.663   4.967  0.9875 -3.1575 -0.3619
 4569TIP3   OH213670   2.445   2.903   1.732  0.0382  0.0495  0.6915
 4569TIP3    H113671   2.454   2.902   1.637 -3.4002 -0.3865  0.2265
 4569TIP3    H213672   2.532   2.926   1.765  1.3389  0.1961 -2.5239
 4570TIP3   OH213673   6.802   2.491   2.274 -1.2579  0.1462 -0.2481
 4570TIP3    H113674   6.779   2.514   2.184 -0.3790 -3.3802 -1.5089
 4570TIP3    H213675   6.731   2.434   2.303 -1.1114  0.5849  1.0463
 4571TIP3   OH213676   6.019   4.918   0.835  0.1940 -0.2211  0.5074
 4571TIP3    H113677   6.091   4.941   0.893  0.9399 -0.5153 -0.2782
 4571TIP3    H213678   6.007   4.996   0.780  0.2812 -0.3658  0.2793
 4572TIP3   OH213679   4.108   0.642   3.496 -0.5827  0.2940  0.5879
 4572TIP3    H113680   4.131   0.645   3.403  0.4332 -0.3552  0.8016
 4572TIP3    H213681   4.013   0.635   3.497 -0.6041  0.2571 -0.4022
 4573TIP3   OH213682   4.075   3.109   0.826  1.0812 -0.1923  0.3395
 4573TIP3    H113683   4.004   3.075   0.771  1.8685 -0.4173 -0.5755
 4573TIP3    H213684   4.155   3.077   0.784  1.7256 -0.1043  1.4545
 4574TIP3   OH213685   1.055   1.329   5.839  0.4501  0.4052  0.3521
 4574TIP3    H113686   1.149   1.343   5.825  0.1285  3.8569  0.8552
 4574TIP3    H213687   1.035   1.376   5.920 -1.4467 -1.8867  1.3542
 4575TIP3   OH213688   2.173   2.808   4.957 -0.4297  0.0792 -0.4543
 4575TIP3    H113689   2.131   2.832   5.039 -1.4860 -1.1592 -0.6018
 4575TIP3    H213690   2.190   2.892   4.913 -1.2084  0.6859  0.3605
 4576TIP3   OH213691   5.088   1.697   3.179 -0.2863  0.2368 -0.8920
 4576TIP3    H113692   5.074   1.604   3.164 -1.0510 -0.0039  0.9364
 4576TIP3    H213693   5.181   1.711   3.162  0.1077 -1.1406 -0.0061
 4577TIP3   OH213694   3.921   4.668   1.439 -0.2414 -0.5744 -0.1144
 4577TIP3    H113695   4.000   4.689   1.389 -1.2501 -0.0008 -1.5372
 4577TIP3    H213696   3.912   4.573   1.431  1.0775 -0.8585  1.3059
 4578TIP3   OH213697   2.473   3.475   0.941 -0.0556  0.1305 -0.3884
 4578TIP3    H113698   2.464   3.564   0.975 -0.6750 -0.1512  0.1920
 4578TIP3    H213699   2.390   3.457   0.897 -1.3683 -1.3877  2.4539
 4579TIP3   OH213700   4.005   1.405   2.467  0.3428 -0.1732 -0.5510
 4579TIP3    H113701   4.024   1.368   2.381 -0.4317 -0.9693 -0.3936
 4579TIP3    H213702   3.953   1.338   2.511 -0.4874  0.8060  0.0064
 4580TIP3   OH213703   3.787   2.259   4.977  0.6081  0.9978  0.3675
 4580TIP3    H113704   3.786   2.342   4.930 -0.9838  1.7101  1.5932
 4580TIP3    H213705   3.816   2.281   5.065  0.6805  0.1540  0.5672
 4581TIP3   OH213706   3.617   2.288   2.347  0.2045  0.4203  0.1348
 4581TIP3    H113707   3.676   2.347   2.394 -0.4406  0.8945  0.3681
 4581TIP3    H213708   3.657   2.201   2.356  1.1617  0.8135 -0.2126
 4582TIP3   OH213709   1.249   5.159   1.944 -0.2300 -0.1341 -0.0527
 4582TIP3    H113710   1.299   5.159   2.025  0.0568 -0.8906 -0.2164
 4582TIP3    H213711   1.161   5.184   1.970  0.0410  0.3819  0.3709
 4583TIP3   OH213712   6.033   5.155   1.384  0.0330  0.2741 -0.2725
 4583TIP3    H113713   6.068   5.066   1.390  0.4807  0.3237 -1.7634
 4583TIP3    H213714   5.989   5.169   1.468  0.6745 -1.0365  0.3180
 4584TIP3   OH213715   6.078   1.092   1.293 -0.2500 -0.1165 -0.4618
 4584TIP3    H113716   6.170   1.080   1.270 -0.2768 -0.1135 -0.5718
 4584TIP3    H213717   6.061   1.024   1.359 -0.1168  0.0125 -0.2956
 4585TIP3   OH213718   4.340   1.582   4.469  0.3480  0.0535  0.1490
 4585TIP3    H113719   4.354   1.676   4.479 -0.8484  0.4821 -1.6985
 4585TIP3    H213720   4.396   1.557   4.396  1.1940 -0.8448  1.0734
 4586TIP3   OH213721   4.075   3.645   0.740 -0.6203 -0.4213  0.1467
 4586TIP3    H113722   3.998   3.595   0.714  0.5396 -1.6436 -1.0677
 4586TIP3    H213723   4.149   3.586   0.724  0.5597  0.5586  1.6722
 4587TIP3   OH213724   2.433   4.522   4.690 -0.5202 -0.5895  0.0680
 4587TIP3    H113725   2.527   4.512   4.706 -0.1958  1.0021 -0.7089
 4587TIP3    H213726   2.428   4.576   4.611 -2.0874 -2.2789 -1.0703
 4588TIP3   OH213727   6.070   6.143   2.449  0.5874  0.0344 -0.0616
 4588TIP3    H113728   6.059   6.235   2.426  0.3553  0.2775  0.9579
 4588TIP3    H213729   6.078   6.098   2.365 -1.1870  0.7500 -0.6677
 4589TIP3   OH213730   1.601   4.048   2.879 -0.3024 -0.6420  0.4496
 4589TIP3    H113731   1.636   3.962   2.853  0.3485 -0.3026  0.1857
 4589TIP3    H213732   1.678   4.102   2.896 -0.7107 -0.1859  0.8913
 4590TIP3   OH213733   6.232   6.704   1.471  0.0956  0.4936 -0.1958
 4590TIP3    H113734   6.326   6.724   1.470 -0.0080  1.1347  0.9774
 4590TIP3    H213735   6.190   6.789   1.461 -0.3531  0.3536  0.4251
 4591TIP3   OH213736   4.303   4.338   2.814 -0.6114  0.0533 -0.0027
 4591TIP3    H113737   4.302   4.346   2.909  0.4149  0.9985 -0.0560
 4591TIP3    H213738   4.256   4.416   2.783 -0.7949 -0.1629 -0.2747
 4592TIP3   OH213739   0.408   0.078   4.489  0.1676  0.5234  0.4497
 4592TIP3    H113740   0.368   0.050   4.571 -0.5987  1.2815  0.3479
 4592TIP3    H213741   0.456   0.001   4.458  0.1499  0.1183  1.4129
 4593TIP3   OH213742   0.374   2.411   3.316  0.2576  0.1334  0.1216
 4593TIP3    H113743   0.415   2.462   3.387 -0.5862  0.3820  0.4397
 4593TIP3    H213744   0.362   2.475   3.246  0.9833 -0.0862 -0.2143
 4594TIP3   OH213745   2.941   3.636   5.532 -0.1037  0.1311 -0.2236
 4594TIP3    H113746   2.935   3.637   5.628 -0.1652  1.9001 -0.2152
 4594TIP3    H213747   2.869   3.579   5.504  0.7845 -1.5563  0.8045
 4595TIP3   OH213748   1.164   2.116   5.831  0.0364 -0.3121  0.2379
 4595TIP3    H113749   1.113   2.143   5.907 -1.5596 -3.1011  0.2846
 4595TIP3    H213750   1.104   2.063   5.779  1.3808  0.6277 -2.5022
 4596TIP3   OH213751   4.018   3.104   2.273  0.0213  0.2962 -0.2482
 4596TIP3    H113752   4.077   3.174   2.299  0.0269  0.4197 -0.5858
 4596TIP3    H213753   3.930   3.142   2.280  0.0079  0.2495 -0.1626
 4597TIP3   OH213754   5.937   6.350   2.675  0.4132 -0.2961  0.5246
 4597TIP3    H113755   5.912   6.325   2.764  0.0787 -2.8468 -0.2022
 4597TIP3    H213756   6.024   6.311   2.663  1.0225  1.1262  0.1377
 4598TIP3   OH213757   5.208   0.083   3.252  0.4529  0.7350  0.1573
 4598TIP3    H113758   5.266   0.154   3.281  1.7169 -0.0651 -0.3445
 4598TIP3    H213759   5.218   0.015   3.319 -0.7204  0.9774  0.6099
 4599TIP3   OH213760   6.286   4.674   1.465 -0.1423  0.0929  0.3799
 4599TIP3    H113761   6.354   4.652   1.402  0.0015  1.2809  0.0830
 4599TIP3    H213762   6.308   4.624   1.543  1.4595  0.9097  0.5010
 4600TIP3   OH213763   0.979   1.773   4.433 -0.0907  0.0184  0.1966
 4600TIP3    H113764   0.923   1.743   4.505  0.3840 -2.1469 -0.2613
 4600TIP3    H213765   1.066   1.779   4.472 -0.2197  1.0904  0.3396
 4601TIP3   OH213766   6.890   0.729   0.134  0.3691 -0.3272 -0.3986
 4601TIP3    H113767   6.981   0.720   0.106  0.5655 -1.4256  0.5068
 4601TIP3    H213768   6.891   0.706   0.227 -0.9581 -1.2293 -0.5723
 4602TIP3   OH213769   3.376   1.264   4.730 -0.2607 -1.0818 -0.3818
 4602TIP3    H113770   3.459   1.222   4.709  0.5378  0.2728 -0.0058
 4602TIP3    H213771   3.344   1.298   4.647 -0.4365 -1.5548 -0.5162
 4603TIP3   OH213772   6.237   4.896   3.349 -0.2318  0.2219  0.2828
 4603TIP3    H113773   6.196   4.819   3.310 -0.3901 -0.4265  1.6787
 4603TIP3    H213774   6.303   4.861   3.409  1.0730  1.2236 -0.5049
 4604TIP3   OH213775   0.165   5.643   3.496  0.1093  0.2051 -0.2270
 4604TIP3    H113776   0.246   5.646   3.444 -0.0211  0.4741 -0.4154
 4604TIP3    H213777   0.096   5.669   3.435 -0.3241 -1.3574 -0.4462
 4605TIP3   OH213778   1.949   5.391   5.404  0.3291 -0.3705 -0.2609
 4605TIP3    H113779   2.034   5.436   5.412  0.4780  0.5269 -4.5897
 4605TIP3    H213780   1.971   5.298   5.409  1.3276 -0.1376  0.0831
 4606TIP3   OH213781   4.726   1.004   4.517  0.2249 -0.0478 -0.0804
 4606TIP3    H113782   4.799   1.008   4.456 -0.6452 -0.4745 -1.1935
 4606TIP3    H213783   4.719   1.093   4.552  1.5648 -0.1189  0.4227
 4607TIP3   OH213784   3.779   0.928   3.852 -0.2025 -0.0758  0.1478
 4607TIP3    H113785   3.841   0.872   3.899  0.0566  0.6267  0.6576
 4607TIP3    H213786   3.758   0.998   3.914  0.9645  1.4867 -1.1077
 4608TIP3   OH213787   7.116   2.595   1.170 -0.5611 -0.1909  0.1563
 4608TIP3    H113788   7.092   2.679   1.130 -0.4577  0.6520  1.7718
 4608TIP3    H213789   7.034   2.562   1.207 -0.2627  0.1219  1.1250
 4609TIP3   OH213790   6.285   5.886   5.553  0.5697  0.5128  0.6043
 4609TIP3    H113791   6.246   5.805   5.520 -1.2832  1.5212  0.1776
 4609TIP3    H213792   6.334   5.859   5.630 -0.6556 -0.9191  0.9388
 4610TIP3   OH213793   6.658   2.825   3.319  0.2157  0.0885 -0.0212
 4610TIP3    H113794   6.698   2.742   3.344  0.6665  0.9681  2.4885
 4610TIP3    H213795   6.564   2.810   3.326  0.3101 -0.0631  1.0535
 4611TIP3   OH213796   0.473   4.465   3.565  0.2237 -0.4380  0.0312
 4611TIP3    H113797   0.449   4.446   3.656  1.9060 -0.2409  0.5581
 4611TIP3    H213798   0.409   4.417   3.513  0.5150 -2.3826  1.3395
 4612TIP3   OH213799   3.224   5.320   2.195  0.2142 -0.1970  0.3932
 4612TIP3    H113800   3.264   5.397   2.155  0.8036 -0.5894  0.2017
 4612TIP3    H213801   3.235   5.333   2.289 -1.5586  0.9326  0.4733
 4613TIP3   OH213802   4.423   3.273   0.787  0.0355 -0.1732  0.5048
 4613TIP3    H113803   4.448   3.234   0.871 -1.4731  0.9847  1.5282
 4613TIP3    H213804   4.372   3.205   0.743 -0.4313 -0.2640  1.1776
 4614TIP3   OH213805  -0.012   0.120   2.569 -0.8478 -0.0524  0.2949
 4614TIP3    H113806   0.024   0.032   2.558 -1.5249 -0.4378  1.0247
 4614TIP3    H213807   0.052   0.165   2.625 -0.2898  0.0623 -0.4270
 4615TIP3   OH213808   3.086   3.945   0.362  0.5635  0.2772  0.2522
 4615TIP3    H113809   3.078   3.851   0.378  1.4687 -0.1785 -1.6281
 4615TIP3    H213810   3.176   3.966   0.386  0.4737  0.5833  0.3279
 4616TIP3   OH213811   6.957   4.788   4.693 -0.5378  0.4442 -0.0926
 4616TIP3    H113812   7.037   4.835   4.669  0.0237  0.0811  1.0102
 4616TIP3    H213813   6.946   4.723   4.623  1.2041 -0.7624  0.6789
 4617TIP3   OH213814   3.030   2.039   1.494 -0.0634 -0.5051  0.4525
 4617TIP3    H113815   3.098   2.048   1.428  0.9632 -1.3783  1.3646
 4617TIP3    H213816   2.999   2.128   1.509 -0.4846 -0.3147 -1.3490
 4618TIP3   OH213817   6.791   0.172   0.120  0.2140  0.4370 -0.4474
 4618TIP3    H113818   6.749   0.145   0.201 -1.4394  1.4010 -0.9448
 4618TIP3    H213819   6.727   0.150   0.052  1.5346 -0.2793 -1.5057
 4619TIP3   OH213820   7.050   4.901   2.445  0.5233  0.1185 -0.2052
 4619TIP3    H113821   7.140   4.883   2.420  0.3128 -1.2413 -0.0558
 4619TIP3    H213822   7.054   4.912   2.540  0.1938 -2.6070  0.2065
 4620TIP3   OH213823   4.259   0.920   0.015  0.2280 -0.4017 -0.3096
 4620TIP3    H113824   4.266   0.825   0.009  0.8598 -0.3206 -0.8766
 4620TIP3    H213825   4.231   0.936   0.106  1.4772 -1.0455  0.2048
 4621TIP3   OH213826   1.717   1.005   1.165  0.1041  0.0994  0.8295
 4621TIP3    H113827   1.800   1.011   1.211 -0.4363  0.8961  1.7363
 4621TIP3    H213828   1.677   1.092   1.176 -1.1791 -0.4963  1.0750
 4622TIP3   OH213829   0.998   4.397   2.115 -0.0017  0.0726  0.2525
 4622TIP3    H113830   1.058   4.344   2.167  0.4421  0.0507 -0.2646
 4622TIP3    H213831   1.053   4.469   2.083 -0.1165 -0.2181 -0.6397
 4623TIP3   OH213832   1.513   2.613   4.770 -0.2786 -0.4188 -0.5026
 4623TIP3    H113833   1.418   2.627   4.773 -0.2570 -0.3592 -0.0396
 4623TIP3    H213834   1.522   2.518   4.761 -0.4176 -0.2254 -3.4487
 4624TIP3   OH213835   2.185   6.426   5.706  0.4357  0.2679 -0.0550
 4624TIP3    H113836   2.158   6.455   5.793 -0.9430 -0.1823 -0.3024
 4624TIP3    H213837   2.176   6.503   5.651 -0.5607  0.0952 -0.1613
 4625TIP3   OH213838   0.995   1.479   2.439 -0.1566  0.1678  0.5494
 4625TIP3    H113839   0.985   1.390   2.404 -2.0122  0.6620 -0.3301
 4625TIP3    H213840   0.982   1.469   2.533 -0.0475 -0.5378  0.4954
 4626TIP3   OH213841   3.390   1.362   3.486 -0.0295 -0.4454  0.1232
 4626TIP3    H113842   3.343   1.326   3.562 -0.1383 -1.3078 -0.3399
 4626TIP3    H213843   3.333   1.341   3.411  0.1622  0.2394 -0.2189
 4627TIP3   OH213844   3.156   2.929   0.975 -0.1417 -0.3012  0.3348
 4627TIP3    H113845   3.119   3.001   0.925 -2.7053 -0.8225  1.3374
 4627TIP3    H213846   3.121   2.850   0.934  0.7941 -0.8905  0.6377
 4628TIP3   OH213847   1.159   2.169   0.662 -0.3264  0.4942  0.6250
 4628TIP3    H113848   1.106   2.113   0.719  1.4344 -0.2268  1.6574
 4628TIP3    H213849   1.211   2.108   0.609  0.7194  1.1319  0.8722
 4629TIP3   OH213850   0.331   6.335   3.169 -0.3472  0.0032 -0.2581
 4629TIP3    H113851   0.365   6.417   3.132  0.8929 -0.7709 -0.8932
 4629TIP3    H213852   0.326   6.276   3.094  1.4031 -1.3385  0.6128
 4630TIP3   OH213853   4.344   2.668   5.577 -0.1579 -0.2394 -0.0505
 4630TIP3    H113854   4.311   2.656   5.666 -0.6985  0.5570 -0.1370
 4630TIP3    H213855   4.300   2.746   5.545  1.4491  0.5865 -0.3468
 4631TIP3   OH213856   3.665   0.506   0.769 -0.3530 -0.3228  0.5167
 4631TIP3    H113857   3.587   0.475   0.722 -0.1659 -1.1074  0.7174
 4631TIP3    H213858   3.641   0.594   0.799 -1.3603 -0.7436  1.0034
 4632TIP3   OH213859   1.260   0.235   1.066  0.6950 -0.2427  0.3405
 4632TIP3    H113860   1.290   0.253   1.155  0.7555  0.0531  0.2616
 4632TIP3    H213861   1.165   0.232   1.073  0.7472 -1.5152  0.6530
 4633TIP3   OH213862   0.763   5.823   1.771  0.3398  0.3764 -0.2508
 4633TIP3    H113863   0.715   5.829   1.854 -0.5566  1.1916 -0.8222
 4633TIP3    H213864   0.712   5.875   1.709  1.6519  0.7857 -1.0260
 4634TIP3   OH213865   6.927   6.793   0.932  0.3137 -0.0862 -0.1363
 4634TIP3    H113866   6.860   6.729   0.957 -0.8065  0.5538 -1.3278
 4634TIP3    H213867   6.940   6.847   1.010  0.3773 -1.0091  0.5011
 4635TIP3   OH213868   1.240   6.403   1.246  0.1697 -0.3030  0.0911
 4635TIP3    H113869   1.315   6.381   1.191 -0.7301  0.2844 -1.4446
 4635TIP3    H213870   1.166   6.356   1.206 -0.8737  1.6661 -0.4029
 4636TIP3   OH213871   4.561   2.923   4.165  0.1704  0.0890 -0.0878
 4636TIP3    H113872   4.477   2.887   4.192 -0.5390  1.3750 -0.5377
 4636TIP3    H213873   4.620   2.847   4.166 -0.9241 -0.7884  0.4375
 4637TIP3   OH213874   2.519   0.380   3.961  0.2808  0.2098 -0.6053
 4637TIP3    H113875   2.576   0.457   3.956 -0.3255  0.5672 -3.4599
 4637TIP3    H213876   2.577   0.306   3.944  0.2726  0.3868 -1.4370
 4638TIP3   OH213877   1.400   5.398   1.874 -0.1499 -0.2707  0.0174
 4638TIP3    H113878   1.337   5.327   1.872  0.8257 -1.1620 -1.3733
 4638TIP3    H213879   1.362   5.465   1.817 -0.5137 -0.1801  0.3640
 4639TIP3   OH213880   2.533   0.691   4.776 -0.1646  0.1434  0.2813
 4639TIP3    H113881   2.517   0.741   4.855  0.4827 -0.1896  0.6314
 4639TIP3    H213882   2.464   0.625   4.774 -0.1435  0.1126  0.6008
 4640TIP3   OH213883   1.968   6.317   0.379  0.3152 -0.0941  0.2991
 4640TIP3    H113884   1.895   6.256   0.390 -0.5254  0.9711  0.8143
 4640TIP3    H213885   2.033   6.289   0.444  0.7875 -1.5843 -0.7429
 4641TIP3   OH213886   4.677   5.303   4.218  0.3764  0.1352  0.5366
 4641TIP3    H113887   4.696   5.235   4.283 -0.7765 -0.2309  0.5143
 4641TIP3    H213888   4.658   5.255   4.137  0.1389  0.5062  0.3669
 4642TIP3   OH213889   4.759   1.102   0.648  0.0103 -0.3655 -0.3432
 4642TIP3    H113890   4.728   1.016   0.676 -1.4779  0.6808  1.5133
 4642TIP3    H213891   4.695   1.130   0.583  2.0588 -1.7327 -3.1425
 4643TIP3   OH213892   0.270   5.125   0.461  0.1647  0.6443  0.1042
 4643TIP3    H113893   0.364   5.114   0.451  0.0999  0.5077 -0.3881
 4643TIP3    H213894   0.247   5.070   0.536  0.2737 -0.3985 -0.6158
 4644TIP3   OH213895   0.462   0.345   1.784 -0.1755  0.3019 -0.5555
 4644TIP3    H113896   0.413   0.421   1.817 -1.1953 -0.4781 -0.2320
 4644TIP3    H213897   0.453   0.350   1.689 -0.1199  0.6517 -0.5468
 4645TIP3   OH213898   5.112   3.575   3.878 -0.1211  0.2816 -0.4340
 4645TIP3    H113899   5.157   3.491   3.873  1.4267  1.1112 -1.2231
 4645TIP3    H213900   5.024   3.557   3.845  0.3347 -0.9217 -1.0528
 4646TIP3   OH213901   0.050   3.516   2.314 -0.0212  0.3676 -0.1796
 4646TIP3    H113902   0.086   3.446   2.368 -0.7711 -0.9921 -1.3625
 4646TIP3    H213903   0.124   3.545   2.261  0.4179  0.8525  0.6764
 4647TIP3   OH213904   6.365   0.363   0.223  0.4203 -0.1205 -0.3928
 4647TIP3    H113905   6.460   0.378   0.224  0.2684  0.9411  0.8242
 4647TIP3    H213906   6.355   0.271   0.246  1.1386  0.0639  0.7751
 4648TIP3   OH213907   1.359   3.476   5.127  0.1593  0.3412 -0.4652
 4648TIP3    H113908   1.362   3.568   5.099 -1.0866  0.4010 -0.4793
 4648TIP3    H213909   1.445   3.459   5.164 -0.1715  2.0928  1.2978
 4649TIP3   OH213910   6.112   0.382   4.834  0.0459 -0.3310 -0.4579
 4649TIP3    H113911   6.077   0.470   4.849  0.3470 -0.4740  1.4004
 4649TIP3    H213912   6.134   0.380   4.741 -1.9671  0.8090 -1.0312
 4650TIP3   OH213913   3.806   3.588   2.543  0.3341  0.6845 -0.4190
 4650TIP3    H113914   3.777   3.537   2.468  1.9254 -0.7285 -0.1312
 4650TIP3    H213915   3.901   3.573   2.547  0.4326  1.5305  1.2789
 4651TIP3   OH213916   2.304   3.331   4.619 -0.4263 -0.1429 -0.0040
 4651TIP3    H113917   2.248   3.290   4.685 -1.5624  1.4235  0.0787
 4651TIP3    H213918   2.264   3.305   4.536 -1.3606  1.0235  0.0568
 4652TIP3   OH213919   3.443   5.596   3.519 -0.0662 -0.3491 -0.3410
 4652TIP3    H113920   3.412   5.520   3.567  0.1998  0.3156  0.9316
 4652TIP3    H213921   3.385   5.668   3.548 -0.2366 -0.0347 -1.4196
 4653TIP3   OH213922   0.538   2.608   0.443  0.2255 -0.1445 -0.0272
 4653TIP3    H113923   0.520   2.532   0.387 -3.1798  0.8779 -0.5409
 4653TIP3    H213924   0.573   2.674   0.383 -1.4843  0.2633 -0.6360
 4654TIP3   OH213925   5.115   0.067   2.142  0.0696 -0.0960 -0.3103
 4654TIP3    H113926   5.100   0.035   2.231  0.5863 -0.8331 -0.4868
 4654TIP3    H213927   5.208   0.051   2.126 -0.4623 -2.0126 -1.7707
 4655TIP3   OH213928   0.405   3.477   2.017 -0.0315 -0.2566 -0.5218
 4655TIP3    H113929   0.453   3.467   1.935 -2.4070 -0.8337 -1.9626
 4655TIP3    H213930   0.406   3.390   2.057  1.5000  0.1238  0.3473
 4656TIP3   OH213931   0.688   0.911   0.721  0.0656  0.0950  0.3256
 4656TIP3    H113932   0.670   0.860   0.800 -1.0803 -0.6698 -0.4071
 4656TIP3    H213933   0.602   0.923   0.680  0.7740 -0.4521 -1.3841
 4657TIP3   OH213934   1.174   3.841   4.812  0.1357 -0.8947 -0.3705
 4657TIP3    H113935   1.242   3.794   4.859 -0.3365 -0.5416  0.6977
 4657TIP3    H213936   1.189   3.933   4.833 -0.5748 -0.8005 -0.2520
 4658TIP3   OH213937   1.411   5.697   2.627 -0.0185  0.3911  0.3352
 4658TIP3    H113938   1.342   5.718   2.690 -0.0004 -0.8129  0.7980
 4658TIP3    H213939   1.491   5.694   2.680  0.0666 -0.1915  0.1782
 4659TIP3   OH213940   5.995   2.601   2.102  0.0899  0.0629 -0.5814
 4659TIP3    H113941   5.973   2.509   2.116 -3.2179  0.7856  0.0522
 4659TIP3    H213942   6.067   2.601   2.040 -0.0664 -2.9366 -0.8687
 4660TIP3   OH213943   4.993   2.775   3.196 -0.6246  0.0878 -0.2828
 4660TIP3    H113944   4.920   2.798   3.139 -1.7154 -2.8755 -0.2635
 4660TIP3    H213945   5.067   2.764   3.137 -1.0870 -0.3043 -0.8018
 4661TIP3   OH213946   2.933   6.257   0.816  0.5445  0.1510 -0.2061
 4661TIP3    H113947   3.014   6.231   0.859 -0.6678 -1.8538  1.0158
 4661TIP3    H213948   2.925   6.350   0.836  1.0198 -0.2714  2.3275
 4662TIP3   OH213949   3.766   4.911   1.442  0.2861 -0.4582  0.5043
 4662TIP3    H113950   3.824   4.970   1.490 -0.7453 -0.1900  1.4524
 4662TIP3    H213951   3.818   4.831   1.430  0.5286 -0.6099  2.2586
 4663TIP3   OH213952   0.184   4.241   5.493 -0.0994 -0.2449 -0.0037
 4663TIP3    H113953   0.263   4.220   5.443  0.2611 -1.1487  0.8986
 4663TIP3    H213954   0.160   4.158   5.535 -0.1330  0.5568  1.6571
 4664TIP3   OH213955   2.805   3.412   3.874 -0.1436 -0.0904 -0.1971
 4664TIP3    H113956   2.814   3.412   3.969  0.7997 -0.9063 -0.2716
 4664TIP3    H213957   2.722   3.366   3.858 -0.4142  0.2375  0.2273
 4665TIP3   OH213958   4.949   3.098   5.009 -0.6309 -0.2771 -0.4960
 4665TIP3    H113959   4.959   3.029   5.075 -1.6680  1.5968  1.7458
 4665TIP3    H213960   4.967   3.054   4.926 -0.5990 -3.0723  0.8761
 4666TIP3   OH213961   3.560   1.475   5.138  0.4008 -0.1336  0.3475
 4666TIP3    H113962   3.620   1.442   5.204  0.1248 -1.9545 -0.2628
 4666TIP3    H213963   3.474   1.441   5.164 -0.4956  2.5976  1.3322
 4667TIP3   OH213964   1.635   2.433   4.544 -0.0571 -0.0679 -0.1971
 4667TIP3    H113965   1.678   2.401   4.465  1.3052 -1.3573  1.0012
 4667TIP3    H213966   1.638   2.528   4.536  0.5814 -0.1659 -1.4136
 4668TIP3   OH213967   0.549   3.649   4.498  0.3197  0.5939  0.3384
 4668TIP3    H113968   0.545   3.702   4.578 -1.2792  0.9182  0.0833
 4668TIP3    H213969   0.604   3.575   4.521 -0.4524  0.4612  1.9050
 4669TIP3   OH213970   3.723   0.986   1.410 -0.0358  0.1137 -0.0142
 4669TIP3    H113971   3.761   0.906   1.447  2.5628  0.7526 -1.0330
 4669TIP3    H213972   3.778   1.057   1.443 -0.7912  1.2268 -1.0169
 4670TIP3   OH213973   5.461   1.987   3.660  0.1592  0.7569 -0.4137
 4670TIP3    H113974   5.422   2.051   3.719  0.0582  1.3872 -1.1522
 4670TIP3    H213975   5.505   2.039   3.592  0.0196  0.0539 -1.0638
 4671TIP3   OH213976   3.412   4.304   5.484 -0.4807  0.5423  0.2335
 4671TIP3    H113977   3.327   4.304   5.441 -0.0609 -1.1469 -0.6950
 4671TIP3    H213978   3.439   4.212   5.483  1.8880  1.1797 -0.6113
 4672TIP3   OH213979   4.654   5.454   0.192 -0.3102 -0.4039  0.0722
 4672TIP3    H113980   4.600   5.469   0.114  1.6296 -1.5937 -1.5907
 4672TIP3    H213981   4.718   5.525   0.189  0.5895 -1.2069 -0.2131
 4673TIP3   OH213982   5.548   3.168   4.509 -0.3868 -0.0426 -0.2480
 4673TIP3    H113983   5.589   3.082   4.499  0.0948  0.0739  0.6267
 4673TIP3    H213984   5.558   3.210   4.424 -0.2093 -0.6742 -0.5420
 4674TIP3   OH213985   5.204   4.366   4.287 -0.5537  0.3045  0.0285
 4674TIP3    H113986   5.196   4.337   4.378  0.3339 -0.4132 -0.1154
 4674TIP3    H213987   5.298   4.368   4.270 -0.7056  0.6694 -0.8031
 4675TIP3   OH213988   5.827   5.920   3.748  0.2207  0.4129 -0.7641
 4675TIP3    H113989   5.869   5.863   3.812 -0.4461 -1.0907 -1.6103
 4675TIP3    H213990   5.879   6.000   3.749  1.1547 -0.1813  0.5124
 4676TIP3   OH213991   6.878   0.684   4.811 -0.2850 -0.0919  0.1771
 4676TIP3    H113992   6.953   0.676   4.870 -0.3408  0.4418  0.3321
 4676TIP3    H213993   6.861   0.778   4.808 -0.0106 -0.0641 -1.0306
 4677TIP3   OH213994   6.558   3.344   0.320  0.6382  0.1616  0.3694
 4677TIP3    H113995   6.548   3.438   0.332  0.6725 -0.0702  2.5441
 4677TIP3    H213996   6.543   3.330   0.226  0.3795  2.2777  0.0528
 4678TIP3   OH213997   3.229   5.758   5.433  0.0040 -0.3573 -0.1070
 4678TIP3    H113998   3.162   5.689   5.440 -0.6700  0.2135 -0.7757
 4678TIP3    H213999   3.265   5.748   5.345 -0.9621  0.8950 -0.6754
 4679TIP3   OH214000   5.112   5.062   0.914 -0.3021  0.6368  0.0504
 4679TIP3    H114001   5.018   5.060   0.932 -0.1663 -0.5318  0.6755
 4679TIP3    H214002   5.124   4.999   0.842  0.1973 -0.3737  0.9943
 4680TIP3   OH214003   0.561   5.180   2.497 -0.0017  0.2238 -0.0333
 4680TIP3    H114004   0.573   5.118   2.568 -3.9473 -0.6721  0.0903
 4680TIP3    H214005   0.528   5.259   2.539  1.6996  1.2586 -0.5412
 4681TIP3   OH214006   0.534   6.712   1.847  0.0748  0.1333  0.0855
 4681TIP3    H114007   0.525   6.767   1.769 -0.6713  0.8413  0.6542
 4681TIP3    H214008   0.497   6.764   1.918 -1.4972 -1.4248  0.5008
 4682TIP3   OH214009   2.076   4.454   1.603  0.3620  0.0396 -0.0848
 4682TIP3    H114010   2.082   4.360   1.617 -0.2325 -0.1908 -1.2383
 4682TIP3    H214011   2.066   4.491   1.691 -2.9788 -1.2849  0.2495
 4683TIP3   OH214012   4.986   4.880   2.411 -0.5765 -0.4335 -0.0766
 4683TIP3    H114013   5.031   4.830   2.343 -0.6088  0.8751 -1.0988
 4683TIP3    H214014   4.909   4.827   2.432  1.6555 -3.1196  2.2566
 4684TIP3   OH214015   1.757   1.795   2.434 -0.4311 -0.5393 -0.5451
 4684TIP3    H114016   1.706   1.869   2.401  1.1014  1.1043  0.6497
 4684TIP3    H214017   1.730   1.721   2.378 -2.2787  0.7965 -1.5217
 4685TIP3   OH214018   6.761   2.667   5.453  0.5576 -0.4669  0.0572
 4685TIP3    H114019   6.754   2.755   5.490  0.2464 -0.1993 -0.6289
 4685TIP3    H214020   6.789   2.613   5.527  1.4878  0.3292  0.3212
 4686TIP3   OH214021   5.467   6.593   3.290 -0.3331  0.1800 -0.0919
 4686TIP3    H114022   5.432   6.587   3.201  1.3909 -0.1139 -0.7941
 4686TIP3    H214023   5.510   6.678   3.293 -2.6072  1.3842  1.3835
 4687TIP3   OH214024   1.868   3.287   0.252 -0.2341 -0.3717 -0.2736
 4687TIP3    H114025   1.874   3.287   0.157  2.0730  1.2214 -0.2308
 4687TIP3    H214026   1.917   3.209   0.279  1.8901  0.8436 -0.4043
 4688TIP3   OH214027   6.026   2.105   3.083 -0.2256 -0.1629 -0.3726
 4688TIP3    H114028   6.060   2.166   3.148 -0.1323 -1.0371  0.4103
 4688TIP3    H214029   6.040   2.150   2.999  0.5953  0.5335  0.1187
 4689TIP3   OH214030   3.778   2.784   0.733 -0.0784  0.4279 -0.0526
 4689TIP3    H114031   3.811   2.867   0.698 -0.0071  0.2472 -0.4162
 4689TIP3    H214032   3.853   2.725   0.731 -0.6369 -0.3162 -1.9120
 4690TIP3   OH214033   1.537   4.492   1.496 -0.0514 -0.3023 -0.7393
 4690TIP3    H114034   1.477   4.543   1.441  0.4801 -0.4485 -1.4717
 4690TIP3    H214035   1.480   4.430   1.542 -0.5589  0.1339 -0.7631
 4691TIP3   OH214036   3.321   1.975   5.276 -0.6977 -0.2155 -0.5265
 4691TIP3    H114037   3.316   2.048   5.338 -2.6279 -0.9393  0.2478
 4691TIP3    H214038   3.290   2.012   5.193  0.9898  0.5048 -0.8963
 4692TIP3   OH214039   3.064   1.694   2.384  0.6041  0.3052  0.0079
 4692TIP3    H114040   3.101   1.607   2.371  0.6479  0.3922 -0.4581
 4692TIP3    H214041   2.998   1.703   2.316  0.5335  0.5991  0.1120
 4693TIP3   OH214042   1.425   2.619   0.775 -0.0473 -0.1301  0.1415
 4693TIP3    H114043   1.482   2.681   0.729 -0.5833 -0.5823 -1.1603
 4693TIP3    H214044   1.385   2.567   0.706 -1.0157 -0.7179  1.1201
 4694TIP3   OH214045   0.390   2.055   1.340 -0.3352  0.6139  0.4356
 4694TIP3    H114046   0.325   1.998   1.381  0.3114  0.0057  0.6310
 4694TIP3    H214047   0.342   2.099   1.270 -1.0270  0.3861  0.7563
 4695TIP3   OH214048   5.413   1.440   0.337 -0.5677 -0.1180 -0.1084
 4695TIP3    H114049   5.350   1.474   0.274  0.6117 -0.7046 -1.6712
 4695TIP3    H214050   5.360   1.410   0.411 -1.9217  1.3934 -0.4226
 4696TIP3   OH214051   3.820   5.092   0.337  0.3246  0.6663  0.2120
 4696TIP3    H114052   3.813   5.130   0.424  0.0893 -0.9114  0.9214
 4696TIP3    H214053   3.913   5.068   0.329  0.2382  0.2944  0.2782
 4697TIP3   OH214054   1.135   2.060   4.487 -0.3375 -0.3657  0.0905
 4697TIP3    H114055   1.160   2.140   4.533  1.8465 -1.4385  0.9479
 4697TIP3    H214056   1.048   2.039   4.521  0.3383  0.0087  2.2013
 4698TIP3   OH214057   5.363   4.334   3.896  0.6440  0.5121 -0.1949
 4698TIP3    H114058   5.345   4.269   3.964 -1.2610  0.7687 -0.3798
 4698TIP3    H214059   5.444   4.377   3.924  0.8519 -0.5883  0.9688
 4699TIP3   OH214060   4.087   0.603   5.145 -0.4770  0.2591  0.0085
 4699TIP3    H114061   4.061   0.694   5.131 -0.7081  0.3374  0.8814
 4699TIP3    H214062   4.133   0.578   5.065 -1.6118  0.7131 -0.8186
 4700TIP3   OH214063   1.494   3.005   2.909  0.1310 -0.3537 -0.3575
 4700TIP3    H114064   1.424   3.044   2.857 -0.6992 -0.8463  0.3607
 4700TIP3    H214065   1.462   2.918   2.930 -0.1353  0.2696  2.0494
 4701TIP3   OH214066   2.627   6.161   4.638  0.0101  0.0494  0.3429
 4701TIP3    H114067   2.622   6.191   4.547 -0.5216  0.7285  0.5876
 4701TIP3    H214068   2.554   6.205   4.682 -0.9940 -1.8361  0.6662
 4702TIP3   OH214069   0.074   2.658   2.169  0.3023  0.8431  0.5197
 4702TIP3    H114070   0.022   2.728   2.207 -0.9180 -0.1950  0.8368
 4702TIP3    H214071   0.020   2.625   2.097  1.2326  0.7788 -0.1608
 4703TIP3   OH214072   6.142   3.944   1.321  0.0832 -0.0488 -0.0225
 4703TIP3    H114073   6.227   3.920   1.286 -0.0466  1.9432 -2.0329
 4703TIP3    H214074   6.088   3.961   1.243 -1.3343  1.2747  1.1517
 4704TIP3   OH214075   1.276   0.527   4.411  0.1567 -0.6382 -0.0243
 4704TIP3    H114076   1.273   0.436   4.380  0.5316 -1.0226  1.0501
 4704TIP3    H214077   1.363   0.558   4.385 -0.3817 -0.1897 -1.4179
 4705TIP3   OH214078   4.669   4.500   2.122 -0.4911 -0.2095 -0.1619
 4705TIP3    H114079   4.627   4.414   2.121 -0.9085 -0.0053 -0.7940
 4705TIP3    H214080   4.762   4.481   2.118 -0.5704 -0.6380 -0.0770
 4706TIP3   OH214081   2.612   0.660   5.548 -0.6721 -0.0910 -0.3216
 4706TIP3    H114082   2.665   0.697   5.477 -1.9198  0.2282 -1.1062
 4706TIP3    H214083   2.569   0.736   5.588 -0.3096 -0.3128  0.5154
 4707TIP3   OH214084   1.818   3.271   2.896 -0.7239 -0.5815  0.3504
 4707TIP3    H114085   1.727   3.295   2.910 -0.7407 -0.6559  0.3687
 4707TIP3    H214086   1.856   3.346   2.850 -1.2914 -1.3841 -1.4936
 4708TIP3   OH214087   5.774   2.906   1.286 -0.2138  0.0788  0.5188
 4708TIP3    H114088   5.774   2.847   1.362 -0.5566  0.8484  1.1262
 4708TIP3    H214089   5.866   2.911   1.260 -0.2086 -0.9048  0.3088
 4709TIP3   OH214090   0.326   0.442   1.215  0.1419 -0.4391  0.0247
 4709TIP3    H114091   0.284   0.355   1.211 -1.0648  0.0550  1.0867
 4709TIP3    H214092   0.261   0.497   1.258  1.6423  0.5358  1.1529
 4710TIP3   OH214093   0.307   1.301   4.758  0.2417 -0.2980 -0.2417
 4710TIP3    H114094   0.331   1.376   4.703  3.0200  0.8862  2.3004
 4710TIP3    H214095   0.347   1.226   4.716  1.4090  0.4045 -0.4198
 4711TIP3   OH214096   2.696   3.434   1.542  0.4967 -0.1819  0.1017
 4711TIP3    H114097   2.771   3.426   1.482  0.6648  1.2773  0.0763
 4711TIP3    H214098   2.677   3.528   1.544 -1.7998 -0.5691 -0.4406
 4712TIP3   OH214099   0.087   3.001   1.793 -0.0306 -0.1768  0.1424
 4712TIP3    H114100   0.082   2.908   1.771  0.9966 -1.1873  3.5216
 4712TIP3    H214101   0.179   3.014   1.819 -0.8909  0.7807  3.1352
 4713TIP3   OH214102   1.750   1.679   5.412  0.1243  0.2879 -0.9904
 4713TIP3    H114103   1.674   1.676   5.470  2.1060  0.2701  1.8069
 4713TIP3    H214104   1.761   1.590   5.380 -0.8933  0.2585 -1.2718
 4714TIP3   OH214105   7.023   6.682   0.694 -0.0815 -0.3592 -0.1056
 4714TIP3    H114106   6.936   6.692   0.657 -0.5459  1.0830  1.2639
 4714TIP3    H214107   7.017   6.719   0.782  2.0436  0.2796 -0.1609
 4715TIP3   OH214108   5.143   6.410   4.538 -0.0291 -0.0986 -0.3261
 4715TIP3    H114109   5.143   6.402   4.633 -0.8193 -0.9140 -0.3753
 4715TIP3    H214110   5.138   6.319   4.507  1.6793  0.0630 -1.1789
 4716TIP3   OH214111   0.035   0.731   0.958  0.1407 -0.3204  0.1995
 4716TIP3    H114112   0.007   0.762   1.044 -1.8104 -0.9341 -0.1532
 4716TIP3    H214113   0.011   0.639   0.956  0.2862 -0.3555 -0.9487
 4717TIP3   OH214114   0.520   5.197   5.045 -0.2886 -0.8171  0.3386
 4717TIP3    H114115   0.559   5.179   4.960  1.0497  0.0636  0.7281
 4717TIP3    H214116   0.428   5.215   5.026  0.4720  1.9264 -1.3100
 4718TIP3   OH214117   0.784   0.231   4.201 -0.4731 -0.1466 -0.3200
 4718TIP3    H114118   0.774   0.253   4.293  0.3305  0.0117 -0.2665
 4718TIP3    H214119   0.769   0.313   4.154  2.9732  0.7412 -0.0970
 4719TIP3   OH214120   4.651   5.822   2.075 -0.6296 -0.1024  0.6781
 4719TIP3    H114121   4.579   5.850   2.132 -0.1509 -1.0809  1.7897
 4719TIP3    H214122   4.648   5.727   2.078 -0.3386 -0.1742 -0.6495
 4720TIP3   OH214123   2.948   5.844   3.751 -0.1466 -0.0234  0.4196
 4720TIP3    H114124   2.939   5.932   3.717  0.6710  0.7087  1.9573
 4720TIP3    H214125   2.867   5.799   3.728  0.4858  0.2640 -2.6964
 4721TIP3   OH214126   5.674   3.920   1.722  0.2886 -0.4093  0.2272
 4721TIP3    H114127   5.635   3.839   1.689  0.9978 -0.2119 -1.1928
 4721TIP3    H214128   5.600   3.981   1.726  0.0378 -0.6638 -0.3041
 4722TIP3   OH214129   5.721   3.233   2.313 -0.3260  0.3070  0.7470
 4722TIP3    H114130   5.681   3.157   2.355  1.1974 -0.7428  0.3546
 4722TIP3    H214131   5.733   3.296   2.384  1.3423 -1.0710  1.7584
 4723TIP3   OH214132   6.003   1.571   4.517  0.6243  0.5405  0.4314
 4723TIP3    H114133   5.973   1.598   4.430  1.1722 -0.8967 -0.2468
 4723TIP3    H214134   5.923   1.558   4.567  0.3098  1.8232  0.3099
 4724TIP3   OH214135   4.293   1.763   5.066 -0.2520 -0.7065  0.6694
 4724TIP3    H114136   4.386   1.742   5.073 -0.1878 -0.2353  1.2770
 4724TIP3    H214137   4.288   1.829   4.997 -0.2429 -1.3737  0.0220
 4725TIP3   OH214138   4.436   4.317   4.740 -0.5573  0.1908 -0.4906
 4725TIP3    H114139   4.377   4.257   4.695 -0.5518 -0.1353 -0.0664
 4725TIP3    H214140   4.391   4.401   4.738 -0.5396  0.1876 -1.1333
 4726TIP3   OH214141   5.384   2.285   5.785  0.4150 -0.1714 -0.7508
 4726TIP3    H114142   5.419   2.254   5.868  1.1777  1.7827 -0.2885
 4726TIP3    H214143   5.295   2.313   5.805  0.0085 -1.2684 -0.9874
 4727TIP3   OH214144   1.808   6.330   1.063  0.1000  0.0931  1.2323
 4727TIP3    H114145   1.763   6.284   1.134 -1.2102 -0.9206 -0.2162
 4727TIP3    H214146   1.752   6.319   0.987  2.1733 -0.1026 -0.3547
 4728TIP3   OH214147   7.025   4.475   2.699 -0.5482 -0.0138 -0.1852
 4728TIP3    H114148   7.048   4.451   2.789 -0.9886 -2.6607 -0.7000
 4728TIP3    H214149   7.103   4.452   2.648 -1.3908 -1.5128 -0.8556
 4729TIP3   OH214150   6.353   4.953   2.800 -0.2503 -0.0942 -0.7668
 4729TIP3    H114151   6.417   5.009   2.845 -1.1161  0.0840  0.2829
 4729TIP3    H214152   6.406   4.901   2.739  0.7451  0.8674 -0.7588
 4730TIP3   OH214153   5.071   0.675   3.392  0.3278  0.0562  0.2766
 4730TIP3    H114154   5.109   0.619   3.460 -0.8912 -1.0853  0.0454
 4730TIP3    H214155   4.997   0.625   3.358  0.0836  1.2052 -0.9469
 4731TIP3   OH214156   5.801   4.475   3.289 -0.1119  0.3630 -0.0830
 4731TIP3    H114157   5.810   4.387   3.327 -0.6322  0.5949  0.6207
 4731TIP3    H214158   5.847   4.532   3.350  1.3137  0.4464 -1.1960
 4732TIP3   OH214159   3.983   3.085   5.514 -0.0606  0.4054  0.3917
 4732TIP3    H114160   3.961   3.132   5.594  0.4128  0.8738  0.2555
 4732TIP3    H214161   4.018   3.152   5.455  0.9350 -0.1578  0.3070
 4733TIP3   OH214162   2.156   5.778   2.248 -0.1605  0.7491 -0.2075
 4733TIP3    H114163   2.213   5.808   2.177  0.0629  0.2112 -0.2548
 4733TIP3    H214164   2.067   5.799   2.217 -0.0710  0.4544 -0.6796
 4734TIP3   OH214165   7.007   0.934   3.724  0.3667 -0.0174 -0.0820
 4734TIP3    H114166   6.939   0.876   3.689  1.1548 -0.6254 -0.6476
 4734TIP3    H214167   7.045   0.885   3.797 -0.3186  0.6572  0.7508
 4735TIP3   OH214168   3.684   4.055   2.876  0.4020  0.1035  0.2651
 4735TIP3    H114169   3.737   4.134   2.861 -1.3597  1.5457  1.1741
 4735TIP3    H214170   3.719   4.019   2.958  1.4105 -0.2812 -0.3080
 4736TIP3   OH214171   2.501   6.454   3.632 -0.2075 -0.2273 -0.3738
 4736TIP3    H114172   2.457   6.530   3.593  0.3674  0.3386  0.0613
 4736TIP3    H214173   2.440   6.423   3.699  0.0971  0.6457  0.3308
 4737TIP3   OH214174   6.794   3.817   1.655 -0.6956  0.3711  0.1505
 4737TIP3    H114175   6.742   3.890   1.619 -0.7174  0.4472  0.3367
 4737TIP3    H214176   6.789   3.829   1.750 -0.4194  0.3212  0.1710
 4738TIP3   OH214177   2.474   0.182   0.539 -0.4770  0.0116 -0.4021
 4738TIP3    H114178   2.453   0.172   0.632  0.4858 -0.3495 -0.2057
 4738TIP3    H214179   2.421   0.256   0.510  1.0599  1.8030  1.0798
 4739TIP3   OH214180   0.652   1.356   0.246  0.4799 -0.0667 -0.0215
 4739TIP3    H114181   0.631   1.450   0.253 -1.2077 -0.3490 -0.8481
 4739TIP3    H214182   0.643   1.337   0.153  3.0312 -0.6064 -0.2299
 4740TIP3   OH214183   3.586   1.845   5.635 -0.0549 -0.1049 -0.2671
 4740TIP3    H114184   3.552   1.849   5.725  1.1511  1.4376  0.1585
 4740TIP3    H214185   3.518   1.885   5.581  0.6720  2.2951  0.4757
 4741TIP3   OH214186   0.558   0.508   5.689  0.2891  0.5476  0.3102
 4741TIP3    H114187   0.594   0.455   5.617  2.0935  1.7728  0.2570
 4741TIP3    H214188   0.608   0.481   5.766 -0.9014  0.0123  0.9245
 4742TIP3   OH214189   4.726   3.815   1.046  0.0132 -0.0092  0.3384
 4742TIP3    H114190   4.791   3.764   1.095  1.5081  0.6747 -0.8460
 4742TIP3    H214191   4.666   3.847   1.113  0.6909 -0.9497  1.4435
 4743TIP3   OH214192   3.541   0.681   1.098  0.3068  0.7379  0.1151
 4743TIP3    H114193   3.600   0.756   1.085  0.7935  0.2849 -0.3311
 4743TIP3    H214194   3.599   0.606   1.107 -0.1648  0.4611  0.9949
 4744TIP3   OH214195   3.179   3.175   3.493 -0.0495  0.1617  0.0966
 4744TIP3    H114196   3.255   3.233   3.501 -0.3606  0.7803 -1.2100
 4744TIP3    H214197   3.125   3.195   3.569  0.3872  0.7894  0.2452
 4745TIP3   OH214198   0.167   3.199   1.558 -0.1837 -0.5812 -0.2819
 4745TIP3    H114199   0.220   3.130   1.598  1.5118  1.1767  0.7092
 4745TIP3    H214200   0.085   3.197   1.607  1.5688  1.0380  3.0267
 4746TIP3   OH214201   2.881   5.830   5.722  0.7993  0.3542 -0.3567
 4746TIP3    H114202   2.822   5.849   5.795  0.0217  0.9669 -1.1224
 4746TIP3    H214203   2.824   5.801   5.651  1.5535 -0.3563 -0.6905
 4747TIP3   OH214204   0.235   4.759   5.628  0.0237  0.0905 -0.5307
 4747TIP3    H114205   0.187   4.796   5.554  0.2752  1.6462  0.0412
 4747TIP3    H214206   0.321   4.738   5.593 -0.0085  0.3825 -0.7868
 4748TIP3   OH214207   2.500   0.919   2.657 -0.1130 -0.0451  0.1658
 4748TIP3    H114208   2.514   0.988   2.722 -1.7544  0.9557 -0.4811
 4748TIP3    H214209   2.565   0.936   2.589  0.4546 -0.0302  0.7101
 4749TIP3   OH214210   6.810   1.662   2.663  0.0532  0.2406 -0.3555
 4749TIP3    H114211   6.893   1.664   2.615  0.1939  0.2324 -0.1145
 4749TIP3    H214212   6.744   1.644   2.596  0.1222  1.2415 -0.7073
 4750TIP3   OH214213   6.480   3.657   1.794 -0.5894  0.0343 -0.2166
 4750TIP3    H114214   6.418   3.720   1.757  0.0270  0.6509 -0.2110
 4750TIP3    H214215   6.547   3.710   1.837  0.8891 -0.5410 -1.6997
 4751TIP3   OH214216   5.548   0.877   3.759  0.0097  0.1985 -0.1066
 4751TIP3    H114217   5.487   0.803   3.754  0.6440 -0.4567  1.3277
 4751TIP3    H214218   5.571   0.895   3.668 -1.8816  0.1158 -0.6603
 4752TIP3   OH214219   1.417   2.743   5.011 -0.3794 -0.0056 -0.5494
 4752TIP3    H114220   1.377   2.658   4.991 -0.9590  0.1166  0.0422
 4752TIP3    H214221   1.466   2.766   4.932 -1.3603 -0.2358 -1.2502
 4753TIP3   OH214222   5.297   1.898   1.785  0.3452  0.0863 -0.5672
 4753TIP3    H114223   5.213   1.857   1.805 -0.0224  1.4611  0.9850
 4753TIP3    H214224   5.316   1.952   1.862  2.6278 -0.1213 -0.9122
 4754TIP3   OH214225   3.291   2.584   5.159  0.1903  0.2726  0.3406
 4754TIP3    H114226   3.342   2.552   5.233 -1.2771 -0.7462  0.9500
 4754TIP3    H214227   3.243   2.508   5.127 -0.7856  1.1371 -0.3437
 4755TIP3   OH214228   6.258   3.859   5.843 -0.9352 -0.3912 -0.2289
 4755TIP3    H114229   6.164   3.878   5.845 -1.1432 -1.4186  1.9843
 4755TIP3    H214230   6.284   3.854   5.935  1.5113  0.7568 -0.7639
 4756TIP3   OH214231   1.854   1.224   0.410  0.0545 -0.1864 -0.4244
 4756TIP3    H114232   1.831   1.282   0.482  1.0582 -0.0213 -0.2205
 4756TIP3    H214233   1.890   1.146   0.452  3.0658  0.9211 -0.7037
 4757TIP3   OH214234   1.453   1.587   4.764 -0.3073 -0.8269  0.2752
 4757TIP3    H114235   1.396   1.510   4.757  1.1761 -1.9912  0.3905
 4757TIP3    H214236   1.414   1.651   4.705 -1.4427 -1.7436 -0.0266
 4758TIP3   OH214237   1.620   1.023   3.977  0.3483  0.0408  0.1297
 4758TIP3    H114238   1.533   1.034   3.940 -0.0830  1.3645  1.4463
 4758TIP3    H214239   1.633   1.101   4.032  1.5396 -1.0858  1.5327
 4759TIP3   OH214240   2.022   3.217   5.734 -0.3992  0.0619  0.1311
 4759TIP3    H114241   1.982   3.303   5.723 -0.3406  0.1861  0.8087
 4759TIP3    H214242   1.958   3.156   5.698 -0.3427  0.4054 -0.5601
 4760TIP3   OH214243   1.675   3.330   1.783 -0.0301  0.2286 -0.1436
 4760TIP3    H114244   1.651   3.297   1.697  2.0882 -0.4374 -0.5374
 4760TIP3    H214245   1.756   3.379   1.769 -0.1441  0.9140  1.3242
 4761TIP3   OH214246   3.540   5.545   4.307 -0.6997  0.4909 -0.5809
 4761TIP3    H114247   3.522   5.492   4.229 -0.4639 -0.1521 -0.2047
 4761TIP3    H214248   3.591   5.488   4.364 -2.6050  0.2224  0.9432
 4762TIP3   OH214249   5.587   1.134   0.821  0.3054 -0.0449 -0.0302
 4762TIP3    H114250   5.533   1.152   0.744  0.1458 -0.2592  0.0317
 4762TIP3    H214251   5.583   1.214   0.873  1.7022  0.7078 -1.0020
 4763TIP3   OH214252   0.238   6.068   2.170  0.0084 -0.1694  0.2260
 4763TIP3    H114253   0.220   6.052   2.262 -0.7547  0.3701  0.1746
 4763TIP3    H214254   0.228   6.163   2.159  3.2230  0.2870  0.2577
 4764TIP3   OH214255   4.866   5.893   5.690  0.3208 -0.0563  0.0591
 4764TIP3    H114256   4.933   5.854   5.746  1.0586 -0.0347 -0.7974
 4764TIP3    H214257   4.914   5.933   5.618 -0.6020  0.1036 -0.4885
 4765TIP3   OH214258   5.566   6.621   4.091 -0.4943  0.8156 -0.1466
 4765TIP3    H114259   5.579   6.578   4.175  0.6054  1.2235 -0.0905
 4765TIP3    H214260   5.655   6.640   4.060 -0.9147  1.5673 -0.9275
 4766TIP3   OH214261   2.679   5.452   2.321  0.2803  0.5457 -0.0706
 4766TIP3    H114262   2.618   5.389   2.358 -1.6372  1.3670 -1.6759
 4766TIP3    H214263   2.765   5.423   2.352 -0.7713 -1.3335  1.2997
 4767TIP3   OH214264   3.878   0.578   2.322 -0.0589  0.1022  0.1370
 4767TIP3    H114265   3.884   0.488   2.290 -1.2638 -0.8663  2.4132
 4767TIP3    H214266   3.855   0.629   2.244 -0.8661 -1.7967 -0.9516
 4768TIP3   OH214267   0.411   2.073   0.927  0.3606  0.3054 -0.2360
 4768TIP3    H114268   0.386   2.045   0.839 -0.2732 -0.5991  0.2048
 4768TIP3    H214269   0.355   2.148   0.945 -2.3406 -1.7685  0.7829
 4769TIP3   OH214270   7.064   5.536   4.536 -0.5147 -0.4764  0.6608
 4769TIP3    H114271   7.014   5.611   4.504  0.5414 -0.0581 -0.0833
 4769TIP3    H214272   7.155   5.561   4.521 -0.0752 -1.1626  2.0969
 4770TIP3   OH214273   1.822   0.861   0.256 -0.2744  0.1040 -0.0864
 4770TIP3    H114274   1.744   0.916   0.245  0.4989  1.6050  1.3486
 4770TIP3    H214275   1.819   0.833   0.348  1.1342  0.6687  0.1601
 4771TIP3   OH214276   3.835   0.388   4.582 -0.1962 -0.2658 -0.4419
 4771TIP3    H114277   3.819   0.298   4.611 -1.8135  1.1548  3.9835
 4771TIP3    H214278   3.762   0.407   4.523 -1.0924 -1.2861  0.2801
 4772TIP3   OH214279   6.329   3.364   4.424 -0.3307 -0.2151  0.5463
 4772TIP3    H114280   6.325   3.318   4.507 -0.2224 -1.2519 -0.0121
 4772TIP3    H214281   6.278   3.444   4.438  0.6281  0.1934  1.9509
 4773TIP3   OH214282   5.128   2.296   1.879 -0.3731 -0.4880 -0.4909
 4773TIP3    H114283   5.055   2.345   1.841  1.0065  0.5654 -1.9120
 4773TIP3    H214284   5.203   2.353   1.867  0.6784 -1.4509  1.1420
 4774TIP3   OH214285   2.287   2.235   3.192 -0.2944  0.3080 -0.4145
 4774TIP3    H114286   2.315   2.227   3.283 -0.4392  2.0945 -0.1737
 4774TIP3    H214287   2.341   2.172   3.145  1.3433  0.8963  0.6002
 4775TIP3   OH214288   2.605   6.573   1.868 -0.2124 -0.1083 -0.1188
 4775TIP3    H114289   2.586   6.663   1.840  1.1969  0.2060 -0.1201
 4775TIP3    H214290   2.671   6.542   1.806 -0.0784 -0.8458  0.3860
 4776TIP3   OH214291   0.243   0.588   0.718 -0.0238 -0.8113  0.2706
 4776TIP3    H114292   0.305   0.583   0.645 -0.8462 -0.1926 -0.4877
 4776TIP3    H214293   0.243   0.680   0.744 -3.4141  0.1168 -2.3018
 4777TIP3   OH214294   3.332   6.103   4.881 -0.1240 -0.5174 -0.1830
 4777TIP3    H114295   3.247   6.060   4.892 -2.5371  3.4483 -0.9843
 4777TIP3    H214296   3.333   6.130   4.789  1.9323 -0.2598 -0.1223
 4778TIP3   OH214297   1.641   6.425   0.480 -0.5154  0.4954  0.3305
 4778TIP3    H114298   1.642   6.467   0.393 -1.3065  0.2409  0.1933
 4778TIP3    H214299   1.648   6.332   0.461 -0.1142  0.4779  0.5706
 4779TIP3   OH214300   0.810   3.726   1.370 -0.3046  0.1574 -0.0014
 4779TIP3    H114301   0.845   3.785   1.436 -2.0369  1.2504  0.0081
 4779TIP3    H214302   0.795   3.644   1.416  0.7374  0.1562  0.3576
 4780TIP3   OH214303   2.396   1.640   4.722 -0.4412 -0.0232 -0.7805
 4780TIP3    H114304   2.369   1.571   4.662  0.3343 -1.3755  0.3784
 4780TIP3    H214305   2.488   1.622   4.740 -0.3347  1.0847 -0.1516
 4781TIP3   OH214306   2.771   1.912   4.781  0.2203 -0.2651  0.4125
 4781TIP3    H114307   2.758   1.994   4.829 -0.0656  0.1443 -0.3415
 4781TIP3    H214308   2.743   1.843   4.841 -0.0760  0.2312  0.8448
 4782TIP3   OH214309   1.647   3.250   5.545  0.0297  0.1045  0.0583
 4782TIP3    H114310   1.646   3.206   5.630 -0.8344 -0.4638 -0.2380
 4782TIP3    H214311   1.668   3.341   5.566  0.3861 -0.1410  0.8237
 4783TIP3   OH214312   5.801   2.854   0.266  0.2755 -0.4333 -0.2386
 4783TIP3    H114313   5.722   2.813   0.302 -0.7815  0.1212 -1.8216
 4783TIP3    H214314   5.841   2.786   0.211 -0.0029 -0.2143 -0.7209
 4784TIP3   OH214315   1.802   5.504   5.667 -0.3362  0.0289 -0.6846
 4784TIP3    H114316   1.812   5.473   5.577  1.2552 -1.3492 -0.0896
 4784TIP3    H214317   1.799   5.599   5.660  0.8556 -0.0093 -2.1358
 4785TIP3   OH214318   2.457   2.590   4.702  0.4221  0.8363 -0.0722
 4785TIP3    H114319   2.524   2.642   4.746  1.1818 -1.1376  1.2768
 4785TIP3    H214320   2.422   2.647   4.634  2.1405  2.5875  0.4316
 4786TIP3   OH214321   1.018   3.826   1.556 -0.3186 -0.1683  0.0069
 4786TIP3    H114322   1.023   3.907   1.506  0.3124 -0.0675  0.2219
 4786TIP3    H214323   1.095   3.828   1.613 -1.1662 -0.1520  1.1859
 4787TIP3   OH214324   3.198   4.256   2.697 -0.3752 -0.1343  1.2541
 4787TIP3    H114325   3.228   4.269   2.787 -0.5356 -1.2667  1.4918
 4787TIP3    H214326   3.201   4.161   2.685 -0.1515  0.0252 -0.0140
 4788TIP3   OH214327   5.039   5.647   2.098 -0.2531  0.2020  0.3030
 4788TIP3    H114328   4.963   5.621   2.152 -1.0796  3.3672  0.8701
 4788TIP3    H214329   5.106   5.583   2.120 -1.8507 -1.0090  2.0334
 4789TIP3   OH214330   1.232   3.643   3.839  0.1674 -0.1051 -0.0597
 4789TIP3    H114331   1.272   3.613   3.758 -2.1841 -2.1782 -0.5810
 4789TIP3    H214332   1.240   3.569   3.899 -0.0257  0.6185  0.8944
 4790TIP3   OH214333   7.009   4.229   3.527  0.3552  0.8060  0.3092
 4790TIP3    H114334   6.925   4.207   3.569  1.5151  0.2633  2.5103
 4790TIP3    H214335   7.020   4.162   3.459 -0.3342 -0.0159  0.9850
 4791TIP3   OH214336   1.115   5.212   5.385  0.3477  0.1037 -0.1441
 4791TIP3    H114337   1.082   5.126   5.411  2.1408 -0.4904  0.2790
 4791TIP3    H214338   1.133   5.257   5.467  0.6790  0.3928 -0.3718
 4792TIP3   OH214339   3.352   4.750   1.153  0.0707  0.0884  0.4706
 4792TIP3    H114340   3.322   4.776   1.241  0.5332  1.1559  0.3178
 4792TIP3    H214341   3.272   4.748   1.100 -0.2110 -0.5551  0.8938
 4793TIP3   OH214342   5.796   5.968   1.030 -0.6078 -0.0009 -0.3285
 4793TIP3    H114343   5.762   6.050   1.066 -1.7776  0.0353 -1.4512
 4793TIP3    H214344   5.738   5.900   1.065  0.2240 -0.3573  0.4226
 4794TIP3   OH214345   2.884   0.348   0.036 -0.4698 -0.3239 -0.3407
 4794TIP3    H114346   2.917   0.330  -0.052  0.0520  1.4092 -0.5282
 4794TIP3    H214347   2.789   0.357   0.024 -0.3318  0.5656 -0.8641
 4795TIP3   OH214348   2.277   0.905   2.952  0.3186 -0.2400 -0.0522
 4795TIP3    H114349   2.304   0.983   3.001  3.7626 -0.8858 -0.6568
 4795TIP3    H214350   2.254   0.841   3.019  0.1691  0.4294  0.5462
 4796TIP3   OH214351   4.841   3.585   1.937  0.0710 -0.5227 -0.3962
 4796TIP3    H114352   4.894   3.507   1.951 -1.5488 -1.6301 -0.1046
 4796TIP3    H214353   4.764   3.554   1.889 -0.9481  0.7477  0.3325
 4797TIP3   OH214354   3.662   2.554   5.155 -0.1348 -0.2978 -0.3751
 4797TIP3    H114355   3.739   2.547   5.211 -0.4189 -1.9016 -0.1532
 4797TIP3    H214356   3.645   2.648   5.149  2.0396  0.1162 -0.7260
 4798TIP3   OH214357   3.100   1.311   3.954 -0.2298 -0.5380  0.1035
 4798TIP3    H114358   3.157   1.238   3.929 -0.5485 -1.2946  1.5080
 4798TIP3    H214359   3.013   1.285   3.923  0.0091  0.2444 -1.3042
 4799TIP3   OH214360   6.352   2.816   0.443 -0.1348 -0.5194 -0.2294
 4799TIP3    H114361   6.397   2.857   0.517 -0.0474 -0.8567 -0.0951
 4799TIP3    H214362   6.323   2.889   0.389 -0.4892 -0.2610  0.3077
 4800TIP3   OH214363   4.447   4.913   4.915 -0.2291 -0.1158  0.1258
 4800TIP3    H114364   4.509   4.840   4.907  0.6756  0.7830 -1.4175
 4800TIP3    H214365   4.501   4.991   4.916 -1.2830  0.6519 -0.4806
 4801TIP3   OH214366   3.857   0.525   3.470  0.2952  0.2277 -0.4402
 4801TIP3    H114367   3.788   0.525   3.538 -0.0052  0.0352 -0.7421
 4801TIP3    H214368   3.870   0.433   3.450 -0.6466  0.3425 -1.6798
 4802TIP3   OH214369   3.953   0.271   3.343 -0.0914 -0.4164  0.5298
 4802TIP3    H114370   3.901   0.248   3.265  0.8017 -1.1285  0.1285
 4802TIP3    H214371   3.916   0.217   3.413 -1.6868  1.0925  0.9173
 4803TIP3   OH214372   3.106   5.628   0.390  0.3623  0.3672 -0.0631
 4803TIP3    H114373   3.165   5.558   0.418  1.1232  0.8398 -0.4241
 4803TIP3    H214374   3.159   5.681   0.329  0.6345  2.6716  2.0184
 4804TIP3   OH214375   6.166   2.072   3.376 -0.9375  1.1193 -0.8700
 4804TIP3    H114376   6.158   2.032   3.462  2.3810 -0.0102 -0.9372
 4804TIP3    H214377   6.139   2.003   3.315 -0.9671  1.0790 -0.8116
 4805TIP3   OH214378   3.962   6.406   4.845  0.6696  0.5223  0.2212
 4805TIP3    H114379   3.945   6.485   4.897 -0.1956  0.8805 -0.5940
 4805TIP3    H214380   3.876   6.365   4.835  0.8924  0.2402 -0.5807
 4806TIP3   OH214381   1.546   4.052   4.484  0.1779  0.7213 -0.2222
 4806TIP3    H114382   1.530   4.035   4.391 -3.7120  0.8207  0.2694
 4806TIP3    H214383   1.542   3.965   4.525 -1.2867  0.9508  0.1674
 4807TIP3   OH214384   4.537   2.934   5.541  0.0405 -0.0449 -0.0981
 4807TIP3    H114385   4.554   3.015   5.590  1.5628 -0.3205 -0.1289
 4807TIP3    H214386   4.536   2.865   5.607 -0.1834 -0.1492 -0.2063
 4808TIP3   OH214387   4.900   3.087   0.126  0.8732 -0.1119  0.3447
 4808TIP3    H114388   4.955   3.163   0.110  1.0529 -0.5245 -1.1499
 4808TIP3    H214389   4.910   3.069   0.220 -0.5059  2.7060  1.1433
 4809TIP3   OH214390   6.177   3.047   5.796 -0.1038 -0.3183  0.3826
 4809TIP3    H114391   6.116   2.973   5.786 -0.2632 -0.2473  0.8039
 4809TIP3    H214392   6.168   3.073   5.888 -0.7845  0.8608 -0.0009
 4810TIP3   OH214393   3.742   0.796   3.591 -0.1619 -0.1867 -0.0545
 4810TIP3    H114394   3.755   0.848   3.670 -0.3460  0.5801 -0.5181
 4810TIP3    H214395   3.756   0.705   3.619  0.1091  0.1048  0.7768
 4811TIP3   OH214396   5.056   4.106   2.505 -0.1577 -0.1192 -0.2878
 4811TIP3    H114397   5.148   4.128   2.519  0.1114 -1.0603 -0.5020
 4811TIP3    H214398   5.058   4.023   2.458 -1.1196  0.0507 -0.6531
 4812TIP3   OH214399   5.349   1.268   2.699  0.3536 -0.3513  0.9736
 4812TIP3    H114400   5.277   1.255   2.637  0.8725  0.3054  0.2103
 4812TIP3    H214401   5.324   1.218   2.776  0.1456 -2.0120 -0.1174
 4813TIP3   OH214402   5.384   5.248   4.652  0.0238  0.7533  0.1218
 4813TIP3    H114403   5.398   5.217   4.562  0.7485  1.8268 -0.1519
 4813TIP3    H214404   5.301   5.208   4.678 -0.9338  1.5506 -1.5415
 4814TIP3   OH214405   4.791   0.321   1.644 -0.2067 -0.2296  0.1123
 4814TIP3    H114406   4.723   0.258   1.670 -1.6027  0.7846 -0.8845
 4814TIP3    H214407   4.745   0.404   1.639  1.0264  0.4157 -1.0151
 4815TIP3   OH214408   0.604   4.049   4.823  0.6201 -0.1656 -0.1606
 4815TIP3    H114409   0.622   4.037   4.729  1.1047  3.0566 -0.5721
 4815TIP3    H214410   0.672   4.108   4.854 -0.9381  0.8117  1.6348
 4816TIP3   OH214411   5.616   2.587   1.419  0.1074 -0.3144 -0.5051
 4816TIP3    H114412   5.599   2.541   1.501 -0.2217 -1.2638 -1.0948
 4816TIP3    H214413   5.658   2.669   1.446 -0.0412 -0.5908  0.6083
 4817TIP3   OH214414   1.964   1.990   2.613 -0.1831 -0.3167  0.1311
 4817TIP3    H114415   1.921   1.906   2.629  1.1161 -0.8138  1.1596
 4817TIP3    H214416   1.998   2.017   2.698 -0.5922  1.2793 -0.1750
 4818TIP3   OH214417   0.476   4.866   3.648 -0.5411 -0.0491  0.6129
 4818TIP3    H114418   0.546   4.812   3.612 -0.5100 -0.4797  1.2862
 4818TIP3    H214419   0.408   4.867   3.580  0.4410  1.0669 -0.3932
 4819TIP3   OH214420   1.338   4.102   2.657 -0.1210  0.1487 -0.2728
 4819TIP3    H114421   1.414   4.067   2.611  1.6621 -0.0697  2.5975
 4819TIP3    H214422   1.367   4.186   2.691 -2.2613  1.5549 -1.6864
 4820TIP3   OH214423   1.180   4.477   2.397 -0.6347  0.7256 -0.2474
 4820TIP3    H114424   1.175   4.394   2.349 -0.3613  0.2950  0.4600
 4820TIP3    H214425   1.273   4.488   2.417 -0.7815  0.7210  0.4807
 4821TIP3   OH214426   5.374   0.789   2.010 -0.8803  0.1102  0.0049
 4821TIP3    H114427   5.401   0.807   2.100 -2.0464  0.0033  0.3867
 4821TIP3    H214428   5.413   0.860   1.959 -0.9588  0.6827  0.7239
 4822TIP3   OH214429   0.013   5.498   3.686 -0.0520 -1.0870  0.0929
 4822TIP3    H114430   0.067   5.538   3.618 -1.4061 -0.3979 -0.6264
 4822TIP3    H214431   0.005   5.566   3.754  0.2200 -1.2964  0.3384
 4823TIP3   OH214432   4.632   3.009   1.602  0.1899 -0.0365  0.3842
 4823TIP3    H114433   4.603   3.100   1.597  0.0479 -0.1402 -3.0629
 4823TIP3    H214434   4.727   3.013   1.590 -0.0655 -0.3698 -2.2929
 4824TIP3   OH214435   6.354   6.589   5.356 -0.2417 -0.1412  0.3448
 4824TIP3    H114436   6.264   6.558   5.362 -0.9046  1.6237  0.1013
 4824TIP3    H214437   6.396   6.554   5.435 -1.2537 -0.6519  0.6814
 4825TIP3   OH214438   4.949   6.101   3.686 -0.2492 -0.0808 -0.2654
 4825TIP3    H114439   5.010   6.111   3.613  1.7369 -0.8477  1.2017
 4825TIP3    H214440   4.877   6.049   3.650  1.4860 -1.9143 -1.3102
 4826TIP3   OH214441   6.411   1.482   3.070  0.0951  0.1028  0.0810
 4826TIP3    H114442   6.479   1.549   3.066  0.5481 -0.2792  0.9123
 4826TIP3    H214443   6.386   1.479   3.163  1.5218 -2.2371  0.4783
 4827TIP3   OH214444   1.106   1.104   1.851 -0.1726 -0.4138 -0.5111
 4827TIP3    H114445   1.036   1.165   1.829  0.5654  0.3337 -0.8672
 4827TIP3    H214446   1.186   1.156   1.842  0.4748 -1.4331 -0.7855
 4828TIP3   OH214447   4.076   0.020   0.600 -0.1946  0.1793 -0.3260
 4828TIP3    H114448   4.062   0.056   0.512 -0.9703 -0.2522 -0.3918
 4828TIP3    H214449   4.162   0.052   0.626  0.3287 -0.2198 -1.5099
 4829TIP3   OH214450   2.291   4.609   2.028  0.6031  0.8679 -0.0890
 4829TIP3    H114451   2.328   4.617   2.116 -0.9366  0.3489  0.6514
 4829TIP3    H214452   2.197   4.598   2.043  0.5100 -1.0016 -1.7261
 4830TIP3   OH214453   0.320   6.224   5.522  0.4608  0.4244  0.6112
 4830TIP3    H114454   0.379   6.158   5.560 -0.4957 -0.8610 -0.0487
 4830TIP3    H214455   0.246   6.173   5.488 -0.6770  1.9209  0.7468
 4831TIP3   OH214456   3.995   2.217   3.653  0.7101 -0.4394  0.2005
 4831TIP3    H114457   4.004   2.169   3.736 -1.4762  0.0103  0.7451
 4831TIP3    H214458   3.928   2.169   3.605  0.5788  0.4163 -0.4809
 4832TIP3   OH214459   1.244   2.654   4.778 -0.1861 -0.4529 -0.6201
 4832TIP3    H114460   1.177   2.585   4.773 -0.8620  0.1736 -0.3979
 4832TIP3    H214461   1.195   2.733   4.802  0.6192  0.0475 -0.5961
 4833TIP3   OH214462   2.497   3.370   0.483 -0.5893  0.1121  0.3145
 4833TIP3    H114463   2.542   3.393   0.564 -2.0080  2.5157  0.5071
 4833TIP3    H214464   2.562   3.321   0.432  1.2504  0.9630  1.7433
 4834TIP3   OH214465   2.340   5.813   2.611 -0.5051 -0.2096  0.1050
 4834TIP3    H114466   2.354   5.905   2.586  0.4027  0.1781  1.8601
 4834TIP3    H214467   2.279   5.779   2.545 -1.3920  1.8322 -0.2114
 4835TIP3   OH214468   1.158   2.777   4.486 -0.2490  0.4314 -0.6394
 4835TIP3    H114469   1.170   2.682   4.483 -0.7933  0.3641 -0.8909
 4835TIP3    H214470   1.115   2.798   4.403 -3.4721  0.3770  0.8223
 4836TIP3   OH214471   2.991   5.391   3.482  0.2251  0.3697 -0.0499
 4836TIP3    H114472   2.985   5.304   3.523  1.7483 -0.3940 -1.3841
 4836TIP3    H214473   2.991   5.451   3.556 -1.3118 -0.6992  0.8970
 4837TIP3   OH214474   3.336   1.632   2.693 -0.7913 -0.0719  0.3870
 4837TIP3    H114475   3.294   1.671   2.769 -2.2376  1.5215 -1.1462
 4837TIP3    H214476   3.281   1.556   2.671 -1.6108  0.6935 -0.2743
 4838TIP3   OH214477   4.082   4.734   2.437 -0.1064 -0.4235  0.1489
 4838TIP3    H114478   4.140   4.808   2.457 -0.7891  0.1412  0.0616
 4838TIP3    H214479   4.141   4.659   2.429  0.5396  0.0122  0.7644
 4839TIP3   OH214480   4.067   3.821   1.642 -0.7278 -0.0625 -0.4032
 4839TIP3    H114481   4.095   3.822   1.733  0.2100  0.3793 -0.6913
 4839TIP3    H214482   4.040   3.731   1.626  0.7950 -0.5814 -0.1906
 4840TIP3   OH214483   4.044   3.985   4.413  0.2508  0.3113  0.6283
 4840TIP3    H114484   4.050   3.893   4.388 -0.6660 -0.1570  1.9733
 4840TIP3    H214485   4.007   4.029   4.337  1.9099 -0.1693 -0.5143
 4841TIP3   OH214486   7.183   0.235   3.752  0.1525 -0.0236  0.3346
 4841TIP3    H114487   7.130   0.315   3.750 -0.5149 -0.3545  2.4699
 4841TIP3    H214488   7.146   0.183   3.823  1.0565 -1.9260 -0.4964
 4842TIP3   OH214489   1.878   4.794   2.604  0.1764 -0.6420  0.1512
 4842TIP3    H114490   1.808   4.745   2.648 -0.8778  0.1121 -0.6323
 4842TIP3    H214491   1.834   4.869   2.565  1.3842 -0.3242 -0.6546
 4843TIP3   OH214492   3.534   6.270   1.349 -0.3953  0.0801 -0.5121
 4843TIP3    H114493   3.470   6.341   1.350  0.4644  0.9839 -2.6370
 4843TIP3    H214494   3.604   6.302   1.292  1.1008 -1.5873  0.2987
 4844TIP3   OH214495   1.273   3.616   3.245  0.2789 -0.0970  0.6449
 4844TIP3    H114496   1.238   3.623   3.156 -0.4678 -0.1619  0.9270
 4844TIP3    H214497   1.225   3.681   3.295  1.1134  0.3532  0.8851
 4845TIP3   OH214498   3.151   2.353   3.813 -0.4009  0.3577 -0.4037
 4845TIP3    H114499   3.225   2.317   3.863  0.8734  0.3566 -2.2005
 4845TIP3    H214500   3.103   2.406   3.877 -0.0289 -1.2567  1.3102
 4846TIP3   OH214501   1.207   6.381   0.473 -0.4875 -0.0726 -0.2480
 4846TIP3    H114502   1.170   6.383   0.561  1.9759 -3.5179  1.0964
 4846TIP3    H214503   1.132   6.366   0.416 -1.9126 -0.0008  1.5121
 4847TIP3   OH214504   5.123   3.834   4.708 -0.2994 -0.0973  0.1705
 4847TIP3    H114505   5.030   3.849   4.690 -0.1184 -0.4326 -1.1660
 4847TIP3    H214506   5.132   3.738   4.707  0.1103 -0.0589  0.0114
 4848TIP3   OH214507   5.645   0.693   1.579 -0.1641  0.4751 -0.0259
 4848TIP3    H114508   5.641   0.750   1.656 -0.3850  2.7089 -1.6055
 4848TIP3    H214509   5.558   0.654   1.573 -1.2154  2.7650 -0.8580
 4849TIP3   OH214510   3.329   5.711   1.760  0.6542 -0.9524 -0.1616
 4849TIP3    H114511   3.404   5.652   1.768  1.6261  0.4296  1.4820
 4849TIP3    H214512   3.299   5.724   1.850 -0.1141  0.3226 -0.5839
 4850TIP3   OH214513   6.328   1.847   1.161  0.1069 -0.0856 -0.4366
 4850TIP3    H114514   6.234   1.852   1.178 -0.3783 -0.6448 -2.6406
 4850TIP3    H214515   6.346   1.753   1.152  0.8470  0.0276 -0.1974
 4851TIP3   OH214516   6.386   5.650   1.487  0.2073  0.0795  0.4851
 4851TIP3    H114517   6.350   5.731   1.450 -0.3865  0.4505  1.8410
 4851TIP3    H214518   6.386   5.664   1.581  1.0145 -1.1366  0.6876
 4852TIP3   OH214519   4.110   2.920   3.620 -0.1303  0.0912 -0.0261
 4852TIP3    H114520   4.197   2.880   3.630 -0.3022 -2.0244 -4.6652
 4852TIP3    H214521   4.125   2.997   3.565 -1.1018  0.6301  0.4309
 4853TIP3   OH214522   3.683   2.884   4.653  0.5165 -0.1535  0.0607
 4853TIP3    H114523   3.638   2.852   4.575 -0.4797 -1.4053  1.0915
 4853TIP3    H214524   3.744   2.950   4.621 -0.2617 -0.2381 -1.6965
 4854TIP3   OH214525   0.705   6.732   4.134 -0.1739 -0.6246 -0.5027
 4854TIP3    H114526   0.719   6.701   4.224 -3.0918  0.0915  0.3053
 4854TIP3    H214527   0.637   6.675   4.099 -3.6180  2.7475  0.0483
 4855TIP3   OH214528   0.713   6.620   3.292 -0.1521  0.0214  0.1094
 4855TIP3    H114529   0.643   6.569   3.250 -0.4360 -0.0035  0.5989
 4855TIP3    H214530   0.671   6.701   3.318 -0.8412 -1.1598  3.1030
 4856TIP3   OH214531   1.264   5.224   0.277  0.6699  0.0740 -0.1549
 4856TIP3    H114532   1.219   5.146   0.245  0.8917  0.3453 -1.1549
 4856TIP3    H214533   1.341   5.232   0.221  0.2745  1.4066 -0.5413
 4857TIP3   OH214534   7.008   6.663   4.436 -0.4157 -0.3117  0.7139
 4857TIP3    H114535   7.021   6.661   4.342  1.6937 -1.2449  0.9650
 4857TIP3    H214536   7.002   6.757   4.457 -0.8920 -0.0973 -0.3403
 4858TIP3   OH214537   0.668   1.102   4.971 -0.1041 -0.9833  0.6472
 4858TIP3    H114538   0.708   1.153   5.041 -0.2018 -1.2466  0.8975
 4858TIP3    H214539   0.576   1.095   4.996 -1.0531  2.2399 -1.4360
 4859TIP3   OH214540   0.858   5.164   5.091  0.2091 -0.5100  0.8506
 4859TIP3    H114541   0.815   5.080   5.075 -0.3789  0.0358 -0.6257
 4859TIP3    H214542   0.837   5.185   5.182 -2.1855 -0.5763  0.3970
 4860TIP3   OH214543   5.546   4.200   2.016 -0.2108 -0.0278 -0.4621
 4860TIP3    H114544   5.516   4.289   1.995 -3.1785 -0.7572  0.2097
 4860TIP3    H214545   5.537   4.152   1.934  2.6798  0.4973 -1.1858
 4861TIP3   OH214546   6.158   1.272   5.778 -0.0772 -1.0856 -0.4893
 4861TIP3    H114547   6.136   1.339   5.714 -1.1596 -1.1874 -0.2469
 4861TIP3    H214548   6.188   1.320   5.854  0.9932 -0.9567 -0.9765
 4862TIP3   OH214549   7.186   4.859   3.354 -0.5445 -0.9180 -0.2637
 4862TIP3    H114550   7.142   4.915   3.419  0.4197 -0.3185 -0.0958
 4862TIP3    H214551   7.224   4.788   3.406  2.5782  0.9848  0.3430
 4863TIP3   OH214552   2.794   6.602   0.455  1.2308  0.4418  0.2686
 4863TIP3    H114553   2.720   6.583   0.397  0.9363  1.4734  0.2873
 4863TIP3    H214554   2.864   6.546   0.422  0.4981 -0.4527  0.1566
 4864TIP3   OH214555   5.155   2.661   3.728 -0.2159  0.1604  0.6311
 4864TIP3    H114556   5.153   2.691   3.637  0.9341  0.4318  0.6755
 4864TIP3    H214557   5.218   2.588   3.727 -0.3575  0.0310  1.1641
 4865TIP3   OH214558   0.234   4.823   4.231 -0.1907  0.5391 -0.4675
 4865TIP3    H114559   0.231   4.902   4.178  1.6396  1.3657  0.5398
 4865TIP3    H214560   0.224   4.751   4.168  0.4602  1.5131 -1.7365
 4866TIP3   OH214561   0.176   6.073   2.440 -0.1877  0.3562  0.0021
 4866TIP3    H114562   0.081   6.070   2.431 -0.0098 -0.3944 -1.9136
 4866TIP3    H214563   0.201   6.157   2.402 -0.1401  1.1425  1.6471
 4867TIP3   OH214564   6.128   0.124   1.516 -0.3057 -0.4799  0.1811
 4867TIP3    H114565   6.215   0.138   1.553  0.1285 -1.1058 -0.5909
 4867TIP3    H214566   6.069   0.166   1.578  0.4431 -1.0968  1.3298
 4868TIP3   OH214567   4.400   2.572   0.172  0.2856 -0.0812 -0.1383
 4868TIP3    H114568   4.416   2.480   0.194  0.0314  0.0325  0.5558
 4868TIP3    H214569   4.397   2.574   0.077  2.1025 -0.4944 -0.2444
 4869TIP3   OH214570   1.263   4.763   4.394  0.0912  0.1084 -0.2169
 4869TIP3    H114571   1.187   4.714   4.361  0.5343 -0.6976 -0.0595
 4869TIP3    H214572   1.271   4.737   4.485 -0.3063  1.3075  0.1860
 4870TIP3   OH214573   2.721   5.605   0.532  0.3311 -0.0234  0.0335
 4870TIP3    H114574   2.646   5.546   0.538  0.9296 -0.8243 -0.1931
 4870TIP3    H214575   2.743   5.626   0.623 -0.7483  0.9948  0.0829
 4871TIP3   OH214576   1.008   1.360   0.887  0.1987  0.3919 -0.5835
 4871TIP3    H114577   1.024   1.326   0.975 -0.5208 -0.2702 -0.7025
 4871TIP3    H214578   0.917   1.336   0.868  0.9723 -1.3308 -2.3386
 4872TIP3   OH214579   5.219   5.734   1.208  0.1493  0.6373  0.4129
 4872TIP3    H114580   5.193   5.826   1.214 -0.3090  0.5790 -0.5568
 4872TIP3    H214581   5.289   5.725   1.273  2.4244  2.4461 -1.6230
 4873TIP3   OH214582   2.956   6.407   3.535 -0.0723 -0.3307  0.0828
 4873TIP3    H114583   2.939   6.472   3.467  0.3652  1.3138  1.4789
 4873TIP3    H214584   3.008   6.340   3.491 -0.1448  0.4671 -1.2959
 4874TIP3   OH214585   3.018   4.637   4.330  0.1896 -0.4036  0.4329
 4874TIP3    H114586   2.944   4.685   4.367 -1.1410 -2.3630  0.4491
 4874TIP3    H214587   3.091   4.700   4.332 -1.2192  1.2847  1.2634
 4875TIP3   OH214588   5.885   6.346   2.342 -0.3112 -0.4248 -0.0327
 4875TIP3    H114589   5.853   6.329   2.430  0.4291  0.2603  0.3756
 4875TIP3    H214590   5.844   6.429   2.317 -0.3329 -0.4979 -0.2455
 4876TIP3   OH214591   2.276   1.126   5.582 -0.3654 -0.1425 -0.2299
 4876TIP3    H114592   2.208   1.061   5.597  0.6412 -0.7967  2.0230
 4876TIP3    H214593   2.231   1.200   5.542 -2.1808 -0.9578  0.2286
 4877TIP3   OH214594   4.612   4.244   1.990 -0.5210  0.1494 -0.1515
 4877TIP3    H114595   4.658   4.163   1.969 -1.2421 -1.0482  2.4850
 4877TIP3    H214596   4.532   4.216   2.036 -1.1837  2.3232  0.1619
 4878TIP3   OH214597   5.288   5.949   3.612  0.3611  1.1976  0.1132
 4878TIP3    H114598   5.380   5.969   3.630  1.0355 -0.2020 -1.5161
 4878TIP3    H214599   5.267   5.876   3.670  0.8850  0.2808 -0.8097
 4879TIP3   OH214600   6.429   5.822   5.838  0.0925  0.3009 -0.0579
 4879TIP3    H114601   6.369   5.749   5.855  0.3387 -0.4661 -2.1484
 4879TIP3    H214602   6.423   5.877   5.916 -2.8211 -0.0850  0.1117
 4880TIP3   OH214603   4.888   3.147   1.720 -0.3959 -0.2549 -0.0062
 4880TIP3    H114604   4.815   3.186   1.670 -0.2976  0.8376  0.6819
 4880TIP3    H214605   4.894   3.201   1.799  1.4988 -0.0174 -0.2883
 4881TIP3   OH214606   0.521   0.679   3.069 -0.4323  0.1693  0.1880
 4881TIP3    H114607   0.553   0.761   3.108 -2.0783  0.7372  0.4403
 4881TIP3    H214608   0.556   0.680   2.980 -1.1950  1.6453 -0.1326
 4882TIP3   OH214609   2.385   0.688   4.102  0.0276 -0.0325  0.4252
 4882TIP3    H114610   2.450   0.685   4.032  0.4152  0.9484  0.7279
 4882TIP3    H214611   2.306   0.723   4.060 -0.4299 -1.5131 -0.0142
 4883TIP3   OH214612   5.139   4.588   2.353 -0.0419 -0.0645  0.1681
 4883TIP3    H114613   5.212   4.602   2.413 -1.1416  0.1842  1.4764
 4883TIP3    H214614   5.147   4.659   2.289  1.2659 -0.4672 -0.1676
 4884TIP3   OH214615   4.250   6.437   2.985  0.3026 -0.3730  0.1364
 4884TIP3    H114616   4.325   6.379   2.967 -0.1175 -0.9381  0.1812
 4884TIP3    H214617   4.181   6.378   3.016 -0.2278  0.1169 -0.0965
 4885TIP3   OH214618   4.184   2.928   0.491 -0.3159  0.4644  0.1178
 4885TIP3    H114619   4.222   2.843   0.469 -0.7855 -0.3170  2.0863
 4885TIP3    H214620   4.228   2.990   0.432  0.8732 -0.9698 -0.5785
 4886TIP3   OH214621   3.267   1.116   0.433 -0.4360  0.2234 -0.3312
 4886TIP3    H114622   3.183   1.124   0.478  0.1410  3.0910  0.4767
 4886TIP3    H214623   3.257   1.040   0.376 -2.7976 -0.8018  1.2948
 4887TIP3   OH214624   0.553   3.034   3.525 -0.3043  0.1603 -0.0907
 4887TIP3    H114625   0.626   3.055   3.582 -2.1074 -2.2560  3.4224
 4887TIP3    H214626   0.550   3.106   3.462  4.1026  1.0640  0.4695
 4888TIP3   OH214627   2.202   1.496   2.055  0.1787 -0.9098  0.0499
 4888TIP3    H114628   2.275   1.437   2.073  0.9589 -0.5227 -1.6971
 4888TIP3    H214629   2.229   1.545   1.978 -1.5552 -0.1032 -0.0866
 4889TIP3   OH214630   7.143   6.347   2.617 -0.2504 -0.0906  0.6835
 4889TIP3    H114631   7.138   6.266   2.668  2.2574 -0.6762  0.1563
 4889TIP3    H214632   7.053   6.364   2.588 -0.6760 -3.4151 -0.3121
 4890TIP3   OH214633   2.618   3.067   0.578 -0.3336 -0.1307  0.5452
 4890TIP3    H114634   2.673   2.989   0.585  1.5364  1.0473 -0.0318
 4890TIP3    H214635   2.620   3.106   0.665 -0.0949  0.0035  0.4807
 4891TIP3   OH214636   4.439   4.575   0.242 -0.1974 -0.0979 -0.3145
 4891TIP3    H114637   4.374   4.620   0.188  1.7658  1.3830 -1.5954
 4891TIP3    H214638   4.440   4.486   0.208 -1.6751 -0.2103 -0.1312
 4892TIP3   OH214639   0.988   3.964   4.200  0.0376 -0.0494 -0.0694
 4892TIP3    H114640   0.892   3.968   4.206  0.0516 -1.2923  1.2344
 4892TIP3    H214641   1.011   3.880   4.237  1.6878  0.4124  0.0073
 4893TIP3   OH214642   1.916   6.230   4.259 -0.0696 -0.2023 -0.3757
 4893TIP3    H114643   1.975   6.155   4.252  1.9549  1.2610  0.0249
 4893TIP3    H214644   1.890   6.249   4.169  0.4369 -0.5902 -0.6055
 4894TIP3   OH214645   7.018   2.115   3.697 -0.2247 -0.4166  0.0443
 4894TIP3    H114646   7.114   2.114   3.697 -0.2205  0.0577  0.1574
 4894TIP3    H214647   6.995   2.201   3.732 -0.6901 -0.3942 -0.3202
 4895TIP3   OH214648   3.099   3.176   2.410 -0.2827 -0.4876  0.5535
 4895TIP3    H114649   3.155   3.233   2.357 -1.7196  0.9136  0.4593
 4895TIP3    H214650   3.143   3.172   2.495 -0.4643  1.3628  0.7768
 4896TIP3   OH214651   0.349   4.660   2.746  0.2378 -0.0636  0.0171
 4896TIP3    H114652   0.314   4.571   2.742 -1.7952  0.7385 -1.8160
 4896TIP3    H214653   0.272   4.716   2.754  1.2823  1.6780 -1.3974
 4897TIP3   OH214654   2.069   4.248   2.753 -0.1351  0.3878  0.5378
 4897TIP3    H114655   2.123   4.176   2.721 -0.9879 -0.2112  0.4130
 4897TIP3    H214656   2.066   4.310   2.681 -0.2723  0.0464  0.2491
 4898TIP3   OH214657   0.272   3.230   4.019  0.3592  0.7056  0.4391
 4898TIP3    H114658   0.262   3.324   4.032  0.1144  0.8026 -0.3602
 4898TIP3    H214659   0.188   3.202   3.982  0.3158  0.1151  0.9676
 4899TIP3   OH214660   6.017   0.981   0.805 -0.2923 -0.1979 -0.0622
 4899TIP3    H114661   6.102   1.015   0.777  0.4621 -1.2567  0.8718
 4899TIP3    H214662   5.991   1.038   0.877 -0.7109  0.5258 -0.7594
 4900TIP3   OH214663   0.544   2.741   4.874 -0.4300  0.3086 -0.2143
 4900TIP3    H114664   0.620   2.761   4.929  0.2520 -0.5175 -0.8386
 4900TIP3    H214665   0.549   2.647   4.859 -2.3004 -0.0152  0.7915
 4901TIP3   OH214666   3.887   3.300   2.041  0.3243 -0.2615  0.3020
 4901TIP3    H114667   3.899   3.255   2.125 -1.3702 -1.2873  0.0364
 4901TIP3    H214668   3.827   3.372   2.061 -0.9756 -1.1688 -0.1918
 4902TIP3   OH214669   1.179   5.903   0.217 -0.2039 -0.3214  0.0285
 4902TIP3    H114670   1.130   5.927   0.295 -2.1924  2.3802 -1.8536
 4902TIP3    H214671   1.124   5.838   0.173  0.8026 -1.6686  0.6959
 4903TIP3   OH214672   6.190   6.599   5.624 -0.0202 -0.6209 -0.0556
 4903TIP3    H114673   6.190   6.578   5.717 -0.2374 -0.9309 -0.1259
 4903TIP3    H214674   6.166   6.518   5.580 -0.7188 -0.2741 -0.3369
 4904TIP3   OH214675   6.971   3.411   5.504  0.2412 -0.3904 -0.0424
 4904TIP3    H114676   6.948   3.503   5.518  1.5787 -0.2999  1.8585
 4904TIP3    H214677   7.043   3.413   5.442  1.0272 -0.0458  0.8605
 4905TIP3   OH214678   2.030   6.494   5.188 -0.1928  0.9135 -0.0350
 4905TIP3    H114679   2.098   6.435   5.221 -1.1038 -1.0840 -1.5152
 4905TIP3    H214680   1.960   6.488   5.253 -0.5098 -0.1288 -0.4522
 4906TIP3   OH214681   4.614   1.473   1.294 -0.5951 -0.1128 -0.2292
 4906TIP3    H114682   4.632   1.530   1.369 -2.0499  0.0604  0.0166
 4906TIP3    H214683   4.681   1.495   1.230  0.3139  0.1642  0.7789
 4907TIP3   OH214684   2.704   4.768   0.965  0.0791  0.4627 -0.0591
 4907TIP3    H114685   2.680   4.858   0.943 -1.9344  0.0400  0.2507
 4907TIP3    H214686   2.753   4.737   0.888 -3.0321  0.4407 -2.2406
 4908TIP3   OH214687   4.256   4.714   5.530 -0.4461  0.1370 -0.1484
 4908TIP3    H114688   4.165   4.712   5.503 -0.3057 -0.4585 -0.6080
 4908TIP3    H214689   4.277   4.807   5.540 -1.0303  0.2832 -0.2838
 4909TIP3   OH214690   2.035   0.968   3.886  0.3622 -0.0452  0.0028
 4909TIP3    H114691   2.091   0.896   3.915  0.2182  0.4893  1.7517
 4909TIP3    H214692   2.077   1.002   3.808  0.9001 -1.4588 -0.3651
 4910TIP3   OH214693   1.153   3.474   2.444  0.4244 -0.3702 -0.0231
 4910TIP3    H114694   1.067   3.501   2.474  1.0112  0.4193  1.0130
 4910TIP3    H214695   1.137   3.429   2.361 -1.3001 -2.8036  1.4901
 4911TIP3   OH214696   4.038   4.172   4.694  0.1887 -0.3891 -0.7122
 4911TIP3    H114697   4.057   4.126   4.612  0.4569 -1.7833  0.0940
 4911TIP3    H214698   3.961   4.225   4.675  1.4589  0.9336 -2.4456
 4912TIP3   OH214699   6.040   4.486   3.837  0.3993 -0.0606 -0.0864
 4912TIP3    H114700   6.117   4.505   3.890  1.3951  1.1294 -1.8632
 4912TIP3    H214701   6.003   4.573   3.817 -2.0582 -0.6075  1.5657
 4913TIP3   OH214702   6.849   3.207   0.965  0.6710  0.2322  0.2893
 4913TIP3    H114703   6.889   3.285   0.927  1.3742 -0.1054  0.3202
 4913TIP3    H214704   6.830   3.151   0.890  1.0809  0.0165  0.3437
 4914TIP3   OH214705   0.263   3.642   2.203 -0.1366 -0.4151 -0.0227
 4914TIP3    H114706   0.306   3.721   2.238  1.1583 -1.1911  0.2114
 4914TIP3    H214707   0.324   3.610   2.136 -0.4077 -1.4735  0.2209
 4915TIP3   OH214708   6.697   2.594   4.079  0.2497 -0.6035  0.2750
 4915TIP3    H114709   6.761   2.572   4.147  2.7068  1.6150 -1.1357
 4915TIP3    H214710   6.646   2.666   4.117  0.7252 -0.2685  0.2912
 4916TIP3   OH214711   1.218   1.511   1.723  0.5320 -0.3077 -0.3023
 4916TIP3    H114712   1.162   1.433   1.728 -0.7455  0.6611  1.3059
 4916TIP3    H214713   1.206   1.542   1.633 -0.7487 -0.6849 -0.2878
 4917TIP3   OH214714   0.966   4.697   2.350 -0.1787  0.2749 -0.1203
 4917TIP3    H114715   0.903   4.678   2.279  1.9146  0.9820 -2.3010
 4917TIP3    H214716   1.020   4.618   2.355  0.6161  0.7845 -0.4072
 4918TIP3   OH214717   4.807   5.911   3.109 -0.4068  0.1289 -0.2319
 4918TIP3    H114718   4.873   5.915   3.039  2.3894  2.2370  2.2599
 4918TIP3    H214719   4.823   5.828   3.153  0.5289  0.5168  0.2046
 4919TIP3   OH214720   7.016   4.020   1.994  0.1720  0.0508 -0.5537
 4919TIP3    H114721   6.998   4.111   1.970  0.9678  0.2689 -0.3661
 4919TIP3    H214722   7.041   3.979   1.911  1.0537  0.3321 -0.4468
 4920TIP3   OH214723   4.639   5.154   3.721 -0.1783 -0.1708  0.1001
 4920TIP3    H114724   4.661   5.063   3.701  0.5847  0.1788 -0.7155
 4920TIP3    H214725   4.715   5.188   3.768  0.4260  0.5930 -1.3432
 4921TIP3   OH214726   4.178   1.670   3.594 -0.4226  0.0349  0.1544
 4921TIP3    H114727   4.168   1.654   3.501  0.8054  0.2237 -0.0280
 4921TIP3    H214728   4.272   1.680   3.607 -0.7172  2.7357  0.9515
 4922TIP3   OH214729   4.817   5.679   0.216 -0.2624  0.1551 -0.1467
 4922TIP3    H114730   4.797   5.771   0.234 -0.7677  0.0087  0.0712
 4922TIP3    H214731   4.899   5.663   0.262 -0.1248  0.5231 -0.2590
 4923TIP3   OH214732   0.189   5.508   1.297 -0.0738  0.6053  0.3234
 4923TIP3    H114733   0.157   5.418   1.291  1.6479 -0.0141 -0.0372
 4923TIP3    H214734   0.127   5.558   1.243  0.4947 -0.8188 -1.7654
 4924TIP3   OH214735   3.183   2.977   4.014 -0.1988 -0.3896 -0.2012
 4924TIP3    H114736   3.243   2.914   4.053 -1.4054 -1.7327 -0.4503
 4924TIP3    H214737   3.133   2.927   3.950 -1.0346  0.8732 -0.5787
 4925TIP3   OH214738   5.409   4.807   0.309  0.5132 -0.5754 -0.1020
 4925TIP3    H114739   5.438   4.719   0.287  0.9160 -0.9540  1.7619
 4925TIP3    H214740   5.315   4.800   0.321  0.4875 -0.6626 -0.3676
 4926TIP3   OH214741   5.837   5.611   2.349 -0.1219 -0.2768 -0.2657
 4926TIP3    H114742   5.900   5.555   2.302  1.2213 -0.4863  1.6614
 4926TIP3    H214743   5.870   5.614   2.439 -1.0766  2.2788  0.0852
 4927TIP3   OH214744   5.545   5.892   1.131 -0.2777 -0.0812 -0.1496
 4927TIP3    H114745   5.532   5.850   1.216  2.1329  0.3977  0.5346
 4927TIP3    H214746   5.476   5.856   1.075 -0.2822 -2.4469  1.2692
 4928TIP3   OH214747   0.451   5.720   1.475 -0.0903  0.1867  0.1880
 4928TIP3    H114748   0.400   5.643   1.498 -1.5081  1.3000  0.9061
 4928TIP3    H214749   0.541   5.687   1.466 -0.0833 -1.0573  3.4545
 4929TIP3   OH214750   4.709   2.298   0.573 -0.6407 -1.2233  0.3290
 4929TIP3    H114751   4.618   2.291   0.602 -1.8529 -0.2247 -2.8876
 4929TIP3    H214752   4.727   2.214   0.531 -0.6028 -0.8759 -0.3593
 4930TIP3   OH214753   6.710   1.656   4.730 -0.3931  0.1614  0.0134
 4930TIP3    H114754   6.636   1.664   4.791 -0.5261 -0.0258 -0.1240
 4930TIP3    H214755   6.787   1.658   4.787 -0.4724  0.9888  0.1057
 4931TIP3   OH214756   3.831   4.923   5.540  0.0136 -0.1107  0.0675
 4931TIP3    H114757   3.841   4.840   5.586  1.4242 -1.8664 -3.0253
 4931TIP3    H214758   3.749   4.914   5.491 -0.6660  1.0531  0.9461
 4932TIP3   OH214759   6.114   4.316   5.569  0.3493 -0.0851  0.2598
 4932TIP3    H114760   6.141   4.339   5.658 -0.6864  0.3034  0.4811
 4932TIP3    H214761   6.022   4.293   5.577 -0.0741  1.0948 -0.9065
 4933TIP3   OH214762   1.726   4.710   5.859  0.3478  0.6888  0.4751
 4933TIP3    H114763   1.760   4.798   5.880  1.5195  0.0360  1.4234
 4933TIP3    H214764   1.801   4.664   5.822  0.0977 -0.3300  1.2135
 4934TIP3   OH214765   0.469   2.197   5.352 -0.1137 -0.2115  0.6120
 4934TIP3    H114766   0.468   2.103   5.336 -0.1587 -0.7711  3.3952
 4934TIP3    H214767   0.557   2.225   5.328 -0.6827 -0.4812 -2.1551
 4935TIP3   OH214768   4.563   5.126   3.385  0.0773 -0.1735 -0.1161
 4935TIP3    H114769   4.530   5.038   3.364  1.4242 -0.4641 -1.0945
 4935TIP3    H214770   4.621   5.113   3.459 -0.7568  0.1127  0.6066
 4936TIP3   OH214771   4.560   5.985   4.930  0.1817  0.5440 -0.0861
 4936TIP3    H114772   4.614   6.010   5.004 -1.1389 -0.9494  1.4435
 4936TIP3    H214773   4.484   5.942   4.968 -1.0861  0.6835 -2.2589
 4937TIP3   OH214774   5.941   2.947   0.504  0.4042  0.2171  0.9065
 4937TIP3    H114775   5.851   2.972   0.522  0.4280 -0.0290  1.3715
 4937TIP3    H214776   5.994   3.016   0.544  0.4055  1.0430 -0.4531
 4938TIP3   OH214777   4.827   2.060   1.772  0.0934 -0.1682  0.2611
 4938TIP3    H114778   4.775   2.122   1.823  1.1538  0.3661  0.7090
 4938TIP3    H214779   4.847   2.106   1.690 -0.0708 -0.3483  0.1178
 4939TIP3   OH214780   1.939   2.347   2.085  0.3422  0.3344 -0.0168
 4939TIP3    H114781   1.940   2.428   2.135  0.5672 -0.5279  1.4178
 4939TIP3    H214782   1.865   2.298   2.120  1.0162 -0.6463  0.0554
 4940TIP3   OH214783   5.658   4.214   5.076 -0.0040  0.7275 -0.0410
 4940TIP3    H114784   5.725   4.235   5.140 -0.2776 -0.2854  0.5921
 4940TIP3    H214785   5.575   4.230   5.121 -0.1998  1.8208 -0.7658
 4941TIP3   OH214786   0.478   4.436   1.632  0.4990  0.4884  0.3047
 4941TIP3    H114787   0.466   4.393   1.717  1.2454  0.7629  0.5578
 4941TIP3    H214788   0.389   4.453   1.602  0.2212  0.4144  1.0432
 4942TIP3   OH214789   1.237   0.819   0.125 -0.9109  0.1045 -0.4283
 4942TIP3    H114790   1.198   0.906   0.132 -1.7239 -0.2926  0.1476
 4942TIP3    H214791   1.165   0.759   0.146  0.4246 -0.6157  2.4896
 4943TIP3   OH214792   5.794   4.376   3.739 -0.2087  0.7428  0.1519
 4943TIP3    H114793   5.860   4.407   3.802 -0.2292 -1.9740  1.6574
 4943TIP3    H214794   5.753   4.301   3.782 -2.1313  0.4115 -2.0541
 4944TIP3   OH214795   1.345   1.445   5.379  0.5242  0.6056 -0.5872
 4944TIP3    H114796   1.363   1.376   5.316  1.8280  0.6953 -0.3363
 4944TIP3    H214797   1.288   1.506   5.333  1.8927  0.9556 -1.8864
 4945TIP3   OH214798   1.877   3.400   1.308  0.0870 -0.3508 -0.4122
 4945TIP3    H114799   1.937   3.450   1.252 -1.8237  3.2740  0.4401
 4945TIP3    H214800   1.853   3.461   1.378 -0.5860 -3.4176  2.2451
 4946TIP3   OH214801   7.152   3.638   0.970 -0.4870  0.6343  0.0102
 4946TIP3    H114802   7.141   3.647   1.065 -3.3975  2.2867 -0.3576
 4946TIP3    H214803   7.107   3.556   0.949  1.3865 -0.4830  0.1433
 4947TIP3   OH214804   5.320   6.486   1.364 -0.2538 -0.1609  0.0022
 4947TIP3    H114805   5.284   6.572   1.340 -3.7140 -1.6753 -0.8367
 4947TIP3    H214806   5.319   6.487   1.460  1.5100  1.3244  0.0597
 4948TIP3   OH214807   0.195   5.401   3.244  0.2453  0.1534 -0.0821
 4948TIP3    H114808   0.223   5.492   3.253  0.5008 -0.0302  1.1082
 4948TIP3    H214809   0.261   5.350   3.292  0.0287 -0.6496 -0.6138
 4949TIP3   OH214810   1.062   1.386   2.044  0.1972  0.3750  0.2702
 4949TIP3    H114811   1.050   1.354   1.955  1.0785  1.6740 -0.3494
 4949TIP3    H214812   1.109   1.315   2.089  1.1486  0.3184 -0.7648
 4950TIP3   OH214813   4.529   5.855   4.608 -0.6795 -0.0099 -0.0753
 4950TIP3    H114814   4.584   5.909   4.551 -1.0937 -1.4391 -1.9260
 4950TIP3    H214815   4.452   5.911   4.626  0.8238  1.6339  1.7594
 4951TIP3   OH214816   3.298   4.515   3.820 -0.7095  0.1477  0.0174
 4951TIP3    H114817   3.344   4.554   3.745 -1.0667  0.1682 -0.1915
 4951TIP3    H214818   3.213   4.488   3.785 -2.2181  3.0388  1.0800
 4952TIP3   OH214819   0.511   0.815   5.120 -0.4232 -0.2119  0.0083
 4952TIP3    H114820   0.416   0.811   5.115 -0.4802  0.6828  0.1412
 4952TIP3    H214821   0.540   0.812   5.029 -0.6313  0.4467 -0.0850
 4953TIP3   OH214822   6.921   4.134   1.654 -0.2319  0.4948  0.4350
 4953TIP3    H114823   6.911   4.045   1.689 -2.5568  1.1929  1.7802
 4953TIP3    H214824   6.923   4.190   1.732  4.6831  1.5484 -0.1487
 4954TIP3   OH214825   2.184   4.602   5.035  0.4775 -0.6876  0.9201
 4954TIP3    H114826   2.210   4.693   5.047  0.5202 -0.6087  0.2798
 4954TIP3    H214827   2.227   4.575   4.954  1.0274 -1.4900  1.4540
 4955TIP3   OH214828   6.342   3.923   5.158 -1.0830  0.8817 -0.3478
 4955TIP3    H114829   6.342   3.950   5.066 -2.2043 -0.4218 -0.7717
 4955TIP3    H214830   6.249   3.914   5.180 -0.8040 -0.0741  0.5097
 4956TIP3   OH214831   6.091   0.307   2.308  0.6448  0.7292 -0.4062
 4956TIP3    H114832   6.113   0.246   2.238  0.3129  0.6845 -0.4739
 4956TIP3    H214833   5.996   0.320   2.300 -0.0856 -2.0165  2.2329
 4957TIP3   OH214834   1.337   2.495   5.849  0.2093  0.1449  0.2422
 4957TIP3    H114835   1.401   2.455   5.790 -0.6607 -0.6411 -0.1895
 4957TIP3    H214836   1.355   2.455   5.934  0.9610  0.7049  0.3596
 4958TIP3   OH214837   2.419   4.011   5.325  0.2698 -0.5730 -0.0712
 4958TIP3    H114838   2.507   4.012   5.362 -0.3243  1.0882  1.4799
 4958TIP3    H214839   2.419   4.083   5.262  0.9366 -2.6810 -2.6412
 4959TIP3   OH214840   3.217   3.468   0.676 -0.1678  0.1068  0.5735
 4959TIP3    H114841   3.153   3.499   0.740  0.0450  1.4452  0.1673
 4959TIP3    H214842   3.301   3.501   0.708  0.3486 -1.5995  1.0820
 4960TIP3   OH214843   3.521   5.507   5.025  0.4932 -1.1156 -0.2194
 4960TIP3    H114844   3.561   5.580   4.977  0.8513 -0.7794  0.5554
 4960TIP3    H214845   3.595   5.464   5.068 -0.0394  0.7172  2.8897
 4961TIP3   OH214846   3.156   2.826   5.212 -0.2976  0.1522 -0.3962
 4961TIP3    H114847   3.061   2.833   5.226 -0.1963  0.6538  0.0639
 4961TIP3    H214848   3.169   2.736   5.182 -1.0820  0.4804 -1.8139
 4962TIP3   OH214849   3.917   2.832   2.306 -0.3720 -0.1793  0.2998
 4962TIP3    H114850   3.961   2.896   2.249  0.1996 -1.0124 -0.2221
 4962TIP3    H214851   3.989   2.784   2.347 -0.7285 -2.0934 -1.1428
 4963TIP3   OH214852   3.612   4.582   2.149  0.2516  0.4521 -0.2721
 4963TIP3    H114853   3.530   4.616   2.186 -0.6657 -1.0440 -0.8180
 4963TIP3    H214854   3.586   4.543   2.066  1.5317  0.0026 -0.4738
 4964TIP3   OH214855   4.748   0.496   4.456  0.1014 -0.3446  0.4522
 4964TIP3    H114856   4.799   0.458   4.385 -2.4013  0.1529 -1.8255
 4964TIP3    H214857   4.707   0.573   4.416 -2.1272 -0.5546  2.1339
 4965TIP3   OH214858   0.162   0.227   1.108  0.2686  0.2879  0.1649
 4965TIP3    H114859   0.163   0.157   1.173 -0.4865  0.4758  0.3916
 4965TIP3    H214860   0.108   0.193   1.037  1.4345 -0.0802 -0.5679
 4966TIP3   OH214861   5.296   3.301   4.480 -0.2270  0.1076 -0.1917
 4966TIP3    H114862   5.375   3.263   4.520  1.1394  0.3723 -2.4989
 4966TIP3    H214863   5.228   3.236   4.497  0.7655 -0.7455  0.7604
 4967TIP3   OH214864   4.573   1.912   3.356  0.3258  0.0788 -0.5308
 4967TIP3    H114865   4.665   1.928   3.332  0.6718 -2.0966 -0.8201
 4967TIP3    H214866   4.554   1.825   3.323 -1.6923  0.2352  0.0704
 4968TIP3   OH214867   3.822   0.326   1.663  0.5340  0.2614  0.0609
 4968TIP3    H114868   3.908   0.364   1.683  0.7714 -0.5519  0.6376
 4968TIP3    H214869   3.807   0.346   1.570  1.3954  0.3216 -0.0699
 4969TIP3   OH214870   5.586   0.663   5.597  0.8641  0.2395  0.2397
 4969TIP3    H114871   5.547   0.579   5.620 -1.7490  1.4365  0.6488
 4969TIP3    H214872   5.651   0.679   5.666 -0.8391 -0.0724  2.0177
 4970TIP3   OH214873   3.588   0.741   5.330 -0.1404 -0.0523  0.1819
 4970TIP3    H114874   3.532   0.803   5.377 -0.6679 -0.4798  0.1187
 4970TIP3    H214875   3.608   0.673   5.394 -1.6548 -1.1526 -0.4481
 4971TIP3   OH214876   3.919   5.906   5.694 -0.2341  0.0349  0.1670
 4971TIP3    H114877   3.855   5.865   5.752  0.2012  0.1362  0.7251
 4971TIP3    H214878   3.971   5.962   5.751 -0.5397  1.0506 -0.5067
 4972TIP3   OH214879   3.414   0.454   4.695  0.2799 -0.1921 -0.0275
 4972TIP3    H114880   3.477   0.525   4.710  0.8242 -1.0610  2.3140
 4972TIP3    H214881   3.404   0.413   4.781 -2.7857 -0.7150 -0.5353
 4973TIP3   OH214882   4.432   5.606   0.309 -0.3371 -0.2490  0.3422
 4973TIP3    H114883   4.361   5.608   0.374  1.0236  0.0506  1.8846
 4973TIP3    H214884   4.512   5.600   0.361  0.9142  1.2952 -1.2699
 4974TIP3   OH214885   4.981   6.531   1.361 -0.2451  0.4110 -0.1300
 4974TIP3    H114886   5.019   6.565   1.442  0.2948  4.0296 -1.6759
 4974TIP3    H214887   4.887   6.549   1.369 -0.1566  1.0193 -0.3462
 4975TIP3   OH214888   0.441   3.202   0.641 -0.7432  0.1469  0.5518
 4975TIP3    H114889   0.409   3.245   0.561 -0.9576 -0.0439  0.5360
 4975TIP3    H214890   0.410   3.258   0.712 -0.8232  0.1432  0.5194
 4976TIP3   OH214891   1.900   3.194   0.916 -0.6739  0.0224  0.0545
 4976TIP3    H114892   1.992   3.193   0.888 -0.5101  0.7732  0.5397
 4976TIP3    H214893   1.858   3.125   0.864  0.0228  0.1217 -0.6515
 4977TIP3   OH214894   6.478   2.098   5.860 -0.1390  0.3794 -0.1341
 4977TIP3    H114895   6.487   2.002   5.865  0.5305  0.2657 -2.4144
 4977TIP3    H214896   6.384   2.113   5.873 -0.2529 -0.5778  0.2590
 4978TIP3   OH214897   1.788   6.711   4.486  0.0423  0.1374  0.2244
 4978TIP3    H114898   1.856   6.777   4.497 -0.2381  0.3032  0.9640
 4978TIP3    H214899   1.810   6.668   4.403  0.0596  1.3426 -0.4097
 4979TIP3   OH214900   6.191   6.406   3.260 -0.6855 -0.0675  0.2524
 4979TIP3    H114901   6.176   6.439   3.348  1.7359  0.1541  0.6474
 4979TIP3    H214902   6.173   6.481   3.203  1.1565  0.9184  0.8764
 4980TIP3   OH214903   5.557   2.280   4.762 -0.7774  0.1953  0.3671
 4980TIP3    H114904   5.613   2.220   4.812 -0.0913 -1.3890 -2.1371
 4980TIP3    H214905   5.468   2.258   4.790 -0.3956 -0.0961  1.4245
 4981TIP3   OH214906   2.401   5.286   1.641 -0.0056 -0.2259  0.6334
 4981TIP3    H114907   2.486   5.315   1.672  0.0402 -0.4013  0.6747
 4981TIP3    H214908   2.419   5.236   1.562 -0.3875  3.2600 -1.9131
 4982TIP3   OH214909   5.913   6.144   4.998  0.9180  0.4477 -0.2367
 4982TIP3    H114910   5.856   6.184   5.064  1.5421  1.1533 -0.1050
 4982TIP3    H214911   5.982   6.101   5.049 -0.8342 -2.6883 -0.2699
 4983TIP3   OH214912   6.357   4.386   5.459  0.1484 -0.0016 -0.1850
 4983TIP3    H114913   6.264   4.366   5.474  0.2641 -0.4495 -0.0581
 4983TIP3    H214914   6.402   4.349   5.534  0.1737  2.5827  1.1783
 4984TIP3   OH214915   1.848   1.457   1.919 -0.2878 -0.0938 -0.2764
 4984TIP3    H114916   1.914   1.428   1.982 -0.7620  0.0131  0.2809
 4984TIP3    H214917   1.846   1.387   1.853  1.8322  0.8373 -1.4424
 4985TIP3   OH214918   3.526   4.528   3.156  0.4642 -0.2162 -0.1761
 4985TIP3    H114919   3.536   4.587   3.081 -1.0654  0.4529  0.1084
 4985TIP3    H214920   3.579   4.452   3.134  3.4242  1.6471 -0.1007
 4986TIP3   OH214921   1.725   2.417   1.603  0.3726 -0.1868 -0.0290
 4986TIP3    H114922   1.774   2.408   1.685  0.9761  2.0133 -0.0794
 4986TIP3    H214923   1.649   2.360   1.615  0.9404 -0.6703  1.6655
 4987TIP3   OH214924   2.045   4.805   3.831 -0.3420 -0.2495  0.2008
 4987TIP3    H114925   2.125   4.754   3.818  0.7431  1.2600  0.6633
 4987TIP3    H214926   1.997   4.757   3.898  1.1509 -0.1658  1.3902
 4988TIP3   OH214927   1.736   4.062   1.481 -0.5028  0.9171  0.4121
 4988TIP3    H114928   1.700   4.145   1.451  0.3617  0.9904 -0.4871
 4988TIP3    H214929   1.829   4.065   1.455 -0.5407 -0.4859 -0.0230
 4989TIP3   OH214930   2.397   2.279   3.698  0.5126 -0.8056  0.5697
 4989TIP3    H114931   2.400   2.360   3.648  1.3098  0.1364  2.0563
 4989TIP3    H214932   2.321   2.291   3.756 -0.6483 -2.0466 -0.6428
 4990TIP3   OH214933   4.991   6.496   3.397  0.1646  0.4204  0.1785
 4990TIP3    H114934   4.899   6.519   3.403  0.1447 -0.0457  2.8461
 4990TIP3    H214935   5.037   6.570   3.438  0.6539 -0.8022  1.9765
 4991TIP3   OH214936   5.894   2.839   2.192 -0.0242  0.4006 -0.0040
 4991TIP3    H114937   5.862   2.840   2.283  2.2644  0.7316  0.8561
 4991TIP3    H214938   5.925   2.749   2.179  0.2224  0.5208 -0.2463
 4992TIP3   OH214939   5.439   3.571   4.511 -0.0430  0.2502 -0.3264
 4992TIP3    H114940   5.377   3.637   4.480 -0.4444  0.1135  0.1762
 4992TIP3    H214941   5.398   3.488   4.489  1.3555  0.1161 -2.7770
 4993TIP3   OH214942   5.763   1.045   0.656 -0.1986  0.5195 -0.2436
 4993TIP3    H114943   5.838   1.010   0.705 -0.2354 -0.7806 -1.0589
 4993TIP3    H214944   5.698   1.067   0.723 -0.6140 -2.0882  0.3154
 4994TIP3   OH214945   5.778   2.156   1.221 -0.6043  0.3761  0.0974
 4994TIP3    H114946   5.695   2.202   1.214 -1.3434 -0.5726  1.8801
 4994TIP3    H214947   5.833   2.213   1.274 -0.8761  0.0573  0.7317
 4995TIP3   OH214948   4.670   1.801   1.173  0.0029  0.0424  0.3853
 4995TIP3    H114949   4.744   1.746   1.199 -0.7681 -0.7687  0.8842
 4995TIP3    H214950   4.711   1.873   1.124  1.4292  1.1729  3.0266
 4996TIP3   OH214951   0.474   0.781   1.369  0.2534 -0.3378  0.1805
 4996TIP3    H114952   0.553   0.748   1.328  0.2794  0.2674 -0.2622
 4996TIP3    H214953   0.426   0.824   1.298  1.4473  2.9389  1.1705
 4997TIP3   OH214954   0.835   5.716   5.849 -0.2585 -0.2719 -0.2868
 4997TIP3    H114955   0.795   5.691   5.932  0.3179  0.1699  0.1381
 4997TIP3    H214956   0.928   5.726   5.869 -0.2012  0.4270 -0.8475
 4998TIP3   OH214957   6.851   1.025   0.193  0.4916 -0.1492  0.2438
 4998TIP3    H114958   6.888   0.945   0.156  2.4334  0.0481  1.5948
 4998TIP3    H214959   6.914   1.094   0.170 -0.2378  0.6774  0.6341
 4999TIP3   OH214960   5.131   3.152   3.722 -0.9790  0.3467  0.3577
 4999TIP3    H114961   5.155   3.223   3.782  1.5134  0.2440 -0.4292
 4999TIP3    H214962   5.155   3.185   3.635 -0.7728 -1.0578 -0.1356
 5000TIP3   OH214963   6.735   5.709   0.203 -0.1471  0.2153 -0.3825
 5000TIP3    H114964   6.803   5.676   0.145 -0.0341  1.2494 -0.8681
 5000TIP3    H214965   6.776   5.786   0.245 -0.4220 -0.1742  0.6310
 5001TIP3   OH214966   0.712   5.946   3.429  0.1809 -0.4973 -0.3112
 5001TIP3    H114967   0.632   5.924   3.476  0.8847  0.4296  1.4490
 5001TIP3    H214968   0.691   6.026   3.381 -0.1867 -0.7339 -0.5483
 5002TIP3   OH214969   4.776   5.393   2.640 -0.1108 -0.0210 -0.6671
 5002TIP3    H114970   4.727   5.341   2.703 -1.0790  0.5827 -0.8885
 5002TIP3    H214971   4.867   5.383   2.666 -0.3320 -1.2743 -0.3098
 5003TIP3   OH214972   6.443   3.540   5.836  0.3990 -0.3440  0.7119
 5003TIP3    H114973   6.462   3.519   5.744 -1.3660  1.0406 -0.0127
 5003TIP3    H214974   6.500   3.614   5.856 -0.3077  0.3311  0.2463
 5004TIP3   OH214975   5.095   4.398   1.583  0.3169 -0.6424  0.3546
 5004TIP3    H114976   5.050   4.471   1.540 -0.7246 -0.6189  1.4286
 5004TIP3    H214977   5.027   4.357   1.636  1.3380 -1.2512  1.2095
 5005TIP3   OH214978   3.277   3.121   0.291  0.6806  0.2481  0.3486
 5005TIP3    H114979   3.249   3.202   0.249  4.3671  1.8092  0.5226
 5005TIP3    H214980   3.300   3.147   0.380 -0.3052 -1.5630  1.1825
 5006TIP3   OH214981   5.255   5.906   5.406 -0.3624  0.1344 -0.5431
 5006TIP3    H114982   5.252   5.977   5.470  1.3975  0.4656 -0.7588
 5006TIP3    H214983   5.186   5.845   5.434  0.8155 -0.1292  2.1698
 5007TIP3   OH214984   0.236   5.321   0.233  0.1381  0.5822 -0.1760
 5007TIP3    H114985   0.281   5.298   0.314 -0.6838 -0.1187  0.0961
 5007TIP3    H214986   0.227   5.416   0.237 -0.4506  0.4991  0.8676
 5008TIP3   OH214987   3.107   3.744   1.709 -0.2131 -0.0604 -0.0292
 5008TIP3    H114988   3.074   3.658   1.682 -0.5069  0.2193 -0.5653
 5008TIP3    H214989   3.087   3.747   1.803  0.4656 -0.8716  0.1550
 5009TIP3   OH214990   3.910   6.553   3.172  0.3637 -0.4999 -0.2140
 5009TIP3    H114991   3.998   6.577   3.200 -0.3275  0.3458  1.3458
 5009TIP3    H214992   3.874   6.502   3.245 -0.1088 -1.7122 -1.2510
 5010TIP3   OH214993   5.872   1.407   5.373  0.6598  0.0039  0.0201
 5010TIP3    H114994   5.881   1.488   5.423  1.1051 -0.7457  1.1852
 5010TIP3    H214995   5.813   1.352   5.425 -0.9259  0.1582 -1.5408
 5011TIP3   OH214996   2.397   3.602   3.187  0.1774 -0.0745 -0.3419
 5011TIP3    H114997   2.481   3.586   3.229  0.0838  1.1574  0.3485
 5011TIP3    H214998   2.334   3.605   3.259 -0.4165 -0.6466 -0.8215
 5012TIP3   OH214999   2.760   5.641   0.803 -0.1645 -0.6229 -0.3073
 5012TIP3    H115000   2.694   5.686   0.856 -0.8192 -0.5262 -1.1745
 5012TIP3    H215001   2.841   5.650   0.853 -0.6694 -0.1520  0.4554
 5013TIP3   OH215002   6.158   4.092   0.197  0.6822  0.0565  0.1513
 5013TIP3    H115003   6.232   4.139   0.158  1.1112 -0.1165  0.7402
 5013TIP3    H215004   6.119   4.044   0.124  2.1022 -1.0793  0.0955
 5014TIP3   OH215005   0.581   0.776   4.858 -0.3974 -0.4042 -0.0694
 5014TIP3    H115006   0.614   0.854   4.814  1.4451 -0.4867  1.0753
 5014TIP3    H215007   0.528   0.732   4.791 -3.7140  3.0196 -0.0435
 5015TIP3   OH215008   6.401   0.863   0.467  0.4123  0.0304 -0.0045
 5015TIP3    H115009   6.492   0.870   0.496 -0.4037  1.6323  2.5624
 5015TIP3    H215010   6.349   0.878   0.546 -2.1150  0.0100 -1.5197
 5016TIP3   OH215011   3.403   1.506   1.498 -0.0423  0.1546 -0.0475
 5016TIP3    H115012   3.452   1.466   1.425  0.6185  1.0223 -0.0970
 5016TIP3    H215013   3.445   1.472   1.577  1.9904  2.3591 -0.0621
 5017TIP3   OH215014   0.104   3.048   5.264 -0.0263  0.2429 -0.2847
 5017TIP3    H115015   0.095   3.070   5.357  0.1681 -1.1411  0.0755
 5017TIP3    H215016   0.014   3.029   5.235  0.2596 -2.5911  0.4898
 5018TIP3   OH215017   4.649   2.417   4.773 -0.0993 -0.0413 -0.3912
 5018TIP3    H115018   4.611   2.341   4.729 -0.5694  0.2937 -0.5687
 5018TIP3    H215019   4.573   2.468   4.802  0.2206  0.7392 -0.9223
 5019TIP3   OH215020   2.124   2.608   1.792  0.4027 -0.4945  0.4827
 5019TIP3    H115021   2.151   2.623   1.702  2.5766 -0.4788  1.0882
 5019TIP3    H215022   2.045   2.555   1.785  1.2525 -1.6106 -1.4110
 5020TIP3   OH215023   2.038   0.159   4.214  0.1247 -0.2695  0.2558
 5020TIP3    H115024   2.008   0.243   4.180  1.4556  0.0099 -0.3163
 5020TIP3    H215025   2.099   0.127   4.147  1.4095 -0.5748  1.5249
 5021TIP3   OH215026   4.690   2.135   4.801 -0.3505  0.5828  0.0491
 5021TIP3    H115027   4.719   2.069   4.737 -1.3765 -0.8274  0.9897
 5021TIP3    H215028   4.728   2.107   4.884 -0.5494  1.3651  0.4164
 5022TIP3   OH215029   4.247   3.754   1.871  0.4828  0.0483 -0.6741
 5022TIP3    H115030   4.272   3.665   1.848  1.9498  0.2488  0.0468
 5022TIP3    H215031   4.256   3.758   1.966  3.7330  1.8450 -0.9160
 5023TIP3   OH215032   5.150   1.034   1.163 -0.3280 -0.1165 -0.2887
 5023TIP3    H115033   5.227   0.994   1.203 -0.2816  0.1084 -0.1473
 5023TIP3    H215034   5.090   1.048   1.237  0.4351  1.8857  0.0108
 5024TIP3   OH215035   0.096   1.826   2.477 -0.1610 -0.0287 -0.5596
 5024TIP3    H115036   0.138   1.901   2.436  0.1108  0.4699  0.5949
 5024TIP3    H215037   0.120   1.752   2.421  1.1215  0.4589 -0.6912
 5025TIP3   OH215038   0.882   0.746   0.968 -0.2742 -0.0874  0.0836
 5025TIP3    H115039   0.874   0.836   0.939 -0.7858 -0.6114 -1.5029
 5025TIP3    H215040   0.976   0.728   0.967 -0.1930  0.3343  0.1368
 5026TIP3   OH215041   2.045   4.025   3.811  0.0619  0.1442 -0.5058
 5026TIP3    H115042   2.074   4.077   3.886  1.5800 -2.3761  0.7987
 5026TIP3    H215043   1.962   3.987   3.839  0.5075 -0.6000 -0.1630
 5027TIP3   OH215044   6.692   1.366   3.540  0.1827  0.0062  0.2235
 5027TIP3    H115045   6.750   1.398   3.610 -0.2110  1.1194  0.0710
 5027TIP3    H215046   6.604   1.380   3.574 -0.0108  0.3833 -0.4058
 5028TIP3   OH215047   7.067   0.626   2.896 -0.2248  0.7449  0.0259
 5028TIP3    H115048   7.041   0.540   2.865 -1.5920  0.5655  1.5604
 5028TIP3    H215049   7.075   0.617   2.991 -0.3457  2.2789  0.2165
 5029TIP3   OH215050   0.195   4.439   4.093  0.1713  0.3164 -0.0643
 5029TIP3    H115051   0.231   4.361   4.051 -0.9457  0.4771 -1.3474
 5029TIP3    H215052   0.271   4.496   4.106  1.1875 -1.2977  1.7534
 5030TIP3   OH215053   2.133   3.337   1.109 -0.4652 -0.3083 -0.4430
 5030TIP3    H115054   2.152   3.422   1.070 -0.2407 -0.2580 -0.2223
 5030TIP3    H215055   2.038   3.333   1.113 -0.4656  0.3140  0.3868
 5031TIP3   OH215056   3.778   5.881   1.948  1.0759  0.1317 -0.1726
 5031TIP3    H115057   3.812   5.917   1.867 -1.7280  1.1129 -1.0271
 5031TIP3    H215058   3.751   5.957   1.999 -0.3869 -0.5599  0.1371
 5032TIP3   OH215059   2.751   1.882   1.226  0.1361 -0.1242  0.1234
 5032TIP3    H115060   2.772   1.846   1.313 -1.8136 -0.5914  0.4505
 5032TIP3    H215061   2.733   1.805   1.172  0.0471  0.2093 -0.3254
 5033TIP3   OH215062   3.758   5.964   2.662 -0.1616 -0.1063 -0.0602
 5033TIP3    H115063   3.743   6.033   2.726  1.7635 -0.6088  1.0260
 5033TIP3    H215064   3.671   5.932   2.640 -0.8999 -0.4612  2.9534
 5034TIP3   OH215065   0.173   1.273   5.627 -0.2514  0.0590 -0.4524
 5034TIP3    H115066   0.251   1.296   5.577  0.9959 -3.0982 -0.1812
 5034TIP3    H215067   0.188   1.310   5.714  0.2459  0.7422 -0.8284
 5035TIP3   OH215068   6.192   1.193   3.471  0.1897  0.2881 -0.3936
 5035TIP3    H115069   6.281   1.195   3.438  0.5786 -0.4571  0.5490
 5035TIP3    H215070   6.149   1.124   3.420  0.3225  0.2507 -0.4552
 5036TIP3   OH215071   6.241   5.079   2.540 -0.1399 -0.5630  0.0849
 5036TIP3    H115072   6.298   5.023   2.591  1.3980  0.1182 -0.8095
 5036TIP3    H215073   6.211   5.146   2.602  1.7841  0.3194  0.1408
 5037TIP3   OH215074   2.856   5.118   2.264  0.2942 -0.0690 -0.5236
 5037TIP3    H115075   2.870   5.069   2.344 -1.1273 -0.4970 -0.5122
 5037TIP3    H215076   2.809   5.058   2.206 -1.9778  1.3859 -0.3118
 5038TIP3   OH215077   5.229   3.629   1.774 -0.4607 -0.1157  0.4313
 5038TIP3    H115078   5.172   3.679   1.715  1.5663  0.7523 -0.9231
 5038TIP3    H215079   5.231   3.541   1.736 -1.7843 -0.4948  1.1782
 5039TIP3   OH215080   4.640   2.706   5.085 -0.1910 -0.2554 -0.6970
 5039TIP3    H115081   4.688   2.660   5.154 -0.8478 -0.5330 -0.4214
 5039TIP3    H215082   4.600   2.781   5.129  1.5909  1.1343 -1.3063
 5040TIP3   OH215083   3.238   2.308   3.103 -0.3596  0.3674  0.5542
 5040TIP3    H115084   3.203   2.220   3.093  1.4183 -0.2671 -0.3951
 5040TIP3    H215085   3.167   2.357   3.146 -1.5577 -1.3722  0.6563
 5041TIP3   OH215086   2.262   1.675   2.776 -0.1991  0.6341  0.5237
 5041TIP3    H115087   2.351   1.685   2.810 -0.3510  1.3986  0.6950
 5041TIP3    H215088   2.275   1.650   2.684  0.1992  1.7495  0.2592
 5042TIP3   OH215089   0.713   2.079   0.911 -0.1368 -0.6427 -1.0128
 5042TIP3    H115090   0.685   2.010   0.851 -1.3119  0.3169 -1.6006
 5042TIP3    H215091   0.632   2.115   0.946  0.4737  0.1732 -0.3990
 5043TIP3   OH215092   0.773   2.411   2.362  0.3901  0.3713  0.2194
 5043TIP3    H115093   0.711   2.414   2.289  1.1911 -1.2932 -0.5831
 5043TIP3    H215094   0.802   2.502   2.372 -1.5461  1.0577  0.0988
 5044TIP3   OH215095   4.657   4.765   2.156 -0.0333 -0.3215 -0.2992
 5044TIP3    H115096   4.621   4.679   2.133  1.7489 -1.6473  1.5256
 5044TIP3    H215097   4.748   4.761   2.127  0.5499  0.2496  1.3447
 5045TIP3   OH215098   2.161   2.465   5.153 -0.5971  0.1356 -0.2477
 5045TIP3    H115099   2.147   2.383   5.105  0.3369 -0.6903  0.8311
 5045TIP3    H215100   2.235   2.507   5.108 -0.4113 -0.1150 -0.1774
 5046TIP3   OH215101   6.019   4.162   1.826 -0.0094  0.3868  0.5643
 5046TIP3    H115102   6.006   4.254   1.801  1.2564  0.2097 -0.8665
 5046TIP3    H215103   6.114   4.150   1.825 -0.1976 -1.3541 -0.9576
 5047TIP3   OH215104   5.738   3.795   4.475  0.3290 -0.1343 -0.2483
 5047TIP3    H115105   5.666   3.840   4.520  0.0273 -0.2194 -0.6342
 5047TIP3    H215106   5.803   3.863   4.459 -0.4199  0.3502 -1.4454
 5048TIP3   OH215107   5.521   5.327   0.097  0.4033 -0.2674  0.4345
 5048TIP3    H115108   5.426   5.337   0.099  0.2265 -1.3664 -0.7727
 5048TIP3    H215109   5.537   5.267   0.024  2.0912  0.6012  0.0341
 5049TIP3   OH215110   6.017   0.694   2.379  0.2040  0.4229  0.2620
 5049TIP3    H115111   6.025   0.788   2.392  0.0570  0.7509 -1.7023
 5049TIP3    H215112   6.066   0.655   2.451 -0.4649  1.9666  1.6118
 5050TIP3   OH215113   5.461   0.051   1.129  0.0941 -0.2580  0.1441
 5050TIP3    H115114   5.548   0.061   1.167  0.1511 -2.5151  0.7477
 5050TIP3    H215115   5.421  -0.020   1.179 -0.8285 -1.5811 -2.2820
 5051TIP3   OH215116   0.976   6.527   4.177 -0.1603  0.0620  0.1515
 5051TIP3    H115117   0.920   6.536   4.253  1.0876  2.0482  0.9258
 5051TIP3    H215118   1.064   6.547   4.209  0.3749  1.2700 -1.8246
 5052TIP3   OH215119   3.786   5.604   2.522 -0.1310  0.5361  0.4478
 5052TIP3    H115120   3.827   5.572   2.442  1.2695  1.5777  0.7063
 5052TIP3    H215121   3.713   5.545   2.537  1.2583 -1.4324 -0.0736
 5053TIP3   OH215122   4.311   4.742   5.238  0.0304 -0.2868 -0.3013
 5053TIP3    H115123   4.252   4.706   5.304  0.8384  2.0860  1.8802
 5053TIP3    H215124   4.273   4.826   5.215  0.5441 -0.4475 -1.8300
 5054TIP3   OH215125   0.465   3.023   4.132  0.1035 -0.2441  0.1980
 5054TIP3    H115126   0.399   3.084   4.097  2.0727  2.1250  0.2984
 5054TIP3    H215127   0.469   3.043   4.225  0.7030 -0.6117  0.2551
 5055TIP3   OH215128   5.406   2.895   3.252 -0.1288  0.2220 -0.6889
 5055TIP3    H115129   5.349   2.943   3.192 -1.1280 -0.3078 -0.1813
 5055TIP3    H215130   5.492   2.935   3.240 -0.6081  1.0652 -1.4362
 5056TIP3   OH215131   4.477   1.618   2.092 -0.1185  0.2161  0.2015
 5056TIP3    H115132   4.381   1.626   2.093 -0.1936  0.1585 -1.9398
 5056TIP3    H215133   4.494   1.541   2.038  1.1507  0.7014 -0.1347
 5057TIP3   OH215134   1.382   2.534   1.854 -0.0316  0.0270  0.4820
 5057TIP3    H115135   1.312   2.517   1.917  0.7406  0.7504  1.5635
 5057TIP3    H215136   1.411   2.623   1.873  0.2437  0.2448 -0.8840
 5058TIP3   OH215137   6.481   0.347   5.666  0.1030  0.1229 -0.0862
 5058TIP3    H115138   6.485   0.436   5.703  0.5771  0.1242 -0.1350
 5058TIP3    H215139   6.525   0.292   5.731  0.7752  0.0954 -0.5512
 5059TIP3   OH215140   2.964   4.464   5.855 -0.0822  0.0814 -0.2811
 5059TIP3    H115141   3.014   4.485   5.776  1.8401 -1.0577  0.5634
 5059TIP3    H215142   3.030   4.452   5.923 -1.4827 -1.6715  0.8650
 5060TIP3   OH215143   3.089   3.151   1.651  0.0373 -0.3513  0.0505
 5060TIP3    H115144   3.000   3.175   1.677 -0.5718 -2.7576  0.4256
 5060TIP3    H215145   3.145   3.184   1.721 -0.7740 -0.5035  0.7806
 5061TIP3   OH215146   4.050   1.371   0.050 -0.1008  0.6028  0.3379
 5061TIP3    H115147   4.040   1.286   0.006  1.1853  0.5152  0.1727
 5061TIP3    H215148   4.057   1.349   0.143 -0.1185  0.5537  0.3277
 5062TIP3   OH215149   4.826   2.051   0.501  0.1055  0.1372 -0.1564
 5062TIP3    H115150   4.823   2.065   0.595 -1.0067  1.3169 -0.3476
 5062TIP3    H215151   4.914   2.015   0.485  0.3332 -0.0161  1.2982
 5063TIP3   OH215152   1.193   2.580   5.224  0.4174  0.0437  0.2183
 5063TIP3    H115153   1.119   2.526   5.252  0.1177 -0.5220 -1.5041
 5063TIP3    H215154   1.162   2.670   5.231 -0.0232 -0.1383  0.6163
 5064TIP3   OH215155   1.465   6.363   1.107 -0.5283 -0.0144 -0.2349
 5064TIP3    H115156   1.504   6.284   1.145  0.3900  0.2670 -0.5515
 5064TIP3    H215157   1.503   6.368   1.019  0.1077  1.2341  0.0811
 5065TIP3   OH215158   4.321   2.599   1.755 -0.1500  0.2468 -0.0447
 5065TIP3    H115159   4.396   2.650   1.726  0.2620 -0.2815  0.0728
 5065TIP3    H215160   4.336   2.583   1.848  0.1722 -0.8107 -0.2622
 5066TIP3   OH215161   1.810   4.873   1.640 -0.1343 -0.7238 -0.2325
 5066TIP3    H115162   1.758   4.793   1.646 -0.9783 -0.1877 -0.3006
 5066TIP3    H215163   1.825   4.899   1.731 -1.0754 -0.1901 -0.2199
 5067TIP3   OH215164   3.991   0.735   1.156  0.2224 -0.0963 -0.7640
 5067TIP3    H115165   4.052   0.744   1.229  1.0385 -1.3900 -1.2615
 5067TIP3    H215166   4.026   0.663   1.103 -0.0922  1.0855 -2.6883
 5068TIP3   OH215167   2.489   5.096   1.482  0.3992 -0.5533 -0.0308
 5068TIP3    H115168   2.481   5.004   1.510  1.1629 -0.3586  0.8763
 5068TIP3    H215169   2.576   5.122   1.511 -0.4263  0.9639  1.2318
 5069TIP3   OH215170   2.424   6.526   0.714  0.7680 -0.3706 -0.4069
 5069TIP3    H115171   2.380   6.441   0.719  1.4930 -1.0631 -3.5817
 5069TIP3    H215172   2.511   6.506   0.679  0.5750  1.7102 -2.3051
 5070TIP3   OH215173   1.730   0.763   3.946 -0.2039 -0.3903 -0.4167
 5070TIP3    H115174   1.793   0.760   4.018  0.5676 -0.1799 -1.0634
 5070TIP3    H215175   1.705   0.856   3.939 -1.1112 -0.5687  0.2657
 5071TIP3   OH215176   6.119   5.649   4.362 -0.4066 -0.4270 -0.1963
 5071TIP3    H115177   6.152   5.705   4.433  0.8906  0.5484 -1.5209
 5071TIP3    H215178   6.190   5.587   4.345 -0.5124 -0.3539 -0.9454
 5072TIP3   OH215179   5.361   5.344   1.024  0.0057  0.4564  0.1781
 5072TIP3    H115180   5.414   5.347   1.104  0.6233 -2.2765 -0.0540
 5072TIP3    H215181   5.404   5.407   0.965  0.2626  1.6026  1.5360
 5073TIP3   OH215182   5.934   0.492   0.978  0.5173  0.1971 -0.0987
 5073TIP3    H115183   5.956   0.496   1.071  1.3775  1.1932 -0.3337
 5073TIP3    H215184   6.011   0.527   0.933 -0.1963  0.4822 -1.1393
 5074TIP3   OH215185   6.074   4.994   5.824 -0.4107  0.6988  0.1477
 5074TIP3    H115186   5.987   5.024   5.798  0.9156  2.9016 -2.1280
 5074TIP3    H215187   6.067   4.984   5.919 -2.6858  2.4687  0.2691
 5075TIP3   OH215188   3.349   3.330   4.531 -0.0196  0.0288  0.0264
 5075TIP3    H115189   3.376   3.288   4.449 -0.8266  0.0705 -0.2752
 5075TIP3    H215190   3.425   3.322   4.588  0.1480 -1.0737 -0.3166
 5076TIP3   OH215191   2.053   6.669   3.170 -0.4199 -0.4155  0.3441
 5076TIP3    H115192   2.121   6.672   3.237  1.0058 -0.4230 -1.0483
 5076TIP3    H215193   2.093   6.622   3.097 -1.5143  0.5677 -0.9398
 5077TIP3   OH215194   2.693   0.244   3.369  0.2033 -0.6468  0.2217
 5077TIP3    H115195   2.641   0.222   3.292  0.0687  1.4366 -0.3495
 5077TIP3    H215196   2.673   0.336   3.386  1.3739 -0.6503  1.8491
 5078TIP3   OH215197   1.291   2.334   1.322 -0.2826  0.1534  0.5638
 5078TIP3    H115198   1.248   2.351   1.238 -0.7839  1.2618  1.0182
 5078TIP3    H215199   1.336   2.417   1.342  0.4836 -0.3635  1.0162
 5079TIP3   OH215200   5.766   3.139   1.942  0.3378 -0.0452 -0.2032
 5079TIP3    H115201   5.710   3.071   1.979  0.4584 -0.3505 -0.5803
 5079TIP3    H215202   5.705   3.207   1.913  0.3158  1.2224  2.4903
 5080TIP3   OH215203   1.823   2.517   0.671 -0.5083  0.2538  0.0124
 5080TIP3    H115204   1.878   2.455   0.719  0.6399  1.6360  0.5806
 5080TIP3    H215205   1.747   2.466   0.643 -0.0903 -1.1616  1.3034
 5081TIP3   OH215206   2.775   1.251   3.477  0.1838 -1.3652 -0.1790
 5081TIP3    H115207   2.693   1.224   3.437 -0.3551  0.4775 -0.4136
 5081TIP3    H215208   2.840   1.187   3.446 -0.5446 -1.0116 -2.6026
 5082TIP3   OH215209   2.104   1.720   3.278  0.2876 -0.2218  0.1283
 5082TIP3    H115210   2.179   1.731   3.219 -0.0709  1.8673 -0.0094
 5082TIP3    H215211   2.143   1.687   3.359  1.2042 -0.2259 -0.2987
 5083TIP3   OH215212   1.147   3.179   2.534 -0.0493 -0.0217  0.4269
 5083TIP3    H115213   1.158   3.273   2.518 -0.4947  0.0830  0.7164
 5083TIP3    H215214   1.052   3.165   2.532  0.0343 -0.5668 -0.1778
 5084TIP3   OH215215   3.511   1.437   4.189  0.6345 -0.4135  0.1832
 5084TIP3    H115216   3.484   1.351   4.157  1.7688 -0.0630 -1.8690
 5084TIP3    H215217   3.549   1.480   4.113  0.9477  1.5679  1.3957
 5085TIP3   OH215218   3.616   2.194   4.614 -0.4089  0.0409  0.0549
 5085TIP3    H115219   3.584   2.285   4.622 -1.8088 -0.5747  3.0550
 5085TIP3    H215220   3.542   2.141   4.643  1.0787 -1.9431  0.3980
 5086TIP3   OH215221   5.116   0.357   3.348 -0.4192  0.4419 -0.2330
 5086TIP3    H115222   5.045   0.410   3.312 -0.7793  0.5588  0.6254
 5086TIP3    H215223   5.192   0.379   3.295 -0.5181  1.9773  0.2244
 5087TIP3   OH215224   2.446   1.506   1.313 -0.3581  0.6778 -0.6483
 5087TIP3    H115225   2.483   1.593   1.296  0.3517  0.3242 -0.9409
 5087TIP3    H215226   2.479   1.483   1.400 -1.2289  1.0436 -0.2036
 5088TIP3   OH215227   0.863   5.395   2.402 -0.0209 -0.1197  0.2155
 5088TIP3    H115228   0.778   5.382   2.361 -0.5466  1.8706  0.5538
 5088TIP3    H215229   0.843   5.426   2.490  1.0321  0.8291  0.1481
 5089TIP3   OH215230   6.928   6.444   2.492  0.3459 -0.2600 -0.0953
 5089TIP3    H115231   6.875   6.523   2.496  1.5062  0.5114  0.7306
 5089TIP3    H215232   6.992   6.461   2.422  0.2564 -0.6949 -0.2867
 5090TIP3   OH215233   4.720   1.547   0.816  0.0409  0.3321 -0.2497
 5090TIP3    H115234   4.674   1.575   0.738 -0.4916 -1.6746 -0.7012
 5090TIP3    H215235   4.665   1.478   0.854  2.5257 -2.1044 -0.7647
 5091TIP3   OH215236   5.662   6.023   5.263 -0.2237  0.2129 -0.0120
 5091TIP3    H115237   5.606   6.019   5.186  0.8926  0.0110 -0.8347
 5091TIP3    H215238   5.706   6.108   5.256  1.6902 -0.8075 -0.9218
 5092TIP3   OH215239   6.462   4.501   5.813 -0.5984  0.1381 -0.1508
 5092TIP3    H115240   6.521   4.427   5.827  0.4620  1.1931  1.2727
 5092TIP3    H215241   6.487   4.536   5.727  0.6144  0.3191  0.2486
 5093TIP3   OH215242   7.056   1.710   2.471  0.0808  0.7174 -0.1797
 5093TIP3    H115243   7.135   1.755   2.499  1.2607 -1.7454  0.7783
 5093TIP3    H215244   7.080   1.667   2.389  0.5426 -1.6803  1.0843
 5094TIP3   OH215245   4.410   0.068   4.532 -0.2557  0.6837 -0.1493
 5094TIP3    H115246   4.460  -0.009   4.506 -2.0017 -0.5284 -0.0764
 5094TIP3    H215247   4.456   0.102   4.609 -0.6785 -1.6150  1.1957
 5095TIP3   OH215248   5.697   0.086   2.721  0.2621  0.3008 -0.8823
 5095TIP3    H115249   5.742   0.111   2.802 -0.6310  1.1888 -0.6369
 5095TIP3    H215250   5.733   0.145   2.655  0.2458  0.2679 -0.9204
 5096TIP3   OH215251   5.264   6.762   0.221 -0.3919 -0.4612  0.3565
 5096TIP3    H115252   5.224   6.679   0.247  0.6659 -1.7776 -1.9596
 5096TIP3    H215253   5.228   6.780   0.135  0.7691  0.5493  0.0575
 5097TIP3   OH215254   5.096   0.961   0.484  0.0639  0.3571  0.3718
 5097TIP3    H115255   5.037   1.032   0.509  0.9207  0.4613  2.2288
 5097TIP3    H215256   5.183   1.003   0.480  0.2221 -0.0409 -1.1940
 5098TIP3   OH215257   3.937   5.552   5.861 -0.4687  0.1211  0.0610
 5098TIP3    H115258   4.028   5.533   5.836 -0.5441 -0.7381  0.3962
 5098TIP3    H215259   3.901   5.599   5.786  0.7060  1.9555  0.5630
 5099TIP3   OH215260   3.626   0.388   1.097 -0.0237 -0.3590  0.1654
 5099TIP3    H115261   3.628   0.364   1.190  0.3554  0.0905  0.2778
 5099TIP3    H215262   3.534   0.378   1.072 -0.1279 -0.4907  0.5907
 5100TIP3   OH215263   5.758   0.789   4.710  0.8556  0.3919  0.4203
 5100TIP3    H115264   5.833   0.746   4.752  0.3230  0.1210  1.1174
 5100TIP3    H215265   5.685   0.728   4.724  0.6036  0.4342 -0.6616
 5101TIP3   OH215266   5.482   4.997   3.093  0.2480 -0.4243 -0.0877
 5101TIP3    H115267   5.550   4.931   3.093 -0.6837 -1.4121  0.2855
 5101TIP3    H215268   5.471   5.021   3.001 -1.9251 -3.5174 -0.8109
 5102TIP3   OH215269   5.562   2.963   1.700  0.0647 -0.2628 -0.1099
 5102TIP3    H115270   5.530   2.990   1.787  0.4668  0.1322 -0.0813
 5102TIP3    H215271   5.565   3.045   1.650 -1.1064 -0.6214 -0.8068
 5103TIP3   OH215272   1.408   0.781   4.093 -0.4584  0.5425 -0.3015
 5103TIP3    H115273   1.435   0.847   4.030 -0.4765  0.2553 -0.6132
 5103TIP3    H215274   1.316   0.762   4.071 -1.6811  3.0363  2.0501
 5104TIP3   OH215275   3.255   1.849   4.355 -0.5415 -0.7923 -0.2943
 5104TIP3    H115276   3.239   1.822   4.445  0.2115 -0.3725 -0.0343
 5104TIP3    H215277   3.246   1.768   4.304 -0.0091 -1.2095  0.2669
 5105TIP3   OH215278   5.468   6.571   1.117  0.5402 -0.0122 -0.2546
 5105TIP3    H115279   5.422   6.645   1.079  1.1524  0.6964  0.3726
 5105TIP3    H215280   5.419   6.549   1.195  0.2351 -0.4143 -0.5545
 5106TIP3   OH215281   6.370   6.164   3.982  0.2348  0.2232  0.3649
 5106TIP3    H115282   6.302   6.230   3.993  1.1134  1.1470  0.3901
 5106TIP3    H215283   6.416   6.162   4.066  1.7563  1.3805 -0.3769
 5107TIP3   OH215284   5.922   3.269   5.731 -0.3166 -0.7978  0.8107
 5107TIP3    H115285   5.966   3.274   5.815  0.8448 -1.6788  0.2865
 5107TIP3    H215286   5.928   3.176   5.706 -0.9218 -0.6130 -0.0906
 5108TIP3   OH215287   6.895   5.480   4.866  0.1405  0.1770 -0.0908
 5108TIP3    H115288   6.987   5.503   4.852  0.4593 -0.2225  1.2440
 5108TIP3    H215289   6.896   5.419   4.939 -1.0290 -1.3405 -1.2734
 5109TIP3   OH215290   6.396   4.182   3.131  0.3974 -0.5349  0.2323
 5109TIP3    H115291   6.459   4.121   3.090 -1.9250 -3.5314  0.7274
 5109TIP3    H215292   6.345   4.216   3.057  0.9297 -0.1093  0.0536
 5110TIP3   OH215293   1.712   1.971   0.922  0.3162 -0.1723 -0.1039
 5110TIP3    H115294   1.768   1.922   0.862  1.9154  1.6769 -0.2185
 5110TIP3    H215295   1.760   1.970   1.005 -0.5970 -0.4425  0.4356
 5111TIP3   OH215296   1.715   4.381   5.675  0.7506 -0.8320 -0.0926
 5111TIP3    H115297   1.635   4.381   5.726  0.5629 -0.9449 -0.3837
 5111TIP3    H215298   1.782   4.348   5.734  1.1924  1.8467  1.0805
 5112TIP3   OH215299   3.688   6.242   5.194 -0.0141  0.2103 -0.0936
 5112TIP3    H115300   3.598   6.241   5.161  0.4245 -1.0360 -1.3254
 5112TIP3    H215301   3.693   6.165   5.251  0.5423 -0.3060 -0.8269
 5113TIP3   OH215302   6.976   4.367   3.781  0.1275 -0.2043  0.2104
 5113TIP3    H115303   7.022   4.425   3.842  0.3101 -1.1782  1.0340
 5113TIP3    H215304   7.030   4.367   3.702 -0.1293  1.1080  0.0126
 5114TIP3   OH215305   0.905   0.079   2.896 -0.7312 -0.1349 -0.3042
 5114TIP3    H115306   0.848   0.120   2.831 -0.4609 -0.9309 -1.0556
 5114TIP3    H215307   0.949   0.008   2.849 -1.6632 -1.7309  1.1250
 5115TIP3   OH215308   5.625   1.293   1.555 -0.4311  0.2733  0.7447
 5115TIP3    H115309   5.598   1.256   1.471 -0.8011  0.3560  0.8246
 5115TIP3    H215310   5.696   1.354   1.533 -0.6891  0.4762  0.4615
 5116TIP3   OH215311   5.675   5.967   4.202  0.6929 -0.1644  0.3137
 5116TIP3    H115312   5.601   6.026   4.219 -0.4961 -1.5155  0.0470
 5116TIP3    H215313   5.721   5.961   4.286 -0.2771 -0.3171  0.8461
 5117TIP3   OH215314   3.378   5.393   1.036 -0.4627  0.0715 -0.2192
 5117TIP3    H115315   3.380   5.478   1.079  1.2461  0.3599 -0.8054
 5117TIP3    H215316   3.462   5.387   0.990 -1.5690 -0.8776 -2.2475
 5118TIP3   OH215317   6.739   0.300   1.758  0.5721 -0.1826  0.2183
 5118TIP3    H115318   6.681   0.352   1.702  1.3312  0.5147  0.0592
 5118TIP3    H215319   6.709   0.319   1.847 -0.3710 -0.9727  0.0878
 5119TIP3   OH215320   1.034   3.365   3.857  0.2659 -0.1834  0.0322
 5119TIP3    H115321   1.127   3.346   3.869  0.2105 -0.3749  0.1511
 5119TIP3    H215322   0.989   3.287   3.888  0.1304 -1.0919 -2.2290
 5120TIP3   OH215323   2.263   4.925   1.873 -0.1308  0.0955  0.0551
 5120TIP3    H115324   2.324   4.936   1.800  1.7374  0.8230  1.6399
 5120TIP3    H215325   2.273   5.004   1.925 -1.0724 -0.5945  1.3439
 5121TIP3   OH215326   2.834   3.369   2.973  0.3164 -0.0781  0.1333
 5121TIP3    H115327   2.854   3.278   2.993 -0.8222 -0.0634  1.4794
 5121TIP3    H215328   2.742   3.368   2.946  0.8037  0.4362 -1.6923
 5122TIP3   OH215329   0.050   6.640   5.236 -0.1711  0.1313 -0.0776
 5122TIP3    H115330  -0.025   6.700   5.230  0.1955  0.6697  0.6199
 5122TIP3    H215331   0.050   6.594   5.152  0.0751  1.7639 -1.0182
 5123TIP3   OH215332   3.138   1.064   5.537 -0.2336 -1.0525 -0.0494
 5123TIP3    H115333   3.164   0.976   5.565 -1.0862 -0.8791  1.4098
 5123TIP3    H215334   3.043   1.057   5.524 -0.2353 -0.4581 -0.3956
 5124TIP3   OH215335   1.575   5.042   5.455 -0.0309 -0.3713 -0.3197
 5124TIP3    H115336   1.609   4.973   5.513  0.9285  0.1955 -0.1774
 5124TIP3    H215337   1.500   5.003   5.411  0.6343 -1.5762 -0.4053
 5125TIP3   OH215338   6.784   4.438   5.693 -0.1689 -0.2157  0.0925
 5125TIP3    H115339   6.781   4.520   5.741  3.4089 -0.6981  1.4872
 5125TIP3    H215340   6.759   4.372   5.758 -0.0692 -0.4592 -0.1143
 5126TIP3   OH215341   4.902   1.274   5.611 -0.1817 -0.0534 -0.0742
 5126TIP3    H115342   4.960   1.332   5.660  1.2159 -0.9419 -0.6095
 5126TIP3    H215343   4.945   1.265   5.526 -1.0420 -0.8514 -0.4317
 5127TIP3   OH215344   5.605   5.673   4.417 -0.1341  0.9374  0.5202
 5127TIP3    H115345   5.548   5.747   4.436 -1.4851  0.0785 -0.0217
 5127TIP3    H215346   5.684   5.689   4.468 -0.9861  2.0162  1.5400
 5128TIP3   OH215347   2.508   3.857   4.998  0.4841 -0.0635  0.0973
 5128TIP3    H115348   2.577   3.866   5.064  0.4584  0.4656  0.0531
 5128TIP3    H215349   2.484   3.764   5.001  1.5045 -0.3551 -0.1941
 5129TIP3   OH215350   0.358   6.535   1.658  0.4602 -0.3055  0.4608
 5129TIP3    H115351   0.290   6.598   1.684 -0.7738 -1.6612  0.6298
 5129TIP3    H215352   0.310   6.464   1.615  1.9136 -0.7268 -0.5402
 5130TIP3   OH215353   0.748   0.319   1.828  0.0912  0.5560 -0.1255
 5130TIP3    H115354   0.753   0.363   1.743 -0.6226 -0.1565 -0.5435
 5130TIP3    H215355   0.667   0.351   1.867  0.2234  0.5893  0.1253
 5131TIP3   OH215356   6.219   4.459   3.026  0.6225 -0.4275 -0.3922
 5131TIP3    H115357   6.184   4.382   2.981 -0.5647  0.0434 -0.3236
 5131TIP3    H215358   6.201   4.532   2.967  0.1386  0.0308  0.3046
 5132TIP3   OH215359   6.670   2.692   1.477  0.6793 -0.9164  0.6369
 5132TIP3    H115360   6.737   2.748   1.439  0.8072  0.2199  2.4104
 5132TIP3    H215361   6.708   2.662   1.560 -0.9247 -0.3036  1.6493
 5133TIP3   OH215362   6.062   2.944   4.251  0.0812  0.1879 -0.7277
 5133TIP3    H115363   6.011   2.932   4.331 -0.7777  1.0619 -1.1236
 5133TIP3    H215364   6.092   2.856   4.229  1.7750  0.1286  1.4633
 5134TIP3   OH215365   4.017   5.636   2.334 -0.5660  0.1988 -0.2155
 5134TIP3    H115366   3.999   5.643   2.240  4.0598 -0.6871 -1.4310
 5134TIP3    H215367   4.009   5.726   2.367 -0.7449  0.8005 -1.8006
 5135TIP3   OH215368   2.232   1.356   1.035 -0.1588 -0.5006 -0.4172
 5135TIP3    H115369   2.257   1.314   0.952  0.0599 -1.1376 -0.0321
 5135TIP3    H215370   2.202   1.444   1.009  0.6307 -0.4178 -1.0864
 5136TIP3   OH215371   0.822   5.153   5.661 -0.8218  0.3206  0.1146
 5136TIP3    H115372   0.876   5.111   5.594 -1.3863  2.8942 -2.1451
 5136TIP3    H215373   0.747   5.095   5.672 -0.4634 -0.4146 -1.1577
 5137TIP3   OH215374   4.909   3.884   2.889  0.0511 -0.0001 -0.5694
 5137TIP3    H115375   4.818   3.855   2.882 -0.4515  1.0909  0.9025
 5137TIP3    H215376   4.911   3.968   2.842  0.9959 -1.2776 -2.9717
 5138TIP3   OH215377   1.568   0.207   0.226 -0.5243 -0.2865 -0.1161
 5138TIP3    H115378   1.479   0.234   0.206  0.0066  2.3040  0.6144
 5138TIP3    H215379   1.573   0.116   0.197 -3.5568 -0.7140  0.4160
 5139TIP3   OH215380   0.815   1.350   5.405 -0.0418  0.7873 -0.6215
 5139TIP3    H115381   0.839   1.270   5.452 -0.1570  0.1441 -1.6342
 5139TIP3    H215382   0.734   1.379   5.448  1.4399  1.9211  1.5531
 5140TIP3   OH215383   2.558   6.105   5.510 -0.3231  0.1806  0.2747
 5140TIP3    H115384   2.643   6.136   5.479 -0.0406  0.1815  1.0358
 5140TIP3    H215385   2.495   6.170   5.478  0.0150  0.4386  0.1324
 5141TIP3   OH215386   1.957   1.143   5.733  0.8870 -0.2456 -0.0962
 5141TIP3    H115387   2.017   1.076   5.700 -1.8452 -2.9684  0.0429
 5141TIP3    H215388   1.896   1.158   5.661 -0.8316 -0.8532  1.1744
 5142TIP3   OH215389   5.852   6.805   5.221 -0.0573 -0.3676  0.1732
 5142TIP3    H115390   5.757   6.808   5.233 -0.0167  0.3120  0.3874
 5142TIP3    H215391   5.885   6.766   5.301  0.1552  3.4957  2.2267
 5143TIP3   OH215392   1.214   5.510   1.254 -0.7660 -0.2684 -0.4252
 5143TIP3    H115393   1.162   5.431   1.271 -2.1998  0.2399 -2.1720
 5143TIP3    H215394   1.168   5.580   1.300 -0.2689 -0.1922 -0.0279
 5144TIP3   OH215395   2.558   2.843   0.331  0.2062  0.1420 -0.4375
 5144TIP3    H115396   2.536   2.792   0.410  1.9633  1.4389  0.9614
 5144TIP3    H215397   2.474   2.878   0.301 -0.4163  0.2906  1.3591
 5145TIP3   OH215398   0.519   4.135   1.031  0.1325 -0.2323  0.4670
 5145TIP3    H115399   0.516   4.152   1.125  2.4700 -0.5027  0.6524
 5145TIP3    H215400   0.476   4.050   1.020 -0.4466 -0.0490  1.2195
 5146TIP3   OH215401   2.630   5.412   1.006 -0.4662  0.3012  0.2608
 5146TIP3    H115402   2.672   5.497   0.995 -1.5489  0.9556  0.9698
 5146TIP3    H215403   2.594   5.415   1.095  0.0184 -1.1475  0.5293
 5147TIP3   OH215404   4.845   4.081   3.307 -0.5459  0.1128 -0.0490
 5147TIP3    H115405   4.876   3.991   3.297  0.3216  0.1537  1.8623
 5147TIP3    H215406   4.856   4.100   3.400 -0.8494  2.1526 -0.3842
 5148TIP3   OH215407   6.273   5.863   4.028 -0.4698  0.3370 -0.0271
 5148TIP3    H115408   6.344   5.895   4.084 -0.3736  2.5374 -1.2569
 5148TIP3    H215409   6.194   5.881   4.078 -0.3002  0.6731  0.1266
 5149TIP3   OH215410   6.196   6.048   3.817 -0.2264  0.1875  0.2474
 5149TIP3    H115411   6.215   5.962   3.856  2.2933  0.1221 -0.9388
 5149TIP3    H215412   6.238   6.110   3.876 -0.5468  0.4897  0.1601
 5150TIP3   OH215413   4.087   4.096   4.960 -0.1453 -0.0095 -0.5214
 5150TIP3    H115414   4.058   4.104   4.869 -0.5580 -1.9525 -0.6123
 5150TIP3    H215415   4.099   4.001   4.973  0.2727  0.2571  1.3375
 5151TIP3   OH215416   6.623   2.579   4.500 -0.6101  0.3713  0.2820
 5151TIP3    H115417   6.697   2.586   4.561  1.8875  3.1996 -2.6587
 5151TIP3    H215418   6.654   2.521   4.431 -2.2849 -0.5593  0.2529
 5152TIP3   OH215419   0.610   6.266   4.749  0.6362  0.1925  0.5431
 5152TIP3    H115420   0.620   6.204   4.677 -1.3440  0.5887 -0.1270
 5152TIP3    H215421   0.649   6.221   4.824 -0.7874 -1.9528  0.1045
 5153TIP3   OH215422   4.837   3.186   5.646 -0.0999  0.4803  0.1046
 5153TIP3    H115423   4.746   3.158   5.650  0.2277 -0.5066  1.3530
 5153TIP3    H215424   4.834   3.281   5.653 -1.0559  0.5065 -0.4988
 5154TIP3   OH215425   3.117   5.878   1.663  0.3124 -0.4314 -0.7231
 5154TIP3    H115426   3.194   5.825   1.681  0.1332 -0.1883  0.9146
 5154TIP3    H215427   3.130   5.959   1.712 -0.4699  0.0923 -1.3374
 5155TIP3   OH215428   6.826   2.542   0.968 -0.2615  0.0585  0.5589
 5155TIP3    H115429   6.755   2.603   0.989  0.5696  1.6953 -1.0768
 5155TIP3    H215430   6.827   2.481   1.041 -3.2142  0.0586  0.7303
 5156TIP3   OH215431   3.212   6.239   5.888  0.1223  0.3126  0.0512
 5156TIP3    H115432   3.162   6.172   5.841  2.0663 -0.3939 -1.1389
 5156TIP3    H215433   3.147   6.304   5.913 -1.9031 -2.0411  1.3801
 5157TIP3   OH215434   6.203   2.239   0.440 -0.1883 -0.2915 -0.1991
 5157TIP3    H115435   6.293   2.269   0.427 -0.4260 -0.6802 -3.5768
 5157TIP3    H215436   6.210   2.144   0.448 -0.2686 -0.2541  0.3973
 5158TIP3   OH215437   0.911   1.406   4.948  0.0449  0.0481 -0.2393
 5158TIP3    H115438   0.845   1.466   4.913  1.0527  0.3696 -1.6767
 5158TIP3    H215439   0.920   1.339   4.879 -0.1654 -1.0770  0.7928
 5159TIP3   OH215440   3.408   3.278   3.601 -0.1463  0.2592 -0.2844
 5159TIP3    H115441   3.472   3.347   3.612 -0.3419  0.4361 -0.2495
 5159TIP3    H215442   3.388   3.249   3.690 -0.2915  0.3656 -0.2831
 5160TIP3   OH215443   5.297   2.401   1.018 -0.1617  0.0290 -0.4683
 5160TIP3    H115444   5.269   2.429   0.931  0.2738  0.5540 -0.4504
 5160TIP3    H215445   5.217   2.398   1.070 -0.6077 -1.5084 -1.1936
 5161TIP3   OH215446   0.303   0.478   5.414  0.4420  0.1779  0.5757
 5161TIP3    H115447   0.230   0.538   5.430  1.3136  1.5636 -0.4633
 5161TIP3    H215448   0.293   0.450   5.323  1.1449  0.2920  0.4582
 5162TIP3   OH215449   1.369   5.312   4.601 -0.4188  0.0529 -0.0356
 5162TIP3    H115450   1.430   5.240   4.615 -0.9962 -0.4524 -0.1041
 5162TIP3    H215451   1.288   5.271   4.572 -0.3659  0.8123 -1.3524
 5163TIP3   OH215452   7.090   1.073   2.696  0.7374  0.5263 -0.0452
 5163TIP3    H115453   7.041   1.059   2.778  1.3566 -1.9131 -0.0259
 5163TIP3    H215454   7.147   1.147   2.715 -0.5745  1.3234  1.0232
 5164TIP3   OH215455   0.595   1.906   5.100 -0.3308 -0.3620  0.8238
 5164TIP3    H115456   0.536   1.837   5.068 -0.3300  0.1966 -0.4483
 5164TIP3    H215457   0.642   1.865   5.173 -1.7565 -1.0602  1.3995
 5165TIP3   OH215458   1.949   1.992   0.144 -0.2300  0.3415 -0.2287
 5165TIP3    H115459   1.878   2.010   0.205  0.0109  1.6747 -0.3007
 5165TIP3    H215460   2.009   2.066   0.155  1.5381 -1.0978  0.3640
 5166TIP3   OH215461   1.168   2.929   3.832  0.1234  0.0973  0.2633
 5166TIP3    H115462   1.163   2.847   3.881 -1.0284 -0.1755 -0.2593
 5166TIP3    H215463   1.244   2.919   3.775  0.2548 -0.4257  0.5246
 5167TIP3   OH215464   6.417   6.188   3.129  0.4315 -0.1953 -0.5615
 5167TIP3    H115465   6.443   6.224   3.214  0.6145 -0.9995 -0.2682
 5167TIP3    H215466   6.392   6.265   3.078  0.4917  0.3189  0.1548
 5168TIP3   OH215467   3.082   3.371   4.516  0.3182 -0.3872 -0.4143
 5168TIP3    H115468   3.172   3.342   4.533  0.5032  1.3394  1.9854
 5168TIP3    H215469   3.027   3.302   4.553  0.6162 -1.2549 -1.5337
 5169TIP3   OH215470   2.747   3.117   1.224  0.0986  0.0333 -0.2529
 5169TIP3    H115471   2.690   3.155   1.291  0.9659  0.3176  0.3369
 5169TIP3    H215472   2.799   3.052   1.270 -0.4665 -0.9741 -0.9992
 5170TIP3   OH215473   3.697   2.930   3.257  0.5492 -0.0437  0.3594
 5170TIP3    H115474   3.672   3.017   3.288 -1.1466 -0.4397  0.1799
 5170TIP3    H215475   3.789   2.920   3.284  1.1714  2.2636 -0.6640
 5171TIP3   OH215476   6.286   2.895   1.032  0.6737  0.5680  0.1424
 5171TIP3    H115477   6.359   2.841   1.062 -1.0281 -2.0156 -0.0417
 5171TIP3    H215478   6.277   2.874   0.939 -1.2983 -0.5525  0.5176
 5172TIP3   OH215479   1.973   3.391   2.058 -0.5012 -0.7003  0.0237
 5172TIP3    H115480   1.948   3.305   2.090  1.8346 -1.5099 -0.1907
 5172TIP3    H215481   2.045   3.375   1.998 -1.2626  1.2589 -1.5451
 5173TIP3   OH215482   0.536   1.828   4.125 -0.6464 -0.1970 -0.1878
 5173TIP3    H115483   0.625   1.861   4.134 -0.9182  0.9403 -1.3384
 5173TIP3    H215484   0.483   1.888   4.178 -0.9416  0.2613 -0.9880
 5174TIP3   OH215485   1.036   0.593   1.278  0.3470 -0.5436 -0.0819
 5174TIP3    H115486   1.035   0.575   1.184 -2.9580  1.6655 -0.6644
 5174TIP3    H215487   1.086   0.674   1.286  1.2503 -1.1175  0.2047
 5175TIP3   OH215488   6.286   2.074   5.556 -0.3412 -0.0502 -0.0696
 5175TIP3    H115489   6.257   1.993   5.598  0.9985 -1.3501 -1.5084
 5175TIP3    H215490   6.381   2.063   5.546 -0.2778  1.2685 -1.1780
 5176TIP3   OH215491   3.239   1.652   3.936  0.8173  0.0233 -0.3191
 5176TIP3    H115492   3.216   1.647   4.029 -0.6906 -1.7739 -0.7336
 5176TIP3    H215493   3.292   1.732   3.929 -0.1642  0.9511  1.8330
 5177TIP3   OH215494   1.055   4.106   1.710 -0.3071  0.1586  0.0162
 5177TIP3    H115495   0.995   4.181   1.711 -0.2294  0.2576 -1.3883
 5177TIP3    H215496   1.110   4.120   1.633  2.0301  0.4298  1.6178
 5178TIP3   OH215497   6.704   2.602   3.555 -0.2702  0.5029  0.4366
 5178TIP3    H115498   6.711   2.562   3.642  1.2843 -1.4202 -0.4991
 5178TIP3    H215499   6.611   2.592   3.532 -0.3163 -0.8321  1.0688
 5179TIP3   OH215500   3.490   0.654   2.733  0.1773 -0.0530 -0.1696
 5179TIP3    H115501   3.533   0.732   2.698  1.1147 -0.0752  0.8733
 5179TIP3    H215502   3.501   0.661   2.828 -2.3076  0.0108  0.1604
 5180TIP3   OH215503   2.392   4.644   2.811 -0.1585  0.3603  0.2058
 5180TIP3    H115504   2.433   4.696   2.880 -0.0146  0.7954 -0.2031
 5180TIP3    H215505   2.376   4.559   2.851  1.5481  0.0243  0.2475
 5181TIP3   OH215506   2.560   2.140   5.419 -0.3662  0.1376  0.3495
 5181TIP3    H115507   2.565   2.061   5.473  0.5191 -0.9079 -1.1903
 5181TIP3    H215508   2.608   2.206   5.469  0.7008 -0.8844  0.7059
 5182TIP3   OH215509   2.369   0.097   5.469 -1.0266  0.3663  0.0128
 5182TIP3    H115510   2.459   0.114   5.442 -1.0035  3.0054  1.3691
 5182TIP3    H215511   2.322   0.076   5.389  0.0919  2.5767 -1.3096
 5183TIP3   OH215512   0.911   6.258   1.285 -0.2257  0.3641  0.2876
 5183TIP3    H115513   0.965   6.252   1.205  1.0026 -0.4828  1.1360
 5183TIP3    H215514   0.840   6.317   1.261  1.7806  2.6251 -0.4976
 5184TIP3   OH215515   3.410   0.367   0.179  0.1158  0.3085  0.3775
 5184TIP3    H115516   3.316   0.348   0.180  0.1405  0.1784  0.2470
 5184TIP3    H215517   3.414   0.462   0.171 -0.0048  0.3676  0.9880
 5185TIP3   OH215518   0.066   2.724   1.750  0.0172  0.3679 -0.0150
 5185TIP3    H115519   0.044   2.702   1.659 -1.8092 -0.7807  0.6252
 5185TIP3    H215520  -0.018   2.718   1.796  1.0118  0.2137  1.8749
 5186TIP3   OH215521   1.511   2.523   2.409  0.0467  0.1452 -0.0819
 5186TIP3    H115522   1.492   2.610   2.374 -1.1990  0.1055  0.4421
 5186TIP3    H215523   1.494   2.464   2.335  0.6696  0.3233 -0.3710
 5187TIP3   OH215524   0.794   4.960   0.596  0.3765  1.0074  0.2052
 5187TIP3    H115525   0.788   5.047   0.556  0.9657  0.5156 -1.0173
 5187TIP3    H215526   0.715   4.915   0.566  0.4487  0.8787  0.2059
 5188TIP3   OH215527   0.055   1.916   4.005 -0.6183  0.6205  0.1756
 5188TIP3    H115528  -0.000   1.860   4.060  0.8704 -1.6498 -0.5210
 5188TIP3    H215529   0.133   1.864   3.988  0.4682  2.5934 -1.2782
 5189TIP3   OH215530   3.419   3.830   1.143 -0.6390  0.0677  0.0157
 5189TIP3    H115531   3.343   3.818   1.086  0.1120  0.3023 -1.0528
 5189TIP3    H215532   3.472   3.896   1.098  0.4890 -0.5275  0.4617
 5190TIP3   OH215533   3.735   6.642   1.810  1.0903 -0.1040 -0.6017
 5190TIP3    H115534   3.807   6.614   1.754  0.0158 -1.0877 -1.5469
 5190TIP3    H215535   3.762   6.728   1.843  1.4670  0.8992 -3.2381
 5191TIP3   OH215536   5.561   2.215   3.504  1.1293  0.1373 -0.2496
 5191TIP3    H115537   5.614   2.293   3.522  0.0763  1.1133 -1.1888
 5191TIP3    H215538   5.482   2.249   3.461  0.5606 -1.4371 -0.5249
 5192TIP3   OH215539   3.078   3.905   3.307  0.1604 -1.0360 -0.5844
 5192TIP3    H115540   3.080   3.994   3.343 -1.1783 -0.8418 -0.9415
 5192TIP3    H215541   3.068   3.848   3.383  0.0743 -0.8203 -0.4341
 5193TIP3   OH215542   1.776   2.621   5.795  0.0254 -0.3167  0.5981
 5193TIP3    H115543   1.872   2.614   5.797  0.3243  1.3512 -2.2768
 5193TIP3    H215544   1.760   2.714   5.782 -1.9665 -0.7256 -0.1370
 5194TIP3   OH215545   2.771   4.218   3.507 -0.2953 -0.2645 -0.0695
 5194TIP3    H115546   2.777   4.124   3.522  0.8729  0.0131  1.4592
 5194TIP3    H215547   2.687   4.243   3.543  0.3251 -0.4167  1.5583
 5195TIP3   OH215548   6.734   5.269   2.842  0.1476  0.1428  0.3376
 5195TIP3    H115549   6.651   5.222   2.845  0.5389 -0.5709  2.9795
 5195TIP3    H215550   6.716   5.354   2.881  0.1513  1.0415 -1.4962
 5196TIP3   OH215551   4.643   2.037   3.753 -0.0904  0.9495  0.0973
 5196TIP3    H115552   4.556   2.026   3.715  0.0868 -0.3212  0.0240
 5196TIP3    H215553   4.693   2.080   3.684 -0.6830  1.7919  0.1827
 5197TIP3   OH215554   5.930   2.309  -0.001  0.0254 -0.2320  0.2174
 5197TIP3    H115555   5.993   2.258   0.050  1.6057  0.1931 -1.2285
 5197TIP3    H215556   5.982   2.379  -0.040 -1.2449 -0.2015 -1.5179
 5198TIP3   OH215557   2.893   2.947   2.609 -0.1417 -0.1382  0.0446
 5198TIP3    H115558   2.906   2.854   2.628  0.4020  0.1854  1.3596
 5198TIP3    H215559   2.909   2.955   2.515 -4.3256 -2.0577 -1.0730
 5199TIP3   OH215560   4.206   4.262   0.754  0.1526 -0.0127 -0.6180
 5199TIP3    H115561   4.118   4.297   0.738 -0.6891 -1.2878  0.9288
 5199TIP3    H215562   4.249   4.264   0.668 -1.8873 -0.7372 -1.7097
 5200TIP3   OH215563   1.901   6.288   3.999 -0.4909 -0.3475 -0.0352
 5200TIP3    H115564   1.913   6.383   4.004 -0.1309 -0.4477  1.3647
 5200TIP3    H215565   1.830   6.276   3.936  1.2959  0.6907 -2.4178
 5201TIP3   OH215566   1.158   4.394   3.815  0.5225  0.0362  0.5062
 5201TIP3    H115567   1.197   4.460   3.757  0.4209 -0.4508 -0.1304
 5201TIP3    H215568   1.211   4.315   3.800  1.3716  0.2677  2.1137
 5202TIP3   OH215569   2.322   0.123   1.445  0.7747 -0.9646  0.1150
 5202TIP3    H115570   2.360   0.038   1.467 -1.6754 -2.0220  0.5773
 5202TIP3    H215571   2.295   0.160   1.529  1.7718  0.3103 -0.0863
 5203TIP3   OH215572   6.327   4.801   2.305  0.5634 -0.3306 -0.1146
 5203TIP3    H115573   6.334   4.893   2.283 -1.7150  0.3789  1.7489
 5203TIP3    H215574   6.415   4.777   2.337  1.6336  0.6765 -2.1695
 5204TIP3   OH215575   3.002   0.477   4.045 -0.1663 -0.2228 -0.4033
 5204TIP3    H115576   3.058   0.475   4.123 -0.7503 -1.9079  0.0163
 5204TIP3    H215577   2.976   0.568   4.037  1.1650  0.2622  0.4585
 5205TIP3   OH215578   0.600   2.126   2.977 -0.1380  0.0431  0.1655
 5205TIP3    H115579   0.594   2.079   3.061  1.2224 -0.8204 -0.1870
 5205TIP3    H215580   0.575   2.216   2.999 -0.3383 -0.2834  1.3842
 5206TIP3   OH215581   6.961   4.853   2.157 -0.0867 -0.4648  0.8018
 5206TIP3    H115582   6.956   4.873   2.250  0.5347  0.8742  0.5722
 5206TIP3    H215583   6.953   4.938   2.113  0.1769 -1.0058 -0.3414
 5207TIP3   OH215584   5.035   5.613   3.873  0.4333  0.4512 -0.3217
 5207TIP3    H115585   4.996   5.636   3.957  1.5782 -1.3400  0.7814
 5207TIP3    H215586   5.042   5.517   3.876  1.7982  0.4727 -1.8483
 5208TIP3   OH215587   5.971   4.701   0.666 -0.1213 -0.0640 -0.5821
 5208TIP3    H115588   6.008   4.763   0.729 -1.8066 -0.3164  0.7546
 5208TIP3    H215589   5.931   4.756   0.598 -0.6147  0.3077 -0.0028
 5209TIP3   OH215590   2.207   2.175   2.893  0.1820  0.5221  0.4096
 5209TIP3    H115591   2.205   2.194   2.987  1.2171 -0.5704  0.6790
 5209TIP3    H215592   2.141   2.233   2.856 -2.3670 -1.0360  2.1679
 5210TIP3   OH215593   2.649   4.345   1.578  0.4897 -0.3115  0.4753
 5210TIP3    H115594   2.569   4.397   1.576  0.1404 -0.7082  2.3752
 5210TIP3    H215595   2.701   4.378   1.504 -1.3254  0.0720 -0.6968
 5211TIP3   OH215596   0.995   5.144   2.525  0.0927 -0.8111 -0.1590
 5211TIP3    H115597   0.955   5.231   2.530 -0.5250 -1.1543  1.1511
 5211TIP3    H215598   0.936   5.095   2.467  0.1794 -0.5097 -0.5107
 5212TIP3   OH215599   3.970   4.521   2.886 -0.0347  0.0704  0.0325
 5212TIP3    H115600   3.900   4.541   2.824  0.4114  2.1598  0.1357
 5212TIP3    H215601   4.050   4.545   2.840  0.4759 -0.4849  0.6139
 5213TIP3   OH215602   4.883   2.023   5.012 -0.0803  0.0147 -0.4051
 5213TIP3    H115603   4.861   1.941   5.056  1.6641 -0.4196 -0.2583
 5213TIP3    H215604   4.900   2.085   5.083  1.9219 -0.4617 -0.4020
 5214TIP3   OH215605   6.270   5.364   4.648  0.0696 -0.5119 -0.1821
 5214TIP3    H115606   6.179   5.395   4.657  0.0622 -0.6430  0.2161
 5214TIP3    H215607   6.318   5.441   4.619  0.0799 -0.0583  0.9584
 5215TIP3   OH215608   1.051   4.741   5.295 -0.5547  0.9860  0.3865
 5215TIP3    H115609   0.982   4.800   5.264  0.3803  1.7558 -0.2568
 5215TIP3    H215610   1.114   4.738   5.224  1.0268  1.7953  1.6871
 5216TIP3   OH215611   4.463   0.821   0.277 -0.3704 -0.6719  0.3737
 5216TIP3    H115612   4.521   0.750   0.304  1.1980  0.3506 -0.1604
 5216TIP3    H215613   4.496   0.848   0.191 -0.5131  1.1000  0.8231
 5217TIP3   OH215614   6.729   0.589   1.217  0.4266 -0.3897 -0.1037
 5217TIP3    H115615   6.812   0.575   1.263  1.1714  0.7328 -1.0511
 5217TIP3    H215616   6.727   0.521   1.150 -0.1165 -1.2987  0.7921
 5218TIP3   OH215617   0.139   5.071   5.627 -0.5147 -0.0198 -0.0922
 5218TIP3    H115618   0.213   5.114   5.583 -0.6182  1.7354  1.3307
 5218TIP3    H215619   0.140   4.981   5.593  4.1059 -1.0248  1.9389
 5219TIP3   OH215620   3.833   2.811   1.377 -0.0732 -1.0256  0.3087
 5219TIP3    H115621   3.787   2.792   1.459 -0.2900 -1.8106  0.0149
 5219TIP3    H215622   3.922   2.836   1.404 -0.8142  1.2279  0.9379
 5220TIP3   OH215623   2.288   3.607   2.391 -0.5642 -0.0416  0.0624
 5220TIP3    H115624   2.311   3.602   2.483 -1.5820 -1.1341  0.2873
 5220TIP3    H215625   2.335   3.535   2.350 -0.2726  0.3168 -0.2445
 5221TIP3   OH215626   7.069   6.492   2.905 -0.0814 -0.3832  0.2122
 5221TIP3    H115627   7.068   6.414   2.961 -0.8222 -0.8438 -0.4180
 5221TIP3    H215628   6.988   6.486   2.855 -0.0694  0.7119  0.0273
 5222TIP3   OH215629   1.983   1.357   2.128  0.2334  0.5062  0.1241
 5222TIP3    H115630   2.001   1.263   2.124  0.4539  0.5351  0.4282
 5222TIP3    H215631   2.063   1.398   2.097 -0.7722  0.5477 -2.6437
 5223TIP3   OH215632   4.144   5.492   3.151 -0.3129  0.7137 -0.0313
 5223TIP3    H115633   4.060   5.537   3.155 -0.7482 -0.1738  1.2318
 5223TIP3    H215634   4.207   5.555   3.187 -0.8202  0.5454  1.1895
 5224TIP3   OH215635   6.820   4.205   1.403  0.1225 -0.3022  0.5154
 5224TIP3    H115636   6.754   4.273   1.410  0.1224 -0.3173  0.6539
 5224TIP3    H215637   6.855   4.195   1.491  1.0313  0.4275  0.2540
 5225TIP3   OH215638   0.902   2.520   3.081 -0.1003 -0.1188  0.5620
 5225TIP3    H115639   0.809   2.506   3.100 -0.1947  3.1690  3.6468
 5225TIP3    H215640   0.902   2.582   3.008 -0.3705 -0.1302  0.5496
 5226TIP3   OH215641   0.273   3.617   3.182  0.0238 -0.3703  0.0297
 5226TIP3    H115642   0.333   3.672   3.232 -1.2386  0.8371  0.2924
 5226TIP3    H215643   0.230   3.562   3.248  1.6188 -2.0739 -0.2818
 5227TIP3   OH215644   2.283   3.857   2.029 -0.4920  0.6238 -0.0468
 5227TIP3    H115645   2.208   3.908   1.999 -0.6324  1.5159  1.7067
 5227TIP3    H215646   2.246   3.772   2.054 -1.0160  1.2093  1.2197
 5228TIP3   OH215647   1.741   3.564   3.051 -0.0420 -0.1280  0.2056
 5228TIP3    H115648   1.667   3.592   2.997  1.3187  0.7683 -1.2911
 5228TIP3    H215649   1.757   3.638   3.110 -0.9530 -0.7358  1.2388
 5229TIP3   OH215650   7.134   5.175   2.779 -0.8614 -0.4088 -0.1007
 5229TIP3    H115651   7.078   5.099   2.793 -0.9477 -0.1466  1.0527
 5229TIP3    H215652   7.073   5.246   2.758 -0.7269 -0.8217 -2.0473
 5230TIP3   OH215653   3.353   4.292   3.268 -0.8170 -0.1955 -0.1851
 5230TIP3    H115654   3.373   4.205   3.234 -2.3333 -0.4992 -0.3690
 5230TIP3    H215655   3.438   4.337   3.268 -0.1275 -1.4162 -0.7766
 5231TIP3   OH215656   3.928   0.929   3.381  0.0245  0.2379  0.1463
 5231TIP3    H115657   3.888   0.888   3.458 -0.5808  0.6448  0.0571
 5231TIP3    H215658   4.022   0.914   3.392  0.1767  2.0482  2.0454
 5232TIP3   OH215659   1.356   2.833   3.570  0.3550  0.0897 -0.0979
 5232TIP3    H115660   1.295   2.820   3.497  0.6959  0.9954 -0.5587
 5232TIP3    H215661   1.396   2.919   3.553 -0.0088  0.5963  1.4885
 5233TIP3   OH215662   4.155   0.584   5.691  0.4404 -0.2102  0.0629
 5233TIP3    H115663   4.236   0.635   5.703  0.4442 -0.8175  3.6920
 5233TIP3    H215664   4.091   0.649   5.661  1.1423  1.3726  1.7634
 5234TIP3   OH215665   7.010   5.190   2.381  0.0561  0.1482 -0.1948
 5234TIP3    H115666   7.031   5.098   2.392 -0.6790  0.1308  1.3474
 5234TIP3    H215667   7.075   5.236   2.435 -1.4136  0.3166  1.5207
 5235TIP3   OH215668   5.273   6.064   0.024 -0.5515  0.2134 -0.6917
 5235TIP3    H115669   5.307   6.137  -0.028 -1.8472  1.5707  0.2651
 5235TIP3    H215670   5.225   6.106   0.095  1.5036 -1.5334  1.9282
 5236TIP3   OH215671   1.230   4.388   5.491  0.0995  0.4779 -0.1418
 5236TIP3    H115672   1.150   4.418   5.534 -0.6022  0.5292 -1.4106
 5236TIP3    H215673   1.285   4.466   5.485  0.0871  0.5288  0.4198
 5237TIP3   OH215674   2.627   2.480   3.044 -0.7403  0.1023 -0.4415
 5237TIP3    H115675   2.658   2.535   2.972 -0.2205  1.5817  0.8633
 5237TIP3    H215676   2.533   2.498   3.048 -0.5599  0.9862  0.0293
 5238TIP3   OH215677   1.919   2.468   0.337  0.0748 -0.3839  0.1070
 5238TIP3    H115678   1.969   2.547   0.358 -0.7942  0.4115 -0.6775
 5238TIP3    H215679   1.855   2.461   0.408 -0.5218  0.2348 -0.3520
 5239TIP3   OH215680   4.332   6.108   3.245  0.0011 -0.0389  0.1280
 5239TIP3    H115681   4.424   6.083   3.245 -0.0023 -0.1287  1.7194
 5239TIP3    H215682   4.332   6.201   3.268 -0.3308 -0.1731  0.6841
 5240TIP3   OH215683   6.851   0.181   1.109 -0.0157 -0.0288  0.0050
 5240TIP3    H115684   6.894   0.117   1.052 -1.0485 -0.5946 -0.1470
 5240TIP3    H215685   6.842   0.259   1.055  0.4015 -0.0480 -0.1019
 5241TIP3   OH215686   1.351   3.941   2.278 -0.6869 -0.2592  0.4573
 5241TIP3    H115687   1.378   3.866   2.332 -0.8379 -0.2726  0.5138
 5241TIP3    H215688   1.350   3.907   2.189  1.6114  0.2896  0.1526
 5242TIP3   OH215689   4.614   3.387   3.845 -0.2864  0.2887 -0.2806
 5242TIP3    H115690   4.593   3.304   3.887 -1.6250  0.8827  0.2699
 5242TIP3    H215691   4.536   3.409   3.794 -0.1718  1.4605  0.0120
 5243TIP3   OH215692   7.134   2.593   5.369  0.2744  0.0587  0.3510
 5243TIP3    H115693   7.095   2.514   5.407  0.1644  0.7922  1.8186
 5243TIP3    H215694   7.059   2.643   5.336  0.0755  0.7127  1.7193
 5244TIP3   OH215695   4.599   2.938   1.023 -0.4734 -0.2291 -0.4169
 5244TIP3    H115696   4.685   2.897   1.016 -0.1429  0.5638 -1.2713
 5244TIP3    H215697   4.554   2.913   0.942 -1.5751 -1.7567  0.6260
 5245TIP3   OH215698   2.379   3.354   3.407 -0.0300  0.2269 -0.1157
 5245TIP3    H115699   2.302   3.386   3.454  0.8576  0.4984  1.1819
 5245TIP3    H215700   2.440   3.427   3.409  0.1350  0.1614 -1.5051
 5246TIP3   OH215701   5.503   1.512   2.866 -0.1188  0.2747  0.0903
 5246TIP3    H115702   5.447   1.472   2.799  0.1044  0.1116 -0.0019
 5246TIP3    H215703   5.525   1.598   2.830 -0.4789  0.4260  0.2222
 5247TIP3   OH215704   0.635   5.390   2.258 -0.3572  0.4635  0.0283
 5247TIP3    H115705   0.574   5.444   2.309 -3.6348 -1.9943 -0.9462
 5247TIP3    H215706   0.664   5.447   2.187 -2.4661  1.4609 -0.1047
 5248TIP3   OH215707   2.502   3.433   4.357  0.5119  0.1877 -0.1737
 5248TIP3    H115708   2.525   3.473   4.441  1.3066 -1.5430  0.4704
 5248TIP3    H215709   2.471   3.507   4.304  1.8203  1.6442  0.9767
 5249TIP3   OH215710   0.197   2.963   2.371 -0.2667 -0.0627 -0.3727
 5249TIP3    H115711   0.162   3.051   2.358 -0.7226 -0.2022 -0.1127
 5249TIP3    H215712   0.122   2.905   2.355  0.1496 -0.4286 -1.0257
 5250TIP3   OH215713   0.699   4.809   5.824  0.2094  0.1457  0.3469
 5250TIP3    H115714   0.659   4.893   5.802  0.2834 -0.3287 -1.8768
 5250TIP3    H215715   0.626   4.747   5.825  0.5163 -0.2833 -1.2255
 5251TIP3   OH215716   0.360   0.631   1.576 -0.1865 -0.2526 -0.1665
 5251TIP3    H115717   0.411   0.689   1.519 -2.0608  2.9922  1.1806
 5251TIP3    H215718   0.401   0.641   1.662 -1.0026 -0.3057  0.2363
 5252TIP3   OH215719   3.147   4.091   4.132 -0.1328  0.4735  0.4687
 5252TIP3    H115720   3.168   4.183   4.116 -0.2282  0.6094  1.1133
 5252TIP3    H215721   3.105   4.090   4.218  0.1561 -0.2092  0.6099
 5253TIP3   OH215722   7.002   1.031   2.953  0.2975 -0.6918  0.2712
 5253TIP3    H115723   6.932   1.011   3.016  1.0718 -0.0149  1.3884
 5253TIP3    H215724   7.083   1.018   3.002  0.9477  4.1207  0.9680
 5254TIP3   OH215725   1.426   4.851   0.604  0.0541  0.0736 -0.0640
 5254TIP3    H115726   1.479   4.874   0.528  1.1285  0.2659  0.7149
 5254TIP3    H215727   1.448   4.918   0.669 -0.0630 -0.6592  0.7550
 5255TIP3   OH215728   6.800   0.912   2.534  0.2070  0.0627 -0.3371
 5255TIP3    H115729   6.868   0.861   2.578  0.5277  0.3202 -0.5321
 5255TIP3    H215730   6.724   0.903   2.590  0.6742  0.5663  0.3839
 5256TIP3   OH215731   3.008   6.640   2.646  0.2282  0.7304 -0.0043
 5256TIP3    H115732   3.008   6.725   2.601  1.4926  0.8147  0.1167
 5256TIP3    H215733   3.099   6.611   2.641 -0.0461 -0.2633  0.6364
 5257TIP3   OH215734   7.127   6.551   0.198  0.5656 -0.3336 -0.0814
 5257TIP3    H115735   7.181   6.542   0.276  0.2742  0.3304  0.2014
 5257TIP3    H215736   7.113   6.645   0.189  0.5958 -0.4044 -0.9326
 5258TIP3   OH215737   2.225   5.298   1.339 -0.1278  0.7436  0.5130
 5258TIP3    H115738   2.146   5.285   1.287  0.4030 -1.3807  0.1472
 5258TIP3    H215739   2.257   5.385   1.315 -0.8671  0.5146 -1.3854
 5259TIP3   OH215740   1.613   4.465   4.819 -0.0778  0.2820  0.2312
 5259TIP3    H115741   1.674   4.495   4.752 -1.4267  0.4521 -0.9622
 5259TIP3    H215742   1.571   4.388   4.782 -1.0300  0.5217  0.7625
 5260TIP3   OH215743   1.577   1.995   2.695 -0.2828 -0.3708  0.0221
 5260TIP3    H115744   1.607   1.910   2.728  0.5512 -0.7349 -1.5647
 5260TIP3    H215745   1.504   1.973   2.637 -0.1110  0.0013 -0.3396
 5261TIP3   OH215746   1.143   0.658   0.982 -0.7297  0.0436 -0.0759
 5261TIP3    H115747   1.186   0.579   0.950  0.7705  0.3066  1.1645
 5261TIP3    H215748   1.179   0.728   0.928  0.1480  0.2149  0.7073
 5262TIP3   OH215749   5.499   2.980   5.734  0.3878  0.5136 -0.0147
 5262TIP3    H115750   5.504   3.042   5.806  0.0972 -0.6388  1.0285
 5262TIP3    H215751   5.497   3.034   5.655 -2.4312  1.9352  0.9165
 5263TIP3   OH215752   4.712   6.487   3.827  0.0636 -1.1442 -0.0897
 5263TIP3    H115753   4.698   6.506   3.920 -1.3767 -0.6721 -0.3825
 5263TIP3    H215754   4.794   6.438   3.825  0.3832 -0.7161  1.3748
 5264TIP3   OH215755   3.949   4.334   3.839  0.2226  0.5321  0.0667
 5264TIP3    H115756   4.039   4.344   3.871  1.0990 -1.7619 -1.4371
 5264TIP3    H215757   3.907   4.418   3.859  2.6574  1.6402  0.8914
 5265TIP3   OH215758   5.096   1.881   5.843 -0.3014  0.2687 -0.0829
 5265TIP3    H115759   5.085   1.926   5.927 -0.6679 -0.4463  0.2570
 5265TIP3    H215760   5.149   1.941   5.790  0.1275  0.6174  0.7379
 5266TIP3   OH215761   3.976   5.446   3.668  0.1514  1.2859  0.1380
 5266TIP3    H115762   3.990   5.357   3.700  0.2120  1.9501  2.1171
 5266TIP3    H215763   4.056   5.466   3.619 -0.0862  0.0951 -0.7813
 5267TIP3   OH215764   0.214   1.878   2.891  0.1124  0.4863  0.2211
 5267TIP3    H115765   0.263   1.926   2.824 -1.3422  0.9078 -0.5799
 5267TIP3    H215766   0.125   1.873   2.857 -0.5594  0.2793  1.9059
 5268TIP3   OH215767   1.798   2.439   2.636 -0.1669  0.1776 -0.1388
 5268TIP3    H115768   1.809   2.389   2.555 -0.8390  0.4600 -0.4182
 5268TIP3    H215769   1.703   2.436   2.653 -0.3677  2.1378 -0.6939
 5269TIP3   OH215770   3.736   6.186   2.363  0.5169  0.7662 -0.0341
 5269TIP3    H115771   3.649   6.203   2.398  0.6168 -0.9220  1.1303
 5269TIP3    H215772   3.783   6.142   2.434  1.1572 -1.6070 -1.7980
 5270TIP3   OH215773   4.471   2.447   5.468  0.4728 -0.5755  0.5878
 5270TIP3    H115774   4.414   2.515   5.503 -0.0468 -0.5525 -0.2722
 5270TIP3    H215775   4.464   2.457   5.373  1.6143 -0.8232  0.4656
 5271TIP3   OH215776   2.377   1.092   3.117 -0.4664  0.1595 -0.0352
 5271TIP3    H115777   2.430   1.096   3.197  1.1577  1.2703 -1.1187
 5271TIP3    H215778   2.312   1.162   3.128 -0.8655 -0.3197  0.7150
 5272TIP3   OH215779   2.472   6.430   5.718  0.0300  0.0571 -0.1204
 5272TIP3    H115780   2.505   6.353   5.764  0.9981  1.0604  0.9555
 5272TIP3    H215781   2.377   6.421   5.720  0.0871 -0.5310  1.0609
 5273TIP3   OH215782   1.214   6.668   1.299 -0.4608 -0.0008  0.3071
 5273TIP3    H115783   1.231   6.577   1.272  0.9349  0.4067 -0.3025
 5273TIP3    H215784   1.120   6.671   1.316 -0.6878 -1.3436 -0.5284
 5274TIP3   OH215785   2.651   3.480   0.711 -0.3532  0.3680 -0.2596
 5274TIP3    H115786   2.628   3.467   0.803  0.0671 -1.5089 -0.3667
 5274TIP3    H215787   2.626   3.570   0.692 -1.0430  0.5917  1.5122
 5275TIP3   OH215788   4.151   0.882   0.897 -0.2581  0.6264 -0.2097
 5275TIP3    H115789   4.227   0.834   0.929 -0.3278  0.6036 -0.0772
 5275TIP3    H215790   4.088   0.814   0.871 -0.3831  0.6423  0.0401
 5276TIP3   OH215791   6.038   6.598   3.052  0.2539 -0.1700 -0.2372
 5276TIP3    H115792   5.967   6.548   3.092  0.2557 -0.3330 -0.4335
 5276TIP3    H215793   6.002   6.626   2.967  0.3697 -0.1186 -0.2695
 5277TIP3   OH215794   5.381   4.626   1.047  0.4069  0.0104 -0.0758
 5277TIP3    H115795   5.446   4.695   1.031  0.7195 -0.7256 -2.3882
 5277TIP3    H215796   5.300   4.673   1.069  1.0387  1.0284  0.1258
 5278TIP3   OH215797   4.367   2.574   4.853  0.3667  0.1220  0.8045
 5278TIP3    H115798   4.293   2.635   4.840  0.7941  0.5987  0.5601
 5278TIP3    H215799   4.326   2.488   4.859 -0.0716  0.1512 -1.2132
 5279TIP3   OH215800   3.971   5.051   3.419  0.0322 -0.4373  0.3223
 5279TIP3    H115801   4.012   4.986   3.362 -0.1750 -1.4411  1.2758
 5279TIP3    H215802   3.934   5.116   3.359  3.3034  0.7853 -0.6203
 5280TIP3   OH215803   0.110   5.392   4.448 -0.0693 -0.0517  0.1002
 5280TIP3    H115804   0.031   5.358   4.406 -0.5893  1.6012 -0.3058
 5280TIP3    H215805   0.162   5.428   4.377  0.6573 -0.3193  0.4804
 5281TIP3   OH215806   0.569   1.921   5.628  0.2057  0.3849  0.6278
 5281TIP3    H115807   0.567   1.941   5.721 -1.3273  0.7110  0.5545
 5281TIP3    H215808   0.574   1.826   5.623 -1.0573  0.2752  1.0764
 5282TIP3   OH215809   5.076   2.223   0.356  0.7569  0.2165  0.5740
 5282TIP3    H115810   5.123   2.274   0.289 -1.6945  0.3807 -1.1684
 5282TIP3    H215811   5.048   2.144   0.311 -0.4105  0.0181  1.5863
 5283TIP3   OH215812   2.107   4.974   1.177 -0.0257  0.4939 -0.3638
 5283TIP3    H115813   2.141   5.012   1.096 -0.1438 -1.4726 -1.4058
 5283TIP3    H215814   2.028   5.025   1.196 -0.1738  0.7958 -1.6657
 5284TIP3   OH215815   4.341   0.485   2.886  0.1159 -0.4154  0.0618
 5284TIP3    H115816   4.251   0.477   2.857 -0.1643 -0.6275  0.9756
 5284TIP3    H215817   4.357   0.580   2.890  0.0544 -0.3810 -0.4368
 5285TIP3   OH215818   5.540   2.760   4.119 -0.1620  0.0705 -0.1868
 5285TIP3    H115819   5.627   2.800   4.120 -0.4284  0.7395  1.9071
 5285TIP3    H215820   5.480   2.834   4.127 -0.9992 -0.3263 -2.3089
 5286TIP3   OH215821   6.251   3.693   2.467  0.3642 -0.4474 -0.4442
 5286TIP3    H115822   6.229   3.626   2.402  0.0715 -1.2019  0.4032
 5286TIP3    H215823   6.279   3.643   2.544  1.7630  0.4402 -0.3426
 5287TIP3   OH215824   3.745   3.904   3.707  0.2093  0.0703  0.0243
 5287TIP3    H115825   3.743   3.979   3.767 -0.8667 -1.5454  2.1369
 5287TIP3    H215826   3.823   3.855   3.733 -0.0901 -0.4807 -0.1096
 5288TIP3   OH215827   2.268   5.768   3.761 -0.0168  0.3908  0.0985
 5288TIP3    H115828   2.323   5.739   3.689 -0.6588 -0.3384 -0.1110
 5288TIP3    H215829   2.233   5.688   3.798 -1.7452  0.8609 -0.4248
 5289TIP3   OH215830   4.109   1.246   3.585  0.5634  0.2835  0.0461
 5289TIP3    H115831   4.016   1.229   3.601 -0.0035  2.8955 -0.0384
 5289TIP3    H215832   4.119   1.236   3.491  0.2558  0.3964 -0.0030
 5290TIP3   OH215833   0.250   2.828   2.666 -1.1955  0.6182 -0.1072
 5290TIP3    H115834   0.239   2.863   2.577 -0.3109  0.0474 -0.4537
 5290TIP3    H215835   0.199   2.887   2.721 -1.6930  1.0325 -0.9830
 5291TIP3   OH215836   6.554   3.242   5.009  0.0632  0.0922  0.6851
 5291TIP3    H115837   6.511   3.277   5.088  0.1529  2.0337 -0.0791
 5291TIP3    H215838   6.647   3.241   5.030  0.2162  1.7734  0.2314
 5292TIP3   OH215839   4.096   4.787   3.744  0.2972 -0.0579  0.0113
 5292TIP3    H115840   4.004   4.767   3.762  0.3917 -0.4638  0.0519
 5292TIP3    H215841   4.145   4.719   3.790  0.5694 -0.6346 -1.1014
 5293TIP3   OH215842   1.399   2.247   1.628  0.2864 -0.8248  0.0671
 5293TIP3    H115843   1.414   2.176   1.566  0.7190  0.0394 -0.8547
 5293TIP3    H215844   1.346   2.310   1.580  1.3812  0.2734  0.2540
 5294TIP3   OH215845   7.126   4.983   1.046 -0.4702 -0.1021  0.1660
 5294TIP3    H115846   7.115   4.924   1.120 -1.1099  0.5808  0.6351
 5294TIP3    H215847   7.086   5.065   1.075  1.8332  1.1188  0.1911
 5295TIP3   OH215848   1.953   2.497   0.053  0.6372  0.0239  0.2651
 5295TIP3    H115849   1.934   2.477   0.144  1.8042  1.0642  0.7695
 5295TIP3    H215850   2.047   2.479   0.043  1.4214  3.3138  0.3311
 5296TIP3   OH215851   6.438   6.704   4.325  0.2190  0.1192 -0.3241
 5296TIP3    H115852   6.353   6.697   4.280  0.1822  0.7674 -0.3671
 5296TIP3    H215853   6.471   6.790   4.300  0.7380  0.0083 -0.0330
 5297TIP3   OH215854   7.158   3.707   0.005  0.5749  0.0837 -0.3614
 5297TIP3    H115855   7.104   3.779   0.038 -0.8436 -1.5936  1.1332
 5297TIP3    H215856   7.238   3.712   0.056 -0.1920 -0.3531  0.9370
 5298TIP3   OH215857   4.702   6.496   1.517  0.4248  0.6595  0.6507
 5298TIP3    H115858   4.746   6.411   1.506  1.1551  0.6818  2.7550
 5298TIP3    H215859   4.609   6.475   1.519  0.6206 -0.2428  1.8472
 5299TIP3   OH215860   5.861   3.313   4.313  0.3272 -0.0939 -0.9096
 5299TIP3    H115861   5.818   3.328   4.397  0.0330 -0.8115 -0.9244
 5299TIP3    H215862   5.944   3.272   4.336  0.1439 -0.5111 -0.9698
 5300TIP3   OH215863   7.053   6.470   1.336  0.3720  0.4918 -0.0906
 5300TIP3    H115864   7.041   6.414   1.259 -0.2874 -0.3521  0.6111
 5300TIP3    H215865   6.977   6.529   1.334 -0.6000 -0.6915  0.8671
 5301TIP3   OH215866   4.033   0.050   3.019  0.2975  0.5378  0.3866
 5301TIP3    H115867   4.116   0.002   3.027 -0.2732 -0.4827  0.2443
 5301TIP3    H215868   4.023   0.066   2.925  0.0352  0.1443  0.3500
 5302TIP3   OH215869   1.143   3.676   2.193 -0.2053 -0.5388  0.2929
 5302TIP3    H115870   1.145   3.671   2.097 -0.2485 -1.1950  0.3264
 5302TIP3    H215871   1.230   3.646   2.220 -0.1505 -0.2370  0.4605
 5303TIP3   OH215872   7.097   3.239   2.361  0.1450  0.1660 -0.5473
 5303TIP3    H115873   7.039   3.248   2.286  1.5899  0.3478 -1.6997
 5303TIP3    H215874   7.078   3.152   2.396 -1.5142  0.6220 -0.2498
 5304TIP3   OH215875   2.176   4.496   2.265 -0.5051 -0.1839  0.3144
 5304TIP3    H115876   2.272   4.505   2.270 -0.6109  0.4195  2.6661
 5304TIP3    H215877   2.143   4.562   2.325 -2.5181  0.6222 -1.5712
 5305TIP3   OH215878   6.841   5.953   0.306  0.2862 -0.4270  0.7730
 5305TIP3    H115879   6.930   5.979   0.330  0.8178  0.1872 -1.5551
 5305TIP3    H215880   6.827   5.994   0.220 -2.6104  0.2718  1.4683
 5306TIP3   OH215881   1.971   4.724   1.121  0.3545  0.1567 -0.3825
 5306TIP3    H115882   2.022   4.804   1.111  1.0811 -0.2177  0.2509
 5306TIP3    H215883   2.035   4.654   1.122 -0.2357 -0.3970 -0.4286
 5307TIP3   OH215884   5.638   4.940   4.152  0.1813  0.2686  0.3111
 5307TIP3    H115885   5.680   4.936   4.239  2.4479  0.7941 -0.6850
 5307TIP3    H215886   5.689   4.880   4.099 -1.6726 -0.6345 -0.5149
 5308TIP3   OH215887   2.826   4.246   2.749 -0.0312 -0.1513 -0.3567
 5308TIP3    H115888   2.770   4.322   2.768 -0.8228 -0.9447  0.5975
 5308TIP3    H215889   2.879   4.235   2.828 -0.3172 -0.9148 -0.2639
 5309TIP3   OH215890   3.742   1.074   5.459  0.4050 -0.1607 -0.1436
 5309TIP3    H115891   3.718   1.053   5.368 -0.0225  0.2386 -0.1241
 5309TIP3    H215892   3.837   1.061   5.462  0.4436 -0.0278 -0.6874
 5310TIP3   OH215893   3.363   1.741   2.264 -0.1599 -0.0888  0.3960
 5310TIP3    H115894   3.332   1.784   2.184 -0.4553 -1.0139 -0.0056
 5310TIP3    H215895   3.327   1.794   2.335  0.4614  0.9989 -0.0690
 5311TIP3   OH215896   0.089   2.741   5.520  0.6069  0.1876  0.2076
 5311TIP3    H115897   0.119   2.661   5.563  0.7459 -0.8242 -1.6446
 5311TIP3    H215898   0.023   2.711   5.457  0.2007  1.6195 -0.0957
 5312TIP3   OH215899   3.804   6.411   1.272 -0.0118 -0.4721 -0.5617
 5312TIP3    H115900   3.766   6.456   1.348 -0.1546 -1.4504 -0.0416
 5312TIP3    H215901   3.834   6.482   1.215  0.5319  0.2840  0.6323
 5313TIP3   OH215902   4.062   4.466   0.249  0.4477  0.2481  0.1677
 5313TIP3    H115903   4.091   4.557   0.245 -3.5025  1.6944 -0.6220
 5313TIP3    H215904   4.077   4.432   0.161 -0.4350  1.0798 -0.3278
 5314TIP3   OH215905   4.214   2.315   5.377  0.0566  0.3716 -0.1995
 5314TIP3    H115906   4.290   2.370   5.394 -0.1040  0.2195  1.1058
 5314TIP3    H215907   4.154   2.334   5.450  0.2995 -2.0451  0.7112
 5315TIP3   OH215908   5.362   6.693   3.620  0.1726  0.2487  0.2507
 5315TIP3    H115909   5.412   6.670   3.698 -1.3444  1.0281  1.5089
 5315TIP3    H215910   5.329   6.608   3.588 -0.2882  0.0308  1.2534
 5316TIP3   OH215911   3.163   1.392   1.539 -0.8493  0.8742 -0.0325
 5316TIP3    H115912   3.248   1.431   1.520  0.2361 -1.6717 -0.8971
 5316TIP3    H215913   3.103   1.466   1.546  1.0683  2.6575 -1.3014
 5317TIP3   OH215914   2.294   1.181   0.469 -0.0593  0.1007 -0.3766
 5317TIP3    H115915   2.345   1.169   0.389 -0.3027 -0.1036 -0.4994
 5317TIP3    H215916   2.239   1.257   0.452  0.2675  0.3756 -0.2115
 5318TIP3   OH215917   7.064   5.697   5.784  0.2161 -0.3384  0.0510
 5318TIP3    H115918   7.131   5.688   5.852  0.1300 -0.5880  0.1041
 5318TIP3    H215919   7.111   5.686   5.701  0.5749  1.4109  0.0030
 5319TIP3   OH215920   3.609   5.120   5.288  0.1714 -0.1255 -0.1228
 5319TIP3    H115921   3.605   5.062   5.213  0.3617 -0.3233  0.0169
 5319TIP3    H215922   3.581   5.066   5.362  0.0104  0.0590 -0.0497
 5320TIP3   OH215923   6.287   4.518   1.010  0.2336  0.5119 -0.5002
 5320TIP3    H115924   6.222   4.507   0.941 -0.4603  2.4479 -0.2152
 5320TIP3    H215925   6.308   4.611   1.009 -0.3415  0.7801  2.3311
 5321TIP3   OH215926   1.726   4.545   4.578  0.2559  0.0889 -0.9865
 5321TIP3    H115927   1.645   4.571   4.534 -1.2474 -1.8771  0.4319
 5321TIP3    H215928   1.755   4.467   4.529 -0.8220 -1.4467  0.7119
 5322TIP3   OH215929   1.708   0.382   2.593  0.2939 -0.0534 -0.3458
 5322TIP3    H115930   1.669   0.393   2.507 -2.3384 -0.2395  0.7188
 5322TIP3    H215931   1.644   0.419   2.654  1.3454 -1.2753  1.6355
 5323TIP3   OH215932   1.078   4.245   4.944 -0.1260 -0.3839 -0.3796
 5323TIP3    H115933   1.113   4.157   4.960  0.5465 -0.4958 -2.1662
 5323TIP3    H215934   1.143   4.286   4.886 -0.2275  1.4497  0.7157
 5324TIP3   OH215935   0.225   1.588   1.304  0.4546 -0.6048  0.6558
 5324TIP3    H115936   0.190   1.674   1.281  0.8067 -0.2459  1.4005
 5324TIP3    H215937   0.187   1.528   1.240  0.2466  0.1128  0.0905
 5325TIP3   OH215938   0.930   5.428   1.746 -0.2225  0.4066  0.3146
 5325TIP3    H115939   0.836   5.426   1.730 -0.4255  0.6480  1.3807
 5325TIP3    H215940   0.949   5.519   1.767  0.2034  0.3055  0.3768
 5326TIP3   OH215941   0.339   5.270   5.529 -0.0160 -0.0096  0.0672
 5326TIP3    H115942   0.412   5.221   5.491 -0.0655  1.4070 -2.0246
 5326TIP3    H215943   0.381   5.343   5.575 -0.0612  0.6781 -0.9463
 5327TIP3   OH215944   3.266   3.546   3.398  0.0102  0.0727 -0.1830
 5327TIP3    H115945   3.328   3.508   3.459  0.0269  0.2197 -0.1084
 5327TIP3    H215946   3.203   3.594   3.453  0.5640  0.9921 -0.3294
 5328TIP3   OH215947   3.426   2.625   1.285 -0.2793 -0.0350  0.3213
 5328TIP3    H115948   3.397   2.713   1.310 -1.3984 -0.3880  0.3143
 5328TIP3    H215949   3.444   2.631   1.191  0.0512  0.2888  0.4039
 5329TIP3   OH215950   2.431   0.533   0.755 -0.2328 -0.4123  0.3579
 5329TIP3    H115951   2.401   0.478   0.827  0.2004 -1.6689 -0.4006
 5329TIP3    H215952   2.399   0.490   0.676  2.6579 -1.2868 -0.4378
 5330TIP3   OH215953   0.093   5.661   2.941  0.5068  0.6366  0.1727
 5330TIP3    H115954   0.035   5.736   2.955  0.7193  0.7050  0.7032
 5330TIP3    H215955   0.039   5.585   2.963  0.1194  0.5823 -0.8824
 5331TIP3   OH215956   1.359   2.556   3.589 -0.7014 -0.3813  0.2342
 5331TIP3    H115957   1.356   2.652   3.594  0.3927 -0.4079  2.8362
 5331TIP3    H215958   1.407   2.538   3.508 -1.0484  1.2510 -0.3732
 5332TIP3   OH215959   4.677   3.301   2.642  0.2613  0.0100 -0.2431
 5332TIP3    H115960   4.605   3.285   2.704  2.1972 -2.3436  1.5914
 5332TIP3    H215961   4.643   3.270   2.558 -1.7155  1.3217  0.0149
 5333TIP3   OH215962   6.509   2.749   4.264 -0.0962 -0.5423  0.3554
 5333TIP3    H115963   6.540   2.791   4.344  0.7572 -0.0303 -0.2293
 5333TIP3    H215964   6.480   2.821   4.209  1.9913 -0.5995 -0.9191
 5334TIP3   OH215965   3.539   6.014   4.268  0.4025 -0.7173 -0.4035
 5334TIP3    H115966   3.471   5.979   4.325  0.9490  0.2918  0.9084
 5334TIP3    H215967   3.582   5.937   4.232 -1.7046 -1.3966 -1.6528
 5335TIP3   OH215968   0.657   1.370   3.408 -0.2735  0.1984  0.2067
 5335TIP3    H115969   0.667   1.462   3.384 -0.7033  0.2729  0.2958
 5335TIP3    H215970   0.630   1.371   3.500  2.7345 -0.1464  1.1784
 5336TIP3   OH215971   6.721   4.066   4.817 -0.0945 -0.3908 -0.1521
 5336TIP3    H115972   6.728   4.155   4.851  2.8064 -0.8571  0.7452
 5336TIP3    H215973   6.691   4.014   4.891 -1.5748 -0.2620 -0.6179
 5337TIP3   OH215974   5.693   3.088   2.593 -0.1760  0.6199  0.1376
 5337TIP3    H115975   5.662   3.006   2.631 -0.6213  1.6749  2.1761
 5337TIP3    H215976   5.619   3.148   2.601  0.9694  1.9587  1.1277
 5338TIP3   OH215977   5.508   6.099   0.326 -0.0239 -0.3960  0.2993
 5338TIP3    H115978   5.508   6.026   0.388 -2.4741  0.8011  1.8799
 5338TIP3    H215979   5.434   6.081   0.269 -0.0477  0.3674  0.0865
 5339TIP3   OH215980   3.183   1.054   1.193 -0.7816  0.2472  0.6706
 5339TIP3    H115981   3.115   1.109   1.232  0.9282  2.1047  1.1640
 5339TIP3    H215982   3.259   1.065   1.250  0.2265 -1.0951 -0.3441
 5340TIP3   OH215983   1.246   5.872   2.399  0.0082  0.4399 -0.0903
 5340TIP3    H115984   1.325   5.834   2.360 -0.6508 -1.5950  0.4603
 5340TIP3    H215985   1.222   5.943   2.339  1.0011 -0.3301 -1.4566
 5341TIP3   OH215986   1.864   2.936   4.912  0.2261 -0.3007  0.2081
 5341TIP3    H115987   1.946   2.970   4.874 -1.0821  1.4093 -1.2630
 5341TIP3    H215988   1.834   3.007   4.969  0.0990 -1.2094  1.2916
 5342TIP3   OH215989   3.193   1.397   3.284 -0.5107  0.3269 -0.3251
 5342TIP3    H115990   3.152   1.465   3.336  0.3975  0.3034  0.4429
 5342TIP3    H215991   3.228   1.443   3.208 -0.5461  0.6038 -0.1759
 5343TIP3   OH215992   1.781   1.562   2.200  0.1615 -0.4327 -0.0641
 5343TIP3    H115993   1.840   1.505   2.151  0.1536  0.3036 -0.9585
 5343TIP3    H215994   1.781   1.644   2.151 -0.1112  0.2145  1.0041
 5344TIP3   OH215995   5.739   1.058   5.790  0.1969  0.6600  0.4129
 5344TIP3    H115996   5.737   0.993   5.860 -0.8180 -1.4783 -1.4602
 5344TIP3    H215997   5.809   1.029   5.732  0.6413  2.0577  0.2101
 5345TIP3   OH215998   7.047   1.549   0.586 -0.1012 -0.1652  0.3468
 5345TIP3    H115999   7.084   1.461   0.596  0.6860  0.2636  1.4501
 5345TIP3    H216000   7.086   1.582   0.506  0.3810 -0.4606  0.4529
 5346TIP3   OH216001   6.937   2.398   2.585 -0.2732  0.0199  0.3888
 5346TIP3    H116002   6.916   2.491   2.593  1.0116  0.2265  1.8859
 5346TIP3    H216003   7.031   2.393   2.602  0.1848 -1.2987 -2.1076
 5347TIP3   OH216004   5.672   0.875   1.783  0.0541  0.1699  0.0788
 5347TIP3    H116005   5.622   0.948   1.818 -1.5220 -0.8939  0.1751
 5347TIP3    H216006   5.729   0.848   1.855 -0.5163  0.3145  0.5980
 5348TIP3   OH216007   5.854   3.946   0.599  0.1297 -0.3560 -0.0147
 5348TIP3    H116008   5.801   3.983   0.670  0.4250  0.4308 -0.1934
 5348TIP3    H216009   5.798   3.880   0.559 -0.3754 -0.1724  0.3816
 5349TIP3   OH216010   4.539   0.151   2.598 -0.2251  0.0758  0.1889
 5349TIP3    H116011   4.519   0.117   2.511  0.5683 -0.6470  0.2784
 5349TIP3    H216012   4.453   0.165   2.638 -0.5833 -0.4016 -0.3958
 5350TIP3   OH216013   3.724   4.293   0.068 -0.4054 -0.1348  0.0854
 5350TIP3    H116014   3.774   4.306  -0.014  0.2171 -1.8909  0.1481
 5350TIP3    H216015   3.633   4.298   0.041 -0.2102  0.3640 -0.5257
 5351TIP3   OH216016   4.403   1.517   0.060  0.2632 -0.1693 -0.0145
 5351TIP3    H116017   4.402   1.610   0.037  3.1874  0.5375  1.9759
 5351TIP3    H216018   4.424   1.472  -0.022 -0.6051  0.9827 -0.8966
 5352TIP3   OH216019   1.800   2.892   5.758 -0.0103 -0.9784 -0.4169
 5352TIP3    H116020   1.844   2.943   5.691  2.0576 -0.4131  1.2686
 5352TIP3    H216021   1.797   2.950   5.835 -2.1947 -1.6301  0.0809
 5353TIP3   OH216022   3.329   2.635   2.575  0.2277  0.0641  0.3288
 5353TIP3    H116023   3.253   2.694   2.573  0.1160 -0.0979 -0.7702
 5353TIP3    H216024   3.297   2.552   2.541  0.4088 -0.6396  1.8000
 5354TIP3   OH216025   2.802   4.314   4.676  0.3257 -0.1388  0.7272
 5354TIP3    H116026   2.717   4.286   4.642  0.2268  0.9922 -0.0164
 5354TIP3    H216027   2.864   4.296   4.605  0.2390  1.5588  0.1801
 5355TIP3   OH216028   3.294   0.280   3.128  0.2560  0.6386  0.2994
 5355TIP3    H116029   3.227   0.341   3.098  0.9880  0.8599 -0.9724
 5355TIP3    H216030   3.283   0.203   3.073  1.3191  0.8563 -0.2472
 5356TIP3   OH216031   0.880   6.800   5.641  0.1129 -0.2793 -0.2473
 5356TIP3    H116032   0.902   6.707   5.628 -0.3452 -0.3975 -0.1980
 5356TIP3    H216033   0.846   6.828   5.556  0.0147 -0.2261 -0.1911
 5357TIP3   OH216034   1.667   6.572   0.229 -0.1311 -0.2807 -0.1455
 5357TIP3    H116035   1.614   6.652   0.224  0.3587 -0.0133 -1.6553
 5357TIP3    H216036   1.747   6.594   0.182  0.0537 -1.6327 -0.5038
 5358TIP3   OH216037   2.408   4.955   0.832 -0.4966 -0.1697  0.1452
 5358TIP3    H116038   2.459   4.966   0.912 -0.0181  0.6955 -0.2651
 5358TIP3    H216039   2.333   5.013   0.843  0.7867  1.8223 -1.0012
 5359TIP3   OH216040   1.251   1.933   4.260 -0.1307 -0.2573 -0.3748
 5359TIP3    H116041   1.325   1.902   4.312  0.3267  0.3153 -0.6707
 5359TIP3    H216042   1.195   1.978   4.322 -0.0442 -0.3740 -0.2124
 5360TIP3   OH216043   1.237   6.406   2.433 -0.1268 -0.0623 -0.0006
 5360TIP3    H116044   1.261   6.396   2.341 -0.3810  0.1144 -0.0901
 5360TIP3    H216045   1.219   6.500   2.443  1.1715  0.1591  0.5500
 5361TIP3   OH216046   4.555   6.555   5.806 -0.2228  0.3513  0.0160
 5361TIP3    H116047   4.639   6.551   5.760 -1.0521 -0.9869 -1.4688
 5361TIP3    H216048   4.579   6.566   5.898  1.6142 -0.8028 -0.2710
 5362TIP3   OH216049   7.080   2.291   1.394  1.1047  0.0908 -0.1629
 5362TIP3    H116050   7.008   2.251   1.344  1.1644 -1.0582  0.6413
 5362TIP3    H216051   7.037   2.348   1.458  0.7765 -1.8974  1.4639
 5363TIP3   OH216052   6.685   0.978   5.284 -0.2099 -0.4554  0.1572
 5363TIP3    H116053   6.687   1.071   5.310  0.4398 -0.4589  0.1424
 5363TIP3    H216054   6.676   0.931   5.367 -1.5363 -0.3524  0.0861
 5364TIP3   OH216055   2.112   4.360   5.714  0.4142  0.0988 -0.4819
 5364TIP3    H116056   2.165   4.397   5.644  0.2880 -1.0010 -1.1747
 5364TIP3    H216057   2.175   4.314   5.770  0.3717  0.0943 -0.4371
 5365TIP3   OH216058   2.204   6.048   0.227 -0.2385  0.1663  0.2561
 5365TIP3    H116059   2.213   6.142   0.210 -0.1328  0.2580  0.8049
 5365TIP3    H216060   2.270   6.007   0.172 -0.7140  0.3619 -0.4751
 5366TIP3   OH216061   0.728   6.262   1.054  0.2497 -0.2293  0.2408
 5366TIP3    H116062   0.726   6.203   1.129 -1.2972 -1.5359 -0.7874
 5366TIP3    H216063   0.636   6.279   1.033  0.5934  2.7495  0.5976
 5367TIP3   OH216064   6.107   5.638   5.462  0.3766  0.2533  0.1994
 5367TIP3    H116065   6.053   5.584   5.405  2.0244 -0.9413 -0.3337
 5367TIP3    H216066   6.079   5.615   5.551 -0.1339 -0.1873 -0.0729
 5368TIP3   OH216067   2.021   6.328   1.257  0.1604 -0.2212  0.2798
 5368TIP3    H116068   2.067   6.252   1.222 -0.8318 -0.7792  0.1500
 5368TIP3    H216069   1.943   6.336   1.202  0.5364  1.2570 -0.0901
 5369TIP3   OH216070   5.042   4.150   4.968  0.2022 -0.5445  0.3048
 5369TIP3    H116071   4.949   4.156   4.947  0.1941  0.1208  0.4976
 5369TIP3    H216072   5.055   4.059   4.993 -0.7588 -0.3064  1.8342
 5370TIP3   OH216073   3.080   1.667   0.994  0.0419  0.1105 -0.2998
 5370TIP3    H116074   3.115   1.647   0.908  1.1768  2.9130 -0.5979
 5370TIP3    H216075   3.155   1.665   1.052 -0.7157 -1.7664  0.6946
 5371TIP3   OH216076   0.417   2.911   0.312 -0.2694  0.3246  0.1778
 5371TIP3    H116077   0.345   2.899   0.374  0.2139 -1.1391  0.4877
 5371TIP3    H216078   0.396   2.992   0.267  0.5521  2.8365  3.8548
 5372TIP3   OH216079   2.341   2.493   3.533  0.1831  0.5096 -0.2659
 5372TIP3    H116080   2.265   2.529   3.579  0.8505 -0.9819  2.1624
 5372TIP3    H216081   2.305   2.453   3.455 -1.0851  2.5619 -0.8194
 5373TIP3   OH216082   0.942  -0.018   3.956 -0.6190  0.6637  0.1593
 5373TIP3    H116083   0.987   0.028   3.885  0.0631  0.6222  0.5519
 5373TIP3    H216084   0.930   0.048   4.024  1.4008  0.0596  1.2000
 5374TIP3   OH216085   5.390   4.585   3.513  0.6891 -0.5463 -0.1806
 5374TIP3    H116086   5.432   4.668   3.533 -1.3739  0.7175 -0.7965
 5374TIP3    H216087   5.347   4.559   3.595 -0.7152  0.2851 -0.6348
 5375TIP3   OH216088   6.500   5.521   4.183 -0.1413 -0.3155  0.1026
 5375TIP3    H116089   6.558   5.595   4.203 -2.7725  2.1708 -0.8848
 5375TIP3    H216090   6.510   5.462   4.259  0.4185  2.1295  2.0587
 5376TIP3   OH216091   2.318   6.254   5.470 -0.9738  0.1735 -0.0894
 5376TIP3    H116092   2.323   6.349   5.478  0.1431  0.2251 -1.0617
 5376TIP3    H216093   2.236   6.230   5.512 -1.1395  1.5384  0.4040
 5377TIP3   OH216094   6.596   2.853   0.690  0.8421 -0.5402  0.5272
 5377TIP3    H116095   6.651   2.856   0.769 -0.7766 -0.8934  1.7154
 5377TIP3    H216096   6.539   2.929   0.697  1.1024 -0.2195 -0.6473
 5378TIP3   OH216097   1.467   0.996   5.746 -0.1660 -0.0542  0.3784
 5378TIP3    H116098   1.552   1.022   5.783 -0.2023  0.0377  0.3977
 5378TIP3    H216099   1.435   1.076   5.704  0.1454 -0.3051 -0.3574
 5379TIP3   OH216100   5.661   0.560   1.007  0.0919  0.5419 -0.1125
 5379TIP3    H116101   5.653   0.625   1.077  1.0258 -1.3066  1.8023
 5379TIP3    H216102   5.754   0.562   0.984 -0.0094  0.3598 -0.5396
 5380TIP3   OH216103   5.687   0.284   0.973 -0.0515 -0.2026  0.0654
 5380TIP3    H116104   5.603   0.250   0.942  0.3469 -0.4723 -0.7442
 5380TIP3    H216105   5.668   0.372   1.004 -0.5143 -0.0100 -0.7353
 5381TIP3   OH216106   3.356   5.406   4.799  0.1721  0.3095 -0.1991
 5381TIP3    H116107   3.421   5.404   4.729 -0.0611 -1.0584 -0.4197
 5381TIP3    H216108   3.406   5.392   4.879  0.2081 -0.3391 -0.3286
 5382TIP3   OH216109   0.317   1.432   0.714  0.1597 -0.2985  0.3786
 5382TIP3    H116110   0.355   1.372   0.649 -2.4265 -0.9452 -0.6767
 5382TIP3    H216111   0.342   1.519   0.684 -0.8929 -0.5890 -1.4985
 5383TIP3   OH216112   1.578   6.127   5.375  0.2940 -0.0949  0.5295
 5383TIP3    H116113   1.606   6.094   5.289  1.0146 -0.5882  0.9418
 5383TIP3    H216114   1.584   6.222   5.367  1.5369 -0.1666  0.4006
 5384TIP3   OH216115   0.190   5.632   5.411 -0.1071  0.4972 -0.2248
 5384TIP3    H116116   0.270   5.665   5.369 -0.5716  0.9771 -0.7590
 5384TIP3    H216117   0.218   5.607   5.499  1.0672 -1.2779 -1.0335
 5385TIP3   OH216118   2.160   2.402   5.478  0.0614 -0.0925 -0.4496
 5385TIP3    H116119   2.099   2.475   5.487  1.1701  0.7429  0.6717
 5385TIP3    H216120   2.131   2.355   5.400 -0.7534  1.4743 -1.1212
 5386TIP3   OH216121   7.038   0.490   4.384  0.4486  0.3268  0.0162
 5386TIP3    H116122   7.009   0.416   4.436  0.6215  1.7983  2.3280
 5386TIP3    H216123   7.131   0.501   4.407  1.0125  0.0095 -1.9098
 5387TIP3   OH216124   6.569   3.550   2.432  0.0377 -0.5321  0.1988
 5387TIP3    H116125   6.522   3.597   2.363 -1.4290 -0.5431  1.1474
 5387TIP3    H216126   6.620   3.617   2.476  0.4514 -0.4069 -0.4484
 5388TIP3   OH216127   2.317   5.404   2.932 -0.7273  0.2968  0.0107
 5388TIP3    H116128   2.387   5.405   2.866 -0.1373  1.4455  0.6217
 5388TIP3    H216129   2.240   5.373   2.884  0.2870 -1.4578 -0.5594
 5389TIP3   OH216130   6.083   6.277   3.665 -0.3924 -0.2348  0.5522
 5389TIP3    H116131   6.078   6.183   3.650 -1.0281 -0.3580  1.4479
 5389TIP3    H216132   6.138   6.310   3.594  1.6787 -1.5734  1.4627
 5390TIP3   OH216133   2.853   3.651   1.009  0.2312  0.0223  0.0160
 5390TIP3    H116134   2.936   3.674   1.050 -0.4418 -0.9157  2.0273
 5390TIP3    H216135   2.821   3.734   0.972  0.9266  0.9274  1.3371
 5391TIP3   OH216136   1.744   3.385   3.944 -0.5105 -0.0769  0.1627
 5391TIP3    H116137   1.678   3.422   3.885  0.2059  1.3130  0.1861
 5391TIP3    H216138   1.748   3.448   4.017 -0.4412 -1.0872  1.0563
 5392TIP3   OH216139   4.180   4.566   2.712  0.3247  0.6408 -0.3394
 5392TIP3    H116140   4.240   4.640   2.715  0.8757  0.2672 -1.4344
 5392TIP3    H216141   4.169   4.548   2.619 -0.2305 -0.3028 -0.1081
 5393TIP3   OH216142   0.711   6.051   1.217 -0.1213 -0.4181 -0.8352
 5393TIP3    H116143   0.780   6.058   1.282 -1.7773  2.1475  0.8287
 5393TIP3    H216144   0.637   6.014   1.264 -1.0747  0.6140 -1.4708
 5394TIP3   OH216145   0.051   3.814   2.342  0.1366 -0.2251 -1.0509
 5394TIP3    H116146   0.042   3.720   2.356 -0.6767 -0.4777 -2.9659
 5394TIP3    H216147   0.106   3.821   2.264 -1.0607  0.8280 -1.8372
 5395TIP3   OH216148   2.155   0.134   4.466  0.2528  0.1801 -0.6488
 5395TIP3    H116149   2.145   0.134   4.371 -2.1015 -0.4742 -0.4703
 5395TIP3    H216150   2.076   0.177   4.499  0.2323 -1.0405  1.0406
 5396TIP3   OH216151   3.538   4.230   4.542 -0.5274 -0.7739  0.1788
 5396TIP3    H116152   3.470   4.262   4.482  0.0038  0.7622  0.3584
 5396TIP3    H216153   3.570   4.309   4.586  1.0668 -1.5187  0.4158
 5397TIP3   OH216154   0.077   0.794   1.595  0.2585 -0.5307  0.1883
 5397TIP3    H116155   0.018   0.744   1.652 -0.0775 -0.0461  0.2657
 5397TIP3    H216156   0.024   0.867   1.563  0.4679 -0.7520 -0.6919
 5398TIP3   OH216157   6.574   5.046   1.303 -0.7992  0.7554  0.0094
 5398TIP3    H116158   6.494   5.093   1.279 -1.3105  0.1516  0.5142
 5398TIP3    H216159   6.625   5.110   1.353 -0.6762  1.3398 -0.8162
 5399TIP3   OH216160   6.889   2.164   1.190 -0.2417  0.3436  0.5054
 5399TIP3    H116161   6.797   2.138   1.189  0.2912 -1.9141  1.9991
 5399TIP3    H216162   6.913   2.171   1.098 -2.2272  2.4787  0.0605
 5400TIP3   OH216163   1.366   6.813   2.105 -0.0782  0.5931 -0.0874
 5400TIP3    H116164   1.399   6.729   2.071  1.0347  1.3279 -0.9078
 5400TIP3    H216165   1.366   6.802   2.200 -1.2373 -0.7883 -0.2228
 5401TIP3   OH216166   6.128   0.669   0.171 -0.0493  0.0739  0.5295
 5401TIP3    H116167   6.098   0.741   0.226  0.4595  0.6346  0.0828
 5401TIP3    H216168   6.118   0.700   0.081 -1.4866 -1.0785  0.2532
 5402TIP3   OH216169   2.354   3.960   3.707 -0.3409  0.1298 -0.0663
 5402TIP3    H116170   2.403   3.920   3.779 -0.1144  0.1807 -0.1904
 5402TIP3    H216171   2.410   3.948   3.630 -0.4019  0.4220 -0.1597
 5403TIP3   OH216172   2.372   2.340   2.138  0.1544  0.3549  0.2951
 5403TIP3    H116173   2.319   2.283   2.082  0.6315 -0.7861  0.9666
 5403TIP3    H216174   2.309   2.400   2.177 -0.2636  0.7837 -0.9773
 5404TIP3   OH216175   1.363   2.466   4.470  0.3457 -0.5060  0.1274
 5404TIP3    H116176   1.372   2.546   4.418  0.9598  0.7001  1.9925
 5404TIP3    H216177   1.447   2.421   4.458  0.6594 -0.0112  0.4081
 5405TIP3   OH216178   5.333   1.125   0.483  0.0854 -0.1796  0.0639
 5405TIP3    H116179   5.280   1.199   0.513 -0.0173  0.4495 -1.6137
 5405TIP3    H216180   5.423   1.154   0.493  0.0348  0.6545 -1.7059
 5406TIP3   OH216181   2.814   0.687   4.657 -0.0370 -0.2123 -0.0627
 5406TIP3    H116182   2.729   0.710   4.695  1.0807  1.6715  1.4846
 5406TIP3    H216183   2.841   0.607   4.703 -0.5013 -0.2335  0.1708
 5407TIP3   OH216184   1.339   0.012   2.291  0.3350 -0.2247  0.6803
 5407TIP3    H116185   1.326   0.086   2.351  0.5099  0.8616 -0.5820
 5407TIP3    H216186   1.416   0.036   2.240  0.3217 -1.2409  0.1731
 5408TIP3   OH216187   2.640   4.701   1.712  0.2191  0.2108  0.1019
 5408TIP3    H116188   2.587   4.629   1.746  0.8691  0.0201  0.7296
 5408TIP3    H216189   2.721   4.660   1.681  1.0233  0.7577  1.3875
 5409TIP3   OH216190   3.724   5.294   4.547 -0.6375  0.6213 -0.0980
 5409TIP3    H116191   3.793   5.277   4.610  1.2507  1.0968 -1.9079
 5409TIP3    H216192   3.680   5.373   4.580  0.6093  1.1354  0.4002
 5410TIP3   OH216193   6.495   0.854   4.082  0.1206 -0.2274 -0.3745
 5410TIP3    H116194   6.545   0.930   4.052  0.3522  0.3070  1.2413
 5410TIP3    H216195   6.524   0.782   4.026 -0.6442  0.9957 -2.4295
 5411TIP3   OH216196   7.135   4.742   1.389  0.2163  0.3229  0.0634
 5411TIP3    H116197   7.084   4.662   1.393 -0.0117  0.4178 -0.7233
 5411TIP3    H216198   7.088   4.805   1.444  1.3326 -0.5637  2.1334
 5412TIP3   OH216199   0.600   1.408   4.916 -0.3133  0.1757  0.0765
 5412TIP3    H116200   0.584   1.450   4.831  1.2643  1.5482  0.3989
 5412TIP3    H216201   0.593   1.314   4.899  2.5184  0.2598 -2.2220
 5413TIP3   OH216202   1.314   1.123   2.571  0.0746  0.2989 -0.0282
 5413TIP3    H116203   1.330   1.056   2.637  0.2180 -0.2271 -0.5822
 5413TIP3    H216204   1.397   1.169   2.562  0.2546 -0.0693 -0.3134
 5414TIP3   OH216205   5.583   3.149   1.491 -0.2956 -0.6248 -0.3156
 5414TIP3    H116206   5.532   3.088   1.439 -1.6734  0.5010 -0.3559
 5414TIP3    H216207   5.567   3.235   1.451  0.9522 -0.1139  0.2031
 5415TIP3   OH216208   6.293   6.217   5.432  0.1257  0.3057 -0.1566
 5415TIP3    H116209   6.369   6.256   5.476  1.1207  0.4847 -1.9428
 5415TIP3    H216210   6.248   6.169   5.502  0.6425  1.9895  1.4128
 5416TIP3   OH216211   6.644   3.210   4.078  0.5180  0.0592 -0.2775
 5416TIP3    H116212   6.630   3.260   4.159  0.0256  0.6197 -0.7012
 5416TIP3    H216213   6.667   3.276   4.013  0.2090 -0.3119 -0.7659
 5417TIP3   OH216214   0.345   3.957   0.415  0.2566 -0.3524  0.0318
 5417TIP3    H116215   0.439   3.942   0.417  0.0269 -1.8431  1.1192
 5417TIP3    H216216   0.336   4.049   0.392  2.0507  0.3037  1.6767
 5418TIP3   OH216217   4.618   5.260   2.833  0.1509  0.0287 -0.1213
 5418TIP3    H116218   4.598   5.209   2.911 -1.1605  0.9268  0.1589
 5418TIP3    H216219   4.573   5.344   2.847 -0.1196  0.2069 -1.8406
 5419TIP3   OH216220   4.798   5.789   5.290  0.2639  0.3651  0.2172
 5419TIP3    H116221   4.812   5.879   5.261  2.3395 -0.0754 -0.3163
 5419TIP3    H216222   4.748   5.797   5.371  1.4429  2.0666  0.8376
 5420TIP3   OH216223   0.109   0.882   5.590 -0.0253  0.2746 -0.1448
 5420TIP3    H116224   0.067   0.960   5.627  0.8822  1.0132 -0.6207
 5420TIP3    H216225   0.166   0.916   5.521  0.7648 -0.7670 -0.0337
 5421TIP3   OH216226   4.340   1.622   5.796 -0.1564  0.2317  0.1090
 5421TIP3    H116227   4.343   1.529   5.775 -0.3370  0.1569  0.4186
 5421TIP3    H216228   4.430   1.653   5.784  0.0932 -0.1796  0.9395
 5422TIP3   OH216229   3.097   2.444   2.166 -0.1541  0.1329  0.0785
 5422TIP3    H116230   3.108   2.398   2.082 -1.7286 -1.3387  0.6151
 5422TIP3    H216231   3.027   2.396   2.210 -0.3451  1.7614  1.6448
 5423TIP3   OH216232   1.464   1.067   4.609  0.4061 -0.4292  0.0964
 5423TIP3    H116233   1.534   1.120   4.572 -0.2371 -1.3301 -2.6633
 5423TIP3    H216234   1.396   1.130   4.634  0.0746  0.1884 -2.1751
 5424TIP3   OH216235   0.369   2.329   1.872  0.0069 -0.3410  0.3143
 5424TIP3    H116236   0.347   2.416   1.840  1.9578  0.2175  0.3685
 5424TIP3    H216237   0.462   2.319   1.853 -0.3793 -2.8593 -0.6989
 5425TIP3   OH216238   5.047   0.313   4.572  0.0307 -0.2401 -0.1753
 5425TIP3    H116239   5.099   0.232   4.577 -1.0453 -0.8742  1.6493
 5425TIP3    H216240   5.008   0.311   4.485 -1.2956 -2.5927  0.3707
 5426TIP3   OH216241   6.496   0.622   5.700 -0.2840  0.1226  0.3650
 5426TIP3    H116242   6.476   0.643   5.791 -0.7776  1.7631 -0.0987
 5426TIP3    H216243   6.415   0.639   5.652  0.0892 -0.3310 -0.4500
 5427TIP3   OH216244   2.744   1.407   4.292 -0.1783  0.3387  0.8190
 5427TIP3    H116245   2.715   1.473   4.356  0.6089  1.6097 -0.0929
 5427TIP3    H216246   2.715   1.441   4.208  0.5459 -0.3159  0.2950
 5428TIP3   OH216247   1.097   6.653   3.016  0.1135 -0.0043  0.0875
 5428TIP3    H116248   1.103   6.568   2.971  0.3983 -0.8972  1.7353
 5428TIP3    H216249   1.164   6.707   2.974 -0.3256 -0.4451 -1.2434
 5429TIP3   OH216250   6.229   0.765   0.650  0.6824  0.2596  0.5552
 5429TIP3    H116251   6.145   0.799   0.622  0.4388 -0.4637  0.3860
 5429TIP3    H216252   6.254   0.703   0.581  0.1067 -1.5060  1.8537
 5430TIP3   OH216253   5.800   1.437   4.905 -0.1918 -1.2769  0.2045
 5430TIP3    H116254   5.880   1.393   4.931  0.5035  0.0763  0.4444
 5430TIP3    H216255   5.776   1.490   4.980  1.3431  1.9751 -1.3909
 5431TIP3   OH216256   4.158   4.007   3.750  0.2831  0.0122  0.2568
 5431TIP3    H116257   4.080   4.058   3.728 -1.2761 -2.1804  0.2998
 5431TIP3    H216258   4.124   3.928   3.791  2.6431 -0.4508  1.5080
 5432TIP3   OH216259   2.564   2.134   0.759 -0.3476 -0.1241  0.2451
 5432TIP3    H116260   2.627   2.062   0.761  0.4229  0.4449 -1.4618
 5432TIP3    H216261   2.485   2.098   0.799  0.4682 -1.4494  0.7300
 5433TIP3   OH216262   4.689   0.297   3.397  0.3162  0.4569  0.1842
 5433TIP3    H116263   4.645   0.363   3.450 -0.3058  0.9665 -0.9294
 5433TIP3    H216264   4.640   0.295   3.315  0.9360 -0.6780 -0.1921
 5434TIP3   OH216265   5.448   6.472   5.763 -0.4423  0.1729 -0.2342
 5434TIP3    H116266   5.387   6.541   5.739  1.7736  2.0310 -0.9086
 5434TIP3    H216267   5.460   6.481   5.858 -1.5935 -0.5834  0.0015
 5435TIP3   OH216268   0.418   3.002   1.570  0.0584  0.3248  0.4731
 5435TIP3    H116269   0.470   3.035   1.497  2.0642 -3.3329 -0.0294
 5435TIP3    H216270   0.424   3.070   1.637 -1.9256  3.8740 -2.5954
 5436TIP3   OH216271   5.017   6.208   0.892 -0.0512 -0.8607  0.3206
 5436TIP3    H116272   5.086   6.196   0.827  1.3869  0.3891  1.5270
 5436TIP3    H216273   5.000   6.121   0.927 -1.6403 -1.7452 -2.4138
 5437TIP3   OH216274   7.067   3.176   2.784 -0.1783  0.0607 -0.1378
 5437TIP3    H116275   6.996   3.122   2.821  1.0975 -1.2763  0.4812
 5437TIP3    H216276   7.080   3.246   2.848  0.5473 -0.9923  0.9085
 5438TIP3   OH216277   0.955   1.676   0.042 -0.1347 -0.2642  0.2459
 5438TIP3    H116278   0.869   1.669   0.083 -0.5094  2.0480  0.0017
 5438TIP3    H216279   1.016   1.690   0.115 -0.3773  0.7816  0.2704
 5439TIP3   OH216280   5.242   2.168   3.686  0.4943 -0.5592  0.1897
 5439TIP3    H116281   5.279   2.255   3.697  1.0967 -0.9879  1.8446
 5439TIP3    H216282   5.147   2.181   3.689  0.5217  0.2295 -1.4338
 5440TIP3   OH216283   4.921   6.735   5.108  0.4981  0.2819  0.2607
 5440TIP3    H116284   4.839   6.691   5.089  0.3078 -0.2665  2.0886
 5440TIP3    H216285   4.972   6.731   5.027 -1.1049  0.2780 -0.7732
 5441TIP3   OH216286   2.478   0.175   0.078  0.0208  0.0622  0.5117
 5441TIP3    H116287   2.415   0.244   0.098 -2.2152 -1.6567 -0.1683
 5441TIP3    H216288   2.499   0.136   0.162  1.0706  1.2901  0.8646
 5442TIP3   OH216289   4.241   3.616   2.354  0.7361  0.6514 -0.2596
 5442TIP3    H116290   4.247   3.679   2.426  2.9492 -1.0114  1.1586
 5442TIP3    H216291   4.327   3.574   2.352 -0.5200 -2.0906 -1.3244
 5443TIP3   OH216292   3.992   1.642   3.116  0.4534  0.3567 -0.9892
 5443TIP3    H116293   3.919   1.675   3.063  0.1332 -0.2914 -0.9531
 5443TIP3    H216294   3.952   1.581   3.177  0.8870  0.7506 -0.2904
 5444TIP3   OH216295   4.313   1.890   0.509 -0.6376 -0.3127  0.0146
 5444TIP3    H116296   4.403   1.913   0.530 -0.1602 -1.3578 -0.7818
 5444TIP3    H216297   4.270   1.882   0.594 -0.3983  1.6892  0.3587
 5445TIP3   OH216298   3.528   1.136   5.618 -0.1365 -0.4558  0.1357
 5445TIP3    H116299   3.569   1.117   5.702 -0.0048  1.5184  0.5523
 5445TIP3    H216300   3.601   1.149   5.557 -0.2297 -2.0478 -0.3721
 5446TIP3   OH216301   4.404   2.063   3.508  0.0651  0.0920  0.0253
 5446TIP3    H116302   4.397   2.029   3.597  1.3792  1.5465  0.7216
 5446TIP3    H216303   4.461   2.000   3.463  1.6766  0.7788  1.0236
 5447TIP3   OH216304   6.637   6.588   2.532  0.1919 -0.1006 -0.4745
 5447TIP3    H116305   6.615   6.509   2.483  0.3670  0.0659 -0.8215
 5447TIP3    H216306   6.613   6.660   2.474  2.8084  0.1118 -1.4410
 5448TIP3   OH216307   4.798   0.662   1.847  0.1465  0.3491  0.1190
 5448TIP3    H116308   4.836   0.690   1.930  1.3902 -0.1972 -0.2369
 5448TIP3    H216309   4.871   0.620   1.801 -0.1570  1.7989 -1.7937
 5449TIP3   OH216310   1.981   0.769   1.225  0.1722  0.0242 -0.3639
 5449TIP3    H116311   1.996   0.861   1.244 -1.2185  0.6641 -2.1141
 5449TIP3    H216312   2.069   0.733   1.207  0.7793  0.8477  0.8645
 5450TIP3   OH216313   2.185   6.518   1.568 -0.6278 -0.0501 -0.2432
 5450TIP3    H116314   2.199   6.431   1.530  0.5859  0.2110 -0.4442
 5450TIP3    H216315   2.207   6.508   1.660 -0.2645  0.1006 -0.3148
 5451TIP3   OH216316   4.693   2.961   4.680  0.1579  0.2787  0.3840
 5451TIP3    H116317   4.679   3.039   4.734  2.2701 -0.1485  1.6444
 5451TIP3    H216318   4.633   2.972   4.606 -2.1042  1.4160  2.2476
 5452TIP3   OH216319   2.785   2.643   4.774  0.1543 -0.1216  0.5711
 5452TIP3    H116320   2.877   2.653   4.797 -0.1895  0.7869  1.6441
 5452TIP3    H216321   2.748   2.731   4.783 -0.9997 -0.6274  0.9785
 5453TIP3   OH216322   2.191   4.654   0.193 -0.1825 -0.8129 -0.0506
 5453TIP3    H116323   2.256   4.593   0.228  0.4100 -0.3818 -0.3730
 5453TIP3    H216324   2.136   4.677   0.268  1.0439  0.0764  0.6129
 5454TIP3   OH216325   0.883   6.296   0.177  0.0004  0.0387 -0.0707
 5454TIP3    H116326   0.881   6.389   0.156  0.5511 -0.1052 -0.8011
 5454TIP3    H216327   0.976   6.276   0.189 -0.2310 -0.0006  2.0604
 5455TIP3   OH216328   4.598   5.334   1.005  0.4342  0.0553  0.2181
 5455TIP3    H116329   4.510   5.301   1.024  1.6809 -3.5822  0.4116
 5455TIP3    H216330   4.652   5.303   1.078  1.9963  1.9079 -0.0630
 5456TIP3   OH216331   2.604   5.517   5.707  0.4010  0.1444  0.0343
 5456TIP3    H116332   2.663   5.497   5.634  2.0646  0.4736  1.2423
 5456TIP3    H216333   2.584   5.610   5.696  1.0859  0.3263  0.2911
 5457TIP3   OH216334   4.802   0.833   0.206 -0.4250 -0.1560 -0.5094
 5457TIP3    H116335   4.875   0.786   0.167 -0.2840 -1.5947  1.3327
 5457TIP3    H216336   4.779   0.900   0.142  1.4678 -0.6843 -1.8194
 5458TIP3   OH216337   1.220   3.865   0.358 -0.0463 -0.9132 -0.0201
 5458TIP3    H116338   1.167   3.890   0.282 -0.2624 -2.1307 -0.2974
 5458TIP3    H216339   1.183   3.915   0.431 -0.3903 -0.3753 -0.5540
 5459TIP3   OH216340   2.189   1.612   1.307  0.3398  0.1058  0.0485
 5459TIP3    H116341   2.180   1.693   1.257 -0.2500 -0.2019 -0.3470
 5459TIP3    H216342   2.278   1.582   1.287 -0.0929 -0.3391 -1.3246
 5460TIP3   OH216343   3.504   0.485   3.200 -0.2557 -0.8667 -0.0448
 5460TIP3    H116344   3.437   0.434   3.154  0.0321 -1.3798  0.0900
 5460TIP3    H216345   3.528   0.430   3.275 -0.8830  0.0566  0.8657
 5461TIP3   OH216346   0.186   4.656   3.003  0.0244 -0.2525 -0.1259
 5461TIP3    H116347   0.170   4.735   2.952  0.5281  0.9119  1.4278
 5461TIP3    H216348   0.107   4.603   2.992 -0.3177  0.4498 -1.1851
 5462TIP3   OH216349   2.758   4.346   0.310 -0.5167 -0.3168  0.1608
 5462TIP3    H116350   2.677   4.369   0.264 -0.8769  0.2145  1.0435
 5462TIP3    H216351   2.805   4.429   0.319 -0.5426 -0.3730  0.9083
 5463TIP3   OH216352   3.538   6.513   0.243  0.4194  0.1136 -0.4774
 5463TIP3    H116353   3.534   6.604   0.270 -2.1150  0.0730 -0.4033
 5463TIP3    H216354   3.607   6.510   0.176  0.1388  2.2164 -0.9240
 5464TIP3   OH216355   5.212   3.105   1.131 -0.5110 -0.3034 -0.1606
 5464TIP3    H116356   5.288   3.090   1.186 -0.6407  1.5729  0.5979
 5464TIP3    H216357   5.187   3.017   1.101  0.5907 -1.1984  1.3666
 5465TIP3   OH216358   3.307   6.248   5.574  0.1841 -0.7600 -0.1788
 5465TIP3    H116359   3.381   6.206   5.618  1.4475 -1.5610 -2.9066
 5465TIP3    H216360   3.236   6.184   5.580  0.3000 -0.8273  0.6849
 5466TIP3   OH216361   1.496   3.950   5.863  0.3327  0.4093 -0.8343
 5466TIP3    H116362   1.515   4.043   5.861 -0.6096  0.7116  1.6988
 5466TIP3    H216363   1.574   3.910   5.901 -1.0111  0.8188  2.6860
 5467TIP3   OH216364   6.585   2.508   0.419 -0.2349  0.1675 -0.5410
 5467TIP3    H116365   6.587   2.413   0.429  0.2085  0.3014  0.8337
 5467TIP3    H216366   6.499   2.534   0.452 -0.9598  0.1303 -2.3049
 5468TIP3   OH216367   0.861   4.777   2.634 -0.0780  0.3171  0.0424
 5468TIP3    H116368   0.884   4.760   2.543  0.8094 -1.0885  0.4819
 5468TIP3    H216369   0.823   4.694   2.665 -1.0751  1.0123  0.7452
 5469TIP3   OH216370   6.095   4.543   5.124 -0.6467 -0.1910 -0.5858
 5469TIP3    H116371   6.099   4.629   5.081 -0.6771 -0.5720 -1.3765
 5469TIP3    H216372   6.012   4.545   5.171 -1.7500 -0.5627 -2.3833
 5470TIP3   OH216373   6.020   1.365   0.695 -0.1453  0.0934 -0.0209
 5470TIP3    H116374   5.938   1.346   0.740  0.9632 -0.1592  2.0322
 5470TIP3    H216375   6.025   1.298   0.626 -2.3532  1.0955 -1.2684
 5471TIP3   OH216376   4.181   6.426   1.844  0.2045  0.0868  0.3796
 5471TIP3    H116377   4.197   6.483   1.769  0.1287 -0.5421 -0.1294
 5471TIP3    H216378   4.201   6.480   1.921  0.8159  0.5713 -0.1114
 5472TIP3   OH216379   1.234   5.729   4.780 -0.2713 -0.2048  0.0651
 5472TIP3    H116380   1.312   5.674   4.775 -0.2158 -0.0148 -1.4217
 5472TIP3    H216381   1.175   5.682   4.839  0.4799 -0.9407  0.2476
 5473TIP3   OH216382   3.860   2.074   2.831 -0.1076 -0.1644 -0.6601
 5473TIP3    H116383   3.840   2.016   2.758 -0.8410 -1.6481  0.6686
 5473TIP3    H216384   3.918   2.023   2.888 -0.0988  0.7124  0.1504
 5474TIP3   OH216385   7.057   3.447   0.062 -0.1239  0.0930  0.1490
 5474TIP3    H116386   6.961   3.450   0.051 -0.1131  0.0252  0.0235
 5474TIP3    H216387   7.088   3.528   0.022 -0.0514 -0.3376 -0.7089
 5475TIP3   OH216388   1.713   5.336   5.858  0.1502  0.2609 -0.6052
 5475TIP3    H116389   1.744   5.414   5.811 -2.3856  1.8147  0.1029
 5475TIP3    H216390   1.647   5.298   5.801 -0.4066  0.1028  0.1287
 5476TIP3   OH216391   6.928   2.369   0.441 -0.3763  0.5551 -0.1023
 5476TIP3    H116392   6.975   2.312   0.380  1.2864 -0.0077  1.5935
 5476TIP3    H216393   6.854   2.316   0.470 -1.8673  1.2614 -2.4334
 5477TIP3   OH216394   5.213   2.750   2.202  0.0666 -0.0558 -0.0009
 5477TIP3    H116395   5.117   2.752   2.204  0.0315 -1.3044  1.9163
 5477TIP3    H216396   5.236   2.660   2.225  1.7148  0.2026 -0.5214
 5478TIP3   OH216397   2.913   1.665   4.453 -0.2494  0.3182  0.0264
 5478TIP3    H116398   2.992   1.718   4.440  0.2083 -0.5046 -0.6040
 5478TIP3    H216399   2.848   1.727   4.486  0.7080  0.9763  0.7388
 5479TIP3   OH216400   5.503   0.046   1.923  0.5681  1.1286  0.6030
 5479TIP3    H116401   5.487   0.140   1.922 -0.1383  1.0253  1.5516
 5479TIP3    H216402   5.535   0.027   2.011 -3.4053 -0.1296  1.9774
 5480TIP3   OH216403   6.792   6.570   4.778  0.5207 -0.5015 -0.7370
 5480TIP3    H116404   6.866   6.531   4.732 -0.2652 -2.9209 -0.1171
 5480TIP3    H216405   6.728   6.588   4.709  0.8222 -0.4927 -1.0177
 5481TIP3   OH216406   4.235   4.903   3.996 -0.1929  0.1036 -0.1857
 5481TIP3    H116407   4.304   4.838   4.008 -0.9451 -0.8042 -0.5581
 5481TIP3    H216408   4.205   4.923   4.085  0.6926  0.6805 -0.0090
 5482TIP3   OH216409   5.965   3.172   2.170  0.3107  0.3674  0.2920
 5482TIP3    H116410   5.882   3.199   2.209 -0.5443 -0.3284 -0.9653
 5482TIP3    H216411   5.959   3.076   2.166  0.5949  0.3895 -1.0321
 5483TIP3   OH216412   0.362   5.905   3.365  0.2599  0.0259  0.1824
 5483TIP3    H116413   0.407   5.888   3.282  0.0684 -0.1968  0.1246
 5483TIP3    H216414   0.414   5.856   3.430 -0.2398 -0.7281  0.0293
 5484TIP3   OH216415   2.254   1.114   5.204  0.6622  0.0022  0.8468
 5484TIP3    H116416   2.343   1.083   5.218  0.4346 -0.5484  1.0953
 5484TIP3    H216417   2.204   1.035   5.181 -0.1611 -0.0110  2.5748
 5485TIP3   OH216418   2.540   2.763   0.008 -0.0216  0.7346 -0.0970
 5485TIP3    H116419   2.626   2.801  -0.011  0.1992  0.1899 -0.1974
 5485TIP3    H216420   2.560   2.684   0.058 -0.3334 -0.6248 -2.0327
 5486TIP3   OH216421   1.874   3.125   3.489 -0.3347 -0.0164 -0.4900
 5486TIP3    H116422   1.968   3.112   3.482  0.1917  0.6277  3.2285
 5486TIP3    H216423   1.861   3.218   3.472  0.0817  0.3391  0.9329
 5487TIP3   OH216424   5.761   6.283   5.182  0.0944  0.3475 -0.3643
 5487TIP3    H116425   5.697   6.349   5.155 -0.7675 -0.4601 -0.3129
 5487TIP3    H216426   5.805   6.323   5.257 -0.6398  0.7426 -0.1353
 5488TIP3   OH216427   2.581   5.585   2.914  0.3938  0.1574  0.6052
 5488TIP3    H116428   2.602   5.660   2.859  0.0016 -0.0109  0.2168
 5488TIP3    H216429   2.665   5.543   2.931  0.4295 -0.2843 -0.5961
 5489TIP3   OH216430   2.970   4.358   1.744 -0.0044 -0.6292 -0.1249
 5489TIP3    H116431   3.055   4.332   1.707 -0.8300 -1.3482 -1.6380
 5489TIP3    H216432   2.929   4.276   1.770  0.5286 -0.1478  2.5339
 5490TIP3   OH216433   5.486   3.717   1.908  0.3277  0.3850  0.0691
 5490TIP3    H116434   5.402   3.672   1.907  0.3348  0.1693  2.6098
 5490TIP3    H216435   5.483   3.776   1.832 -0.8368 -1.7565 -1.6812
 5491TIP3   OH216436   5.934   3.193   2.677 -0.0521  0.0743 -0.4989
 5491TIP3    H116437   5.858   3.142   2.705 -0.7275  1.4218  0.2231
 5491TIP3    H216438   5.909   3.284   2.693  1.5648  0.5747 -0.6451
 5492TIP3   OH216439   0.334   5.924   5.752 -0.1228  0.0018  0.4484
 5492TIP3    H116440   0.397   5.982   5.709  1.1123 -0.5720  1.4150
 5492TIP3    H216441   0.313   5.967   5.835  0.8238 -0.9080  1.1881
 5493TIP3   OH216442   3.226   5.567   3.817 -0.1991  0.2931 -0.6812
 5493TIP3    H116443   3.289   5.508   3.775  0.1059  0.8755 -1.0548
 5493TIP3    H216444   3.141   5.543   3.779 -0.5413 -1.7447  1.1501
 5494TIP3   OH216445   2.750   2.812   5.263 -0.6160 -0.0481  0.3323
 5494TIP3    H116446   2.748   2.729   5.215  1.3014 -0.0815  0.2448
 5494TIP3    H216447   2.802   2.871   5.208 -0.9071  0.8399  0.9796
 5495TIP3   OH216448   2.185   6.698   4.664  0.0693 -1.2754  0.0380
 5495TIP3    H116449   2.211   6.645   4.739 -1.0283 -1.1524  0.5235
 5495TIP3    H216450   2.161   6.783   4.702 -0.0372 -1.0570 -0.5110
 5496TIP3   OH216451   0.863   0.715   1.743  0.6703 -0.1668 -0.0257
 5496TIP3    H116452   0.879   0.719   1.649 -0.9425  1.2628 -0.2733
 5496TIP3    H216453   0.928   0.652   1.775  1.5220 -0.3763 -2.0133
 5497TIP3   OH216454   6.149   0.569   0.848  0.7363  0.2775  0.1777
 5497TIP3    H116455   6.168   0.651   0.802  1.6473 -0.7494 -1.3953
 5497TIP3    H216456   6.228   0.551   0.899  1.0349 -0.1995 -0.4322
 5498TIP3   OH216457   6.582   2.083   4.036  0.0603  0.1970  0.0061
 5498TIP3    H116458   6.537   2.048   4.113 -1.5287  0.8203 -0.5991
 5498TIP3    H216459   6.584   2.178   4.050 -3.0696  0.7016 -2.0513
 5499TIP3   OH216460   3.532   1.471   5.479 -0.4108 -0.0209  0.0059
 5499TIP3    H116461   3.518   1.406   5.547 -1.3638  0.6054  0.4325
 5499TIP3    H216462   3.444   1.491   5.446 -0.0383  0.2969 -0.8208
 5500TIP3   OH216463   4.889   4.004   0.922  0.3968  0.5502 -0.2325
 5500TIP3    H116464   4.963   4.041   0.970  0.1163  0.0946  0.5756
 5500TIP3    H216465   4.850   3.941   0.983  0.0509 -0.0756 -1.0736
 5501TIP3   OH216466   0.646   5.001   1.695 -0.0089  0.2118 -0.0441
 5501TIP3    H116467   0.624   5.032   1.782  0.4166 -0.1453  0.1936
 5501TIP3    H216468   0.622   5.073   1.637  0.0703  0.6032  0.4057
 5502TIP3   OH216469   1.537   2.913   5.518  0.3189 -0.5825  0.2573
 5502TIP3    H116470   1.589   2.841   5.480  2.0288  0.2145  0.9701
 5502TIP3    H216471   1.448   2.880   5.519  0.9074 -2.3222 -0.3525
 5503TIP3   OH216472   0.993   2.359   0.082  0.3567 -0.3903 -0.7694
 5503TIP3    H116473   0.934   2.371   0.007  0.2855  2.2777 -0.3947
 5503TIP3    H216474   0.962   2.423   0.146  1.2082 -1.7395  1.0753
 5504TIP3   OH216475   5.604   5.885   0.497 -0.1275  0.2782 -0.0425
 5504TIP3    H116476   5.671   5.938   0.540 -0.4485  0.9519 -0.3535
 5504TIP3    H216477   5.651   5.809   0.463  0.2410  0.0686  0.9173
 5505TIP3   OH216478   1.364   3.324   0.484  0.4406  0.2160  0.1010
 5505TIP3    H116479   1.324   3.237   0.484  0.8566 -0.0234  1.9179
 5505TIP3    H216480   1.453   3.309   0.453  0.3597  0.0652 -0.0583
 5506TIP3   OH216481   6.449   1.227   5.149 -0.4053  0.2867  0.2092
 5506TIP3    H116482   6.501   1.246   5.227 -1.1453  2.8115  0.1752
 5506TIP3    H216483   6.498   1.267   5.077 -0.3165 -1.0002 -0.4801
 5507TIP3   OH216484   3.562   3.340   4.765  0.4521  0.3994  0.0579
 5507TIP3    H116485   3.601   3.407   4.821  1.3442  1.2855 -1.5739
 5507TIP3    H216486   3.612   3.345   4.683 -0.8738 -0.7984 -0.8583
 5508TIP3   OH216487   0.635   2.998   0.654 -0.0268 -0.2991 -0.3789
 5508TIP3    H116488   0.591   3.080   0.631 -3.6605 -2.1273 -0.6550
 5508TIP3    H216489   0.689   2.978   0.577 -0.3091  1.0361 -0.9588
 5509TIP3   OH216490  -0.001   3.912   5.271  0.2911  0.1560  0.6031
 5509TIP3    H116491   0.073   3.926   5.213 -0.4501  0.7161 -0.2179
 5509TIP3    H216492  -0.068   3.871   5.216 -0.4510  0.7719  1.0244
 5510TIP3   OH216493   5.040   3.738   5.796  0.2671  0.1823 -0.0431
 5510TIP3    H116494   4.999   3.763   5.713  0.5107 -1.0496 -0.5576
 5510TIP3    H216495   4.982   3.670   5.831  0.7085 -0.0188  0.2993
 5511TIP3   OH216496   1.279   4.230   3.143 -0.0312 -0.0657  0.3993
 5511TIP3    H116497   1.260   4.323   3.131  0.0551 -0.1142 -0.1442
 5511TIP3    H216498   1.340   4.228   3.217  1.8558  0.5480 -1.0312
 5512TIP3   OH216499   1.381   0.369   3.270 -0.1682 -0.0890 -0.6094
 5512TIP3    H116500   1.358   0.332   3.355 -0.0597  0.6920 -0.2375
 5512TIP3    H216501   1.468   0.406   3.283 -0.5878  0.9919 -0.7466
 5513TIP3   OH216502   1.885   3.515   2.825 -0.3778 -0.6949 -0.2556
 5513TIP3    H116503   1.802   3.518   2.779 -0.4180 -0.7163 -0.1836
 5513TIP3    H216504   1.873   3.574   2.899  0.2993  0.8455 -1.3093
 5514TIP3   OH216505   4.887   1.652   1.616  0.0441 -0.4179 -0.3420
 5514TIP3    H116506   4.913   1.592   1.546  3.3112  1.4919 -0.9819
 5514TIP3    H216507   4.824   1.711   1.574 -0.0110 -0.8775 -0.9198
 5515TIP3   OH216508   6.002   0.843   0.347 -0.1404  0.5019  0.5079
 5515TIP3    H116509   5.915   0.832   0.310 -0.7344  1.3536  1.5750
 5515TIP3    H216510   5.991   0.824   0.440  0.6948  1.0797  0.7387
 5516TIP3   OH216511   5.285   0.742   3.222 -0.0100 -0.4883  0.3235
 5516TIP3    H116512   5.212   0.743   3.285  0.6046  1.9607  1.0914
 5516TIP3    H216513   5.363   0.734   3.277  0.4437 -0.1027 -0.2599
 5517TIP3   OH216514   2.969   6.175   2.417  0.0888  0.6820 -0.0719
 5517TIP3    H116515   2.875   6.163   2.409 -0.0678  1.0460  1.0175
 5517TIP3    H216516   2.987   6.163   2.510  1.5294 -2.0214 -0.5909
 5518TIP3   OH216517   2.211   0.688   5.531  0.6281 -0.2679 -0.5378
 5518TIP3    H116518   2.157   0.643   5.597  0.4039  0.2143 -0.3829
 5518TIP3    H216519   2.262   0.618   5.489 -0.2145 -0.7566 -0.7766
 5519TIP3   OH216520   6.640   5.553   4.997 -0.1143 -0.1419 -0.1973
 5519TIP3    H116521   6.723   5.591   4.966 -0.3382  0.4046 -0.1451
 5519TIP3    H216522   6.665   5.494   5.067  0.2199  0.1653 -0.0547
 5520TIP3   OH216523   1.687   4.657   2.354 -0.1869 -0.5010  0.1658
 5520TIP3    H116524   1.631   4.729   2.383  0.3527 -0.5988  1.5486
 5520TIP3    H216525   1.777   4.690   2.363  0.0451 -1.0970  0.1442
 5521TIP3   OH216526   5.769   5.898   0.782  0.2111  0.8627 -0.2219
 5521TIP3    H116527   5.851   5.848   0.783  0.4117  1.1723 -0.8501
 5521TIP3    H216528   5.764   5.938   0.869  0.6261  0.6786 -0.1101
 5522TIP3   OH216529   6.280   4.357   1.531 -0.2130  0.7397 -0.5469
 5522TIP3    H116530   6.195   4.383   1.565 -0.6725  0.2483 -1.2824
 5522TIP3    H216531   6.281   4.391   1.441  0.0568  0.1169 -0.7871
 5523TIP3   OH216532   5.099   4.394   4.726  0.6100 -0.1866 -0.3869
 5523TIP3    H116533   5.113   4.387   4.820 -0.0948  0.3044 -0.2364
 5523TIP3    H216534   5.059   4.480   4.714 -0.7421 -0.8457 -0.9468
 5524TIP3   OH216535   6.810   6.206   1.248 -0.3113 -0.6607  0.1810
 5524TIP3    H116536   6.753   6.144   1.203 -0.1558 -0.5101 -0.2265
 5524TIP3    H216537   6.867   6.240   1.179 -0.4268 -0.0305  0.3957
 5525TIP3   OH216538   0.426   3.490   4.790  0.1675 -0.1057  0.6190
 5525TIP3    H116539   0.449   3.461   4.702 -0.1544 -0.9229  0.7947
 5525TIP3    H216540   0.332   3.505   4.787  0.3040  0.8352  0.5679
 5526TIP3   OH216541   3.806   6.172   0.764 -0.2069 -0.0228  0.3635
 5526TIP3    H116542   3.896   6.146   0.741  0.2800  0.2279  1.8551
 5526TIP3    H216543   3.794   6.257   0.722  0.0753 -0.2872 -0.2592
 5527TIP3   OH216544   2.942   3.595   5.819  0.7005 -0.3461  1.1361
 5527TIP3    H116545   3.016   3.535   5.810  2.0472  1.1211  1.9084
 5527TIP3    H216546   2.865   3.538   5.821  1.8722 -1.9980  1.3228
 5528TIP3   OH216547   2.759   0.194   1.350 -0.0023 -0.1008 -0.0276
 5528TIP3    H116548   2.727   0.257   1.414  1.3081  1.0552 -0.4566
 5528TIP3    H216549   2.703   0.206   1.273 -0.0609  0.2120  0.0613
 5529TIP3   OH216550   6.051   4.944   3.674  0.8823  0.5204  0.4987
 5529TIP3    H116551   6.117   4.875   3.670 -0.5615 -0.8457 -0.5280
 5529TIP3    H216552   5.979   4.906   3.723  0.5951  1.8124  1.1383
 5530TIP3   OH216553   6.972   1.154   1.812 -0.0549 -0.4529  0.3725
 5530TIP3    H116554   7.037   1.101   1.766 -2.0219 -1.7812 -1.0858
 5530TIP3    H216555   6.945   1.100   1.886  0.4880  0.1079  0.9911
 5531TIP3   OH216556   0.018   5.156   0.295 -0.3137  0.2397 -0.6084
 5531TIP3    H116557   0.086   5.223   0.301 -1.0845  0.9622  0.6448
 5531TIP3    H216558   0.026   5.121   0.206  2.0837 -0.1740 -0.2942
 5532TIP3   OH216559   1.885   4.074   4.697 -0.0927  0.1954  0.4228
 5532TIP3    H116560   1.923   4.160   4.714  0.0468  0.2795 -0.3128
 5532TIP3    H216561   1.881   4.067   4.602  1.0096 -1.0906  0.4343
 5533TIP3   OH216562   5.107   1.033   5.782  0.0199  0.8995  0.7038
 5533TIP3    H116563   5.189   1.071   5.752  0.9764 -1.2013  0.4815
 5533TIP3    H216564   5.072   0.988   5.705 -1.0983  1.3216  0.9343
 5534TIP3   OH216565   1.407   5.639   4.019 -0.8279 -0.0277 -0.2228
 5534TIP3    H116566   1.372   5.694   4.089 -0.1042  0.9519 -0.6082
 5534TIP3    H216567   1.393   5.691   3.939 -0.0805 -0.3734 -0.5822
 5535TIP3   OH216568   3.942   2.876   5.261  0.4449  0.1732  0.3363
 5535TIP3    H116569   4.021   2.824   5.273 -0.0416 -0.6017  0.2863
 5535TIP3    H216570   3.956   2.924   5.179  0.7656 -0.1327  0.2129
 5536TIP3   OH216571   2.094   5.788   5.742 -0.3889 -0.4549 -0.1011
 5536TIP3    H116572   2.130   5.746   5.664  0.5930 -0.3032  0.2505
 5536TIP3    H216573   2.166   5.787   5.805  0.0061  2.4827 -0.3388
 5537TIP3   OH216574   5.746   4.005   4.211 -0.2559 -0.1685  0.3914
 5537TIP3    H116575   5.785   3.972   4.131  1.7664 -1.1031  1.6889
 5537TIP3    H216576   5.666   3.954   4.222  0.4514 -1.3920 -0.0408
 5538TIP3   OH216577   4.122   3.267   1.860  0.6917 -0.0428  0.4626
 5538TIP3    H116578   4.035   3.262   1.899  0.9998 -2.9768  0.9978
 5538TIP3    H216579   4.151   3.176   1.854  2.4687  0.5902 -2.6470
 5539TIP3   OH216580   6.804   1.235   1.003  0.5668 -0.5914 -0.1535
 5539TIP3    H116581   6.885   1.196   1.036  0.8804 -0.2324 -0.4948
 5539TIP3    H216582   6.744   1.161   0.993  0.7562 -0.8252  0.3655
 5540TIP3   OH216583   5.414   0.426   0.871 -0.6964  0.5442 -0.0851
 5540TIP3    H116584   5.463   0.484   0.930 -1.9269  0.2479  1.2915
 5540TIP3    H216585   5.415   0.471   0.787  0.6286  1.2617  0.2812
 5541TIP3   OH216586   0.614   1.591   4.316 -0.0693 -0.2413 -0.0625
 5541TIP3    H116587   0.572   1.527   4.259 -0.0647 -1.0705  0.8420
 5541TIP3    H216588   0.659   1.651   4.257 -1.6291  0.0372 -1.0079
 5542TIP3   OH216589   6.925   0.265   4.574 -0.1511  0.3975  0.3667
 5542TIP3    H116590   6.850   0.238   4.522 -1.0774  0.7320  1.4949
 5542TIP3    H216591   6.968   0.183   4.599 -0.4566  0.1813  0.1824
 5543TIP3   OH216592   3.542   2.199   1.435  0.0800 -0.3060  0.8026
 5543TIP3    H116593   3.623   2.173   1.478  0.2369  0.1820  0.8087
 5543TIP3    H216594   3.473   2.152   1.482  0.5846 -3.6675 -1.4919
 5544TIP3   OH216595   4.851   4.766   0.827 -0.1663  0.0790 -0.0435
 5544TIP3    H116596   4.808   4.776   0.742 -1.3518 -1.2874  0.3651
 5544TIP3    H216597   4.863   4.856   0.858 -0.5289  0.5638 -1.2494
 5545TIP3   OH216598   4.668   5.102   0.747  0.1322 -0.7131  0.3649
 5545TIP3    H116599   4.719   5.088   0.667 -2.8693 -0.3098 -1.7839
 5545TIP3    H216600   4.627   5.187   0.735 -1.1482 -1.0649  1.8822
 5546TIP3   OH216601   3.001   1.057   3.639  0.1725  0.2748  0.6355
 5546TIP3    H116602   3.026   1.069   3.547 -0.7148  1.6838  0.5359
 5546TIP3    H216603   2.921   1.004   3.635  0.8091 -0.7109  0.6907
 5547TIP3   OH216604   2.123   6.288   3.124 -0.0307 -0.0396  0.0110
 5547TIP3    H116605   2.105   6.304   3.216  1.3894 -1.1475  0.5283
 5547TIP3    H216606   2.040   6.260   3.087 -0.8571  1.4389  0.7014
 5548TIP3   OH216607   5.117   1.749   5.376 -0.0147  0.2447  0.2182
 5548TIP3    H116608   5.023   1.761   5.365 -0.0148  1.2072  1.1383
 5548TIP3    H216609   5.126   1.699   5.457  0.2375 -1.0439 -0.5653
 5549TIP3   OH216610   5.361   2.725   1.603  0.1892 -0.0752  0.0190
 5549TIP3    H116611   5.301   2.768   1.664 -0.5110  0.3875 -0.9594
 5549TIP3    H216612   5.433   2.787   1.592 -0.3286  0.4308 -0.6165
 5550TIP3   OH216613   0.794   2.977   5.370  0.4442 -0.3161 -0.4152
 5550TIP3    H116614   0.809   2.884   5.359 -0.7234 -0.5514 -0.1207
 5550TIP3    H216615   0.721   2.983   5.432 -0.0797  0.7675 -1.0899
 5551TIP3   OH216616   6.387   3.448   2.117 -0.3608 -0.1313  0.1971
 5551TIP3    H116617   6.292   3.443   2.107 -0.4487  0.7138  0.4901
 5551TIP3    H216618   6.422   3.434   2.029 -0.7492 -0.4997  0.0971
 5552TIP3   OH216619   6.510   0.729   1.654 -0.5380  0.1938  0.0311
 5552TIP3    H116620   6.448   0.785   1.698 -0.5697 -0.1275  0.3990
 5552TIP3    H216621   6.594   0.749   1.695 -0.8079 -1.2609  1.4075
 5553TIP3   OH216622   6.933   0.052   4.348  0.1246 -0.4189 -0.2865
 5553TIP3    H116623   6.881  -0.022   4.379 -1.2005  0.3912 -0.4922
 5553TIP3    H216624   6.908   0.061   4.256  1.0856 -0.3745 -0.5478
 5554TIP3   OH216625   2.159   4.269   5.381 -0.1979  0.3812 -0.2115
 5554TIP3    H116626   2.228   4.236   5.439 -0.9397  0.4171  0.7298
 5554TIP3    H216627   2.161   4.364   5.392 -1.7172  0.2693  1.4342
 5555TIP3   OH216628   1.343   6.741   1.821 -0.1249 -0.0083  0.3790
 5555TIP3    H116629   1.348   6.809   1.888  0.9766 -0.5555  0.8811
 5555TIP3    H216630   1.406   6.768   1.754 -0.8724  0.2889 -0.2195
 5556TIP3   OH216631   6.518   0.761   2.293 -0.4906  0.3801  0.1084
 5556TIP3    H116632   6.476   0.839   2.328 -1.0772  0.7842 -1.4274
 5556TIP3    H216633   6.540   0.709   2.371  0.1226  2.1451  1.1736
 5557TIP3   OH216634   0.459   1.679   2.933  0.0692  0.0472 -0.2276
 5557TIP3    H116635   0.387   1.741   2.927 -0.2483 -0.3514 -0.6495
 5557TIP3    H216636   0.419   1.600   2.970  0.5984  0.2871  0.9065
 5558TIP3   OH216637   5.934   6.736   0.216 -0.4267 -0.6418  0.1386
 5558TIP3    H116638   5.896   6.801   0.157  1.1852 -0.7633 -1.1107
 5558TIP3    H216639   5.882   6.657   0.201 -0.1223 -0.6373 -1.0540
 5559TIP3   OH216640   4.881   1.270   3.590 -0.0496  0.3346  0.0464
 5559TIP3    H116641   4.848   1.303   3.506  0.8227 -0.5868 -0.6699
 5559TIP3    H216642   4.803   1.263   3.645 -0.7764  0.0308 -0.9977
 5560TIP3   OH216643   4.035   6.114   4.361  0.6137  0.5868  0.2298
 5560TIP3    H116644   4.088   6.034   4.352  0.2435  0.3929 -0.2588
 5560TIP3    H216645   3.961   6.100   4.302 -0.3929  0.5375  1.4557
 5561TIP3   OH216646   4.493   1.309   2.996  0.5806 -0.0801  0.3392
 5561TIP3    H116647   4.495   1.399   3.029 -1.1076  0.0332  0.2306
 5561TIP3    H216648   4.410   1.274   3.029  0.6983 -1.2353 -0.5489
 5562TIP3   OH216649   4.426   2.137   2.707 -0.1696 -0.4965  0.2496
 5562TIP3    H116650   4.385   2.107   2.626  1.5914 -0.7537 -0.5899
 5562TIP3    H216651   4.441   2.230   2.694  2.2400 -0.9457 -0.7662
 5563TIP3   OH216652   0.992   1.974   0.067 -0.2494  0.0496 -0.2243
 5563TIP3    H116653   0.956   1.992   0.154  1.7378  1.9954  0.2623
 5563TIP3    H216654   0.974   1.881   0.053 -1.1761 -0.1608  1.9865
 5564TIP3   OH216655   4.141   0.334   3.103  0.8753  0.2218 -0.3695
 5564TIP3    H116656   4.054   0.297   3.124  1.4464 -0.0378  1.7733
 5564TIP3    H216657   4.140   0.344   3.008 -1.8846  1.1768 -0.3364
 5565TIP3   OH216658   5.139   4.521   2.874  0.5241  0.6520  0.2169
 5565TIP3    H116659   5.223   4.552   2.908  2.1835 -0.5303 -2.4853
 5565TIP3    H216660   5.146   4.425   2.880 -1.5789  0.5467  1.9386
 5566TIP3   OH216661   2.342   6.413   2.988 -0.0528 -0.0157  0.6793
 5566TIP3    H116662   2.336   6.342   2.924  0.8461 -0.5930  1.2251
 5566TIP3    H216663   2.285   6.384   3.060  1.6747 -1.0631  1.6940
 5567TIP3   OH216664   5.766   0.054   1.833 -0.2142  0.0776 -0.2141
 5567TIP3    H116665   5.671   0.045   1.835 -0.3221  1.0578 -0.6056
 5567TIP3    H216666   5.784   0.131   1.886  0.5406 -1.2625  1.5730
 5568TIP3   OH216667   6.319   0.319   2.072 -0.2028  0.3666  0.5662
 5568TIP3    H116668   6.316   0.229   2.040 -0.2299  0.6399 -0.2272
 5568TIP3    H216669   6.376   0.316   2.148  0.9407 -0.0787 -0.2775
 5569TIP3   OH216670   1.105   0.968   4.593  0.4555  0.0044 -0.5446
 5569TIP3    H116671   1.091   0.905   4.663  2.5243  0.7743  0.6665
 5569TIP3    H216672   1.172   0.928   4.538  1.8108  1.0759  0.2537
 5570TIP3   OH216673   5.662   6.728   4.940  0.3039 -0.5897  0.3928
 5570TIP3    H116674   5.706   6.806   4.906  0.5501 -1.1630 -0.6324
 5570TIP3    H216675   5.622   6.757   5.022  1.9437  0.1453  0.9769
 5571TIP3   OH216676   1.292   6.493   1.920 -0.4098  0.2861 -0.3265
 5571TIP3    H116677   1.306   6.555   1.848 -0.2481 -1.1371 -1.5531
 5571TIP3    H216678   1.357   6.519   1.986  0.9531  0.2859 -1.6082
 5572TIP3   OH216679   1.744   2.080   4.251 -0.0999 -0.3139 -0.7297
 5572TIP3    H116680   1.832   2.046   4.264  0.0699  0.2857 -0.2311
 5572TIP3    H216681   1.709   2.031   4.177  0.3552 -1.1173 -0.4215
 5573TIP3   OH216682   4.148   1.829   4.239 -0.3238 -0.6409 -0.3706
 5573TIP3    H116683   4.111   1.802   4.155  1.3782 -0.3108 -1.2706
 5573TIP3    H216684   4.232   1.869   4.216 -0.7822  1.4686  1.2812
 5574TIP3   OH216685   2.536   1.779   3.554  0.3089 -0.0959  0.7038
 5574TIP3    H116686   2.516   1.704   3.610 -0.2483  0.3763  1.1611
 5574TIP3    H216687   2.554   1.850   3.615  0.0500  0.3380  0.2812
 5575TIP3   OH216688   3.095   1.860   5.420  0.1611 -0.0961 -0.2529
 5575TIP3    H116689   3.140   1.923   5.364 -0.5983 -1.8660 -3.0152
 5575TIP3    H216690   3.114   1.774   5.381  0.8721 -1.6704  3.1248
 5576TIP3   OH216691   3.378   3.180   1.556 -0.3784  0.7875 -0.0274
 5576TIP3    H116692   3.392   3.221   1.641 -2.7550  0.0876  0.7742
 5576TIP3    H216693   3.466   3.168   1.521  0.6144  2.2059  1.7644
 5577TIP3   OH216694   2.400   3.684   2.934 -0.0623 -0.3941 -0.5526
 5577TIP3    H116695   2.384   3.645   3.020 -0.9749  0.0980 -0.4865
 5577TIP3    H216696   2.478   3.738   2.946  0.3560 -1.0512 -0.2731
 5578TIP3   OH216697   3.327   1.220   5.393  0.2093 -0.1352  0.5957
 5578TIP3    H116698   3.407   1.171   5.374  1.0973  0.6340  2.1047
 5578TIP3    H216699   3.272   1.157   5.440  0.0802 -0.5494 -0.0970
 5579TIP3   OH216700   3.545   2.555   5.572  0.7419 -0.5450  0.1668
 5579TIP3    H116701   3.635   2.535   5.596  0.6546 -1.2379 -0.0726
 5579TIP3    H216702   3.534   2.516   5.485 -0.1330 -1.4455  0.6638
 5580TIP3   OH216703   2.672   4.323   2.532 -0.5688 -0.0849  0.0841
 5580TIP3    H116704   2.730   4.397   2.515 -0.9253  0.1483 -0.1274
 5580TIP3    H216705   2.729   4.256   2.570  0.0909 -0.3173 -1.2714
 5581TIP3   OH216706   0.607   4.580   0.129  0.2289 -0.0923 -0.2119
 5581TIP3    H116707   0.682   4.536   0.168 -0.1638  0.4465  1.2387
 5581TIP3    H216708   0.639   4.667   0.104 -0.1121  0.5194  1.3528
 5582TIP3   OH216709   5.270   4.584   1.708 -0.2366  0.1457 -0.2279
 5582TIP3    H116710   5.213   4.509   1.689 -1.7866  0.9259  1.1494
 5582TIP3    H216711   5.282   4.581   1.803  0.1615  1.3121 -0.2288
 5583TIP3   OH216712   4.167   0.994   2.145  0.0472  0.0043 -0.5103
 5583TIP3    H116713   4.230   0.963   2.210 -0.2627 -1.6324 -0.9632
 5583TIP3    H216714   4.154   0.920   2.086 -1.2910  0.7569 -1.2099
 5584TIP3   OH216715   3.690   6.178   4.438 -0.2015  0.2537  0.0772
 5584TIP3    H116716   3.633   6.135   4.374  2.1816 -0.0219 -2.0274
 5584TIP3    H216717   3.701   6.267   4.404 -0.2271  0.6443  1.0534
 5585TIP3   OH216718   3.570   0.360   3.446 -0.3243  0.1968  0.4838
 5585TIP3    H116719   3.480   0.335   3.465 -0.3626 -0.3466 -0.3475
 5585TIP3    H216720   3.623   0.297   3.494 -0.3990  0.0186  0.3334
 5586TIP3   OH216721   5.450   5.867   4.496  0.2750 -0.6908 -0.0735
 5586TIP3    H116722   5.361   5.840   4.476 -0.0279 -0.1265  0.4915
 5586TIP3    H216723   5.459   5.952   4.454  0.6817 -0.9052 -0.4395
 5587TIP3   OH216724   2.303   6.258   2.771  0.2879 -0.3509 -0.3276
 5587TIP3    H116725   2.314   6.188   2.835  0.3607 -0.5306 -0.5360
 5587TIP3    H216726   2.390   6.272   2.735  0.1030 -0.8173 -0.9789
 5588TIP3   OH216727   3.852   5.676   4.386 -0.5366 -0.3756  0.2075
 5588TIP3    H116728   3.794   5.730   4.333 -0.5961 -2.2098 -1.7171
 5588TIP3    H216729   3.801   5.656   4.465 -1.8600 -0.5368 -0.6643
 5589TIP3   OH216730   1.443   0.242   1.702  0.6553  0.1687  0.2726
 5589TIP3    H116731   1.410   0.167   1.751  2.4398 -0.2916  0.8492
 5589TIP3    H216732   1.402   0.234   1.616  0.9458 -1.5970  0.2522
 5590TIP3   OH216733   1.389   5.200   1.007  0.0498 -0.2937 -0.8030
 5590TIP3    H116734   1.306   5.153   1.004  0.3090 -0.9377  0.9551
 5590TIP3    H216735   1.452   5.136   1.041  1.2460  0.2452 -1.8949
 5591TIP3   OH216736   0.762   3.687   2.444 -0.1287  0.3628  0.4886
 5591TIP3    H116737   0.684   3.712   2.395  0.0670 -0.1492 -0.1071
 5591TIP3    H216738   0.821   3.762   2.434 -0.6790  0.9070  1.2596
 5592TIP3   OH216739   4.673   2.381   3.693  0.1426 -0.8633 -0.5160
 5592TIP3    H116740   4.611   2.345   3.756  0.2436 -1.1917 -0.6003
 5592TIP3    H216741   4.746   2.413   3.746  0.2551 -1.1947 -0.4695
 5593TIP3   OH216742   5.678   6.254   3.242  0.1684  0.1354 -0.4478
 5593TIP3    H116743   5.751   6.199   3.268 -0.1053  0.1900  0.4737
 5593TIP3    H216744   5.631   6.273   3.324 -0.1870  1.0914 -0.8491
 5594TIP3   OH216745   4.064   4.830   3.215  0.2465  0.5781  0.1017
 5594TIP3    H116746   3.968   4.828   3.215  0.1381  2.2382  2.3981
 5594TIP3    H216747   4.087   4.844   3.123 -1.8776  3.0136 -0.1870
 5595TIP3   OH216748   4.117   3.231   1.583  0.3180 -0.3117 -0.0358
 5595TIP3    H116749   4.187   3.186   1.629  1.7886  0.9695 -0.9441
 5595TIP3    H216750   4.090   3.302   1.642  1.9138  1.0689 -0.8885
 5596TIP3   OH216751   1.020   0.476   1.793  0.0935  0.5810  0.4770
 5596TIP3    H116752   1.111   0.497   1.771 -0.2041  0.2318 -1.2437
 5596TIP3    H216753   0.992   0.416   1.724 -0.7862 -1.0982  2.1886
 5597TIP3   OH216754   4.126   0.376   5.506 -0.0575  0.0803  0.0957
 5597TIP3    H116755   4.042   0.385   5.460  0.7610  0.5307 -1.3728
 5597TIP3    H216756   4.128   0.450   5.566 -0.0544  0.9984 -0.9877
 5598TIP3   OH216757   1.349   4.856   4.161 -0.4241  0.4409  0.5160
 5598TIP3    H116758   1.413   4.926   4.170 -0.2974  0.3713  0.1789
 5598TIP3    H216759   1.326   4.832   4.250  1.9821 -1.3165  0.7717
 5599TIP3   OH216760   6.301   1.428   1.659 -0.1348  0.0791 -0.4509
 5599TIP3    H116761   6.379   1.378   1.638 -0.6358 -0.9959  0.1753
 5599TIP3    H216762   6.261   1.382   1.732 -0.7764  1.2347 -0.0377
 5600TIP3   OH216763   0.943   5.177  -0.010  0.5809  0.2502 -0.3707
 5600TIP3    H116764   0.876   5.188   0.057  1.3200 -0.4078  0.5092
 5600TIP3    H216765   0.935   5.086  -0.038  0.1833  0.5588 -1.3001
 5601TIP3   OH216766   5.952   3.468   3.603 -0.1341 -0.5794  0.1480
 5601TIP3    H116767   5.954   3.528   3.528  1.3144  1.6065  1.8057
 5601TIP3    H216768   5.869   3.488   3.647 -0.3283 -0.8527 -0.0901
 5602TIP3   OH216769   3.638   0.120   3.272 -0.0340 -0.3828  0.5533
 5602TIP3    H116770   3.548   0.138   3.299  0.1761  0.4403  0.7328
 5602TIP3    H216771   3.635   0.034   3.231 -1.0473 -0.0278 -0.1406
 5603TIP3   OH216772   1.480   2.324   0.903  1.1452  0.2529  0.1641
 5603TIP3    H116773   1.447   2.287   0.985 -0.1247 -0.2758 -0.5522
 5603TIP3    H216774   1.572   2.343   0.920  1.3210 -1.3457  1.2078
 5604TIP3   OH216775   2.703   3.329   4.826  0.1762  0.1252  0.5815
 5604TIP3    H116776   2.749   3.352   4.906  0.2746  1.7595  0.0906
 5604TIP3    H216777   2.634   3.268   4.854 -0.8929  1.9750  2.2083
 5605TIP3   OH216778   7.138   5.752   2.524 -0.3986 -0.2663 -0.1391
 5605TIP3    H116779   7.216   5.796   2.558 -0.4745 -0.7129  0.6350
 5605TIP3    H216780   7.132   5.671   2.574 -1.9051  0.1981  0.5142
 5606TIP3   OH216781   3.464   3.346   3.194  0.0743 -0.1238 -0.0300
 5606TIP3    H116782   3.378   3.317   3.164  0.2614  1.0156 -1.7989
 5606TIP3    H216783   3.514   3.361   3.114  0.8521  2.3689  0.8087
 5607TIP3   OH216784   5.571   6.151   4.399 -0.1810 -0.1608  0.0388
 5607TIP3    H116785   5.510   6.172   4.470 -0.6675  1.7573 -0.8600
 5607TIP3    H216786   5.656   6.182   4.431  0.3914 -2.7396  1.2485
 5608TIP3   OH216787   4.608   2.725   5.726  0.0481  0.7123 -0.2355
 5608TIP3    H116788   4.562   2.664   5.668 -0.3407  1.8578 -1.1794
 5608TIP3    H216789   4.701   2.709   5.707  0.0273 -0.7497  0.7794
 5609TIP3   OH216790   1.694   5.876   2.025 -0.0235 -0.3780  0.7032
 5609TIP3    H116791   1.607   5.913   2.040  0.9527  2.3653  0.2355
 5609TIP3    H216792   1.716   5.901   1.936  1.2916 -0.9270  0.8479
 5610TIP3   OH216793   2.665   3.998   5.464 -0.0742 -0.2898 -0.1042
 5610TIP3    H116794   2.749   3.951   5.460  0.9868  1.4633  0.5553
 5610TIP3    H216795   2.633   3.981   5.552  0.5438  0.5807  0.2981
 5611TIP3   OH216796   0.809   4.194   2.096  0.2504 -0.4308  0.7593
 5611TIP3    H116797   0.754   4.225   2.024  0.8844 -0.9218  0.0404
 5611TIP3    H216798   0.866   4.268   2.115  0.6072 -0.5566  0.2138
 5612TIP3   OH216799   1.213   0.914   3.382  0.1033 -0.1216 -0.0713
 5612TIP3    H116800   1.120   0.911   3.363  0.4391 -0.5136 -1.8191
 5612TIP3    H216801   1.255   0.891   3.299  1.7500 -0.0517  0.7083
 5613TIP3   OH216802   1.118   4.453   4.349  0.6112  0.4991 -0.3669
 5613TIP3    H116803   1.137   4.439   4.256  0.4185  0.2493 -0.3715
 5613TIP3    H216804   1.050   4.520   4.350  0.0347 -0.0793 -0.4455
 5614TIP3   OH216805   6.880   0.216   4.927  0.0761 -0.0350 -0.8635
 5614TIP3    H116806   6.862   0.150   4.860 -1.9222 -0.9517  0.4687
 5614TIP3    H216807   6.853   0.299   4.887 -1.6666 -0.6474 -1.0347
 5615TIP3   OH216808   3.991   3.357   4.436 -0.2637 -0.1061 -0.2472
 5615TIP3    H116809   4.086   3.344   4.436 -0.0091  1.1775  2.1080
 5615TIP3    H216810   3.966   3.351   4.343  2.2873  0.7305 -1.0895
 5616TIP3   OH216811   3.452   0.542   2.214 -0.6955 -0.2630  0.0285
 5616TIP3    H116812   3.492   0.512   2.296 -1.2686 -0.1236  0.3608
 5616TIP3    H216813   3.378   0.483   2.201 -0.6380 -0.2514 -0.3650
 5617TIP3   OH216814   2.598   0.339   1.762  0.0926  0.1962 -0.6895
 5617TIP3    H116815   2.670   0.323   1.702 -1.0604 -1.2666 -1.7757
 5617TIP3    H216816   2.549   0.412   1.723  1.0619  1.3243  0.1555
 5618TIP3   OH216817   2.696   5.349   0.178 -0.0997  0.2752  0.1983
 5618TIP3    H116818   2.719   5.327   0.088 -1.0265 -0.3799  0.1091
 5618TIP3    H216819   2.728   5.439   0.189  0.1539  0.3130 -0.7250
 5619TIP3   OH216820   3.201   3.370   0.193  0.5728  0.3433  0.3329
 5619TIP3    H116821   3.165   3.456   0.170  0.8252  0.6993  1.1912
 5619TIP3    H216822   3.266   3.390   0.261  0.4903 -0.5500  0.6800
 5620TIP3   OH216823   3.547   6.247   4.140  0.0353 -0.2440 -0.4360
 5620TIP3    H116824   3.466   6.260   4.091 -0.7986  1.3637  1.2096
 5620TIP3    H216825   3.530   6.170   4.195  0.3350 -1.0153 -1.4075
 5621TIP3   OH216826   1.450   4.736   3.951 -0.7467  0.2444 -0.0563
 5621TIP3    H116827   1.437   4.789   3.873 -0.9413 -0.9364 -0.8419
 5621TIP3    H216828   1.399   4.780   4.019  0.0172  1.6990 -0.3807
 5622TIP3   OH216829   6.569   6.563   4.549 -0.1571 -0.1894 -0.0909
 5622TIP3    H116830   6.617   6.502   4.493 -2.9499 -2.0346 -0.6839
 5622TIP3    H216831   6.514   6.612   4.488 -0.4396  0.5316  0.7298
 5623TIP3   OH216832   4.712   2.004   5.704 -0.2839 -0.3838  0.2479
 5623TIP3    H116833   4.676   1.917   5.688 -0.4381 -0.3480  0.3961
 5623TIP3    H216834   4.643   2.064   5.676 -0.7528 -0.3227  1.4776
 5624TIP3   OH216835   1.512   5.273   0.178  0.5175 -0.6800 -0.7662
 5624TIP3    H116836   1.558   5.347   0.217 -1.0894  0.0275 -0.1306
 5624TIP3    H216837   1.570   5.198   0.194  2.0257  0.3536 -1.1522
 5625TIP3   OH216838   1.454   4.881   2.172 -0.7394 -0.1057 -1.0782
 5625TIP3    H116839   1.454   4.973   2.145 -2.9794  0.3243  0.1767
 5625TIP3    H216840   1.381   4.874   2.233  0.6805 -2.2647  0.5075
 5626TIP3   OH216841   4.113   3.655   5.319  0.3977  0.3199  0.1786
 5626TIP3    H116842   4.065   3.612   5.390 -0.9355  0.7083 -0.4725
 5626TIP3    H216843   4.065   3.736   5.303  1.0110  0.4987 -0.8033
 5627TIP3   OH216844   4.819   5.465   0.602 -0.0213  0.4836 -1.4597
 5627TIP3    H116845   4.903   5.421   0.618 -0.0039  0.5119 -1.4735
 5627TIP3    H216846   4.768   5.449   0.682 -0.3225 -0.2583 -1.7994
 5628TIP3   OH216847   0.780   6.122   1.743 -0.1072  0.2268 -0.1199
 5628TIP3    H116848   0.693   6.090   1.767 -0.4109  0.9553 -0.2074
 5628TIP3    H216849   0.763   6.199   1.688  0.5808  0.8433  0.4963
 5629TIP3   OH216850   5.373   5.749   1.581  0.0682 -0.3318 -0.1939
 5629TIP3    H116851   5.411   5.828   1.541 -1.4753  0.6212  0.1488
 5629TIP3    H216852   5.356   5.774   1.671  2.4634 -2.1061  0.8655
 5630TIP3   OH216853   1.056   0.023   2.022 -0.1947 -0.1457 -0.2430
 5630TIP3    H116854   1.022   0.112   2.033  0.4838  0.0823  0.1081
 5630TIP3    H216855   1.009  -0.012   1.947  0.0415  0.7661 -0.8309
 5631TIP3   OH216856   0.431   2.380   4.758 -0.0720  0.0230 -0.2733
 5631TIP3    H116857   0.339   2.404   4.751 -0.2981 -0.8776 -0.4913
 5631TIP3    H216858   0.444   2.363   4.851 -0.4111 -0.9062 -0.3836
 5632TIP3   OH216859   1.522   3.198   1.563  0.3359 -0.7790 -0.0714
 5632TIP3    H116860   1.576   3.124   1.534  0.0810 -0.7585 -0.6142
 5632TIP3    H216861   1.436   3.160   1.578 -0.4373 -0.2413 -2.5752
 5633TIP3   OH216862   5.278   5.691   4.636  0.1336 -0.2811 -0.2121
 5633TIP3    H116863   5.251   5.690   4.544 -2.8952 -0.6067  0.5940
 5633TIP3    H216864   5.228   5.620   4.677 -1.3921  2.0804  2.3552
 5634TIP3   OH216865   6.557   5.708   5.607  0.8994 -0.2737 -0.2412
 5634TIP3    H116866   6.651   5.715   5.586  0.6364  1.1070 -1.1093
 5634TIP3    H216867   6.548   5.752   5.691  0.9076  0.3872 -0.5795
 5635TIP3   OH216868   5.643   6.761   0.526  0.5421 -0.1071  0.6225
 5635TIP3    H116869   5.626   6.740   0.435  0.0717  1.7515  0.2372
 5635TIP3    H216870   5.562   6.801   0.557  0.9450 -0.0464  1.6378
 5636TIP3   OH216871   3.340   6.764   0.795 -0.4219  0.0084 -0.1728
 5636TIP3    H116872   3.254   6.806   0.802  0.2327  1.2701  0.5035
 5636TIP3    H216873   3.325   6.690   0.737 -1.9009  0.4049 -0.3370
 5637TIP3   OH216874   0.708   5.112   3.156 -0.3604  0.2222  0.0770
 5637TIP3    H116875   0.739   5.044   3.096  0.3328  0.4696  0.1516
 5637TIP3    H216876   0.650   5.066   3.217 -0.2128 -0.2252 -0.1178
 5638TIP3   OH216877   5.034   6.314   1.731 -0.5363 -0.1979 -0.0501
 5638TIP3    H116878   4.987   6.354   1.804  0.0981 -0.8277  0.7354
 5638TIP3    H216879   5.054   6.225   1.762 -0.0323 -0.3917 -0.8981
 5639TIP3   OH216880   3.248   4.186   0.178  0.1476 -0.2991  0.3136
 5639TIP3    H116881   3.227   4.092   0.175 -0.1860 -0.2135 -0.3887
 5639TIP3    H216882   3.317   4.197   0.112  0.6443 -0.1547  0.8537
 5640TIP3   OH216883   4.867   1.436   1.454  0.2736 -0.7274 -0.3164
 5640TIP3    H116884   4.875   1.370   1.386  1.9283 -0.6283 -0.2503
 5640TIP3    H216885   4.867   1.386   1.536  0.7012 -0.7099 -0.3020
 5641TIP3   OH216886   4.156   6.514   0.356  0.2173 -0.5185 -0.3204
 5641TIP3    H116887   4.174   6.605   0.334  2.6139 -0.7529  0.3352
 5641TIP3    H216888   4.094   6.517   0.428  0.1136  0.5698 -0.4474
 5642TIP3   OH216889   5.039   1.640   2.257  0.0099 -0.2834  0.0694
 5642TIP3    H116890   5.001   1.619   2.171  2.1106 -1.5947 -0.6217
 5642TIP3    H216891   4.981   1.706   2.294 -1.1624  0.0564 -2.2214
 5643TIP3   OH216892   2.221   3.889   2.883 -0.2623  0.4869  0.5458
 5643TIP3    H116893   2.277   3.815   2.907 -0.1221 -0.3187 -1.9523
 5643TIP3    H216894   2.187   3.921   2.966  1.0048 -1.3175  1.8512
 5644TIP3   OH216895   5.904   5.107   5.157  0.2311 -0.3312 -0.1979
 5644TIP3    H116896   5.837   5.052   5.199 -2.5180  1.3989 -2.0107
 5644TIP3    H216897   5.953   5.145   5.231 -0.6078 -1.8499  1.2091
 5645TIP3   OH216898   4.999   5.495   5.805 -0.0685 -0.5996  0.5434
 5645TIP3    H116899   4.983   5.526   5.894  2.1280 -0.7613  1.0506
 5645TIP3    H216900   4.912   5.475   5.770 -1.0894  0.7780  2.1509
 5646TIP3   OH216901   5.265   5.249   3.627  0.1354  0.0868 -0.1397
 5646TIP3    H116902   5.192   5.208   3.673 -0.3929  0.9574 -0.1664
 5646TIP3    H216903   5.308   5.303   3.693  0.6119 -0.2425 -0.1816
 5647TIP3   OH216904   3.418   5.047   3.758  0.2519  0.0688 -0.0793
 5647TIP3    H116905   3.429   5.130   3.711  0.0474  0.0223 -0.2113
 5647TIP3    H216906   3.443   5.067   3.848  3.1820 -0.4670 -0.6885
 5648TIP3   OH216907   1.623   2.692   3.516 -0.2982  0.1944 -0.2630
 5648TIP3    H116908   1.657   2.615   3.469 -0.0239 -0.1563  0.4917
 5648TIP3    H216909   1.611   2.758   3.448  0.4610 -0.1739 -0.7747
 5649TIP3   OH216910   5.574   5.457   2.331  0.8856  0.2163 -0.2512
 5649TIP3    H116911   5.561   5.550   2.312 -0.1194 -0.0495 -0.9337
 5649TIP3    H216912   5.653   5.434   2.284  0.0983  0.2976 -1.6709
 5650TIP3   OH216913   4.926   4.594   4.322  0.8271  0.1516 -0.1215
 5650TIP3    H116914   5.018   4.606   4.301  0.6093 -0.3100 -1.4512
 5650TIP3    H216915   4.917   4.628   4.411  2.8223 -2.2161  1.1266
 5651TIP3   OH216916   2.185   4.547   5.452  0.5846  0.7212 -0.2316
 5651TIP3    H116917   2.206   4.617   5.391 -1.2832  0.8545 -0.7704
 5651TIP3    H216918   2.238   4.566   5.529  1.4979  1.6570 -1.0568
 5652TIP3   OH216919   5.822   3.152   5.009 -0.3090  0.0783  0.4405
 5652TIP3    H116920   5.888   3.215   4.978 -1.8305  1.6978  0.3343
 5652TIP3    H216921   5.834   3.076   4.953 -0.3438  1.4168 -1.4780
 5653TIP3   OH216922   3.664   5.715   3.376  0.1160 -0.0626 -0.3151
 5653TIP3    H116923   3.620   5.657   3.437 -3.0715  0.2538 -2.0638
 5653TIP3    H216924   3.627   5.801   3.394  2.1168  0.8298 -0.1335
 5654TIP3   OH216925   4.155   5.269   4.633 -0.3702  0.4758  0.7065
 5654TIP3    H116926   4.166   5.343   4.573 -1.8071  0.2478  0.1172
 5654TIP3    H216927   4.140   5.194   4.575 -1.4582  0.1916  1.3425
 5655TIP3   OH216928   5.267   2.238   4.743 -0.0121  0.3661 -0.1189
 5655TIP3    H116929   5.282   2.173   4.674 -1.1894  0.3588 -0.3964
 5655TIP3    H216930   5.225   2.311   4.699 -1.9460 -0.1388  0.7450
 5656TIP3   OH216931   1.770   3.219   4.929 -0.7973 -0.1318  0.1593
 5656TIP3    H116932   1.811   3.247   4.848 -0.3634  0.3251  0.5276
 5656TIP3    H216933   1.833   3.244   4.997 -1.6302  0.4752  0.7299
 5657TIP3   OH216934   6.301   3.194   4.648  0.0884  0.2219  0.0017
 5657TIP3    H116935   6.254   3.129   4.595  0.4748 -0.0064 -0.0663
 5657TIP3    H216936   6.341   3.143   4.718  0.4750  0.3759 -0.1084
 5658TIP3   OH216937   0.024   6.078   4.447  0.1323  0.2713  0.4144
 5658TIP3    H116938  -0.002   6.071   4.538 -1.4399 -1.2450 -0.1053
 5658TIP3    H216939   0.078   6.157   4.443  1.3897 -0.3727  2.8976
 5659TIP3   OH216940   4.158   4.691   1.300  0.2395 -0.0315 -0.7721
 5659TIP3    H116941   4.199   4.656   1.380  0.4780  1.5207 -0.1804
 5659TIP3    H216942   4.232   4.727   1.250  0.2565 -2.0117 -2.2926
 5660TIP3   OH216943   0.465   3.761   1.983 -0.0966 -0.3788  0.1603
 5660TIP3    H116944   0.416   3.802   2.055 -0.4368 -1.5305  0.5991
 5660TIP3    H216945   0.522   3.698   2.026  0.8195 -0.0011 -0.4655
 5661TIP3   OH216946   4.601   1.273   0.487 -0.4408  0.3450 -0.2657
 5661TIP3    H116947   4.572   1.201   0.431 -0.9198 -0.4646  0.9771
 5661TIP3    H216948   4.520   1.318   0.512 -0.1932  0.9707 -0.5689
 5662TIP3   OH216949   4.479   3.362   4.481  0.3571  0.1118  0.9878
 5662TIP3    H116950   4.557   3.408   4.511  2.5907 -2.2184 -0.8621
 5662TIP3    H216951   4.486   3.274   4.518 -0.1903 -0.8141 -0.9726
 5663TIP3   OH216952   6.879   6.381   5.808  0.3191  0.5332  0.3893
 5663TIP3    H116953   6.952   6.336   5.850 -0.3475 -0.3903  0.6028
 5663TIP3    H216954   6.839   6.434   5.877  0.5221  0.6991  0.3794
 5664TIP3   OH216955   6.871   6.373   3.131 -0.5876  0.3571 -0.4053
 5664TIP3    H116956   6.912   6.289   3.153 -0.9971  0.0698 -0.7141
 5664TIP3    H216957   6.811   6.352   3.059 -1.7255  0.6491  0.4390
 5665TIP3   OH216958   1.040   4.170   0.421 -0.1260 -0.6188 -0.1317
 5665TIP3    H116959   1.092   4.230   0.475  1.7373 -0.6014 -1.8428
 5665TIP3    H216960   1.039   4.088   0.470  2.9838 -1.1247 -0.7678
 5666TIP3   OH216961   5.361   3.234   4.152  0.3269 -0.2826 -0.9633
 5666TIP3    H116962   5.325   3.148   4.131 -1.0516  0.3034 -1.1415
 5666TIP3    H216963   5.447   3.216   4.189 -0.7570 -1.8950  0.9844
 5667TIP3   OH216964   0.740   2.715   5.277 -0.3466  0.5347 -0.1981
 5667TIP3    H116965   0.654   2.733   5.314 -1.0511 -0.8465 -1.0752
 5667TIP3    H216966   0.731   2.735   5.184  0.3742  0.6633 -0.2460
 5668TIP3   OH216967   1.072   4.918   2.093 -0.1574 -0.4213 -0.3094
 5668TIP3    H116968   1.075   5.014   2.087 -0.1672 -0.2776  1.4353
 5668TIP3    H216969   1.050   4.890   2.004  0.0859  1.1758 -0.9224
 5669TIP3   OH216970   6.597   1.138   2.800  0.3942 -0.3138  0.4114
 5669TIP3    H116971   6.585   1.043   2.801 -1.0089 -0.1641  0.8642
 5669TIP3    H216972   6.578   1.165   2.890 -0.4506  0.5075  0.0070
 5670TIP3   OH216973   3.025   5.156   2.015 -0.2168  0.1339  0.1080
 5670TIP3    H116974   3.062   5.194   2.094 -0.8843  0.2620  0.3695
 5670TIP3    H216975   2.959   5.094   2.046  0.3337 -0.7005 -0.3306
 5671TIP3   OH216976   4.902   4.989   3.407  0.0694  0.5197 -0.0994
 5671TIP3    H116977   4.965   4.917   3.414  1.2521  1.4124 -1.2653
 5671TIP3    H216978   4.821   4.953   3.445  1.0155 -0.9388  0.6266
 5672TIP3   OH216979   6.200   3.833   3.335  0.4414 -0.3259 -0.0555
 5672TIP3    H116980   6.189   3.926   3.353  0.6796  0.1011 -1.9130
 5672TIP3    H216981   6.131   3.813   3.272  0.1182 -1.5354  0.6469
 5673TIP3   OH216982   5.851   3.882   0.190  0.4627 -0.0814  0.0998
 5673TIP3    H116983   5.758   3.858   0.191  0.1489  1.0470  0.0182
 5673TIP3    H216984   5.857   3.957   0.250  0.8870  1.2268 -1.4770
 5674TIP3   OH216985   0.047   2.663   0.692  0.4578 -0.0914  0.1877
 5674TIP3    H116986  -0.032   2.662   0.638 -0.3444 -1.4605  1.3093
 5674TIP3    H216987   0.058   2.756   0.715 -1.4177  0.0363  0.8011
 5675TIP3   OH216988   0.186   5.872   5.064 -0.1018  0.0595 -0.3059
 5675TIP3    H116989   0.171   5.960   5.099  0.0375  0.0098 -0.1198
 5675TIP3    H216990   0.249   5.886   4.993 -0.4029  0.1628 -0.5524
 5676TIP3   OH216991   7.166   2.283   2.837 -0.3213 -0.0166  0.5549
 5676TIP3    H116992   7.155   2.189   2.820 -0.5817 -0.0522  0.8986
 5676TIP3    H216993   7.076   2.315   2.847 -0.1908 -0.2798  3.2982
 5677TIP3   OH216994   4.159   3.522   3.710  0.2259 -0.1455 -0.4092
 5677TIP3    H116995   4.146   3.428   3.704  0.9719 -0.4467  1.9469
 5677TIP3    H216996   4.201   3.545   3.627  1.0032 -2.0560 -0.5953
 5678TIP3   OH216997   0.359   2.808   3.375 -0.2838 -0.0346 -0.1430
 5678TIP3    H116998   0.439   2.845   3.412  0.0593 -1.3193  0.4630
 5678TIP3    H216999   0.298   2.882   3.370  0.9528  0.9854 -0.6980
 5679TIP3   OH217000   4.797   5.651   3.196 -0.2633 -0.1275  0.2080
 5679TIP3    H117001   4.854   5.587   3.154  0.1861 -1.1656  2.2613
 5679TIP3    H217002   4.708   5.620   3.177 -0.0927 -0.2938 -0.3448
 5680TIP3   OH217003   6.970   5.802   4.412 -0.0581  0.5430  0.4055
 5680TIP3    H117004   6.884   5.817   4.451 -1.2955 -0.2024 -1.8675
 5680TIP3    H217005   6.981   5.874   4.350  0.0517 -0.4342 -0.7359
 5681TIP3   OH217006   5.843   2.014   3.702 -0.3370 -0.1738 -0.4688
 5681TIP3    H117007   5.827   2.092   3.754  0.2684  1.5054 -2.6365
 5681TIP3    H217008   5.805   1.942   3.753 -0.9716  1.5224  1.5679
 5682TIP3   OH217009   0.266   1.714   5.256 -0.0691 -0.4590 -0.1800
 5682TIP3    H117010   0.291   1.798   5.295  0.7297 -0.1942 -1.2106
 5682TIP3    H217011   0.294   1.649   5.320 -0.1769  0.0268  0.3726
 5683TIP3   OH217012   1.562   0.500   4.061 -0.1101  0.6488  0.2216
 5683TIP3    H117013   1.531   0.552   4.135 -2.5236 -0.3291 -0.0291
 5683TIP3    H217014   1.517   0.417   4.069  1.5282 -0.4155 -0.9703
 5684TIP3   OH217015   3.535   0.152   4.770 -0.3982  0.0096  0.1228
 5684TIP3    H117016   3.502   0.148   4.860 -0.2257 -0.7487  0.1618
 5684TIP3    H217017   3.608   0.213   4.773 -1.0766  0.8406  0.2656
 5685TIP3   OH217018   1.272   3.639   5.589  0.1379  0.2459  0.1685
 5685TIP3    H117019   1.299   3.705   5.525  1.9228 -1.2700 -0.7168
 5685TIP3    H217020   1.315   3.665   5.670  0.2020  0.6032  0.0203
 5686TIP3   OH217021   5.428   0.032   2.444  0.5411  0.0760 -0.1402
 5686TIP3    H117022   5.409  -0.010   2.360 -0.0162  0.0211  0.0113
 5686TIP3    H217023   5.439   0.125   2.422  2.1066 -0.1707 -0.5263
 5687TIP3   OH217024   3.236   0.363   2.153  0.0651 -0.3000 -0.6052
 5687TIP3    H117025   3.154   0.369   2.102  0.0070 -1.0307 -0.6175
 5687TIP3    H217026   3.218   0.295   2.218  1.0183 -1.2712 -1.3165
 5688TIP3   OH217027   6.889   3.359   2.518  0.1893 -0.5046 -0.3460
 5688TIP3    H117028   6.798   3.331   2.508  0.2530 -0.2332 -2.0726
 5688TIP3    H217029   6.940   3.281   2.496  0.3734 -0.3298 -0.5370
 5689TIP3   OH217030   3.378   1.164   1.408 -0.3600  0.3030  0.0048
 5689TIP3    H117031   3.452   1.165   1.347 -0.2121  0.9808  0.1860
 5689TIP3    H217032   3.413   1.124   1.487 -0.4141 -0.1234 -0.1864
 5690TIP3   OH217033   3.996   6.139   5.854  0.6100  0.8037 -0.2463
 5690TIP3    H117034   4.081   6.135   5.809  0.2101  0.0265 -0.9453
 5690TIP3    H217035   4.008   6.085   5.933  1.1503  1.7479  0.3422
 5691TIP3   OH217036   4.958   5.043   1.321  0.7890 -0.1967 -0.2028
 5691TIP3    H117037   5.041   5.022   1.280  1.3683 -0.2510  0.9455
 5691TIP3    H217038   4.982   5.083   1.405 -0.3387 -1.3732  0.7299
 5692TIP3   OH217039   3.106   3.375   5.684  0.0214  0.2018 -0.3528
 5692TIP3    H117040   3.075   3.358   5.595 -2.0085  0.4522  0.2530
 5692TIP3    H217041   3.046   3.325   5.740  1.8118 -0.6915  0.8706
 5693TIP3   OH217042   0.863   2.562   0.208 -0.0594  0.6286 -0.1473
 5693TIP3    H117043   0.797   2.624   0.241  0.3701  1.3416 -0.6005
 5693TIP3    H217044   0.945   2.591   0.249 -0.0600 -0.4262  0.6346
 5694TIP3   OH217045   3.405   1.842   0.120 -0.6494  0.9338 -0.0949
 5694TIP3    H117046   3.444   1.883   0.197 -1.3387  0.0173  0.7800
 5694TIP3    H217047   3.315   1.876   0.119 -0.6612  0.8896 -0.4605
 5695TIP3   OH217048   5.965   0.054   0.280 -0.1034 -0.2323  0.4891
 5695TIP3    H117049   6.017   0.128   0.314 -1.1508  0.3003  1.0021
 5695TIP3    H217050   5.962  -0.008   0.353 -1.2173  0.3073  0.9342
 5696TIP3   OH217051   4.130   5.744   3.972 -0.3378  0.4717  0.4626
 5696TIP3    H117052   4.045   5.700   3.965  0.4372 -1.1097  0.5810
 5696TIP3    H217053   4.168   5.737   3.884 -0.2387  0.9714  0.4656
 5697TIP3   OH217054   6.190   1.022   2.234 -0.2503 -0.3997 -0.0995
 5697TIP3    H117055   6.252   1.008   2.162 -1.5054  1.4666 -1.6479
 5697TIP3    H217056   6.241   1.007   2.313  1.0084 -3.3796 -1.2955
 5698TIP3   OH217057   2.671   5.808   3.952  0.0114  0.1862 -0.2128
 5698TIP3    H117058   2.668   5.798   3.857  1.0069 -1.0445 -0.1401
 5698TIP3    H217059   2.613   5.739   3.985  1.5520 -1.0024  0.1151
 5699TIP3   OH217060   0.860   0.794   3.720  0.0580  0.6621  0.2269
 5699TIP3    H117061   0.937   0.848   3.702  1.5711 -1.3152  0.4465
 5699TIP3    H217062   0.860   0.729   3.651 -0.5336 -0.2785  1.0857
 5700TIP3   OH217063   2.978   1.017   0.668 -0.0277 -0.0456  0.4570
 5700TIP3    H117064   2.947   1.012   0.758  0.2520 -0.1645  0.5470
 5700TIP3    H217065   2.965   0.930   0.632  0.6894 -0.2387  0.6570
 5701TIP3   OH217066   5.171   0.085   1.192 -0.0104  0.9346 -0.3055
 5701TIP3    H117067   5.266   0.071   1.203  0.1070  2.0455  0.2449
 5701TIP3    H217068   5.164   0.175   1.160 -0.9328  1.3274  0.9115
 5702TIP3   OH217069   1.573   1.333   1.708  0.5501 -0.7378 -0.2479
 5702TIP3    H117070   1.543   1.423   1.723 -0.1105 -1.1079  0.8200
 5702TIP3    H217071   1.668   1.337   1.717  0.5051 -0.1758 -0.0026
 5703TIP3   OH217072   2.078   6.125   1.666  0.1854 -0.0073 -0.1244
 5703TIP3    H117073   2.067   6.039   1.705 -0.7609 -0.8910 -2.2235
 5703TIP3    H217074   2.102   6.182   1.740  0.2301 -1.9141  1.3962
 5704TIP3   OH217075   6.494   0.039   2.383 -0.7254 -0.0156 -0.3342
 5704TIP3    H117076   6.464  -0.033   2.328  0.6729  0.0662 -1.2475
 5704TIP3    H217077   6.478   0.118   2.331  0.1264  0.1067 -0.4223
 5705TIP3   OH217078   5.784   6.249   0.385  0.4046 -0.9641  0.3321
 5705TIP3    H117079   5.777   6.211   0.473  0.5614  0.3253  0.9326
 5705TIP3    H217080   5.774   6.343   0.400 -1.1377 -0.8423 -1.2275
 5706TIP3   OH217081   3.179   2.328   5.206  0.3292 -0.6039  0.1125
 5706TIP3    H117082   3.104   2.281   5.243 -0.1167 -1.8799 -2.1774
 5706TIP3    H217083   3.229   2.260   5.161 -0.5279  1.0451 -3.6787
 5707TIP3   OH217084   2.946   5.340   0.770  0.3892 -0.2944  0.1994
 5707TIP3    H117085   3.040   5.341   0.752  0.1981 -0.4006 -0.8621
 5707TIP3    H217086   2.916   5.427   0.746 -0.0044 -0.6826 -0.7664
 5708TIP3   OH217087   3.637   5.267   4.288 -0.0076  0.1344  0.0345
 5708TIP3    H117088   3.606   5.176   4.279 -0.9079  0.2497  1.7202
 5708TIP3    H217089   3.679   5.269   4.374 -2.0550  1.8573  1.0780
 5709TIP3   OH217090   5.045   3.950   0.669 -0.3659  0.3829 -0.1503
 5709TIP3    H117091   4.979   3.960   0.737  1.2331  1.8858  1.2857
 5709TIP3    H217092   5.022   4.014   0.602 -0.4843  0.7653  0.2540
 5710TIP3   OH217093   4.127   6.756   5.851 -0.1035 -0.3522 -0.4502
 5710TIP3    H117094   4.059   6.731   5.914  0.4021 -3.0523 -0.8609
 5710TIP3    H217095   4.169   6.673   5.827  1.7834  0.9704 -1.9898
 5711TIP3   OH217096   0.228   4.867   5.890 -0.2442  0.1318  0.6101
 5711TIP3    H117097   0.235   4.816   5.809  2.0030 -0.4343  1.0816
 5711TIP3    H217098   0.135   4.886   5.899 -0.6420 -0.4518 -1.6951
 5712TIP3   OH217099   3.671   2.912   3.574 -0.2834 -0.0182  0.3118
 5712TIP3    H117100   3.693   2.832   3.622  0.4338 -1.1100 -1.7201
 5712TIP3    H217101   3.686   2.890   3.483 -0.7950  2.2387 -0.3783
 5713TIP3   OH217102   2.857   2.169   1.177 -0.1406  0.2955 -0.5831
 5713TIP3    H117103   2.848   2.074   1.168 -0.5717  0.3885 -1.1995
 5713TIP3    H217104   2.837   2.204   1.091 -3.4542  1.1825  0.4011
 5714TIP3   OH217105   4.437   0.224   2.998 -0.0844  0.3868  0.0769
 5714TIP3    H117106   4.389   0.197   3.076  0.0897 -0.2354 -0.0304
 5714TIP3    H217107   4.401   0.310   2.977 -1.4966 -0.2579 -0.2650
 5715TIP3   OH217108   5.432   3.795   0.627  0.4926 -0.4868  0.1087
 5715TIP3    H117109   5.364   3.731   0.648  1.0033 -0.7708  0.9746
 5715TIP3    H217110   5.418   3.866   0.691  0.2891 -0.0018 -0.4680
 5716TIP3   OH217111   4.166   6.503   2.380  0.3645  0.2632 -0.2744
 5716TIP3    H117112   4.114   6.562   2.435  0.1342 -0.8390  0.7319
 5716TIP3    H217113   4.112   6.424   2.373  1.4793 -0.5460  0.0123
 5717TIP3   OH217114   6.694   0.163   0.384 -0.5668  0.2726 -0.2583
 5717TIP3    H117115   6.743   0.245   0.371  2.2095 -1.4298 -1.4133
 5717TIP3    H217116   6.651   0.175   0.469  0.9089  2.4045  0.2848
 5718TIP3   OH217117   7.172   0.603   4.812 -0.1071 -0.3810  0.0470
 5718TIP3    H117118   7.211   0.524   4.775 -0.8598 -0.7377 -0.0038
 5718TIP3    H217119   7.122   0.571   4.888  1.4063  0.3275  1.4030
 5719TIP3   OH217120   3.536   1.944   2.331  0.5001 -0.0371 -0.2972
 5719TIP3    H117121   3.525   1.858   2.369  1.8983  0.5444  1.5625
 5719TIP3    H217122   3.455   1.991   2.352  0.9027 -0.0031  1.2574
 5720TIP3   OH217123   0.713   3.317   2.597 -0.2025  0.4068  0.2244
 5720TIP3    H117124   0.622   3.347   2.597 -0.2047  0.4026  0.0643
 5720TIP3    H217125   0.756   3.371   2.531  0.1619  1.1460  1.0418
 5721TIP3   OH217126   6.818   0.397   2.331 -0.2925  0.1308 -0.7855
 5721TIP3    H117127   6.761   0.466   2.297 -1.6426 -0.4421  0.2289
 5721TIP3    H217128   6.873   0.441   2.395 -1.0594  0.3013 -0.2337
 5722TIP3   OH217129   6.963   5.175   0.199 -0.4503 -0.0998  0.7809
 5722TIP3    H117130   7.047   5.194   0.242 -1.1458 -0.4596  2.3666
 5722TIP3    H217131   6.954   5.080   0.205 -1.4983  0.0358  1.7038
 5723TIP3   OH217132   7.162   1.718   2.140 -0.0700  0.8258  0.6290
 5723TIP3    H117133   7.229   1.674   2.193 -1.0365  0.8703  1.9301
 5723TIP3    H217134   7.147   1.659   2.066  0.7740  0.4094  0.7796
 5724TIP3   OH217135   3.354   4.511   5.023 -0.3297 -0.1267  0.3733
 5724TIP3    H117136   3.432   4.532   5.074  0.0727 -0.6570 -0.0104
 5724TIP3    H217137   3.364   4.418   5.002  0.3393  0.4521 -2.0855
 5725TIP3   OH217138   0.962   0.394   2.947  0.4023  0.0807 -0.1951
 5725TIP3    H117139   0.972   0.299   2.941  2.4021  0.3401 -1.5138
 5725TIP3    H217140   0.949   0.423   2.857 -1.5378  0.9840  0.3164
 5726TIP3   OH217141   5.719   3.480   2.479  0.1381 -0.2760  0.2547
 5726TIP3    H117142   5.647   3.467   2.541 -0.8482 -2.2230 -1.1860
 5726TIP3    H217143   5.702   3.566   2.440 -2.2730 -1.2458 -1.0267
 5727TIP3   OH217144   2.353   6.677   0.477  0.2751 -0.2472  0.0525
 5727TIP3    H117145   2.392   6.621   0.544  0.2566 -1.1467 -0.6640
 5727TIP3    H217146   2.259   6.659   0.482  0.1386  0.5510  0.5478
 5728TIP3   OH217147   6.561   0.141   2.846 -0.1165  0.0279 -0.4837
 5728TIP3    H117148   6.577   0.051   2.819  0.5817  0.2123 -0.7022
 5728TIP3    H217149   6.508   0.134   2.925  0.6736 -0.5976 -0.0001
 5729TIP3   OH217150   3.374   6.470   3.842  0.2979  0.1672  0.3220
 5729TIP3    H117151   3.374   6.558   3.804 -0.4309 -0.2499 -0.6949
 5729TIP3    H217152   3.457   6.432   3.814  0.6931  0.5871  0.9106
 5730TIP3   OH217153   0.027   6.103   0.107 -0.2692  0.6082 -0.2751
 5730TIP3    H117154   0.089   6.058   0.049  0.7919  1.3184  0.2985
 5730TIP3    H217155   0.050   6.195   0.100 -1.6064  0.9565 -0.4413
 5731TIP3   OH217156   6.974   1.335   3.279 -0.1212 -0.2712  0.1231
 5731TIP3    H117157   6.884   1.366   3.290  0.4519  0.5568  3.4788
 5731TIP3    H217158   6.993   1.286   3.359  2.0492 -1.4615 -1.0346
 5732TIP3   OH217159   5.358   1.344   1.614  0.0627 -0.7355 -0.3981
 5732TIP3    H117160   5.445   1.371   1.585  0.8941 -1.7080  1.0873
 5732TIP3    H217161   5.360   1.248   1.611 -1.2045 -0.7670 -0.9735
 5733TIP3   OH217162   1.136   3.464   0.384  0.0969 -0.2599  0.0921
 5733TIP3    H117163   1.214   3.421   0.420 -0.4205 -1.1546  0.1924
 5733TIP3    H217164   1.163   3.553   0.366  1.0953 -0.5136  0.2960
 5734TIP3   OH217165   4.304   1.197   2.781 -0.0678  0.4668  0.5909
 5734TIP3    H117166   4.294   1.291   2.771 -0.3733  0.5213  1.3415
 5734TIP3    H217167   4.393   1.179   2.751 -0.1131  0.9499  0.1591
 5735TIP3   OH217168   1.768   3.752   5.262  0.1720  0.8314 -0.0257
 5735TIP3    H117169   1.806   3.840   5.269  0.5951  0.7376 -0.9900
 5735TIP3    H217170   1.835   3.702   5.216 -0.5085  0.2651 -0.4001
 5736TIP3   OH217171   0.261   1.385   4.152  0.1152  0.6836  0.6921
 5736TIP3    H117172   0.288   1.476   4.139  2.8479 -0.0849  0.5166
 5736TIP3    H217173   0.294   1.338   4.076 -1.2841 -0.5052  0.7617
 5737TIP3   OH217174   6.984   2.809   1.468  0.4093  0.0166  0.7890
 5737TIP3    H117175   7.033   2.728   1.485 -0.0810 -0.3936  0.2786
 5737TIP3    H217176   7.033   2.853   1.398  1.0298  0.4846  1.4962
 5738TIP3   OH217177   0.916   6.261   4.716  0.1094  0.1844 -0.3971
 5738TIP3    H117178   0.836   6.233   4.673 -0.5878 -1.4481  1.7776
 5738TIP3    H217179   0.904   6.237   4.808  1.7077  2.9898  0.6778
 5739TIP3   OH217180   2.701   4.318   1.110  0.0814 -0.8571  0.5127
 5739TIP3    H117181   2.744   4.383   1.054  0.4092 -0.8465  0.7764
 5739TIP3    H217182   2.655   4.369   1.176 -0.3319 -0.8691  0.2420
 5740TIP3   OH217183   1.812   0.709   0.506  0.3914  0.0309  0.2132
 5740TIP3    H117184   1.791   0.711   0.600  0.5073 -0.4737  0.2560
 5740TIP3    H217185   1.727   0.716   0.462  0.1328 -1.5436  0.3821
 5741TIP3   OH217186   0.220   1.834   0.102 -0.0802 -0.0681  0.2164
 5741TIP3    H117187   0.177   1.920   0.098  1.3443  0.6467 -0.9111
 5741TIP3    H217188   0.292   1.846   0.165  0.8071 -0.0700 -0.7642
 5742TIP3   OH217189   1.554   1.022   0.264 -0.2593  0.1689 -0.4508
 5742TIP3    H117190   1.464   1.018   0.296  0.9824  1.1249  3.7014
 5742TIP3    H217191   1.574   1.116   0.262  0.9264 -0.0695 -0.4304
 5743TIP3   OH217192   1.893   3.252   4.650  0.0679  0.0697 -0.2436
 5743TIP3    H117193   1.932   3.237   4.564  1.6620  0.9746  0.2804
 5743TIP3    H217194   1.953   3.209   4.711 -0.5553  0.2213  0.4840
 5744TIP3   OH217195   3.214   3.097   5.588  0.3333 -0.6564  0.1675
 5744TIP3    H117196   3.163   3.177   5.601  2.2316  0.6935 -0.3031
 5744TIP3    H217197   3.224   3.090   5.493  0.9419 -0.9469  0.2501
 5745TIP3   OH217198   6.798   2.310   2.055  0.6019  0.0900  0.2915
 5745TIP3    H117199   6.711   2.270   2.056  0.5241  0.2736  0.9756
 5745TIP3    H217200   6.840   2.279   2.135  1.0526  0.2487  0.1189
 5746TIP3   OH217201   1.376   2.082   3.764  0.0681 -0.2488 -0.3062
 5746TIP3    H117202   1.419   2.135   3.830  2.7132 -0.9455 -1.3242
 5746TIP3    H217203   1.327   2.017   3.814 -0.6030  1.1343  0.9243
 5747TIP3   OH217204   6.714   3.796   3.408  0.5901  0.1896  0.2109
 5747TIP3    H117205   6.755   3.837   3.331 -0.3361  1.3886  0.3398
 5747TIP3    H217206   6.620   3.812   3.397  0.6036  2.8809  2.9629
 5748TIP3   OH217207   1.944   2.920   3.690 -0.0563 -0.3879 -0.2697
 5748TIP3    H117208   2.005   2.931   3.618  0.7872 -1.0157  0.3325
 5748TIP3    H217209   1.912   3.008   3.708  2.0197  0.2410  0.5617
 5749TIP3   OH217210   0.265   0.886   0.801 -0.0699  0.5247 -0.0968
 5749TIP3    H117211   0.346   0.937   0.799 -0.2535  0.8142 -0.3444
 5749TIP3    H217212   0.220   0.915   0.881 -0.2970  0.9562 -0.3717
 5750TIP3   OH217213   0.766   0.706   4.334 -0.2831  0.4350  0.6945
 5750TIP3    H117214   0.821   0.651   4.390  0.8236  0.3449 -0.4413
 5750TIP3    H217215   0.691   0.651   4.313  0.8183 -0.7095 -0.4520
 5751TIP3   OH217216   1.150   4.671   2.941  0.0737 -0.4642 -0.1669
 5751TIP3    H117217   1.066   4.711   2.917 -0.3780 -1.3679 -0.1441
 5751TIP3    H217218   1.195   4.656   2.858  1.0303  1.6816 -0.0950
 5752TIP3   OH217219   6.999   4.475   3.424 -0.8694 -0.4113 -0.5147
 5752TIP3    H117220   7.029   4.396   3.470  0.3031  0.3759  0.1267
 5752TIP3    H217221   6.908   4.486   3.452 -0.6165 -0.7685  0.4855
 5753TIP3   OH217222   3.719   2.443   3.269 -0.0993  0.3302  0.0780
 5753TIP3    H117223   3.661   2.374   3.299  1.3985 -2.5298 -2.9990
 5753TIP3    H217224   3.661   2.513   3.239 -1.7495 -0.6669  0.8377
 5754TIP3   OH217225   3.888   1.954   2.379 -0.9197 -0.6664  0.4344
 5754TIP3    H117226   3.831   1.880   2.359 -0.4561 -1.0250  0.3950
 5754TIP3    H217227   3.937   1.969   2.297 -1.3467 -0.0079  0.2944
 5755TIP3   OH217228   5.629   1.501   3.310  0.1572  0.5628 -0.1805
 5755TIP3    H117229   5.647   1.579   3.362  1.7378 -0.0983  0.3294
 5755TIP3    H217230   5.674   1.517   3.227  1.4476 -0.2540  0.3420
 5756TIP3   OH217231   6.661   4.291   4.501 -0.6680  0.4930  0.5520
 5756TIP3    H117232   6.620   4.317   4.418  1.3359 -1.3725 -1.1712
 5756TIP3    H217233   6.624   4.205   4.521  1.9406 -1.1467 -0.9445
 5757TIP3   OH217234   2.089   3.770   4.534  0.1219  0.2769 -0.8517
 5757TIP3    H117235   2.071   3.686   4.577  2.2886  0.5259  0.6997
 5757TIP3    H217236   2.040   3.834   4.586  0.4904  0.2520 -0.4700
 5758TIP3   OH217237   1.826   2.550   3.353  0.0360 -0.5962  0.3355
 5758TIP3    H117238   1.890   2.592   3.295  0.6951 -0.9788  0.7577
 5758TIP3    H217239   1.878   2.485   3.400  0.2432  1.5493  3.4181
 5759TIP3   OH217240   0.018   2.955   0.211 -0.4526  0.7954  0.3700
 5759TIP3    H117241  -0.075   2.975   0.226 -0.7366  1.2195 -1.5920
 5759TIP3    H217242   0.063   3.037   0.230 -0.4939  0.6302  1.1898
 5760TIP3   OH217243   3.726   4.710   0.919 -0.0858 -0.2235 -0.7203
 5760TIP3    H117244   3.811   4.687   0.883 -0.4124  0.1569 -1.7809
 5760TIP3    H217245   3.678   4.627   0.921 -0.0692 -0.2461 -1.1900
 5761TIP3   OH217246   1.459   2.802   2.348  0.3003 -1.1621 -0.1437
 5761TIP3    H117247   1.373   2.775   2.317  0.4599 -1.5324 -0.2777
 5761TIP3    H217248   1.445   2.833   2.438 -0.2075  0.1399 -0.6506
 5762TIP3   OH217249   0.359   4.284   1.852 -0.6296 -0.5330  0.2512
 5762TIP3    H117250   0.266   4.303   1.838 -0.9259 -2.1237 -0.2105
 5762TIP3    H217251   0.362   4.189   1.862  0.7322 -0.3348  2.1894
 5763TIP3   OH217252   4.094   3.511   2.120  0.3478 -0.2612  0.1649
 5763TIP3    H117253   4.032   3.456   2.168 -0.7165 -0.9034 -1.8775
 5763TIP3    H217254   4.163   3.529   2.184  0.4739 -3.4777  1.1145
 5764TIP3   OH217255   6.556   5.975   1.990 -0.1972  0.3913  0.3798
 5764TIP3    H117256   6.642   5.959   1.951 -0.8035 -1.4290 -0.2713
 5764TIP3    H217257   6.522   6.051   1.943  0.1166 -0.2637 -0.9463
 5765TIP3   OH217258   6.350   0.875   0.896 -0.2683  0.5410 -0.1452
 5765TIP3    H117259   6.292   0.853   0.822  0.1723  2.0576 -0.9825
 5765TIP3    H217260   6.422   0.812   0.888 -1.2370 -0.6698  0.2718
 5766TIP3   OH217261   5.816   3.352   4.052 -0.2111 -0.2866 -0.0163
 5766TIP3    H117262   5.835   3.315   4.138 -1.5678  0.3085  0.5782
 5766TIP3    H217263   5.790   3.442   4.070 -1.4777 -0.4443 -0.9334
 5767TIP3   OH217264   6.209   5.791   2.845  0.0583 -0.5392 -0.3129
 5767TIP3    H117265   6.191   5.845   2.768 -2.9482 -2.3121 -0.9906
 5767TIP3    H217266   6.183   5.846   2.919  3.9711  1.5989 -0.2421
 5768TIP3   OH217267   1.884   0.495   1.317 -0.0832 -0.1039  0.3896
 5768TIP3    H117268   1.933   0.535   1.245  1.8554  1.3151  2.3628
 5768TIP3    H217269   1.797   0.534   1.312  0.8899  2.2315  0.4846
 5769TIP3   OH217270   1.543   1.566   0.301  0.2308  0.6517 -0.7915
 5769TIP3    H117271   1.572   1.565   0.392 -0.8005  0.8905 -0.4511
 5769TIP3    H217272   1.465   1.621   0.301 -1.6247 -1.7919 -1.2476
 5770TIP3   OH217273   6.766   3.368   4.365  0.5147  0.0748 -0.1184
 5770TIP3    H117274   6.783   3.444   4.420  1.2547 -0.2568  0.1217
 5770TIP3    H217275   6.680   3.384   4.327 -0.7813 -0.4119  2.3894
 5771TIP3   OH217276   3.750   1.700   5.913 -0.0382 -0.1831  0.0997
 5771TIP3    H117277   3.804   1.778   5.904  0.2642 -0.0095  2.5619
 5771TIP3    H217278   3.754   1.657   5.828  2.2123  0.9468 -0.4274
 5772TIP3   OH217279   1.908   4.809   5.070  0.4451  0.3926 -0.1846
 5772TIP3    H117280   1.935   4.860   5.147  0.6432  0.0699 -0.0417
 5772TIP3    H217281   1.839   4.862   5.030 -0.6145 -0.0782  0.9727
 5773TIP3   OH217282   6.650   5.670   2.734  0.6609  0.4000  0.2216
 5773TIP3    H117283   6.696   5.642   2.655 -0.0660  0.2203 -0.1507
 5773TIP3    H217284   6.591   5.740   2.704 -1.2638 -1.1755  0.1419
 5774TIP3   OH217285   2.529   4.751   1.966  0.0472 -0.5316  0.4424
 5774TIP3    H117286   2.567   4.723   1.883  1.4000 -1.1238  1.2191
 5774TIP3    H217287   2.458   4.689   1.982  0.0577 -0.6764 -0.0643
 5775TIP3   OH217288   6.460   2.544   1.362 -0.7799 -0.0019 -0.0637
 5775TIP3    H117289   6.420   2.526   1.447 -0.6327 -0.0935 -0.0116
 5775TIP3    H217290   6.538   2.596   1.383 -1.6878  1.4919 -0.2861
 5776TIP3   OH217291   6.850   3.030   5.745 -0.3814  0.4571  0.2726
 5776TIP3    H117292   6.802   3.105   5.779  1.3321  1.7611 -0.0822
 5776TIP3    H217293   6.930   3.025   5.798 -1.0373 -1.9621  1.1883
 5777TIP3   OH217294   2.949   1.432   5.396 -0.3475  0.0528 -0.4182
 5777TIP3    H117295   2.871   1.462   5.349  0.1168  3.6723  0.8090
 5777TIP3    H217296   2.916   1.401   5.480 -0.6869 -1.5740 -1.1093
 5778TIP3   OH217297   0.831   2.440   1.807  0.4926  0.0795  0.8663
 5778TIP3    H117298   0.905   2.419   1.863  2.0243 -0.0373 -1.1029
 5778TIP3    H217299   0.861   2.513   1.753 -0.6303 -0.2884 -0.3118
 5779TIP3   OH217300   0.418  -0.019   1.327  0.4584  0.6049  0.4263
 5779TIP3    H117301   0.415  -0.025   1.232  0.3425 -0.2691  0.4736
 5779TIP3    H217302   0.453   0.068   1.345  1.4272  0.4110 -0.4224
 5780TIP3   OH217303   7.050   3.047   5.188 -0.9019  0.2252 -0.5720
 5780TIP3    H117304   7.039   2.967   5.238  1.3378  0.1715 -0.0267
 5780TIP3    H217305   6.986   3.108   5.224 -2.1931 -1.0965 -0.5673
 5781TIP3   OH217306   4.168   6.426   0.104  0.1794  0.4034  0.3128
 5781TIP3    H117307   4.162   6.457   0.194 -2.1746 -0.3296  0.4533
 5781TIP3    H217308   4.248   6.372   0.103  0.0943  0.1896  2.0251
 5782TIP3   OH217309   0.974   2.847   0.260  0.2945  0.1166  0.0166
 5782TIP3    H117310   0.920   2.835   0.182 -0.3133 -0.9119  0.5662
 5782TIP3    H217311   0.911   2.850   0.332  0.9520 -2.3905  0.8120
 5783TIP3   OH217312   3.579   2.355   0.641  0.4558  0.0628  0.0185
 5783TIP3    H117313   3.586   2.450   0.630 -0.0893  0.0866 -0.1341
 5783TIP3    H217314   3.639   2.319   0.576  3.0484  0.3343  2.0920
 5784TIP3   OH217315   6.489   6.632   2.059 -0.3061 -0.5128  0.5115
 5784TIP3    H117316   6.433   6.559   2.084  1.1666 -1.7213  0.3582
 5784TIP3    H217317   6.551   6.596   1.996  0.5355  0.8286  0.5170
 5785TIP3   OH217318   4.368   5.368   4.770  0.6447 -0.5972  0.5343
 5785TIP3    H117319   4.291   5.319   4.741  0.2154 -1.0754  2.3133
 5785TIP3    H217320   4.342   5.460   4.764 -0.1174 -0.7564  1.1700
 5786TIP3   OH217321   0.334   4.188   5.261 -0.3345  0.7006 -0.2263
 5786TIP3    H117322   0.310   4.134   5.186  0.2763 -1.3803  0.9911
 5786TIP3    H217323   0.412   4.236   5.233 -0.1076 -0.0529 -0.9242
 5787TIP3   OH217324   0.517   0.875   4.368 -0.5632 -0.1844  0.0466
 5787TIP3    H117325   0.521   0.865   4.464  0.7662  0.6841  0.1215
 5787TIP3    H217326   0.498   0.787   4.335  1.4630 -1.0431  1.0063
 5788TIP3   OH217327   5.045   3.728   0.974  0.2626  0.3214 -0.2038
 5788TIP3    H117328   5.131   3.758   1.006  1.0324 -0.1581 -1.7053
 5788TIP3    H217329   5.066   3.677   0.896 -1.2634 -1.4341  0.4742
 5789TIP3   OH217330   6.830   6.727   2.369  0.1464  0.3216  0.1481
 5789TIP3    H117331   6.887   6.766   2.303 -0.0002  1.9993  0.9510
 5789TIP3    H217332   6.793   6.802   2.416 -0.9653 -0.7810  1.1171
 5790TIP3   OH217333   0.242   0.027   0.405  0.3216 -0.0588 -0.8348
 5790TIP3    H117334   0.292   0.037   0.324  0.8978 -1.5280 -0.6849
 5790TIP3    H217335   0.172  -0.034   0.383  0.7070 -0.7684 -0.1440
 5791TIP3   OH217336   5.074   5.602   0.300 -0.4693  0.0406  0.6680
 5791TIP3    H117337   5.085   5.522   0.351 -1.1270 -0.7261 -0.3602
 5791TIP3    H217338   5.142   5.661   0.334  0.2670 -1.0675  1.1920
 5792TIP3   OH217339   1.928   4.502   4.284 -0.2925  0.5455  0.0527
 5792TIP3    H117340   1.863   4.541   4.343  0.6358  0.5413  1.1231
 5792TIP3    H217341   1.993   4.463   4.343  0.1311 -0.3839 -0.9931
 5793TIP3   OH217342   2.140   3.870   4.179 -0.2154  0.1964 -0.3971
 5793TIP3    H117343   2.104   3.863   4.268 -0.5152  0.2823 -0.5126
 5793TIP3    H217344   2.081   3.818   4.125  0.2986 -0.3388 -0.4541
 5794TIP3   OH217345   5.274   0.156   4.515 -0.2748 -0.5287  0.1636
 5794TIP3    H117346   5.285   0.248   4.540  2.2908 -1.1126  1.6252
 5794TIP3    H217347   5.363   0.120   4.518 -1.4341 -3.6385  2.0510
 5795TIP3   OH217348   2.347   3.893   2.419  0.0791  0.8000 -0.3232
 5795TIP3    H117349   2.325   3.800   2.415 -0.0225  0.8162 -0.1472
 5795TIP3    H217350   2.438   3.894   2.449  0.3496  0.7304 -1.1159
 5796TIP3   OH217351   6.453   4.196   2.374  0.1404  0.3394 -0.1020
 5796TIP3    H117352   6.434   4.109   2.410  0.7194  0.6886  1.0961
 5796TIP3    H217353   6.540   4.218   2.409 -0.1254  1.5228 -0.1389
 5797TIP3   OH217354   1.678   6.600   1.425 -0.0615  0.5943 -0.1602
 5797TIP3    H117355   1.618   6.577   1.496  1.2416 -1.2624  0.4349
 5797TIP3    H217356   1.742   6.658   1.465 -0.6211  1.4225 -0.4370
 5798TIP3   OH217357   1.945   6.603   0.207  1.0272  0.3438  0.5104
 5798TIP3    H117358   1.947   6.682   0.261  0.5487  0.5455  0.2368
 5798TIP3    H217359   1.943   6.531   0.270  1.8254  0.5278  0.7639
 5799TIP3   OH217360   3.050   3.629   2.436 -0.2136 -0.2526 -0.8948
 5799TIP3    H117361   3.000   3.576   2.498 -2.2458 -0.0762 -2.2838
 5799TIP3    H217362   2.999   3.625   2.355  0.7882  1.9107 -1.6999
 5800TIP3   OH217363   2.889   4.810   0.705  0.2059 -0.5015 -0.6744
 5800TIP3    H117364   2.833   4.885   0.687  0.2225 -0.0944  0.8081
 5800TIP3    H217365   2.863   4.745   0.640  0.3351  0.8349 -2.1229
 5801TIP3   OH217366   0.273   5.959   5.395  0.1767  0.1534  0.2525
 5801TIP3    H117367   0.263   5.943   5.489  0.7148  1.7168  0.6062
 5801TIP3    H217368   0.184   5.969   5.362  0.0175  0.6204  0.8069
 5802TIP3   OH217369   0.565   0.736   0.921  0.0593  0.5460  0.0837
 5802TIP3    H117370   0.478   0.697   0.930 -0.3507  1.7595  2.1402
 5802TIP3    H217371   0.580   0.780   1.005  3.1030 -0.4808  0.2142
 5803TIP3   OH217372   4.064   1.545   4.367 -0.1951  0.2024  0.2262
 5803TIP3    H117373   3.990   1.593   4.404 -0.6693 -0.4531  0.1494
 5803TIP3    H217374   4.098   1.602   4.298 -1.2056  0.1370 -0.3498
 5804TIP3   OH217375   3.452   6.603   1.792 -0.6002  0.1709  0.1425
 5804TIP3    H117376   3.398   6.681   1.786 -1.5382 -0.5815 -3.3277
 5804TIP3    H217377   3.522   6.627   1.852 -1.4025  3.3109  0.0020
 5805TIP3   OH217378   5.375   2.429   0.409 -0.3141 -0.3870 -0.8069
 5805TIP3    H117379   5.339   2.342   0.392 -1.8038  0.2938 -1.3252
 5805TIP3    H217380   5.402   2.426   0.501  2.5921 -2.3322 -1.5713
 5806TIP3   OH217381   6.182   4.079   3.488 -0.0866 -0.5045  0.3848
 5806TIP3    H117382   6.111   4.023   3.519  1.0262 -1.9073  0.5117
 5806TIP3    H217383   6.190   4.147   3.555 -0.8087 -0.7765  0.7493
 5807TIP3   OH217384   4.745   2.549   3.033  0.3196  0.8082  0.1359
 5807TIP3    H117385   4.746   2.645   3.033 -1.9218  0.8719  0.4297
 5807TIP3    H217386   4.657   2.525   3.061  0.6143 -1.3631 -0.5747
 5808TIP3   OH217387   4.242   6.059   2.703  0.2187  0.3892  0.5272
 5808TIP3    H117388   4.204   6.111   2.632  1.2013  0.5488  0.0975
 5808TIP3    H217389   4.335   6.052   2.680  0.1552 -1.4219  0.6543
 5809TIP3   OH217390   6.098   5.767   3.145  0.1342 -0.7659 -0.1585
 5809TIP3    H117391   6.024   5.787   3.086  0.5734 -0.1300 -0.4983
 5809TIP3    H217392   6.155   5.843   3.138  0.8108 -1.2456  0.1263
 5810TIP3   OH217393   2.566   2.753   4.106 -0.1403  0.6930  0.2019
 5810TIP3    H117394   2.652   2.737   4.067 -0.9575 -2.9462 -0.4858
 5810TIP3    H217395   2.567   2.704   4.188 -1.4456  0.7758  0.2908
 5811TIP3   OH217396   2.947   5.155   3.620 -0.1548 -0.4532  0.0578
 5811TIP3    H117397   2.968   5.175   3.711  0.3224  0.2796 -0.2072
 5811TIP3    H217398   2.959   5.060   3.613  0.8646 -0.3718  0.4965
 5812TIP3   OH217399   3.146   3.244   1.957 -0.4345 -0.3695  0.2582
 5812TIP3    H117400   3.097   3.326   1.961 -0.5821 -0.4904  1.0506
 5812TIP3    H217401   3.167   3.225   2.048  3.1087  0.8873 -0.1507
 5813TIP3   OH217402   5.387   4.319   0.441 -0.2757  0.4890 -0.3695
 5813TIP3    H117403   5.312   4.292   0.494 -0.2418  0.1665 -0.4826
 5813TIP3    H217404   5.463   4.279   0.483 -0.1834  0.6970 -0.3366
 5814TIP3   OH217405   2.950   5.368   2.364 -0.2146 -0.0917  0.1540
 5814TIP3    H117406   2.933   5.275   2.353 -0.1763  0.0721 -1.5931
 5814TIP3    H217407   3.041   5.373   2.392 -0.0829 -0.5624 -0.1801
 5815TIP3   OH217408   3.852   1.852   4.948  0.3663  0.0371  0.2297
 5815TIP3    H117409   3.919   1.870   4.882  0.5480 -0.0908  0.3793
 5815TIP3    H217410   3.798   1.784   4.909  1.5062 -1.3030  0.9101
 5816TIP3   OH217411   1.182   6.331   2.155 -0.0709 -0.2280  0.3449
 5816TIP3    H117412   1.242   6.336   2.081 -0.8360 -0.4769 -0.3101
 5816TIP3    H217413   1.123   6.406   2.142 -0.3043 -0.3624  0.6223
 5817TIP3   OH217414   4.256   2.656   0.411 -0.4696  0.2380  0.1047
 5817TIP3    H117415   4.227   2.567   0.427 -0.7427  0.4033  0.5425
 5817TIP3    H217416   4.312   2.650   0.334  1.0924 -0.6381  1.2409
 5818TIP3   OH217417   0.988   0.815   2.411 -0.3746  0.1682  0.1664
 5818TIP3    H117418   0.951   0.852   2.330  2.4854  2.4362 -0.2740
 5818TIP3    H217419   1.039   0.739   2.381 -0.1341  0.4068 -0.0397
 5819TIP3   OH217420   5.775   0.986   3.584  0.7943  0.1102 -0.5840
 5819TIP3    H117421   5.825   1.063   3.556  2.4427 -0.3098  1.0509
 5819TIP3    H217422   5.789   0.981   3.678 -0.2888 -1.5076 -0.4663
 5820TIP3   OH217423   4.426   5.445   4.205  0.0475  0.5611  0.2684
 5820TIP3    H117424   4.391   5.403   4.126 -1.4491  0.0482  1.1689
 5820TIP3    H217425   4.506   5.396   4.224 -1.1100 -1.2766  0.6923
 5821TIP3   OH217426   5.346   0.677   2.943 -0.0840  0.0530  0.2611
 5821TIP3    H117427   5.323   0.692   3.035  0.7518  0.8731  0.3548
 5821TIP3    H217428   5.378   0.586   2.941 -2.8143 -0.9801  0.1950
 5822TIP3   OH217429   5.267   4.255   4.557 -0.1848  0.0363 -0.0818
 5822TIP3    H117430   5.232   4.324   4.614  0.4293 -0.1732  0.5585
 5822TIP3    H217431   5.296   4.186   4.617  1.3574  0.2153 -0.5599
 5823TIP3   OH217432   6.709   5.075   2.197  0.4421 -0.4670  0.4386
 5823TIP3    H117433   6.674   4.986   2.202  0.2006 -0.3378  1.2045
 5823TIP3    H217434   6.767   5.074   2.120 -0.4465 -0.9618 -0.2461
 5824TIP3   OH217435   0.937   6.488   5.551  0.2346  0.5096 -0.1284
 5824TIP3    H117436   0.846   6.462   5.563  0.5972 -1.3531 -1.0803
 5824TIP3    H217437   0.952   6.484   5.457  1.1958  1.1782 -0.0209
 5825TIP3   OH217438   4.296   1.502   0.337 -0.1131  0.7165 -0.4192
 5825TIP3    H117439   4.305   1.406   0.334  1.2558  0.7891  0.4267
 5825TIP3    H217440   4.333   1.532   0.254 -2.9129  0.4317 -1.9010
 5826TIP3   OH217441   6.816   5.521   1.719  0.3494 -0.4189  0.4016
 5826TIP3    H117442   6.802   5.613   1.743  0.6137 -0.2956  0.0905
 5826TIP3    H217443   6.793   5.517   1.626  2.2750 -0.2225 -0.1170
 5827TIP3   OH217444   0.172   2.587   1.208 -0.0350  0.5816 -0.4513
 5827TIP3    H117445   0.085   2.564   1.176  0.2053  0.7131 -1.2194
 5827TIP3    H217446   0.182   2.536   1.289  0.2877 -1.6810 -1.8135
 5828TIP3   OH217447   4.023   6.201   5.467 -0.0758  0.2936 -0.3281
 5828TIP3    H117448   4.040   6.294   5.485  0.0423  0.4908 -1.3809
 5828TIP3    H217449   3.949   6.202   5.407  0.4784 -0.2568 -1.0285
 5829TIP3   OH217450   5.701   4.010   0.827 -0.1295  0.8330  0.0236
 5829TIP3    H117451   5.657   4.069   0.888  0.1573  0.3029  0.7539
 5829TIP3    H217452   5.697   3.924   0.870 -0.1654  0.4008 -0.8281
 5830TIP3   OH217453   1.882   5.967   0.931  0.4824 -0.0663  0.6744
 5830TIP3    H117454   1.854   6.028   0.862 -0.5613 -0.5072  0.6937
 5830TIP3    H217455   1.944   6.018   0.983  0.8104  0.4751 -0.2147
 5831TIP3   OH217456   5.851   6.521   3.239 -0.0323  0.0869  0.2545
 5831TIP3    H117457   5.843   6.496   3.331  0.5741  0.3819  0.3881
 5831TIP3    H217458   5.767   6.494   3.200  0.5172 -2.0761  0.4044
 5832TIP3   OH217459   1.023   3.247   2.978  0.0691  0.0216  0.3308
 5832TIP3    H117460   0.980   3.162   2.990  0.3062 -0.0411  0.7481
 5832TIP3    H217461   1.071   3.261   3.059 -0.3576  0.7832  0.4580
 5833TIP3   OH217462   5.593   6.670   3.747 -0.1169  0.1029 -0.0919
 5833TIP3    H117463   5.640   6.729   3.688  1.9963 -1.5967 -0.2145
 5833TIP3    H217464   5.644   6.672   3.828  1.5341 -3.2918 -0.8663
 5834TIP3   OH217465   0.538   0.523   2.396  0.2873  0.2682  0.3397
 5834TIP3    H117466   0.579   0.585   2.457 -0.0489  0.7251  0.1099
 5834TIP3    H217467   0.559   0.557   2.309 -1.0334  0.8262  0.2194
 5835TIP3   OH217468   3.683   6.475   2.625 -0.0760  0.0576 -0.4827
 5835TIP3    H117469   3.618   6.487   2.694  0.6669  0.8441  0.1002
 5835TIP3    H217470   3.766   6.503   2.664  0.3652  0.5206 -1.6914
 5836TIP3   OH217471   5.222   6.745   3.272  0.7290  0.7434  0.1596
 5836TIP3    H117472   5.239   6.685   3.345  0.5342  0.8861  0.3225
 5836TIP3    H217473   5.263   6.702   3.197 -0.1609 -0.0263  0.0939
 5837TIP3   OH217474   3.382   2.109   0.592  0.2029  0.3271  0.3792
 5837TIP3    H117475   3.439   2.185   0.596  1.2864 -0.4647  3.9387
 5837TIP3    H217476   3.302   2.136   0.638 -0.1975 -0.0860 -0.0619
 5838TIP3   OH217477   4.518   0.207   5.306 -0.2874 -0.6857 -0.6007
 5838TIP3    H117478   4.591   0.188   5.364  0.2344 -1.4680 -1.4946
 5838TIP3    H217479   4.498   0.300   5.323  0.6905 -0.5508 -0.1224
 5839TIP3   OH217480   1.837   5.528   2.231  0.2151  0.0767 -0.2775
 5839TIP3    H117481   1.756   5.491   2.266  0.1284 -0.3105 -0.8757
 5839TIP3    H217482   1.904   5.463   2.251 -0.0798 -0.8335 -2.0664
 5840TIP3   OH217483   3.789   4.446   1.205 -0.2317  0.6685 -0.2852
 5840TIP3    H117484   3.793   4.444   1.300  1.9684  2.3013 -0.2574
 5840TIP3    H217485   3.709   4.494   1.185 -0.0127  1.5098  0.7807
 5841TIP3   OH217486   2.823   3.433   4.155 -0.9720  0.9047 -0.4660
 5841TIP3    H117487   2.789   3.357   4.202 -0.5766  0.3572 -1.0335
 5841TIP3    H217488   2.798   3.508   4.208 -2.0157  0.4313 -0.2655
 5842TIP3   OH217489   1.450   6.463   5.670 -0.2046  0.2826  0.4152
 5842TIP3    H117490   1.384   6.426   5.611 -0.2516  0.3419  0.4305
 5842TIP3    H217491   1.497   6.526   5.617  1.8937 -1.9149 -0.5372
 5843TIP3   OH217492   4.285   3.967   0.875  0.1870  0.1227 -0.0543
 5843TIP3    H117493   4.337   3.887   0.867  0.3702  0.4032 -1.9532
 5843TIP3    H217494   4.224   3.964   0.802 -0.5833  1.1788  0.5132
 5844TIP3   OH217495   3.330   0.542   1.859 -0.1622  0.2488 -0.3035
 5844TIP3    H117496   3.295   0.519   1.945 -2.1537 -0.6320 -1.2858
 5844TIP3    H217497   3.264   0.600   1.821 -0.1265 -0.6573 -1.8374
 5845TIP3   OH217498   3.181   2.689   4.342  0.2781  0.1754 -0.5405
 5845TIP3    H117499   3.195   2.749   4.416  1.2363  1.5658 -1.7962
 5845TIP3    H217500   3.218   2.735   4.267  0.7853 -1.9041 -1.6184
 5846TIP3   OH217501   1.914   4.348   4.968 -0.0579  0.8819  0.4072
 5846TIP3    H117502   1.889   4.434   5.002  1.7466  1.3818  0.5736
 5846TIP3    H217503   1.961   4.368   4.887 -0.8382 -0.0546 -0.2953
 5847TIP3   OH217504   2.849   2.419   1.297 -0.3670  0.1890 -0.0505
 5847TIP3    H117505   2.839   2.325   1.284  0.6495 -0.0548  0.7265
 5847TIP3    H217506   2.776   2.458   1.250 -0.6582 -0.9717 -0.6049
 5848TIP3   OH217507   5.336   1.738   5.738  0.2063  0.5620  0.0878
 5848TIP3    H117508   5.261   1.772   5.787  0.1278  0.6605 -0.0998
 5848TIP3    H217509   5.383   1.817   5.710  1.0580  0.5043  1.2425
 5849TIP3   OH217510   0.079   4.355   1.883  0.1195 -0.5119 -0.5917
 5849TIP3    H117511  -0.013   4.334   1.898  0.1042  0.5096  1.0374
 5849TIP3    H217512   0.084   4.450   1.893  1.6011 -0.6915  1.0728
 5850TIP3   OH217513   6.941   5.530   2.482  0.1049  0.6055 -0.4669
 5850TIP3    H117514   6.908   5.619   2.489  1.0513  0.8835  0.6904
 5850TIP3    H217515   7.035   5.539   2.468  0.2504 -0.2151 -0.0945
 5851TIP3   OH217516   0.679   3.134   5.893 -0.6020  0.3671 -0.0726
 5851TIP3    H117517   0.723   3.212   5.859 -0.4708  0.1298 -0.4540
 5851TIP3    H217518   0.744   3.064   5.886 -0.8856  0.1137 -0.2135
 5852TIP3   OH217519   3.165   1.992   2.347  0.2098  0.2938 -0.1139
 5852TIP3    H117520   3.209   1.935   2.411  0.9000  0.1257 -0.7161
 5852TIP3    H217521   3.211   2.075   2.353 -1.9131  1.4195  2.0060
 5853TIP3   OH217522   6.462   1.204   3.380 -0.4324  0.0525  0.0080
 5853TIP3    H117523   6.553   1.235   3.377  0.1582 -1.6305 -0.2916
 5853TIP3    H217524   6.452   1.151   3.301 -1.9140  0.8019 -0.3379
 5854TIP3   OH217525   1.780   2.037   4.669  0.1026 -0.2793  0.3750
 5854TIP3    H117526   1.728   2.117   4.679  0.2583  0.0978 -1.4898
 5854TIP3    H217527   1.848   2.044   4.735 -0.5848  0.5506  1.0178
 5855TIP3   OH217528   6.065   6.127   4.134  0.2918  0.3748  0.6919
 5855TIP3    H117529   6.079   6.218   4.109  2.4065 -0.3122 -0.9721
 5855TIP3    H217530   6.106   6.119   4.220 -0.3505  1.0941  1.0697
 5856TIP3   OH217531  -0.010   5.752   5.256  0.6298 -0.0206 -0.0195
 5856TIP3    H117532   0.021   5.751   5.166  0.1889 -1.4100 -0.1869
 5856TIP3    H217533   0.058   5.707   5.306  0.6105  0.2375  0.2429
 5857TIP3   OH217534   5.993   0.598   3.882 -0.7563  0.1679  0.0597
 5857TIP3    H117535   6.079   0.638   3.896  0.0764 -0.6929 -2.0666
 5857TIP3    H217536   5.967   0.566   3.968  0.1158  2.1498  1.1488
 5858TIP3   OH217537   6.659   1.521   2.429 -0.5501  0.6473  0.2377
 5858TIP3    H117538   6.664   1.456   2.499 -1.3733  0.0608 -0.2225
 5858TIP3    H217539   6.739   1.507   2.378 -1.2645 -0.8340 -0.5365
 5859TIP3   OH217540   4.538   1.395   4.900  0.2263  0.2113 -0.0984
 5859TIP3    H117541   4.498   1.309   4.890  0.8147 -0.2633  1.2936
 5859TIP3    H217542   4.489   1.452   4.841 -0.2958 -1.0303 -0.8998
 5860TIP3   OH217543   0.560   4.967   4.032 -0.0345 -0.4472 -0.5248
 5860TIP3    H117544   0.601   4.995   3.950 -0.7305  1.4757 -0.2716
 5860TIP3    H217545   0.541   5.049   4.078 -2.9869 -1.2901 -0.0676
 5861TIP3   OH217546   3.320   5.624   2.309  0.0050 -0.3897  0.6471
 5861TIP3    H117547   3.290   5.662   2.227 -1.4382  1.1507  1.8440
 5861TIP3    H217548   3.398   5.573   2.285 -1.2502 -1.2594 -1.9069
 5862TIP3   OH217549   0.456   2.678   2.885 -0.1267 -0.2283 -0.3711
 5862TIP3    H117550   0.437   2.769   2.863 -0.6007 -0.1573  0.3027
 5862TIP3    H217551   0.412   2.664   2.969  2.8068 -0.0452  1.3166
 5863TIP3   OH217552   0.969   2.927   0.879  0.0989  0.5060  0.3447
 5863TIP3    H117553   0.994   2.877   0.957  1.1422  1.8355  0.9077
 5863TIP3    H217554   0.968   3.018   0.909  0.8013  1.0699 -1.2634
 5864TIP3   OH217555   0.675   6.369   1.579  0.1808 -0.2164  0.5071
 5864TIP3    H117556   0.602   6.361   1.518 -0.1814 -1.6501  1.1044
 5864TIP3    H217557   0.742   6.416   1.529 -0.4536 -0.5205 -0.6755
 5865TIP3   OH217558   0.568   5.733   0.765 -0.0016 -0.0520  0.0976
 5865TIP3    H117559   0.561   5.796   0.694  0.6505  0.5640  0.5661
 5865TIP3    H217560   0.572   5.647   0.721  1.6557  0.3819 -0.7017
 5866TIP3   OH217561   6.312   5.148   1.272  0.1536 -0.0559  0.6888
 5866TIP3    H117562   6.231   5.192   1.298  0.7013  0.8914  0.8470
 5866TIP3    H217563   6.348   5.204   1.203  1.3523  0.2802  1.5574
 5867TIP3   OH217564   6.911   5.343   2.159  0.3172  0.1642  0.1370
 5867TIP3    H117565   6.962   5.307   2.232 -1.2664 -1.5738  0.4551
 5867TIP3    H217566   6.858   5.411   2.199 -0.6238 -0.8546  0.6803
 5868TIP3   OH217567   6.131   0.688   4.226 -0.3642 -0.5523  0.2531
 5868TIP3    H117568   6.075   0.698   4.303 -1.1131  0.0599 -0.3555
 5868TIP3    H217569   6.134   0.776   4.187 -3.2177 -1.4802 -2.5835
 5869TIP3   OH217570   1.658   0.584   5.342  0.4410  0.5537  0.8628
 5869TIP3    H117571   1.645   0.595   5.248  1.0420  0.2260  0.7301
 5869TIP3    H217572   1.657   0.489   5.354 -0.6260  0.6147  1.3454
 5870TIP3   OH217573   4.378   0.428   5.353 -0.3791 -0.1045  0.2625
 5870TIP3    H117574   4.298   0.397   5.395 -0.5938 -0.6212 -0.5059
 5870TIP3    H217575   4.411   0.497   5.412 -1.7275  0.5632  0.2722
 5871TIP3   OH217576   2.018   1.243   3.932 -0.1409  0.2520 -0.4308
 5871TIP3    H117577   2.107   1.263   3.901  0.2683 -1.8514 -0.7791
 5871TIP3    H217578   2.017   1.147   3.940 -1.9930  0.3279  0.7884
 5872TIP3   OH217579   2.056   6.077   5.564  0.3436  0.4180  0.0367
 5872TIP3    H117580   2.074   6.013   5.632  1.0344  0.9706  0.3851
 5872TIP3    H217581   1.964   6.099   5.576  0.2383 -0.1209  0.2425
 5873TIP3   OH217582   5.706   1.742   3.472 -0.4279 -0.8439 -0.2729
 5873TIP3    H117583   5.799   1.721   3.479 -0.3453 -0.2350  0.7395
 5873TIP3    H217584   5.704   1.832   3.440 -0.6133 -0.3934  0.9387
 5874TIP3   OH217585   5.643   5.267   0.345 -0.5080  0.1375 -0.2259
 5874TIP3    H117586   5.725   5.315   0.359 -1.1520  1.3620 -0.5444
 5874TIP3    H217587   5.605   5.308   0.267 -2.2935  0.8158  0.9513
 5875TIP3   OH217588   4.528   0.154   4.797 -0.3367  0.6832  0.0661
 5875TIP3    H117589   4.567   0.138   4.883 -0.4490  1.6032  0.2997
 5875TIP3    H217590   4.576   0.228   4.762 -0.8141  0.8156 -0.3290
 5876TIP3   OH217591   2.214   3.471   5.876 -0.1483 -0.4103 -0.0596
 5876TIP3    H117592   2.242   3.514   5.795  1.4298 -0.0629  0.6326
 5876TIP3    H217593   2.125   3.504   5.891 -0.2360 -0.0196 -1.3294
 5877TIP3   OH217594   4.377   3.338   4.094 -0.2066 -0.3136 -0.2685
 5877TIP3    H117595   4.345   3.283   4.022  1.1921  0.1469 -1.2808
 5877TIP3    H217596   4.472   3.335   4.086 -0.0502  0.5117  1.0033
 5878TIP3   OH217597   3.622   3.476   3.354 -0.0142  0.0543 -0.1037
 5878TIP3    H117598   3.580   3.482   3.440  0.5747 -0.1903  0.2058
 5878TIP3    H217599   3.562   3.423   3.301  0.5584 -1.5185  0.7559
 5879TIP3   OH217600   7.151   3.958   1.759  0.1264  0.1220 -0.1518
 5879TIP3    H117601   7.176   3.866   1.752  0.7633  0.2548  0.3492
 5879TIP3    H217602   7.143   3.987   1.668 -0.3035 -0.4814 -0.3148
 5880TIP3   OH217603   5.104   0.513   1.422 -0.3992 -0.3734  0.4380
 5880TIP3    H117604   5.045   0.498   1.348  0.6144  1.0578 -0.7180
 5880TIP3    H217605   5.159   0.434   1.425 -0.5847 -0.5330 -0.2046
 5881TIP3   OH217606   5.540   0.952   5.598 -0.2927 -0.2763  0.4989
 5881TIP3    H117607   5.606   0.989   5.657 -0.1709  0.0784  0.1445
 5881TIP3    H217608   5.558   0.858   5.598 -0.0338 -0.2282  0.7109
 5882TIP3   OH217609   0.096   3.903   2.711 -0.3909  0.1994 -0.5718
 5882TIP3    H117610   0.126   3.848   2.639  1.2051 -1.7215  1.4207
 5882TIP3    H217611   0.060   3.841   2.775  1.7932  1.3353  1.9256
 5883TIP3   OH217612   3.595   1.119   1.216  0.1478  0.3382 -0.2276
 5883TIP3    H117613   3.640   1.071   1.285 -1.2278 -1.3247 -0.4034
 5883TIP3    H217614   3.664   1.170   1.173  1.2111  0.5869  1.6598
 5884TIP3   OH217615   0.741   0.732   5.618 -0.6026 -0.2973  0.4621
 5884TIP3    H117616   0.818   0.691   5.579 -0.9999 -1.3276  0.7333
 5884TIP3    H217617   0.669   0.707   5.560 -0.8564  0.0218  0.6346
 5885TIP3   OH217618   5.107   0.744   0.257 -0.2530  0.0412 -0.2704
 5885TIP3    H117619   5.130   0.799   0.182 -1.0714 -0.6853 -1.0923
 5885TIP3    H217620   5.108   0.804   0.332  1.1894  0.6532 -0.7431
 5886TIP3   OH217621   5.688   6.490   0.484  0.2995 -0.0747  0.2059
 5886TIP3    H117622   5.629   6.440   0.541 -0.5441  1.9900  1.2406
 5886TIP3    H217623   5.672   6.582   0.507  1.3438  0.7434 -2.0273
 5887TIP3   OH217624   5.808   1.473   0.985 -0.4047  0.1542  0.4441
 5887TIP3    H117625   5.834   1.493   1.075 -0.8034 -0.6636  0.7589
 5887TIP3    H217626   5.730   1.417   0.995 -0.7048  0.4000 -0.4169
 5888TIP3   OH217627   4.972   4.243   3.143 -0.2317 -0.0462 -0.2861
 5888TIP3    H117628   4.957   4.330   3.179  0.4810  0.5147 -1.3001
 5888TIP3    H217629   4.905   4.188   3.185 -1.8934  1.3404 -0.9787
 5889TIP3   OH217630   0.875   3.331   0.703  0.1352  0.5688  0.2305
 5889TIP3    H117631   0.956   3.327   0.754  0.8230 -3.0034 -0.8639
 5889TIP3    H217632   0.805   3.319   0.768  0.7847 -0.6313  0.7356
 5890TIP3   OH217633   0.220   5.707   3.907 -0.2669 -0.2063 -0.2560
 5890TIP3    H117634   0.234   5.801   3.893  0.9572 -0.1552  1.0241
 5890TIP3    H217635   0.248   5.665   3.826 -1.2336  0.5481 -1.0007
 5891TIP3   OH217636   0.832   0.352   5.247 -0.1797  0.1908  0.0122
 5891TIP3    H117637   0.804   0.440   5.223  0.3290 -0.0238 -1.4191
 5891TIP3    H217638   0.921   0.363   5.281  0.1294  0.1463 -0.7816
 5892TIP3   OH217639   0.337   1.285   0.985 -0.1788 -0.3317 -0.3080
 5892TIP3    H117640   0.272   1.329   0.930 -0.6317 -0.5770  0.0256
 5892TIP3    H217641   0.417   1.336   0.973  0.2060 -1.3425 -2.5114
 5893TIP3   OH217642   4.005   6.514   5.523 -0.2234  0.5933  0.6054
 5893TIP3    H117643   3.958   6.553   5.597 -0.3394  0.7241  0.4636
 5893TIP3    H217644   3.937   6.495   5.458  0.2304  4.9417 -1.5558
 5894TIP3   OH217645   4.670   4.731   1.827  0.5601  0.0304  0.1802
 5894TIP3    H117646   4.673   4.637   1.813  2.3535  0.2497 -1.2819
 5894TIP3    H217647   4.748   4.750   1.879  1.6414  0.9646 -1.6703
 5895TIP3   OH217648   2.757   6.557   3.643  0.4100 -0.4093  0.2622
 5895TIP3    H117649   2.826   6.495   3.622 -0.5468 -1.4454  0.0575
 5895TIP3    H217650   2.677   6.504   3.642 -0.2914  0.5990  1.2477
 5896TIP3   OH217651   3.232   5.319   2.469  0.5979  0.2540 -0.2430
 5896TIP3    H117652   3.184   5.369   2.534 -1.2704 -0.4223 -1.0340
 5896TIP3    H217653   3.260   5.240   2.515 -1.6672 -0.7491 -0.4446
 5897TIP3   OH217654   2.285   4.372   3.987 -0.2552 -0.0701 -0.1097
 5897TIP3    H117655   2.340   4.345   3.914  1.5372  0.0571  1.1287
 5897TIP3    H217656   2.198   4.384   3.948  0.1093 -2.1793 -1.7488
 5898TIP3   OH217657   1.148   3.056   5.492 -0.3208 -0.1095  0.0017
 5898TIP3    H117658   1.215   3.123   5.477 -0.3775 -0.2860 -1.1225
 5898TIP3    H217659   1.154   3.036   5.585  0.0899  1.0430  0.2352
 5899TIP3   OH217660   2.081   6.006   4.235 -0.1286  0.1321 -0.6908
 5899TIP3    H117661   2.092   5.944   4.163  1.3673 -0.8596  0.3221
 5899TIP3    H217662   2.117   5.961   4.311  1.4681  2.3902  0.0168
 5900TIP3   OH217663   5.544   6.405   1.581 -0.0713  0.0415 -0.7703
 5900TIP3    H117664   5.454   6.432   1.563  0.0594  1.2009  0.1781
 5900TIP3    H217665   5.577   6.376   1.497 -0.9978  0.6480 -1.3684
 5901TIP3   OH217666   0.368   4.406   0.197  0.0256  0.4657 -0.1785
 5901TIP3    H117667   0.329   4.376   0.115  0.9131  0.5562 -0.6460
 5901TIP3    H217668   0.419   4.483   0.172  0.3400  0.4675  0.4521
 5902TIP3   OH217669   5.970   6.459   4.427  0.4661 -0.1820 -0.5413
 5902TIP3    H117670   6.061   6.432   4.417  0.3230 -0.6395 -0.6222
 5902TIP3    H217671   5.938   6.409   4.502  0.3315  0.1064 -0.4056
 5903TIP3   OH217672   1.195   1.148   2.222 -0.2338 -0.4534  0.2771
 5903TIP3    H117673   1.274   1.177   2.268 -0.0846  1.6033 -1.1491
 5903TIP3    H217674   1.127   1.149   2.289 -0.2400  3.4288  0.4582
 5904TIP3   OH217675   4.069   1.687   5.778  0.1396  0.3872 -0.1231
 5904TIP3    H117676   4.162   1.681   5.798  0.3136  0.8315 -0.7853
 5904TIP3    H217677   4.065   1.727   5.691 -0.5960 -1.4982 -1.0147
 5905TIP3   OH217678   1.306   6.177   5.662 -0.3222  0.0780 -0.2446
 5905TIP3    H117679   1.284   6.226   5.741 -0.4328  0.3993 -0.4727
 5905TIP3    H217680   1.402   6.176   5.660 -0.2778  2.0311 -1.2936
 5906TIP3   OH217681   3.084   3.312   4.240  0.5194  0.1464 -0.2933
 5906TIP3    H117682   3.126   3.231   4.271 -0.8631 -1.0830 -1.4618
 5906TIP3    H217683   3.066   3.361   4.320  4.1070  0.7915  0.2925
 5907TIP3   OH217684   1.907   1.447   0.260 -0.5335 -1.0096  0.0099
 5907TIP3    H117685   1.819   1.466   0.228 -0.9756 -0.7785  1.3081
 5907TIP3    H217686   1.901   1.360   0.300  0.2242 -1.6825 -1.2685
 5908TIP3   OH217687   5.703   1.277   1.227  0.8929 -0.3783 -0.0125
 5908TIP3    H117688   5.730   1.190   1.200  1.4567 -0.8181  1.8875
 5908TIP3    H217689   5.607   1.271   1.236  0.5802 -0.0333 -2.4047
 5909TIP3   OH217690   7.123   2.960   5.474  0.3300  0.0823  0.5671
 5909TIP3    H117691   7.046   2.905   5.458  0.3830  0.2994 -0.5589
 5909TIP3    H217692   7.193   2.898   5.496  0.2963 -0.2908 -0.3228
 5910TIP3   OH217693   6.350   2.567   0.532  0.3902  0.2753  0.3881
 5910TIP3    H117694   6.264   2.526   0.523  0.4876  0.4207 -1.9441
 5910TIP3    H217695   6.337   2.657   0.501  1.1280  0.6863  1.2228
 5911TIP3   OH217696   1.211   5.972   2.648 -0.2559  0.1989  0.3323
 5911TIP3    H117697   1.119   5.954   2.666 -0.4433  1.2069  0.4720
 5911TIP3    H217698   1.227   5.935   2.561 -0.9273  0.4464  0.1040
 5912TIP3   OH217699   0.486   3.941   5.039  0.2470  0.2365 -0.3991
 5912TIP3    H117700   0.515   3.854   5.011  0.4121  0.1868 -0.0835
 5912TIP3    H217701   0.515   4.000   4.969  3.3523  0.5617  0.9734
 5913TIP3   OH217702   1.664   0.038   2.348  0.0503  0.4385  0.4197
 5913TIP3    H117703   1.714   0.016   2.269 -0.9347 -0.2235 -0.0557
 5913TIP3    H217704   1.660   0.134   2.348 -0.2581  0.4467 -0.5732
 5914TIP3   OH217705   4.545   3.836   1.267  0.8564 -0.3749  0.0551
 5914TIP3    H117706   4.576   3.904   1.327 -1.1191  0.2033  0.4883
 5914TIP3    H217707   4.556   3.754   1.315  0.7816 -0.0791  0.5860
 5915TIP3   OH217708   2.163   5.913   5.349 -0.5447  0.1063  0.5525
 5915TIP3    H117709   2.117   5.922   5.266  1.2708  1.2827 -0.4032
 5915TIP3    H217710   2.121   5.977   5.406 -0.3591  0.9266 -0.1978
 5916TIP3   OH217711   5.811   6.065   5.514 -0.0911 -0.3176 -0.1142
 5916TIP3    H117712   5.715   6.071   5.507 -0.2218  0.3195  1.7964
 5916TIP3    H217713   5.837   6.019   5.433 -1.8645  0.5921 -1.2845
 5917TIP3   OH217714   2.826   6.431   4.112  0.4753 -0.6081 -0.1298
 5917TIP3    H117715   2.827   6.483   4.192 -2.1144 -0.8223  0.1401
 5917TIP3    H217716   2.809   6.494   4.042 -2.3604 -0.9144  0.1629
 5918TIP3   OH217717   0.781   6.223   2.671 -0.0343  0.0766  0.0713
 5918TIP3    H117718   0.853   6.247   2.613  0.9086  1.0941  1.5905
 5918TIP3    H217719   0.709   6.280   2.645  0.0888 -0.0890 -0.6576
 5919TIP3   OH217720   5.694   2.524   3.795 -0.1001  0.3006  0.3714
 5919TIP3    H117721   5.745   2.553   3.720 -0.7043 -1.6073 -0.8581
 5919TIP3    H217722   5.603   2.540   3.769 -0.2818  0.7516  1.2343
 5920TIP3   OH217723   2.216   4.105   4.446  0.4709  0.3085  0.8019
 5920TIP3    H117724   2.255   4.064   4.369  0.2243 -1.0808  1.3775
 5920TIP3    H217725   2.275   4.080   4.518 -0.2645  0.0458  1.3291
 5921TIP3   OH217726   6.390   1.047   0.246 -0.1047 -0.1254  0.3569
 5921TIP3    H117727   6.456   1.117   0.252 -2.3588  1.9963  3.5708
 5921TIP3    H217728   6.419   0.981   0.309 -0.9772  0.8037  1.7658
 5922TIP3   OH217729   1.217   6.468   5.216  0.2723 -0.6574  0.2492
 5922TIP3    H117730   1.138   6.517   5.238  0.4750 -0.6551  1.0324
 5922TIP3    H217731   1.204   6.383   5.258  0.3812 -0.9053 -0.2130
 5923TIP3   OH217732   6.417   6.050   4.594  0.3776  0.0376  0.6441
 5923TIP3    H117733   6.511   6.038   4.607  0.3082  0.7255  1.9913
 5923TIP3    H217734   6.400   6.140   4.622 -0.5525  0.2034 -0.3971
 5924TIP3   OH217735   1.126   4.524   4.876 -0.1508 -0.1601 -0.0154
 5924TIP3    H117736   1.179   4.545   4.953 -0.5166 -0.9965  0.4765
 5924TIP3    H217737   1.049   4.481   4.912 -0.6841  0.1244 -0.8037
 5925TIP3   OH217738   5.449   2.368   2.078  0.4886 -0.0983 -0.1249
 5925TIP3    H117739   5.498   2.428   2.022  1.0761 -0.1866  0.2844
 5925TIP3    H217740   5.516   2.322   2.128  0.0179 -0.7917 -0.1271
 5926TIP3   OH217741   5.585   3.669   1.620 -0.3315  0.3835  0.2346
 5926TIP3    H117742   5.542   3.585   1.603  1.0472 -0.3926  0.4601
 5926TIP3    H217743   5.674   3.658   1.587 -0.0723  1.6991  0.4442
 5927TIP3   OH217744   3.552   5.757   4.866 -0.2614 -0.3397  0.8644
 5927TIP3    H117745   3.560   5.819   4.938 -1.9179  0.8204  0.1122
 5927TIP3    H217746   3.474   5.784   4.819 -0.3432 -2.2638 -0.2399
 5928TIP3   OH217747   3.681   6.652   1.383  0.0894  0.7457 -0.1330
 5928TIP3    H117748   3.707   6.744   1.391  1.5827  0.3433  0.0946
 5928TIP3    H217749   3.597   6.646   1.427  0.5004  1.7933  0.8397
 5929TIP3   OH217750   4.582   0.375   3.866  0.0500 -0.1368 -0.4350
 5929TIP3    H117751   4.674   0.395   3.880 -0.2265  1.0217 -0.1417
 5929TIP3    H217752   4.535   0.446   3.911 -0.9792 -0.6705 -0.6314
 5930TIP3   OH217753   4.248   2.666   3.865 -0.1526  0.4385 -0.1922
 5930TIP3    H117754   4.221   2.641   3.777  1.9297 -0.3942 -0.6722
 5930TIP3    H217755   4.214   2.596   3.921 -0.6611  0.4663 -0.4586
 5931TIP3   OH217756   5.525   5.715   1.336 -0.5315  0.4659 -0.5087
 5931TIP3    H117757   5.509   5.621   1.328 -0.5068  0.5240 -1.3592
 5931TIP3    H217758   5.571   5.725   1.419 -0.8994 -0.2261 -0.2156
 5932TIP3   OH217759   5.540   5.143   3.785  0.1104  0.5729  0.5619
 5932TIP3    H117760   5.547   5.174   3.875  0.9757  2.0145  0.0318
 5932TIP3    H217761   5.457   5.095   3.782 -1.2318  2.6768  1.5261
 5933TIP3   OH217762   0.921   2.150   2.176  0.1742  0.3159  0.5834
 5933TIP3    H117763   0.881   2.073   2.217  0.7715 -0.2661  0.1022
 5933TIP3    H217764   0.850   2.193   2.129  0.0548 -0.5864 -0.0905
 5934TIP3   OH217765   6.707   5.453   1.063  0.1273  0.4981 -0.3385
 5934TIP3    H117766   6.656   5.532   1.048 -0.2769  0.2825 -0.1332
 5934TIP3    H217767   6.689   5.398   0.987 -0.5811  0.1000  0.0999
 5935TIP3   OH217768   2.493   0.862   4.993  0.1526 -0.6839 -0.0347
 5935TIP3    H117769   2.582   0.895   4.979 -0.6390  0.5799 -2.6103
 5935TIP3    H217770   2.474   0.884   5.084  1.6512  1.1081 -0.0835
 5936TIP3   OH217771   5.210   1.361   0.532  0.5395 -0.5139  0.5954
 5936TIP3    H117772   5.241   1.416   0.604 -0.6078 -0.1849  0.8658
 5936TIP3    H217773   5.116   1.354   0.547  0.7203 -3.0979  0.9322
 5937TIP3   OH217774   3.868   2.422   3.039 -0.1227  0.1642 -0.5200
 5937TIP3    H117775   3.810   2.368   2.985  0.0749 -0.4548 -0.1300
 5937TIP3    H217776   3.816   2.439   3.118  0.8735 -2.0486  0.7112
 5938TIP3   OH217777   6.409   2.684   3.257  0.1413 -0.0435 -0.1437
 5938TIP3    H117778   6.337   2.625   3.236 -1.1208  1.1728  0.5656
 5938TIP3    H217779   6.367   2.769   3.272  1.9238  1.2326 -1.7602
 5939TIP3   OH217780   1.302   4.517   3.379  0.2456  0.1480 -0.5965
 5939TIP3    H117781   1.374   4.572   3.409  0.3843 -0.5058  0.2865
 5939TIP3    H217782   1.332   4.427   3.394 -1.4244 -0.1334  1.4361
 5940TIP3   OH217783   7.020   3.616   3.727  0.4085  0.6236 -0.1337
 5940TIP3    H117784   6.963   3.666   3.668 -0.6110  2.5759  2.3041
 5940TIP3    H217785   6.988   3.526   3.720 -0.6546  1.0709 -1.4594
 5941TIP3   OH217786   0.818   6.657   3.713  0.0673 -0.4385  0.1787
 5941TIP3    H117787   0.892   6.663   3.774  0.0254  1.4623  0.0990
 5941TIP3    H217788   0.829   6.572   3.671  1.3243 -0.8661  1.2837
 5942TIP3   OH217789   4.733   3.719   4.846 -0.1349  0.2868  0.0583
 5942TIP3    H117790   4.802   3.749   4.787  0.9634 -1.0756  0.5843
 5942TIP3    H217791   4.756   3.756   4.931 -0.1489 -0.0170  0.1958
 5943TIP3   OH217792   0.667   2.735   0.234 -0.2918 -0.0947  0.1837
 5943TIP3    H117793   0.616   2.814   0.253 -1.0278 -0.4834 -0.1335
 5943TIP3    H217794   0.645   2.714   0.143  3.7466  2.1822 -1.5751
 5944TIP3   OH217795   2.478   4.558   5.539 -0.0402 -0.3745  0.3410
 5944TIP3    H117796   2.562   4.539   5.582  0.4387  3.3651  1.4007
 5944TIP3    H217797   2.418   4.573   5.611  0.0594  3.2012 -0.1829
 5945TIP3   OH217798   2.959   1.212   4.876 -0.4707  0.5371 -0.3575
 5945TIP3    H117799   2.872   1.216   4.837 -0.6407  2.7803  0.1139
 5945TIP3    H217800   2.944   1.214   4.970  0.0617 -1.5373 -0.1616
 5946TIP3   OH217801   1.693   4.633   2.738  0.5681  0.1946 -0.1133
 5946TIP3    H117802   1.713   4.571   2.667  1.1783  0.3503 -0.0799
 5946TIP3    H217803   1.615   4.596   2.780  2.8591 -2.4944  2.1319
 5947TIP3   OH217804   1.284   3.892   3.934 -0.3352  0.6186  0.2456
 5947TIP3    H117805   1.254   3.811   3.893  1.0321 -0.8149  1.9102
 5947TIP3    H217806   1.277   3.876   4.028  0.7767  2.0934  0.6269
 5948TIP3   OH217807   5.598   3.677   3.368 -0.3375 -0.0690 -0.0236
 5948TIP3    H117808   5.545   3.620   3.424 -2.1209  0.1552 -1.3872
 5948TIP3    H217809   5.587   3.764   3.405  0.7217 -0.2796  0.8454
 5949TIP3   OH217810   2.595   3.564   3.410  0.2163  0.3111  0.2717
 5949TIP3    H117811   2.676   3.606   3.380 -0.7180  0.4151 -2.3546
 5949TIP3    H217812   2.625   3.496   3.470  2.0983  1.4944  0.7820
 5950TIP3   OH217813   2.770   6.456   2.625 -0.2398 -0.2332  0.4554
 5950TIP3    H117814   2.720   6.521   2.575 -1.5367  0.3200  2.3345
 5950TIP3    H217815   2.850   6.502   2.651  0.7948 -0.7642 -1.6591
 5951TIP3   OH217816   0.206   2.309   2.894  0.0383  0.1041  0.1028
 5951TIP3    H117817   0.225   2.402   2.887 -0.9412  0.2179 -1.3263
 5951TIP3    H217818   0.112   2.302   2.876  0.1877 -1.1933 -0.2640
 5952TIP3   OH217819   4.734   5.433   3.478  0.4627  0.5628 -0.2475
 5952TIP3    H117820   4.740   5.409   3.571  2.0020  1.1138 -0.1785
 5952TIP3    H217821   4.822   5.420   3.444 -0.0769  0.4071 -1.6400
 5953TIP3   OH217822   4.632   0.941   3.921 -0.1418 -0.1769  0.2941
 5953TIP3    H117823   4.723   0.911   3.915  0.0320  0.4596 -0.4458
 5953TIP3    H217824   4.615   0.948   4.015 -0.4053 -3.1544  0.5681
 5954TIP3   OH217825   4.244   2.355   2.389  0.3204 -0.2661 -0.0983
 5954TIP3    H117826   4.295   2.405   2.326 -2.2747  0.4514 -1.8310
 5954TIP3    H217827   4.153   2.368   2.360 -0.7205 -2.8632  1.6972
 5955TIP3   OH217828   3.826   3.056   1.171  0.8421  0.1017  0.7156
 5955TIP3    H117829   3.772   2.994   1.122 -0.4360  0.6954  1.3138
 5955TIP3    H217830   3.915   3.023   1.162  0.3033 -1.2871  0.2462
 5956TIP3   OH217831   1.529   1.294   3.269 -0.3564  0.1401  0.3613
 5956TIP3    H117832   1.571   1.373   3.236 -2.5502  0.6805 -1.3326
 5956TIP3    H217833   1.486   1.321   3.350  0.4642  0.1839  0.7918
 5957TIP3   OH217834   0.118   2.703   3.231 -0.2173 -0.2477 -0.0614
 5957TIP3    H117835   0.065   2.710   3.311 -1.6928  1.2314 -1.1004
 5957TIP3    H217836   0.072   2.640   3.176 -1.6431  1.8638 -1.4288
 5958TIP3   OH217837   1.863   1.707   1.602  0.3045 -0.0325 -0.2378
 5958TIP3    H117838   1.785   1.651   1.604 -1.0897  1.8470  0.4546
 5958TIP3    H217839   1.900   1.699   1.689  0.0387  0.2182 -0.1013
 5959TIP3   OH217840   6.335   6.399   2.992 -0.1517 -0.5792  0.1909
 5959TIP3    H117841   6.370   6.476   2.949 -0.1822  0.7793  2.4398
 5959TIP3    H217842   6.240   6.410   2.987 -0.3849 -2.6369 -3.0527
 5960TIP3   OH217843   6.299   0.097   0.686 -0.0944  0.2113 -0.5386
 5960TIP3    H117844   6.235   0.153   0.730  0.7771  1.5717 -0.9651
 5960TIP3    H217845   6.376   0.152   0.674  0.8289 -1.1015 -0.9103
 5961TIP3   OH217846   4.853   2.107   2.841  0.2334  0.2832  0.2044
 5961TIP3    H117847   4.782   2.105   2.905  0.9424  1.4006  1.0660
 5961TIP3    H217848   4.917   2.045   2.876  0.1880  0.1464  0.0459
 5962TIP3   OH217849   1.279   3.018   1.920 -0.2977 -0.0526  0.7030
 5962TIP3    H117850   1.329   3.027   2.002 -0.5097 -2.7759  1.2074
 5962TIP3    H217851   1.279   2.924   1.902  0.2542  0.4831 -2.7994
 5963TIP3   OH217852   4.191   4.088   2.005 -0.1443 -0.5421 -0.4569
 5963TIP3    H117853   4.170   4.016   2.065 -0.8421 -0.2076 -0.2874
 5963TIP3    H217854   4.132   4.075   1.930  0.4291 -0.7167 -0.8850
 5964TIP3   OH217855   3.776   3.676   0.478  1.0170  0.1831  0.2138
 5964TIP3    H117856   3.777   3.645   0.387 -0.8964  0.3837  0.0731
 5964TIP3    H217857   3.819   3.762   0.475 -0.4104  0.9089 -0.8363
 5965TIP3   OH217858   2.868   5.956   5.388 -0.2945 -0.1328 -0.3924
 5965TIP3    H117859   2.880   6.009   5.309  2.6155 -0.6526 -0.4274
 5965TIP3    H217860   2.905   5.870   5.364 -1.7174 -1.1024  0.7497
 5966TIP3   OH217861   3.414   1.881   1.840  0.1659  0.0023 -0.2884
 5966TIP3    H117862   3.337   1.857   1.891  0.6917 -1.4811 -0.1275
 5966TIP3    H217863   3.391   1.857   1.750  0.6005 -0.9090 -0.1668
 5967TIP3   OH217864   1.038   6.322   3.721  0.2772  0.3149 -0.0952
 5967TIP3    H117865   1.129   6.311   3.751  1.6939  0.9636 -3.6400
 5967TIP3    H217866   1.038   6.407   3.676 -2.1123  0.3162 -0.1990
 5968TIP3   OH217867   1.280   6.589   0.713 -0.4737 -0.1905 -0.1786
 5968TIP3    H117868   1.373   6.588   0.691 -0.4875  2.1482 -0.5636
 5968TIP3    H217869   1.269   6.667   0.767 -2.3872  0.1933 -1.0474
 5969TIP3   OH217870   5.568   4.051   5.733 -0.5435 -0.2109  0.9940
 5969TIP3    H117871   5.622   4.130   5.743  1.0112 -1.3498  2.0051
 5969TIP3    H217872   5.546   4.026   5.823 -2.8900  0.2496  0.6128
 5970TIP3   OH217873   1.538   3.789   0.050 -0.0318 -0.1554 -0.2814
 5970TIP3    H117874   1.620   3.740   0.057 -0.2274 -0.3038  1.5224
 5970TIP3    H217875   1.483   3.736  -0.008  0.5126 -0.9856 -0.0607
 5971TIP3   OH217876   3.289   1.387   5.171  0.2612  0.1171  0.2218
 5971TIP3    H117877   3.253   1.474   5.187  3.0400  1.2084  1.3655
 5971TIP3    H217878   3.293   1.347   5.258 -2.1613 -1.7851 -0.4238
 5972TIP3   OH217879   0.895   5.530   1.256  0.0107  0.4021  0.1235
 5972TIP3    H117880   0.844   5.567   1.328 -0.6124  0.4739 -0.3461
 5972TIP3    H217881   0.861   5.572   1.177 -0.7674 -1.1714 -0.4373
 5973TIP3   OH217882   3.844   0.890   2.702 -0.0271  0.0076  0.6839
 5973TIP3    H117883   3.773   0.910   2.763 -1.3365  0.4583 -0.9020
 5973TIP3    H217884   3.800   0.843   2.630  1.1289  1.0257 -0.7300
 5974TIP3   OH217885   0.403   6.726   4.582  0.5043  0.2345 -0.1678
 5974TIP3    H117886   0.483   6.772   4.609  0.2958  0.7205 -0.3644
 5974TIP3    H217887   0.338   6.752   4.647  0.5022 -0.1606 -0.0087
 5975TIP3   OH217888   4.506   1.457   4.272 -0.0755  0.2739 -0.1489
 5975TIP3    H117889   4.599   1.440   4.287 -0.5439 -0.6802  2.1392
 5975TIP3    H217890   4.483   1.401   4.197  0.9238 -0.4721  0.0796
 5976TIP3   OH217891   3.805   4.197   3.305  0.7906  0.3477  0.1824
 5976TIP3    H117892   3.889   4.192   3.259  0.0904 -1.1701 -1.0244
 5976TIP3    H217893   3.821   4.152   3.388  1.1796  0.0840 -0.0338
 5977TIP3   OH217894   3.946   1.684   4.113  0.3980  0.1603  0.4531
 5977TIP3    H117895   3.873   1.744   4.131 -0.9464 -1.7359  1.6564
 5977TIP3    H217896   3.944   1.671   4.018 -0.9754 -0.0081  0.4941
 5978TIP3   OH217897   6.253   1.019   2.938  0.1560 -0.2742  0.7199
 5978TIP3    H117898   6.311   0.953   2.975 -0.9931 -2.0288 -0.4247
 5978TIP3    H217899   6.167   0.999   2.976 -0.0160  1.3180  1.2354
 5979TIP3   OH217900   6.643   5.037   1.714 -0.0271 -0.5277  0.2600
 5979TIP3    H117901   6.716   5.044   1.653 -0.6772 -1.7954 -0.6999
 5979TIP3    H217902   6.572   4.997   1.663 -1.7376  1.5206  0.8712
 5980TIP3   OH217903   4.813   1.774   5.423 -0.0308  0.3840  0.1355
 5980TIP3    H117904   4.718   1.773   5.411  0.1493  1.0640 -1.5965
 5980TIP3    H217905   4.827   1.736   5.510 -1.8570 -0.0640  0.2620
 5981TIP3   OH217906   2.735   1.607   5.687  0.0479  0.0949  0.0719
 5981TIP3    H117907   2.727   1.519   5.648 -3.4455  0.3377 -0.0650
 5981TIP3    H217908   2.765   1.662   5.615  0.2952 -0.6245 -0.3902
 5982TIP3   OH217909   2.472   0.984   5.283 -0.3747 -0.3791  0.4401
 5982TIP3    H117910   2.518   0.999   5.366  2.2461 -0.8110 -0.8260
 5982TIP3    H217911   2.459   0.889   5.279 -0.3257 -0.3783  0.2627
 5983TIP3   OH217912   5.968   5.549   5.708 -0.0489  0.3683  0.1578
 5983TIP3    H117913   5.920   5.492   5.649 -0.5604  1.2074 -0.2569
 5983TIP3    H217914   5.913   5.627   5.717  1.1812  1.3355 -0.2918
 5984TIP3   OH217915   1.561   4.245   5.263 -0.3128  0.1816  0.3404
 5984TIP3    H117916   1.652   4.217   5.278 -0.0665  1.2843  0.9812
 5984TIP3    H217917   1.568   4.330   5.221 -1.0637  0.1411  0.1151
 5985TIP3   OH217918   0.393   0.127   5.796 -0.2579  0.3818 -0.7421
 5985TIP3    H117919   0.327   0.189   5.767 -0.9033 -0.9362 -2.2036
 5985TIP3    H217920   0.363   0.100   5.884 -0.0621  1.9534 -0.1696
 5986TIP3   OH217921   4.912   4.597   4.661 -0.2809 -0.1123 -0.2027
 5986TIP3    H117922   4.855   4.521   4.671 -1.4141  0.9044  1.5550
 5986TIP3    H217923   4.853   4.668   4.637  0.2253  0.9077  1.4020
 5987TIP3   OH217924   0.849   3.507   1.752  0.2976  0.2276 -0.0820
 5987TIP3    H117925   0.907   3.462   1.813  0.0531 -0.0358 -0.0385
 5987TIP3    H217926   0.822   3.587   1.798 -0.3094 -0.2311  0.3772
 5988TIP3   OH217927   6.545   4.584   5.574 -0.2768 -0.9795  0.3403
 5988TIP3    H117928   6.516   4.537   5.495  1.5122 -0.3852 -0.7166
 5988TIP3    H217929   6.557   4.674   5.545 -2.4670 -0.0325  2.0580
 5989TIP3   OH217930   6.873   5.433   0.164  0.0088 -0.1659  0.0162
 5989TIP3    H117931   6.895   5.341   0.174 -2.0522 -0.5971  1.2180
 5989TIP3    H217932   6.783   5.433   0.132  0.0798  1.4248 -0.2651
 5990TIP3   OH217933   5.967   1.710   5.257 -0.7959  0.6778 -0.1954
 5990TIP3    H117934   5.968   1.727   5.162 -0.3300  0.1381 -0.2946
 5990TIP3    H217935   5.891   1.758   5.289 -1.2185  0.5114 -0.9170
 5991TIP3   OH217936   2.837   3.424   0.503  0.3414 -0.3963 -0.1601
 5991TIP3    H117937   2.776   3.425   0.576  1.6315 -0.3608  0.9418
 5991TIP3    H217938   2.805   3.492   0.444 -0.6238 -0.3320  0.4230
 5992TIP3   OH217939   6.914   2.383   2.939  0.1131  0.4769 -0.1259
 5992TIP3    H117940   6.920   2.334   3.021  1.6608  0.3582 -0.2852
 5992TIP3    H217941   6.838   2.441   2.951 -1.5955 -1.6907  0.1910
 5993TIP3   OH217942   4.723   1.947   2.158  0.4572 -0.0958  0.3181
 5993TIP3    H117943   4.739   2.040   2.148 -0.4166  0.1347  1.0163
 5993TIP3    H217944   4.747   1.927   2.248  1.2062 -0.6743  0.0028
 5994TIP3   OH217945   4.752   3.303   1.553 -0.2338  0.1523 -0.4572
 5994TIP3    H117946   4.805   3.371   1.511  0.7894 -1.2936 -1.6005
 5994TIP3    H217947   4.679   3.290   1.493  0.5718 -1.0507 -1.1994
 5995TIP3   OH217948   6.645   4.564   3.059  0.0888  0.2700  0.7512
 5995TIP3    H117949   6.741   4.568   3.056  0.0667  0.9114  0.6448
 5995TIP3    H217950   6.622   4.489   3.004  0.6217 -1.3946  2.6676
 5996TIP3   OH217951   1.151   6.517   4.944 -0.4679 -0.2031 -0.0850
 5996TIP3    H117952   1.136   6.507   5.038  3.4185 -2.5165  0.5165
 5996TIP3    H217953   1.195   6.602   4.936  0.5807 -0.6668  0.4824
 5997TIP3   OH217954   3.247   3.620   5.468  0.1256 -0.1580 -0.1350
 5997TIP3    H117955   3.158   3.649   5.491  0.9748  0.9867  1.9310
 5997TIP3    H217956   3.268   3.553   5.532  1.1760  0.4409  0.1690
 5998TIP3   OH217957   5.235   4.814   4.491 -0.1785  0.1293  0.1095
 5998TIP3    H117958   5.319   4.859   4.501  1.3025 -1.6736 -2.8674
 5998TIP3    H217959   5.233   4.749   4.562  1.2221 -0.1729 -0.1085
 5999TIP3   OH217960   2.563   4.891   2.214 -0.2186  0.3317 -0.4104
 5999TIP3    H117961   2.649   4.855   2.231 -0.6565 -0.0497  1.1084
 5999TIP3    H217962   2.541   4.861   2.125  1.7646  1.6098 -1.4032
 6000TIP3   OH217963   1.492   5.533   0.735 -0.4771  0.3926  0.1039
 6000TIP3    H117964   1.402   5.508   0.714  0.0255 -0.7929 -0.7942
 6000TIP3    H217965   1.512   5.482   0.814 -0.5222  0.4856  0.1752
 6001TIP3   OH217966   3.584   3.958   1.829 -0.8074 -0.3328 -0.1053
 6001TIP3    H117967   3.548   3.870   1.818  0.9333 -1.1998  0.8420
 6001TIP3    H217968   3.678   3.948   1.819 -0.6829  1.7389 -1.6839
 6002TIP3   OH217969   3.071   2.689   0.555 -0.7425 -0.3994  0.4052
 6002TIP3    H117970   3.101   2.745   0.484 -1.3539 -2.3681 -1.5327
 6002TIP3    H217971   3.038   2.749   0.622  2.6915  1.6660  0.4496
 6003TIP3   OH217972   1.293   3.084   5.896  0.0831 -0.2624  0.8442
 6003TIP3    H117973   1.251   3.079   5.810 -0.0294  1.0362  0.8054
 6003TIP3    H217974   1.385   3.066   5.878  0.5273  2.4596  0.0091
 6004TIP3   OH217975   1.488   5.593   1.184  0.3803 -0.1034  0.0780
 6004TIP3    H117976   1.493   5.684   1.215  0.7407 -0.1405  0.1328
 6004TIP3    H217977   1.426   5.551   1.244  1.1506 -0.1984  0.8194
 6005TIP3   OH217978   3.460   6.164   0.170 -0.3108 -0.2993 -0.7136
 6005TIP3    H117979   3.532   6.161   0.234 -0.1623  2.2995 -0.6699
 6005TIP3    H217980   3.502   6.140   0.087  0.4720  0.4736 -0.5602
 6006TIP3   OH217981   2.984   3.194   0.199  0.0593  0.6457  0.2137
 6006TIP3    H117982   2.984   3.169   0.291  1.3970 -0.6583 -0.1002
 6006TIP3    H217983   3.060   3.252   0.190  0.0572  0.5996 -0.1063
 6007TIP3   OH217984   6.001   5.164   1.745  0.3326  0.7749 -0.1507
 6007TIP3    H117985   6.022   5.070   1.743  1.6997  1.0112 -3.4172
 6007TIP3    H217986   5.920   5.171   1.695 -0.4339  1.2524  1.1333
 6008TIP3   OH217987   0.590   3.072   2.238  0.1251  0.0786 -0.1262
 6008TIP3    H117988   0.589   2.977   2.249  0.9001 -0.1532 -1.7402
 6008TIP3    H217989   0.676   3.100   2.269 -0.5733  0.4489  1.5544
 6009TIP3   OH217990   2.919   3.850   1.502 -0.5590 -0.2439  0.3852
 6009TIP3    H117991   2.895   3.939   1.530 -1.2712 -0.3807  0.2473
 6009TIP3    H217992   2.994   3.827   1.556  2.0592  1.8284 -2.0474
 6010TIP3   OH217993   5.632   1.149   3.335 -0.1409  0.1970  0.1166
 6010TIP3    H117994   5.686   1.082   3.292 -1.2065  0.1412 -1.2360
 6010TIP3    H217995   5.667   1.156   3.423  1.4034 -0.5621 -0.3987
 6011TIP3   OH217996   7.033   3.733   1.453  0.0497 -0.0765 -0.5910
 6011TIP3    H117997   6.970   3.722   1.524  1.0778  1.9777  0.7312
 6011TIP3    H217998   6.979   3.741   1.374 -1.2026 -0.8245  0.1609
 6012TIP3   OH217999   0.712   5.862   3.937  0.5442  0.2762 -0.2177
 6012TIP3    H118000   0.693   5.894   4.025 -2.0922 -1.3880 -0.0851
 6012TIP3    H218001   0.663   5.920   3.879 -0.0485 -0.3475 -0.3527
 6013TIP3   OH218002   4.416   1.893   3.717 -0.0284 -0.2149  0.1419
 6013TIP3    H118003   4.339   1.898   3.775  0.7006 -0.0799  1.1238
 6013TIP3    H218004   4.432   1.799   3.708 -1.3406 -0.3272 -1.5076
 6014TIP3   OH218005   5.151   2.409   5.121 -0.6161 -0.0890 -0.3164
 6014TIP3    H118006   5.212   2.357   5.174  1.8400  1.5745 -1.3008
 6014TIP3    H218007   5.197   2.421   5.038 -1.1218  3.3283 -0.2515
 6015TIP3   OH218008   1.386   4.958   1.483 -0.4406 -1.2724  0.5309
 6015TIP3    H118009   1.419   4.990   1.567  0.6000 -0.3997 -0.1968
 6015TIP3    H218010   1.292   4.948   1.498 -0.1271 -2.1837  2.1256
 6016TIP3   OH218011   1.717   1.939   0.414  0.3360 -0.0169  0.0681
 6016TIP3    H118012   1.644   1.931   0.476  0.8972 -0.4176  0.6943
 6016TIP3    H218013   1.685   1.998   0.346 -0.7947 -0.6613  0.0114
 6017TIP3   OH218014   4.780   0.865   0.471 -0.0289  0.1159 -0.1166
 6017TIP3    H118015   4.854   0.918   0.498 -0.9696  1.0833  0.6499
 6017TIP3    H218016   4.797   0.844   0.379  0.9332  0.7522 -0.0942
 6018TIP3   OH218017   4.112   1.103   4.104  0.3022  0.5400 -0.1808
 6018TIP3    H118018   4.060   1.046   4.161 -0.3541  0.4026 -0.8967
 6018TIP3    H218019   4.114   1.187   4.148  3.1123 -0.5219  2.0124
 6019TIP3   OH218020   3.721   6.713   4.769  0.2027  0.3057 -0.5582
 6019TIP3    H118021   3.764   6.677   4.846  2.1605  1.2477 -1.1544
 6019TIP3    H218022   3.696   6.802   4.794 -1.6563 -0.2726 -0.1657
 6020TIP3   OH218023   2.138   0.346   1.199  0.5071  0.2691 -0.0262
 6020TIP3    H118024   2.058   0.341   1.147 -0.1058 -0.4659  0.9297
 6020TIP3    H218025   2.153   0.256   1.227  0.6094  0.6826  1.3339
 6021TIP3   OH218026   0.535   2.925   3.894 -0.0657 -0.2115 -0.7759
 6021TIP3    H118027   0.491   2.936   3.978  0.2685 -0.4849 -0.5585
 6021TIP3    H218028   0.628   2.928   3.915  0.0379  1.0412 -1.3197
 6022TIP3   OH218029   2.808   2.764   1.536  0.6482 -0.1623 -0.9943
 6022TIP3    H118030   2.725   2.771   1.488  0.1444 -1.7848 -0.3991
 6022TIP3    H218031   2.783   2.741   1.625  1.7582 -1.1604 -0.9225
 6023TIP3   OH218032   5.912   3.943   3.998  0.8363 -0.1980  0.1815
 6023TIP3    H118033   5.905   3.865   3.942 -0.0613 -0.8175  1.1098
 6023TIP3    H218034   5.948   4.011   3.940 -0.7178 -0.6075 -1.3649
 6024TIP3   OH218035   2.117   0.518   4.381 -0.5840  0.3338 -0.4558
 6024TIP3    H118036   2.148   0.479   4.300 -0.7364 -1.1761  0.1841
 6024TIP3    H218037   2.189   0.506   4.443 -2.0238 -2.5373  0.8291
 6025TIP3   OH218038   3.172   4.276   0.940 -0.3649 -0.0362  0.6578
 6025TIP3    H118039   3.137   4.302   0.855 -1.1775 -0.0041  0.9859
 6025TIP3    H218040   3.238   4.210   0.921 -0.1720  0.3527 -0.0261
 6026TIP3   OH218041   3.754   3.783   4.714 -0.2340  0.2646  0.4401
 6026TIP3    H118042   3.758   3.777   4.619 -0.2056  0.7945  0.4011
 6026TIP3    H218043   3.753   3.877   4.732  1.4238  0.2029  1.0366
 6027TIP3   OH218044   6.794   1.599   4.994  0.0815 -0.2184  0.1913
 6027TIP3    H118045   6.811   1.507   5.011 -2.5613 -0.4474  2.3973
 6027TIP3    H218046   6.867   1.645   5.036  0.0126 -1.2566  1.5041
 6028TIP3   OH218047   6.868   1.240   2.840  0.3571  0.1462 -0.1568
 6028TIP3    H118048   6.918   1.166   2.873  1.4084  1.2435  0.8363
 6028TIP3    H218049   6.783   1.204   2.816  0.7653 -1.3231  0.5219
 6029TIP3   OH218050   6.077   5.730   1.605  0.3623  0.3171  0.2360
 6029TIP3    H118051   6.109   5.662   1.664  1.0168  0.8464  0.5094
 6029TIP3    H218052   6.017   5.782   1.658  0.0823  0.1290  0.1079
 6030TIP3   OH218053   4.963   5.609   1.121 -0.7039 -0.0879  0.1957
 6030TIP3    H118054   5.044   5.653   1.147 -1.5493  0.7250  1.5490
 6030TIP3    H218055   4.957   5.533   1.179 -0.8346 -0.2532 -0.0302
 6031TIP3   OH218056   6.367   4.412   2.087  0.5771  0.1932 -0.3361
 6031TIP3    H118057   6.332   4.441   2.171  0.9805 -0.2112 -0.0245
 6031TIP3    H218058   6.440   4.471   2.070  0.3147  0.4569 -0.5398
 6032TIP3   OH218059   3.099   0.456   4.990  0.1401  0.3139  0.2608
 6032TIP3    H118060   3.142   0.375   4.963  1.1176  1.0078 -0.3414
 6032TIP3    H218061   3.060   0.435   5.075  0.5044 -0.7366  0.1861
 6033TIP3   OH218062   7.016   2.633   0.528  0.2560  0.4616 -0.2055
 6033TIP3    H118063   6.938   2.687   0.535  0.8931  1.3861  0.0652
 6033TIP3    H218064   6.984   2.546   0.504 -0.8384  0.8313 -0.1321
 6034TIP3   OH218065   6.834   1.647   1.443  0.4479  0.5319  0.1470
 6034TIP3    H118066   6.894   1.691   1.503 -0.0404  1.6829 -0.1837
 6034TIP3    H218067   6.828   1.706   1.368 -2.2315  1.2146  0.7963
 6035TIP3   OH218068   3.856   3.749   5.037 -0.1998 -0.1191 -0.6740
 6035TIP3    H118069   3.817   3.833   5.014  0.0314 -0.4623 -2.4467
 6035TIP3    H218070   3.950   3.766   5.041 -0.3056  0.3053  1.8453
 6036TIP3   OH218071   6.163   2.533   3.145 -0.0352  0.1261  0.1030
 6036TIP3    H118072   6.132   2.478   3.217 -1.6840  0.3862 -0.3577
 6036TIP3    H218073   6.084   2.573   3.110  0.6886 -0.1132 -1.9653
 6037TIP3   OH218074   6.127   0.456   2.522  0.0095  0.4186  0.0054
 6037TIP3    H118075   6.109   0.388   2.456  0.2006 -0.0566  0.4392
 6037TIP3    H218076   6.218   0.442   2.548  0.4027  1.5496 -0.7044
 6038TIP3   OH218077   0.039   3.240   1.285 -0.6302  0.3716 -0.2596
 6038TIP3    H118078  -0.018   3.308   1.321 -1.6462  0.0972 -1.2797
 6038TIP3    H218079   0.120   3.247   1.335 -0.8913  2.0069 -0.0241
 6039TIP3   OH218080   1.523   5.282   5.680 -0.6176  0.5970 -0.0467
 6039TIP3    H118081   1.569   5.342   5.622  0.8659 -1.5040 -1.1670
 6039TIP3    H218082   1.432   5.288   5.652 -0.2742  1.2366 -1.1058
 6040TIP3   OH218083   6.053   6.777   4.612  0.3470 -0.5047 -0.2690
 6040TIP3    H118084   6.135   6.807   4.574  0.3519 -1.1094 -0.7337
 6040TIP3    H218085   6.076   6.700   4.664  0.2836  0.1002  0.6855
 6041TIP3   OH218086   2.215   0.806   2.579 -0.3179 -0.1205 -0.2332
 6041TIP3    H118087   2.169   0.865   2.519 -1.4701 -1.6295 -0.9126
 6041TIP3    H218088   2.307   0.832   2.572 -0.6104  0.6848 -1.5639
 6042TIP3   OH218089   0.896   2.032   4.641  0.2470 -0.1425 -0.1288
 6042TIP3    H118090   0.802   2.051   4.645  0.0297 -1.3257  0.6604
 6042TIP3    H218091   0.904   1.943   4.674  1.5463 -0.4238 -1.1537
 6043TIP3   OH218092   3.702   0.772   2.480 -0.2027 -0.0432  0.3523
 6043TIP3    H118093   3.759   0.700   2.452  0.6153  0.0870  1.5964
 6043TIP3    H218094   3.642   0.785   2.406  2.1710  0.6627 -1.5607
 6044TIP3   OH218095   5.293   1.223  -0.015 -0.5150 -0.3084  0.1435
 6044TIP3    H118096   5.199   1.205  -0.016 -0.4087 -1.0447  1.3746
 6044TIP3    H218097   5.315   1.226   0.078  1.1550 -2.8194 -0.0698
 6045TIP3   OH218098   3.148   4.936   0.656  0.4901 -0.4939  0.5092
 6045TIP3    H118099   3.182   4.981   0.733 -0.9695 -0.9245  1.4490
 6045TIP3    H218100   3.088   4.870   0.692 -0.6909 -0.3000 -1.0081
 6046TIP3   OH218101   6.039   0.440   4.137  0.1384 -0.2272  0.0343
 6046TIP3    H118102   6.072   0.510   4.193  0.7472 -0.8196  0.4356
 6046TIP3    H218103   6.052   0.360   4.189  0.4638 -0.7549 -0.8438
 6047TIP3   OH218104   0.376   1.259   3.053 -0.0031 -0.2316 -0.2129
 6047TIP3    H118105   0.406   1.310   3.129 -0.0920  0.2574 -0.5007
 6047TIP3    H218106   0.333   1.183   3.091 -0.5742  0.3099  0.2406
 6048TIP3   OH218107   4.694   4.862   3.834 -0.2227  0.2707  0.3838
 6048TIP3    H118108   4.603   4.840   3.853 -0.2685 -1.4111 -1.4482
 6048TIP3    H218109   4.740   4.849   3.917 -1.3654 -0.5174  0.9190
 6049TIP3   OH218110   6.432   4.761   3.541 -0.2574  0.9939 -0.6467
 6049TIP3    H118111   6.517   4.749   3.499  0.4851 -2.0105  1.4354
 6049TIP3    H218112   6.432   4.699   3.614 -3.8397  1.6208  0.0609
 6050TIP3   OH218113   4.441   2.675   1.393  0.7374 -0.3797  0.7349
 6050TIP3    H118114   4.458   2.763   1.360 -0.1199 -0.2221  0.6769
 6050TIP3    H218115   4.467   2.678   1.485  0.5964 -0.0236  0.7659
 6051TIP3   OH218116   2.538   6.079   2.831 -0.5985 -0.3225  0.0245
 6051TIP3    H118117   2.449   6.044   2.832  0.0006 -1.9397 -0.5964
 6051TIP3    H218118   2.592   6.009   2.795  0.9537  0.6059  0.4156
 6052TIP3   OH218119   2.637   4.825   1.264 -0.9353 -0.0580  0.1255
 6052TIP3    H118120   2.544   4.809   1.251 -0.2786 -2.6827 -2.3422
 6052TIP3    H218121   2.662   4.882   1.191 -0.6615  1.1542  1.1247
 6053TIP3   OH218122   5.881   1.735   2.811 -0.2434  0.0889 -1.1480
 6053TIP3    H118123   5.932   1.781   2.744 -0.8095 -0.2549 -1.8324
 6053TIP3    H218124   5.935   1.740   2.890  1.1945 -0.8839 -2.0214
 6054TIP3   OH218125   5.527   3.347   0.045 -0.2746 -0.3704  0.3549
 6054TIP3    H118126   5.521   3.301  -0.039  1.3810 -0.8051  0.4359
 6054TIP3    H218127   5.592   3.416   0.030  0.7586 -1.0492  1.5005
 6055TIP3   OH218128   0.808   2.527   4.585  0.2251 -0.2503  0.1946
 6055TIP3    H118129   0.779   2.472   4.512 -0.7208  0.2867  0.1447
 6055TIP3    H218130   0.832   2.610   4.544 -0.8357  0.2458  0.5193
 6056TIP3   OH218131   4.297   3.119   4.606  0.2540  0.1188 -0.0276
 6056TIP3    H118132   4.251   3.041   4.638 -0.7220  0.7232  0.0831
 6056TIP3    H218133   4.296   3.179   4.681 -1.0088  1.0927 -0.7842
 6057TIP3   OH218134   2.542   5.180   1.233 -0.4907  0.1319  0.3127
 6057TIP3    H118135   2.565   5.271   1.255 -0.3593  0.0353  0.5794
 6057TIP3    H218136   2.494   5.149   1.309  1.5201 -0.7902  1.2786
 6058TIP3   OH218137   0.742   1.184   4.556 -0.4946 -0.6761 -0.7983
 6058TIP3    H118138   0.762   1.276   4.537 -1.3304 -0.5519 -1.1797
 6058TIP3    H218139   0.800   1.135   4.499  0.2659 -0.3944 -0.2734
 6059TIP3   OH218140   2.393   0.609   2.057  0.2162 -0.5150 -0.7764
 6059TIP3    H118141   2.476   0.657   2.063 -0.0096 -0.2939  1.5103
 6059TIP3    H218142   2.389   0.558   2.138 -2.1104 -0.1296 -0.5800
 6060TIP3   OH218143   3.938   3.468   0.577 -0.6355 -0.2256  0.1494
 6060TIP3    H118144   3.878   3.497   0.508  0.0530 -0.3313 -0.5091
 6060TIP3    H218145   4.018   3.443   0.530  1.0634  2.7519  1.1881
 6061TIP3   OH218146   2.926   0.082   0.990 -0.0582 -0.1200  0.2011
 6061TIP3    H118147   3.016   0.075   1.023  0.3418 -1.2036 -1.0089
 6061TIP3    H218148   2.935   0.069   0.895 -1.4311  0.3514 -0.0091
 6062TIP3   OH218149   6.604   0.473   1.600 -0.4349  0.3767  0.2455
 6062TIP3    H118150   6.564   0.554   1.633  0.5781  1.8614 -1.8815
 6062TIP3    H218151   6.535   0.432   1.548 -0.8860 -0.0457  1.1562
 6063TIP3   OH218152   3.659   0.099   5.209  0.1369  0.7193  0.2498
 6063TIP3    H118153   3.750   0.084   5.236  0.7130  3.2056 -0.0405
 6063TIP3    H218154   3.608   0.092   5.290  0.9408  1.6458  0.8640
 6064TIP3   OH218155   1.174   2.978   4.668  0.3761 -0.1565 -0.4089
 6064TIP3    H118156   1.175   2.919   4.592 -1.0630 -1.7882  0.7617
 6064TIP3    H218157   1.260   2.966   4.708 -0.1254 -2.0453  0.1927
 6065TIP3   OH218158   5.644   1.106   4.257 -0.1688  0.3806 -0.2191
 6065TIP3    H118159   5.649   1.021   4.301  0.9748  1.3172  1.6005
 6065TIP3    H218160   5.560   1.104   4.210 -1.1628 -0.9675  1.4945
 6066TIP3   OH218161   2.611   1.778   4.963 -0.1212 -0.4320 -0.0519
 6066TIP3    H118162   2.558   1.758   5.040  0.6937 -1.8895  0.1651
 6066TIP3    H218163   2.547   1.792   4.893 -0.8393  0.1102  0.6945
 6067TIP3   OH218164   6.727   1.898   0.739  0.2989  0.1441 -0.1400
 6067TIP3    H118165   6.740   1.921   0.831  0.1034  2.5827 -0.6559
 6067TIP3    H218166   6.767   1.811   0.731 -0.7806 -0.7178  2.4895
 6068TIP3   OH218167   4.598   1.251   1.456  0.2291 -0.3290  0.2030
 6068TIP3    H118168   4.522   1.292   1.496  0.1902  1.4744 -1.5793
 6068TIP3    H218169   4.641   1.321   1.408  2.3692 -1.5662  0.1621
 6069TIP3   OH218170   6.150   4.061   3.880  0.4041  0.2959  0.4528
 6069TIP3    H118171   6.159   4.100   3.793 -0.2099 -1.7112 -0.5679
 6069TIP3    H218172   6.218   4.103   3.932  1.2811  1.0180 -1.1958
 6070TIP3   OH218173   0.581   5.780   0.224  0.3549 -0.2191  0.9363
 6070TIP3    H118174   0.671   5.751   0.235  0.3895 -1.0979 -1.2002
 6070TIP3    H218175   0.583   5.842   0.151 -0.9417 -1.5836 -0.3571
 6071TIP3   OH218176   0.137   5.573   0.118 -0.0956 -0.6682  0.1985
 6071TIP3    H118177   0.147   5.566   0.023 -0.0444  2.1897 -0.0670
 6071TIP3    H218178   0.044   5.552   0.133 -0.6596  0.9457 -0.7742
 6072TIP3   OH218179   3.763   0.654   3.252  0.4743  0.0934  0.2483
 6072TIP3    H118180   3.677   0.678   3.286  0.9426  2.9752 -0.3290
 6072TIP3    H218181   3.815   0.635   3.330 -0.2992 -0.2491  0.6911
 6073TIP3   OH218182   0.412   3.316   1.672 -0.4371 -0.2320  1.2696
 6073TIP3    H118183   0.407   3.303   1.577  2.3121 -1.5172  1.2268
 6073TIP3    H218184   0.396   3.410   1.683  2.2868  0.6121 -0.8389
 6074TIP3   OH218185   4.694   6.705   1.164  0.0759 -0.5667  0.6714
 6074TIP3    H118186   4.639   6.656   1.225  0.3848 -0.5693  0.9507
 6074TIP3    H218187   4.764   6.741   1.218 -0.6833  1.0204  0.6429
 6075TIP3   OH218188   5.248   5.978   5.150 -0.2671  0.8873  0.1907
 6075TIP3    H118189   5.257   5.953   5.242 -0.1436  0.5914  0.1011
 6075TIP3    H218190   5.312   5.924   5.104 -0.3345  1.0269 -0.0690
 6076TIP3   OH218191   4.677   4.974   2.366  0.1855 -0.2228  0.6085
 6076TIP3    H118192   4.725   4.992   2.447  2.4060 -1.5187 -0.3016
 6076TIP3    H218193   4.705   4.886   2.342 -0.2757  0.1958 -1.6479
 6077TIP3   OH218194   0.082   0.782   2.977  0.3570  0.2140 -0.2083
 6077TIP3    H118195  -0.007   0.766   2.948 -0.0119  0.4112  0.7846
 6077TIP3    H218196   0.077   0.863   3.028  1.3130  0.8617 -1.0787
 6078TIP3   OH218197   1.207   5.520   2.559  0.0701 -0.0737  0.5176
 6078TIP3    H118198   1.275   5.585   2.575 -0.3920  0.3657  0.7149
 6078TIP3    H218199   1.126   5.571   2.550 -0.1821 -0.5573 -0.0671
 6079TIP3   OH218200   3.563   6.769   0.013  0.0075  0.1197 -0.5209
 6079TIP3    H118201   3.540   6.776   0.105  0.2723 -0.1923 -0.4290
 6079TIP3    H218202   3.651   6.730   0.013 -0.6815 -1.5172 -0.9462
 6080TIP3   OH218203   2.263   5.460   3.444 -0.6204  0.0862 -0.4813
 6080TIP3    H118204   2.254   5.365   3.435  0.9950 -0.2179  0.5991
 6080TIP3    H218205   2.298   5.489   3.359  0.9218 -0.6351 -0.1312
 6081TIP3   OH218206   2.644   1.508   0.278  0.5867 -0.1536 -0.5355
 6081TIP3    H118207   2.659   1.439   0.342 -0.0267  0.0518 -0.1635
 6081TIP3    H218208   2.549   1.512   0.268  0.6779 -0.3804 -1.6783
 6082TIP3   OH218209   1.329   6.197   4.434 -0.4461  0.8096 -0.3676
 6082TIP3    H118210   1.378   6.120   4.462 -0.3436  0.9610 -0.1294
 6082TIP3    H218211   1.342   6.261   4.504  1.2453  1.8237 -1.5288
 6083TIP3   OH218212   5.654   0.971   0.399 -0.3349  0.2471 -0.4278
 6083TIP3    H118213   5.697   0.992   0.482 -1.0298 -0.2493  0.0671
 6083TIP3    H218214   5.624   1.056   0.365 -0.4037  0.4020  0.0198
 6084TIP3   OH218215   1.413   4.684   4.872  0.4015 -0.1208  0.0959
 6084TIP3    H118216   1.465   4.603   4.874 -0.7777 -0.9315 -0.6409
 6084TIP3    H218217   1.458   4.743   4.933  1.4260 -1.2359  0.4669
 6085TIP3   OH218218   2.456   3.018   0.102  0.5779 -0.1178  0.1690
 6085TIP3    H118219   2.455   3.051   0.012 -1.5972 -0.1917  0.1042
 6085TIP3    H218220   2.502   2.935   0.097 -1.5606 -1.2929 -1.3920
 6086TIP3   OH218221   3.570   0.315   3.827 -0.1311  0.0468 -0.2373
 6086TIP3    H118222   3.523   0.265   3.761 -1.4460  0.1799  0.5625
 6086TIP3    H218223   3.608   0.389   3.779 -3.1487  1.5577 -0.5322
 6087TIP3   OH218224   0.484   1.094   4.218 -0.2231  0.6210  0.6051
 6087TIP3    H118225   0.565   1.096   4.166 -0.4718  0.9109  0.2246
 6087TIP3    H218226   0.496   1.020   4.278  0.3952  0.7638  0.6638
 6088TIP3   OH218227   1.821   1.418   5.284  0.1735 -0.5334  0.8246
 6088TIP3    H118228   1.746   1.360   5.293  0.7694 -1.5147 -0.3455
 6088TIP3    H218229   1.818   1.448   5.194 -1.1210  2.7343  1.8203
 6089TIP3   OH218230  -0.017   0.992   3.151 -0.2382 -0.1915 -0.2690
 6089TIP3    H118231  -0.051   0.935   3.221 -1.2840 -0.6230 -1.1182
 6089TIP3    H218232   0.073   1.010   3.179 -0.1128 -1.6498  0.4133
 6090TIP3   OH218233   2.973   6.065   3.592 -0.2856 -0.2898 -0.0373
 6090TIP3    H118234   3.058   6.043   3.555  0.0451  1.0181 -0.1001
 6090TIP3    H218235   2.910   6.039   3.525  0.2223  0.8340 -0.9713
 6091TIP3   OH218236   1.175   2.063   2.964  0.3520 -0.0680  0.8574
 6091TIP3    H118237   1.102   2.121   2.984  0.4835  0.5280 -0.2910
 6091TIP3    H218238   1.253   2.118   2.975  0.4842 -0.0317 -0.1068
 6092TIP3   OH218239   0.857   0.454   2.679  0.3815 -0.6241 -0.3123
 6092TIP3    H118240   0.843   0.521   2.612 -0.7564 -0.9761 -0.4575
 6092TIP3    H218241   0.843   0.371   2.632  1.4858 -0.9681 -0.0709
 6093TIP3   OH218242   3.437   3.505   1.199  0.0043  0.0090 -0.5243
 6093TIP3    H118243   3.494   3.519   1.124 -1.3652  2.2294 -1.2382
 6093TIP3    H218244   3.422   3.410   1.200  3.9776 -0.7679  0.0342
 6094TIP3   OH218245   1.124   2.681   5.807  0.7534 -0.0810 -0.3453
 6094TIP3    H118246   1.185   2.611   5.832  1.0636  0.6072  0.9188
 6094TIP3    H218247   1.116   2.673   5.712  2.3323 -0.5814 -0.4675
 6095TIP3   OH218248   1.609   5.472   4.012  0.4783 -0.4311 -0.4461
 6095TIP3    H118249   1.588   5.388   3.972  0.4797 -0.1871 -0.9714
 6095TIP3    H218250   1.527   5.520   4.014  0.0039 -1.2127  1.8052
 6096TIP3   OH218251   1.093   4.963   1.489  0.0518  0.1107 -0.2634
 6096TIP3    H118252   1.049   4.884   1.523  0.2960 -1.0239 -2.3909
 6096TIP3    H218253   1.025   5.030   1.489 -0.9003 -0.8248 -0.8167
 6097TIP3   OH218254   4.887   3.303   0.455  0.3053 -0.0753  0.3669
 6097TIP3    H118255   4.949   3.275   0.522  0.0466 -0.8818  0.2837
 6097TIP3    H218256   4.941   3.350   0.391  0.6058  0.4031  0.9605
 6098TIP3   OH218257   5.820   0.059   4.703  0.5182 -0.0424 -0.2102
 6098TIP3    H118258   5.871  -0.015   4.670  1.2016  0.0196  0.6526
 6098TIP3    H218259   5.879   0.103   4.764 -0.7587 -0.3186  1.2909
 6099TIP3   OH218260   0.724   6.283   4.326 -0.1868  0.4092  0.3408
 6099TIP3    H118261   0.819   6.287   4.316 -0.1834  2.8460  0.6571
 6099TIP3    H218262   0.690   6.295   4.237 -0.2174 -0.0073  0.2925
 6100TIP3   OH218263   3.856   1.972   3.556 -0.7466 -0.0370  0.2811
 6100TIP3    H118264   3.932   1.943   3.507  0.1686  1.9553  0.4410
 6100TIP3    H218265   3.858   1.920   3.637  0.3575 -0.0947  0.2235
 6101TIP3   OH218266   0.321   4.253   0.401  0.1143  0.0192  0.0438
 6101TIP3    H118267   0.322   4.297   0.316 -2.4227  1.4689  0.6773
 6101TIP3    H218268   0.290   4.319   0.462 -1.4333 -1.9178  1.4833
 6102TIP3   OH218269   5.870   3.455   2.862  0.1990  0.4028 -0.5103
 6102TIP3    H118270   5.930   3.490   2.928  0.5054 -0.6798 -0.1960
 6102TIP3    H218271   5.911   3.476   2.778  0.8223  0.0152 -0.3048
 6103TIP3   OH218272   0.694   3.073   1.897  0.0748 -0.3149  0.4628
 6103TIP3    H118273   0.672   3.166   1.904 -2.2176 -0.5510 -1.9824
 6103TIP3    H218274   0.651   3.032   1.971  3.1330  0.7206  3.0290
 6104TIP3   OH218275   5.332   4.108   4.087 -0.2342  0.2852 -0.0751
 6104TIP3    H118276   5.303   4.122   4.177 -1.4883 -0.8224 -0.2756
 6104TIP3    H218277   5.254   4.076   4.042  0.9311 -1.3566 -1.0004
 6105TIP3   OH218278   7.232   3.831   3.768  0.5850 -0.1257 -0.2711
 6105TIP3    H118279   7.185   3.910   3.793  1.5977 -0.4505  3.3069
 6105TIP3    H218280   7.173   3.786   3.708 -1.7005  1.5345  0.5626
 6106TIP3   OH218281   3.121   3.914   2.223 -0.4413 -0.0574 -0.1769
 6106TIP3    H118282   3.078   3.830   2.239  2.7681 -1.8825 -0.2334
 6106TIP3    H218283   3.095   3.939   2.135 -0.3551 -1.7898 -0.7257
 6107TIP3   OH218284   5.328   3.316   0.234  0.0243 -0.0954 -0.8804
 6107TIP3    H118285   5.246   3.364   0.223  1.6881  3.1365 -0.6311
 6107TIP3    H218286   5.379   3.338   0.156  1.1992 -0.7392 -0.3169
 6108TIP3   OH218287   3.110   3.854   0.683 -0.2696 -0.1965 -0.2481
 6108TIP3    H118288   3.186   3.806   0.650  0.7859  0.3196  1.2711
 6108TIP3    H218289   3.100   3.823   0.773 -0.3558  1.4455  0.3402
 6109TIP3   OH218290   4.615   5.225   3.110 -0.2227  0.1134 -0.5284
 6109TIP3    H118291   4.698   5.251   3.069 -0.9610  1.4024 -1.2622
 6109TIP3    H218292   4.635   5.221   3.204  0.3145  1.9594 -0.5294
 6110TIP3   OH218293   3.951   2.340   0.940 -0.1066  0.0349  0.6436
 6110TIP3    H118294   4.024   2.292   0.979  0.1628  0.6358  0.8841
 6110TIP3    H218295   3.901   2.372   1.015  0.2867  1.0006  0.5092
 6111TIP3   OH218296   1.101   3.358   5.110 -0.0979 -0.0222 -0.1462
 6111TIP3    H118297   1.180   3.373   5.058 -0.2846 -0.1309 -0.4624
 6111TIP3    H218298   1.119   3.401   5.193 -0.4454  1.6253 -0.8736
 6112TIP3   OH218299   7.170   3.283   3.655  0.2418  0.1936  0.7329
 6112TIP3    H118300   7.134   3.246   3.575 -0.1461 -0.6990  1.3036
 6112TIP3    H218301   7.203   3.369   3.629  0.5606 -0.2767 -0.4768
 6113TIP3   OH218302   0.330   0.898   3.743 -0.3761  0.1062 -0.1773
 6113TIP3    H118303   0.400   0.832   3.748 -1.5932 -1.1675  1.4254
 6113TIP3    H218304   0.259   0.854   3.697 -0.7875  0.7184 -0.1405
 6114TIP3   OH218305   3.440   5.631   1.142 -0.1977 -0.0526 -0.5508
 6114TIP3    H118306   3.440   5.700   1.208  0.2326  0.1521 -0.7652
 6114TIP3    H218307   3.528   5.594   1.145 -0.3508 -0.4290 -0.6095
 6115TIP3   OH218308   5.685   2.928   3.049  0.1189  0.2500 -0.1945
 6115TIP3    H118309   5.675   3.004   2.992  1.1395  1.0020  0.5828
 6115TIP3    H218310   5.758   2.951   3.107  0.4172 -1.3065  0.0967
 6116TIP3   OH218311   5.913   2.947   2.475 -1.0194  0.4995  0.4658
 6116TIP3    H118312   5.990   2.998   2.450 -0.8672  0.7060  1.3369
 6116TIP3    H218313   5.851   3.012   2.508 -1.2458  0.2379  0.5598
 6117TIP3   OH218314   2.485   3.179   3.567  0.4805 -0.2398  0.3593
 6117TIP3    H118315   2.564   3.140   3.528 -0.4961 -1.5790 -0.3633
 6117TIP3    H218316   2.445   3.229   3.497 -0.7691 -1.8659 -0.1495
 6118TIP3   OH218317   0.561   5.947   1.626  0.0040 -0.2220 -0.2187
 6118TIP3    H118318   0.538   5.857   1.602 -1.2676 -0.2434  0.9860
 6118TIP3    H218319   0.489   6.000   1.592  1.3048  0.5404 -1.9641
 6119TIP3   OH218320   0.447   0.225   5.120 -0.0859  0.3098  0.0369
 6119TIP3    H118321   0.453   0.171   5.200  0.4277 -0.7826 -0.7099
 6119TIP3    H218322   0.381   0.291   5.141 -3.4426 -2.6818 -0.1605
 6120TIP3   OH218323   4.762   6.044   3.482 -0.1391 -0.2747 -0.3908
 6120TIP3    H118324   4.742   5.951   3.479 -0.4100 -0.4351  2.6711
 6120TIP3    H218325   4.687   6.083   3.526  0.0733  1.3776 -1.4189
 6121TIP3   OH218326   6.938   3.527   2.767 -0.2271  0.4729 -0.0023
 6121TIP3    H118327   6.861   3.520   2.823  1.1902 -0.5123  1.9567
 6121TIP3    H218328   6.911   3.487   2.684 -2.5887  2.5754 -0.3485
 6122TIP3   OH218329   5.794   4.735   2.424 -0.1865 -0.0570  0.4179
 6122TIP3    H118330   5.871   4.788   2.445  2.5139 -1.6841 -3.9852
 6122TIP3    H218331   5.788   4.672   2.496  1.6849  1.0090  1.5937
 6123TIP3   OH218332   5.730   2.382   3.232  0.3664  0.2018 -0.4372
 6123TIP3    H118333   5.700   2.428   3.311 -0.5196 -2.4902  0.9219
 6123TIP3    H218334   5.795   2.319   3.264 -0.4265 -1.3509 -1.7144
 6124TIP3   OH218335   3.939   3.657   3.539 -0.1233  0.3813 -0.3796
 6124TIP3    H118336   3.925   3.744   3.502 -2.2904  1.0971  1.8612
 6124TIP3    H218337   4.007   3.618   3.484  0.1237  3.0473 -2.1308
 6125TIP3   OH218338   1.431   3.013   5.224 -0.6183 -0.6208  0.1049
 6125TIP3    H118339   1.429   3.018   5.319  1.1285  2.2390  0.1278
 6125TIP3    H218340   1.440   2.920   5.205 -0.3677 -1.2159  2.7583
 6126TIP3   OH218341   7.106   6.025   2.437 -0.3145  0.4576  0.1818
 6126TIP3    H118342   7.130   5.932   2.443  0.2284  0.6853  2.1300
 6126TIP3    H218343   7.031   6.034   2.497 -0.2265  1.3115  0.1729
 6127TIP3   OH218344   3.065   5.399   2.696 -0.0247  0.1182 -0.6480
 6127TIP3    H118345   3.089   5.418   2.787 -1.0233  1.2078 -0.5905
 6127TIP3    H218346   2.973   5.374   2.701 -0.2377  0.7275 -1.4243
 6128TIP3   OH218347   0.306   2.620   1.789  0.2216 -0.1150 -0.8778
 6128TIP3    H118348   0.368   2.693   1.796 -0.6611  0.7636 -1.9421
 6128TIP3    H218349   0.220   2.661   1.783 -0.2404 -1.1941 -2.3081
 6129TIP3   OH218350   0.041   0.707   2.642  0.6657  0.2896 -0.5295
 6129TIP3    H118351   0.031   0.648   2.717  0.7592  0.6975 -0.1932
 6129TIP3    H218352   0.136   0.714   2.630  0.6740  0.7914 -0.2247
 6130TIP3   OH218353   2.717   1.127   4.357 -0.7102  0.1891 -0.6741
 6130TIP3    H118354   2.786   1.071   4.321 -1.4827 -1.8036  0.8164
 6130TIP3    H218355   2.734   1.213   4.317  1.7627 -0.5567 -1.4300
 6131TIP3   OH218356   6.469   3.867   3.328 -0.1841  0.5044 -0.0589
 6131TIP3    H118357   6.460   3.941   3.269 -0.9306 -0.6794 -1.4779
 6131TIP3    H218358   6.380   3.846   3.355 -0.1406 -0.7462 -0.8074
 6132TIP3   OH218359   2.488   0.375   1.419 -0.4173 -0.2135 -0.4151
 6132TIP3    H118360   2.487   0.432   1.495  2.2448 -2.4704  1.5051
 6132TIP3    H218361   2.415   0.314   1.433  0.7588 -1.3559  1.0542
 6133TIP3   OH218362   7.045   1.022   0.924  0.5059 -0.3926  0.3309
 6133TIP3    H118363   7.033   1.011   1.018  2.7178 -2.4573  0.4473
 6133TIP3    H218364   6.970   0.976   0.885 -0.3976  0.4346  1.0347
 6134TIP3   OH218365   4.589   1.752   5.780  0.3941 -0.0165  0.8103
 6134TIP3    H118366   4.593   1.795   5.865 -0.6190  0.6658  0.5329
 6134TIP3    H218367   4.599   1.659   5.799  4.8840  0.3376  1.2564
 6135TIP3   OH218368   1.389   4.189   5.562  0.2093 -0.0777 -0.3876
 6135TIP3    H118369   1.379   4.187   5.658 -0.1945 -0.7874 -0.4400
 6135TIP3    H218370   1.327   4.256   5.533 -0.8084 -0.9573 -0.2777
 6136TIP3   OH218371   2.673   0.879   1.330  0.0851 -0.1565  0.2053
 6136TIP3    H118372   2.583   0.913   1.332  0.1973  0.1486  0.1403
 6136TIP3    H218373   2.728   0.957   1.318  0.3592 -0.3406  0.2519
 6137TIP3   OH218374   1.078   2.088   3.385 -0.3927  0.0030  0.5952
 6137TIP3    H118375   1.011   2.155   3.398 -0.4747 -0.1516  0.9853
 6137TIP3    H218376   1.133   2.122   3.313 -1.4520 -0.3109 -0.3913
 6138TIP3   OH218377   0.281   4.821   1.017  0.5211 -0.2221 -0.1915
 6138TIP3    H118378   0.238   4.805   1.101 -0.5913  1.5367 -0.3646
 6138TIP3    H218379   0.286   4.735   0.975  0.4083 -1.0067  1.3403
 6139TIP3   OH218380   2.808   2.696   3.987 -0.2430  0.1022  0.5940
 6139TIP3    H118381   2.748   2.664   3.920  0.7401  1.7749 -1.1902
 6139TIP3    H218382   2.852   2.618   4.019 -1.3435 -0.8308 -0.0825
 6140TIP3   OH218383   2.806   4.078   4.001 -0.1750 -0.0287 -0.0927
 6140TIP3    H118384   2.862   4.098   4.076  1.2690 -0.5472 -0.9791
 6140TIP3    H218385   2.850   4.006   3.957 -1.4413 -0.3011 -0.9710
 6141TIP3   OH218386   4.484   4.792   1.126  0.1553 -0.1538 -0.0138
 6141TIP3    H118387   4.524   4.872   1.160 -1.8586  0.8752  0.0945
 6141TIP3    H218388   4.486   4.802   1.031 -0.4180  0.2143  0.0081
 6142TIP3   OH218389   3.570   2.138   3.775 -0.2503  0.2181 -0.3045
 6142TIP3    H118390   3.541   2.061   3.725 -0.0820 -0.1012  0.0849
 6142TIP3    H218391   3.617   2.191   3.711  0.4838 -0.4738 -0.3684
 6143TIP3   OH218392   1.604   6.579   4.007 -0.0103  0.2093 -0.8852
 6143TIP3    H118393   1.666   6.648   3.982  0.1393 -0.0478 -1.2331
 6143TIP3    H218394   1.520   6.624   4.018  0.7176  1.0313  2.1586
 6144TIP3   OH218395   0.286   4.828   5.099 -0.0144  0.1956  0.2602
 6144TIP3    H118396   0.247   4.915   5.100  0.9369  0.6289  1.4732
 6144TIP3    H218397   0.216   4.771   5.066 -0.2828  1.5559 -1.7352
 6145TIP3   OH218398   0.287   4.725   0.327 -0.0468  0.0127  0.2721
 6145TIP3    H118399   0.260   4.787   0.260  0.5904 -0.7811 -0.7494
 6145TIP3    H218400   0.215   4.724   0.390  0.2102  2.2432  0.6637
 6146TIP3   OH218401   0.424   4.503   2.990  0.5027 -0.1909  0.3464
 6146TIP3    H118402   0.354   4.438   2.999  1.6546 -1.5151  0.1234
 6146TIP3    H218403   0.381   4.579   2.951 -0.6140 -1.3569 -0.7964
 6147TIP3   OH218404   4.122   1.838   5.271 -0.3026 -0.1269 -0.8875
 6147TIP3    H118405   4.164   1.811   5.189 -0.1694 -0.6149 -0.6568
 6147TIP3    H218406   4.081   1.922   5.249  0.8143  0.3804 -1.1036
 6148TIP3   OH218407   1.612   2.017   1.658 -0.0644 -0.3797 -0.3499
 6148TIP3    H118408   1.567   1.948   1.707  0.1544 -0.3902 -0.1623
 6148TIP3    H218409   1.668   2.060   1.723  1.0755 -1.1068 -0.8392
 6149TIP3   OH218410   2.748   0.229   0.504 -0.4050  0.2165  0.3035
 6149TIP3    H118411   2.753   0.299   0.439  0.0476 -0.2934 -0.2123
 6149TIP3    H218412   2.654   0.219   0.520 -0.6148 -0.5455 -1.2433
 6150TIP3   OH218413   2.980   2.900   1.822 -0.0657 -0.3191 -0.2061
 6150TIP3    H118414   2.986   2.806   1.839  0.3230 -0.5431 -1.4688
 6150TIP3    H218415   3.065   2.923   1.785 -0.6950  0.1940 -1.3962
 6151TIP3   OH218416   6.314   0.415   1.608  0.2271 -0.1618 -0.2638
 6151TIP3    H118417   6.287   0.462   1.687  0.0556 -1.0117  0.1980
 6151TIP3    H218418   6.344   0.330   1.640  0.7765 -0.2708 -1.0549
 6152TIP3   OH218419   5.410   0.622   3.612  0.0292 -0.4380 -0.1487
 6152TIP3    H118420   5.321   0.650   3.631  1.2288  2.5568  1.6981
 6152TIP3    H218421   5.420   0.538   3.657 -1.4032 -0.1110  0.8114
 6153TIP3   OH218422   3.532   4.895   1.013 -0.0370 -0.0075 -0.0778
 6153TIP3    H118423   3.482   4.852   1.082  0.4979  0.1696  0.4229
 6153TIP3    H218424   3.606   4.837   0.997  0.4773  0.5293  0.3286
 6154TIP3   OH218425   1.567   2.952   4.843 -0.3838 -0.1849  0.3887
 6154TIP3    H118426   1.654   2.924   4.871 -0.2718 -0.5906 -0.3531
 6154TIP3    H218427   1.580   2.988   4.756 -0.3000  3.4425  1.7404
 6155TIP3   OH218428   0.063   4.506   5.400  0.4555  0.1209 -0.3876
 6155TIP3    H118429   0.020   4.475   5.320 -2.6889  0.7331  0.9258
 6155TIP3    H218430   0.119   4.433   5.428  0.9351 -0.4285 -2.5958
 6156TIP3   OH218431   6.344   2.930   3.374  0.1348 -0.2974 -0.3128
 6156TIP3    H118432   6.278   2.905   3.439 -0.4952  0.9868 -0.4182
 6156TIP3    H218433   6.404   2.988   3.422 -0.7575  1.2650 -1.0052
 6157TIP3   OH218434   1.311   1.681   5.750  0.1502  0.3523  0.1579
 6157TIP3    H118435   1.306   1.725   5.834 -1.6565 -0.4464  0.5305
 6157TIP3    H218436   1.225   1.638   5.741  1.7005 -3.0004 -0.1722
 6158TIP3   OH218437   3.574   5.403   1.909 -0.0989  0.3861  0.3213
 6158TIP3    H118438   3.606   5.483   1.868 -0.6827  0.3877 -0.1508
 6158TIP3    H218439   3.490   5.386   1.866 -1.0931  0.7753  2.0233
 6159TIP3   OH218440   6.668   2.493   3.039  0.4182 -0.1719  0.2349
 6159TIP3    H118441   6.711   2.455   3.116 -0.0389 -0.9660  0.1063
 6159TIP3    H218442   6.594   2.435   3.022  0.5458 -0.0279 -0.8423
 6160TIP3   OH218443   4.924   4.265   1.745  0.1903  0.0434  0.6612
 6160TIP3    H118444   4.977   4.305   1.813  3.0854  0.0528 -1.4402
 6160TIP3    H218445   4.882   4.190   1.789 -0.1553  1.5151  3.0129
 6161TIP3   OH218446   0.631   4.597   2.801 -0.8552  0.4729 -0.1652
 6161TIP3    H118447   0.543   4.628   2.782 -1.4022  0.6095  2.2130
 6161TIP3    H218448   0.643   4.615   2.894  2.1870  1.6219 -0.6750
 6162TIP3   OH218449   4.492   6.310   5.306  0.2985  0.7096 -0.1999
 6162TIP3    H118450   4.416   6.261   5.275 -0.6757  1.6234  0.6679
 6162TIP3    H218451   4.565   6.275   5.255 -0.4767 -1.0831 -0.1588
 6163TIP3   OH218452   0.279   3.073   3.601  0.3688  0.2687 -0.7584
 6163TIP3    H118453   0.246   3.132   3.669  1.4493  1.7861 -1.4954
 6163TIP3    H218454   0.367   3.050   3.631 -0.5215 -2.1583  0.2130
 6164TIP3   OH218455   4.003   6.095   5.125  0.3265 -0.1577 -0.0596
 6164TIP3    H118456   3.915   6.117   5.155 -0.0486  0.1893 -1.3547
 6164TIP3    H218457   4.014   6.003   5.150 -0.7446 -0.4600 -0.6070
 6165TIP3   OH218458   0.085   0.586   4.467  0.1123  0.1969  0.0204
 6165TIP3    H118459   0.124   0.665   4.504 -1.4639  1.0236 -0.0208
 6165TIP3    H218460   0.137   0.568   4.388  2.2779 -0.4846  1.4845
 6166TIP3   OH218461   3.062   1.623   1.723  0.2888  0.1878 -0.5339
 6166TIP3    H118462   3.101   1.699   1.680  0.8931  0.9878  1.3443
 6166TIP3    H218463   2.989   1.660   1.774  0.5815 -0.4888  0.3871
 6167TIP3   OH218464   5.491   4.630   2.726 -0.1585 -0.0365  0.4064
 6167TIP3    H118465   5.492   4.613   2.821  1.7307 -1.3113  0.2094
 6167TIP3    H218466   5.501   4.725   2.719 -4.8044  0.7678  1.4609
 6168TIP3   OH218467   5.499   4.394   2.596  0.3534  0.4995 -0.4084
 6168TIP3    H118468   5.544   4.420   2.516  1.3535 -1.0246 -0.3698
 6168TIP3    H218469   5.488   4.476   2.645 -0.2014  1.4308 -2.0458
 6169TIP3   OH218470   0.642   4.949   2.655  0.1156  0.1455  0.5698
 6169TIP3    H118471   0.578   4.905   2.598 -0.2676  1.3532  0.0254
 6169TIP3    H218472   0.715   4.888   2.661  0.2290  0.0230 -1.3609
 6170TIP3   OH218473   4.910   5.354   2.407  0.3337 -0.8229  0.1883
 6170TIP3    H118474   4.842   5.354   2.476  0.9066 -1.9883  0.7890
 6170TIP3    H218475   4.880   5.420   2.345 -0.7280 -0.4400  1.0527
 6171TIP3   OH218476   1.200   1.648   5.292  0.1949  0.0150 -0.5960
 6171TIP3    H118477   1.191   1.683   5.381  1.5031  0.8941 -0.7832
 6171TIP3    H218478   1.110   1.627   5.265 -0.1229 -1.2840  1.3060
 6172TIP3   OH218479   3.724   6.205   1.040 -0.5658 -0.0302 -0.3598
 6172TIP3    H118480   3.758   6.170   0.957  1.7771 -2.5612  1.4545
 6172TIP3    H218481   3.759   6.294   1.045  2.1914 -0.9891 -0.6785
 6173TIP3   OH218482   5.302   4.028   2.798 -0.6769  0.0233  0.5414
 6173TIP3    H118483   5.363   3.971   2.844  0.4778  1.7727  1.2800
 6173TIP3    H218484   5.352   4.061   2.724 -0.7329  1.3737  1.0794
 6174TIP3   OH218485   5.139   3.364   5.454  0.1292 -0.2205  0.2753
 6174TIP3    H118486   5.144   3.270   5.440 -4.3743 -0.5796 -0.5464
 6174TIP3    H218487   5.135   3.374   5.549  2.5504 -0.5693  0.4662
 6175TIP3   OH218488   3.319   3.983   2.586 -0.4458 -0.2557 -0.3008
 6175TIP3    H118489   3.276   3.906   2.622 -1.5208  0.5083  0.1188
 6175TIP3    H218490   3.276   3.996   2.501 -0.5985  0.1401 -0.1652
 6176TIP3   OH218491   3.007   5.149   4.588 -0.3058 -0.3594  0.4572
 6176TIP3    H118492   3.072   5.107   4.644  1.7082  1.6684 -0.1814
 6176TIP3    H218493   2.924   5.136   4.634  0.6896 -2.0926  1.8941
 6177TIP3   OH218494   0.747   1.403   2.051  0.1296  0.4215 -0.0430
 6177TIP3    H118495   0.754   1.425   1.958 -0.6518  1.6599  0.1739
 6177TIP3    H218496   0.837   1.405   2.083  0.1527  3.1049 -0.1120
 6178TIP3   OH218497   6.999   5.690   2.936  0.1407  0.1880 -0.1703
 6178TIP3    H118498   7.025   5.761   2.994  0.6714 -0.4171  0.3570
 6178TIP3    H218499   6.981   5.617   2.996 -1.3541  0.1542 -0.6235
 6179TIP3   OH218500   1.195   4.229   2.230  0.0618 -0.1482  0.3167
 6179TIP3    H118501   1.253   4.292   2.188  2.1638 -2.3733 -0.3213
 6179TIP3    H218502   1.233   4.143   2.210 -1.5692 -1.5703  2.7449
 6180TIP3   OH218503   1.173   6.047   2.190 -0.2048  0.1033 -0.1900
 6180TIP3    H118504   1.205   6.137   2.186  0.0381  0.0548  0.5911
 6180TIP3    H218505   1.081   6.056   2.214  0.4120  0.0832  2.4973
 6181TIP3   OH218506   2.842   2.399   3.713 -0.1282  0.0156  0.4332
 6181TIP3    H118507   2.754   2.435   3.702 -0.5057 -1.3323 -1.5340
 6181TIP3    H218508   2.889   2.430   3.636  1.1193  0.6085  1.4038
 6182TIP3   OH218509   5.139   0.195   2.732 -0.6088 -0.0285 -0.4220
 6182TIP3    H118510   5.044   0.209   2.732 -0.4489  2.0261  2.4160
 6182TIP3    H218511   5.156   0.151   2.816  0.9180 -1.0016 -1.2004
 6183TIP3   OH218512   1.608   1.796   2.877 -0.2901  0.6780  0.8545
 6183TIP3    H118513   1.702   1.802   2.894  0.2348  2.9208 -2.0435
 6183TIP3    H218514   1.567   1.843   2.950  0.7168 -0.6205  2.3351
 6184TIP3   OH218515   4.881   1.111   5.916  0.4297 -0.1058  0.5095
 6184TIP3    H118516   4.972   1.097   5.891  0.6999  2.0344  0.1254
 6184TIP3    H218517   4.835   1.127   5.834 -0.6979 -2.7675  0.5046
 6185TIP3   OH218518   5.286   6.525   2.317 -0.1498  0.1187  0.3454
 6185TIP3    H118519   5.359   6.464   2.327  0.6892  1.0741  0.2012
 6185TIP3    H218520   5.236   6.514   2.398 -0.8085 -1.7335 -0.2537
 6186TIP3   OH218521   7.061   5.625   0.166  0.1615  0.4565 -0.3527
 6186TIP3    H118522   6.991   5.562   0.154 -0.0394  0.7813 -0.9022
 6186TIP3    H218523   7.048   5.660   0.254 -0.0098  0.0873 -0.2314
 6187TIP3   OH218524   3.195   2.005   0.089 -0.8728 -0.0633 -0.6951
 6187TIP3    H118525   3.114   1.964   0.120 -1.2418  1.0692 -0.1182
 6187TIP3    H218526   3.193   2.093   0.126 -0.0319  0.4435 -1.8010
 6188TIP3   OH218527   4.208   4.658   1.560 -0.3226  0.1203  0.1439
 6188TIP3    H118528   4.148   4.689   1.627  0.3013  0.5643  0.5067
 6188TIP3    H218529   4.282   4.718   1.563  0.8331 -1.2656  0.7323
 6189TIP3   OH218530   3.532   0.126   0.421  0.2879  0.0180 -0.3597
 6189TIP3    H118531   3.555   0.068   0.494 -2.6142  0.5039  1.0663
 6189TIP3    H218532   3.572   0.084   0.344  1.6581 -1.6521  1.1719
 6190TIP3   OH218533   6.632   6.286   5.195  0.0722  0.0048 -0.4582
 6190TIP3    H118534   6.644   6.197   5.229  1.7187  1.4535  3.3514
 6190TIP3    H218535   6.713   6.304   5.147  1.0897  0.3507  1.3048
 6191TIP3   OH218536   0.789   6.393   0.534  0.3844 -0.2606  0.5626
 6191TIP3    H118537   0.864   6.448   0.514  0.6079 -0.4909  0.7576
 6191TIP3    H218538   0.821   6.331   0.599  0.3978 -1.2538 -0.3704
 6192TIP3   OH218539   4.244   4.128   5.757 -0.2407 -0.7716 -0.0679
 6192TIP3    H118540   4.337   4.152   5.755 -0.5901  0.9221  1.3525
 6192TIP3    H218541   4.244   4.035   5.780  1.1101 -0.8480 -0.2870
 6193TIP3   OH218542   7.152   4.068   0.660  0.0589  0.2851 -0.4505
 6193TIP3    H118543   7.207   4.143   0.636  0.6313 -0.2664 -0.9166
 6193TIP3    H218544   7.213   3.994   0.661 -0.8524 -0.5546 -2.0553
 6194TIP3   OH218545   4.997   1.582   0.890  0.1582 -0.0331 -0.2578
 6194TIP3    H118546   5.053   1.657   0.873  0.4895 -0.2939 -0.3111
 6194TIP3    H218547   4.910   1.610   0.862  0.5326 -0.1590 -1.5779
 6195TIP3   OH218548   6.269   1.502   0.461  0.0016 -0.4395  0.7364
 6195TIP3    H118549   6.351   1.518   0.507 -0.5892  0.2897  1.5775
 6195TIP3    H218550   6.259   1.406   0.461  1.2900 -0.5981 -0.2145
 6196TIP3   OH218551   6.579   3.209   4.598  0.2216  0.9276 -0.2621
 6196TIP3    H118552   6.577   3.304   4.612  0.2889  0.8559  0.2628
 6196TIP3    H218553   6.490   3.181   4.615  0.7337  0.5634  2.1490
 6197TIP3   OH218554   4.314   4.664   0.709  0.7283  0.0568  0.1327
 6197TIP3    H118555   4.303   4.596   0.642  2.5195  1.1493 -1.3977
 6197TIP3    H218556   4.341   4.616   0.787 -1.0595 -1.2296  0.0388
 6198TIP3   OH218557   6.553   2.929   5.086 -0.4881  0.2400 -0.4657
 6198TIP3    H118558   6.476   2.877   5.109  0.8528 -1.2403  0.8583
 6198TIP3    H218559   6.525   3.020   5.099 -1.6388 -0.3091  1.2033
 6199TIP3   OH218560   4.308   2.210   5.771 -0.2778  0.0429  0.1132
 6199TIP3    H118561   4.238   2.227   5.834  0.4564  2.1471  0.4332
 6199TIP3    H218562   4.276   2.245   5.689  0.6288  1.7298  0.4251
 6200TIP3   OH218563   3.100   0.941   5.224  0.3364 -0.5065 -0.2368
 6200TIP3    H118564   3.040   0.999   5.271  0.4206 -1.3787  0.9994
 6200TIP3    H218565   3.170   0.998   5.193  0.2298  0.1231  0.6312
 6201TIP3   OH218566   6.654   0.948   1.502 -0.3269 -0.0882  0.6638
 6201TIP3    H118567   6.669   0.897   1.581  0.3715  0.5621  0.9630
 6201TIP3    H218568   6.581   1.006   1.524  1.5345  1.9710  1.7943
 6202TIP3   OH218569   7.031   4.724   1.919  0.2890  0.2826 -0.3499
 6202TIP3    H118570   6.988   4.787   1.977 -1.0542  0.9505 -1.9714
 6202TIP3    H218571   6.966   4.706   1.851  1.1175 -1.9243 -0.6305
 6203TIP3   OH218572   3.843   6.708   0.044 -0.2122 -0.1873 -0.1271
 6203TIP3    H118573   3.832   6.652   0.120 -0.5137  1.2956  0.9699
 6203TIP3    H218574   3.922   6.675   0.000 -1.5359 -2.7855 -0.7645
 6204TIP3   OH218575   1.634   1.430   3.535 -0.3032 -0.2805 -0.1270
 6204TIP3    H118576   1.667   1.505   3.486 -1.3052 -0.3931 -1.0060
 6204TIP3    H218577   1.706   1.367   3.533 -1.2811 -1.5909 -4.2668
 6205TIP3   OH218578   3.899   0.920   4.223 -0.2275 -0.4930 -0.5514
 6205TIP3    H118579   3.893   0.952   4.312 -0.2306 -0.0789 -0.6991
 6205TIP3    H218580   3.959   0.846   4.227  0.7744  0.3112 -0.4240
 6206TIP3   OH218581   3.764   2.451   0.111  0.0459  0.0551  0.0320
 6206TIP3    H118582   3.829   2.517   0.134 -1.4694  1.8401 -0.6054
 6206TIP3    H218583   3.785   2.376   0.167  0.8908  1.6096  1.9030
 6207TIP3   OH218584   3.656   4.542   5.121  0.0652 -0.0140 -0.6978
 6207TIP3    H118585   3.706   4.586   5.053 -0.6732  0.4508 -0.9599
 6207TIP3    H218586   3.665   4.597   5.198 -0.4384  0.3423 -0.8847
 6208TIP3   OH218587   0.672   1.851   0.726  0.8171  0.0331 -0.5777
 6208TIP3    H118588   0.756   1.812   0.749  0.0523 -0.6028  1.3087
 6208TIP3    H218589   0.607   1.802   0.776 -0.4590  1.9103 -0.2539
 6209TIP3   OH218590   5.921   3.750   3.823 -0.0110 -0.0252 -0.1578
 6209TIP3    H118591   5.992   3.691   3.848  0.5196 -0.0797 -1.7017
 6209TIP3    H218592   5.845   3.693   3.810 -0.1141 -0.0733  0.6126
 6210TIP3   OH218593   6.289   4.031   4.281  0.1080  0.2640  0.3485
 6210TIP3    H118594   6.226   3.965   4.253 -1.0009  0.6252  1.9089
 6210TIP3    H218595   6.353   3.982   4.334 -0.1730  0.2832  0.7052
 6211TIP3   OH218596   5.112   2.148   0.953 -0.6062 -0.5678 -0.1391
 6211TIP3    H118597   5.191   2.107   0.918 -0.9522 -0.2948 -1.3170
 6211TIP3    H218598   5.126   2.151   1.047 -0.0896 -2.3463 -0.1173
 6212TIP3   OH218599   1.713   2.718   4.524 -0.1066  0.5673 -0.1617
 6212TIP3    H118600   1.752   2.736   4.610  0.8785 -2.9052  0.2724
 6212TIP3    H218601   1.749   2.785   4.466 -0.1965  2.5449  1.9122
 6213TIP3   OH218602   3.110   2.268   1.158 -0.2922 -0.6655  0.3435
 6213TIP3    H118603   3.016   2.265   1.178 -1.1096  3.4503 -1.7700
 6213TIP3    H218604   3.119   2.221   1.076 -0.4358 -1.1894  0.6197
 6214TIP3   OH218605   5.801   5.274   2.225 -0.7386  0.0754 -0.7862
 6214TIP3    H118606   5.875   5.301   2.171  0.1124  0.0398  0.3311
 6214TIP3    H218607   5.834   5.279   2.315 -3.0886  3.5624  0.0934
 6215TIP3   OH218608   0.503   6.016   0.901  0.3999  0.5199  0.0669
 6215TIP3    H118609   0.590   6.005   0.940  0.0721 -0.1356  0.6531
 6215TIP3    H218610   0.458   5.934   0.922 -1.0943  1.6806  1.7249
 6216TIP3   OH218611   1.211   0.251   5.799  0.0948 -0.3694 -0.2183
 6216TIP3    H118612   1.263   0.219   5.724  0.3786  0.1162 -0.2284
 6216TIP3    H218613   1.181   0.171   5.842 -0.7643 -0.6667 -1.3298
 6217TIP3   OH218614   1.349   3.241   5.480 -0.2451  0.1476  0.0487
 6217TIP3    H118615   1.346   3.300   5.405  0.4146  0.8779  0.5876
 6217TIP3    H218616   1.442   3.238   5.504 -0.1927 -1.4737 -0.2485
 6218TIP3   OH218617   6.136   2.635   3.887 -0.2262  0.3482 -0.3243
 6218TIP3    H118618   6.230   2.640   3.867 -0.3526  0.3383 -0.9350
 6218TIP3    H218619   6.100   2.716   3.852 -0.3818  0.5487  0.2925
 6219TIP3   OH218620   5.432   3.352   5.589  0.0612 -0.3152 -0.3365
 6219TIP3    H118621   5.346   3.393   5.600 -0.1415  0.2262 -3.3048
 6219TIP3    H218622   5.492   3.426   5.580  0.3714 -0.6740 -1.2489
 6220TIP3   OH218623   4.450   0.198   0.082 -0.0484  0.2425 -0.2408
 6220TIP3    H118624   4.431   0.127   0.143  2.2006 -1.0767 -0.9692
 6220TIP3    H218625   4.364   0.226   0.049 -1.1765 -0.1944  2.1562
 6221TIP3   OH218626   7.139   0.919   0.005 -0.3656 -0.8519 -0.3020
 6221TIP3    H118627   7.213   0.978  -0.003 -0.2108 -1.2348 -1.9526
 6221TIP3    H218628   7.179   0.833   0.023 -0.5982 -0.4867  2.3937
 6222TIP3   OH218629   0.976   0.253   1.610 -0.2147 -0.1640 -1.0093
 6222TIP3    H118630   1.001   0.170   1.650 -0.7520 -0.3135 -0.9732
 6222TIP3    H218631   0.887   0.238   1.578 -0.4997  0.5407 -0.5812
 6223TIP3   OH218632   3.482   3.896   3.915 -0.0808  0.1237 -0.0693
 6223TIP3    H118633   3.566   3.862   3.945  0.6827  0.9494 -1.1908
 6223TIP3    H218634   3.473   3.981   3.960 -0.5512 -0.1758  0.4130
 6224TIP3   OH218635   0.512   2.725   5.401 -0.5474  0.6940 -1.0443
 6224TIP3    H118636   0.452   2.651   5.403 -0.0455  0.2312 -2.4319
 6224TIP3    H218637   0.455   2.802   5.406 -1.0666  0.2571  0.5222
 6225TIP3   OH218638   5.639   4.314   5.769 -0.5736 -0.4732 -0.3677
 6225TIP3    H118639   5.558   4.363   5.786 -0.6035 -0.1690 -1.3341
 6225TIP3    H218640   5.690   4.371   5.713 -0.2597 -1.2208 -0.8565
 6226TIP3   OH218641   6.254   1.246   3.129  0.3320 -0.1031 -0.2952
 6226TIP3    H118642   6.257   1.173   3.068  0.7045 -0.0578 -0.3343
 6226TIP3    H218643   6.310   1.313   3.090 -0.2993  0.3468 -0.4396
 6227TIP3   OH218644   2.284   0.418   5.797 -0.2602 -0.1722 -0.4041
 6227TIP3    H118645   2.262   0.379   5.881  0.2403  2.0246  0.8325
 6227TIP3    H218646   2.206   0.468   5.772  0.4114  1.1572  0.0296
 6228TIP3   OH218647   1.724   2.044   1.389 -0.5325  0.0639 -0.2259
 6228TIP3    H118648   1.809   2.080   1.416 -1.2707  1.7618  0.0037
 6228TIP3    H218649   1.675   2.033   1.471 -1.0812  0.6283 -0.4691
 6229TIP3   OH218650   1.735   5.853   4.019  0.0716  0.3129  0.5972
 6229TIP3    H118651   1.784   5.855   4.102  1.4749 -0.3756 -0.1711
 6229TIP3    H218652   1.713   5.760   4.007 -1.0322  0.5506  0.6894
 6230TIP3   OH218653   2.864   1.083   4.082 -0.1987 -0.4081  0.1504
 6230TIP3    H118654   2.805   1.154   4.059 -1.0440 -1.6314 -1.7098
 6230TIP3    H218655   2.892   1.047   3.998  0.5385 -2.0085  1.0280
 6231TIP3   OH218656   2.695   4.708   3.847 -0.3302  0.2627  0.4750
 6231TIP3    H118657   2.731   4.662   3.770  1.1603  0.6303  0.9145
 6231TIP3    H218658   2.682   4.797   3.817  0.0743  0.3616  0.5839
 6232TIP3   OH218659   2.670   5.701   2.192 -0.2980 -0.1564  0.2374
 6232TIP3    H118660   2.668   5.610   2.222 -0.7014  0.2243  1.4032
 6232TIP3    H218661   2.683   5.694   2.097  0.5089 -1.4093  0.4076
 6233TIP3   OH218662   2.470   3.054   5.805  0.6061 -0.3848 -0.0087
 6233TIP3    H118663   2.533   3.028   5.738  1.4584  0.4135  0.4494
 6233TIP3    H218664   2.385   3.030   5.769  1.0810 -0.3422 -1.1967
 6234TIP3   OH218665   4.758   5.402   5.179 -0.1639 -0.1792 -0.2306
 6234TIP3    H118666   4.786   5.396   5.088  1.7009 -0.2048  0.3021
 6234TIP3    H218667   4.696   5.475   5.180 -0.3700 -0.3090 -1.5396
 6235TIP3   OH218668   2.828   6.302   0.209  0.4642 -0.0617  0.1046
 6235TIP3    H118669   2.897   6.363   0.235  2.6510 -2.4444  0.3290
 6235TIP3    H218670   2.850   6.221   0.254 -1.0254 -1.6750 -1.8782
 6236TIP3   OH218671   6.848   2.104   4.237 -0.5428  0.0167  0.4892
 6236TIP3    H118672   6.852   2.069   4.326 -0.8117 -1.5984 -0.1061
 6236TIP3    H218673   6.779   2.054   4.194 -0.6513  1.0073 -0.5429
 6237TIP3   OH218674   3.455   5.378   5.312 -0.3895 -0.2619  0.3182
 6237TIP3    H118675   3.499   5.450   5.266  1.0198  0.6528  2.9440
 6237TIP3    H218676   3.517   5.305   5.308 -0.9262 -0.6910 -0.5068
 6238TIP3   OH218677   0.170   5.731   0.371 -0.1280 -0.4684 -0.0897
 6238TIP3    H118678   0.213   5.803   0.325  0.7663 -1.4953 -0.9016
 6238TIP3    H218679   0.137   5.674   0.302 -1.9195 -0.2497  0.5322
 6239TIP3   OH218680   1.984   3.709   4.022 -0.6477  0.0509 -0.3689
 6239TIP3    H118681   1.980   3.618   4.049  0.5870 -0.3559 -1.4308
 6239TIP3    H218682   2.051   3.711   3.953  0.0620  1.9208  0.3000
 6240TIP3   OH218683   2.403   6.241   1.729 -0.1393  0.3121 -0.2721
 6240TIP3    H118684   2.347   6.292   1.788  1.1737  0.3148  1.0608
 6240TIP3    H218685   2.348   6.169   1.699 -1.3569  1.2601 -0.4044
 6241TIP3   OH218686   4.393   0.229   1.297  0.1671  0.4353  0.5452
 6241TIP3    H118687   4.344   0.212   1.378 -1.4293  1.3823 -0.1835
 6241TIP3    H218688   4.326   0.241   1.230  1.4268  1.1854 -0.6315
 6242TIP3   OH218689   4.183   5.645   5.256  0.1071  0.3263  0.4098
 6242TIP3    H118690   4.276   5.661   5.271  0.4740 -1.4880  0.2860
 6242TIP3    H218691   4.179   5.601   5.171 -1.1396  2.6176 -0.8180
 6243TIP3   OH218692   6.567   2.194   4.570 -0.3806  0.2158 -0.0619
 6243TIP3    H118693   6.605   2.256   4.633 -1.5375  2.4065 -1.3847
 6243TIP3    H218694   6.596   2.108   4.601  0.9505  1.3465  2.1380
 6244TIP3   OH218695   4.578   3.631   1.460 -0.4854  0.3917  0.2488
 6244TIP3    H118696   4.535   3.705   1.501 -0.2121  0.9379 -0.4332
 6244TIP3    H218697   4.513   3.561   1.460 -1.3291  1.1633 -0.6593
 6245TIP3   OH218698   3.672   0.954   2.912  0.0710 -0.3239  0.3153
 6245TIP3    H118699   3.688   0.926   3.002 -0.5545 -0.1061  0.4992
 6245TIP3    H218700   3.683   1.049   2.914 -1.7583 -0.0970  0.5749
 6246TIP3   OH218701   0.836   3.897   3.409  0.4894  0.3009  0.0575
 6246TIP3    H118702   0.879   3.936   3.333 -1.7485  1.6614 -0.5967
 6246TIP3    H218703   0.750   3.938   3.412  0.3292  0.0151  3.1182
 6247TIP3   OH218704   0.417   1.213   0.192  0.2778  0.2694 -0.5042
 6247TIP3    H118705   0.448   1.166   0.114 -2.6917  0.6512 -2.0381
 6247TIP3    H218706   0.376   1.145   0.246  1.4032  0.1810  0.2751
 6248TIP3   OH218707   5.110   4.456   5.015  0.2620  0.2212  0.0721
 6248TIP3    H118708   5.086   4.381   5.069 -0.9895  0.4319 -0.1758
 6248TIP3    H218709   5.122   4.528   5.077 -0.7415  0.3538  0.1333
 6249TIP3   OH218710   0.791   3.966   0.629 -0.8249  0.6004  0.0067
 6249TIP3    H118711   0.728   3.947   0.560 -0.8411  0.6155  0.0175
 6249TIP3    H218712   0.737   3.983   0.706 -0.8191 -2.1932  0.7592
 6250TIP3   OH218713   5.258   1.968   5.040  0.1219 -0.5008 -0.1332
 6250TIP3    H118714   5.222   1.998   5.124  1.5572  0.1811  0.2734
 6250TIP3    H218715   5.218   1.882   5.027 -2.6888  0.7487 -0.4376
 6251TIP3   OH218716   6.402   5.434   5.661  0.3847 -0.3435 -0.4061
 6251TIP3    H118717   6.407   5.529   5.673 -0.5484 -0.2751 -0.5105
 6251TIP3    H218718   6.400   5.421   5.567 -0.9428 -0.3704 -0.3901
 6252TIP3   OH218719   2.611   0.760   2.130  0.0868 -0.2714 -0.0309
 6252TIP3    H118720   2.701   0.737   2.153  0.2406 -0.4651 -0.8278
 6252TIP3    H218721   2.613   0.855   2.117  0.4628 -0.4370 -1.2944
 6253TIP3   OH218722   5.935   4.615   3.470  0.3616 -0.4024  0.2850
 6253TIP3    H118723   5.971   4.536   3.511  1.2269 -0.6087 -0.8173
 6253TIP3    H218724   5.993   4.631   3.395 -1.4089 -0.3359 -1.1451
 6254TIP3   OH218725   1.117   1.917   2.736  0.0876 -0.4263  0.5495
 6254TIP3    H118726   1.029   1.926   2.700 -0.4261 -0.3352  1.7973
 6254TIP3    H218727   1.118   1.972   2.814  0.8053 -1.5130  1.3424
 6255TIP3   OH218728   3.132   0.489   3.034  0.8464  0.3352 -0.4006
 6255TIP3    H118729   3.143   0.584   3.043 -0.8816  0.7669 -2.0837
 6255TIP3    H218730   3.059   0.480   2.972  1.0977 -2.1013 -0.4130
 6256TIP3   OH218731   2.287   2.177   3.470 -0.1596  0.4440 -0.5310
 6256TIP3    H118732   2.210   2.136   3.510 -0.5559  0.5912 -1.1279
 6256TIP3    H218733   2.331   2.221   3.543  0.8386 -1.8330  0.3400
 6257TIP3   OH218734   4.622   3.164   4.038  0.2395 -0.6648 -0.8877
 6257TIP3    H118735   4.571   3.099   4.086  0.1167  0.6421  0.8643
 6257TIP3    H218736   4.699   3.115   4.006 -0.6602 -2.0086 -1.0768
 6258TIP3   OH218737   2.903   6.047   4.942 -0.1207  0.0955 -0.4414
 6258TIP3    H118738   2.943   5.971   4.984 -0.6694 -0.7064 -1.3309
 6258TIP3    H218739   2.921   6.036   4.849 -1.8198  0.0439 -0.7978
 6259TIP3   OH218740   6.804   1.892   0.161 -0.7980  0.6417 -0.0159
 6259TIP3    H118741   6.858   1.868   0.086 -1.5869 -1.7384  0.0671
 6259TIP3    H218742   6.724   1.929   0.124  0.0607  2.3858 -0.1989
 6260TIP3   OH218743   3.312   5.583   4.086 -0.1733 -0.0998 -0.1184
 6260TIP3    H118744   3.279   5.567   3.997  0.4275 -1.4786 -0.1153
 6260TIP3    H218745   3.374   5.511   4.102  1.6465  1.5221  0.4676
 6261TIP3   OH218746   2.626   4.410   3.686 -0.2236 -0.3754 -0.2086
 6261TIP3    H118747   2.543   4.387   3.727 -0.6154 -0.5303 -1.0751
 6261TIP3    H218748   2.693   4.377   3.746 -0.7785 -0.2084  0.5170
 6262TIP3   OH218749   5.757   6.556   0.125 -0.6115 -0.6873 -0.4478
 6262TIP3    H118750   5.673   6.527   0.162 -0.0374 -2.5545 -0.5412
 6262TIP3    H218751   5.762   6.514   0.040  0.6412 -1.0084 -0.2365
 6263TIP3   OH218752   0.298   5.020   0.183  0.2626 -0.3287 -1.1538
 6263TIP3    H118753   0.249   5.060   0.255  0.3023  1.3672 -2.0287
 6263TIP3    H218754   0.232   4.969   0.136 -0.5423  1.3521 -1.8998
 6264TIP3   OH218755   0.277   2.342   3.971 -0.3048  0.4001  0.2197
 6264TIP3    H118756   0.229   2.268   3.932  0.8017 -0.2972  0.1539
 6264TIP3    H218757   0.250   2.342   4.063  0.3653 -0.6624  0.4301
 6265TIP3   OH218758   1.264   4.946   5.555  0.3970  0.2891 -0.5032
 6265TIP3    H118759   1.184   4.968   5.508  1.5375  0.6894 -2.3881
 6265TIP3    H218760   1.303   4.875   5.504  0.9302 -0.3450  0.7520
 6266TIP3   OH218761   1.594   0.482   0.829 -0.1475  0.5615 -0.1586
 6266TIP3    H118762   1.598   0.396   0.786  0.1634  0.4529  0.0799
 6266TIP3    H218763   1.509   0.483   0.873  1.3300 -1.2405  3.1216
 6267TIP3   OH218764   5.638   6.461   5.566 -0.4164  0.3631  0.0753
 6267TIP3    H118765   5.608   6.479   5.655 -0.6072  0.1773  0.0480
 6267TIP3    H218766   5.568   6.410   5.527 -0.7497  1.2136 -0.4758
 6268TIP3   OH218767   1.974   5.223   5.146 -0.4703  0.3797 -0.1692
 6268TIP3    H118768   1.920   5.235   5.068 -0.5102  2.4695  0.1280
 6268TIP3    H218769   2.000   5.312   5.172 -0.9080 -0.1743  2.5151
 6269TIP3   OH218770   0.318   5.016   2.394  0.4097  0.0619  0.6742
 6269TIP3    H118771   0.372   5.077   2.343  1.5305  0.7856  2.5998
 6269TIP3    H218772   0.376   4.942   2.413  0.5293  0.4802  2.0868
 6270TIP3   OH218773   1.325   4.167   0.700 -0.4263 -0.5399 -0.1145
 6270TIP3    H118774   1.362   4.087   0.663 -0.6952 -0.4004 -0.6993
 6270TIP3    H218775   1.399   4.227   0.708 -0.4619 -0.3617 -1.0087
 6271TIP3   OH218776   0.278   1.915   0.660  0.0419  0.0773  0.0464
 6271TIP3    H118777   0.253   1.854   0.591  0.6808  0.0531 -0.1694
 6271TIP3    H218778   0.231   1.884   0.737  2.6195 -2.5726  0.7550
 6272TIP3   OH218779   1.321   0.564   3.798  0.3027 -0.0227  0.5645
 6272TIP3    H118780   1.308   0.632   3.732 -0.4271 -0.8009 -0.1108
 6272TIP3    H218781   1.318   0.612   3.881 -1.3288  0.6529  0.1614
 6273TIP3   OH218782   2.896   6.130   1.471 -0.2113 -0.2764 -0.3232
 6273TIP3    H118783   2.911   6.184   1.394 -1.2620  0.7007  0.1250
 6273TIP3    H218784   2.945   6.174   1.541 -1.4859  0.4269  0.1585
 6274TIP3   OH218785   1.609   0.190   4.774 -0.0936 -0.0438  0.5990
 6274TIP3    H118786   1.561   0.149   4.846 -0.8471  0.1148  0.1959
 6274TIP3    H218787   1.689   0.139   4.766 -0.6642 -0.9640  0.6068
 6275TIP3   OH218788   6.652   1.869   4.561  0.1412  0.1693 -0.6029
 6275TIP3    H118789   6.670   1.804   4.630  0.5500 -0.6956 -1.4970
 6275TIP3    H218790   6.737   1.906   4.541 -0.3259  2.5328  1.3198
 6276TIP3   OH218791   2.523   2.176   3.325 -0.1019 -0.0517 -0.3962
 6276TIP3    H118792   2.509   2.098   3.272 -0.9806 -0.1313 -0.0657
 6276TIP3    H218793   2.459   2.169   3.396 -0.1208  0.9159 -0.2983
 6277TIP3   OH218794   3.657   3.041   1.418 -0.0340  0.1439  0.1965
 6277TIP3    H118795   3.720   3.026   1.489  1.3368  2.4771 -0.3980
 6277TIP3    H218796   3.711   3.054   1.340 -1.4187 -0.3844 -0.8972
 6278TIP3   OH218797   1.680   3.190   4.164 -0.0527 -0.0164 -0.3918
 6278TIP3    H118798   1.635   3.237   4.093 -0.4760  0.3673  0.1242
 6278TIP3    H218799   1.644   3.101   4.159 -1.1816  0.3802  0.2559
 6279TIP3   OH218800   6.392   4.798   3.083 -0.2794 -0.4890 -0.2673
 6279TIP3    H118801   6.476   4.813   3.040 -0.2403 -0.4819 -0.1881
 6279TIP3    H218802   6.383   4.872   3.144 -0.2114 -0.6421 -0.0702
 6280TIP3   OH218803   1.420   2.936   0.319 -0.2862 -0.1486  0.4856
 6280TIP3    H118804   1.359   2.917   0.248  0.1454 -1.6027  0.4818
 6280TIP3    H218805   1.373   2.999   0.374 -1.0169  0.2284 -0.5363
 6281TIP3   OH218806   4.991   5.861  -0.023  0.2252  0.4187  0.9591
 6281TIP3    H118807   5.067   5.809   0.000 -0.3680 -0.4897  0.9482
 6281TIP3    H218808   4.943   5.872   0.059 -0.3570 -0.2481  0.7157
 6282TIP3   OH218809   2.705   2.973   1.828 -0.1715  0.4589 -0.3472
 6282TIP3    H118810   2.790   2.946   1.793 -0.1334  0.3703 -0.1855
 6282TIP3    H218811   2.693   2.921   1.907 -0.5606  0.1698 -0.5892
 6283TIP3   OH218812   2.082   3.467   4.094  0.4755  0.0966 -0.3257
 6283TIP3    H118813   2.117   3.424   4.173  0.0885  0.3948  0.0087
 6283TIP3    H218814   2.020   3.404   4.058  1.0498 -0.2666 -0.6976
 6284TIP3   OH218815   2.892   4.718   5.166  0.5002 -0.0357 -0.4330
 6284TIP3    H118816   2.947   4.660   5.114 -0.4406 -1.6975  0.3425
 6284TIP3    H218817   2.842   4.659   5.223 -2.6180  1.3147 -1.5912
 6285TIP3   OH218818   1.945   6.071   3.747 -0.5792 -0.0986  0.2534
 6285TIP3    H118819   1.998   6.040   3.821  1.5640  2.0029 -0.2889
 6285TIP3    H218820   1.941   5.996   3.688  3.0578 -0.0401 -0.2826
 6286TIP3   OH218821   4.519   3.865   0.580  0.0530  0.2471  0.5027
 6286TIP3    H118822   4.599   3.829   0.617 -0.8410 -1.8636  0.5125
 6286TIP3    H218823   4.456   3.793   0.584 -0.8647  0.7282 -2.6585
 6287TIP3   OH218824   2.383   5.714   5.740  0.1155 -0.2500 -0.0458
 6287TIP3    H118825   2.345   5.762   5.667 -2.6392 -2.4282 -0.2554
 6287TIP3    H218826   2.434   5.778   5.789 -2.0013  2.4348 -1.1517
 6288TIP3   OH218827   6.235   4.298   4.339  0.1304 -0.0647  0.2549
 6288TIP3    H118828   6.268   4.212   4.310 -1.1011 -0.5224  0.1675
 6288TIP3    H218829   6.146   4.281   4.367  0.0807  1.0879  0.8340
 6289TIP3   OH218830   3.404   6.648   0.466  0.2406  0.3466  0.7123
 6289TIP3    H118831   3.370   6.559   0.458  1.1892  0.1164 -1.4478
 6289TIP3    H218832   3.327   6.704   0.457 -0.0441 -0.2358 -0.8819
 6290TIP3   OH218833   4.531   1.789   4.569  0.4565 -0.1402  0.0786
 6290TIP3    H118834   4.531   1.701   4.608 -4.0237 -0.2165  0.4002
 6290TIP3    H218835   4.463   1.836   4.617 -1.8698  1.3913 -4.2705
 6291TIP3   OH218836   3.715   5.454   3.580  0.1376 -0.4367  0.2676
 6291TIP3    H118837   3.802   5.416   3.579  0.6545  0.6092  2.0262
 6291TIP3    H218838   3.674   5.423   3.499  1.8795 -1.4982 -0.2444
 6292TIP3   OH218839   5.237   0.128   2.986  0.2169 -0.9062 -0.7082
 6292TIP3    H118840   5.223   0.113   3.080  0.9262 -0.6052 -0.5466
 6292TIP3    H218841   5.300   0.061   2.960 -0.0101 -1.0164 -0.9836
 6293TIP3   OH218842   2.414   0.143   0.817  0.3227  0.1846 -0.1124
 6293TIP3    H118843   2.491   0.189   0.850  0.5111 -0.1979 -0.0199
 6293TIP3    H218844   2.348   0.156   0.885  0.8269 -0.9332  0.6231
 6294TIP3   OH218845   2.843   4.941   2.492 -0.1065  0.5291  0.1710
 6294TIP3    H118846   2.860   4.865   2.437  0.7154  0.4913  0.4717
 6294TIP3    H218847   2.815   4.905   2.576  0.6603  0.5331  0.4414
 6295TIP3   OH218848   4.821   5.357   1.607 -0.3842 -0.1184  0.5181
 6295TIP3    H118849   4.844   5.423   1.673  0.6345  0.3430 -0.2564
 6295TIP3    H218850   4.848   5.274   1.646  1.0519  0.2402  0.3509
 6296TIP3   OH218851   3.332   3.451   2.703 -0.5779 -0.2421  0.8553
 6296TIP3    H118852   3.395   3.471   2.773  0.4059  0.7234 -0.2698
 6296TIP3    H218853   3.252   3.429   2.750  0.1488  0.0332  2.3014
 6297TIP3   OH218854   3.465   3.481   0.072 -0.1811  0.4459  0.9999
 6297TIP3    H118855   3.418   3.398   0.065  0.1385  0.0582  2.8455
 6297TIP3    H218856   3.398   3.548   0.060 -0.1513  0.0655 -2.5497
 6298TIP3   OH218857   1.976   2.975   0.440 -0.1878 -0.0517  0.0067
 6298TIP3    H118858   1.940   3.060   0.467 -2.0099 -0.5221 -0.8265
 6298TIP3    H218859   1.908   2.912   0.460  0.7490 -1.2005 -0.3102
 6299TIP3   OH218860   5.188   3.537   2.638  0.0435  0.6285 -0.0601
 6299TIP3    H118861   5.170   3.512   2.729  0.5281  0.2733 -0.0569
 6299TIP3    H218862   5.154   3.626   2.631 -1.5075  0.0718 -0.0143
 6300TIP3   OH218863   6.039   4.553   4.476  0.4019  0.2943 -0.1970
 6300TIP3    H118864   6.037   4.463   4.443 -1.4928  1.1436 -2.6951
 6300TIP3    H218865   6.004   4.606   4.405 -1.4103  2.6942  2.2663
 6301TIP3   OH218866   0.732   0.374   5.499  0.1148  0.0396 -0.4762
 6301TIP3    H118867   0.786   0.453   5.494  0.4570 -0.1358  0.3040
 6301TIP3    H218868   0.766   0.316   5.431  1.6235 -0.4906  0.6810
 6302TIP3   OH218869   2.147   2.173   0.699 -0.0529  0.3624  0.8001
 6302TIP3    H118870   2.152   2.080   0.678 -0.2892  0.4785  0.2061
 6302TIP3    H218871   2.118   2.214   0.617  2.9558  1.3315  0.0872
 6303TIP3   OH218872   1.324   1.417   2.768 -0.0412 -0.5390  0.0860
 6303TIP3    H118873   1.374   1.411   2.686  0.2497  0.0490  0.2151
 6303TIP3    H218874   1.255   1.480   2.748 -0.3278 -0.8470  0.1128
 6304TIP3   OH218875   5.478   6.107   2.320 -0.2036 -0.1718  0.1371
 6304TIP3    H118876   5.570   6.110   2.295 -0.4368  1.3322 -0.6285
 6304TIP3    H218877   5.458   6.196   2.349 -1.3037 -0.6070  0.7708
 6305TIP3   OH218878   4.387   1.458   0.614  0.2345 -0.5436  0.3302
 6305TIP3    H118879   4.365   1.518   0.543  0.2305 -1.8261 -0.7885
 6305TIP3    H218880   4.462   1.499   0.658  1.9197 -0.9019 -2.0284
 6306TIP3   OH218881   1.800   6.258   2.814  0.3120 -0.2809  0.0856
 6306TIP3    H118882   1.776   6.175   2.771 -0.1638 -0.3431  0.4632
 6306TIP3    H218883   1.863   6.232   2.882 -1.9238 -0.7609  2.1148
 6307TIP3   OH218884   3.118   2.105   3.396  0.2672 -0.5340 -0.2076
 6307TIP3    H118885   3.112   2.100   3.491 -0.1882 -0.5495 -0.2367
 6307TIP3    H218886   3.074   2.187   3.373 -3.1550 -2.3135 -0.6931
 6308TIP3   OH218887  -0.001   2.407   2.562  0.0663  0.0686  0.4945
 6308TIP3    H118888   0.073   2.467   2.564 -0.5653  0.8380  1.4511
 6308TIP3    H218889   0.037   2.322   2.583  0.7156  0.4095  0.7463
 6309TIP3   OH218890   2.611   3.722   4.331  0.1557 -0.1959  0.5192
 6309TIP3    H118891   2.519   3.729   4.356  0.1675  1.3825  0.2092
 6309TIP3    H218892   2.610   3.714   4.236  0.3873  2.8242  0.1815
 6310TIP3   OH218893   4.931   1.246   1.265  0.3210  0.5254 -0.3296
 6310TIP3    H118894   4.853   1.190   1.276  0.3317  0.9767  3.1714
 6310TIP3    H218895   4.913   1.295   1.185 -1.1802 -2.0850 -1.7742
 6311TIP3   OH218896   6.057   4.782   4.004 -0.1187  0.3659  0.0776
 6311TIP3    H118897   6.081   4.766   3.912 -1.2518  1.1013 -0.3688
 6311TIP3    H218898   6.056   4.878   4.012  0.4765  0.3126  1.0154
 6312TIP3   OH218899   3.940   1.606   5.333 -0.2623 -0.4858  0.7445
 6312TIP3    H118900   3.983   1.671   5.278  0.4781  0.1411  2.0116
 6312TIP3    H218901   3.858   1.648   5.360 -0.1050 -0.3519  1.0129
 6313TIP3   OH218902   6.200   4.635   4.690  0.5532 -0.4035  0.5587
 6313TIP3    H118903   6.138   4.624   4.618 -0.0989  0.4647  0.9584
 6313TIP3    H218904   6.208   4.548   4.728 -2.8095 -0.0950  2.3739
 6314TIP3   OH218905   5.251   4.646   1.412  0.0488 -0.1253 -0.5260
 6314TIP3    H118906   5.166   4.609   1.388  0.2007 -0.4608 -0.5468
 6314TIP3    H218907   5.262   4.622   1.504 -0.0043  0.1572 -0.4450
 6315TIP3   OH218908   2.450   0.698   5.295 -0.2607 -0.4633  0.4970
 6315TIP3    H118909   2.409   0.638   5.358 -1.4519 -1.1342 -0.8682
 6315TIP3    H218910   2.503   0.641   5.239  0.6664  0.1101  0.7684
 6316TIP3   OH218911   4.620   5.130   1.790 -0.0239  0.5358 -0.1504
 6316TIP3    H118912   4.674   5.115   1.867 -1.3186  1.0262  0.8775
 6316TIP3    H218913   4.535   5.158   1.824 -1.2588 -1.0871 -1.6687
 6317TIP3   OH218914   0.053   4.480   4.319 -0.3467  0.0802 -0.7920
 6317TIP3    H118915   0.106   4.453   4.244  0.0010 -1.2533 -0.0838
 6317TIP3    H218916   0.010   4.561   4.289  0.5157  0.0967 -2.0815
 6318TIP3   OH218917   3.819   0.312   0.860  0.1119 -0.0779  0.2425
 6318TIP3    H118918   3.781   0.307   0.948  0.4757 -0.9001  0.3600
 6318TIP3    H218919   3.774   0.386   0.819 -0.7138 -0.2556  0.8070
 6319TIP3   OH218920   4.851   6.457   0.819  0.4401 -0.0472  0.2975
 6319TIP3    H118921   4.816   6.368   0.820  0.1426  0.0696  1.2039
 6319TIP3    H218922   4.774   6.513   0.819  0.6022  0.2388 -1.7288
 6320TIP3   OH218923   6.583   0.543   0.077 -0.1657 -0.2700  0.0687
 6320TIP3    H118924   6.660   0.495   0.107  0.8625  0.2896 -1.5417
 6320TIP3    H218925   6.554   0.593   0.154  0.4740 -1.2272  0.9592
 6321TIP3   OH218926   1.107   3.841   1.836  0.1759 -0.3581  0.4182
 6321TIP3    H118927   1.057   3.911   1.793  0.4752 -0.7340 -0.5727
 6321TIP3    H218928   1.194   3.847   1.798  0.6096 -0.3351  1.4165
 6322TIP3   OH218929   0.167   2.894   0.715  0.1629 -0.0804 -0.5387
 6322TIP3    H118930   0.191   2.956   0.785  3.0434  0.2422 -1.6532
 6322TIP3    H218931   0.249   2.848   0.696 -0.8890 -1.1745 -2.6986
 6323TIP3   OH218932   6.477   1.385   1.084 -0.0566  0.1866 -0.3761
 6323TIP3    H118933   6.478   1.458   1.023  0.8961  1.4797  1.1047
 6323TIP3    H218934   6.539   1.322   1.047  2.3793  1.9894  0.3501
 6324TIP3   OH218935   0.978   1.207   2.947 -0.2531 -0.7962  0.3537
 6324TIP3    H118936   0.897   1.244   2.913 -0.5748 -2.0905 -0.3544
 6324TIP3    H218937   0.994   1.256   3.028 -1.2113  0.1368  0.0090
 6325TIP3   OH218938   4.308   6.066   1.833  0.1963  0.5606 -0.1161
 6325TIP3    H118939   4.364   6.142   1.820  1.2964 -0.3354 -0.8549
 6325TIP3    H218940   4.232   6.083   1.778  0.4266  1.1330 -0.2646
 6326TIP3   OH218941   5.621   1.904   3.049  0.1759  0.4384 -0.4653
 6326TIP3    H118942   5.703   1.933   3.090  0.2968  1.6451 -1.4837
 6326TIP3    H218943   5.554   1.957   3.092 -0.1530 -0.8625  0.6787
 6327TIP3   OH218944   6.941   5.861   2.745 -0.1213 -0.5115  0.4510
 6327TIP3    H118945   6.959   5.789   2.805 -1.1388 -0.5372  0.7407
 6327TIP3    H218946   6.908   5.818   2.666 -0.4417 -0.3824  0.5136
 6328TIP3   OH218947   3.880   3.267   3.405 -0.7972 -0.2379  0.1422
 6328TIP3    H118948   3.859   3.237   3.317 -0.4833  0.4335 -0.1666
 6328TIP3    H218949   3.904   3.359   3.394 -1.4689  0.0499  1.0301
 6329TIP3   OH218950   0.508   0.679   3.755  0.4539  0.3745  0.3874
 6329TIP3    H118951   0.463   0.595   3.767  0.3051  0.3725 -0.1952
 6329TIP3    H218952   0.581   0.659   3.697  0.8032  0.5223  0.7671
 6330TIP3   OH218953   5.686   3.784   2.417 -0.8637 -0.3403 -0.1362
 6330TIP3    H118954   5.775   3.772   2.384 -0.4839 -1.5101  1.1931
 6330TIP3    H218955   5.683   3.875   2.446 -0.2125 -0.1922 -0.5272
 6331TIP3   OH218956   2.758   2.120   3.924 -0.9397  0.1235  0.3652
 6331TIP3    H118957   2.786   2.168   4.002  0.4882 -0.6229  0.3424
 6331TIP3    H218958   2.829   2.059   3.907 -2.0440 -0.9671 -0.4798
 6332TIP3   OH218959   4.531   3.802   1.892  0.1267  0.1905 -0.6252
 6332TIP3    H118960   4.439   3.815   1.869 -0.5230  0.4330  1.8320
 6332TIP3    H218961   4.555   3.720   1.849 -1.0630  0.3812 -1.7179
 6333TIP3   OH218962   4.506   0.793   1.423  0.3389 -0.3525 -0.1438
 6333TIP3    H118963   4.440   0.764   1.361  0.9315 -1.3889 -0.2999
 6333TIP3    H218964   4.559   0.716   1.441  0.0362 -0.1578  1.8391
 6334TIP3   OH218965   1.936   2.904   0.108  0.0094  0.7418  0.7266
 6334TIP3    H118966   2.012   2.862   0.149  1.5551  2.8635  0.2063
 6334TIP3    H218967   1.870   2.906   0.177  1.0491  0.4162  1.7776
 6335TIP3   OH218968   3.538   3.605   5.477 -0.2346 -0.1815  0.6042
 6335TIP3    H118969   3.533   3.650   5.392 -0.5738 -4.6329 -2.0286
 6335TIP3    H218970   3.447   3.585   5.499 -0.0855  0.2430  1.7052
 6336TIP3   OH218971   5.582   4.806   0.061 -0.2308  0.0454 -0.4334
 6336TIP3    H118972   5.674   4.831   0.054  0.1636 -0.9868  0.6441
 6336TIP3    H218973   5.556   4.833   0.149 -0.9950  0.3909 -0.7519
 6337TIP3   OH218974   1.832   0.944   2.174 -0.0866 -0.4186 -0.0422
 6337TIP3    H118975   1.774   0.926   2.100  0.4811 -0.7626 -0.4135
 6337TIP3    H218976   1.844   0.859   2.216 -1.5775  0.0013  1.3479
 6338TIP3   OH218977   5.547   5.729   2.291 -0.1834 -0.0445  0.3620
 6338TIP3    H118978   5.522   5.756   2.379 -1.3265 -0.3869  0.1510
 6338TIP3    H218979   5.634   5.766   2.279 -0.6300  1.2862  1.0632
 6339TIP3   OH218980   3.076   4.605   5.012 -0.0776  0.2185  0.3426
 6339TIP3    H118981   3.166   4.600   5.046  0.7496  1.6363 -1.4608
 6339TIP3    H218982   3.052   4.514   4.995 -0.1168 -0.4498  3.4681
 6340TIP3   OH218983   1.832   4.808   4.296 -0.1759  0.6444 -0.1845
 6340TIP3    H118984   1.863   4.786   4.209 -0.2175 -0.1034 -0.0189
 6340TIP3    H218985   1.748   4.763   4.304  0.1543  0.1232  0.4877
 6341TIP3   OH218986   2.111   4.251   2.470  0.1697 -0.4827  0.2692
 6341TIP3    H118987   2.076   4.335   2.441 -0.6147 -0.7169  0.5109
 6341TIP3    H218988   2.197   4.272   2.507  1.2390 -0.1668 -2.2123
 6342TIP3   OH218989   1.156   3.894   2.536 -0.0311 -0.2504 -0.0094
 6342TIP3    H118990   1.241   3.902   2.493  0.3989  0.2112  0.9056
 6342TIP3    H218991   1.166   3.940   2.619 -1.0888 -0.4398  0.2415
 6343TIP3   OH218992   4.532   5.560   3.172 -0.1100 -0.2316  0.0376
 6343TIP3    H118993   4.520   5.486   3.231  0.8346  0.7392  1.5159
 6343TIP3    H218994   4.450   5.609   3.178 -0.5392 -0.8524 -0.5489
 6344TIP3   OH218995   5.328   6.602   3.044  0.1952 -0.4675  0.2837
 6344TIP3    H118996   5.262   6.532   3.039  0.4736 -0.7923  1.0345
 6344TIP3    H218997   5.355   6.615   2.953  0.4359 -1.6267  0.1780
 6345TIP3   OH218998   5.377   6.171   3.061  0.3381  0.1357  0.0114
 6345TIP3    H118999   5.334   6.169   3.147  0.1023  0.1601 -0.1055
 6345TIP3    H219000   5.341   6.247   3.018 -0.0961 -0.2955 -0.3951
 6346TIP3   OH219001   5.161   2.463   2.943  0.5840 -0.1501 -0.5265
 6346TIP3    H119002   5.127   2.543   2.983  1.5849 -0.4627  1.0321
 6346TIP3    H219003   5.227   2.492   2.881 -0.0547  0.2863 -1.0115
 6347TIP3   OH219004   4.850   6.539   5.368 -0.2168  0.2364  0.7106
 6347TIP3    H119005   4.914   6.531   5.438 -1.4501  1.0362  1.9890
 6347TIP3    H219006   4.849   6.632   5.346 -1.4213  0.3656  1.2177
 6348TIP3   OH219007   0.017   5.813   3.324  0.3411 -0.3398 -0.1118
 6348TIP3    H119008  -0.009   5.804   3.233 -0.1344 -1.4630  0.1155
 6348TIP3    H219009   0.025   5.907   3.338  1.1352 -0.1707 -1.5061
 6349TIP3   OH219010   3.025   1.431   4.200  0.6222  0.3623 -0.4073
 6349TIP3    H119011   2.938   1.401   4.227  0.7397  0.0226 -0.3912
 6349TIP3    H219012   3.048   1.373   4.127  1.6092 -0.7860  0.7576
 6350TIP3   OH219013   6.553   0.551   4.050  0.7670 -0.1917  0.1107
 6350TIP3    H119014   6.581   0.604   3.975 -0.8604 -0.7455 -0.9416
 6350TIP3    H219015   6.560   0.461   4.021 -1.1657 -0.3841  0.0934
 6351TIP3   OH219016   0.233   5.524   4.211 -0.2455 -0.1373 -0.1053
 6351TIP3    H119017   0.155   5.572   4.183 -1.8135 -1.6376  1.4979
 6351TIP3    H219018   0.264   5.479   4.132  0.0750  1.8093 -1.1522
 6352TIP3   OH219019   5.651   2.698   0.454 -0.1428 -0.4238  0.0066
 6352TIP3    H119020   5.565   2.687   0.414  0.2610 -0.9418 -0.7261
 6352TIP3    H219021   5.648   2.642   0.532 -0.3904 -0.6159 -0.1401
 6353TIP3   OH219022   0.272   3.789   2.521 -0.2632  0.0156  0.6981
 6353TIP3    H119023   0.328   3.862   2.547 -0.7955  0.5762  0.2865
 6353TIP3    H219024   0.223   3.822   2.446  0.9403 -1.4176 -0.8002
 6354TIP3   OH219025   1.818   2.200   0.288 -0.3603  0.0861  0.0726
 6354TIP3    H119026   1.880   2.262   0.249 -1.0671  0.5279 -0.3816
 6354TIP3    H219027   1.826   2.214   0.382 -1.3841  1.7743 -0.0492
 6355TIP3   OH219028   1.626   4.653   3.351 -0.6036 -0.5169 -0.2998
 6355TIP3    H119029   1.683   4.726   3.326 -1.8021  0.2153 -0.9600
 6355TIP3    H219030   1.625   4.655   3.447  1.3037 -1.2208 -0.2126
 6356TIP3   OH219031   5.109   2.721   2.490 -0.7248 -0.8657  0.3367
 6356TIP3    H119032   5.089   2.628   2.499  1.5496 -1.4367  0.1451
 6356TIP3    H219033   5.053   2.751   2.419 -0.7105 -2.3875 -0.3547
 6357TIP3   OH219034   4.433   0.256   4.189 -0.2362 -0.3972 -0.6989
 6357TIP3    H119035   4.450   0.232   4.280 -1.3959  1.3221  0.0287
 6357TIP3    H219036   4.340   0.240   4.177 -0.0372 -0.8813 -1.6918
 6358TIP3   OH219037   5.122   5.435   2.250  0.8967  0.6158  0.8199
 6358TIP3    H119038   5.067   5.374   2.299  1.1905 -2.4027 -2.2008
 6358TIP3    H219039   5.210   5.396   2.253  0.6964 -0.5995 -2.9643
 6359TIP3   OH219040   7.173   2.154   4.280 -0.3236 -0.4565 -0.1981
 6359TIP3    H119041   7.096   2.193   4.322  1.1774  0.2699  2.1124
 6359TIP3    H219042   7.183   2.069   4.323 -0.7882 -1.3478 -1.7581
 6360TIP3   OH219043   5.563   3.815   0.091  0.3973  0.1997 -0.6237
 6360TIP3    H119044   5.594   3.751   0.027 -1.2105 -0.0135 -1.2375
 6360TIP3    H219045   5.502   3.766   0.147  2.8119 -0.0137  2.0925
 6361TIP3   OH219046   6.915   0.886   0.485  0.6205 -0.6982  0.0145
 6361TIP3    H119047   6.914   0.859   0.577  1.5348 -0.4259  0.1184
 6361TIP3    H219048   6.895   0.979   0.487 -3.2324 -1.3448 -0.3959
 6362TIP3   OH219049   1.330   4.246   5.820  0.5206  0.5156 -0.3729
 6362TIP3    H119050   1.270   4.318   5.839  0.6659 -0.0298  2.5769
 6362TIP3    H219051   1.414   4.276   5.854  1.1866 -0.0552 -1.4723
 6363TIP3   OH219052   1.088   1.575   1.251 -0.0566 -0.2648 -0.1230
 6363TIP3    H119053   1.094   1.625   1.333 -1.0687 -0.9855  0.4167
 6363TIP3    H219054   1.028   1.626   1.196  1.6527  0.9170 -0.9765
 6364TIP3   OH219055   1.197   6.006   1.149 -1.0834  0.0097 -0.3127
 6364TIP3    H119056   1.278   5.959   1.133 -0.7491  0.2873  0.4685
 6364TIP3    H219057   1.141   5.943   1.194 -0.8288  0.1758  0.2605
 6365TIP3   OH219058   4.815   2.941   2.123  0.0002 -0.1368  0.2780
 6365TIP3    H119059   4.755   3.012   2.144 -0.0382  0.2153 -0.9923
 6365TIP3    H219060   4.897   2.985   2.099  1.1798 -0.6186  3.0308
 6366TIP3   OH219061   4.940   1.119   0.080  0.2063  0.4548 -0.4493
 6366TIP3    H119062   4.890   1.162   0.011  0.3620  1.3467 -0.0239
 6366TIP3    H219063   5.014   1.079   0.035 -0.6202 -0.4595 -1.0189
 6367TIP3   OH219064   0.522   1.857   4.747  0.0133 -0.0321  0.0157
 6367TIP3    H119065   0.463   1.844   4.821 -0.7682 -0.1517 -0.6185
 6367TIP3    H219066   0.499   1.788   4.684  0.2758  0.4123 -0.5847
 6368TIP3   OH219067   1.676   0.874   4.418 -0.3240 -0.8443  0.3048
 6368TIP3    H119068   1.682   0.970   4.410 -0.5711 -0.6776  1.9379
 6368TIP3    H219069   1.733   0.852   4.491  0.1395 -2.0285 -0.3825
 6369TIP3   OH219070   4.459   0.824   3.496  0.2977  0.0315 -0.9394
 6369TIP3    H119071   4.416   0.894   3.445 -0.5015  0.1574 -0.1252
 6369TIP3    H219072   4.475   0.864   3.582 -1.8218 -1.2818  0.1521
 6370TIP3   OH219073   6.812   0.686   5.169 -0.6963 -0.1490  0.4301
 6370TIP3    H119074   6.772   0.770   5.193 -0.5799 -0.3045  1.2094
 6370TIP3    H219075   6.739   0.624   5.169 -0.4768 -0.4419  1.8979
 6371TIP3   OH219076   0.054   3.716   1.751 -0.0903  0.0269 -0.0369
 6371TIP3    H119077   0.069   3.674   1.835 -1.0111 -0.0789  0.0819
 6371TIP3    H219078   0.036   3.644   1.691  1.9539 -0.0239 -0.6696
 6372TIP3   OH219079   1.950   4.732   0.107 -0.2186 -0.2610 -0.4192
 6372TIP3    H119080   2.043   4.716   0.120 -0.2379  0.6630  1.0642
 6372TIP3    H219081   1.924   4.786   0.181 -1.8792 -0.2426 -0.9679
 6373TIP3   OH219082   4.389   2.525   2.017 -0.0793 -0.0824 -0.0362
 6373TIP3    H119083   4.353   2.438   1.997  0.8347 -0.4180 -0.2742
 6373TIP3    H219084   4.421   2.519   2.107 -0.2988  0.1071  0.0556
 6374TIP3   OH219085   3.401   2.788   0.834  0.2461 -0.0464  0.1295
 6374TIP3    H119086   3.363   2.868   0.797 -1.8368 -0.7938  0.5401
 6374TIP3    H219087   3.484   2.777   0.787 -0.6080  0.9919 -1.7274
 6375TIP3   OH219088   5.687   6.382   1.297  0.0253  0.3750 -0.1216
 6375TIP3    H119089   5.780   6.360   1.309  0.7940  3.2493 -0.2301
 6375TIP3    H219090   5.668   6.357   1.207  0.9948  0.7032 -0.4347
 6376TIP3   OH219091   0.225   4.688   3.975 -0.2755 -0.3420  0.0221
 6376TIP3    H119092   0.187   4.637   3.904  0.4276 -2.8525  1.3285
 6376TIP3    H219093   0.240   4.775   3.937 -0.4251 -1.4039 -2.6975
 6377TIP3   OH219094   5.618   2.871   2.065  0.1190 -0.0718  0.5330
 6377TIP3    H119095   5.714   2.867   2.067  0.1970  0.6906 -0.8160
 6377TIP3    H219096   5.590   2.797   2.119  1.4828 -1.6560 -0.8025
 6378TIP3   OH219097   0.429   3.863   0.741  0.5606  0.3929 -0.3224
 6378TIP3    H119098   0.416   3.956   0.721  0.4238  0.3035 -0.6488
 6378TIP3    H219099   0.425   3.859   0.837  1.4528  0.8547 -0.2601
 6379TIP3   OH219100   0.723   3.860   3.085 -0.2612  0.6709  0.3977
 6379TIP3    H119101   0.756   3.913   3.158  1.3998  1.3871 -0.7868
 6379TIP3    H219102   0.666   3.919   3.036  1.0259  1.2145 -0.5220
 6380TIP3   OH219103   0.773   0.063   1.184 -0.0865  0.2944 -0.6962
 6380TIP3    H119104   0.722   0.116   1.123 -0.2853  1.1292  0.1632
 6380TIP3    H219105   0.773  -0.024   1.146 -2.1326  0.2795 -0.7467
 6381TIP3   OH219106   3.405   1.886   0.957 -0.2282  0.0581 -0.1339
 6381TIP3    H119107   3.424   1.794   0.938 -1.2264 -0.3052  0.5622
 6381TIP3    H219108   3.490   1.930   0.949  0.4560 -1.0989  0.5176
 6382TIP3   OH219109   1.675   6.456   1.924  0.4219 -0.0681  0.3896
 6382TIP3    H119110   1.737   6.455   1.851 -0.5266  0.3020 -0.4525
 6382TIP3    H219111   1.688   6.372   1.968  1.6546  0.1009  0.3672
 6383TIP3   OH219112   5.903   6.736   3.474 -0.5185 -0.6269 -0.2082
 6383TIP3    H119113   5.838   6.666   3.478  0.7263 -1.7743  2.6983
 6383TIP3    H219114   5.975   6.698   3.422 -0.7971 -0.6040 -0.6160
 6384TIP3   OH219115   1.868   0.834   5.827  0.0966 -0.6108 -0.3253
 6384TIP3    H119116   1.906   0.786   5.900 -1.4391 -1.8574 -0.3046
 6384TIP3    H219117   1.794   0.781   5.798 -0.7556  1.0096 -1.2845
 6385TIP3   OH219118   0.055   5.828   0.933  0.2716  0.0064  0.3199
 6385TIP3    H119119   0.079   5.827   0.840  0.6172 -0.7334  0.4061
 6385TIP3    H219120   0.019   5.915   0.948 -0.0887  0.0270 -0.5872
 6386TIP3   OH219121   5.409   1.705   1.633  0.2192 -0.1242 -0.3899
 6386TIP3    H119122   5.482   1.761   1.607 -1.3031  1.1243 -2.2713
 6386TIP3    H219123   5.350   1.763   1.682  0.5248 -1.1602  1.2906
 6387TIP3   OH219124   4.350   1.392   1.275 -0.3438 -0.4866 -0.4294
 6387TIP3    H119125   4.315   1.347   1.351 -2.1895  0.1523 -0.8612
 6387TIP3    H219126   4.441   1.410   1.298 -1.0906  0.5165  2.0223
 6388TIP3   OH219127   0.056   5.309   3.888  0.0806 -0.1832  0.1368
 6388TIP3    H119128   0.040   5.368   3.815 -1.1213  0.1134  0.6099
 6388TIP3    H219129   0.149   5.321   3.909  0.9424 -1.6300 -2.4784
 6389TIP3   OH219130   4.090   6.469   3.890  0.4117 -0.0259  0.2454
 6389TIP3    H119131   4.013   6.518   3.863  1.2256  0.7069 -0.8313
 6389TIP3    H219132   4.149   6.472   3.815  1.2718 -1.0467  0.8330
 6390TIP3   OH219133   2.772   3.128   3.535 -0.0012  0.1601  0.2498
 6390TIP3    H119134   2.776   3.089   3.622 -0.0683 -0.2935  0.0561
 6390TIP3    H219135   2.757   3.053   3.476 -0.3345  0.5017 -0.1104
 6391TIP3   OH219136   4.835   2.053   4.279  0.6098  0.8295  0.0861
 6391TIP3    H119137   4.888   2.039   4.357  0.9884  0.5598 -0.2128
 6391TIP3    H219138   4.756   2.000   4.293  1.7529 -1.2332 -0.7594
 6392TIP3   OH219139   3.669   2.108   5.317 -0.0796 -0.5151 -0.2551
 6392TIP3    H119140   3.715   2.031   5.283  0.4497 -1.0427  1.5848
 6392TIP3    H219141   3.724   2.182   5.290  0.9202 -1.0043  0.3963
 6393TIP3   OH219142   3.951   2.159   3.250 -0.0793 -0.2407 -0.0811
 6393TIP3    H119143   3.891   2.119   3.313 -0.8550 -2.9639 -2.3713
 6393TIP3    H219144   3.904   2.236   3.218 -2.1811 -1.9129 -1.2826
 6394TIP3   OH219145   0.763   4.199   0.386  0.1233  0.0712 -0.4781
 6394TIP3    H119146   0.801   4.278   0.424 -0.8335 -0.2084  1.1464
 6394TIP3    H219147   0.833   4.165   0.329  1.6652  0.5313  1.0317
 6395TIP3   OH219148   4.801   2.915   5.396  0.1448  0.0470 -0.2487
 6395TIP3    H119149   4.753   2.997   5.404  0.3245  0.1482 -0.1953
 6395TIP3    H219150   4.824   2.892   5.486  2.5112  1.3907 -0.4322
 6396TIP3   OH219151   6.888   5.799   0.760 -0.0061 -0.2280  0.4637
 6396TIP3    H119152   6.825   5.834   0.697  0.1512  0.7870  0.8536
 6396TIP3    H219153   6.920   5.718   0.719  2.7363  2.0817 -2.5231
 6397TIP3   OH219154   5.854   6.357   3.801  0.2577 -0.3158 -0.4074
 6397TIP3    H119155   5.945   6.355   3.771  0.2722 -0.3688 -0.3603
 6397TIP3    H219156   5.841   6.272   3.843  0.2092 -0.2785 -0.3469
 6398TIP3   OH219157   1.457   6.176   3.116  0.7076 -0.0101 -0.2318
 6398TIP3    H119158   1.496   6.096   3.080 -0.3758 -0.5409 -0.2508
 6398TIP3    H219159   1.479   6.173   3.209 -0.8146 -1.2441  0.1145
 6399TIP3   OH219160   1.591   4.215   0.710  0.2177  0.2647 -0.0316
 6399TIP3    H119161   1.629   4.292   0.670 -0.7511  1.1861  0.7619
 6399TIP3    H219162   1.627   4.213   0.799  1.4094 -1.0745 -0.4985
 6400TIP3   OH219163   0.149   6.388   3.440 -0.2498  0.4689 -0.0109
 6400TIP3    H119164   0.170   6.295   3.429  1.0395  0.7510 -0.0368
 6400TIP3    H219165   0.069   6.388   3.493 -0.3054 -0.6501 -0.0650
 6401TIP3   OH219166   7.187   2.359   1.684 -0.1691  0.2270  0.2642
 6401TIP3    H119167   7.096   2.373   1.707  0.0684  3.0686 -0.2205
 6401TIP3    H219168   7.233   2.435   1.718  2.5054 -2.2013  2.5811
 6402TIP3   OH219169   1.354   5.714   1.988 -0.0402  0.4904  0.2178
 6402TIP3    H119170   1.407   5.785   2.022 -0.5323  0.6697  0.6300
 6402TIP3    H219171   1.384   5.636   2.036  0.0767  0.5289  0.2072
 6403TIP3   OH219172   0.651   5.181   4.794 -0.7217  0.3993  0.1957
 6403TIP3    H119173   0.647   5.275   4.808 -3.2185  0.4427 -0.4084
 6403TIP3    H219174   0.678   5.172   4.702  0.1836  0.4866  0.4446
 6404TIP3   OH219175   1.598   0.344   2.056 -0.0727  0.3404 -0.0543
 6404TIP3    H119176   1.543   0.266   2.065  0.9892 -0.1826  3.1028
 6404TIP3    H219177   1.677   0.313   2.013  0.9456 -0.7825  2.4354
 6405TIP3   OH219178   3.387   5.212   3.502 -0.1048  0.2554 -0.2135
 6405TIP3    H119179   3.355   5.122   3.512  1.2730 -0.2460 -0.1008
 6405TIP3    H219180   3.427   5.213   3.415  0.2471  0.6358 -0.0504
 6406TIP3   OH219181   0.300   0.920   1.631  0.4992 -0.4934  1.0197
 6406TIP3    H119182   0.228   0.860   1.615  0.8843 -0.4991 -1.0096
 6406TIP3    H219183   0.329   0.946   1.543  0.7446  2.1775  1.8116
 6407TIP3   OH219184   0.917   5.673   1.991 -0.0571 -0.4016  0.2690
 6407TIP3    H119185   0.972   5.663   2.069  0.3158  0.4580  0.1266
 6407TIP3    H219186   0.934   5.762   1.961  1.6568 -1.4559 -2.2009
 6408TIP3   OH219187   3.646   2.779   2.321  0.8919 -0.7080  0.0960
 6408TIP3    H119188   3.628   2.688   2.301 -0.1398 -0.5617  0.3063
 6408TIP3    H219189   3.742   2.785   2.322  1.3140 -2.9891  5.2851
 6409TIP3   OH219190   1.965  -0.003   0.607 -0.1725  0.5704 -0.4763
 6409TIP3    H119191   1.881  -0.015   0.650 -0.1586  0.5005 -0.4677
 6409TIP3    H219192   1.944   0.036   0.523 -0.1184  1.7331  0.0277
 6410TIP3   OH219193   3.694   1.624   3.307  0.0119  0.0797 -0.0733
 6410TIP3    H119194   3.761   1.561   3.333 -0.7283 -1.2331 -1.2427
 6410TIP3    H219195   3.646   1.642   3.388 -0.5517 -1.8377  0.0660
 6411TIP3   OH219196   1.343   2.711   5.450 -0.3897  0.4042  0.1249
 6411TIP3    H119197   1.371   2.740   5.363  0.5822  2.4060  1.0374
 6411TIP3    H219198   1.333   2.616   5.442  0.6025  0.4253 -1.9222
 6412TIP3   OH219199   5.524   6.012   1.480  0.5764 -0.6279 -0.0243
 6412TIP3    H119200   5.486   6.100   1.485 -2.0297 -1.6935  0.7354
 6412TIP3    H219201   5.525   5.992   1.387  0.3059 -0.1455 -0.1359
 6413TIP3   OH219202   5.359   0.385   2.983 -0.0385  0.3158 -0.4478
 6413TIP3    H119203   5.357   0.397   3.077  0.8795 -0.7099 -0.2823
 6413TIP3    H219204   5.311   0.303   2.968  2.0658 -0.9734 -0.5741
 6414TIP3   OH219205   3.166   4.863   4.260  0.3546  0.0830  0.3270
 6414TIP3    H119206   3.219   4.921   4.315  0.7142 -0.3447  0.4374
 6414TIP3    H219207   3.219   4.847   4.182  0.7129 -0.9308  0.7595
 6415TIP3   OH219208   6.511   0.467   4.739 -0.4037  0.1956  0.1481
 6415TIP3    H119209   6.483   0.420   4.660 -1.5166  2.4224 -0.8688
 6415TIP3    H219210   6.601   0.438   4.754 -0.8633 -1.8366 -0.6902
 6416TIP3   OH219211   3.102   0.224   1.875  0.3414 -0.5814 -0.1586
 6416TIP3    H119212   3.179   0.179   1.841  1.4358  0.6525  0.5976
 6416TIP3    H219213   3.118   0.316   1.857 -0.9431 -0.2958  0.0626
 6417TIP3   OH219214   1.081   5.917   2.939 -0.2728 -0.0223  0.0604
 6417TIP3    H119215   1.127   5.996   2.968  2.4855 -1.2334 -0.6934
 6417TIP3    H219216   1.018   5.949   2.875  0.8508  1.5940 -0.3173
 6418TIP3   OH219217   4.863   2.204   3.574 -0.1728  0.3217  0.2926
 6418TIP3    H119218   4.793   2.268   3.577 -1.0437 -0.5781 -0.3191
 6418TIP3    H219219   4.913   2.218   3.655 -1.1375  0.8799  0.7966
 6419TIP3   OH219220   2.871   6.310   4.693 -0.2248 -0.7807  0.2300
 6419TIP3    H119221   2.920   6.238   4.653 -1.0056 -1.4925  0.5366
 6419TIP3    H219222   2.784   6.274   4.710 -0.3436 -0.0655  1.2689
 6420TIP3   OH219223   3.715   2.463   4.843 -0.2730 -0.7100  0.0786
 6420TIP3    H119224   3.628   2.440   4.812 -1.5237  1.9182  1.3131
 6420TIP3    H219225   3.760   2.498   4.766 -1.4817  0.8256  0.0054
 6421TIP3   OH219226   3.875   1.423   2.776  0.6574 -0.1091  0.1927
 6421TIP3    H119227   3.897   1.353   2.714  0.8443  0.2368 -0.1356
 6421TIP3    H219228   3.935   1.410   2.849  0.3328 -0.6131  0.3790
 6422TIP3   OH219229   0.031   6.118   2.933  0.0896 -0.0772  0.2095
 6422TIP3    H119230   0.126   6.109   2.922  0.3637  1.9239  0.6700
 6422TIP3    H219231   0.021   6.162   3.017 -1.0964  2.1140 -0.9920
 6423TIP3   OH219232   0.166   2.817   3.639  0.2267 -0.2497 -0.1723
 6423TIP3    H119233   0.209   2.901   3.625 -0.7353  0.1629 -0.8054
 6423TIP3    H219234   0.107   2.831   3.713 -0.5102 -0.1132 -0.7622
 6424TIP3   OH219235   5.929   0.202   4.225  0.4603 -0.7597 -0.2345
 6424TIP3    H119236   5.852   0.146   4.210 -0.4289  0.8323 -1.9712
 6424TIP3    H219237   5.933   0.210   4.321 -1.2832 -1.2321 -0.0757
 6425TIP3   OH219238   2.505   5.254   4.727 -0.3496 -0.2318 -0.1713
 6425TIP3    H119239   2.472   5.281   4.813 -0.6010  0.5574 -0.5045
 6425TIP3    H219240   2.427   5.220   4.681 -0.3121 -0.2112 -0.2507
 6426TIP3   OH219241   2.549   1.147   3.844 -0.6900 -0.2061 -0.0143
 6426TIP3    H119242   2.503   1.084   3.898 -1.0965  1.1038  1.2352
 6426TIP3    H219243   2.602   1.198   3.905 -1.1613  1.3205 -0.7960
 6427TIP3   OH219244   6.338   5.850   1.298  0.7783 -0.5133  0.1571
 6427TIP3    H119245   6.379   5.926   1.339 -0.8271  1.0543 -0.9728
 6427TIP3    H219246   6.375   5.847   1.210  0.9982 -1.1903  0.2682
 6428TIP3   OH219247   0.485   0.736   5.479  0.4226  0.2405 -0.5948
 6428TIP3    H119248   0.421   0.757   5.547  0.5671  0.1381 -0.4259
 6428TIP3    H219249   0.460   0.648   5.449  2.0996 -1.0106  1.3903
 6429TIP3   OH219250   3.220   6.626   3.055  0.5052 -0.0397  0.1623
 6429TIP3    H119251   3.255   6.696   3.109 -0.3374 -0.0370  0.7183
 6429TIP3    H219252   3.221   6.549   3.111 -1.4166  0.2002  0.5981
 6430TIP3   OH219253   0.170   2.443   4.737 -0.3785 -0.0115  0.2596
 6430TIP3    H119254   0.173   2.507   4.666 -1.2117 -0.5767 -0.2973
 6430TIP3    H219255   0.106   2.479   4.799 -0.2783  0.0601  0.3237
 6431TIP3   OH219256   5.361   4.353   0.161  0.0166  0.0813 -0.5937
 6431TIP3    H119257   5.416   4.410   0.107  1.3642 -1.8184 -1.3545
 6431TIP3    H219258   5.394   4.365   0.250  1.6717 -0.9376 -1.0219
 6432TIP3   OH219259   0.109   3.213   2.172 -0.1723  0.3347  0.9455
 6432TIP3    H119260   0.030   3.215   2.226 -0.4387 -0.7198  0.6111
 6432TIP3    H219261   0.079   3.187   2.085  0.1624  2.6322  0.0766
 6433TIP3   OH219262   4.357   5.454   1.566  0.0426  0.2494  0.0100
 6433TIP3    H119263   4.310   5.391   1.621  1.1386 -1.3320 -0.8052
 6433TIP3    H219264   4.445   5.457   1.604 -0.2481  2.0516  0.6157
 6434TIP3   OH219265   5.289   1.468   0.781  0.2117 -0.3842 -0.3903
 6434TIP3    H119266   5.256   1.557   0.768  1.4353 -0.1953 -2.6458
 6434TIP3    H219267   5.298   1.460   0.876 -0.8984  1.5185 -0.0611
 6435TIP3   OH219268   6.494   2.598   0.760 -0.2818  0.1194 -0.4115
 6435TIP3    H119269   6.530   2.686   0.748  0.9846 -0.3833 -0.4707
 6435TIP3    H219270   6.447   2.580   0.678  1.1114  0.0000 -1.2199
 6436TIP3   OH219271   0.553   0.214   1.373  0.6650 -0.5934  0.0666
 6436TIP3    H119272   0.510   0.284   1.423 -0.3962 -1.0231 -0.2332
 6436TIP3    H219273   0.603   0.261   1.306 -0.3608 -0.1153 -0.3879
 6437TIP3   OH219274   5.667   4.428   5.386 -0.1038 -0.3748 -0.0808
 6437TIP3    H119275   5.669   4.336   5.362 -1.1015 -0.4533  0.0961
 6437TIP3    H219276   5.586   4.461   5.347  0.3940  0.5040 -0.4029
 6438TIP3   OH219277   4.400   3.282   5.128  0.0813 -0.0663  0.1868
 6438TIP3    H119278   4.423   3.193   5.155 -0.0931 -0.6609 -1.4780
 6438TIP3    H219279   4.468   3.306   5.065 -0.2382  0.7286  0.1376
 6439TIP3   OH219280   5.839   4.201   2.483 -0.0031  0.8779  0.2624
 6439TIP3    H119281   5.765   4.141   2.474  2.2895 -2.0813 -0.3217
 6439TIP3    H219282   5.828   4.239   2.570 -1.2711 -0.8431  0.9175
 6440TIP3   OH219283   6.723   6.229   1.708  0.1851  0.1952 -0.6729
 6440TIP3    H119284   6.772   6.308   1.731  1.2101 -0.9841  1.4873
 6440TIP3    H219285   6.776   6.185   1.642  1.4776 -0.4135  0.7110
 6441TIP3   OH219286   4.196   3.314   5.485 -0.0183 -0.1107  0.8182
 6441TIP3    H119287   4.163   3.371   5.555  0.6687  1.4571 -0.0628
 6441TIP3    H219288   4.242   3.244   5.531 -1.2166 -0.1850  1.9537
 6442TIP3   OH219289   5.525   1.900   4.024  0.0560  0.4404 -0.2980
 6442TIP3    H119290   5.617   1.891   4.003  0.8821  0.0886  2.9279
 6442TIP3    H219291   5.502   1.988   3.994  1.2841  0.3622 -1.5500
 6443TIP3   OH219292   2.367   6.160   4.189  0.0579  0.7312  0.6419
 6443TIP3    H119293   2.273   6.169   4.173 -0.3141  0.2684  2.3088
 6443TIP3    H219294   2.408   6.171   4.103 -1.2609  3.9798  0.2908
 6444TIP3   OH219295   5.873   3.623   3.350  0.3094  0.3746 -0.0558
 6444TIP3    H119296   5.785   3.658   3.364  1.1331  1.8971  1.6273
 6444TIP3    H219297   5.909   3.675   3.278  0.0751  0.1754 -0.3207
 6445TIP3   OH219298   4.225   5.423   2.006  0.4602  0.4211  0.1463
 6445TIP3    H119299   4.264   5.492   1.952 -0.9378  1.1747  0.0593
 6445TIP3    H219300   4.241   5.451   2.096 -1.6619  1.8673  0.1504
 6446TIP3   OH219301   5.997   5.487   2.921 -0.3963  0.2840  0.3317
 6446TIP3    H119302   5.940   5.476   2.998 -2.4205  2.9143 -0.6341
 6446TIP3    H219303   6.007   5.582   2.913  0.1754  0.0502 -2.3468
 6447TIP3   OH219304   2.177   0.282   5.022 -0.8049  0.2960  0.2071
 6447TIP3    H119305   2.086   0.294   4.994 -0.4433  1.4440 -0.5340
 6447TIP3    H219306   2.209   0.208   4.969 -1.1449  0.2518  0.0628
 6448TIP3   OH219307   1.600   6.383   0.871 -0.5654  0.5297  0.0102
 6448TIP3    H119308   1.579   6.306   0.818 -1.9692  0.6470  0.3603
 6448TIP3    H219309   1.597   6.456   0.809  3.2896  0.1163 -0.8896
 6449TIP3   OH219310   0.309   5.652   0.582  0.7403  0.5308  0.5001
 6449TIP3    H119311   0.359   5.728   0.612 -1.2136  2.6414 -1.2112
 6449TIP3    H219312   0.236   5.690   0.533 -1.0723 -2.4625  0.6840
 6450TIP3   OH219313   5.545   3.705   4.727  0.2213 -0.3400 -0.0518
 6450TIP3    H119314   5.543   3.793   4.689 -0.8421 -0.9449 -1.4802
 6450TIP3    H219315   5.537   3.646   4.652 -1.1566 -1.6049  1.0388
 6451TIP3   OH219316   0.396   6.748   0.722  0.2127  0.1533 -0.0167
 6451TIP3    H119317   0.375   6.801   0.646  0.2501  0.6362  0.3019
 6451TIP3    H219318   0.314   6.706   0.747  0.3572 -0.5983 -0.7628
 6452TIP3   OH219319   2.836   3.676   3.334  0.1243  0.2209  0.1634
 6452TIP3    H119320   2.873   3.670   3.245 -1.8395  1.5983 -0.8286
 6452TIP3    H219321   2.856   3.591   3.374  0.6759 -0.6125 -1.7610
 6453TIP3   OH219322   1.067   0.367   3.216  0.4891  0.0962  0.4009
 6453TIP3    H119323   1.099   0.284   3.252 -2.2195 -1.8868 -1.3896
 6453TIP3    H219324   0.972   0.360   3.220  0.1640  3.1818  0.1983
 6454TIP3   OH219325   5.396   2.794   2.517  0.8549 -0.2351  0.3774
 6454TIP3    H119326   5.305   2.763   2.513  0.6606  0.3588  0.1696
 6454TIP3    H219327   5.421   2.784   2.609  0.2732  0.4641  0.6190
 6455TIP3   OH219328   2.605   1.817   3.855  0.0410 -0.4076  0.0664
 6455TIP3    H119329   2.697   1.841   3.857 -0.1537  0.3382  1.1238
 6455TIP3    H219330   2.559   1.897   3.880 -0.7856 -1.1810  1.1107
 6456TIP3   OH219331   3.348   4.226   5.084 -0.5560 -0.2949  0.2684
 6456TIP3    H119332   3.307   4.207   5.000 -1.8080 -0.0569  0.8122
 6456TIP3    H219333   3.354   4.140   5.127 -2.0603 -0.1196  0.8737
 6457TIP3   OH219334   0.482   1.639   0.019  0.3268 -0.0773 -0.1684
 6457TIP3    H119335   0.525   1.556  -0.001  1.4175  0.5230 -0.3819
 6457TIP3    H219336   0.468   1.637   0.113  1.6186  0.0680  0.0459
 6458TIP3   OH219337   6.817   5.001   5.478 -0.4246 -0.5379 -0.3168
 6458TIP3    H119338   6.888   5.064   5.471  0.6161 -1.6952 -0.4092
 6458TIP3    H219339   6.740   5.055   5.500  0.3544  0.7848 -0.6977
 6459TIP3   OH219340   2.725   5.733   3.368  0.0543  0.1242  0.2675
 6459TIP3    H119341   2.727   5.639   3.350 -2.3521 -0.1535  1.0906
 6459TIP3    H219342   2.720   5.774   3.282 -0.5976 -0.6153 -0.0593
 6460TIP3   OH219343   5.650   1.797   1.818  0.0441  0.4703 -0.0510
 6460TIP3    H119344   5.715   1.862   1.845  0.0243  0.0219  1.1425
 6460TIP3    H219345   5.631   1.819   1.727 -0.4398  2.5235  0.4937
 6461TIP3   OH219346   2.243   6.015   3.175  0.5549  0.0907 -0.0016
 6461TIP3    H119347   2.308   6.045   3.238  1.0769  1.3163 -1.0816
 6461TIP3    H219348   2.189   6.092   3.156  0.0918 -0.3850 -0.6741
 6462TIP3   OH219349   5.521   4.552   3.211 -0.1703  0.3781 -0.0911
 6462TIP3    H119350   5.611   4.563   3.243  0.0649 -4.4650  1.6916
 6462TIP3    H219351   5.466   4.582   3.283  0.0715  0.1326  0.1937
 6463TIP3   OH219352   3.952   3.235   5.750 -0.0395 -0.2276  0.4464
 6463TIP3    H119353   3.878   3.292   5.768  0.5788  0.4561  0.8922
 6463TIP3    H219354   4.029   3.292   5.756  0.4552 -0.6769 -1.1554
 6464TIP3   OH219355   4.573   3.635   5.816  0.2410 -1.0341  0.0302
 6464TIP3    H119356   4.517   3.709   5.791 -0.1973 -1.5928 -0.7203
 6464TIP3    H219357   4.594   3.650   5.908  0.0637 -0.0446 -0.0776
 6465TIP3   OH219358   4.972   0.584   1.185  0.2131  0.8509 -0.2457
 6465TIP3    H119359   4.990   0.660   1.129  1.3083  0.3003 -0.6617
 6465TIP3    H219360   4.944   0.622   1.268  0.3847  1.7065 -0.5677
 6466TIP3   OH219361   3.048   0.957   3.899 -0.1878 -0.5886 -0.7249
 6466TIP3    H119362   3.038   0.993   3.811 -0.1686  2.3211  0.3531
 6466TIP3    H219363   3.140   0.933   3.905 -0.0235 -0.1247 -1.2812
 6467TIP3   OH219364   5.114   3.614   5.064  0.0529  0.0819  0.0199
 6467TIP3    H119365   5.101   3.520   5.049  1.3843 -0.2625  0.8908
 6467TIP3    H219366   5.206   3.629   5.044 -0.1005  1.1785  0.0931
 6468TIP3   OH219367   4.643   2.772   3.574 -0.1776 -0.7850 -0.5361
 6468TIP3    H119368   4.706   2.764   3.646 -0.1897 -0.0725 -0.4394
 6468TIP3    H219369   4.632   2.683   3.543  3.1280 -0.6878 -2.4868
 6469TIP3   OH219370   5.393   2.063   0.974 -0.9359  0.2978 -0.4189
 6469TIP3    H119371   5.370   2.056   1.067  0.6073 -0.3607 -0.0605
 6469TIP3    H219372   5.483   2.029   0.969  0.0842  2.9629 -1.6907
 6470TIP3   OH219373   1.113   4.977   4.799 -0.0630 -0.4889 -0.2628
 6470TIP3    H119374   1.061   4.897   4.786 -0.2986 -0.8907  2.5777
 6470TIP3    H219375   1.047   5.044   4.817  0.2465 -0.2079 -0.1889
 6471TIP3   OH219376   5.377   2.859   3.557  0.3795 -0.2893  0.6183
 6471TIP3    H119377   5.404   2.944   3.523 -0.1390 -0.5429 -0.4653
 6471TIP3    H219378   5.317   2.825   3.491  0.6680 -1.5456  0.9849
 6472TIP3   OH219379   2.070   0.486   5.210  0.5359  0.0978  0.1230
 6472TIP3    H119380   2.145   0.489   5.151  0.4219 -0.6258 -0.0644
 6472TIP3    H219381   2.050   0.393   5.219  0.3079  0.2252  0.9974
 6473TIP3   OH219382   6.469   4.543   0.318  0.8596  0.1088  0.0182
 6473TIP3    H119383   6.396   4.577   0.370 -0.3008 -2.2022  0.0402
 6473TIP3    H219384   6.453   4.574   0.229  0.9503  1.2148  0.3738
 6474TIP3   OH219385   5.408   6.441   4.552  0.3021  0.3461 -0.4284
 6474TIP3    H119386   5.323   6.459   4.513 -0.5287 -0.9136  0.6978
 6474TIP3    H219387   5.393   6.364   4.606  2.5470 -0.9153 -1.4655
 6475TIP3   OH219388   0.871   0.276   2.429  0.1844  0.0091 -0.1878
 6475TIP3    H119389   0.851   0.295   2.337 -1.7603 -2.8603 -0.4869
 6475TIP3    H219390   0.951   0.224   2.426 -0.6075 -1.2247 -0.4232
 6476TIP3   OH219391   1.096   1.082   0.182 -0.5794 -0.7676  0.0145
 6476TIP3    H119392   1.042   1.151   0.144 -0.6449 -0.7112  0.2080
 6476TIP3    H219393   1.167   1.130   0.226 -0.3009 -0.8455 -0.3496
 6477TIP3   OH219394   1.930   0.330   1.021  0.4060 -0.4285  0.0663
 6477TIP3    H119395   1.857   0.269   1.031  0.2833  0.0103  2.3476
 6477TIP3    H219396   1.933   0.349   0.927 -1.7950 -1.1901 -0.2053
 6478TIP3   OH219397   1.097   1.221   5.355 -0.3574  0.3965  0.1033
 6478TIP3    H119398   1.094   1.254   5.265 -2.2599 -0.0412 -0.0500
 6478TIP3    H219399   1.024   1.160   5.360  0.4083 -0.4471  1.6449
 6479TIP3   OH219400   6.810   4.390   4.925  0.7237  0.0638 -0.0294
 6479TIP3    H119401   6.759   4.437   4.860  0.7170 -0.2729 -0.2716
 6479TIP3    H219402   6.749   4.378   4.998  0.5661 -0.0216 -0.1729
 6480TIP3   OH219403   2.367   1.593   0.262  0.5192 -0.5849  0.6919
 6480TIP3    H119404   2.299   1.560   0.204  2.0541 -1.2259 -0.8148
 6480TIP3    H219405   2.319   1.635   0.334 -1.4445  0.8160 -1.3230
 6481TIP3   OH219406   3.466   2.387   5.884  0.0947 -0.3796 -0.3159
 6481TIP3    H119407   3.411   2.378   5.806 -0.0847 -1.1593 -0.1072
 6481TIP3    H219408   3.530   2.317   5.877  1.1687  0.6055 -0.6209
 6482TIP3   OH219409   6.857   5.710   4.693 -0.3299 -0.0086  0.3886
 6482TIP3    H119410   6.859   5.626   4.737 -0.0394 -0.8532 -1.1612
 6482TIP3    H219411   6.798   5.697   4.618 -0.8610  1.3774  0.5240
 6483TIP3   OH219412   6.627   5.492   2.943  0.0737 -0.2062 -0.1168
 6483TIP3    H119413   6.643   5.567   2.885 -0.1607 -0.2805 -0.2774
 6483TIP3    H219414   6.532   5.493   2.957  0.2915  0.7982  1.5820
 6484TIP3   OH219415   3.068   6.798   2.890 -0.1176 -0.1212  0.0047
 6484TIP3    H119416   3.113   6.800   2.806 -0.3187 -0.2410 -0.1061
 6484TIP3    H219417   3.112   6.728   2.939  0.4726  0.4316  0.2659
 6485TIP3   OH219418   2.710   6.185   1.672  0.0227  0.3781  0.3567
 6485TIP3    H119419   2.615   6.176   1.681  0.1954 -1.9166  0.4777
 6485TIP3    H219420   2.726   6.181   1.578  0.0974 -0.8837  0.4092
 6486TIP3   OH219421   4.029   2.632   0.964  0.4800  0.1474 -0.1353
 6486TIP3    H119422   3.963   2.666   1.025 -1.5954  2.1258 -3.2196
 6486TIP3    H219423   4.010   2.538   0.958  0.3309  0.0243  1.7171
 6487TIP3   OH219424   1.415   0.592   5.878  0.4591  0.2403  0.0729
 6487TIP3    H119425   1.491   0.581   5.935  1.1387 -0.3351 -0.9068
 6487TIP3    H219426   1.441   0.659   5.815 -0.0946  0.5153  0.1331
 6488TIP3   OH219427   6.807   3.849   1.953  0.3009 -0.0552 -0.2950
 6488TIP3    H119428   6.831   3.764   1.990  0.1097  0.0671  0.1191
 6488TIP3    H219429   6.865   3.912   1.997  1.6360 -0.1536 -1.8424
 6489TIP3   OH219430   5.518   1.402   2.138 -0.6597 -0.0552 -0.9572
 6489TIP3    H119431   5.519   1.347   2.060 -0.1204 -2.4379  0.6418
 6489TIP3    H219432   5.441   1.458   2.126  0.2250  0.7623 -3.8393
 6490TIP3   OH219433   3.503   6.091   5.696  0.7112  0.3665 -0.4147
 6490TIP3    H119434   3.579   6.117   5.747  0.3271  0.1339  0.2883
 6490TIP3    H219435   3.484   6.002   5.724 -1.1083  1.1498  1.0341
 6491TIP3   OH219436   1.436   2.391   2.637  0.2779 -0.0444 -0.3241
 6491TIP3    H119437   1.460   2.454   2.569 -0.3344 -0.6483 -1.1171
 6491TIP3    H219438   1.372   2.333   2.595  1.0327 -1.3812  0.2817
 6492TIP3   OH219439   3.198   0.675   5.244  0.4561  0.0001  0.4611
 6492TIP3    H119440   3.183   0.647   5.334 -0.5874 -0.9427  0.0238
 6492TIP3    H219441   3.150   0.757   5.235 -0.0455 -0.2776  0.5701
 6493TIP3   OH219442   3.517   6.703   5.477 -0.4320 -0.1828 -0.5218
 6493TIP3    H119443   3.560   6.735   5.398 -1.1299  0.9709 -0.4539
 6493TIP3    H219444   3.569   6.739   5.549 -0.8843  0.3233 -0.4466
 6494TIP3   OH219445   1.445   2.202   4.049  0.2470 -0.0808 -0.4142
 6494TIP3    H119446   1.444   2.107   4.060  0.0427 -0.1084 -0.6590
 6494TIP3    H219447   1.537   2.223   4.029  0.4744 -0.1125  0.5771
 6495TIP3   OH219448   4.009   3.222   1.314  0.0865 -0.3775 -0.0648
 6495TIP3    H119449   4.031   3.222   1.407  1.1179 -0.9008 -0.2935
 6495TIP3    H219450   3.952   3.146   1.303  0.0354 -0.3671  0.1270
 6496TIP3   OH219451   6.614   2.102   4.857 -0.3062 -0.2957 -0.0784
 6496TIP3    H119452   6.623   2.184   4.906 -1.1500  0.3725 -0.9827
 6496TIP3    H219453   6.703   2.070   4.848  0.3206  1.5962 -1.4151
 6497TIP3   OH219454   5.874   1.352   2.199 -0.0126  0.3609  0.3520
 6497TIP3    H119455   5.846   1.377   2.287 -0.9115 -1.9376  0.8049
 6497TIP3    H219456   5.955   1.304   2.213 -1.5636 -2.4814  0.3737
 6498TIP3   OH219457   0.619   4.301   0.832 -0.0659 -0.2368 -0.3770
 6498TIP3    H119458   0.582   4.232   0.887  0.2894 -0.3981 -0.3392
 6498TIP3    H219459   0.628   4.377   0.889  0.6425 -0.5102 -0.1108
 6499TIP3   OH219460   3.920   1.416   0.694 -0.3378 -0.3194  0.0768
 6499TIP3    H119461   3.883   1.330   0.714 -0.2527 -0.4378 -0.2716
 6499TIP3    H219462   4.003   1.419   0.741 -0.8527  0.0063  0.9889
 6500TIP3   OH219463   2.622   2.424   2.021 -0.1187  0.4787 -0.0838
 6500TIP3    H119464   2.544   2.403   2.072  0.6335 -0.7696  0.5956
 6500TIP3    H219465   2.673   2.343   2.020  2.0149  1.7041  1.0157
 6501TIP3   OH219466   5.873   1.117   4.093  0.5274 -0.1738 -0.2027
 6501TIP3    H119467   5.797   1.114   4.151 -0.5505 -2.1271 -1.6039
 6501TIP3    H219468   5.928   1.045   4.123  0.5075 -0.4764 -0.8923
 6502TIP3   OH219469   6.277   6.740   2.578 -0.0595 -0.0518 -0.2519
 6502TIP3    H119470   6.343   6.798   2.617  0.1957 -1.3524  1.3590
 6502TIP3    H219471   6.309   6.722   2.490 -1.1443  3.7876 -1.6368
 6503TIP3   OH219472   1.594   5.249   1.555  0.1171  0.4200  0.9090
 6503TIP3    H119473   1.593   5.156   1.535 -0.9566  0.3373  1.2739
 6503TIP3    H219474   1.533   5.288   1.491 -0.3424  0.6924  1.5011
 6504TIP3   OH219475   2.688   5.231   3.212  0.3924 -0.1286  0.3030
 6504TIP3    H119476   2.776   5.253   3.182  1.1533 -1.1394  1.6596
 6504TIP3    H219477   2.650   5.182   3.139  1.7813 -1.5840  0.4905
 6505TIP3   OH219478   2.494   3.763   5.298  0.4439 -0.2264  0.2607
 6505TIP3    H119479   2.425   3.696   5.301 -0.4903  0.5053 -2.0540
 6505TIP3    H219480   2.448   3.845   5.317  0.5262  0.3171 -1.6615
 6506TIP3   OH219481   0.463   3.956   0.040 -0.1158 -0.5069 -0.0362
 6506TIP3    H119482   0.430   3.997  -0.039 -0.9794 -2.4727 -0.7717
 6506TIP3    H219483   0.478   4.028   0.101 -3.7921  0.7477 -0.3721
 6507TIP3   OH219484   0.692   6.664   0.423  0.4608  0.5817 -0.3969
 6507TIP3    H119485   0.739   6.592   0.466  0.5540  0.7056 -0.2923
 6507TIP3    H219486   0.725   6.663   0.333 -0.4002 -0.2656 -0.7288
 6508TIP3   OH219487   1.427   3.651   5.853  0.0619  0.3228 -0.1599
 6508TIP3    H119488   1.450   3.602   5.932 -0.3123  0.8244  0.2662
 6508TIP3    H219489   1.478   3.610   5.783 -1.8411 -2.0941 -0.2499
 6509TIP3   OH219490   2.919   2.214   2.871  0.7397  0.0356 -0.8144
 6509TIP3    H119491   2.833   2.184   2.901  0.7051  0.9675  0.0705
 6509TIP3    H219492   2.982   2.167   2.927  0.7411  0.5039 -0.4185
 6510TIP3   OH219493   5.579   3.975   2.732  0.2634  0.3128 -0.3366
 6510TIP3    H119494   5.614   4.043   2.789  1.1133  1.0360 -1.6634
 6510TIP3    H219495   5.599   3.893   2.777 -0.0215  0.8987  0.8817
 6511TIP3   OH219496   2.456   3.784   4.695 -0.0517  0.1314  0.1260
 6511TIP3    H119497   2.527   3.719   4.697  0.4990  0.7282  0.2076
 6511TIP3    H219498   2.382   3.740   4.738  0.1552 -0.6273 -0.2887
 6512TIP3   OH219499   0.931   1.277   0.120  0.0381  0.2075  0.3812
 6512TIP3    H119500   0.932   1.324   0.037  0.1566 -0.1237  0.1943
 6512TIP3    H219501   0.947   1.344   0.186 -0.6946  0.5830  0.1925
 6513TIP3   OH219502   0.568   2.816   2.041 -0.3893 -0.6636  0.4542
 6513TIP3    H119503   0.517   2.814   2.123 -0.8435  0.7353  0.2360
 6513TIP3    H219504   0.506   2.786   1.974 -1.3496  2.0114  0.0222
 6514TIP3   OH219505   4.546   6.325   2.603 -0.3668  0.7462  0.5366
 6514TIP3    H119506   4.493   6.333   2.524 -0.6436 -2.3797  0.2668
 6514TIP3    H219507   4.507   6.252   2.651  2.6410 -0.6344  1.1178
 6515TIP3   OH219508   1.427   6.731   2.395  0.1962  0.1436  0.0857
 6515TIP3    H119509   1.399   6.727   2.486  0.9317 -0.1766  0.3005
 6515TIP3    H219510   1.478   6.652   2.382 -0.7684 -0.3359 -0.9007
 6516TIP3   OH219511   4.447   0.335   0.756 -0.5999 -0.1934 -0.2388
 6516TIP3    H119512   4.536   0.318   0.725 -0.4935  0.4042 -0.2741
 6516TIP3    H219513   4.458   0.369   0.844 -0.7345  0.6932 -0.5562
 6517TIP3   OH219514   3.946   3.636   1.373 -0.0242 -0.0384  0.3189
 6517TIP3    H119515   3.966   3.590   1.454  1.6657 -0.4775 -0.2998
 6517TIP3    H219516   4.011   3.705   1.368 -1.6383  1.5635  0.5121
 6518TIP3   OH219517   4.583   6.341   1.073  0.4741  0.2602 -0.4511
 6518TIP3    H119518   4.521   6.325   1.145  1.4637  1.3211  0.6879
 6518TIP3    H219519   4.670   6.332   1.114  1.0658  2.1574 -1.1709
 6519TIP3   OH219520   0.464   4.655   2.217 -0.3913 -0.9418  0.4644
 6519TIP3    H119521   0.479   4.685   2.128  3.3676 -1.1885  0.8419
 6519TIP3    H219522   0.387   4.599   2.211 -1.0011  0.0571 -2.3427
 6520TIP3   OH219523   2.745   4.520   4.036 -0.3359 -0.5569 -0.3971
 6520TIP3    H119524   2.747   4.459   3.963 -2.5496  0.1820 -1.1617
 6520TIP3    H219525   2.745   4.606   3.995 -0.9435 -0.1154  0.4999
 6521TIP3   OH219526   4.437   5.810   3.456 -0.0658 -0.4137 -0.4382
 6521TIP3    H119527   4.451   5.904   3.445  0.1914 -0.5237 -1.0677
 6521TIP3    H219528   4.525   5.772   3.451 -0.2041 -0.7212 -0.5309
 6522TIP3   OH219529   6.421   3.039   0.631 -0.3645 -0.0311 -0.0513
 6522TIP3    H119530   6.414   3.135   0.633 -1.1381 -0.0622 -0.8040
 6522TIP3    H219531   6.343   3.009   0.678  0.9106 -0.2972  2.0089
 6523TIP3   OH219532   1.928   4.393   1.290  0.2477 -0.5629 -0.5422
 6523TIP3    H119533   1.936   4.369   1.197  1.5615 -0.8509 -0.3853
 6523TIP3    H219534   1.845   4.356   1.318  1.5686 -4.0083 -0.6323
 6524TIP3   OH219535   2.647   5.209   2.097 -0.3972 -0.7287 -0.5635
 6524TIP3    H119536   2.623   5.297   2.070 -0.7078 -1.1117 -1.5787
 6524TIP3    H219537   2.743   5.207   2.091 -0.3778 -0.4073 -0.3540
 6525TIP3   OH219538   3.485   0.941   4.422  0.0079 -0.1445  0.4715
 6525TIP3    H119539   3.482   0.863   4.366  0.0913  0.8127 -0.9298
 6525TIP3    H219540   3.441   0.915   4.503 -0.1427 -1.5737 -0.0427
 6526TIP3   OH219541  -0.007   0.791   1.235 -0.1673 -0.3514 -0.2575
 6526TIP3    H119542  -0.070   0.725   1.263 -1.3808  0.0385 -1.9294
 6526TIP3    H219543   0.078   0.757   1.264 -1.0483 -1.1117  1.6182
 6527TIP3   OH219544   3.285   4.836   4.015 -0.4776 -0.1477 -0.0709
 6527TIP3    H119545   3.378   4.815   4.017 -0.4386  0.0698  0.3023
 6527TIP3    H219546   3.245   4.760   3.972 -0.4715 -1.4874  2.1449
 6528TIP3   OH219547   0.736   4.854   0.146  0.3126  0.1180  0.1503
 6528TIP3    H119548   0.817   4.848   0.197  0.1445 -0.4345  0.3625
 6528TIP3    H219549   0.677   4.905   0.202 -0.6047 -2.2639  1.5487
 6529TIP3   OH219550   5.762   4.926   3.800 -0.5449 -0.1354  0.1366
 6529TIP3    H119551   5.682   4.882   3.827  0.1772 -1.0562  0.8560
 6529TIP3    H219552   5.742   5.019   3.809 -2.1560 -0.2564 -1.5867
 6530TIP3   OH219553   3.689   4.979   3.490  0.0674  0.1960 -0.5975
 6530TIP3    H119554   3.630   4.951   3.421 -0.6330  0.7492 -0.2314
 6530TIP3    H219555   3.744   5.047   3.450  0.5600 -0.4093 -0.9730
 6531TIP3   OH219556   2.759   5.902   1.746  0.0889  0.0065  0.4375
 6531TIP3    H119557   2.854   5.894   1.735 -0.0068 -1.5281  0.4584
 6531TIP3    H219558   2.744   5.995   1.762  1.5220  0.3655 -0.1730
 6532TIP3   OH219559   6.659   2.822   5.717  0.3993 -0.1315  0.3550
 6532TIP3    H119560   6.709   2.898   5.747  0.1252  0.2259 -0.0855
 6532TIP3    H219561   6.570   2.855   5.705  0.0510 -0.7620  1.1229
 6533TIP3   OH219562   6.466   2.877   3.046  0.2195  0.4316 -0.6241
 6533TIP3    H119563   6.562   2.876   3.053  0.1430  1.3734  1.3878
 6533TIP3    H219564   6.438   2.805   3.103 -0.2761  1.1564  0.0768
 6534TIP3   OH219565   5.150   0.950   3.084  0.6197 -0.6835 -0.0068
 6534TIP3    H119566   5.093   0.879   3.055  0.1502 -0.2292 -0.1905
 6534TIP3    H219567   5.216   0.906   3.138 -1.1501 -0.9441  2.0465
 6535TIP3   OH219568   7.024   3.245   3.414  0.2874 -0.4429 -0.3176
 6535TIP3    H119569   7.084   3.190   3.363 -0.3178 -1.2871 -0.1391
 6535TIP3    H219570   6.940   3.201   3.407  0.2543 -0.7681  1.7004
 6536TIP3   OH219571   5.638   0.566   2.118 -0.3049  0.3180 -0.5905
 6536TIP3    H119572   5.592   0.522   2.047  0.5035 -2.5981  0.5308
 6536TIP3    H219573   5.584   0.551   2.196  1.3016 -1.1962  0.3186
 6537TIP3   OH219574   2.087   0.663   0.841  0.3419  0.1291 -0.3917
 6537TIP3    H119575   2.004   0.615   0.830  0.2122 -0.2323  1.7931
 6537TIP3    H219576   2.151   0.609   0.794 -0.4514 -0.1612 -1.1878
 6538TIP3   OH219577   4.976   6.261   0.610 -1.0011 -0.0460  0.0856
 6538TIP3    H119578   4.913   6.260   0.682 -0.8828  0.8079  0.2048
 6538TIP3    H219579   5.061   6.251   0.653 -0.9515  0.1741  0.0374
 6539TIP3   OH219580   6.062   4.938   2.841  0.4159 -0.3551 -0.0861
 6539TIP3    H119581   6.021   5.024   2.853 -1.8877 -1.4449  0.2965
 6539TIP3    H219582   6.153   4.958   2.818  0.4134  2.1554  1.6781
 6540TIP3   OH219583   1.357   6.237   4.820  0.6427 -1.1867 -0.4561
 6540TIP3    H119584   1.346   6.313   4.764  3.4603  1.6634  2.4405
 6540TIP3    H219585   1.271   6.224   4.860 -0.0073  0.1952 -1.3565
 6541TIP3   OH219586   0.400   5.881   4.335  0.3243 -0.0589 -0.0002
 6541TIP3    H119587   0.320   5.843   4.299  0.5390  0.6143 -1.2225
 6541TIP3    H219588   0.377   5.972   4.353  1.4305  0.8128 -2.5827
 6542TIP3   OH219589   5.307   6.257   5.131 -0.3959  0.1085  0.2360
 6542TIP3    H119590   5.221   6.293   5.109 -1.4939 -1.1043  2.1688
 6542TIP3    H219591   5.287   6.169   5.165  1.7086 -0.5218 -0.0702
 6543TIP3   OH219592   1.051   0.557   2.402 -0.6229  0.0680 -0.1630
 6543TIP3    H119593   1.087   0.471   2.426 -3.2446 -0.4426  2.6067
 6543TIP3    H219594   1.030   0.549   2.309 -0.2972 -2.1162 -0.1178
 6544TIP3   OH219595   5.816   1.933   3.959  0.2594 -0.1900 -0.4563
 6544TIP3    H119596   5.848   1.998   4.021 -1.3316  0.3164 -0.1219
 6544TIP3    H219597   5.889   1.872   3.949  0.7544 -0.0046  1.5224
 6545TIP3   OH219598   0.224   5.561   5.685  0.3127  0.0040 -0.1069
 6545TIP3    H119599   0.166   5.605   5.748  0.5219  0.3181 -0.1331
 6545TIP3    H219600   0.311   5.565   5.726  0.1626 -1.3550  0.4030
 6546TIP3   OH219601   2.340   5.592   2.045  0.1879 -0.3881 -0.5582
 6546TIP3    H119602   2.325   5.564   1.955 -1.4775 -2.2612  0.2257
 6546TIP3    H219603   2.313   5.684   2.047 -0.3960 -0.5107 -1.8165
 6547TIP3   OH219604   2.974   5.023   1.620 -0.0660  0.1593  0.0177
 6547TIP3    H119605   2.970   4.983   1.707 -0.9303  1.5679  0.6628
 6547TIP3    H219606   2.893   4.995   1.577  0.6023 -0.9609 -0.5563
 6548TIP3   OH219607   2.552   3.360   5.339 -0.7896  0.2550  0.1144
 6548TIP3    H119608   2.533   3.302   5.265 -0.3355  0.2031  0.0412
 6548TIP3    H219609   2.477   3.347   5.398 -1.8476  1.2961 -0.9252
 6549TIP3   OH219610   5.624   1.178   5.341 -0.3522  0.0899 -0.0466
 6549TIP3    H119611   5.597   1.270   5.343  1.1384  0.5544 -0.3523
 6549TIP3    H219612   5.638   1.155   5.433  0.9274  0.7027 -0.0673
 6550TIP3   OH219613   7.126   0.495   5.668  0.6686  0.0183  0.0273
 6550TIP3    H119614   7.057   0.510   5.603  0.9589  2.1357  0.1339
 6550TIP3    H219615   7.081   0.451   5.740 -0.8253  2.0891  0.4587
 6551TIP3   OH219616   3.244   3.766   0.936  0.3096  0.7981 -0.5471
 6551TIP3    H119617   3.301   3.699   0.898  1.7111  1.8277 -0.3440
 6551TIP3    H219618   3.189   3.718   0.999  1.7368 -0.0852  0.0899
 6552TIP3   OH219619   1.440   0.725   5.378  0.6460 -0.2211 -0.1725
 6552TIP3    H119620   1.518   0.672   5.389  0.0456 -1.4014 -1.4256
 6552TIP3    H219621   1.454   0.774   5.297  0.5500  0.4236  0.1863
 6553TIP3   OH219622   5.457   5.654   0.216  0.0532 -0.2684  0.1093
 6553TIP3    H119623   5.491   5.595   0.149  1.2670 -0.9793  1.3014
 6553TIP3    H219624   5.532   5.669   0.275 -0.4092  1.9133  0.2248
 6554TIP3   OH219625   4.750   4.349   3.469  0.3466  0.0211 -0.0536
 6554TIP3    H119626   4.760   4.386   3.556  0.3687  0.9133 -0.4283
 6554TIP3    H219627   4.816   4.392   3.416  1.0174 -1.2583 -0.3001
 6555TIP3   OH219628   7.118   1.294   2.332 -0.7429  0.0467 -0.2663
 6555TIP3    H119629   7.070   1.216   2.360 -1.7137  0.4352 -0.8038
 6555TIP3    H219630   7.210   1.271   2.344 -1.0488  0.1465  3.0462
 6556TIP3   OH219631   2.269   2.369   5.847 -0.2641 -0.9050 -0.4737
 6556TIP3    H119632   2.196   2.307   5.842  0.0996 -1.2557 -2.2764
 6556TIP3    H219633   2.324   2.335   5.917 -2.0640 -0.3266  1.3031
 6557TIP3   OH219634   6.985   6.256   4.064 -0.5715  0.0750  0.1211
 6557TIP3    H119635   7.012   6.209   4.143  0.6893  0.4992 -0.0351
 6557TIP3    H219636   6.914   6.312   4.093 -2.2244 -1.9761  0.2797
 6558TIP3   OH219637   6.065   6.532   1.349  0.8673  0.0187  0.1645
 6558TIP3    H119638   5.996   6.598   1.350  0.8272  0.0721 -1.8167
 6558TIP3    H219639   6.144   6.580   1.376  0.6905  0.7054 -0.5143
 6559TIP3   OH219640   1.634   4.077   0.076  0.6011  0.1706  0.2516
 6559TIP3    H119641   1.616   3.984   0.086  2.2886 -0.1726  0.4070
 6559TIP3    H219642   1.566   4.121   0.128  0.6923 -1.0243  1.4354
 6560TIP3   OH219643   4.208   5.138   3.595 -0.1978  0.0583  0.4334
 6560TIP3    H119644   4.219   5.231   3.576 -1.3190  0.6442  2.4116
 6560TIP3    H219645   4.141   5.108   3.534  0.5124  0.3840 -0.5454
 6561TIP3   OH219646   4.855   3.847   4.635 -0.2353 -0.3520  0.4728
 6561TIP3    H119647   4.796   3.918   4.660 -2.0498 -1.3047 -0.9194
 6561TIP3    H219648   4.825   3.820   4.548  0.4122 -2.7825  0.9380
 6562TIP3   OH219649   7.192   0.936   2.287  0.4328  0.0219  0.4037
 6562TIP3    H119650   7.140   0.998   2.338  0.2575 -0.7648  1.1975
 6562TIP3    H219651   7.152   0.851   2.304  0.5152 -0.2873 -0.8690
 6563TIP3   OH219652   2.325   5.645   1.042 -0.5586  0.1062 -0.3631
 6563TIP3    H119653   2.247   5.686   1.004  0.4232  0.9178 -1.5686
 6563TIP3    H219654   2.310   5.648   1.137 -1.9618  0.2834 -0.5665
 6564TIP3   OH219655   3.824   5.931   5.427 -0.6499 -0.4173  0.6579
 6564TIP3    H119656   3.729   5.931   5.415 -0.7363 -1.5058  1.2178
 6564TIP3    H219657   3.836   5.934   5.522 -0.1385 -1.0366  0.6176
 6565TIP3   OH219658   0.934   2.258   5.556 -0.1998  0.1723 -0.0899
 6565TIP3    H119659   1.026   2.238   5.536 -0.0276  0.8999 -0.0564
 6565TIP3    H219660   0.927   2.247   5.651 -0.5820 -1.5503 -0.2790
 6566TIP3   OH219661   3.222   3.858   4.891  0.1579  0.0972  0.5984
 6566TIP3    H119662   3.264   3.827   4.811 -1.2193  0.1987 -0.1995
 6566TIP3    H219663   3.154   3.794   4.909 -1.4579  1.5654  0.0093
 6567TIP3   OH219664   3.445   6.204   0.965  0.5593 -0.0344 -0.5522
 6567TIP3    H119665   3.528   6.230   1.006 -0.8936  2.7739  0.9729
 6567TIP3    H219666   3.409   6.139   1.025  2.3186 -2.6956 -2.1604
 6568TIP3   OH219667   4.663   0.892   5.639 -0.0033  0.2016  0.2560
 6568TIP3    H119668   4.619   0.879   5.723 -1.5234  0.4129 -0.4773
 6568TIP3    H219669   4.610   0.842   5.577  0.9936  0.1970 -0.6122
 6569TIP3   OH219670   3.079   1.145   3.397  0.0101  0.2863 -0.4902
 6569TIP3    H119671   3.105   1.225   3.352 -1.1360  0.3828 -1.0403
 6569TIP3    H219672   3.129   1.076   3.354  1.5428  0.7623  0.4654
 6570TIP3   OH219673   0.838   1.478   0.666  0.0090  0.3942 -0.8791
 6570TIP3    H119674   0.907   1.419   0.634 -1.2779 -1.8157  0.2092
 6570TIP3    H219675   0.885   1.540   0.721  1.4817  0.7465 -2.4302
 6571TIP3   OH219676   4.947   3.800   0.357 -0.0564  0.2844 -0.8025
 6571TIP3    H119677   4.972   3.849   0.279  0.7526 -0.0328 -0.7547
 6571TIP3    H219678   5.030   3.766   0.391 -0.4776 -0.1463 -0.1921
 6572TIP3   OH219679   2.539   6.322   2.595  0.1542  0.9291  0.6243
 6572TIP3    H119680   2.632   6.335   2.607  1.0329 -0.5503 -2.9721
 6572TIP3    H219681   2.507   6.405   2.560  1.0363  0.3805 -1.6746
 6573TIP3   OH219682   6.281   6.723   3.033 -0.0659  0.3166  0.6709
 6573TIP3    H119683   6.280   6.712   2.937 -3.1811 -0.1105  0.6487
 6573TIP3    H219684   6.193   6.700   3.060  0.8742 -0.0292  3.7665
 6574TIP3   OH219685   5.757   3.116   5.250 -0.1491  0.4444 -0.0311
 6574TIP3    H119686   5.669   3.152   5.264 -0.6429  0.2932 -2.2419
 6574TIP3    H219687   5.772   3.129   5.156  0.2740 -3.6259 -0.7246
 6575TIP3   OH219688   5.332   6.061   4.301  0.2888 -0.1387  0.4813
 6575TIP3    H119689   5.313   6.003   4.227 -0.8435  0.0777  0.5776
 6575TIP3    H219690   5.420   6.094   4.284  0.8814 -1.7158  0.3210
 6576TIP3   OH219691   4.520   2.276   3.895 -0.1460 -0.1060  0.2641
 6576TIP3    H119692   4.521   2.331   3.974 -2.2424 -0.5423  0.6660
 6576TIP3    H219693   4.544   2.189   3.926  0.0713 -0.0631  0.2180
 6577TIP3   OH219694   2.507   5.176   2.664  0.0544 -0.3176 -0.3479
 6577TIP3    H119695   2.541   5.092   2.634  0.6480 -0.3885  0.5086
 6577TIP3    H219696   2.443   5.154   2.731  0.7978 -0.0666  0.4572
 6578TIP3   OH219697   4.205   0.197   1.505 -0.5588 -0.4732  0.1161
 6578TIP3    H119698   4.148   0.125   1.530  1.2373 -1.5891  1.2349
 6578TIP3    H219699   4.281   0.189   1.563 -0.9126  3.2332  1.3336
 6579TIP3   OH219700   0.314   5.391   3.977  0.3022  0.4577 -0.1954
 6579TIP3    H119701   0.295   5.467   3.922 -2.1774  1.2163  1.5342
 6579TIP3    H219702   0.389   5.349   3.935  0.2068  2.4604 -2.5929
 6580TIP3   OH219703   1.278   6.266   3.824  0.5582 -0.2555 -0.4283
 6580TIP3    H119704   1.342   6.325   3.783 -0.7789  0.9261 -0.9139
 6580TIP3    H219705   1.327   6.222   3.894  1.7364  1.0847 -0.3616
 6581TIP3   OH219706   3.164   4.660   3.220 -0.3146  0.7888 -0.0276
 6581TIP3    H119707   3.213   4.737   3.193  1.4146 -0.3127 -0.1541
 6581TIP3    H219708   3.181   4.595   3.152  0.9378 -0.7531  1.6520
 6582TIP3   OH219709   5.083   0.418   2.557  0.1215 -0.5578  0.2404
 6582TIP3    H119710   5.145   0.359   2.600 -1.0071 -1.2160  1.0281
 6582TIP3    H219711   5.067   0.487   2.622 -0.1728 -0.5485  0.1597
 6583TIP3   OH219712   0.763   4.739   3.388 -0.2920 -0.3643 -0.2277
 6583TIP3    H119713   0.855   4.760   3.409 -0.5767  0.9839 -0.1940
 6583TIP3    H219714   0.768   4.687   3.309  0.4526  1.2989 -1.3406
 6584TIP3   OH219715   3.980   3.580   3.252 -0.3294 -0.1188  0.6056
 6584TIP3    H119716   3.997   3.536   3.169  0.4775 -0.2534  0.8377
 6584TIP3    H219717   3.949   3.667   3.227  1.4652  0.4288  0.1428
 6585TIP3   OH219718   1.245   6.622   4.191  0.5885  0.2408 -0.1066
 6585TIP3    H119719   1.263   6.616   4.285  0.3637  0.7842 -0.0227
 6585TIP3    H219720   1.235   6.716   4.175  2.2460  0.3021 -0.9895
 6586TIP3   OH219721   3.452   3.941   5.729 -0.3346 -0.1467  0.4279
 6586TIP3    H119722   3.486   3.858   5.763 -1.4879 -1.6367 -1.8132
 6586TIP3    H219723   3.362   3.945   5.763  0.0723  0.7828  1.4423
 6587TIP3   OH219724   1.330   5.828   1.382 -0.0219 -0.5643 -0.8103
 6587TIP3    H119725   1.248   5.843   1.428  0.8142  2.3635 -0.0667
 6587TIP3    H219726   1.392   5.803   1.450  0.4500  0.5114 -0.8303
 6588TIP3   OH219727   7.139   2.354   2.293  0.0173  0.1583 -0.2451
 6588TIP3    H119728   7.149   2.332   2.386  2.1055  0.4972 -0.3489
 6588TIP3    H219729   7.211   2.414   2.274  0.4956 -1.0035 -2.4209
 6589TIP3   OH219730   6.930   5.074   2.021 -0.0128  0.2552 -0.8060
 6589TIP3    H119731   6.967   5.086   1.934 -1.4223  2.6856 -1.1568
 6589TIP3    H219732   6.961   5.149   2.071  0.0579 -0.6371  0.5521
 6590TIP3   OH219733   6.021   3.406   3.245 -0.2982  0.0314 -0.3823
 6590TIP3    H119734   5.983   3.477   3.298  0.7302  0.8533 -0.7257
 6590TIP3    H219735   6.028   3.442   3.157 -1.0134 -0.9763 -0.8823
 6591TIP3   OH219736   2.030   5.125   0.094  0.0443  0.0231  0.0355
 6591TIP3    H119737   1.994   5.192   0.035  1.2651  0.8233  0.1541
 6591TIP3    H219738   1.988   5.144   0.178  1.2365  1.4560  0.3676
 6592TIP3   OH219739   5.310   4.154   5.750 -0.3146 -0.3382 -0.4516
 6592TIP3    H119740   5.399   4.120   5.740 -0.4333 -0.3213 -1.6941
 6592TIP3    H219741   5.253   4.086   5.714 -0.5770  0.9401 -2.6474
 6593TIP3   OH219742   1.639   6.313   3.844  0.3141 -0.5113 -0.2933
 6593TIP3    H119743   1.653   6.387   3.903 -0.9125  0.5653 -1.2930
 6593TIP3    H219744   1.597   6.351   3.767  2.0925 -1.8061 -2.0175
 6594TIP3   OH219745   6.013   3.531   2.639  0.0310  0.1525 -0.2848
 6594TIP3    H119746   6.104   3.501   2.633  0.8912  2.7045 -1.6641
 6594TIP3    H219747   5.967   3.479   2.573 -0.0666 -2.5816  1.7658
 6595TIP3   OH219748   4.526   0.702   4.824 -0.3649 -0.1773 -0.1895
 6595TIP3    H119749   4.548   0.614   4.856  1.1534  1.2298  3.1955
 6595TIP3    H219750   4.606   0.733   4.781  0.1459  0.4960  1.1719
 6596TIP3   OH219751   4.027   3.771   4.694 -0.0299  0.0986  0.2651
 6596TIP3    H119752   4.015   3.678   4.716 -1.0507 -0.5733 -2.6489
 6596TIP3    H219753   3.940   3.809   4.705  0.4131  0.8014  1.5695
 6597TIP3   OH219754   1.725   2.944   2.289  0.2342  0.5886 -0.2366
 6597TIP3    H119755   1.801   2.892   2.314  0.0171  1.0623  1.5068
 6597TIP3    H219756   1.651   2.898   2.330 -0.1078  1.5242  0.2070
 6598TIP3   OH219757   5.500   5.598   3.898  0.9172  0.0563 -0.4806
 6598TIP3    H119758   5.564   5.554   3.842  0.9846 -3.8484  2.2686
 6598TIP3    H219759   5.554   5.645   3.962  0.8982  0.6366 -0.8789
 6599TIP3   OH219760   1.992   4.973   3.465 -0.2095  0.6518 -0.2695
 6599TIP3    H119761   2.056   5.009   3.527  0.7902 -1.0411 -0.2507
 6599TIP3    H219762   1.924   5.040   3.459  2.0870  3.0785 -1.1625
 6600TIP3   OH219763   0.250   0.258   2.385  0.0414  0.3602  0.1725
 6600TIP3    H119764   0.202   0.320   2.440  1.1182  2.0546 -0.6903
 6600TIP3    H219765   0.305   0.209   2.446  0.8183  1.8358  0.7104
 6601TIP3   OH219766   3.292   2.338   1.778  0.4875  0.2824  0.3312
 6601TIP3    H119767   3.304   2.258   1.726 -1.7865  0.0519  0.0483
 6601TIP3    H219768   3.335   2.319   1.861  1.9615 -0.3389 -0.5452
 6602TIP3   OH219769   5.380   6.653   2.743  0.0312  0.2158 -0.0005
 6602TIP3    H119770   5.323   6.724   2.772 -0.6813 -0.8695  1.3375
 6602TIP3    H219771   5.451   6.698   2.696 -1.9646  1.5929 -1.9147
 6603TIP3   OH219772   6.993   0.545   0.917 -0.0790  0.2193 -0.2288
 6603TIP3    H119773   6.927   0.523   0.984 -0.0023 -1.3108 -0.6135
 6603TIP3    H219774   6.990   0.640   0.911  0.1082  0.4411  2.1448
 6604TIP3   OH219775   6.836   2.329   3.203  0.4501 -0.7638 -0.3082
 6604TIP3    H119776   6.779   2.252   3.205  1.6308 -1.6878 -0.9020
 6604TIP3    H219777   6.908   2.306   3.262  0.2577  0.3703  0.3957
 6605TIP3   OH219778   4.277   5.672   4.192  0.4945 -0.0927 -0.5114
 6605TIP3    H119779   4.302   5.580   4.194 -0.9961 -0.5066  0.5756
 6605TIP3    H219780   4.213   5.678   4.121  0.4313  0.0654 -0.4420
 6606TIP3   OH219781   3.989   1.914   4.440 -0.2127  0.0218 -0.1877
 6606TIP3    H119782   3.923   1.848   4.462  0.8238 -0.4285  1.8114
 6606TIP3    H219783   4.046   1.870   4.377 -0.8219 -0.1771 -0.6142
 6607TIP3   OH219784   5.417   2.342   1.423 -0.0342  0.1691  0.1818
 6607TIP3    H119785   5.340   2.322   1.477 -0.5066  2.8069  0.6532
 6607TIP3    H219786   5.476   2.388   1.483  0.6493  0.7183 -0.8803
 6608TIP3   OH219787   6.652   2.768   0.963 -0.6653  0.4855 -0.3197
 6608TIP3    H119788   6.700   2.801   1.040 -1.4112 -0.3639  0.5318
 6608TIP3    H219789   6.566   2.743   0.997 -1.8423  2.1676 -1.8502
 6609TIP3   OH219790   1.444   0.124   3.823  0.0707  0.4135  0.5699
 6609TIP3    H119791   1.535   0.148   3.804  0.1541 -1.0476 -1.0857
 6609TIP3    H219792   1.422   0.058   3.758 -2.1882  0.6943  0.9595
 6610TIP3   OH219793   2.235   1.835   4.021 -0.2809  0.1627  0.1914
 6610TIP3    H119794   2.281   1.869   4.098 -1.8304  0.1272  1.1836
 6610TIP3    H219795   2.280   1.875   3.946  0.9799  0.5535  1.1146
 6611TIP3   OH219796   4.859   6.457   5.698 -0.2749 -0.0909  0.3103
 6611TIP3    H119797   4.824   6.380   5.653  0.7048  0.1290 -0.8459
 6611TIP3    H219798   4.935   6.483   5.647 -0.3361  1.4051  0.9329
 6612TIP3   OH219799   5.571   1.884   2.567  0.2464 -0.4366  0.5408
 6612TIP3    H119800   5.489   1.921   2.535  0.6530  0.5295  0.5875
 6612TIP3    H219801   5.553   1.863   2.659 -0.2554 -1.1939  0.2777
 6613TIP3   OH219802   3.679   6.358   1.715 -0.0192 -0.2951 -0.5536
 6613TIP3    H119803   3.586   6.337   1.704 -0.4900  0.6555  1.1724
 6613TIP3    H219804   3.679   6.444   1.757  1.5699 -1.0158  1.0811
 6614TIP3   OH219805   5.205   2.462   2.189  0.1529 -0.2057  0.4355
 6614TIP3    H119806   5.254   2.387   2.155 -0.4062 -0.1622 -0.4894
 6614TIP3    H219807   5.113   2.441   2.172  0.0456  1.2254 -1.0368
 6615TIP3   OH219808   3.840   2.549   5.686  0.3851  0.3677  0.4713
 6615TIP3    H119809   3.831   2.627   5.741 -1.2149 -0.7789  1.9173
 6615TIP3    H219810   3.849   2.477   5.748  1.2254 -0.6918 -0.8369
 6616TIP3   OH219811   6.053   5.242   0.668  0.0251  0.9118 -0.4027
 6616TIP3    H119812   6.037   5.327   0.707 -0.1881  0.4473  0.5533
 6616TIP3    H219813   6.145   5.224   0.686 -0.0995  0.6519 -0.0179
 6617TIP3   OH219814   2.936   0.553   3.399 -0.2444 -0.1631  0.3167
 6617TIP3    H119815   2.847   0.528   3.423 -0.5111  0.4119 -0.0529
 6617TIP3    H219816   2.980   0.470   3.380 -0.9091 -0.3965 -0.2162
 6618TIP3   OH219817   2.699   2.372   1.714 -0.4950  0.1346  0.1713
 6618TIP3    H119818   2.651   2.362   1.797 -0.1715  1.3701  0.5396
 6618TIP3    H219819   2.631   2.368   1.647 -0.9683  0.5638  0.6070
 6619TIP3   OH219820   1.972   0.456   1.869 -0.2011 -0.4168  0.5660
 6619TIP3    H119821   1.966   0.511   1.947 -1.6393 -0.9206  0.8324
 6619TIP3    H219822   2.066   0.454   1.849  0.1393  0.1562  1.9619
 6620TIP3   OH219823   1.578   6.125   1.206  0.2529  0.0482  0.5284
 6620TIP3    H119824   1.513   6.092   1.268  0.0460 -0.6022 -0.0158
 6620TIP3    H219825   1.661   6.090   1.237 -0.1402 -2.3265 -0.8725
 6621TIP3   OH219826   1.022   2.305   4.296 -0.2318  0.3859 -0.0357
 6621TIP3    H119827   1.017   2.218   4.257 -0.4516  0.8571 -1.1132
 6621TIP3    H219828   1.047   2.290   4.387 -1.6927 -0.8904  0.1982
 6622TIP3   OH219829   4.990   4.102   4.191  0.3040 -0.2783 -0.3221
 6622TIP3    H119830   4.931   4.038   4.230 -1.1953  0.9561 -0.4442
 6622TIP3    H219831   4.952   4.187   4.215  0.5872  0.5522 -2.5001
 6623TIP3   OH219832   6.047   5.510   0.724  0.3640  0.0818  0.2018
 6623TIP3    H119833   5.972   5.555   0.763  0.1332  0.5416 -0.7637
 6623TIP3    H219834   6.120   5.531   0.782  0.3512  2.0541 -0.4575
 6624TIP3   OH219835   6.741   4.801   1.845  0.0586 -0.0509 -0.1290
 6624TIP3    H119836   6.671   4.755   1.799  0.6805 -0.1035 -1.0648
 6624TIP3    H219837   6.754   4.882   1.795  0.7707 -0.1211 -0.0780
 6625TIP3   OH219838   0.648   0.501   0.349  0.5265  0.5568 -0.1690
 6625TIP3    H119839   0.638   0.508   0.254  0.8931 -0.0514 -0.2555
 6625TIP3    H219840   0.686   0.586   0.375 -0.9416  1.2971 -0.3569
 6626TIP3   OH219841   0.923   4.440   5.132 -0.0025 -0.3801  0.1701
 6626TIP3    H119842   0.926   4.449   5.227  0.7077 -0.1503  0.1333
 6626TIP3    H219843   0.972   4.360   5.114 -0.3453 -0.5561  0.0115
 6627TIP3   OH219844   1.988   0.279   0.752 -0.4193  0.1270  0.0753
 6627TIP3    H119845   2.020   0.189   0.749  0.0872  0.2670  0.9971
 6627TIP3    H219846   1.907   0.277   0.700  0.1468 -0.6075 -0.8108
 6628TIP3   OH219847   0.581   3.403   3.697 -0.5302 -0.4951  0.0587
 6628TIP3    H119848   0.552   3.321   3.737  2.0903 -1.4129  0.2801
 6628TIP3    H219849   0.569   3.389   3.603 -0.9427 -0.7671  0.1483
 6629TIP3   OH219850   1.775   2.148   2.784 -0.8640  0.0091  0.4112
 6629TIP3    H119851   1.699   2.092   2.769  0.5130 -1.9843  0.3408
 6629TIP3    H219852   1.810   2.120   2.869 -2.2507  3.5040  2.3166
 6630TIP3   OH219853   2.443   5.912   4.327 -0.1823 -0.5143  0.2887
 6630TIP3    H119854   2.381   5.901   4.399  1.2228  0.2994  1.6711
 6630TIP3    H219855   2.417   5.994   4.285 -0.0704 -0.1861  0.8511
 6631TIP3   OH219856   0.965   1.949   5.783 -0.2669  0.2280  0.2295
 6631TIP3    H119857   0.905   1.958   5.857 -1.2397  1.2436 -0.6292
 6631TIP3    H219858   0.973   1.855   5.770 -0.6592  0.0519  1.1688
 6632TIP3   OH219859   4.816   6.749   4.628 -0.2325  0.2361  0.3766
 6632TIP3    H119860   4.835   6.684   4.561 -1.4802  1.0794 -0.8469
 6632TIP3    H219861   4.728   6.728   4.658 -0.6258  1.3006  0.0148
 6633TIP3   OH219862   2.663   4.801   0.492  0.1244 -0.3610 -0.4175
 6633TIP3    H119863   2.612   4.721   0.509  0.4819 -0.8026 -1.3918
 6633TIP3    H219864   2.600   4.872   0.504 -1.2524 -0.9639 -3.2726
 6634TIP3   OH219865   4.835   5.770   1.357 -0.2078  0.4972 -0.5274
 6634TIP3    H119866   4.809   5.741   1.269 -0.6269 -1.5877  0.2231
 6634TIP3    H219867   4.765   5.739   1.414  1.9319 -1.7852  1.0547
 6635TIP3   OH219868   0.504   6.477   5.054  0.6523 -0.2181 -0.0715
 6635TIP3    H119869   0.594   6.468   5.024  0.4059 -0.0346 -0.9044
 6635TIP3    H219870   0.454   6.495   4.974 -0.1986 -0.8385  0.3061
 6636TIP3   OH219871   4.408   1.833   0.018 -0.5020  0.3056  0.3364
 6636TIP3    H119872   4.475   1.882   0.065  0.3357  0.5511 -1.0612
 6636TIP3    H219873   4.337   1.895   0.004  0.4760  1.1193 -1.2616
 6637TIP3   OH219874   2.559   4.076   4.478 -0.2470 -0.7307 -0.7079
 6637TIP3    H119875   2.483   4.081   4.536 -0.6222 -1.5785 -1.1160
 6637TIP3    H219876   2.558   4.159   4.430 -0.9751 -0.7909 -0.7971
 6638TIP3   OH219877   4.530   2.306   2.458 -0.0898  0.5800 -0.0913
 6638TIP3    H119878   4.521   2.393   2.417 -1.1008 -0.2773 -1.7979
 6638TIP3    H219879   4.455   2.256   2.426  2.7717 -2.3569 -3.0068
 6639TIP3   OH219880   1.617   6.130   4.361  0.1884 -0.2549 -0.3706
 6639TIP3    H119881   1.677   6.056   4.356 -0.5893 -1.0390  1.2006
 6639TIP3    H219882   1.674   6.207   4.365  1.0589 -0.9072  0.0270
 6640TIP3   OH219883   4.543   1.647   5.077  0.1491 -0.4989 -0.2583
 6640TIP3    H119884   4.531   1.566   5.028  0.3561 -1.4328  1.1561
 6640TIP3    H219885   4.589   1.705   5.017 -0.4145 -1.2578 -1.4628
 6641TIP3   OH219886   4.215   2.890   5.489 -0.1345 -0.1763 -0.0302
 6641TIP3    H119887   4.253   2.881   5.402 -0.1839 -1.9524  0.1033
 6641TIP3    H219888   4.121   2.901   5.473 -0.2460 -1.3116 -0.1790
 6642TIP3   OH219889   3.154   5.380   5.132 -0.1798  0.1492  0.3038
 6642TIP3    H119890   3.182   5.331   5.209 -1.6642 -0.4605  0.4998
 6642TIP3    H219891   3.106   5.316   5.080  0.6052  0.6061 -1.0366
 6643TIP3   OH219892   7.144   4.769   4.265  0.0210  0.2044  0.2714
 6643TIP3    H119893   7.232   4.800   4.287  1.2476 -1.7430 -1.4622
 6643TIP3    H219894   7.129   4.802   4.177 -0.2555 -0.8175 -0.0801
 6644TIP3   OH219895   1.363   4.628   2.198 -0.2112  0.0925 -0.2565
 6644TIP3    H119896   1.295   4.673   2.247 -0.5332 -0.7221  0.0661
 6644TIP3    H219897   1.421   4.697   2.166 -0.0131  0.6365  1.2284
 6645TIP3   OH219898   6.173   2.121   4.737  0.3347  0.5935  0.0250
 6645TIP3    H119899   6.208   2.188   4.678  2.2711  0.0625  0.5180
 6645TIP3    H219900   6.209   2.142   4.823  0.4117 -0.6810  0.3209
 6646TIP3   OH219901   5.687   2.244   3.886  0.2829 -0.1765 -0.5249
 6646TIP3    H119902   5.597   2.212   3.885  0.5714 -1.0354  0.1306
 6646TIP3    H219903   5.688   2.314   3.821 -1.5093  1.6215  1.2078
 6647TIP3   OH219904   4.334   2.475   2.893 -0.0793  0.0755  0.3818
 6647TIP3    H119905   4.422   2.458   2.859 -0.5192 -1.4406 -0.0937
 6647TIP3    H219906   4.304   2.553   2.846 -0.6889 -1.9405 -2.9099
 6648TIP3   OH219907   3.668   2.972   1.707 -0.2459  0.2008 -0.4911
 6648TIP3    H119908   3.746   2.917   1.697 -0.6208 -0.5460  0.5133
 6648TIP3    H219909   3.602   2.913   1.743 -1.2811  0.8266 -1.3185
 6649TIP3   OH219910   3.026   3.324   3.727 -0.2448 -0.1026 -0.8471
 6649TIP3    H119911   3.093   3.299   3.791  0.3808  0.7138 -1.1658
 6649TIP3    H219912   2.946   3.334   3.779 -0.0418 -0.7263 -0.4028
 6650TIP3   OH219913   7.117   5.631   5.511  1.0649  0.1980 -0.7370
 6650TIP3    H119914   7.193   5.639   5.454  2.2295  3.2036  0.9974
 6650TIP3    H219915   7.042   5.639   5.453  2.1708  1.1468 -2.0968
 6651TIP3   OH219916   2.752   0.018   0.119  0.1034  0.1842  0.3401
 6651TIP3    H119917   2.700   0.006   0.199 -0.0300  1.5977  0.4914
 6651TIP3    H219918   2.824   0.075   0.146  1.4161 -1.2423 -0.0166
 6652TIP3   OH219919   0.818   0.110   1.438  0.4087  0.3249 -0.3957
 6652TIP3    H119920   0.808   0.105   1.343  0.4573  1.6576 -0.4865
 6652TIP3    H219921   0.729   0.121   1.471  0.1113 -2.3003 -0.0757
 6653TIP3   OH219922   3.122   0.096   2.997  0.2807  0.4996  0.0272
 6653TIP3    H119923   3.048   0.149   3.026 -1.1423 -0.5762 -1.5162
 6653TIP3    H219924   3.099   0.006   3.021  1.3756  0.2016  0.0527
 6654TIP3   OH219925   5.475   1.992   0.199  0.1098 -0.0345  0.3015
 6654TIP3    H119926   5.379   1.996   0.198  0.0157 -0.5006  2.6031
 6654TIP3    H219927   5.498   1.966   0.109 -1.7889  1.6952 -0.7830
 6655TIP3   OH219928   5.303   1.087   2.044 -0.6825 -0.3663  0.1157
 6655TIP3    H119929   5.242   1.154   2.014 -1.9423 -1.5682 -0.1348
 6655TIP3    H219930   5.376   1.091   1.981 -0.4188  1.1572  0.4853
 6656TIP3   OH219931   6.972   4.068   4.571 -0.0072 -0.2391 -0.5656
 6656TIP3    H119932   7.043   4.060   4.635 -2.0927 -0.2511  1.8687
 6656TIP3    H219933   6.984   4.155   4.534  0.9682 -0.0319  0.1806
 6657TIP3   OH219934   2.927   1.901   5.065 -0.8148  0.0478 -0.3193
 6657TIP3    H119935   2.896   1.816   5.033 -1.6380  0.6063 -1.0326
 6657TIP3    H219936   2.870   1.965   5.024  0.1408  0.9953 -0.2149
 6658TIP3   OH219937   6.647   1.472   0.264 -0.2285  0.0256 -0.0118
 6658TIP3    H119938   6.672   1.532   0.335  1.5177  0.7295 -1.1656
 6658TIP3    H219939   6.628   1.529   0.190 -0.0571 -0.7928 -0.7020
 6659TIP3   OH219940   1.957   0.684   3.124 -0.0741  0.1741 -0.3759
 6659TIP3    H119941   1.975   0.654   3.035  0.9495 -0.5193  0.0462
 6659TIP3    H219942   1.972   0.778   3.121 -0.0976  0.1638 -0.9481
 6660TIP3   OH219943   1.406   0.112   5.018  0.0487 -0.0100  0.1420
 6660TIP3    H119944   1.415   0.029   4.970 -0.4062 -0.3281  0.5955
 6660TIP3    H219945   1.375   0.086   5.105  2.4442  0.3974  1.2151
 6661TIP3   OH219946   3.379   1.421   3.908 -0.4293  1.0385 -0.0546
 6661TIP3    H119947   3.341   1.508   3.923 -1.3203  0.6473  0.0404
 6661TIP3    H219948   3.304   1.362   3.906  0.2756 -0.0766  2.2547
 6662TIP3   OH219949   1.970   6.055   2.349 -0.3447 -0.2049 -0.3489
 6662TIP3    H119950   2.057   6.093   2.361 -1.0057  1.7267 -1.3238
 6662TIP3    H219951   1.980   5.999   2.271  0.1713 -0.5504 -0.0452
 6663TIP3   OH219952   3.574   4.003   0.991 -0.0380  0.2685  0.0817
 6663TIP3    H119953   3.619   4.080   1.026  0.1623  0.5097 -0.7065
 6663TIP3    H219954   3.635   3.931   1.007 -0.3132  0.2212  1.0088
 6664TIP3   OH219955   3.002   1.839   0.595  0.0212  0.0665 -0.1500
 6664TIP3    H119956   2.951   1.783   0.653  0.2222 -2.1254 -1.9647
 6664TIP3    H219957   2.938   1.879   0.537  0.0908 -0.1586 -0.3812
 6665TIP3   OH219958   3.828   0.429   0.234 -0.2544 -0.8275  0.1187
 6665TIP3    H119959   3.902   0.443   0.292 -1.3376  0.2206  1.3069
 6665TIP3    H219960   3.758   0.483   0.270 -1.0869 -0.4057 -1.9713
 6666TIP3   OH219961   6.691   2.406   1.177  0.4019 -0.2973 -0.0244
 6666TIP3    H119962   6.598   2.402   1.200  0.5814  1.1438  1.1206
 6666TIP3    H219963   6.715   2.316   1.157 -1.2518 -0.6777 -0.3979
 6667TIP3   OH219964   6.361   6.648   4.925 -0.5062  0.3141 -0.2043
 6667TIP3    H119965   6.289   6.592   4.897 -0.1642 -1.0939  1.5501
 6667TIP3    H219966   6.406   6.597   4.992  0.8728  2.0156  0.2262
 6668TIP3   OH219967   2.837   5.446   3.008 -0.3261 -0.0135  0.3248
 6668TIP3    H119968   2.841   5.351   3.018 -0.3433  0.1506  2.2183
 6668TIP3    H219969   2.925   5.471   2.978 -0.7300 -0.7245 -1.5793
 6669TIP3   OH219970   2.566   0.674   3.856  0.4100 -0.9352 -0.3311
 6669TIP3    H119971   2.652   0.703   3.886 -0.4187 -0.1076  1.4098
 6669TIP3    H219972   2.536   0.743   3.797 -0.8328  1.1203  2.4723
 6670TIP3   OH219973   5.861   1.642   4.264 -0.2351  0.0149  0.3992
 6670TIP3    H119974   5.794   1.574   4.269 -1.0005  0.5041 -2.1482
 6670TIP3    H219975   5.812   1.725   4.265  0.4786  0.4482  0.4716
 6671TIP3   OH219976   4.019   1.715   0.835  0.0886  0.3803 -0.3604
 6671TIP3    H119977   3.991   1.750   0.751  0.8640 -1.0559 -1.2683
 6671TIP3    H219978   4.111   1.691   0.822 -0.6569 -3.0033 -0.2474
 6672TIP3   OH219979   2.725   2.752   1.126  0.4261 -0.6666 -0.3777
 6672TIP3    H119980   2.743   2.714   1.040 -0.3261  0.5581 -1.1078
 6672TIP3    H219981   2.785   2.707   1.185  1.2254 -1.2715 -1.6026
 6673TIP3   OH219982   3.961   5.127   2.097 -0.2324  0.4026 -0.1057
 6673TIP3    H119983   4.055   5.116   2.086 -0.5286 -1.2376 -1.4178
 6673TIP3    H219984   3.943   5.217   2.068  0.9180  0.7368  0.1825
 6674TIP3   OH219985   2.576   5.473   2.008  0.0055  0.1332  0.5086
 6674TIP3    H119986   2.495   5.501   2.050 -0.5032 -1.6254  0.7752
 6674TIP3    H219987   2.600   5.546   1.951 -2.1274  0.4185 -0.1011
 6675TIP3   OH219988   4.207   2.219   4.185  0.0727 -0.5131 -0.6698
 6675TIP3    H119989   4.136   2.198   4.245  0.4577  1.1681  0.4478
 6675TIP3    H219990   4.278   2.159   4.209 -0.2254 -0.7294 -0.3235
 6676TIP3   OH219991   4.917   0.516   3.245  0.1755 -0.4179  0.4946
 6676TIP3    H119992   4.972   0.538   3.170  0.4825 -0.1801  0.7856
 6676TIP3    H219993   4.839   0.476   3.207  0.5716 -0.8042  0.0784
 6677TIP3   OH219994   5.160   0.256   5.158 -0.1234 -0.2883 -0.0122
 6677TIP3    H119995   5.176   0.162   5.153  0.9923 -0.1174  0.0840
 6677TIP3    H219996   5.232   0.289   5.212  0.4170  0.8435 -1.3952
 6678TIP3   OH219997   2.930   6.681   2.216  0.1561 -0.0772  0.8452
 6678TIP3    H119998   3.006   6.626   2.199  0.4751  0.6098 -0.0014
 6678TIP3    H219999   2.855   6.621   2.207  0.5404 -0.5495  0.7661
 6679TIP3   OH220000   7.196   6.598   3.263 -0.1708  0.3296 -0.0264
 6679TIP3    H120001   7.220   6.576   3.353 -2.3601 -0.5660  0.4151
 6679TIP3    H220002   7.157   6.686   3.270 -0.8871  0.0158  0.0317
 6680TIP3   OH220003   5.155   0.346   1.100  0.4557 -0.1741  0.0910
 6680TIP3    H120004   5.129   0.434   1.128  1.3300 -0.2561  1.2308
 6680TIP3    H220005   5.164   0.354   1.005 -0.6938  0.6281  0.0203
 6681TIP3   OH220006   5.043   1.580   5.572 -0.6164 -0.0373 -0.1205
 6681TIP3    H120007   5.027   1.515   5.504 -0.1924 -0.5399  0.2481
 6681TIP3    H220008   5.065   1.529   5.650  0.2791  0.5557  0.0320
 6682TIP3   OH220009   5.118   4.111   3.931 -0.1522 -0.0292  0.6012
 6682TIP3    H120010   5.080   4.096   4.018  3.4706 -4.2389  1.8736
 6682TIP3    H220011   5.089   4.036   3.879  0.8140  0.3793 -0.5739
 6683TIP3   OH220012   2.813   3.109   2.072 -0.2959 -0.1360  0.2243
 6683TIP3    H120013   2.730   3.120   2.027 -0.6878 -1.7760  0.5036
 6683TIP3    H220014   2.864   3.051   2.015  0.3979  0.2851  0.4014
 6684TIP3   OH220015   6.239   6.736   3.365 -0.2957 -0.1144  0.6111
 6684TIP3    H120016   6.254   6.792   3.289 -0.3373  0.6487  1.1437
 6684TIP3    H220017   6.310   6.759   3.425  0.4453 -1.5820  0.3296
 6685TIP3   OH220018   4.342   0.841   3.904 -0.1612 -0.4218  0.4419
 6685TIP3    H120019   4.406   0.907   3.878 -0.1354 -0.7779 -0.4318
 6685TIP3    H220020   4.258   0.886   3.900 -0.2881 -0.7528 -1.3943
 6686TIP3   OH220021   6.556   3.651   0.115 -0.5040  0.0232  0.0319
 6686TIP3    H120022   6.475   3.678   0.159 -0.2255  0.0951  0.5084
 6686TIP3    H220023   6.623   3.654   0.184  0.0421  0.6476 -0.5123
 6687TIP3   OH220024   0.872   5.848   5.378  0.1620  0.0595  0.4256
 6687TIP3    H120025   0.863   5.791   5.454 -0.7392  0.3511  0.5522
 6687TIP3    H220026   0.945   5.811   5.328  1.7423  0.6949  2.1533
 6688TIP3   OH220027   5.974   4.260   1.380 -0.4153 -0.1060  0.3289
 6688TIP3    H120028   5.886   4.269   1.345 -0.4799 -1.1727  0.1860
 6688TIP3    H220029   6.027   4.233   1.305  0.1894  1.2089  0.2554
 6689TIP3   OH220030   0.079   0.423   2.525  0.0094  0.2289 -0.1095
 6689TIP3    H120031   0.128   0.502   2.501  0.8412 -0.1346  0.3347
 6689TIP3    H220032   0.007   0.455   2.579  0.3679  0.6799  0.1078
 6690TIP3   OH220033   6.535   1.838   5.808 -1.0318  0.2482 -0.0229
 6690TIP3    H120034   6.535   1.745   5.830  0.1000  0.2453  0.0277
 6690TIP3    H220035   6.524   1.841   5.713 -0.0328  0.0034 -0.1595
 6691TIP3   OH220036   1.101   2.959   5.734 -0.9286  0.4620 -0.3819
 6691TIP3    H120037   1.014   2.928   5.708 -0.6085  0.7686 -1.9207
 6691TIP3    H220038   1.157   2.882   5.724 -1.5173 -0.8599  4.1397
 6692TIP3   OH220039   3.653   5.963   3.703  0.2650 -0.3255  0.0889
 6692TIP3    H120040   3.626   5.944   3.613 -0.3692  0.3512  0.1284
 6692TIP3    H220041   3.571   5.980   3.750  0.6001 -0.5231  0.7675
 6693TIP3   OH220042   4.842   6.779   3.299  0.1378 -0.2825 -0.1271
 6693TIP3    H120043   4.844   6.724   3.221  1.2324 -0.8224  0.2638
 6693TIP3    H220044   4.798   6.727   3.365  2.9376 -1.5968  0.8502
 6694TIP3   OH220045   0.201   4.955   3.866 -0.3759 -0.4338  0.3773
 6694TIP3    H120046   0.124   4.898   3.876 -0.4226 -0.3929  0.2486
 6694TIP3    H220047   0.196   5.015   3.940 -0.1913 -0.7585  0.6534
 6695TIP3   OH220048   0.863   3.033   2.284 -0.2982  0.8188  0.1822
 6695TIP3    H120049   0.934   3.078   2.239 -0.6454  1.6916  0.4784
 6695TIP3    H220050   0.880   3.048   2.377  0.5252 -1.1321  0.3922
 6696TIP3   OH220051   6.897   5.951   0.045  0.3901 -0.1984 -0.2358
 6696TIP3    H120052   6.926   6.035   0.010  2.6351  0.3643  2.5126
 6696TIP3    H220053   6.971   5.891   0.028  2.0548  0.3280  3.7852
 6697TIP3   OH220054   2.242   5.134   3.915 -0.5473 -0.1228 -0.1650
 6697TIP3    H120055   2.246   5.150   4.009 -2.5572 -0.4409  0.0277
 6697TIP3    H220056   2.311   5.070   3.899  0.3926  0.5768  0.9228
 6698TIP3   OH220057   2.135   3.447   2.765 -0.4731 -0.8051  0.1857
 6698TIP3    H120058   2.049   3.484   2.783 -0.2784 -1.2366  2.2198
 6698TIP3    H220059   2.195   3.521   2.772 -0.5339 -0.7521  0.1480
 6699TIP3   OH220060   4.258   3.972   3.445 -0.6173 -0.3258 -0.2834
 6699TIP3    H120061   4.214   3.973   3.530  1.6493 -0.3283  0.9639
 6699TIP3    H220062   4.278   3.879   3.430 -2.3916 -0.5465 -1.6488
 6700TIP3   OH220063   3.725   4.261   5.066 -0.1281  0.2257  0.1316
 6700TIP3    H120064   3.766   4.279   4.981  0.1817  0.1383  0.2636
 6700TIP3    H220065   3.658   4.329   5.074  0.7593  1.0930  0.4383
 6701TIP3   OH220066   3.257   5.781   3.537  0.8157 -0.0306 -0.3117
 6701TIP3    H120067   3.277   5.837   3.463  0.9514  0.9296  0.4337
 6701TIP3    H220068   3.168   5.750   3.522  2.0576 -2.9026 -2.7675
 6702TIP3   OH220069   1.881  -0.021   3.692 -0.1703  0.1566  0.6370
 6702TIP3    H120070   1.943   0.052   3.680 -0.9592  0.9273  1.1563
 6702TIP3    H220071   1.870  -0.027   3.787 -0.7257 -0.1246  0.5553
 6703TIP3   OH220072   5.017   2.432   1.147  0.0872 -0.8542  0.0521
 6703TIP3    H120073   5.023   2.467   1.236  0.6581  1.1754 -0.7369
 6703TIP3    H220074   4.935   2.382   1.147 -0.6363  0.2666  1.3219
 6704TIP3   OH220075   6.832   3.622   5.201  0.2542 -0.0307  0.2562
 6704TIP3    H120076   6.893   3.644   5.272 -0.5542 -0.8306  1.2475
 6704TIP3    H220077   6.855   3.681   5.130  0.7998  1.1369  1.3512
 6705TIP3   OH220078   6.641   5.496   2.482 -0.9462 -0.1133 -0.1967
 6705TIP3    H120079   6.691   5.534   2.410  2.9149 -0.8547  1.8602
 6705TIP3    H220080   6.652   5.402   2.473 -0.8130 -0.2397  1.0738
 6706TIP3   OH220081   6.524   6.021   5.314  0.3517 -0.3410 -0.5603
 6706TIP3    H120082   6.460   6.056   5.376 -0.0500  0.1867 -1.2470
 6706TIP3    H220083   6.509   5.926   5.315  1.6389 -0.5649  1.5237
 6707TIP3   OH220084   3.509   0.690   2.994 -0.5399 -0.0240  0.4653
 6707TIP3    H120085   3.519   0.779   3.028 -1.1113  0.3410 -0.2900
 6707TIP3    H220086   3.527   0.634   3.070  2.5087  0.6086  0.3361
 6708TIP3   OH220087   6.683   1.872   4.263  0.0245 -0.9545 -0.0004
 6708TIP3    H120088   6.696   1.783   4.295  2.1694 -0.8651 -0.5244
 6708TIP3    H220089   6.591   1.891   4.283 -0.0134 -2.6444  1.6583
 6709TIP3   OH220090   1.381   4.417   4.126 -0.1353  0.9501  0.2683
 6709TIP3    H120091   1.348   4.330   4.106  2.5626  0.3019 -2.1823
 6709TIP3    H220092   1.455   4.401   4.185  0.2622  1.5868 -0.0488
 6710TIP3   OH220093   4.284   2.559   2.586  0.3332 -0.0361 -0.4221
 6710TIP3    H120094   4.257   2.477   2.544 -1.2850  0.9666 -1.4635
 6710TIP3    H220095   4.372   2.575   2.553 -0.8358  0.6722 -3.5864
 6711TIP3   OH220096   1.051   0.812   5.893 -0.0927  0.1654 -0.1003
 6711TIP3    H120097   1.034   0.863   5.814 -1.5341 -1.2916 -0.8008
 6711TIP3    H220098   1.081   0.727   5.860  0.2010 -0.1576  0.9662
 6712TIP3   OH220099   2.092   2.724   4.682 -0.0468  0.2208 -0.6100
 6712TIP3    H120100   2.140   2.770   4.750  0.2811  0.8955 -1.2807
 6712TIP3    H220101   2.007   2.704   4.721  0.3463  0.0768  0.1807
 6713TIP3   OH220102   6.044   6.622   1.689 -0.2941 -0.7286  0.3813
 6713TIP3    H120103   6.096   6.621   1.609  0.2176 -0.0361  0.6955
 6713TIP3    H220104   5.989   6.700   1.681 -1.5254 -1.6236 -0.0896
 6714TIP3   OH220105   6.882   1.993   4.940  0.2511  0.5239  0.1507
 6714TIP3    H120106   6.947   1.930   4.970 -0.8892  0.1928  2.1020
 6714TIP3    H220107   6.924   2.078   4.951  1.2211  0.2172 -0.9945
 6715TIP3   OH220108   7.218   2.298   1.101 -0.1822 -0.7477 -0.6329
 6715TIP3    H120109   7.212   2.344   1.017  0.4538  0.1265 -0.2151
 6715TIP3    H220110   7.135   2.318   1.144 -0.3859 -0.9528 -0.9199
 6716TIP3   OH220111   5.784   2.495   4.459 -0.0898 -0.0055 -0.0884
 6716TIP3    H120112   5.688   2.497   4.462 -0.0503  1.2763  1.3444
 6716TIP3    H220113   5.809   2.433   4.528  0.1241  0.5216  0.3131
 6717TIP3   OH220114   3.476   0.621   5.104 -0.0487  0.2175 -0.2047
 6717TIP3    H120115   3.384   0.627   5.132  0.3629 -1.9726  1.9178
 6717TIP3    H220116   3.526   0.653   5.179  0.9767 -0.3436 -0.6330
 6718TIP3   OH220117   4.363   6.796   5.191 -0.1113 -0.5399  0.3087
 6718TIP3    H120118   4.364   6.833   5.102  2.8090 -0.3533  0.3208
 6718TIP3    H220119   4.401   6.708   5.181  2.4001  0.2956  1.5686
 6719TIP3   OH220120   2.814   4.820   5.566  0.0435  0.0962 -0.1971
 6719TIP3    H120121   2.882   4.813   5.500  1.4243 -0.3555  1.2195
 6719TIP3    H220122   2.847   4.884   5.629 -1.4237  0.8380 -0.1350
 6720TIP3   OH220123   1.571   5.941   3.807 -0.5080  0.0123 -0.0176
 6720TIP3    H120124   1.630   5.945   3.882  0.9938 -0.2092 -1.1379
 6720TIP3    H220125   1.575   5.850   3.778 -2.1203 -0.2141  0.4218
 6721TIP3   OH220126   3.747   5.222   0.102 -0.2248  0.3860 -0.1213
 6721TIP3    H120127   3.731   5.317   0.110  2.3425  1.1455 -2.6039
 6721TIP3    H220128   3.768   5.194   0.191 -2.3243  1.8149  0.9134
 6722TIP3   OH220129   2.004   5.032   2.642 -0.6909 -0.6121  0.3015
 6722TIP3    H120130   2.084   5.001   2.600 -0.1414  1.9805 -0.7292
 6722TIP3    H220131   1.959   4.952   2.670  0.9092 -2.2656 -1.5720
 6723TIP3   OH220132   0.775   1.038   0.171  0.2589 -0.6622  0.0000
 6723TIP3    H120133   0.820   1.119   0.194  0.4917  0.1320 -2.9127
 6723TIP3    H220134   0.844   0.979   0.142 -0.2104 -0.8014 -0.8545
 6724TIP3   OH220135   2.614   6.500   0.946 -0.1145 -0.4173  0.1240
 6724TIP3    H120136   2.656   6.476   0.863  2.6417  1.2781  0.8953
 6724TIP3    H220137   2.530   6.454   0.945 -0.3389 -0.2072 -3.7244
 6725TIP3   OH220138   0.991   5.291   0.650  0.4386  0.1257  0.3288
 6725TIP3    H120139   1.074   5.251   0.623  0.0444 -0.0238 -0.7156
 6725TIP3    H220140   0.984   5.270   0.743  0.5582 -1.7101 -0.0356
 6726TIP3   OH220141   0.703   2.244   2.553 -0.0089  0.1976  0.4318
 6726TIP3    H120142   0.717   2.302   2.628 -0.7074  0.2062  0.5708
 6726TIP3    H220143   0.734   2.294   2.478  1.6389 -0.2009  0.8092
 6727TIP3   OH220144   4.887   0.307   2.406 -0.0343 -0.4230 -0.3458
 6727TIP3    H120145   4.947   0.365   2.453  0.5613 -0.6149 -0.8612
 6727TIP3    H220146   4.920   0.306   2.317  0.0663 -1.7022 -0.3075
 6728TIP3   OH220147   6.796   3.103   3.347 -0.1430 -0.0330  0.4721
 6728TIP3    H120148   6.823   3.012   3.361 -0.5615 -0.9579 -3.5240
 6728TIP3    H220149   6.700   3.098   3.340 -0.0856  0.3855 -1.0786
 6729TIP3   OH220150   0.408   0.480   2.112  0.0201  0.4062  0.0518
 6729TIP3    H120151   0.492   0.524   2.103  0.6307 -0.9668 -1.5335
 6729TIP3    H220152   0.345   0.550   2.130  1.0673  1.8084 -1.4598
 6730TIP3   OH220153   6.802   5.194   3.952 -0.0744 -0.4099 -0.1233
 6730TIP3    H120154   6.739   5.265   3.952  0.0234 -0.3195  0.4146
 6730TIP3    H220155   6.763   5.127   3.895 -0.3504 -0.0935 -0.3071
 6731TIP3   OH220156   4.077   0.205   1.971 -0.1132  0.1974  0.3265
 6731TIP3    H120157   4.045   0.141   2.034 -2.2760  1.3149  0.4827
 6731TIP3    H220158   4.128   0.155   1.907 -3.2092 -2.0345 -0.6016
 6732TIP3   OH220159   1.167   4.646   4.088  0.6192  0.0959 -0.2052
 6732TIP3    H120160   1.170   4.552   4.070  2.0616  0.1509 -0.2962
 6732TIP3    H220161   1.255   4.669   4.117  0.6735  1.6839 -1.4794
 6733TIP3   OH220162   1.367   4.885   4.691  0.6704  0.8150  0.1059
 6733TIP3    H120163   1.280   4.917   4.712  0.6540  1.2785 -0.6277
 6733TIP3    H220164   1.370   4.796   4.728  0.3711  1.2937  1.3025
 6734TIP3   OH220165   5.524   0.662   5.135  0.0450 -0.0226  0.2444
 6734TIP3    H120166   5.492   0.673   5.225  1.8081  0.1359  0.8979
 6734TIP3    H220167   5.465   0.716   5.082 -0.4267  0.6922  1.4436
 6735TIP3   OH220168   7.196   6.625   1.505  0.0755 -0.3736 -0.3989
 6735TIP3    H120169   7.134   6.609   1.434  1.4932 -0.2972 -1.7031
 6735TIP3    H220170   7.279   6.642   1.461  0.5339  2.0050  1.1730
 6736TIP3   OH220171   4.165   0.208   4.175  0.2446  0.6135 -0.2364
 6736TIP3    H120172   4.107   0.137   4.205  0.1223 -0.0531 -1.9683
 6736TIP3    H220173   4.139   0.284   4.228 -3.5708  0.8648 -2.1468
 6737TIP3   OH220174   1.006   2.963   3.352 -0.2096 -0.9525  0.2331
 6737TIP3    H120175   1.056   2.887   3.320  1.3398  0.5872 -1.1878
 6737TIP3    H220176   1.016   2.960   3.447 -0.7604 -2.8807  0.2717
 6738TIP3   OH220177   6.844   1.663   5.358  0.0172  0.3473 -0.5990
 6738TIP3    H120178   6.896   1.604   5.413  0.2370 -1.0578 -2.2315
 6738TIP3    H220179   6.893   1.745   5.358  1.6845 -0.5897 -1.1582
 6739TIP3   OH220180   4.941   6.484   2.345 -0.1975  0.1357  0.3883
 6739TIP3    H120181   4.877   6.415   2.328 -0.7517  0.6626  0.3111
 6739TIP3    H220182   4.985   6.497   2.261 -0.4508  0.2401  0.2720
 6740TIP3   OH220183   0.647   2.436   5.198 -0.1673  0.5556  0.3147
 6740TIP3    H120184   0.692   2.367   5.247 -1.2155  1.4419  2.7009
 6740TIP3    H220185   0.693   2.516   5.223 -1.1115  1.0997  0.3273
 6741TIP3   OH220186  -0.010   2.964   3.196 -0.0424  0.0617  0.2054
 6741TIP3    H120187   0.052   3.027   3.233  0.4600 -0.8790  1.0083
 6741TIP3    H220188   0.045   2.895   3.159 -0.5882 -1.4423  2.0781
 6742TIP3   OH220189   5.241   0.992   3.938  0.2030  0.4162  0.4556
 6742TIP3    H120190   5.161   1.036   3.909  0.8089  1.1874 -0.0995
 6742TIP3    H220191   5.212   0.930   4.004 -1.1371 -0.8182 -1.2121
 6743TIP3   OH220192   2.337   2.432   2.697  0.6944 -0.2453  0.3427
 6743TIP3    H120193   2.424   2.470   2.682 -0.0244  1.0863 -0.6178
 6743TIP3    H220194   2.319   2.450   2.789  0.4728  1.6278 -0.0195
 6744TIP3   OH220195   5.298   2.027   4.549 -0.0768 -0.0662 -0.3426
 6744TIP3    H120196   5.254   1.965   4.608  1.3504 -1.2511 -0.4587
 6744TIP3    H220197   5.389   1.996   4.546  1.0470  2.8246  0.6465
 6745TIP3   OH220198   2.541   4.517   1.284  0.1399 -0.2893 -0.2171
 6745TIP3    H120199   2.494   4.485   1.361  1.1571 -0.7850  0.2112
 6745TIP3    H220200   2.610   4.573   1.320 -0.1668  0.4919 -0.8408
 6746TIP3   OH220201   3.006   4.799   5.859 -0.1754  0.2254  0.4301
 6746TIP3    H120202   3.094   4.788   5.823 -1.0044 -0.4102 -1.4959
 6746TIP3    H220203   2.950   4.742   5.806 -2.2291  2.7791 -0.3830
 6747TIP3   OH220204   2.365   4.827   1.288  0.2504  0.0991  0.0096
 6747TIP3    H120205   2.316   4.899   1.249  0.4569  0.7566  0.9285
 6747TIP3    H220206   2.350   4.836   1.382  0.0657 -1.2229  0.1322
 6748TIP3   OH220207   5.824   5.802   4.561 -0.2182 -0.5330 -0.1640
 6748TIP3    H120208   5.886   5.855   4.511  0.0485 -0.9718 -0.3036
 6748TIP3    H220209   5.781   5.865   4.619 -1.3708  0.2005 -1.7265
 6749TIP3   OH220210   3.112   5.463   2.969 -0.5522  0.3912 -0.1884
 6749TIP3    H120211   3.162   5.383   2.953  0.6201  0.9367  0.6013
 6749TIP3    H220212   3.119   5.477   3.064 -1.4261  0.9863 -0.2048
 6750TIP3   OH220213   5.170   6.559   2.552 -0.4398  0.3553  0.5928
 6750TIP3    H120214   5.217   6.608   2.620 -0.4896 -1.2976  1.8900
 6750TIP3    H220215   5.088   6.606   2.541 -0.6081  0.4424  2.0059
 6751TIP3   OH220216   6.771   3.102   3.778  0.2055  0.3343 -0.1902
 6751TIP3    H120217   6.777   3.027   3.719  0.8848 -0.2457  0.5964
 6751TIP3    H220218   6.785   3.065   3.866 -0.1525  1.2723  0.2766
 6752TIP3   OH220219   4.853   4.671   1.139 -0.0273  0.2456  0.0506
 6752TIP3    H120220   4.817   4.612   1.073  1.6587  1.0803 -1.7118
 6752TIP3    H220221   4.790   4.742   1.145 -2.2056 -1.6876  2.3619
 6753TIP3   OH220222   2.658   2.374   4.248  0.0094  0.2467  0.5780
 6753TIP3    H120223   2.695   2.370   4.159 -0.7174 -0.4646  0.2967
 6753TIP3    H220224   2.610   2.457   4.250  1.0640  0.8746  0.7395
 6754TIP3   OH220225   6.640   0.407   2.021 -0.0803 -0.1573  0.9817
 6754TIP3    H120226   6.660   0.487   2.070 -2.3804  0.1704  1.4850
 6754TIP3    H220227   6.552   0.422   1.986  0.3603 -1.5443 -0.9113
 6755TIP3   OH220228   5.692   4.693   1.241  0.2239 -0.2898 -0.0219
 6755TIP3    H120229   5.643   4.737   1.172  0.6217 -1.1972 -0.8999
 6755TIP3    H220230   5.770   4.660   1.198  1.3395  0.5896  1.2223
 6756TIP3   OH220231   4.797   0.217   3.968 -0.5029 -0.1757 -0.6852
 6756TIP3    H120232   4.715   0.171   3.983 -0.5619  0.0153 -0.4134
 6756TIP3    H220233   4.863   0.162   4.010 -0.4333 -0.5514 -1.2830
 6757TIP3   OH220234   2.928   0.098   2.044 -0.2527  0.6182  0.3063
 6757TIP3    H120235   3.004   0.126   1.993 -0.1738 -0.2920 -0.1023
 6757TIP3    H220236   2.895   0.178   2.085  0.8098  1.0554  0.3370
 6758TIP3   OH220237   0.628   5.683   4.979  0.2544  0.0357  0.3100
 6758TIP3    H120238   0.543   5.671   5.021 -0.0513  1.0183 -0.0009
 6758TIP3    H220239   0.678   5.604   5.002 -1.8813 -2.3310 -2.4405
 6759TIP3   OH220240   5.901   2.313   2.598 -0.2189  0.0053 -0.3809
 6759TIP3    H120241   5.932   2.385   2.653 -0.9240 -0.2470  0.3604
 6759TIP3    H220242   5.894   2.238   2.657  0.7444 -0.7532 -1.1972
 6760TIP3   OH220243   5.702   2.933   4.518 -0.2864 -0.2178  0.1016
 6760TIP3    H120244   5.753   2.918   4.597  1.6071  0.3554 -0.9482
 6760TIP3    H220245   5.760   2.907   4.446 -0.9731  1.6458 -1.2180
 6761TIP3   OH220246   2.110   1.441   3.683 -0.6759 -0.3841 -0.0233
 6761TIP3    H120247   2.167   1.376   3.723 -2.2467 -1.1400  1.1130
 6761TIP3    H220248   2.085   1.403   3.599 -0.2445 -0.4716 -0.1132
 6762TIP3   OH220249   5.167   1.439   0.238  0.7969 -0.2498  0.0358
 6762TIP3    H120250   5.172   1.347   0.266 -1.5942 -0.5608 -0.3656
 6762TIP3    H220251   5.107   1.438   0.164 -1.0381  1.8798  1.3743
 6763TIP3   OH220252   6.324   4.111   1.641  0.2423  0.2545 -0.4840
 6763TIP3    H120253   6.345   4.203   1.628 -0.5042  0.6398  0.7871
 6763TIP3    H220254   6.233   4.102   1.612 -0.2284  0.3210  0.8592
 6764TIP3   OH220255   6.057   6.169   0.388 -0.9882  0.1122 -0.3136
 6764TIP3    H120256   5.970   6.208   0.383 -0.5837  0.9727 -0.8879
 6764TIP3    H220257   6.116   6.244   0.391 -0.2154 -0.4571 -0.9393
 6765TIP3   OH220258   0.491   0.573   4.309  0.1918 -0.0146 -0.4324
 6765TIP3    H120259   0.512   0.482   4.290 -1.2367 -0.6442  0.7947
 6765TIP3    H220260   0.406   0.588   4.267 -0.7038 -0.0017  1.2527
 6766TIP3   OH220261   1.095   5.951   5.007 -0.5411  0.0262  0.4104
 6766TIP3    H120262   1.136   5.886   4.949  0.2749  1.7998 -1.1093
 6766TIP3    H220263   1.010   5.912   5.029  0.1773 -1.8435  0.1317
 6767TIP3   OH220264   6.368   5.986   4.250 -0.0714 -0.2784  0.9609
 6767TIP3    H120265   6.439   5.990   4.315  0.3981 -1.0169  0.5069
 6767TIP3    H220266   6.299   6.040   4.287  1.1814  1.5050  0.8580
 6768TIP3   OH220267   0.678   4.453   4.458 -0.4431 -0.1923 -0.7308
 6768TIP3    H120268   0.700   4.541   4.426 -1.2448  0.1019 -0.4977
 6768TIP3    H220269   0.759   4.422   4.500 -0.3093  0.6669 -0.3234
 6769TIP3   OH220270   4.072   1.004   1.406  0.1313 -0.6861 -0.3511
 6769TIP3    H120271   4.088   1.082   1.353  1.0093 -0.5741  0.0624
 6769TIP3    H220272   4.010   1.032   1.473  0.6660 -0.2617 -0.0288
 6770TIP3   OH220273   6.151   3.679   5.026  0.5812 -0.4250 -0.0484
 6770TIP3    H120274   6.089   3.612   5.054 -0.2360 -0.3716 -1.6009
 6770TIP3    H220275   6.123   3.759   5.070  0.0193 -0.5703 -0.1427
 6771TIP3   OH220276   1.339   4.567   3.708  0.2599 -0.1253  0.4428
 6771TIP3    H120277   1.309   4.640   3.763  0.8246  0.8427 -0.4837
 6771TIP3    H220278   1.423   4.597   3.673 -0.0304 -0.7543 -0.8508
 6772TIP3   OH220279   2.436   1.605   4.244  0.0617  0.5264 -0.7585
 6772TIP3    H120280   2.488   1.599   4.323 -0.8099  0.5847 -0.1679
 6772TIP3    H220281   2.446   1.695   4.214  2.0471 -0.0074 -1.8958
 6773TIP3   OH220282   3.392   0.068   2.742  0.1442  0.4404  0.3300
 6773TIP3    H120283   3.417   0.154   2.776  0.6602  0.2944  0.3146
 6773TIP3    H220284   3.298   0.077   2.724 -0.4819  0.1272  3.0060
 6774TIP3   OH220285   6.566   6.344   2.346  0.3755 -0.2717  0.1607
 6774TIP3    H120286   6.607   6.322   2.263 -0.7541 -1.8705 -0.0252
 6774TIP3    H220287   6.473   6.355   2.325  0.1385 -0.2767  1.1465
 6775TIP3   OH220288   5.235   0.597   1.798  0.2711  0.1581  0.3318
 6775TIP3    H120289   5.308   0.631   1.849  0.0585  0.4434  0.4478
 6775TIP3    H220290   5.251   0.503   1.792 -0.0140  0.0349  1.4322
 6776TIP3   OH220291   0.430   1.753   0.290 -0.0564 -0.1030 -0.4325
 6776TIP3    H120292   0.395   1.692   0.355  3.0505 -1.9624 -0.2802
 6776TIP3    H220293   0.448   1.833   0.340 -1.3265 -0.1015  0.0648
 6777TIP3   OH220294   0.632   5.879   4.732 -0.2080 -0.3032  0.0488
 6777TIP3    H120295   0.714   5.831   4.742 -0.9790 -1.4206  1.3426
 6777TIP3    H220296   0.634   5.911   4.642  2.2278  0.8395  0.4328
 6778TIP3   OH220297   4.554   2.568   4.434 -0.6787  0.0295 -0.1001
 6778TIP3    H120298   4.616   2.503   4.401 -1.3305 -0.1568 -1.0071
 6778TIP3    H220299   4.471   2.546   4.390 -1.6249 -0.2926  1.7606
 6779TIP3   OH220300   4.469   5.373   3.364 -0.2432  1.0726 -0.5656
 6779TIP3    H120301   4.529   5.402   3.432  0.4768  0.8481 -1.0883
 6779TIP3    H220302   4.484   5.278   3.358 -0.0055  1.1451 -1.2943
 6780TIP3   OH220303   4.763   5.264   0.395  0.1627  0.2711 -0.2151
 6780TIP3    H120304   4.781   5.308   0.478  0.3651  1.7915 -1.0239
 6780TIP3    H220305   4.721   5.331   0.340  0.2946 -0.6028 -1.4451
 6781TIP3   OH220306   6.018   4.931   0.214  0.8474  0.3635  0.2591
 6781TIP3    H120307   6.060   4.991   0.152  0.1755 -0.1588 -0.7365
 6781TIP3    H220308   6.058   4.952   0.298 -0.2665  3.1051  0.2313
 6782TIP3   OH220309   2.149   2.331   3.823  0.1364 -0.0047  0.2974
 6782TIP3    H120310   2.139   2.411   3.873  0.6879  0.4533 -0.3071
 6782TIP3    H220311   2.069   2.323   3.772  0.5765  0.8105 -0.5424
 6783TIP3   OH220312   6.367   4.329   3.962 -0.1756 -0.6026  0.5217
 6783TIP3    H120313   6.302   4.372   4.017 -0.2297  0.5690 -0.4145
 6783TIP3    H220314   6.318   4.300   3.885  0.2484 -0.4749  0.2001
 6784TIP3   OH220315   1.390   3.804   2.037  0.5230 -0.0935 -0.1396
 6784TIP3    H120316   1.399   3.710   2.023 -3.4216 -0.5183 -0.8200
 6784TIP3    H220317   1.401   3.842   1.949 -0.3574 -0.2059 -0.3038
 6785TIP3   OH220318   4.828   0.106   4.607 -0.3914 -0.5541  0.2187
 6785TIP3    H120319   4.818   0.101   4.512  1.5678 -0.7424 -0.0188
 6785TIP3    H220320   4.804   0.196   4.629  3.2543  0.9077 -1.1149
 6786TIP3   OH220321   1.736   5.107   2.479 -0.0228 -0.1489 -0.5650
 6786TIP3    H120322   1.697   5.047   2.416 -0.1826 -0.0692 -0.5414
 6786TIP3    H220323   1.799   5.158   2.429 -0.9863  0.7273 -0.9068
 6787TIP3   OH220324   4.365   6.000   2.081 -0.3579  1.0916  0.1906
 6787TIP3    H120325   4.362   6.021   1.987 -1.1985  2.2375  0.4449
 6787TIP3    H220326   4.308   5.924   2.091  0.8010  0.1038 -0.4009
 6788TIP3   OH220327   0.260   3.780   4.753 -0.4834 -0.2754  0.1077
 6788TIP3    H120328   0.252   3.873   4.773 -1.4674 -0.3561  0.1143
 6788TIP3    H220329   0.279   3.778   4.659 -2.3773 -0.1120 -0.3160
 6789TIP3   OH220330   5.911   5.610   3.407 -0.4106  0.0418  0.0806
 6789TIP3    H120331   5.881   5.523   3.431  1.6298 -0.5944  0.4831
 6789TIP3    H220332   5.920   5.607   3.312  0.6915 -0.5675  0.1884
 6790TIP3   OH220333   5.982   6.785   0.800  0.1297  0.4636  0.2851
 6790TIP3    H120334   5.895   6.803   0.835 -0.7245 -2.5877  0.0304
 6790TIP3    H220335   6.031   6.750   0.875  0.0853 -0.7639 -0.2265
 6791TIP3   OH220336   3.814   1.684   4.456  0.5040 -0.2579  0.4548
 6791TIP3    H120337   3.784   1.616   4.517  1.3491 -0.2591  0.8832
 6791TIP3    H220338   3.734   1.728   4.429 -0.0481 -1.3309  0.2769
 6792TIP3   OH220339   5.663   3.273   3.648 -0.3564  0.0314 -0.4977
 6792TIP3    H120340   5.602   3.210   3.611 -0.4353  0.2541 -0.7533
 6792TIP3    H220341   5.738   3.221   3.676 -0.8497 -0.3006  0.2282
 6793TIP3   OH220342   7.128   1.539   1.630  0.3661  0.3024 -0.4054
 6793TIP3    H120343   7.213   1.563   1.668 -0.7099  0.0352  2.4249
 6793TIP3    H220344   7.085   1.623   1.614  0.1453  0.4391  0.7848
 6794TIP3   OH220345   1.371   0.265   4.050 -0.3200 -0.3720  0.2774
 6794TIP3    H120346   1.278   0.288   4.045 -0.2189 -0.1710 -1.1975
 6794TIP3    H220347   1.388   0.218   3.968  0.9051 -0.2598  0.4583
 6795TIP3   OH220348   5.412   4.872   1.799  0.1855 -0.5255 -0.2167
 6795TIP3    H120349   5.334   4.820   1.818  0.0598 -1.2670 -2.4648
 6795TIP3    H220350   5.479   4.839   1.859 -0.3247 -2.2403 -0.5524
 6796TIP3   OH220351   1.197   5.259   3.862 -0.0870 -0.2065  0.7243
 6796TIP3    H120352   1.232   5.303   3.940 -0.1770 -0.4614  0.9119
 6796TIP3    H220353   1.149   5.183   3.897  1.9714 -1.7903  0.3433
 6797TIP3   OH220354   4.932   2.878   4.531 -0.3703  0.1285 -0.2396
 6797TIP3    H120355   4.898   2.894   4.443  1.6980  1.5404 -0.8633
 6797TIP3    H220356   4.864   2.913   4.589 -1.8499 -1.0024 -1.2383
 6798TIP3   OH220357   6.261   1.379   4.180 -0.5203 -0.4757 -0.7541
 6798TIP3    H120358   6.232   1.448   4.240  0.2100 -1.6559  1.0720
 6798TIP3    H220359   6.335   1.417   4.133  1.9208 -0.8515  2.4451
 6799TIP3   OH220360   5.214   4.229   0.793  0.0124  0.0046  0.2007
 6799TIP3    H120361   5.270   4.306   0.780 -0.1707  0.0209 -0.5353
 6799TIP3    H220362   5.129   4.256   0.760 -0.6886  0.2702  2.0959
 6800TIP3   OH220363   2.978   1.538   1.264  0.0621 -0.4945  0.7459
 6800TIP3    H120364   2.963   1.443   1.270 -1.0122 -0.6386 -2.4662
 6800TIP3    H220365   3.063   1.546   1.222 -0.7719 -0.1179 -0.9216
 6801TIP3   OH220366   5.847   3.201   3.091 -0.1854  0.6549  0.2283
 6801TIP3    H120367   5.874   3.191   3.182 -0.0921  1.2316  0.2683
 6801TIP3    H220368   5.868   3.292   3.070  1.4042  0.0877 -0.8977
 6802TIP3   OH220369   4.731   1.033   2.672 -0.4729  0.1884 -0.3029
 6802TIP3    H120370   4.809   1.082   2.648 -0.6027  1.2001  1.1921
 6802TIP3    H220371   4.665   1.100   2.690 -1.0586 -0.5755  0.5050
 6803TIP3   OH220372   5.358   3.779   0.302  0.6922 -0.1217  0.1151
 6803TIP3    H120373   5.394   3.771   0.390  1.2776  1.8264  0.0984
 6803TIP3    H220374   5.275   3.732   0.306  2.6816 -4.0535  0.3841
 6804TIP3   OH220375   5.358   0.628   5.406 -0.1388 -0.1605  0.2955
 6804TIP3    H120376   5.287   0.690   5.422  1.0527  2.2596 -2.7155
 6804TIP3    H220377   5.432   0.661   5.457  0.0682  0.0051 -0.1068
 6805TIP3   OH220378   1.928   6.422   5.471 -0.5797  0.0655  0.2704
 6805TIP3    H120379   1.876   6.418   5.551 -1.5640 -0.2496 -0.3641
 6805TIP3    H220380   1.867   6.395   5.402 -0.2765  2.0340 -0.8331
 6806TIP3   OH220381   2.770   6.763   5.211  0.1143 -0.3581  0.4131
 6806TIP3    H120382   2.676   6.746   5.224  0.0814 -0.7671 -0.3004
 6806TIP3    H220383   2.798   6.805   5.292 -1.0123  1.1380  0.0795
 6807TIP3   OH220384   3.005   5.874   1.388 -0.3025  0.2602 -0.7098
 6807TIP3    H120385   3.069   5.838   1.450 -0.9159 -0.2908 -0.3880
 6807TIP3    H220386   2.981   5.959   1.424  0.3985  0.5668 -0.9422
 6808TIP3   OH220387   2.616   1.149   0.939 -0.3971 -0.5302  0.3303
 6808TIP3    H120388   2.547   1.128   1.002 -1.3631 -1.4675 -0.9653
 6808TIP3    H220389   2.681   1.080   0.950 -0.7600 -0.9250  0.0502
 6809TIP3   OH220390   3.655   1.207   1.804  0.2839  0.5825 -0.7551
 6809TIP3    H120391   3.603   1.129   1.787  0.9673 -0.5197  1.8184
 6809TIP3    H220392   3.634   1.265   1.731 -3.7468 -0.1409 -0.4133
 6810TIP3   OH220393   6.728   5.525   3.214  0.0823  0.0569  0.0738
 6810TIP3    H120394   6.700   5.520   3.123  0.0986 -1.2296  0.1244
 6810TIP3    H220395   6.652   5.495   3.264  0.9142 -1.7501  0.3136
 6811TIP3   OH220396   3.959   0.617   2.581  0.5042  0.1141  0.5428
 6811TIP3    H120397   4.041   0.666   2.585  0.5421  0.0851  0.1538
 6811TIP3    H220398   3.943   0.605   2.487  0.0255  0.1734  0.6154
 6812TIP3   OH220399   0.711   4.130   1.655  0.7384 -0.2929 -0.1319
 6812TIP3    H120400   0.624   4.139   1.695 -0.2275 -0.9036 -1.9464
 6812TIP3    H220401   0.731   4.036   1.661  1.1918 -0.1808  0.1284
 6813TIP3   OH220402   0.364   1.380   4.430  0.1057 -0.0169  0.5622
 6813TIP3    H120403   0.364   1.467   4.471  2.2833  0.4141 -0.2239
 6813TIP3    H220404   0.325   1.394   4.344  0.3487  0.1757  0.4807
 6814TIP3   OH220405   2.420   3.350   5.595 -0.0490  0.2032  0.1377
 6814TIP3    H120406   2.325   3.356   5.603 -0.1112 -1.3725  1.1944
 6814TIP3    H220407   2.438   3.256   5.602  1.5091  0.3600 -1.1546
 6815TIP3   OH220408   3.186   1.434   1.906  0.2459 -0.6140  0.0971
 6815TIP3    H120409   3.157   1.511   1.857  1.1310  0.5094  1.2753
 6815TIP3    H220410   3.105   1.395   1.939 -0.1681  0.4169  0.3475
 6816TIP3   OH220411   2.738   0.450   4.996 -0.1726 -0.0098 -0.2837
 6816TIP3    H120412   2.795   0.526   5.004  2.0230 -1.7135  1.2112
 6816TIP3    H220413   2.752   0.419   4.906  0.4891  0.1539 -0.2386
 6817TIP3   OH220414   6.639   2.142   3.181  0.6474  0.3230 -0.1295
 6817TIP3    H120415   6.579   2.136   3.255  2.9922  1.8502  2.0848
 6817TIP3    H220416   6.702   2.071   3.195  0.8567  0.3516 -0.8924
 6818TIP3   OH220417   7.189   3.611   2.818 -0.0470 -0.1296 -0.4934
 6818TIP3    H120418   7.098   3.585   2.804 -0.4924 -0.9728  3.0099
 6818TIP3    H220419   7.238   3.529   2.816  0.3653  0.1139 -0.5390
 6819TIP3   OH220420   7.115   0.635   2.271  0.0619 -0.4723 -0.2722
 6819TIP3    H120421   7.147   0.642   2.361  1.3864  0.6674 -0.7982
 6819TIP3    H220422   7.109   0.541   2.255  1.1358 -0.7027  0.5665
 6820TIP3   OH220423   0.660   2.241   0.467  0.1809  0.2731 -0.0711
 6820TIP3    H120424   0.751   2.229   0.495  0.0391 -1.3711 -0.2015
 6820TIP3    H220425   0.612   2.253   0.549  0.5668  1.8064 -0.0356
 6821TIP3   OH220426   1.224   5.289   2.387  0.5907 -0.1086  1.0260
 6821TIP3    H120427   1.157   5.227   2.415 -0.5398  1.2765  1.4805
 6821TIP3    H220428   1.230   5.353   2.458  1.1326  0.7721  0.2202
 6822TIP3   OH220429   0.573   5.988   0.037 -0.8752 -0.1188  0.0569
 6822TIP3    H120430   0.608   6.004  -0.051 -0.5328 -0.4044  0.1374
 6822TIP3    H220431   0.600   6.064   0.088  0.2246 -0.6358  0.2881
 6823TIP3   OH220432   1.868   5.793   3.637  0.1138 -0.1858  0.4799
 6823TIP3    H120433   1.792   5.741   3.665 -0.2225 -0.3368 -0.6635
 6823TIP3    H220434   1.943   5.742   3.666 -0.2189 -0.8016  0.2742
 6824TIP3   OH220435   5.241   2.476   1.681 -0.1273 -0.5039  0.1328
 6824TIP3    H120436   5.249   2.549   1.620  0.8215 -2.5565 -2.3938
 6824TIP3    H220437   5.305   2.494   1.749  0.6537  0.6484 -0.8732
 6825TIP3   OH220438   2.926   2.402   4.368  0.1085 -0.4061 -0.4121
 6825TIP3    H120439   2.997   2.421   4.430 -0.9405  0.7904  0.4848
 6825TIP3    H220440   2.846   2.421   4.417 -0.7489  1.4426 -2.3693
 6826TIP3   OH220441   3.800   3.075   4.951  0.1386  0.6190 -0.8063
 6826TIP3    H120442   3.803   2.990   4.907 -0.6707  0.0119  0.2503
 6826TIP3    H220443   3.718   3.072   5.001  1.0670  1.2083  0.8303
 6827TIP3   OH220444   0.541   2.590   4.355 -0.2387  0.2995 -0.0757
 6827TIP3    H120445   0.453   2.553   4.341  0.7837 -2.0143 -1.0018
 6827TIP3    H220446   0.599   2.514   4.350  1.8823  1.8413 -0.0519
 6828TIP3   OH220447   3.023   3.926   5.093 -0.4197  0.1208 -0.2546
 6828TIP3    H120448   3.117   3.910   5.103 -0.6163 -2.1611 -1.4191
 6828TIP3    H220449   2.983   3.884   5.169 -0.6331 -0.9370 -0.9366
 6829TIP3   OH220450   4.861   4.262   2.399  0.0158 -0.1359  0.0961
 6829TIP3    H120451   4.932   4.209   2.436 -0.4612 -1.0048 -0.1849
 6829TIP3    H220452   4.791   4.198   2.381 -0.0597  0.3733 -1.5641
 6830TIP3   OH220453   3.649   3.017   4.095 -0.6768 -0.0641 -0.1883
 6830TIP3    H120454   3.623   3.061   4.014 -2.6842 -1.8864 -0.6061
 6830TIP3    H220455   3.699   2.941   4.065 -0.9651 -0.4526  0.3224
 6831TIP3   OH220456   6.464   2.309   3.065  0.0058  0.2613  0.0861
 6831TIP3    H120457   6.431   2.285   3.152 -0.9918 -0.0186 -0.3572
 6831TIP3    H220458   6.518   2.235   3.039 -2.4505 -1.2703 -0.9570
 6832TIP3   OH220459   6.644   3.725   5.772  0.2075 -0.5685  0.4638
 6832TIP3    H120460   6.676   3.807   5.810  0.8442 -0.7738  0.3862
 6832TIP3    H220461   6.618   3.747   5.683 -3.0928  0.3485  1.5031
 6833TIP3   OH220462   3.790   5.211   4.054  0.0931 -0.1690  0.5086
 6833TIP3    H120463   3.880   5.244   4.061  0.3009 -0.2586 -1.3451
 6833TIP3    H220464   3.748   5.240   4.135  1.5476  0.6518  1.0073
 6834TIP3   OH220465   1.642   3.114   0.640 -0.6386  0.2133 -0.3403
 6834TIP3    H120466   1.600   3.162   0.569 -0.1253  0.7035 -0.3169
 6834TIP3    H220467   1.736   3.131   0.630 -0.5206 -0.0724  0.1900
 6835TIP3   OH220468   6.453   5.989   0.180 -0.3627 -0.3568 -0.2279
 6835TIP3    H120469   6.431   5.915   0.237  0.6130  0.1309  0.8220
 6835TIP3    H220470   6.495   6.052   0.238 -0.1063  0.5260 -1.3405
 6836TIP3   OH220471   5.133   4.567   5.259 -0.1602 -0.1291  0.5197
 6836TIP3    H120472   5.046   4.607   5.268  0.1486  0.5413  0.6241
 6836TIP3    H220473   5.191   4.626   5.307  0.2630 -0.9088  0.9746
 6837TIP3   OH220474   1.841   2.984   3.079  0.1297 -0.1199  0.5834
 6837TIP3    H120475   1.799   2.956   2.998 -1.0107  0.6029  0.8924
 6837TIP3    H220476   1.807   3.073   3.094  0.7600 -0.0227  1.5565
 6838TIP3   OH220477   2.528   4.714   3.071 -0.1633 -0.1062 -0.0148
 6838TIP3    H120478   2.619   4.745   3.074  0.3946 -1.0961 -2.9040
 6838TIP3    H220479   2.487   4.752   3.148  2.9552 -0.5153  2.0467
 6839TIP3   OH220480   0.099   5.893   0.664 -0.1351  0.3603 -0.3881
 6839TIP3    H120481   0.123   5.984   0.648 -2.6767  1.4718  1.5274
 6839TIP3    H220482   0.007   5.888   0.638  0.0405 -1.7669 -0.7402
 6840TIP3   OH220483   2.253   4.936   2.473 -0.2546 -0.0636 -0.8084
 6840TIP3    H120484   2.218   4.959   2.387 -0.0740 -1.2636 -1.2282
 6840TIP3    H220485   2.344   4.911   2.456 -0.0923  0.1210 -0.2030
 6841TIP3   OH220486   6.212   1.130   0.628  0.4727 -0.1748  0.0816
 6841TIP3    H120487   6.140   1.174   0.584 -0.0743  1.0822  2.0669
 6841TIP3    H220488   6.291   1.167   0.588  0.0148 -0.3731 -1.0162
 6842TIP3   OH220489   6.664   1.038   1.805 -0.3701  0.0049 -0.1119
 6842TIP3    H120490   6.594   1.029   1.869 -0.0982 -0.0846  0.1725
 6842TIP3    H220491   6.745   1.034   1.856 -0.1668  0.5591 -0.3849
 6843TIP3   OH220492   1.832   5.366   4.513  0.0428 -0.3419  0.0221
 6843TIP3    H120493   1.895   5.337   4.578  0.4456  0.9673  0.2594
 6843TIP3    H220494   1.837   5.301   4.443  0.3271 -1.2246  0.8495
 6844TIP3   OH220495   0.381   2.572   3.594 -0.6443 -0.4983 -0.0228
 6844TIP3    H120496   0.452   2.612   3.645 -1.5489 -1.4004  2.0850
 6844TIP3    H220497   0.333   2.647   3.557 -0.4385  0.2681  1.1896
 6845TIP3   OH220498   1.792   0.066   4.022  0.1957 -0.1328 -0.1510
 6845TIP3    H120499   1.770   0.061   4.116 -0.4881  0.5221 -0.2623
 6845TIP3    H220500   1.790   0.160   4.003 -2.0809 -0.3674 -1.3541
 6846TIP3   OH220501   3.823   1.593   2.333 -0.1182 -0.0282  0.3377
 6846TIP3    H120502   3.848   1.636   2.252 -1.9704 -1.2373 -0.9520
 6846TIP3    H220503   3.906   1.582   2.381  1.5496 -1.8046 -2.6296
 6847TIP3   OH220504   3.794   1.827   3.795 -0.1013  0.2696  0.6142
 6847TIP3    H120505   3.765   1.835   3.886 -2.2271  1.6049 -0.1184
 6847TIP3    H220506   3.714   1.821   3.744  0.7167  4.3025 -1.5837
 6848TIP3   OH220507   0.880   1.702   4.691  0.2420 -0.2774 -0.8443
 6848TIP3    H120508   0.829   1.709   4.771  0.5241  1.1966 -0.7677
 6848TIP3    H220509   0.837   1.633   4.641  0.3714 -1.5959  0.7838
 6849TIP3   OH220510   5.131   2.852   1.063  0.2765 -0.5222  0.0518
 6849TIP3    H120511   5.039   2.833   1.083  0.1400 -0.1734 -0.2328
 6849TIP3    H220512   5.156   2.784   0.999 -0.8817  1.4718 -2.7487
 6850TIP3   OH220513   6.633   5.091   2.588 -0.0261 -0.5291  0.0876
 6850TIP3    H120514   6.666   5.149   2.520  0.2512 -1.1991 -0.3478
 6850TIP3    H220515   6.559   5.139   2.626  1.0602  0.7324  0.6923
 6851TIP3   OH220516   4.487   1.285   3.395 -0.0959  0.0203  0.0318
 6851TIP3    H120517   4.458   1.195   3.414 -1.8300  0.0808 -2.0176
 6851TIP3    H220518   4.582   1.278   3.387 -0.0739 -1.3890  1.0229
 6852TIP3   OH220519   0.485   0.960   0.408  0.1841  0.5800  0.0197
 6852TIP3    H120520   0.498   0.867   0.391  0.3644  0.7699 -0.9950
 6852TIP3    H220521   0.396   0.977   0.379  0.5648  0.9570 -0.9890
 6853TIP3   OH220522   4.768   3.777   0.751  0.3153 -0.2368  0.9883
 6853TIP3    H120523   4.808   3.818   0.828  0.4761 -0.8312  1.2315
 6853TIP3    H220524   4.718   3.703   0.788 -0.7141  0.2702  0.6604
 6854TIP3   OH220525   2.611   2.443   1.138  0.2544 -0.3564  0.0986
 6854TIP3    H120526   2.618   2.463   1.045  0.4901  1.7211  0.5220
 6854TIP3    H220527   2.572   2.355   1.140 -0.1317 -0.2883 -1.9335
 6855TIP3   OH220528   0.596   0.446   1.159  0.2481 -0.4434  0.4441
 6855TIP3    H120529   0.509   0.475   1.185 -0.0649 -2.4566  1.9192
 6855TIP3    H220530   0.581   0.381   1.091  0.4997 -1.5398  1.4117
 6856TIP3   OH220531   2.313   6.068   1.298 -0.0541 -0.0112  0.2913
 6856TIP3    H120532   2.280   6.134   1.359  0.6666  0.0195  0.6663
 6856TIP3    H220533   2.243   6.004   1.290  0.0494 -0.3179  1.6097
 6857TIP3   OH220534   1.732   2.712   0.938 -0.1829  0.4583  0.1115
 6857TIP3    H120535   1.731   2.654   1.014  2.4143 -0.8373 -0.7475
 6857TIP3    H220536   1.720   2.654   0.863 -0.8366  1.4917 -0.6283
 6858TIP3   OH220537   0.716   4.234   1.227  0.7104  0.7377  0.0896
 6858TIP3    H120538   0.796   4.256   1.179  1.7929 -0.6809  1.1466
 6858TIP3    H220539   0.697   4.143   1.202 -1.0509  1.2910 -0.7397
 6859TIP3   OH220540   0.753   0.527   0.846 -0.0571  0.6743 -0.1922
 6859TIP3    H120541   0.803   0.599   0.885 -0.8886  0.1257  2.0316
 6859TIP3    H220542   0.662   0.556   0.850 -0.4350 -0.5295  0.9867
 6860TIP3   OH220543   3.463   4.298   0.731 -0.2684  0.1830  0.3145
 6860TIP3    H120544   3.552   4.271   0.708  1.0646  1.1795  3.7414
 6860TIP3    H220545   3.407   4.235   0.686  2.2001 -1.3665 -0.8246
 6861TIP3   OH220546   3.827   0.523   3.012  0.5821 -0.5765 -0.2176
 6861TIP3    H120547   3.913   0.560   2.992 -0.0193  0.2502 -1.3504
 6861TIP3    H220548   3.807   0.555   3.100 -0.9391  3.9597 -1.9344
 6862TIP3   OH220549   4.920   1.699   3.740 -0.1776  0.0903 -0.0487
 6862TIP3    H120550   4.944   1.778   3.690  0.9553 -0.2020 -0.0090
 6862TIP3    H220551   4.988   1.693   3.807 -1.4425  0.2479  1.2969
 6863TIP3   OH220552   5.048   6.239   5.062 -0.1981 -0.6187 -0.2894
 6863TIP3    H120553   4.989   6.245   5.137  0.4339  0.5063  0.1430
 6863TIP3    H220554   5.047   6.146   5.037 -0.9613 -0.8739  0.6583
 6864TIP3   OH220555   2.034   4.790   1.508  0.0476 -0.0491  0.1534
 6864TIP3    H120556   1.946   4.812   1.537 -0.0961 -1.6128  0.9893
 6864TIP3    H220557   2.085   4.869   1.524 -0.7859  0.2509  1.4437
 6865TIP3   OH220558   6.652   5.019   3.803 -0.1909 -0.0581 -0.0763
 6865TIP3    H120559   6.583   5.025   3.737 -0.1885 -0.6177 -0.1331
 6865TIP3    H220560   6.606   5.002   3.885 -0.2195  0.9578  0.1344
 6866TIP3   OH220561   0.887   4.538   3.768  0.2405 -0.1915 -0.1854
 6866TIP3    H120562   0.966   4.495   3.801  1.3826  0.7199 -1.6050
 6866TIP3    H220563   0.886   4.518   3.675 -1.3706 -0.3840 -0.1604
 6867TIP3   OH220564   0.285   4.750   3.493  0.1638 -0.2168  0.2738
 6867TIP3    H120565   0.322   4.689   3.556  0.9735 -0.1613 -0.1430
 6867TIP3    H220566   0.267   4.697   3.415 -2.2619 -0.6186  1.0195
 6868TIP3   OH220567   4.114   3.892   0.633 -0.8673 -0.0073  0.2183
 6868TIP3    H120568   4.102   3.803   0.666  0.0946  0.0373  0.7437
 6868TIP3    H220569   4.127   3.882   0.539 -0.8228 -0.4264  0.2690
 6869TIP3   OH220570   2.992   5.638   2.446 -0.3498 -0.0840 -0.4935
 6869TIP3    H120571   2.936   5.683   2.382 -0.4257 -0.6703 -0.8442
 6869TIP3    H220572   2.977   5.545   2.429 -1.1564 -0.2750  1.0483
 6870TIP3   OH220573   3.793   6.525   5.703 -0.3732  0.3472  0.1893
 6870TIP3    H120574   3.861   6.474   5.746  1.9236 -0.2263 -3.5983
 6870TIP3    H220575   3.730   6.459   5.674 -2.1738  0.7778  2.8036
 6871TIP3   OH220576   0.205   2.454   5.573 -0.4056 -0.2288 -0.3232
 6871TIP3    H120577   0.164   2.404   5.642 -0.6025  0.4169  0.0383
 6871TIP3    H220578   0.298   2.455   5.596 -0.4728 -0.0053 -0.0613
 6872TIP3   OH220579   3.058   1.770   2.650 -0.7239 -0.2448  0.2539
 6872TIP3    H120580   3.004   1.705   2.694  0.8777 -1.8431 -0.0393
 6872TIP3    H220581   3.047   1.752   2.557  0.4533 -0.7309  0.1977
 6873TIP3   OH220582   7.136   4.040   1.494  0.1226 -0.5386 -0.2759
 6873TIP3    H120583   7.134   3.959   1.443  0.0167  1.6871 -4.2158
 6873TIP3    H220584   7.047   4.073   1.490  0.7301  1.0912 -1.2447
 6874TIP3   OH220585   1.663   1.221   4.476 -0.2727  0.4025 -0.9593
 6874TIP3    H120586   1.754   1.238   4.453 -0.8369  0.9366 -2.9956
 6874TIP3    H220587   1.619   1.305   4.465 -0.6067  0.8549  2.6284
 6875TIP3   OH220588   2.321   6.442   2.263 -0.4901  0.2726  0.1395
 6875TIP3    H120589   2.376   6.381   2.215 -1.5062 -1.9470  1.6539
 6875TIP3    H220590   2.376   6.474   2.334 -0.5432 -0.4481  0.5132
 6876TIP3   OH220591   0.881   4.480   2.983 -0.2758 -0.1274  0.2217
 6876TIP3    H120592   0.859   4.565   2.945 -0.3759  0.3268  1.2456
 6876TIP3    H220593   0.958   4.497   3.036  0.4754 -0.9661 -0.5812
 6877TIP3   OH220594   6.397   1.962   3.659 -0.1022 -0.9930 -0.0576
 6877TIP3    H120595   6.405   1.895   3.726 -1.1833 -0.6440  0.4389
 6877TIP3    H220596   6.308   1.952   3.624  0.9611 -2.3015 -2.6937
 6878TIP3   OH220597   4.934   0.155   3.423  0.4068  0.2677 -0.3864
 6878TIP3    H120598   4.856   0.210   3.413 -0.3569 -0.4922  1.0325
 6878TIP3    H220599   5.007   0.212   3.402 -0.5346  0.8582 -2.2904
 6879TIP3   OH220600   0.667   2.027   0.087  0.0874  0.1982 -0.1677
 6879TIP3    H120601   0.750   2.007   0.131 -0.4327 -3.5725 -0.6096
 6879TIP3    H220602   0.655   2.121   0.101  4.4268  0.9607 -0.1565
 6880TIP3   OH220603   4.294   4.923   2.500 -0.0957 -0.0268 -0.1181
 6880TIP3    H120604   4.271   5.001   2.450 -1.4075  0.5741  1.3406
 6880TIP3    H220605   4.343   4.955   2.575 -0.7419 -0.5645  0.5582
 6881TIP3   OH220606   3.459   2.621   1.925 -0.5091  0.3376 -0.0615
 6881TIP3    H120607   3.395   2.607   1.994  2.9151 -1.6790  3.1146
 6881TIP3    H220608   3.526   2.677   1.965  1.5540 -0.7709 -1.7339
 6882TIP3   OH220609   2.447   1.070   1.377 -0.9143  0.3224  0.2507
 6882TIP3    H120610   2.446   1.135   1.308  1.2556  0.6663  0.4773
 6882TIP3    H220611   2.460   1.120   1.458 -0.9871 -0.2595  0.6317
 6883TIP3   OH220612   4.787   2.276   5.162  0.0529  0.0214 -0.2974
 6883TIP3    H120613   4.752   2.301   5.247 -0.7515 -1.9895  0.0295
 6883TIP3    H220614   4.709   2.256   5.110  0.3503  3.4603 -2.3789
 6884TIP3   OH220615   4.395   4.795   1.815  0.3528 -0.0081  0.0365
 6884TIP3    H120616   4.340   4.723   1.846  0.4864  0.4171  1.3382
 6884TIP3    H220617   4.482   4.774   1.848  0.2980  0.9840  0.8682
 6885TIP3   OH220618   2.588   1.905   1.617 -0.4856 -0.1317  0.0341
 6885TIP3    H120619   2.587   1.946   1.704  1.0364 -0.6506  0.3276
 6885TIP3    H220620   2.529   1.959   1.565  1.3467  2.4350  0.4306
 6886TIP3   OH220621   1.122   6.229   4.954 -0.2062  0.4196  0.2464
 6886TIP3    H120622   1.121   6.138   4.983  1.5814  0.5640  0.8566
 6886TIP3    H220623   1.077   6.277   5.024 -2.8183 -0.1494 -0.9178
 6887TIP3   OH220624   7.122   5.007   4.652  0.1206 -0.3435  0.3465
 6887TIP3    H120625   7.074   5.084   4.623 -0.6667 -0.8548  0.2425
 6887TIP3    H220626   7.205   5.010   4.604  0.4231  0.8290  0.9179
 6888TIP3   OH220627   0.622   3.345   1.858 -0.5279 -0.1448  0.4650
 6888TIP3    H120628   0.667   3.403   1.797 -0.6044 -0.4842  0.0798
 6888TIP3    H220629   0.562   3.294   1.803 -1.7196  0.6018  1.0212
 6889TIP3   OH220630   1.850   5.381   0.947  0.1752 -0.4900 -0.0678
 6889TIP3    H120631   1.895   5.463   0.923  0.2664 -0.7472 -0.8072
 6889TIP3    H220632   1.757   5.403   0.944  0.1561 -0.6681 -1.2999
 6890TIP3   OH220633   4.336   3.968   5.197 -0.0030  0.2840  0.0102
 6890TIP3    H120634   4.419   3.987   5.153  0.5434  0.6611  1.1511
 6890TIP3    H220635   4.279   4.041   5.172  0.6870  1.1468  0.8713
 6891TIP3   OH220636   3.408   0.371   4.976 -0.0207 -0.2889 -0.3953
 6891TIP3    H120637   3.497   0.340   4.990 -0.0327 -1.0949 -1.8552
 6891TIP3    H220638   3.397   0.443   5.038  1.2055 -0.9927  0.6872
 6892TIP3   OH220639   4.357   4.878   3.635  0.0291 -0.6902  0.1453
 6892TIP3    H120640   4.361   4.785   3.660 -0.3953 -0.9519 -0.7364
 6892TIP3    H220641   4.337   4.877   3.542  3.1280  0.2386 -0.6512
 6893TIP3   OH220642   4.159   5.870   2.429  0.7163  0.4624  0.0019
 6893TIP3    H120643   4.136   5.872   2.522 -0.1036 -2.8176  0.0027
 6893TIP3    H220644   4.108   5.941   2.390 -0.8071  0.3844  1.7107
 6894TIP3   OH220645   4.515   4.372   0.834  0.5672  0.3709 -0.2939
 6894TIP3    H120646   4.455   4.438   0.867  0.8487  0.2442  0.4964
 6894TIP3    H220647   4.526   4.393   0.742  0.2966  1.1498 -0.1506
 6895TIP3   OH220648   5.670   2.974   0.559 -0.7172 -0.1910  0.2481
 6895TIP3    H120649   5.616   3.015   0.627 -2.3013  0.1905 -1.1673
 6895TIP3    H220650   5.649   2.881   0.565 -1.4043 -0.0689 -0.1632
 6896TIP3   OH220651   1.408   2.754   2.902 -0.4308 -0.3977 -0.2918
 6896TIP3    H120652   1.327   2.716   2.935 -0.7968  0.3448 -0.3039
 6896TIP3    H220653   1.477   2.719   2.958 -0.8921 -0.1793  0.4148
 6897TIP3   OH220654   1.944   2.281   1.212  0.6494 -0.2489 -0.0412
 6897TIP3    H120655   1.908   2.287   1.301 -2.0382  2.6336 -1.1290
 6897TIP3    H220656   1.936   2.189   1.189 -3.3305 -0.3478  1.0379
 6898TIP3   OH220657   1.785   5.444   1.538  0.0070 -0.5986 -0.4634
 6898TIP3    H120658   1.760   5.468   1.449 -0.5316 -1.6183 -0.5925
 6898TIP3    H220659   1.752   5.355   1.550  0.5815 -0.6910  0.5562
 6899TIP3   OH220660   3.393   3.135   2.098 -0.3482 -0.6298  0.2244
 6899TIP3    H120661   3.375   3.107   2.008 -1.6528  0.4657  0.1116
 6899TIP3    H220662   3.483   3.108   2.114 -0.0160 -0.6534 -1.4861
 6900TIP3   OH220663   2.212   5.113   0.941 -0.1234  0.1348  0.1036
 6900TIP3    H120664   2.232   5.206   0.958  1.3379 -0.3490  1.2903
 6900TIP3    H220665   2.130   5.115   0.893 -1.2107  1.9969  1.8410
 6901TIP3   OH220666   6.545   5.079   2.981 -0.2891 -0.3898 -0.6328
 6901TIP3    H120667   6.529   5.132   3.058 -0.3238  0.8803 -1.4878
 6901TIP3    H220668   6.601   5.008   3.012 -0.0331  0.2738  0.4834
 6902TIP3   OH220669   4.420   3.693   4.318 -0.0874 -0.3467  0.2019
 6902TIP3    H120670   4.433   3.671   4.225 -0.3610 -1.2120  0.3530
 6902TIP3    H220671   4.325   3.696   4.328 -0.0691  1.4733  0.0883
 6903TIP3   OH220672   2.893   6.714   4.949  0.1694  0.2201 -0.1660
 6903TIP3    H120673   2.925   6.803   4.935  2.5076 -0.3900  0.8587
 6903TIP3    H220674   2.848   6.718   5.033 -1.7383  0.8657 -1.1569
 6904TIP3   OH220675   4.065   2.583   0.674 -0.0833 -0.4350 -0.0331
 6904TIP3    H120676   4.060   2.628   0.758  0.8362  1.3078 -0.8679
 6904TIP3    H220677   4.106   2.499   0.695 -0.7661 -0.4466  1.3854
 6905TIP3   OH220678   5.217   2.988   4.529 -0.2322 -0.4376 -0.1717
 6905TIP3    H120679   5.155   2.937   4.476 -0.6094 -3.2748  2.7088
 6905TIP3    H220680   5.168   3.012   4.607  1.6569 -0.8419  1.2070
 6906TIP3   OH220681   6.315   0.761   4.562  0.5632 -0.4215 -0.1767
 6906TIP3    H120682   6.289   0.854   4.566  0.7889 -0.3848  0.4795
 6906TIP3    H220683   6.343   0.749   4.472 -0.2831 -0.0706 -0.5032
 6907TIP3   OH220684   2.922   5.136   4.322 -0.3636 -0.6847  0.0571
 6907TIP3    H120685   2.952   5.125   4.412  0.9283 -0.4752 -0.3287
 6907TIP3    H220686   2.888   5.050   4.297 -3.0483 -0.1581  1.5195
 6908TIP3   OH220687   6.905   3.341   3.779  0.3790 -0.5381  0.3840
 6908TIP3    H120688   6.841   3.272   3.759 -1.7971  1.4659 -0.1278
 6908TIP3    H220689   6.986   3.313   3.737 -1.0810 -1.6967 -1.8162
 6909TIP3   OH220690   6.501   2.873   1.612 -0.1440  0.8177  0.5436
 6909TIP3    H120691   6.547   2.867   1.696  0.1551  0.7340  0.3749
 6909TIP3    H220692   6.558   2.827   1.550  0.1065  1.6999  0.0995
 6910TIP3   OH220693   3.892   2.555   0.441 -0.0506  0.2943 -0.4196
 6910TIP3    H120694   3.938   2.553   0.525  0.3388  2.0608 -0.5565
 6910TIP3    H220695   3.877   2.463   0.420  1.8794 -0.2674  0.4783
 6911TIP3   OH220696   1.192   4.604   1.964  0.5909 -0.4057  0.0839
 6911TIP3    H120697   1.242   4.631   2.041  0.2284  0.1127  0.1424
 6911TIP3    H220698   1.226   4.659   1.893 -0.2631  0.3537  0.2368
 6912TIP3   OH220699   2.238   3.307   4.316  0.2498 -0.3214  0.2159
 6912TIP3    H120700   2.323   3.342   4.341  0.2629 -0.3350  0.1899
 6912TIP3    H220701   2.256   3.249   4.242 -0.0362  1.2956 -1.1699
 6913TIP3   OH220702   0.494   2.081   2.509  0.3705 -1.1377 -0.3615
 6913TIP3    H120703   0.475   2.084   2.603  0.3436 -0.2455 -0.3843
 6913TIP3    H220704   0.582   2.117   2.502 -0.6728  1.5296 -0.9225
 6914TIP3   OH220705   1.447   3.134   0.930 -0.3136 -0.0784  0.1929
 6914TIP3    H120706   1.512   3.064   0.922  0.5626  0.2263  3.3750
 6914TIP3    H220707   1.496   3.214   0.911 -0.3919 -0.0358  0.1702
 6915TIP3   OH220708   5.026   4.624   3.665 -0.2814 -0.1861  0.3126
 6915TIP3    H120709   5.034   4.659   3.576 -1.9300 -1.9814 -0.6239
 6915TIP3    H220710   4.977   4.542   3.654  0.1979 -0.8838  2.7929
 6916TIP3   OH220711   6.595   0.764   4.599 -0.0657 -0.3311  0.2964
 6916TIP3    H120712   6.595   0.668   4.609  0.9222 -0.3778 -0.0194
 6916TIP3    H220713   6.507   0.791   4.627  0.2193 -1.1476  2.1705
 6917TIP3   OH220714   3.642   4.940   0.721 -0.1411  0.6441 -0.6600
 6917TIP3    H120715   3.641   4.849   0.691 -0.8451  1.5658 -3.8076
 6917TIP3    H220716   3.713   4.944   0.785 -0.7447 -2.2790  0.3637
 6918TIP3   OH220717   6.908   0.116   3.873  0.1008 -0.0593  0.0671
 6918TIP3    H120718   6.829   0.170   3.869  1.6786  2.4233  0.1287
 6918TIP3    H220719   6.949   0.139   3.956  0.3227 -2.2396  0.6168
 6919TIP3   OH220720   6.894   2.546   1.305 -0.3793  0.4529 -0.2817
 6919TIP3    H120721   6.885   2.528   1.399 -0.6034  0.3654 -0.3197
 6919TIP3    H220722   6.827   2.493   1.264  0.2799 -0.1735 -0.5728
 6920TIP3   OH220723   5.238   2.039   0.138  0.1583  0.4609 -0.1601
 6920TIP3    H120724   5.231   2.131   0.115 -1.0919 -0.0705 -2.1489
 6920TIP3    H220725   5.148   2.009   0.148  0.5574 -0.4404  1.0843
 6921TIP3   OH220726   2.707   1.186   4.787 -0.5189  0.4793 -0.0422
 6921TIP3    H120727   2.650   1.130   4.839  0.3619 -1.0046 -0.6412
 6921TIP3    H220728   2.659   1.200   4.706  0.3952 -1.7157 -1.0173
 6922TIP3   OH220729   3.545   4.204   1.664  0.1453 -0.4779 -0.3772
 6922TIP3    H120730   3.553   4.113   1.693  0.6207 -0.8798 -1.6624
 6922TIP3    H220731   3.604   4.253   1.720  0.9027 -1.1916 -0.5302
 6923TIP3   OH220732   1.681   5.717   0.309 -0.0087 -0.3127 -0.0927
 6923TIP3    H120733   1.633   5.711   0.227  0.6547  1.1316 -0.6107
 6923TIP3    H220734   1.613   5.721   0.376 -0.6370  0.9894 -0.7591
 6924TIP3   OH220735   0.586   0.047   4.098 -0.3206  0.1883  0.4134
 6924TIP3    H120736   0.630  -0.020   4.044 -2.5262 -0.2938 -0.9254
 6924TIP3    H220737   0.655   0.108   4.122  0.9639 -0.0364 -2.3102
 6925TIP3   OH220738   4.098   5.806   4.388  0.5107  0.1212 -0.5525
 6925TIP3    H120739   4.008   5.776   4.377  0.2708  0.5697  0.1368
 6925TIP3    H220740   4.150   5.747   4.333 -0.2977  0.4667 -1.7154
 6926TIP3   OH220741   4.555   2.896   1.302  0.2751 -0.2469  0.1494
 6926TIP3    H120742   4.620   2.951   1.346  1.1007 -0.2172 -1.0659
 6926TIP3    H220743   4.580   2.898   1.210 -1.2844 -0.4862 -0.3098
 6927TIP3   OH220744   4.654   5.777   5.540  0.5882 -0.4941  0.1398
 6927TIP3    H120745   4.738   5.791   5.585  0.0522 -0.0178  1.0117
 6927TIP3    H220746   4.631   5.687   5.560  0.0229 -0.0904  1.4301
 6928TIP3   OH220747   2.367   0.221   3.470  0.7046 -0.0791  0.0068
 6928TIP3    H120748   2.326   0.306   3.454  1.5370  0.4235  0.4929
 6928TIP3    H220749   2.348   0.170   3.391  0.9361  0.8521 -0.6587
 6929TIP3   OH220750   4.055   2.109   5.248 -0.4223  0.3704  0.3613
 6929TIP3    H120751   4.120   2.160   5.295  0.9464 -2.1302  1.3816
 6929TIP3    H220752   4.092   2.098   5.160 -0.8300  1.2700  0.0668
 6930TIP3   OH220753   4.789   4.214   5.431 -0.2835  0.3281  0.3783
 6930TIP3    H120754   4.786   4.308   5.449  0.1498  0.4070  0.0547
 6930TIP3    H220755   4.713   4.198   5.377  1.5206  1.1787 -2.6528
 6931TIP3   OH220756   1.155   1.092   0.623  0.2077  0.0470 -0.0543
 6931TIP3    H120757   1.071   1.095   0.670  1.3318 -2.4397  2.4179
 6931TIP3    H220758   1.199   1.173   0.647 -0.6126  0.3401  0.5071
 6932TIP3   OH220759   3.804   3.456   3.683  0.3886  0.1055 -0.5988
 6932TIP3    H120760   3.820   3.374   3.636  0.5146  0.3967 -1.0662
 6932TIP3    H220761   3.853   3.522   3.634 -0.1511  0.5561 -0.5425
 6933TIP3   OH220762   2.570   1.053   2.179  0.0201  0.1628 -0.1968
 6933TIP3    H120763   2.634   1.075   2.247  2.3800  0.1084 -2.2486
 6933TIP3    H220764   2.545   1.137   2.142 -0.8577  0.1521  0.3301
 6934TIP3   OH220765   2.252   0.781   1.890 -0.2124  0.2128  0.5265
 6934TIP3    H120766   2.307   0.731   1.951  1.9097  1.1422 -0.5149
 6934TIP3    H220767   2.304   0.786   1.810 -1.6952  1.4536 -0.4111
 6935TIP3   OH220768   6.923   4.746   3.290 -0.0293  0.8521  0.4470
 6935TIP3    H120769   7.000   4.800   3.276  0.7582 -0.2439  0.4396
 6935TIP3    H220770   6.942   4.663   3.246 -1.0468  0.4210  0.7671
 6936TIP3   OH220771   6.949   5.455   3.648 -0.1739 -0.5515 -0.8404
 6936TIP3    H120772   7.041   5.433   3.660  0.1874  0.6604 -1.1909
 6936TIP3    H220773   6.938   5.537   3.697 -0.9630 -0.4715 -1.1410
 6937TIP3   OH220774   4.728   3.665   0.475 -1.1094  0.6784  0.0507
 6937TIP3    H120775   4.785   3.717   0.419 -1.2006  0.2829 -0.4222
 6937TIP3    H220776   4.761   3.679   0.563 -0.9563  1.3068 -0.1021
 6938TIP3   OH220777   1.664   6.364   3.112 -0.1093  0.0334  0.1781
 6938TIP3    H120778   1.583   6.315   3.120  0.1291 -0.2270  1.2371
 6938TIP3    H220779   1.641   6.442   3.061 -0.4585 -1.2058 -1.6480
 6939TIP3   OH220780   5.802   3.798   2.033 -0.0156  0.0261 -0.0622
 6939TIP3    H120781   5.725   3.795   2.089  0.5719 -0.7946  0.7232
 6939TIP3    H220782   5.820   3.707   2.012 -0.0145  0.2988 -1.3123
 6940TIP3   OH220783   7.059   0.334   4.130 -0.2149 -0.4397  0.1333
 6940TIP3    H120784   6.970   0.300   4.125 -1.4284  2.5476 -0.9643
 6940TIP3    H220785   7.059   0.390   4.208  0.6108 -0.1800 -0.0448
 6941TIP3   OH220786   1.733   6.417   4.470 -0.4223 -0.3396  0.0657
 6941TIP3    H120787   1.794   6.362   4.519 -0.8714 -0.0217  1.0019
 6941TIP3    H220788   1.775   6.503   4.465 -0.6472 -0.2078  0.4276
 6942TIP3   OH220789   1.010   3.270   4.308  0.1849 -0.2164 -0.1964
 6942TIP3    H120790   0.968   3.200   4.257 -0.0782 -1.2157  1.3339
 6942TIP3    H220791   1.031   3.337   4.243  0.1266 -1.5579 -1.6643
 6943TIP3   OH220792   0.615   0.273   4.420  0.7620 -0.1472  0.2396
 6943TIP3    H120793   0.537   0.220   4.426 -0.2143  1.2544  0.4047
 6943TIP3    H220794   0.594   0.354   4.466  1.7111  0.9234 -1.0846
 6944TIP3   OH220795   0.569   1.728   2.274 -0.1546  0.2564  0.0474
 6944TIP3    H120796   0.636   1.681   2.323 -0.8387 -0.3742  0.4007
 6944TIP3    H220797   0.566   1.685   2.189  0.2121  0.5834 -0.1292
 6945TIP3   OH220798   0.809   4.180  -0.020 -0.1692 -0.4341  0.0317
 6945TIP3    H120799   0.716   4.197  -0.011  0.2583  1.5170  1.5573
 6945TIP3    H220800   0.829   4.117   0.049 -0.2506 -0.3792  0.1051
 6946TIP3   OH220801   1.244   4.638   1.141  0.4235 -0.3982  0.3711
 6946TIP3    H120802   1.152   4.666   1.137  0.1659 -1.0803  1.1658
 6946TIP3    H220803   1.294   4.715   1.113 -0.3957 -0.1012 -0.3295
 6947TIP3   OH220804   3.203   5.284   0.697  0.1246 -0.0221  0.0955
 6947TIP3    H120805   3.260   5.356   0.725 -0.3718  0.2420  0.4541
 6947TIP3    H220806   3.251   5.205   0.719  0.7300  0.1947 -0.4080
 6948TIP3   OH220807   2.313   5.627   1.314  0.3057 -0.3623  0.5467
 6948TIP3    H120808   2.220   5.643   1.326  0.5268 -0.0562  2.0035
 6948TIP3    H220809   2.355   5.665   1.391  1.6666 -0.2580 -0.2068
 6949TIP3   OH220810   2.417   2.441   4.099  0.1503 -0.1070 -0.4296
 6949TIP3    H120811   2.394   2.515   4.043  0.5354  0.7759  0.5394
 6949TIP3    H220812   2.371   2.458   4.181  0.7269 -0.6365  0.0116
 6950TIP3   OH220813   0.926   6.094   2.298  0.0797  0.5561 -0.2308
 6950TIP3    H120814   0.894   6.016   2.254  0.2370 -0.5258  1.4881
 6950TIP3    H220815   0.847   6.137   2.331  0.1317 -0.2545  1.0022
 6951TIP3   OH220816   0.746   4.589   4.824  0.3550  0.3323 -0.5322
 6951TIP3    H120817   0.673   4.624   4.773 -0.4473 -0.0326  0.3397
 6951TIP3    H220818   0.731   4.495   4.826 -1.0006  0.5076  2.3453
 6952TIP3   OH220819   6.949   1.343   1.613  0.4516  0.0460 -0.3983
 6952TIP3    H120820   6.950   1.315   1.705  0.4467  0.3929 -0.2892
 6952TIP3    H220821   7.009   1.418   1.610  0.4774  0.0155 -0.6854
 6953TIP3   OH220822   3.251   3.852   4.356 -0.2195 -0.0595  0.1853
 6953TIP3    H120823   3.241   3.765   4.393 -2.2951  0.0486  0.0328
 6953TIP3    H220824   3.219   3.911   4.424  4.0059  0.9821  1.5582
 6954TIP3   OH220825   2.665   3.398   0.173  0.4128  0.4944 -0.2252
 6954TIP3    H120826   2.655   3.329   0.239  0.4748 -0.7766 -1.4831
 6954TIP3    H220827   2.724   3.462   0.213  2.1099 -1.2488  0.2242
 6955TIP3   OH220828   0.629   5.565   2.846  0.7198  0.5055  0.5575
 6955TIP3    H120829   0.623   5.470   2.841  3.0629  0.3038  0.3994
 6955TIP3    H220830   0.558   5.590   2.905  0.3624 -1.3851  1.0095
 6956TIP3   OH220831   0.419   0.718   2.646 -0.6408 -0.0603  0.0191
 6956TIP3    H120832   0.499   0.768   2.662  0.1583 -0.8933 -1.1453
 6956TIP3    H220833   0.355   0.754   2.707  0.6265  0.6238  0.9929
 6957TIP3   OH220834   2.312   5.881   5.001 -0.1431 -0.2323  0.2450
 6957TIP3    H120835   2.341   5.827   5.074 -0.5659  0.5802  1.0404
 6957TIP3    H220836   2.254   5.946   5.041 -0.9562 -0.2090 -0.9224
 6958TIP3   OH220837   3.590   2.397   3.987 -0.4586  0.0888  0.4592
 6958TIP3    H120838   3.621   2.309   3.966  2.4307  1.1549 -0.1532
 6958TIP3    H220839   3.561   2.433   3.903 -0.8793  0.0082  0.5680
 6959TIP3   OH220840   5.422   1.136   5.059  0.1167  0.5379  0.4169
 6959TIP3    H120841   5.491   1.154   4.995  2.3040 -1.5335  2.0021
 6959TIP3    H220842   5.470   1.116   5.140 -2.3612 -1.1818  1.5708
 6960TIP3   OH220843   2.730   3.573   5.354  0.2685 -0.6812 -0.8792
 6960TIP3    H120844   2.676   3.627   5.412  1.7157 -0.1146 -0.0090
 6960TIP3    H220845   2.669   3.509   5.318 -1.2395  0.7169 -0.9376
 6961TIP3   OH220846   4.310   4.084   4.516 -0.3157  0.2151  0.2359
 6961TIP3    H120847   4.351   4.011   4.562 -1.2860  0.8590  2.2165
 6961TIP3    H220848   4.228   4.046   4.482 -0.1032  0.0176 -0.0698
 6962TIP3   OH220849   2.116   4.375   4.420  0.2552  0.5570 -0.6693
 6962TIP3    H120850   2.137   4.283   4.437 -0.0856  0.4934 -0.5879
 6962TIP3    H220851   2.199   4.414   4.393  0.3489  0.1689 -0.9411
 6963TIP3   OH220852   0.996   0.935   2.915 -0.1290  0.1096  0.3304
 6963TIP3    H120853   0.924   0.896   2.865  2.3929 -1.0557 -2.6708
 6963TIP3    H220854   0.983   1.030   2.905 -0.2541 -0.0985 -1.7877
 6964TIP3   OH220855   5.171   6.033   5.647 -0.1674  0.0826 -0.1081
 6964TIP3    H120856   5.230   6.091   5.696  2.1867 -2.1163 -0.1265
 6964TIP3    H220857   5.147   5.965   5.711 -0.1088 -0.7622 -0.9628
 6965TIP3   OH220858   5.680   4.575   4.417  0.4455 -0.4459 -0.2446
 6965TIP3    H120859   5.647   4.618   4.496  0.5538 -0.3041 -0.2758
 6965TIP3    H220860   5.698   4.485   4.445  1.1973 -0.2035  0.0884
 6966TIP3   OH220861   3.865   1.554   1.866  0.6097  0.0549  0.2041
 6966TIP3    H120862   3.920   1.476   1.877  0.0740 -0.4704 -0.6661
 6966TIP3    H220863   3.783   1.531   1.908  0.5065  0.2046  0.0853
 6967TIP3   OH220864   4.240   5.264   1.347 -0.2321 -0.1963  0.2847
 6967TIP3    H120865   4.265   5.287   1.258  0.7110 -0.8278  0.3778
 6967TIP3    H220866   4.276   5.334   1.401 -1.6145  0.6925  0.0980
 6968TIP3   OH220867   2.575   1.432   2.635  1.2681  0.4647 -0.6568
 6968TIP3    H120868   2.520   1.385   2.572  0.2564 -0.4204  0.8429
 6968TIP3    H220869   2.661   1.435   2.593  0.8227 -0.8022 -1.7410
 6969TIP3   OH220870   0.586   3.994   3.694 -0.4442  0.0945  0.0756
 6969TIP3    H120871   0.610   4.080   3.661  0.1925  0.2278  0.8813
 6969TIP3    H220872   0.598   3.999   3.789 -0.3431 -0.8948  0.1285
 6970TIP3   OH220873   6.704   2.407   0.752 -0.0921  0.3310  0.0603
 6970TIP3    H120874   6.739   2.426   0.839  0.7193  1.6809 -0.5421
 6970TIP3    H220875   6.639   2.476   0.736 -0.7724 -0.3327 -0.1282
 6971TIP3   OH220876   4.850   0.346   0.230  0.6459 -0.2134  0.5247
 6971TIP3    H120877   4.824   0.338   0.322 -0.4973 -0.1795  0.2154
 6971TIP3    H220878   4.945   0.332   0.231  1.0966  2.3726  2.0306
 6972TIP3   OH220879   0.674   1.381   3.683 -0.1692  0.3938  0.1834
 6972TIP3    H120880   0.766   1.400   3.703 -0.2093  0.6580  0.1237
 6972TIP3    H220881   0.625   1.442   3.738 -0.2904  0.7952 -0.3572
 6973TIP3   OH220882   3.929   3.415   5.066  0.4321  0.1266 -0.6671
 6973TIP3    H120883   3.997   3.414   5.133 -0.7153 -1.1881  0.5459
 6973TIP3    H220884   3.974   3.387   4.986  0.9759 -2.8760  0.5638
 6974TIP3   OH220885   4.868   2.934   4.275 -0.2128 -0.5558  0.0355
 6974TIP3    H120886   4.796   2.910   4.216  1.4284 -0.1404 -2.2664
 6974TIP3    H220887   4.867   3.030   4.277 -0.4372 -0.5641  0.9784
 6975TIP3   OH220888   3.901   2.177   1.413 -0.0601  0.0412 -0.3617
 6975TIP3    H120889   3.958   2.253   1.399 -0.4518  0.6458  1.1103
 6975TIP3    H220890   3.916   2.121   1.337  1.2055  0.9889 -0.8426
 6976TIP3   OH220891   3.760   1.255   3.135 -0.1750 -0.1424 -0.3239
 6976TIP3    H120892   3.719   1.201   3.201  0.6872 -1.0038 -0.4730
 6976TIP3    H220893   3.741   1.211   3.052  3.1740 -2.1021 -0.2289
 6977TIP3   OH220894   1.283   4.851   3.750 -0.5141 -0.2696  0.2677
 6977TIP3    H120895   1.343   4.917   3.713  0.4406 -0.6579  1.0743
 6977TIP3    H220896   1.196   4.880   3.722 -0.1021  1.2027  0.3924
 6978TIP3   OH220897   2.022   4.495   2.582 -0.3059  0.3690 -0.5216
 6978TIP3    H120898   2.008   4.529   2.670  1.8602 -2.4324  1.1155
 6978TIP3    H220899   2.090   4.551   2.545 -0.8308  1.2271 -0.2058
 6979TIP3   OH220900   1.119   6.510   0.182 -0.3286  0.5720 -0.1888
 6979TIP3    H120901   1.137   6.585   0.126 -0.1507  1.5768  1.1500
 6979TIP3    H220902   1.204   6.468   0.194 -0.5353 -0.2472 -1.4586
 6980TIP3   OH220903   3.028   2.534   1.481 -0.0801  0.4515  0.0874
 6980TIP3    H120904   2.996   2.480   1.409 -0.3381  1.0914 -0.2908
 6980TIP3    H220905   2.983   2.618   1.469  3.9012  2.5331 -2.2869
 6981TIP3   OH220906   5.280   3.347   3.911  0.0761 -0.2764 -0.4353
 6981TIP3    H120907   5.366   3.353   3.871 -0.1573 -1.8532 -1.2313
 6981TIP3    H220908   5.297   3.327   4.003  0.5698 -0.5293 -0.5804
 6982TIP3   OH220909   2.334   1.684   3.118  0.4532 -0.3347  0.2954
 6982TIP3    H120910   2.383   1.733   3.051  0.6995  0.2906  0.9203
 6982TIP3    H220911   2.263   1.643   3.070 -0.3748  1.4697 -0.1059
 6983TIP3   OH220912   2.554   4.925   5.605  0.0837 -0.3025 -0.1618
 6983TIP3    H120913   2.520   4.848   5.651  0.2226 -1.5291 -1.9984
 6983TIP3    H220914   2.638   4.895   5.568  1.5220  1.5937  1.3459
 6984TIP3   OH220915   0.777   5.683   5.573  0.2332 -0.1955 -0.5868
 6984TIP3    H120916   0.816   5.691   5.660 -0.3900 -0.2232 -0.2982
 6984TIP3    H220917   0.693   5.728   5.580 -0.4231 -1.3311 -0.7906
 6985TIP3   OH220918   1.362   5.881   0.570 -0.0090  0.4903  0.0261
 6985TIP3    H120919   1.288   5.826   0.544 -0.0089  0.3468  0.3286
 6985TIP3    H220920   1.349   5.963   0.522 -0.8383  0.7894  0.7403
 6986TIP3   OH220921   3.397   5.157   1.216 -0.2889  0.0667  0.1646
 6986TIP3    H120922   3.351   5.241   1.212 -0.1106  0.1690  0.2453
 6986TIP3    H220923   3.470   5.173   1.276  0.4447  0.1940 -0.7444
 6987TIP3   OH220924   3.614   6.257   2.978 -0.3716 -0.4031 -0.1777
 6987TIP3    H120925   3.670   6.182   2.957  0.4421 -0.0192  0.5305
 6987TIP3    H220926   3.676   6.327   3.001 -1.1233  0.4356 -0.6663
 6988TIP3   OH220927   3.404   3.581   1.560 -0.4230 -0.4715 -0.2594
 6988TIP3    H120928   3.416   3.629   1.642  1.7741 -2.2409  0.5603
 6988TIP3    H220929   3.318   3.540   1.568 -1.4248  1.5588 -0.0937
 6989TIP3   OH220930   4.666   3.546   4.591 -0.3053 -0.3515  0.7373
 6989TIP3    H120931   4.684   3.500   4.672  1.2390  0.0177  0.6297
 6989TIP3    H220932   4.676   3.638   4.612  2.3990 -0.3050 -0.3178
 6990TIP3   OH220933   6.001   3.575   4.251 -0.0435  0.0932  0.6414
 6990TIP3    H120934   5.909   3.578   4.222 -0.1370 -0.9432  0.7663
 6990TIP3    H220935   6.011   3.486   4.286  0.4294  0.8713  2.5961
 6991TIP3   OH220936   5.014   4.914   0.086 -0.6741  0.0341  0.1345
 6991TIP3    H120937   5.010   5.007   0.063  0.2741 -0.1663 -0.9488
 6991TIP3    H220938   4.926   4.881   0.071 -1.0859  0.7989  0.7818
 6992TIP3   OH220939   1.873   1.056   4.239  0.6504 -0.4803  0.2814
 6992TIP3    H120940   1.847   1.109   4.164  1.9466 -0.4454 -0.1669
 6992TIP3    H220941   1.910   1.119   4.302 -0.1272 -0.5496  0.8257
 6993TIP3   OH220942   3.639   1.632   2.535 -0.3819  0.6012 -0.0467
 6993TIP3    H120943   3.548   1.638   2.505 -1.1450  1.6119  2.2253
 6993TIP3    H220944   3.688   1.607   2.457 -2.5925  0.0150 -1.3508
 6994TIP3   OH220945   2.631   6.522   4.403  0.1248  0.0815  0.6001
 6994TIP3    H120946   2.722   6.551   4.409  0.3269 -0.5450  0.6907
 6994TIP3    H220947   2.584   6.577   4.465  0.5407  0.0582  0.9419
 6995TIP3   OH220948   5.290   5.231   1.966  0.6081 -0.1573 -0.5336
 6995TIP3    H120949   5.357   5.166   1.943  0.7903  0.3647 -1.4937
 6995TIP3    H220950   5.314   5.259   2.055  0.6913 -1.1848 -0.2187
 6996TIP3   OH220951   0.290   1.976   4.451  0.1936 -0.2332  0.2390
 6996TIP3    H120952   0.377   1.983   4.412  1.2058 -2.1899  1.9180
 6996TIP3    H220953   0.257   1.892   4.420 -1.3355  0.7035 -0.7544
 6997TIP3   OH220954   0.676   2.750   0.887  0.5889 -0.0044 -0.6536
 6997TIP3    H120955   0.720   2.700   0.957  0.9797  1.4560  0.1826
 6997TIP3    H220956   0.741   2.816   0.861 -0.2201  0.6135 -1.1212
 6998TIP3   OH220957   0.302   3.996   1.887 -0.1964  0.1287 -0.0449
 6998TIP3    H120958   0.225   3.963   1.934  0.2596  0.8469  1.2788
 6998TIP3    H220959   0.365   3.924   1.890 -0.1891  0.1512  0.4168
 6999TIP3   OH220960   4.138   1.028   2.505  0.7908  0.4846  0.2873
 6999TIP3    H120961   4.137   0.933   2.512 -1.5666  0.3102 -1.1910
 6999TIP3    H220962   4.210   1.048   2.445 -0.4731 -0.6601 -1.7194
 7000TIP3   OH220963   0.843   1.043   5.440 -0.1196  0.1556  0.6603
 7000TIP3    H120964   0.768   1.007   5.393  0.2033  0.5100 -0.1548
 7000TIP3    H220965   0.914   0.980   5.424 -0.1207  0.0655  1.0187
 7001TIP3   OH220966   4.708   1.772   3.881 -0.0021 -0.2849 -0.0991
 7001TIP3    H120967   4.767   1.733   3.818 -1.5949 -1.0034 -1.2125
 7001TIP3    H220968   4.690   1.860   3.847  1.1628  0.3143  0.7687
 7002TIP3   OH220969   1.215   4.124   3.767 -0.7735  0.0456 -0.1349
 7002TIP3    H120970   1.145   4.059   3.767 -0.1027 -0.7892  2.2612
 7002TIP3    H220971   1.274   4.097   3.696 -1.1813 -1.2012 -0.0181
 7003TIP3   OH220972   0.266   0.586   2.423 -0.2458  0.4212 -0.5878
 7003TIP3    H120973   0.324   0.514   2.397 -1.8276 -1.2065  0.1926
 7003TIP3    H220974   0.325   0.654   2.454  1.2690 -2.1030  2.6240
 7004TIP3   OH220975   1.693   6.222   2.069 -0.1144  0.5117  0.5627
 7004TIP3    H120976   1.651   6.218   2.155 -0.0967  0.4486  0.5690
 7004TIP3    H220977   1.767   6.160   2.076 -0.5730 -0.0837  0.2553
 7005TIP3   OH220978   6.068   1.544   4.892 -0.3945  0.3995 -0.6679
 7005TIP3    H120979   6.092   1.560   4.800 -0.3090  1.4505 -0.4726
 7005TIP3    H220980   6.050   1.631   4.927 -0.7768 -0.0331  0.2221
 7006TIP3   OH220981   5.530   3.063   0.760  0.2160  0.0876 -0.4802
 7006TIP3    H120982   5.447   3.066   0.712 -0.1678  0.8807  0.2216
 7006TIP3    H220983   5.509   3.020   0.843 -0.0094  2.3039  0.6635
 7007TIP3   OH220984   5.940   5.253   2.468  0.4778 -0.5199  0.0573
 7007TIP3    H120985   6.035   5.248   2.479  0.6407  1.3164 -0.2064
 7007TIP3    H220986   5.910   5.303   2.545 -0.1931 -0.5255 -0.1943
 7008TIP3   OH220987   5.385   0.949   4.380  0.6307 -0.4238 -0.5036
 7008TIP3    H120988   5.319   0.920   4.443  1.7879 -1.7498  0.1574
 7008TIP3    H220989   5.339   0.952   4.296 -0.2260 -1.5029 -0.0960
 7009TIP3   OH220990   4.747   0.608   0.635 -0.0253  0.1357  0.6749
 7009TIP3    H120991   4.778   0.518   0.623 -0.1326 -0.1555  2.3528
 7009TIP3    H220992   4.826   0.662   0.631  0.1919 -0.1655  0.8856
 7010TIP3   OH220993   2.734   6.058   0.845 -0.3352  0.0175 -0.7062
 7010TIP3    H120994   2.726   6.045   0.940  0.6297 -0.0409 -0.6220
 7010TIP3    H220995   2.822   6.093   0.833  0.4541 -2.1037 -1.7667
 7011TIP3   OH220996   1.296   6.070   1.850 -0.1269  0.2156  0.2470
 7011TIP3    H120997   1.246   6.149   1.827  0.5832  0.2526 -1.3224
 7011TIP3    H220998   1.387   6.093   1.830  0.4029 -0.2230  2.0272
 7012TIP3   OH220999   0.164   4.045   3.352 -0.6638 -0.0993  0.4710
 7012TIP3    H121000   0.111   4.074   3.426  1.2817  0.0858  1.8693
 7012TIP3    H221001   0.244   4.096   3.358 -0.0481 -0.7872 -1.2018
 7013TIP3   OH221002   4.110   4.024   1.442  0.1677  0.1652 -0.5833
 7013TIP3    H121003   4.093   3.944   1.490 -0.0540  0.0956 -0.7767
 7013TIP3    H221004   4.135   4.088   1.509 -0.3930  0.1427 -0.3444
 7014TIP3   OH221005   6.384   5.912   1.032  0.2182  0.0455  0.0225
 7014TIP3    H121006   6.398   5.858   0.954 -1.3140 -0.3553  0.0010
 7014TIP3    H221007   6.346   5.993   0.999 -0.5411 -0.1713  0.3576
 7015TIP3   OH221008   1.055   1.308   1.646  0.1555  0.1707  0.2696
 7015TIP3    H121009   1.001   1.384   1.622  0.0526  0.4012  1.1811
 7015TIP3    H221010   0.995   1.234   1.639  0.0579  0.2657  0.0715
 7016TIP3   OH221011   1.229   3.466   2.968 -0.1763  0.6580 -0.2218
 7016TIP3    H121012   1.223   3.514   2.886  0.1028 -1.3090 -1.4489
 7016TIP3    H221013   1.144   3.422   2.977  0.5986 -1.0329 -0.7330
 7017TIP3   OH221014   6.373   3.342   3.796  0.4031  0.3389  0.1562
 7017TIP3    H121015   6.358   3.354   3.890  2.8096 -1.0697  0.8271
 7017TIP3    H221016   6.403   3.428   3.765 -1.4668  1.1158  0.3738
 7018TIP3   OH221017   3.400   6.312   1.749  0.4663 -0.3527  0.1230
 7018TIP3    H121018   3.405   6.281   1.840  0.8406 -0.8108 -0.0505
 7018TIP3    H221019   3.398   6.407   1.757 -4.2281 -0.2991  0.8608
 7019TIP3   OH221020   5.379   6.661   1.828  0.4552 -0.7969  0.5461
 7019TIP3    H121021   5.332   6.623   1.754  0.8189  0.9354 -0.6586
 7019TIP3    H221022   5.328   6.637   1.904 -0.8544 -1.2707 -0.4448
 7020TIP3   OH221023   6.996   6.117   4.289 -0.0922  0.1825 -0.0436
 7020TIP3    H121024   7.071   6.097   4.346  0.1309 -0.4972 -0.5596
 7020TIP3    H221025   6.936   6.166   4.345  1.2988  1.8839  0.0204
 7021TIP3   OH221026   2.256   5.455   5.360 -0.0773  0.0120  0.2742
 7021TIP3    H121027   2.211   5.471   5.277 -1.0961 -1.5064  0.5088
 7021TIP3    H221028   2.344   5.426   5.335 -0.0971  0.3855 -0.2439
 7022TIP3   OH221029   3.470   5.217   0.416 -0.4833  0.5449  0.2143
 7022TIP3    H121030   3.498   5.171   0.496 -2.5699  0.5659  1.0021
 7022TIP3    H221031   3.547   5.268   0.390  1.4006 -2.0596  0.2246
 7023TIP3   OH221032   2.651   5.444   1.574 -0.0802  0.1345  0.3359
 7023TIP3    H121033   2.730   5.495   1.592 -0.5310  0.1778  2.4283
 7023TIP3    H221034   2.645   5.382   1.647 -1.2516 -0.7921 -0.5061
 7024TIP3   OH221035   0.707   6.118   4.538 -0.2211 -0.1686 -0.1154
 7024TIP3    H121036   0.711   6.183   4.468 -1.5222  0.1882  0.1035
 7024TIP3    H221037   0.712   6.033   4.494 -2.4719  0.0045 -0.8510
 7025TIP3   OH221038   4.642   3.437   0.872 -0.4835 -0.5161 -0.3310
 7025TIP3    H121039   4.593   3.370   0.824  0.7010 -0.9675 -0.9404
 7025TIP3    H221040   4.577   3.475   0.932 -1.0508 -2.5981  0.4747
 7026TIP3   OH221041   0.953   5.707   4.382 -0.5096 -0.1112 -0.6897
 7026TIP3    H121042   0.863   5.676   4.391 -0.4086 -0.1538  0.3534
 7026TIP3    H221043   0.960   5.779   4.444 -0.2553  0.9331 -1.8917
 7027TIP3   OH221044   6.712   0.595   2.198 -0.0593 -0.0833 -0.1661
 7027TIP3    H121045   6.653   0.668   2.217  1.5413  1.0519  0.7144
 7027TIP3    H221046   6.795   0.637   2.175  0.7285 -1.6180 -0.2225
 7028TIP3   OH221047   0.681   3.158   0.277 -0.3925 -0.4955  0.1230
 7028TIP3    H121048   0.776   3.167   0.280 -0.3442 -1.1968  1.1434
 7028TIP3    H221049   0.649   3.212   0.349 -0.8080  0.0970 -0.4924
 7029TIP3   OH221050   6.062   2.887   1.204  0.2401  0.0040 -0.5561
 7029TIP3    H121051   6.134   2.895   1.141  0.4566 -1.9940 -0.6069
 7029TIP3    H221052   6.061   2.972   1.249 -0.8204  2.0708 -4.0828
 7030TIP3   OH221053   5.475   6.371   4.945  0.4028  0.2835 -0.3609
 7030TIP3    H121054   5.427   6.370   4.863  0.5274  0.0539 -0.4332
 7030TIP3    H221055   5.412   6.342   5.010 -0.2285  2.1834 -0.0632
 7031TIP3   OH221056   6.402   5.544   1.233  0.1207 -0.2162  0.7667
 7031TIP3    H121057   6.470   5.598   1.192 -0.9108  0.4117 -0.2023
 7031TIP3    H221058   6.388   5.584   1.319 -1.9682  2.4311 -0.6212
 7032TIP3   OH221059   1.241   3.840   4.514 -0.0574  0.2000 -0.3102
 7032TIP3    H121060   1.211   3.850   4.605  1.1220  1.4286 -0.0335
 7032TIP3    H221061   1.330   3.807   4.522  0.3789  1.1909 -0.9964
 7033TIP3   OH221062   2.390   5.652   4.444 -0.0176  0.3185 -0.0854
 7033TIP3    H121063   2.410   5.590   4.514 -0.8874  1.1967  0.9826
 7033TIP3    H221064   2.475   5.685   4.416  0.3983 -0.7101 -0.0955
 7034TIP3   OH221065   6.717   5.851   0.540 -0.0892 -0.0471 -0.0920
 7034TIP3    H121066   6.768   5.858   0.459 -0.7520 -1.3800 -0.6596
 7034TIP3    H221067   6.627   5.841   0.511 -0.2856 -1.0498  0.7799
 7035TIP3   OH221068   0.959   4.997   5.444 -0.3345  0.3997 -0.3705
 7035TIP3    H121069   0.979   4.904   5.437 -0.3963  0.2288  1.2244
 7035TIP3    H221070   0.882   5.010   5.389 -2.1492 -1.1484  1.6274
 7036TIP3   OH221071   5.993   6.624   2.145 -0.0397  0.1310 -0.1703
 7036TIP3    H121072   6.033   6.670   2.219 -1.6416 -0.1629  0.9154
 7036TIP3    H221073   5.957   6.694   2.090  0.8170  0.3273 -0.5101
 7037TIP3   OH221074   4.034   6.446   4.168  0.0953 -0.1258  0.2818
 7037TIP3    H121075   3.944   6.414   4.165  0.0614  0.0087 -0.2181
 7037TIP3    H221076   4.061   6.450   4.076 -0.1221  1.8772  0.2538
 7038TIP3   OH221077   0.719   6.307   2.081  0.0298  0.6224 -0.8241
 7038TIP3    H121078   0.776   6.297   2.005 -0.3678 -1.6985 -0.8792
 7038TIP3    H221079   0.710   6.402   2.092  1.6655  1.0170 -2.4600
 7039TIP3   OH221080   0.691   3.328   0.496 -0.5108 -0.1101 -0.6902
 7039TIP3    H121081   0.756   3.331   0.566 -1.6183  1.4366  0.3323
 7039TIP3    H221082   0.607   3.340   0.541 -1.3832 -0.4832 -2.1450
 7040TIP3   OH221083   4.346  -0.019   3.501 -0.0811 -0.1654 -0.4808
 7040TIP3    H121084   4.320   0.039   3.429 -0.3413 -0.6027 -0.7437
 7040TIP3    H221085   4.408   0.032   3.552  0.6089 -0.0744 -1.3856
 7041TIP3   OH221086   2.174   2.922   4.493  0.0573  0.3467  0.1423
 7041TIP3    H121087   2.153   2.997   4.549  0.6569  0.8739 -0.3186
 7041TIP3    H221088   2.147   2.846   4.544 -0.3141  0.8616  0.7335
 7042TIP3   OH221089   2.543   2.193   1.130 -0.0184 -0.3200 -0.1792
 7042TIP3    H121090   2.476   2.150   1.077  1.3668 -0.9597 -1.5142
 7042TIP3    H221091   2.590   2.121   1.172 -0.0369  0.1031  0.5792
 7043TIP3   OH221092   0.266   3.127   4.534 -0.0954  0.2260 -0.0197
 7043TIP3    H121093   0.251   3.155   4.625  1.8363  3.6043 -0.5586
 7043TIP3    H221094   0.217   3.190   4.482  0.3057 -0.5462 -1.3627
 7044TIP3   OH221095   2.835   4.068   2.537  0.4360  0.5508 -0.8130
 7044TIP3    H121096   2.925   4.058   2.505  0.5262 -0.2196 -0.3402
 7044TIP3    H221097   2.844   4.114   2.620  0.4315  0.1800 -0.6023
 7045TIP3   OH221098   2.541   6.592   0.301  0.4568 -0.0236 -0.2056
 7045TIP3    H121099   2.477   6.644   0.351 -0.4370  1.1095 -2.4130
 7045TIP3    H221100   2.518   6.501   0.319 -0.4164  0.3565  0.6789
 7046TIP3   OH221101   3.606   6.560   5.172  0.3001  0.2452 -0.2802
 7046TIP3    H121102   3.573   6.523   5.253  1.0399  0.6361  0.2059
 7046TIP3    H221103   3.557   6.514   5.103 -0.1536 -0.2606  0.3700
 7047TIP3   OH221104   2.272   5.690   2.868 -0.0305 -0.0338 -0.1557
 7047TIP3    H121105   2.298   5.732   2.786  1.3370 -0.9304 -0.2257
 7047TIP3    H221106   2.180   5.668   2.857 -0.3259  1.4432 -0.7521
 7048TIP3   OH221107   2.106   5.668   5.495 -0.9528 -0.3535  0.1134
 7048TIP3    H121108   2.128   5.740   5.435  0.0325 -1.5142 -0.9791
 7048TIP3    H221109   2.172   5.601   5.476 -1.4688 -1.3003  1.5489
 7049TIP3   OH221110   0.594   6.447   2.592  0.3042 -0.1329  0.6310
 7049TIP3    H121111   0.538   6.484   2.660 -1.9651 -1.1130 -0.5544
 7049TIP3    H221112   0.651   6.519   2.565 -2.2730  1.8457  0.0681
 7050TIP3   OH221113   3.424   1.612   0.355 -0.0615 -0.1408 -0.4531
 7050TIP3    H121114   3.356   1.679   0.344 -0.4109 -0.4170  0.0313
 7050TIP3    H221115   3.427   1.595   0.449 -1.3082 -2.1678 -0.7177
 7051TIP3   OH221116   6.623   4.325   1.834 -0.3828 -0.7910  0.2440
 7051TIP3    H121117   6.718   4.331   1.839 -0.5119  0.3067  2.0652
 7051TIP3    H221118   6.602   4.237   1.866  0.0544 -1.8015 -1.9855
 7052TIP3   OH221119   6.935   0.339   0.461  0.2491  0.1995 -0.0889
 7052TIP3    H121120   6.902   0.401   0.526 -0.8640 -2.0167  1.5897
 7052TIP3    H221121   7.027   0.327   0.484  0.3131  0.7658 -0.0423
 7053TIP3   OH221122   5.456   3.628   2.425  1.0014  0.5195 -0.7990
 7053TIP3    H121123   5.367   3.663   2.422  0.6336 -0.2723  0.2504
 7053TIP3    H221124   5.512   3.705   2.429  0.1805  1.1151  2.6021
 7054TIP3   OH221125   5.639   4.149   5.346  0.2586  0.2763 -0.4644
 7054TIP3    H121126   5.548   4.145   5.378 -0.7688  2.1725 -2.8274
 7054TIP3    H221127   5.666   4.057   5.343 -1.7035 -0.3874  0.0145
 7055TIP3   OH221128   1.972   5.935   2.709  0.5427  0.1340 -0.5375
 7055TIP3    H121129   1.982   5.843   2.736  1.0484 -0.0992 -1.4478
 7055TIP3    H221130   1.884   5.959   2.738  1.6689  0.5410  3.0124
 7056TIP3   OH221131   0.192   1.959   3.155 -0.4854 -0.4043  0.1587
 7056TIP3    H121132   0.221   1.940   3.065 -2.0735 -1.5894 -0.1535
 7056TIP3    H221133   0.258   2.019   3.189  0.2333 -0.0217 -1.7590
 7057TIP3   OH221134   1.004   5.840   1.288  0.4564  0.8361 -0.3134
 7057TIP3    H121135   1.031   5.754   1.322 -1.7542 -0.0519 -0.6300
 7057TIP3    H221136   0.946   5.875   1.354  1.6821  2.3601  0.0190
 7058TIP3   OH221137   4.415   0.462   1.659  0.4759  0.2556 -0.6191
 7058TIP3    H121138   4.411   0.366   1.665  1.0869  0.0617 -2.5472
 7058TIP3    H221139   4.452   0.489   1.743  4.6536 -1.5916 -1.5960
 7059TIP3   OH221140   2.916   3.124   4.013  0.2931  0.2138  0.0195
 7059TIP3    H121141   3.007   3.097   4.022  0.8185  1.7892 -0.1515
 7059TIP3    H221142   2.912   3.211   4.053 -1.3971 -0.2698  1.0031
 7060TIP3   OH221143   6.049   3.967   2.868 -0.4095 -0.5064 -0.1442
 7060TIP3    H121144   6.132   3.920   2.877 -0.5245 -0.9947 -1.5295
 7060TIP3    H221145   5.996   3.913   2.810 -1.6688 -0.1353  0.6179
 7061TIP3   OH221146   0.171   4.713   1.598 -0.2465  0.2607 -0.2148
 7061TIP3    H121147   0.150   4.633   1.646 -0.0158  0.5471  0.3747
 7061TIP3    H221148   0.104   4.718   1.530  0.0583 -0.7121 -0.5999
 7062TIP3   OH221149   6.535   1.996   5.453 -0.3806 -0.8987  0.6252
 7062TIP3    H121150   6.559   1.905   5.468  1.2237 -0.7827 -0.9043
 7062TIP3    H221151   6.525   2.003   5.358  0.5912  0.7270  0.5992
 7063TIP3   OH221152   1.082   2.213   3.824 -0.6496  0.3018 -0.2932
 7063TIP3    H121153   1.056   2.131   3.782 -1.9003  0.6863 -0.3086
 7063TIP3    H221154   1.110   2.269   3.752  2.6850 -0.8947 -0.1007
 7064TIP3   OH221155   5.702   3.850   5.624  0.2203 -0.5351  0.2206
 7064TIP3    H121156   5.650   3.921   5.661  2.5236  1.7728 -0.6132
 7064TIP3    H221157   5.691   3.859   5.529  0.4275 -1.3774  0.1078
 7065TIP3   OH221158   2.556   3.729   0.757  0.2796  0.3445  0.2695
 7065TIP3    H121159   2.623   3.783   0.799 -0.7884  1.4814  0.5827
 7065TIP3    H221160   2.509   3.688   0.830 -1.2657  1.9400  0.2505
 7066TIP3   OH221161   3.412   3.112   0.042  0.0467  0.1902  0.7403
 7066TIP3    H121162   3.366   3.108   0.126  0.4862 -0.3923  0.9669
 7066TIP3    H221163   3.417   3.020   0.013  0.9684  0.2456  0.6852
 7067TIP3   OH221164   1.155   5.309   2.800 -0.2349 -0.1375  0.2593
 7067TIP3    H121165   1.162   5.357   2.717 -2.9841 -0.2716 -0.1302
 7067TIP3    H221166   1.077   5.346   2.842 -0.0049 -1.4206  1.8934
 7068TIP3   OH221167   3.024   0.301   3.303  0.1731  0.0496 -0.9757
 7068TIP3    H121168   3.002   0.218   3.345  1.8734 -0.8995 -1.8816
 7068TIP3    H221169   2.981   0.297   3.218 -2.5461  1.6084  0.1712
 7069TIP3   OH221170   6.301   1.929   5.212 -0.3116 -0.0376 -0.4144
 7069TIP3    H121171   6.370   1.964   5.156  0.7481 -0.5240  0.5522
 7069TIP3    H221172   6.321   1.836   5.219 -0.0606  0.1103  1.2422
 7070TIP3   OH221173   6.819   6.541   2.755  0.3444  0.4137 -1.0058
 7070TIP3    H121174   6.763   6.585   2.691 -0.7429  1.2029  0.4240
 7070TIP3    H221175   6.773   6.459   2.774  0.6592  0.1861 -1.2227
 7071TIP3   OH221176   2.598   6.268   0.087  0.1995 -0.0931 -0.3729
 7071TIP3    H121177   2.632   6.260  -0.002 -1.3008 -0.0473 -0.9897
 7071TIP3    H221178   2.674   6.289   0.141  1.6563 -2.7203 -1.1943
 7072TIP3   OH221179   3.969   6.606   1.612  0.4421  0.1280 -0.0449
 7072TIP3    H121180   3.987   6.518   1.579  0.1337 -0.5093  1.4054
 7072TIP3    H221181   4.053   6.636   1.648  0.0998 -0.4399  1.3184
 7073TIP3   OH221182   1.816   2.186   0.561  0.3437 -0.0775 -0.4986
 7073TIP3    H121183   1.744   2.151   0.613 -0.1006  0.5818 -0.6691
 7073TIP3    H221184   1.893   2.137   0.590 -0.1496 -0.7009 -0.2337
 7074TIP3   OH221185   0.747   3.017   3.305  0.5555 -0.0962 -0.0683
 7074TIP3    H121186   0.821   2.965   3.337  0.6276 -0.5360 -0.9176
 7074TIP3    H221187   0.782   3.105   3.293  0.9887 -0.3293 -0.5818
 7075TIP3   OH221188   0.828   5.997   1.474 -0.1225 -0.0076  0.1150
 7075TIP3    H121189   0.737   6.003   1.503 -0.7482  1.3055 -1.8921
 7075TIP3    H221190   0.879   6.031   1.547 -1.4451  1.4039  0.4357
 7076TIP3   OH221191   2.190   3.793   1.557 -0.1722  0.2176  0.0444
 7076TIP3    H121192   2.160   3.726   1.619  0.3059  1.6569  1.9171
 7076TIP3    H221193   2.204   3.745   1.475 -0.0775 -1.9208  1.2352
 7077TIP3   OH221194   5.657   4.154   2.898  0.5481  0.0720  0.2418
 7077TIP3    H121195   5.697   4.147   2.985 -0.3490 -0.4341  0.6201
 7077TIP3    H221196   5.567   4.183   2.915  0.7477  1.2667 -0.6080
 7078TIP3   OH221197   6.129   2.287   1.964  0.0346  0.2512 -0.1931
 7078TIP3    H121198   6.044   2.260   1.997  0.0493 -0.7112 -0.8934
 7078TIP3    H221199   6.138   2.240   1.881  1.4453 -0.0208  0.0962
 7079TIP3   OH221200   0.138   2.324   3.177  0.5728 -0.2586 -0.3669
 7079TIP3    H121201   0.138   2.320   3.081  2.0167  1.9809 -0.5202
 7079TIP3    H221202   0.217   2.276   3.202  1.0073  0.4347 -0.3965
 7080TIP3   OH221203   2.153   1.073   2.690  0.4775 -0.1195 -0.4476
 7080TIP3    H121204   2.206   1.028   2.756 -0.2116 -0.5762 -0.1890
 7080TIP3    H221205   2.074   1.019   2.682  0.3517  0.1760 -1.3206
 7081TIP3   OH221206   2.407   5.690   4.833  0.1136  0.1704  0.2402
 7081TIP3    H121207   2.402   5.748   4.909 -1.0478  1.0555 -0.4764
 7081TIP3    H221208   2.483   5.720   4.784  0.6673 -0.1871  0.8668
 7082TIP3   OH221209   3.639   5.960   0.809  0.7914  0.3780  0.3883
 7082TIP3    H121210   3.690   6.041   0.809  0.6639  0.4654 -0.3525
 7082TIP3    H221211   3.701   5.893   0.838  1.1591  0.5860  0.0875
 7083TIP3   OH221212   3.507   2.984   4.869  0.2538 -0.1207 -0.1180
 7083TIP3    H121213   3.453   2.906   4.882 -0.5401  0.4254 -0.0531
 7083TIP3    H221214   3.585   2.952   4.825 -0.0601 -0.9527 -0.0939
 7084TIP3   OH221215   2.955   3.314   2.204 -0.1245 -0.1519 -0.4633
 7084TIP3    H121216   2.995   3.248   2.261 -2.5316 -1.6557 -0.3799
 7084TIP3    H221217   2.897   3.265   2.147 -0.4910  1.7243 -1.8132
 7085TIP3   OH221218   6.127   0.455   4.570 -0.3825  0.1848  0.4786
 7085TIP3    H121219   6.053   0.400   4.544 -0.2804  0.7844 -1.1691
 7085TIP3    H221220   6.099   0.544   4.548  0.1539  0.6162  1.4780
 7086TIP3   OH221221   3.092   1.347   0.266 -0.0300 -0.2660  0.0592
 7086TIP3    H121222   3.115   1.274   0.209  1.4926  1.1790 -1.3271
 7086TIP3    H221223   3.042   1.308   0.337  1.5553 -2.7914 -0.0936
 7087TIP3   OH221224   5.426   1.585   4.838 -0.4229  0.0242 -0.0356
 7087TIP3    H121225   5.514   1.617   4.817 -0.0395  0.5822  2.1542
 7087TIP3    H221226   5.430   1.491   4.817  0.8163 -0.0342  0.3600
 7088TIP3   OH221227   7.003   4.846   4.976  0.6079 -0.5706  0.3863
 7088TIP3    H121228   7.095   4.829   4.995  0.5100 -0.3480  1.0764
 7088TIP3    H221229   6.992   4.821   4.884  1.1178 -1.5573  0.5865
 7089TIP3   OH221230   4.030   5.099   3.862 -0.4735 -0.0248  0.3978
 7089TIP3    H121231   3.969   5.116   3.790 -0.6390  0.5206  0.6590
 7089TIP3    H221232   4.001   5.157   3.932  0.5221  0.4560  0.4300
 7090TIP3   OH221233   5.150   0.318   1.996  0.3571  0.2376  0.1327
 7090TIP3    H121234   5.119   0.230   2.017  0.2742  0.0792 -0.6185
 7090TIP3    H221235   5.167   0.315   1.902  1.9055  0.5467  0.3790
 7091TIP3   OH221236   2.144   1.787   2.044  0.6341  0.8105  0.0883
 7091TIP3    H121237   2.149   1.874   2.085 -0.3080  0.8850  0.0690
 7091TIP3    H221238   2.091   1.735   2.105 -0.5927  0.8585 -0.9057
 7092TIP3   OH221239   1.039   2.729   1.360 -0.5288 -0.1506 -0.0260
 7092TIP3    H121240   1.086   2.666   1.414  1.6913  0.6576 -0.8948
 7092TIP3    H221241   1.084   2.812   1.376 -0.5592  0.3358 -2.1663
 7093TIP3   OH221242   6.074   6.669   0.569  0.6127 -0.7494  0.1774
 7093TIP3    H121243   6.009   6.720   0.520 -0.6063 -2.4475 -0.0630
 7093TIP3    H221244   6.059   6.694   0.660  0.4056 -0.2855  0.0225
 7094TIP3   OH221245   1.731   5.983   2.447  0.1694 -0.4892 -0.4231
 7094TIP3    H121246   1.824   5.998   2.428  0.8356 -1.7575  1.5628
 7094TIP3    H221247   1.725   5.991   2.542 -1.7087 -0.7451 -0.4941
 7095TIP3   OH221248   5.449   3.017   0.164 -0.6579 -0.1171 -0.5209
 7095TIP3    H121249   5.478   3.000   0.075 -0.5232 -2.4822 -0.0710
 7095TIP3    H221250   5.523   3.060   0.206  0.7964 -2.4724 -0.5147
 7096TIP3   OH221251   6.803   0.091   3.591 -0.0681  0.1814  0.0787
 7096TIP3    H121252   6.817   0.143   3.670  0.0486  1.1025 -0.5393
 7096TIP3    H221253   6.710   0.102   3.571  0.4554  2.3986 -1.5559
 7097TIP3   OH221254   6.912   4.418   0.329  0.1344  0.2077  0.1164
 7097TIP3    H121255   6.851   4.481   0.368 -0.6889  0.8700 -2.0959
 7097TIP3    H221256   6.883   4.333   0.364 -0.2478  0.7809  1.2760
 7098TIP3   OH221257   4.855   5.363   1.986 -0.4037  0.4560 -0.1624
 7098TIP3    H121258   4.822   5.275   1.968 -0.5833  0.6455 -0.7711
 7098TIP3    H221259   4.943   5.349   2.023 -0.1689  0.0499 -0.8717
 7099TIP3   OH221260   5.243   3.864   3.353 -0.2106  0.3566  0.0156
 7099TIP3    H121261   5.197   3.871   3.269  0.3307  0.1918 -0.2985
 7099TIP3    H221262   5.194   3.921   3.412 -1.4835 -0.6578 -0.0101
 7100TIP3   OH221263   1.637   3.541   1.154  0.3738  0.7327  0.0360
 7100TIP3    H121264   1.646   3.484   1.231  2.4311  1.2544  0.2547
 7100TIP3    H221265   1.543   3.545   1.138  0.0207 -1.0338  1.2788
 7101TIP3   OH221266   6.115   1.947   0.250  0.3013 -0.0609  0.3422
 7101TIP3    H121267   6.159   1.967   0.333  1.0842 -0.3176 -0.0044
 7101TIP3    H221268   6.140   1.857   0.231 -1.2414 -0.5875  0.6633
 7102TIP3   OH221269   2.133   0.733   3.983 -0.0609 -0.1468 -0.0690
 7102TIP3    H121270   2.121   0.668   3.914  0.4438  0.2584 -0.5576
 7102TIP3    H221271   2.046   0.750   4.017 -0.1541 -1.3657  0.3403
 7103TIP3   OH221272   0.187   5.996   4.016 -0.4978  0.7697  0.6163
 7103TIP3    H121273   0.158   6.080   4.052 -0.0240  0.0658  2.8135
 7103TIP3    H221274   0.182   5.936   4.091  0.6818 -0.7935 -0.5063
 7104TIP3   OH221275   5.684   2.147   1.557 -0.4901  0.2203  0.3496
 7104TIP3    H121276   5.648   2.060   1.539  0.1899 -0.3098  1.4905
 7104TIP3    H221277   5.640   2.175   1.637  0.3726  0.2914  0.8059
 7105TIP3   OH221278   5.506   1.840   2.152  0.4401  0.2826  0.3384
 7105TIP3    H121279   5.580   1.779   2.143  0.9855  0.8798  0.6750
 7105TIP3    H221280   5.495   1.878   2.065  0.4421  0.0936  0.2548
 7106TIP3   OH221281   0.516   6.734   5.736  0.1719  0.1207  0.6639
 7106TIP3    H121282   0.518   6.827   5.758  1.5556 -0.1327  1.7943
 7106TIP3    H221283   0.505   6.732   5.641  0.2872  1.4434  0.6012
 7107TIP3   OH221284   4.409   5.121   4.276 -0.2052 -0.3560  0.1055
 7107TIP3    H121285   4.469   5.073   4.221  2.3983  1.6831  0.9570
 7107TIP3    H221286   4.426   5.090   4.365  1.4909  1.9095  0.6648
 7108TIP3   OH221287   2.083   4.091   1.169  0.3323  0.4911 -0.2331
 7108TIP3    H121288   2.044   4.174   1.139  2.7203  1.2322 -1.6283
 7108TIP3    H221289   2.052   4.026   1.106 -1.1388  0.3911  0.5597
 7109TIP3   OH221290   2.854   6.274   0.557  0.0817 -0.0760 -0.2569
 7109TIP3    H121291   2.868   6.236   0.644 -1.1908 -1.1400 -0.4814
 7109TIP3    H221292   2.936   6.257   0.510  1.1302  1.2811  0.9500
 7110TIP3   OH221293   4.767   1.438   2.606 -0.2882 -0.0764  0.2570
 7110TIP3    H121294   4.808   1.368   2.556  0.7362 -0.9750  2.2346
 7110TIP3    H221295   4.840   1.488   2.642 -0.9368  0.0557  1.4706
 7111TIP3   OH221296   0.867   1.346   2.708 -0.5996  0.7035 -0.6427
 7111TIP3    H121297   0.936   1.280   2.708  0.5364  1.8106  0.5526
 7111TIP3    H221298   0.818   1.331   2.628 -0.1839 -1.3565 -0.5529
 7112TIP3   OH221299   5.155   0.059   5.485 -0.1318 -0.0200  0.0924
 7112TIP3    H121300   5.175   0.145   5.521 -2.6575  1.2713 -1.3525
 7112TIP3    H221301   5.128   0.007   5.561  0.7648  0.6323  0.8868
 7113TIP3   OH221302   2.719   6.238   2.173  0.1640 -0.1681  0.2269
 7113TIP3    H121303   2.774   6.173   2.128  0.3619 -1.5189  2.2848
 7113TIP3    H221304   2.643   6.248   2.116  0.6487 -1.3595 -0.6843
 7114TIP3   OH221305   0.697   0.171   3.072  0.0059  0.1928  0.4814
 7114TIP3    H121306   0.764   0.141   3.010  1.3744  2.1930  0.8879
 7114TIP3    H221307   0.628   0.207   3.016  0.1876 -0.0531  0.0853
 7115TIP3   OH221308   4.783   5.357   3.860 -0.3861  0.4360 -0.2731
 7115TIP3    H121309   4.712   5.420   3.875 -0.8723 -0.3705  1.0155
 7115TIP3    H221310   4.843   5.371   3.933 -1.2312 -1.5187  0.8916
 7116TIP3   OH221311   4.199   0.785   0.334 -0.0671  1.0337 -0.6446
 7116TIP3    H121312   4.288   0.817   0.318 -0.3254  2.0676 -0.0944
 7116TIP3    H221313   4.207   0.690   0.330  1.3884  1.0377  1.0076
 7117TIP3   OH221314   2.720   5.436   3.772  0.8946  0.7583  0.4458
 7117TIP3    H121315   2.681   5.456   3.857  1.0879  0.7604  0.5338
 7117TIP3    H221316   2.660   5.373   3.732  0.1757  1.6448  0.0844
 7118TIP3   OH221317   6.830   5.741   5.622 -1.0106  0.0687  0.3602
 7118TIP3    H121318   6.908   5.715   5.671 -0.8830  1.8958  1.1995
 7118TIP3    H221319   6.862   5.754   5.532 -0.8549 -1.4097  0.1739
 7119TIP3   OH221320   1.092   6.247   1.065 -0.2549 -0.0479  0.1668
 7119TIP3    H121321   1.124   6.156   1.068 -1.1812 -0.4399 -0.9662
 7119TIP3    H221322   1.145   6.288   0.997 -2.0697 -0.7092 -1.7433
 7120TIP3   OH221323   3.341   0.615   3.419  0.1459 -0.0292  0.0866
 7120TIP3    H121324   3.376   0.595   3.332 -1.1938 -1.5770 -0.1506
 7120TIP3    H221325   3.305   0.532   3.450  0.2834  0.5833  1.9811
 7121TIP3   OH221326   0.781   0.470   4.085  0.4819  0.2107  0.0565
 7121TIP3    H121327   0.740   0.419   4.015  0.4682 -0.3485  0.4684
 7121TIP3    H221328   0.752   0.560   4.069 -1.9792 -0.3183  1.0451
 7122TIP3   OH221329   1.532   0.512   3.501  0.5047  0.4884 -0.3943
 7122TIP3    H121330   1.460   0.575   3.494 -0.2024 -0.1951  0.4078
 7122TIP3    H221331   1.550   0.508   3.595 -0.0828 -1.1624 -0.3234
 7123TIP3   OH221332   5.155   1.560   1.514 -0.3693 -0.5595 -0.5808
 7123TIP3    H121333   5.095   1.509   1.568  0.6856 -0.6226  0.5941
 7123TIP3    H221334   5.239   1.515   1.523 -0.4330 -1.4703 -3.5407
 7124TIP3   OH221335   0.477   2.479   5.650  0.0737 -0.4164  0.3557
 7124TIP3    H121336   0.491   2.539   5.724 -3.2135 -1.3542  1.9394
 7124TIP3    H221337   0.529   2.402   5.671 -0.4920 -0.5005  1.5245
 7125TIP3   OH221338   4.029   1.900   1.050  0.0324  0.3427  0.4339
 7125TIP3    H121339   3.940   1.901   1.086 -0.3036 -0.0842 -0.3631
 7125TIP3    H221340   4.036   1.816   1.004  0.8205  0.4105  0.4099
 7126TIP3   OH221341   5.604   4.280   3.143  0.1527 -0.6148  0.2742
 7126TIP3    H121342   5.533   4.241   3.091  0.8192 -0.7590 -0.5457
 7126TIP3    H221343   5.575   4.370   3.159 -0.1439 -0.6252 -0.1919
 7127TIP3   OH221344   5.729   5.703   0.312  0.2979 -0.0849  0.1874
 7127TIP3    H121345   5.761   5.627   0.264  2.1391  0.8085 -0.1069
 7127TIP3    H221346   5.794   5.771   0.295 -0.8123  1.2955  1.1712
 7128TIP3   OH221347   2.706   0.562   0.516 -0.2500 -0.5468  0.5027
 7128TIP3    H121348   2.615   0.549   0.490 -0.0902  0.6527 -0.7717
 7128TIP3    H221349   2.756   0.542   0.437  0.5520 -0.4842  0.9844
 7129TIP3   OH221350   6.975   3.841   3.573  0.1581  0.2771  0.1002
 7129TIP3    H121351   6.887   3.844   3.538  0.0361 -1.4855  0.1769
 7129TIP3    H221352   7.032   3.839   3.496  0.0346 -0.3956  0.0193
 7130TIP3   OH221353   6.583   1.781   3.941  0.0961 -0.5724 -0.3524
 7130TIP3    H121354   6.566   1.871   3.969  0.1028 -0.9511  0.9156
 7130TIP3    H221355   6.666   1.786   3.894 -0.0612  0.1350 -0.5698
 7131TIP3   OH221356   2.680   3.931   1.870 -0.3799 -0.2527 -0.1549
 7131TIP3    H121357   2.625   3.953   1.945  0.9935  0.2449  0.7366
 7131TIP3    H221358   2.661   3.998   1.805  0.3286  0.8436  0.7505
 7132TIP3   OH221359   1.481   1.963   3.078  0.4275  0.2344  0.5597
 7132TIP3    H121360   1.481   2.058   3.073  0.7201  0.2950  1.4814
 7132TIP3    H221361   1.391   1.938   3.058 -0.0129  0.8121  1.7070
 7133TIP3   OH221362   6.618   4.168   0.975  0.4463  0.1158 -0.1687
 7133TIP3    H121363   6.646   4.225   0.903  2.6273  0.2527  0.6977
 7133TIP3    H221364   6.668   4.087   0.962 -0.0561 -0.3169  0.5200
 7134TIP3   OH221365   0.624   4.362   1.953 -0.5804 -0.2665 -0.4362
 7134TIP3    H121366   0.653   4.380   2.043 -0.0132 -0.2858 -0.6114
 7134TIP3    H221367   0.530   4.347   1.961 -0.5765 -0.0236  0.1208
 7135TIP3   OH221368   1.425   4.476   3.095 -0.1300  0.7779  0.0058
 7135TIP3    H121369   1.494   4.415   3.118 -0.9423  0.3176  1.3231
 7135TIP3    H221370   1.469   4.561   3.087  0.8240  0.2258 -0.7482
 7136TIP3   OH221371   7.153   1.072   5.801 -0.5748  0.1238 -0.0197
 7136TIP3    H121372   7.186   1.134   5.735 -1.3256 -0.1600 -0.6719
 7136TIP3    H221373   7.079   1.118   5.842 -1.1167 -0.3186 -0.4873
 7137TIP3   OH221374   6.225   0.999   5.668  0.4388  0.1409  0.5000
 7137TIP3    H121375   6.200   1.091   5.670  0.3418  0.1282 -0.0524
 7137TIP3    H221376   6.311   0.998   5.627 -0.3717 -0.1798 -1.2791
 7138TIP3   OH221377   2.067   3.901   0.424  0.8629  0.6468  0.3009
 7138TIP3    H121378   1.993   3.960   0.436  0.8456  1.2224 -2.1395
 7138TIP3    H221379   2.031   3.813   0.434  0.0648  0.9580  0.1770
 7139TIP3   OH221380   4.104   0.988   3.857  0.3058 -0.1722 -0.0517
 7139TIP3    H121381   4.010   0.976   3.845  0.1741 -0.2544  0.9931
 7139TIP3    H221382   4.112   1.035   3.940  1.2058 -0.7885  0.2293
 7140TIP3   OH221383   1.158   0.635   3.259 -0.2153 -0.0952 -0.2787
 7140TIP3    H121384   1.247   0.617   3.288 -0.1312  0.5919 -0.0945
 7140TIP3    H221385   1.116   0.549   3.254  0.9061 -0.5844 -1.8685
 7141TIP3   OH221386   5.641   4.701   4.648  0.0917  0.3282 -0.0939
 7141TIP3    H121387   5.700   4.642   4.695 -0.5038 -0.1873  0.0210
 7141TIP3    H221388   5.592   4.747   4.717  1.3116  1.7913 -0.1438
 7142TIP3   OH221389   1.254   4.088   4.703  0.5124  0.0152  0.1396
 7142TIP3    H121390   1.344   4.122   4.706  0.2456  0.6825  1.0480
 7142TIP3    H221391   1.203   4.158   4.663  0.1220  0.3361  1.1553
 7143TIP3   OH221392   1.030   2.174   1.727  0.7880 -0.1858  0.0279
 7143TIP3    H121393   1.057   2.203   1.640  1.7998  0.6334  0.5868
 7143TIP3    H221394   1.044   2.251   1.783  0.7525 -0.8830  1.0272
 7144TIP3   OH221395   6.779   6.720   1.722  0.2091  0.2350  0.0672
 7144TIP3    H121396   6.799   6.800   1.674  2.6690 -0.7587 -0.7626
 7144TIP3    H221397   6.829   6.726   1.803 -2.3446  1.0040  1.6796
 7145TIP3   OH221398   6.691   2.622   1.974 -0.2070 -0.2957  0.5754
 7145TIP3    H121399   6.621   2.631   2.039  0.3826  0.5581  1.1085
 7145TIP3    H221400   6.767   2.663   2.015 -0.1410  1.4686 -1.1755
 7146TIP3   OH221401   5.625   6.139   2.650  0.2849  0.5743  0.0136
 7146TIP3    H121402   5.620   6.234   2.636  0.6962  0.3774 -1.6822
 7146TIP3    H221403   5.696   6.110   2.593 -0.1294 -0.8187  0.1668
 7147TIP3   OH221404   6.079   2.014   0.781 -0.5256 -0.5042  0.1926
 7147TIP3    H121405   6.030   1.992   0.860  0.1712 -0.2576  0.7108
 7147TIP3    H221406   6.036   1.965   0.711 -1.0891 -0.8076  0.7414
 7148TIP3   OH221407   2.478   5.087   5.406 -0.1251  0.2295 -0.0178
 7148TIP3    H121408   2.507   5.048   5.489  0.6527 -1.2291 -0.9272
 7148TIP3    H221409   2.535   5.047   5.340  0.4188  2.6477 -1.0958
 7149TIP3   OH221410   6.172   3.586   4.524 -0.0191  0.4423 -0.0608
 7149TIP3    H121411   6.252   3.597   4.575 -0.3292 -0.1380  0.5741
 7149TIP3    H221412   6.105   3.565   4.590 -0.6804  0.8873 -0.5863
 7150TIP3   OH221413   4.976   0.827   1.501 -0.3743 -0.1770 -0.3529
 7150TIP3    H121414   4.906   0.813   1.436 -1.8773 -2.3007  1.5528
 7150TIP3    H221415   4.954   0.767   1.572  1.2729  1.9267  2.0895
 7151TIP3   OH221416   6.497   6.247   4.379  0.0022 -0.3110 -0.0954
 7151TIP3    H121417   6.587   6.252   4.413  0.7288 -0.1372 -1.9301
 7151TIP3    H221418   6.493   6.315   4.311 -2.0893  0.8982  1.1097
 7152TIP3   OH221419   6.477   2.165   1.456 -0.3606 -0.4666 -0.3105
 7152TIP3    H121420   6.384   2.177   1.437 -0.5956 -0.0412  1.0063
 7152TIP3    H221421   6.479   2.101   1.527  0.2753  0.4013  0.4796
 7153TIP3   OH221422   4.287   0.595   4.024  0.2049 -0.0111  0.1383
 7153TIP3    H121423   4.311   0.683   3.998  0.3268 -0.0978 -0.0439
 7153TIP3    H221424   4.266   0.550   3.942 -0.0035 -0.1075  0.2431
 7154TIP3   OH221425   5.772   6.552   1.546  0.0836  0.0496  0.0802
 7154TIP3    H121426   5.696   6.497   1.565  0.4060 -0.4674 -0.1002
 7154TIP3    H221427   5.826   6.498   1.488  1.2930 -0.1753  1.3657
 7155TIP3   OH221428   0.552   6.061   4.076 -0.3408  0.4991  0.0602
 7155TIP3    H121429   0.557   6.026   4.164 -3.9191 -0.4527  0.0557
 7155TIP3    H221430   0.555   6.156   4.087  0.9400  0.3765  0.9649
 7156TIP3   OH221431   1.261   6.675   1.004 -0.1480  0.2616 -0.6276
 7156TIP3    H121432   1.255   6.700   1.097 -0.8580 -0.3932 -0.4780
 7156TIP3    H221433   1.353   6.651   0.991  0.5604  2.8589 -0.7852
 7157TIP3   OH221434   2.512   4.121   2.318 -0.8916 -0.0115 -0.3089
 7157TIP3    H121435   2.436   4.167   2.354 -0.5999  0.4816 -0.3112
 7157TIP3    H221436   2.532   4.054   2.383  1.0712  2.3516  1.7161
 7158TIP3   OH221437   6.488   3.875   4.423  0.0148  0.1982 -0.3046
 7158TIP3    H121438   6.536   3.941   4.472  1.6480 -0.1213 -1.3823
 7158TIP3    H221439   6.550   3.847   4.355 -0.6045 -2.4251  0.1184
 7159TIP3   OH221440   5.194   3.583   3.349  0.3958  0.3053  0.3368
 7159TIP3    H121441   5.224   3.673   3.342  1.0990 -0.0266 -1.3103
 7159TIP3    H221442   5.101   3.590   3.370  0.5704  1.3861  0.8221
 7160TIP3   OH221443   3.934   5.781   0.579 -0.4895  0.0190  0.0078
 7160TIP3    H121444   3.941   5.733   0.661 -1.1013 -1.1714 -0.6069
 7160TIP3    H221445   3.840   5.797   0.569 -0.3858  0.4311 -0.3004
 7161TIP3   OH221446   3.441   0.234   1.935 -0.4693 -0.4860  0.0175
 7161TIP3    H121447   3.531   0.263   1.928 -0.4017 -0.6676  0.1258
 7161TIP3    H221448   3.411   0.268   2.020  0.1335 -2.1447  0.9276
 7162TIP3   OH221449   1.784   0.337   3.928 -0.3366 -0.9673 -0.0364
 7162TIP3    H121450   1.698   0.379   3.934 -0.5409 -1.2942 -0.6011
 7162TIP3    H221451   1.832   0.369   4.004 -0.7303 -0.2569 -0.0791
 7163TIP3   OH221452   1.994   4.915   2.176  0.0466  0.1822 -0.2776
 7163TIP3    H121453   2.059   4.979   2.206  0.2897 -0.8810  1.6862
 7163TIP3    H221454   1.922   4.923   2.240 -0.7437 -0.2369 -1.0937
 7164TIP3   OH221455   6.196   2.319   5.603 -0.4558 -0.1059 -0.1801
 7164TIP3    H121456   6.127   2.302   5.668  1.3972 -0.3995  1.8446
 7164TIP3    H221457   6.235   2.233   5.587 -0.6633  0.0209 -1.4753
 7165TIP3   OH221458   4.093   2.982   1.118  0.2503  0.0840  0.1207
 7165TIP3    H121459   4.125   2.905   1.071  1.0552 -0.1828  1.0702
 7165TIP3    H221460   4.170   3.038   1.128  0.2551 -0.1513  1.6464
 7166TIP3   OH221461   0.249   0.994   0.284 -0.2224  0.1749  0.4515
 7166TIP3    H121462   0.165   1.027   0.315 -1.0601 -1.4738  0.0894
 7166TIP3    H221463   0.233   0.971   0.192  0.3872 -0.8970  0.5955
 7167TIP3   OH221464   5.006   5.940   4.289  0.2567  0.0587  0.7133
 7167TIP3    H121465   5.025   6.011   4.227  1.3084  0.3218  1.3174
 7167TIP3    H221466   4.929   5.898   4.253  0.4385  0.6425 -0.4176
 7168TIP3   OH221467   5.468   4.843   0.585  0.6541 -0.6397  0.0433
 7168TIP3    H121468   5.446   4.750   0.576 -0.0593 -0.3400 -1.6980
 7168TIP3    H221469   5.532   4.859   0.516 -0.3159  0.4632 -0.6453
 7169TIP3   OH221470   5.056   0.084   1.460 -0.2095 -0.1035 -0.2736
 7169TIP3    H121471   5.078   0.001   1.418  2.5982  0.4308 -0.0286
 7169TIP3    H221472   4.975   0.112   1.416 -0.8231 -2.5460 -0.8788
 7170TIP3   OH221473   7.166   6.596   1.763  0.4032 -0.0113 -0.1773
 7170TIP3    H121474   7.163   6.587   1.668 -0.5583  0.1373 -0.1758
 7170TIP3    H221475   7.244   6.648   1.780  0.4359  0.1926 -0.9105
 7171TIP3   OH221476   5.828   5.848   2.189 -0.3866 -0.0416  0.1101
 7171TIP3    H121477   5.830   5.778   2.255 -3.3574 -1.7544 -1.3914
 7171TIP3    H221478   5.840   5.802   2.105  2.0586  1.9162 -0.7312
 7172TIP3   OH221479   3.723   1.863   0.086  0.5678 -0.3070 -0.5072
 7172TIP3    H121480   3.688   1.952   0.087  1.9940  0.2819  0.1488
 7172TIP3    H221481   3.653   1.810   0.048 -0.0105  1.2132 -1.6809
 7173TIP3   OH221482   0.790   3.951   1.218  0.5410 -0.1776 -0.1984
 7173TIP3    H121483   0.827   3.952   1.130  1.0236  0.6377  0.0062
 7173TIP3    H221484   0.803   3.861   1.248  1.3143 -0.1997 -0.5671
 7174TIP3   OH221485   3.477   1.099   5.182 -0.2610  0.0702  0.0263
 7174TIP3    H121486   3.410   1.168   5.182 -0.9022 -0.5024  1.5290
 7174TIP3    H221487   3.447   1.037   5.116  0.1895  1.0696 -1.1631
 7175TIP3   OH221488   0.609   0.927   1.985 -0.0772 -0.2775  0.3427
 7175TIP3    H121489   0.618   0.841   2.025 -1.5343 -1.7380 -2.2276
 7175TIP3    H221490   0.672   0.927   1.913 -0.8236  0.3868 -0.3287
 7176TIP3   OH221491   2.309   3.049   2.038  0.4177  0.3257 -0.3453
 7176TIP3    H121492   2.251   3.023   1.966  0.5868 -0.4677 -0.1993
 7176TIP3    H221493   2.257   3.034   2.117  1.0540 -1.0762 -0.1712
 7177TIP3   OH221494   3.698   5.425   0.456 -0.3310  0.3603 -0.0674
 7177TIP3    H121495   3.738   5.366   0.520 -1.7823  0.4692  0.9683
 7177TIP3    H221496   3.769   5.485   0.431  0.3565  0.0723  1.1338
 7178TIP3   OH221497   3.846   6.030   4.182 -0.1542  0.1505 -0.1399
 7178TIP3    H121498   3.826   5.974   4.107  1.4247 -3.7864  2.0427
 7178TIP3    H221499   3.779   6.007   4.247 -1.0601  2.9080 -0.0014
 7179TIP3   OH221500   0.701   1.142   0.449  0.3071 -0.2264  0.4281
 7179TIP3    H121501   0.624   1.084   0.452  1.2197 -1.4491  0.8253
 7179TIP3    H221502   0.682   1.202   0.378 -0.0139 -1.9747 -1.0382
 7180TIP3   OH221503   2.794   4.951   2.045  0.0466 -0.1683  0.1517
 7180TIP3    H121504   2.832   4.867   2.070  0.3964  0.1490  0.7237
 7180TIP3    H221505   2.787   4.947   1.950 -0.3779 -1.0207  0.2172
 7181TIP3   OH221506   6.756   4.119   0.658  0.5240 -0.2356  0.0378
 7181TIP3    H121507   6.738   4.058   0.731  0.5654 -1.2061 -0.7387
 7181TIP3    H221508   6.755   4.205   0.699 -0.9974 -0.6283  0.9367
 7182TIP3   OH221509   7.047   4.240   4.958  0.1041 -0.1353 -0.1071
 7182TIP3    H121510   7.012   4.210   5.042  1.0094 -0.3557  0.2129
 7182TIP3    H221511   6.981   4.300   4.924  0.8897  2.1557  2.0987
 7183TIP3   OH221512   6.298   2.972   4.429 -0.2804 -0.4338  0.0344
 7183TIP3    H121513   6.223   2.940   4.378 -0.4036 -1.1528  0.6375
 7183TIP3    H221514   6.370   2.976   4.367 -0.5688 -0.7403 -0.3235
 7184TIP3   OH221515   1.406   4.177   0.204  0.0234  0.7178 -0.0665
 7184TIP3    H121516   1.409   4.201   0.297  1.7431  1.2422 -0.2219
 7184TIP3    H221517   1.369   4.254   0.161 -0.1963  0.7145  0.1175
 7185TIP3   OH221518   2.872   4.170   2.235  0.2050 -0.1862  0.4089
 7185TIP3    H121519   2.788   4.143   2.272 -0.7368  0.7542 -0.9582
 7185TIP3    H221520   2.857   4.261   2.206  1.6929 -0.0002  0.1610
 7186TIP3   OH221521   1.405   4.239   3.373  0.5798  0.2197 -0.1220
 7186TIP3    H121522   1.486   4.282   3.402  1.0241  0.3951 -1.5465
 7186TIP3    H221523   1.402   4.157   3.422  1.2073  0.5724  0.5246
 7187TIP3   OH221524   4.073   1.548   5.035  0.0851  0.7770 -0.8298
 7187TIP3    H121525   4.160   1.584   5.019 -0.0779  2.3162  1.2581
 7187TIP3    H221526   4.088   1.455   5.052  1.3966  1.1084 -0.0600
 7188TIP3   OH221527   6.802   6.281   0.837 -0.2555  0.0705 -0.6167
 7188TIP3    H121528   6.767   6.194   0.856  2.4953 -1.8559 -3.3552
 7188TIP3    H221529   6.884   6.284   0.886  0.8296  0.0275 -2.3227
 7189TIP3   OH221530   4.069   5.441   5.050 -0.0287 -0.3892 -0.8235
 7189TIP3    H121531   4.009   5.486   4.990 -0.7828 -0.0052  0.1751
 7189TIP3    H221532   4.017   5.429   5.130  0.6970 -1.5802 -0.5074
 7190TIP3   OH221533   2.660   1.896   3.020 -0.1789  0.4664 -0.2440
 7190TIP3    H121534   2.679   1.983   2.985  2.0721  0.2593  0.3287
 7190TIP3    H221535   2.674   1.904   3.114 -1.3038 -0.2095  0.0011
 7191TIP3   OH221536   4.455   6.262   2.971  0.2020  0.4301  0.1570
 7191TIP3    H121537   4.520   6.245   3.040  1.1610  0.3360 -0.7522
 7191TIP3    H221538   4.412   6.178   2.957  2.0729 -0.3442 -1.4146
 7192TIP3   OH221539   3.674   0.637   4.866 -0.3514 -0.2635 -0.4545
 7192TIP3    H121540   3.748   0.592   4.907 -0.8319  0.1563  0.9221
 7192TIP3    H221541   3.610   0.647   4.936 -0.8734  1.2261 -1.1028
 7193TIP3   OH221542   6.883   6.697   3.149 -0.8408  0.3789  0.7442
 7193TIP3    H121543   6.862   6.623   3.092 -1.1711  0.8877  0.1834
 7193TIP3    H221544   6.810   6.702   3.210 -1.4815  1.0423 -0.0588
 7194TIP3   OH221545   6.620   1.736   5.487  0.0224  0.2235 -0.4798
 7194TIP3    H121546   6.645   1.697   5.571 -0.2524 -0.6023 -0.7722
 7194TIP3    H221547   6.690   1.711   5.427 -1.4693 -2.1930 -1.3293
 7195TIP3   OH221548   5.412   1.106   4.124  0.2361  0.4148 -0.1363
 7195TIP3    H121549   5.331   1.076   4.083 -1.0516  2.0865  1.0710
 7195TIP3    H221550   5.436   1.185   4.075  1.9010 -0.7499 -1.3114
 7196TIP3   OH221551   3.371   6.018   3.772 -0.1247  0.4019 -0.0733
 7196TIP3    H121552   3.381   6.008   3.867  2.9078 -1.6439 -0.4524
 7196TIP3    H221553   3.329   5.937   3.744 -2.1334  1.5171 -0.4182
 7197TIP3   OH221554   0.470   1.172   5.547  0.0523 -0.5547 -0.3559
 7197TIP3    H121555   0.511   1.104   5.599  0.2716 -0.7578 -0.7835
 7197TIP3    H221556   0.401   1.127   5.499  0.4307 -0.5611 -0.9139
 7198TIP3   OH221557   4.193   4.809   2.093 -0.1089 -0.7337  0.2417
 7198TIP3    H121558   4.205   4.759   2.012 -2.0665 -1.1503  0.1637
 7198TIP3    H221559   4.107   4.783   2.125 -0.4635  1.3035  1.1169
 7199TIP3   OH221560   6.527   0.110   5.368 -0.0473  0.3805 -0.2373
 7199TIP3    H121561   6.479   0.090   5.449 -0.5108 -0.4904 -0.7168
 7199TIP3    H221562   6.522   0.206   5.361  0.4037  0.5117  0.9991
 7200TIP3   OH221563   5.918   5.433   5.464 -0.0608 -0.2027 -0.0403
 7200TIP3    H121564   5.844   5.411   5.408  0.0749 -0.0630 -0.2759
 7200TIP3    H221565   5.982   5.365   5.446 -0.1401 -0.3349  0.1791
 7201TIP3   OH221566   1.326   2.502   0.013 -0.1431  0.0137  0.2984
 7201TIP3    H121567   1.327   2.589  -0.027  0.5987  0.3538  1.0427
 7201TIP3    H221568   1.282   2.514   0.097  0.1481 -0.2879  0.4974
 7202TIP3   OH221569   4.286   5.857   5.017 -0.1950  0.1071  0.2681
 7202TIP3    H121570   4.235   5.852   5.098 -1.8112  0.1168 -0.6951
 7202TIP3    H221571   4.243   5.925   4.966  0.8230  0.1277 -0.5944
 7203TIP3   OH221572   0.774   0.087   5.189 -0.1341  0.3692  0.1547
 7203TIP3    H121573   0.745   0.178   5.181 -1.9409 -0.2104 -0.4913
 7203TIP3    H221574   0.706   0.045   5.242  0.3501 -0.7268 -0.0663
 7204TIP3   OH221575   5.817   6.640   5.677 -0.7081 -0.0663 -0.0969
 7204TIP3    H121576   5.821   6.612   5.768  1.6786 -1.9545 -0.6745
 7204TIP3    H221577   5.791   6.562   5.628 -2.8940  1.1409 -1.0388
 7205TIP3   OH221578   6.663   4.864   4.104  0.0103  0.5692 -0.2117
 7205TIP3    H121579   6.570   4.843   4.113 -0.1128  0.3181 -1.6999
 7205TIP3    H221580   6.709   4.787   4.138 -0.3584  0.1012 -0.7477
 7206TIP3   OH221581   5.317   1.086   3.682  0.0475  0.5047 -0.0979
 7206TIP3    H121582   5.358   1.064   3.766 -0.1067 -2.2034 -0.6323
 7206TIP3    H221583   5.225   1.103   3.704 -0.3966 -1.8804  0.1764
 7207TIP3   OH221584   4.137   5.857   0.415  0.5654 -0.0843 -0.3322
 7207TIP3    H121585   4.063   5.831   0.469  1.1463  0.8575  0.9506
 7207TIP3    H221586   4.098   5.878   0.330 -1.3258  4.0406  1.2854
 7208TIP3   OH221587   0.527   5.964   5.240  0.6056  0.3058 -0.3434
 7208TIP3    H121588   0.491   6.015   5.167 -1.7353 -0.4311  0.2355
 7208TIP3    H221589   0.454   5.955   5.302  1.6449 -1.7116  0.6760
 7209TIP3   OH221590   2.697   6.477   0.679 -0.5157 -0.4069  0.0765
 7209TIP3    H121591   2.666   6.402   0.628 -1.3416 -0.7877  1.1065
 7209TIP3    H221592   2.754   6.524   0.619  0.7383 -2.3345 -0.3271
 7210TIP3   OH221593   6.635   6.000   4.355 -0.1521 -0.0417 -0.3242
 7210TIP3    H121594   6.623   6.091   4.382  0.4655  0.8271 -2.7163
 7210TIP3    H221595   6.647   6.005   4.260 -2.4104 -2.8335 -0.8857
 7211TIP3   OH221596   6.486   5.605   4.655 -0.1536  0.5882  0.1710
 7211TIP3    H121597   6.564   5.574   4.701 -0.6981 -0.0947  0.6703
 7211TIP3    H221598   6.518   5.669   4.592  0.8321  0.1646  0.2278
 7212TIP3   OH221599   5.235   3.175   2.739 -0.4245  0.2454 -0.2378
 7212TIP3    H121600   5.154   3.126   2.756 -1.0311  0.7752 -1.4615
 7212TIP3    H221601   5.207   3.266   2.734  0.7259  0.8306  2.2429
 7213TIP3   OH221602   4.536   6.276   5.717  0.0806  0.0106 -0.2636
 7213TIP3    H121603   4.476   6.308   5.784  2.4911  0.0346  2.0139
 7213TIP3    H221604   4.550   6.352   5.659 -0.3859  0.6364  0.4250
 7214TIP3   OH221605   0.818   5.097   1.455  0.4103 -0.2919 -0.6338
 7214TIP3    H121606   0.763   5.020   1.441 -1.4088  0.6663  0.8267
 7214TIP3    H221607   0.781   5.164   1.397 -0.7968  0.7001  1.1814
 7215TIP3   OH221608   4.528   3.050   4.495 -0.1350  1.0103  0.7033
 7215TIP3    H121609   4.520   2.956   4.481  0.1164  1.1396 -0.3904
 7215TIP3    H221610   4.447   3.074   4.540 -0.4375  0.3606  0.5209
 7216TIP3   OH221611   4.310   6.382   3.320  0.6959 -0.0173 -0.0969
 7216TIP3    H121612   4.382   6.439   3.348  0.4483  1.1766 -1.7208
 7216TIP3    H221613   4.251   6.440   3.271 -1.3079 -0.9945  1.0208
 7217TIP3   OH221614   4.001   3.054   4.279 -0.0305  0.6586 -0.0331
 7217TIP3    H121615   3.955   2.999   4.215 -0.8047  1.0246  0.1881
 7217TIP3    H221616   4.088   3.066   4.242  0.1269 -0.6449 -0.1178
 7218TIP3   OH221617   0.361   3.711   5.787  0.5317 -0.1636  0.3719
 7218TIP3    H121618   0.271   3.683   5.805  1.2459 -2.2927  1.0023
 7218TIP3    H221619   0.402   3.635   5.746  1.9219  0.9393 -0.3637
 7219TIP3   OH221620   2.146   4.243   0.590  0.0932  0.0100  0.4433
 7219TIP3    H121621   2.240   4.253   0.572 -0.2686  1.7977 -0.7547
 7219TIP3    H221622   2.142   4.205   0.677  1.9413 -0.9197  0.1674
 7220TIP3   OH221623   0.501   2.814   1.775 -0.4426  0.2122  0.4463
 7220TIP3    H121624   0.597   2.822   1.780 -0.5117  0.8368  0.9578
 7220TIP3    H221625   0.472   2.897   1.738 -0.6918 -0.5638 -1.1797
 7221TIP3   OH221626   0.488   0.995   2.694  0.0469  0.0199 -0.0641
 7221TIP3    H121627   0.397   0.966   2.705  0.1463 -0.0239  0.6946
 7221TIP3    H221628   0.487   1.046   2.612 -0.9658  1.1660  0.6257
 7222TIP3   OH221629   0.129   4.827   2.795 -0.4870 -0.5909  0.0781
 7222TIP3    H121630   0.039   4.812   2.768  0.0603  0.1664 -2.5764
 7222TIP3    H221631   0.136   4.923   2.800 -0.3656 -0.6646  2.6136
 7223TIP3   OH221632   0.170   3.462   3.414  0.7030 -0.2480  0.2361
 7223TIP3    H121633   0.191   3.486   3.505  0.9124  0.6683 -0.0424
 7223TIP3    H221634   0.080   3.490   3.402  0.7595 -0.1318  0.0840
 7224TIP3   OH221635   5.459   3.084   5.489 -0.1284  0.1106 -0.0840
 7224TIP3    H121636   5.454   3.176   5.513 -1.5502 -0.3950  1.8300
 7224TIP3    H221637   5.378   3.067   5.441  0.4610 -0.0227 -1.0815
 7225TIP3   OH221638   5.304   1.471   1.066  0.1002  0.4449  0.6082
 7225TIP3    H121639   5.251   1.412   1.119 -0.9652  1.3886  0.6441
 7225TIP3    H221640   5.340   1.533   1.129  1.5061 -0.3468  0.6193
 7226TIP3   OH221641   4.709   5.477   1.363  0.0881  0.1162 -0.2156
 7226TIP3    H121642   4.756   5.432   1.433 -1.9022  0.0516  1.1644
 7226TIP3    H221643   4.665   5.551   1.406 -1.7403 -0.3128 -1.2049
 7227TIP3   OH221644   6.163   3.177   0.085  0.1135  0.4168  0.1435
 7227TIP3    H121645   6.204   3.100   0.125 -0.8236 -0.0164  0.2964
 7227TIP3    H221646   6.165   3.159  -0.009  0.7095  0.6171  0.1187
 7228TIP3   OH221647   4.021   3.650   0.340  0.0133 -0.3145  0.2357
 7228TIP3    H121648   3.988   3.725   0.290 -0.9153  0.8601  2.4894
 7228TIP3    H221649   4.091   3.614   0.285 -0.6866  1.1153 -1.7109
 7229TIP3   OH221650   5.600   3.544   0.817 -0.0970  0.6308 -0.2095
 7229TIP3    H121651   5.509   3.560   0.792  0.0789  0.3971 -1.0145
 7229TIP3    H221652   5.640   3.502   0.741  1.6412  3.9869 -1.3613
 7230TIP3   OH221653   3.212   5.775   0.189  0.3880  0.2579  0.1974
 7230TIP3    H121654   3.304   5.757   0.166  0.4584  1.0911 -0.1989
 7230TIP3    H221655   3.213   5.864   0.223 -0.3246  0.3885 -0.1047
 7231TIP3   OH221656   5.568  -0.026   0.522  0.5044  0.1774 -0.1433
 7231TIP3    H121657   5.592   0.061   0.555  2.0582 -0.0148 -0.6617
 7231TIP3    H221658   5.486  -0.012   0.475  0.0491  1.0982  0.8848
 7232TIP3   OH221659   6.872   4.691   2.442 -0.0084 -0.6295  0.0035
 7232TIP3    H121660   6.932   4.635   2.393  1.2705 -1.1864  2.1005
 7232TIP3    H221661   6.926   4.766   2.469 -0.4263 -0.8061  1.3601
 7233TIP3   OH221662   0.966   1.225   4.717 -0.0734 -0.0304 -0.4195
 7233TIP3    H121663   1.006   1.141   4.693 -1.0432 -0.6295  0.0298
 7233TIP3    H221664   0.873   1.214   4.697 -0.6611 -0.0084  2.0362
 7234TIP3   OH221665   2.127   3.293   1.838 -0.2592  0.0050 -0.1490
 7234TIP3    H121666   2.175   3.267   1.759  1.7324  1.5111  0.4838
 7234TIP3    H221667   2.060   3.225   1.848  2.6305 -3.1571 -0.3035
 7235TIP3   OH221668   1.850   0.058   2.094  0.6222  0.3585  0.3700
 7235TIP3    H121669   1.819   0.100   2.013  0.5148 -1.1256 -0.3939
 7235TIP3    H221670   1.825  -0.034   2.084  0.4367  0.1768  2.2020
 7236TIP3   OH221671   1.309   2.337   2.116  0.0322  0.0526  0.1901
 7236TIP3    H121672   1.276   2.299   2.198  0.8884  1.7962  1.3959
 7236TIP3    H221673   1.248   2.408   2.097  0.7219  0.6461  0.1693
 7237TIP3   OH221674   1.948   0.118   2.592 -0.2687 -0.3722  0.3217
 7237TIP3    H121675   1.869   0.139   2.642  0.3286  0.0032  1.1096
 7237TIP3    H221676   2.003   0.069   2.653  0.0336 -0.8121 -0.2902
 7238TIP3   OH221677   1.241   5.953   3.883  0.2070  0.6724  0.0615
 7238TIP3    H121678   1.262   5.926   3.794 -0.2749  1.4139 -0.2907
 7238TIP3    H221679   1.169   6.016   3.873  0.2768  0.9157  0.9555
 7239TIP3   OH221680   5.911   5.079   3.228 -0.1105 -0.2203 -0.4417
 7239TIP3    H121681   5.836   5.136   3.215  0.4290  1.1810  1.9202
 7239TIP3    H221682   5.877   5.003   3.275  0.0261  0.8230  1.4169
 7240TIP3   OH221683   6.763   2.244   0.172  0.0401 -0.0719  0.5313
 7240TIP3    H121684   6.792   2.174   0.113  0.5397 -0.0663  0.7729
 7240TIP3    H221685   6.761   2.204   0.258  0.7135  0.3188  0.7320
 7241TIP3   OH221686   5.466   0.389   4.550  0.2380 -0.1737  0.2122
 7241TIP3    H121687   5.425   0.444   4.483  2.2996  0.6472 -0.4732
 7241TIP3    H221688   5.521   0.449   4.600 -0.3013 -1.0032  1.8948
 7242TIP3   OH221689   2.852   3.346   5.052 -0.2809  0.4276 -0.2821
 7242TIP3    H121690   2.799   3.362   5.130 -1.1894 -0.4903 -0.6864
 7242TIP3    H221691   2.940   3.376   5.076 -0.4525 -0.1800  1.2374
 7243TIP3   OH221692   4.847   3.209   3.184  0.3010  0.4333  0.1716
 7243TIP3    H121693   4.760   3.233   3.216 -0.7464 -2.6603 -0.0140
 7243TIP3    H221694   4.831   3.169   3.098  2.0646  0.9243 -0.4285
 7244TIP3   OH221695   2.639   5.445   1.299 -0.2668  0.3585  0.9440
 7244TIP3    H121696   2.625   5.430   1.392 -0.8898  2.0679  1.1647
 7244TIP3    H221697   2.700   5.519   1.296  0.8937 -0.6000 -0.0231
 7245TIP3   OH221698   1.714   6.075   3.587  0.5905 -0.3451 -0.4576
 7245TIP3    H121699   1.647   6.041   3.646 -1.1341  1.0641 -1.5031
 7245TIP3    H221700   1.786   6.101   3.645  0.2770 -1.8920  0.6911
 7246TIP3   OH221701   0.510   5.670   5.595  0.0238  0.3462 -0.1893
 7246TIP3    H121702   0.501   5.584   5.637  0.0149  0.2403 -0.4070
 7246TIP3    H221703   0.472   5.731   5.658  0.2031  0.2123  0.0509
 7247TIP3   OH221704   1.538   3.876   0.823  0.2256  0.1373 -0.3697
 7247TIP3    H121705   1.537   3.787   0.859 -1.3915  0.4601  0.4567
 7247TIP3    H221706   1.496   3.868   0.737  0.5469  0.0171 -0.5154
 7248TIP3   OH221707   1.722   6.173   0.426 -0.4250 -0.4555 -0.4466
 7248TIP3    H121708   1.726   6.126   0.509 -2.5080  0.6145  0.3316
 7248TIP3    H221709   1.701   6.106   0.360 -0.0366 -1.1096  0.0877
 7249TIP3   OH221710   3.259   0.889   4.597  0.1760  0.2053 -0.2352
 7249TIP3    H121711   3.201   0.945   4.649  1.4500  0.9527  0.4406
 7249TIP3    H221712   3.246   0.802   4.632 -0.4574  0.3784 -0.0260
 7250TIP3   OH221713   6.476   5.456   3.273 -0.1095  0.0413  1.0733
 7250TIP3    H121714   6.478   5.376   3.221 -0.1899  0.1747  0.8617
 7250TIP3    H221715   6.383   5.477   3.281 -0.1192 -0.1868  1.5956
 7251TIP3   OH221716   3.736   4.697   5.353 -0.7543 -0.1536 -0.1506
 7251TIP3    H121717   3.739   4.617   5.404  0.1497 -1.3616 -1.9607
 7251TIP3    H221718   3.819   4.741   5.372 -1.0864  0.1769  0.5568
 7252TIP3   OH221719   4.587   0.879   2.442 -0.2907 -0.5341  0.5001
 7252TIP3    H121720   4.682   0.875   2.442 -0.2983 -2.2469  2.4667
 7252TIP3    H221721   4.567   0.969   2.468  0.6996  0.3284 -1.4884
 7253TIP3   OH221722   6.050   2.864   1.621 -0.0797 -0.0502  0.1067
 7253TIP3    H121723   6.072   2.922   1.548  0.1137 -1.2712 -0.8511
 7253TIP3    H221724   6.029   2.923   1.693 -1.2627  1.2263 -1.2105
 7254TIP3   OH221725   4.886   2.577   1.912  0.0037  0.1094 -0.5402
 7254TIP3    H121726   4.901   2.526   1.991  0.7403  0.9072 -0.1565
 7254TIP3    H221727   4.894   2.669   1.940 -2.3461  0.5095 -0.9839
 7255TIP3   OH221728   5.238   1.343   1.976  0.1814 -0.3536 -0.2422
 7255TIP3    H121729   5.256   1.433   1.946  0.9694 -0.4633 -0.1117
 7255TIP3    H221730   5.145   1.345   2.001  0.7297  1.0762  1.9783
 7256TIP3   OH221731   5.934   2.612   0.461  0.1278 -0.7637 -0.4285
 7256TIP3    H121732   5.897   2.668   0.529 -1.1394 -1.6663 -0.3424
 7256TIP3    H221733   5.899   2.649   0.379  0.8470 -0.2817 -0.5263
 7257TIP3   OH221734   1.185   1.795   0.524  0.1890  0.0809 -0.5343
 7257TIP3    H121735   1.104   1.832   0.559  0.1498 -0.2668 -0.2522
 7257TIP3    H221736   1.231   1.761   0.601  1.1483  1.2954 -0.5299
 7258TIP3   OH221737   1.671   0.401   4.322  0.4547 -0.3134 -0.3980
 7258TIP3    H121738   1.644   0.392   4.414  2.1640  0.6430  0.2447
 7258TIP3    H221739   1.621   0.476   4.290 -1.1046 -1.4110 -0.6846
 7259TIP3   OH221740   4.330   5.276   1.099  0.3144  0.3150  0.0693
 7259TIP3    H121741   4.294   5.364   1.090 -0.1887  0.0727 -0.3153
 7259TIP3    H221742   4.290   5.227   1.028 -0.1721 -0.4796  0.8788
 7260TIP3   OH221743   1.582   1.471   2.868 -0.0553  0.4516 -0.0228
 7260TIP3    H121744   1.493   1.475   2.833  0.2940  0.0719 -0.9813
 7260TIP3    H221745   1.638   1.496   2.795  0.6567  0.2839  0.4537
 7261TIP3   OH221746   3.149   3.052   5.058  0.0639 -0.1299 -0.6537
 7261TIP3    H121747   3.218   3.113   5.034  0.7017 -0.6458 -0.1537
 7261TIP3    H221748   3.193   2.985   5.110 -1.0671  0.3368  0.9631
 7262TIP3   OH221749   6.672   1.850   2.816 -0.4498 -0.0398  0.1876
 7262TIP3    H121750   6.743   1.893   2.863  0.5962 -2.0809  0.5770
 7262TIP3    H221751   6.716   1.787   2.758 -1.8464  0.3792 -1.4262
 7263TIP3   OH221752   6.079   3.534   3.011  0.2288  0.3796  0.0953
 7263TIP3    H121753   6.144   3.469   2.985  1.0087  2.0940 -2.6775
 7263TIP3    H221754   6.130   3.606   3.047 -0.3638  0.7465  0.2178
 7264TIP3   OH221755   1.664   0.836   2.598  0.4377 -0.3205  0.0241
 7264TIP3    H121756   1.634   0.924   2.620  1.9638 -0.0677  1.2740
 7264TIP3    H221757   1.584   0.785   2.585 -0.4993  0.7717  1.2974
 7265TIP3   OH221758   5.637   0.924   4.039 -0.1522 -0.8557  0.4940
 7265TIP3    H121759   5.633   0.911   3.944 -1.8783 -0.1875  0.4301
 7265TIP3    H221760   5.578   0.998   4.055  1.2166 -0.0230  1.9441
 7266TIP3   OH221761   0.827   0.635   4.789 -0.2606 -0.0209  0.2962
 7266TIP3    H121762   0.753   0.667   4.842  0.5215  0.3440  1.2068
 7266TIP3    H221763   0.829   0.694   4.714 -0.7351  0.1314  0.3980
 7267TIP3   OH221764   6.067   5.993   1.024 -0.6332 -0.4728 -0.1005
 7267TIP3    H121765   6.079   5.904   1.056  1.0795 -0.4037 -0.4792
 7267TIP3    H221766   5.979   5.993   0.986 -0.8742 -1.8239  0.4001
 7268TIP3   OH221767   2.125   2.129   5.813 -0.3211  0.0259 -0.0820
 7268TIP3    H121768   2.035   2.131   5.846 -0.1227 -0.8138  0.5508
 7268TIP3    H221769   2.115   2.120   5.719 -0.9137 -0.0724 -0.0195
 7269TIP3   OH221770   0.627   0.822   3.430  0.0208 -0.4834 -0.3723
 7269TIP3    H121771   0.625   0.845   3.523 -0.6347 -1.8212 -0.0338
 7269TIP3    H221772   0.641   0.727   3.429 -1.5520 -0.7410 -1.5953
 7270TIP3   OH221773   6.781   5.765   2.494  0.4849 -0.0993  0.0183
 7270TIP3    H121774   6.694   5.805   2.492  0.2986 -0.3533  1.5982
 7270TIP3    H221775   6.821   5.792   2.412 -1.1855 -0.2219 -0.8842
 7271TIP3   OH221776   2.256   4.050   3.433 -0.7269  0.4551  0.0363
 7271TIP3    H121777   2.241   3.973   3.487 -1.1758 -0.8357 -1.8324
 7271TIP3    H221778   2.209   4.032   3.352 -0.1236  2.3272 -0.7897
 7272TIP3   OH221779   5.585   6.299   0.673 -0.2539 -0.1225  0.0962
 7272TIP3    H121780   5.656   6.235   0.679 -1.0995 -1.1890 -0.8646
 7272TIP3    H221781   5.573   6.330   0.763 -0.1615 -1.7059  0.6926
 7273TIP3   OH221782   6.116   1.579   2.640 -0.2693  0.2228 -0.3524
 7273TIP3    H121783   6.146   1.604   2.728 -2.3590 -0.9345  0.7641
 7273TIP3    H221784   6.194   1.590   2.585  0.6737  2.7080  1.2580
 7274TIP3   OH221785   2.418   0.852   5.666 -0.5995 -0.0623 -0.2634
 7274TIP3    H121786   2.373   0.795   5.603  0.0111 -0.4798 -0.3286
 7274TIP3    H221787   2.356   0.860   5.739 -0.8665 -0.4618 -0.4408
 7275TIP3   OH221788   3.620   1.875   3.157 -0.2808  0.0987  0.2401
 7275TIP3    H121789   3.529   1.850   3.143 -0.4402  0.5276  0.4791
 7275TIP3    H221790   3.657   1.806   3.212 -0.3711 -0.2427 -0.1245
 7276TIP3   OH221791   4.846   6.253   5.278 -0.3465 -0.1271 -0.2818
 7276TIP3    H121792   4.906   6.218   5.344  2.3092  1.7734 -1.5346
 7276TIP3    H221793   4.825   6.341   5.309 -0.2849  0.2275 -1.2341
 7277TIP3   OH221794   3.203   2.294   2.820 -0.1829  0.7019 -0.5907
 7277TIP3    H121795   3.259   2.280   2.896 -1.6494  0.9897  0.5763
 7277TIP3    H221796   3.114   2.295   2.855 -0.8768  1.1244 -2.2686
 7278TIP3   OH221797  -0.013   1.287   1.452 -0.2978 -0.0925  0.4187
 7278TIP3    H121798  -0.042   1.357   1.510  2.0400  0.2470  1.2791
 7278TIP3    H221799   0.081   1.281   1.467 -0.1059 -2.0285 -1.1777
 7279TIP3   OH221800   1.857   5.450   2.858 -0.2636  0.3485  0.0048
 7279TIP3    H121801   1.807   5.383   2.811  1.4078 -0.2956 -0.9473
 7279TIP3    H221802   1.890   5.404   2.936 -1.4346  0.8839  0.8484
 7280TIP3   OH221803   6.383   3.856   0.551  0.0368  0.2976 -0.3825
 7280TIP3    H121804   6.433   3.924   0.505 -1.6349  0.9880 -1.2580
 7280TIP3    H221805   6.295   3.892   0.558 -0.5278 -1.1847  0.4741
 7281TIP3   OH221806   5.654   2.885   4.810 -0.5465 -0.3912  0.1789
 7281TIP3    H121807   5.605   2.808   4.836 -2.1543  0.6988  0.4935
 7281TIP3    H221808   5.746   2.859   4.818 -0.9755 -1.3469  3.2410
 7282TIP3   OH221809   4.656   5.205   5.777  0.1659 -0.0898  0.4030
 7282TIP3    H121810   4.663   5.197   5.682 -0.3359  1.4598  0.1992
 7282TIP3    H221811   4.562   5.198   5.795  0.2952 -0.7815  0.8446
 7283TIP3   OH221812   4.998   1.317   2.090  0.5682  0.4571  0.5227
 7283TIP3    H121813   4.960   1.405   2.097 -0.9469  0.0101 -1.1711
 7283TIP3    H221814   4.952   1.267   2.158  0.0831  0.5567  0.2754
 7284TIP3   OH221815   3.873   2.847   4.092  0.1222 -0.4660  0.2889
 7284TIP3    H121816   3.921   2.887   4.020 -2.2878 -0.7761 -1.6329
 7284TIP3    H221817   3.854   2.758   4.062 -0.6978 -0.7030  1.4382
 7285TIP3   OH221818   4.411   3.571   3.288 -0.2512 -0.0977  0.1236
 7285TIP3    H121819   4.490   3.543   3.242  0.4929  1.2272  0.5324
 7285TIP3    H221820   4.351   3.598   3.219 -0.3794 -1.1557 -0.1945
 7286TIP3   OH221821   5.264   1.264   2.265  0.1304 -0.0085  0.2124
 7286TIP3    H121822   5.299   1.345   2.229  1.3990 -0.1995  0.9816
 7286TIP3    H221823   5.305   1.195   2.212  0.1027 -0.1979  0.4376
 7287TIP3   OH221824   3.212   1.786   0.400 -0.5205 -0.4702  0.1150
 7287TIP3    H121825   3.159   1.734   0.339 -1.2443  0.9553 -0.5373
 7287TIP3    H221826   3.148   1.824   0.460 -0.2061  0.8957 -0.3857
 7288TIP3   OH221827   3.224   2.370   2.522 -0.0410  0.7632 -0.3025
 7288TIP3    H121828   3.136   2.406   2.521  0.4275  1.9609 -0.7606
 7288TIP3    H221829   3.234   2.333   2.610 -1.0461  0.4507 -0.3116
 7289TIP3   OH221830   2.479   2.730   5.427  0.7729  0.1802 -0.1336
 7289TIP3    H121831   2.452   2.716   5.518  1.4533  0.4986  0.1286
 7289TIP3    H221832   2.484   2.642   5.390 -0.0764  0.0869 -0.0373
 7290TIP3   OH221833   0.111   3.506   5.833 -0.4383 -0.0687 -0.3066
 7290TIP3    H121834   0.127   3.479   5.923  0.5420 -0.6598 -0.6378
 7290TIP3    H221835   0.175   3.457   5.782  0.0625  1.4212 -1.1687
 7291TIP3   OH221836   1.109   6.686   1.694  0.0518  0.4691 -0.1591
 7291TIP3    H121837   1.179   6.727   1.745 -0.7159  2.0819 -0.3400
 7291TIP3    H221838   1.154   6.646   1.619  1.0081 -0.5346  0.9262
 7292TIP3   OH221839   1.583   3.297   2.580  0.2749 -0.0641 -0.3761
 7292TIP3    H121840   1.564   3.294   2.673  0.0622 -0.5431 -0.4306
 7292TIP3    H221841   1.676   3.277   2.573  0.5821  1.2110 -0.1830
 7293TIP3   OH221842   3.932   6.339   1.543  0.2263  0.3048 -0.5581
 7293TIP3    H121843   3.858   6.348   1.603  0.1974  2.0526 -0.8044
 7293TIP3    H221844   3.892   6.344   1.456  0.7393  2.9838 -0.7104
 7294TIP3   OH221845   0.278   4.612   3.259  0.1778 -0.6322 -0.0583
 7294TIP3    H121846   0.222   4.623   3.182 -0.3237  0.2323  0.4147
 7294TIP3    H221847   0.345   4.549   3.231  0.7729  0.6158 -1.6124
 7295TIP3   OH221848   0.138   0.628   3.846  0.2027  0.0419 -0.3362
 7295TIP3    H121849   0.170   0.705   3.892 -2.1597 -0.0074  1.6062
 7295TIP3    H221850   0.208   0.563   3.856  0.6094  0.7076  1.4487
 7296TIP3   OH221851   6.975   0.049   0.551  0.0737  0.2921 -0.3715
 7296TIP3    H121852   6.969   0.135   0.509 -1.5511  0.2478 -0.2768
 7296TIP3    H221853   7.045   0.059   0.615 -0.3535  1.6729 -0.0877
 7297TIP3   OH221854   3.936   5.247   3.165  0.1602 -0.3555 -1.0232
 7297TIP3    H121855   3.967   5.210   3.083  1.9368 -1.1304 -0.0629
 7297TIP3    H221856   3.931   5.341   3.149 -2.0007 -0.6991 -2.7491
 7298TIP3   OH221857   3.612   2.701   3.170  0.6405 -0.0044  1.4294
 7298TIP3    H121858   3.666   2.706   3.091 -0.5255  0.7375  0.6519
 7298TIP3    H221859   3.622   2.787   3.211 -0.1778  0.2498  1.1122
 7299TIP3   OH221860   5.528   1.350   0.969  0.3504  0.2697  0.2974
 7299TIP3    H121861   5.511   1.444   0.959 -0.8842 -0.1328 -2.0487
 7299TIP3    H221862   5.496   1.330   1.057 -0.8872  1.7807  0.2457
 7300TIP3   OH221863   4.075   1.360   1.498  0.5834  0.1080  0.0838
 7300TIP3    H121864   4.099   1.333   1.409 -0.0673 -1.1100  0.2493
 7300TIP3    H221865   4.079   1.456   1.496  0.6393  0.0990 -1.2408
 7301TIP3   OH221866   5.472   3.242   2.620 -0.1785 -0.0004  0.1474
 7301TIP3    H121867   5.398   3.212   2.673 -0.1561 -0.2553  0.0343
 7301TIP3    H221868   5.439   3.244   2.531 -0.4790  1.2697  0.2691
 7302TIP3   OH221869   3.753   2.685   1.781  0.0124 -0.3638 -0.1398
 7302TIP3    H121870   3.738   2.710   1.872 -0.3301 -0.1042 -0.2655
 7302TIP3    H221871   3.826   2.740   1.753 -0.3138  0.0253 -0.2210
 7303TIP3   OH221872   2.206   2.521   2.231  0.7589  0.0601  0.3398
 7303TIP3    H121873   2.111   2.528   2.236  0.9335  1.9028  1.7343
 7303TIP3    H221874   2.232   2.586   2.166  1.1421  0.4624  0.8846
 7304TIP3   OH221875   3.364   5.215   4.573 -0.3459 -0.2360  0.1300
 7304TIP3    H121876   3.326   5.227   4.659 -0.8351 -0.5546 -0.0351
 7304TIP3    H221877   3.302   5.257   4.513  0.6086  1.0816  0.0364
 7305TIP3   OH221878   6.933   2.363   1.828  0.2566  0.1117 -0.1171
 7305TIP3    H121879   6.875   2.377   1.753 -0.1764 -1.3383 -0.0730
 7305TIP3    H221880   6.874   2.355   1.903  0.5567 -0.7110  0.0334
 7306TIP3   OH221881   6.428   0.814   0.004  0.5924  0.6125 -0.1070
 7306TIP3    H121882   6.502   0.781  -0.048 -0.4074 -0.4418 -0.9134
 7306TIP3    H221883   6.451   0.791   0.095  2.1389  2.0666 -0.0684
 7307TIP3   OH221884   0.984   1.783   4.076 -0.1350 -0.2523  0.4146
 7307TIP3    H121885   0.989   1.724   4.151 -1.4371 -0.1576  0.6065
 7307TIP3    H221886   0.973   1.725   4.001  1.7881 -0.3781  0.1897
 7308TIP3   OH221887   6.076   0.917   1.510 -0.2766  0.9742 -0.6230
 7308TIP3    H121888   6.093   0.972   1.586 -0.9716  1.2204 -0.6363
 7308TIP3    H221889   6.092   0.828   1.541 -1.9363  0.9419  0.2438
 7309TIP3   OH221890   0.894   1.730   1.166  0.0821 -0.0043  0.3283
 7309TIP3    H121891   0.804   1.724   1.198 -0.2972 -0.3765 -0.7639
 7309TIP3    H221892   0.918   1.822   1.180 -0.4107  0.0614  0.7745
 7310TIP3   OH221893   3.072   1.746   1.420  0.1497  0.0336  0.4894
 7310TIP3    H121894   2.995   1.792   1.452  0.4065  0.1357  0.9744
 7310TIP3    H221895   3.038   1.675   1.366 -0.2650  0.4110  0.2553
 7311TIP3   OH221896   3.092   6.517   5.422  0.4030 -0.0501  0.9361
 7311TIP3    H121897   3.163   6.580   5.412  0.7494 -0.4036  1.1352
 7311TIP3    H221898   3.034   6.534   5.348  0.1288  0.9629  1.3619
 7312TIP3   OH221899   5.637   5.196   3.224  0.3915  0.4117 -0.5377
 7312TIP3    H121900   5.560   5.179   3.169  1.4121 -1.4037 -1.5491
 7312TIP3    H221901   5.607   5.182   3.313 -0.0372 -2.5134 -1.0331
 7313TIP3   OH221902   4.465   0.180   1.621 -0.1304 -0.0041  1.2685
 7313TIP3    H121903   4.517   0.128   1.560 -0.4036  0.0875  0.9525
 7313TIP3    H221904   4.491   0.150   1.708 -0.3065 -0.6763  1.0877
 7314TIP3   OH221905   6.227   6.375   4.852 -0.1517  0.0817  0.4180
 7314TIP3    H121906   6.257   6.315   4.920 -0.5321 -0.5645  0.0277
 7314TIP3    H221907   6.294   6.371   4.784  0.3682  0.9387  0.8612
 7315TIP3   OH221908   6.542   3.977   2.729 -0.3149  0.0349  0.4779
 7315TIP3    H121909   6.546   4.066   2.695 -0.9616  0.2947  1.0920
 7315TIP3    H221910   6.492   3.928   2.663 -0.4582  0.2518  0.4270
 7316TIP3   OH221911   4.158   3.331   0.427  0.1896  0.0333  0.1665
 7316TIP3    H121912   4.211   3.255   0.403  1.6445  1.0891 -0.1337
 7316TIP3    H221913   4.197   3.403   0.378 -0.9571  1.0285  0.6856
 7317TIP3   OH221914   6.363   0.137   1.688  0.2365  0.1419 -0.1618
 7317TIP3    H121915   6.392   0.056   1.646  2.4543  0.2556  0.9711
 7317TIP3    H221916   6.383   0.124   1.781 -0.2335  1.6450  0.1730
 7318TIP3   OH221917   3.983   3.520   1.612  0.4044  0.6254 -0.1159
 7318TIP3    H121918   4.009   3.524   1.704  0.9507  1.6069 -0.3030
 7318TIP3    H221919   3.887   3.517   1.614  0.4266  0.2153  0.4911
 7319TIP3   OH221920   1.901   0.398   4.168  0.3650  0.0834  0.5552
 7319TIP3    H121921   1.942   0.472   4.212 -1.6626  0.9483  1.1317
 7319TIP3    H221922   1.811   0.397   4.203 -0.3237 -1.2492 -1.1343
 7320TIP3   OH221923   2.873   6.021   3.275 -0.3000 -0.4363 -0.1154
 7320TIP3    H121924   2.882   6.100   3.222 -0.1778  0.0141  0.5668
 7320TIP3    H221925   2.954   5.972   3.258  0.4346  0.4172  0.7957
 7321TIP3   OH221926   2.047   5.554   1.273  0.3182 -0.6253 -0.5718
 7321TIP3    H121927   1.956   5.564   1.301  1.5022  0.4723  3.5998
 7321TIP3    H221928   2.050   5.468   1.231 -2.3638 -1.3103  0.4429
 7322TIP3   OH221929   3.057   4.438   2.007  0.1151 -0.4638  0.3245
 7322TIP3    H121930   3.133   4.380   2.012  0.3292 -0.0816  2.3998
 7322TIP3    H221931   3.021   4.422   1.920  1.1434 -2.4573  0.1925
 7323TIP3   OH221932   3.742   1.322   2.310  0.2734  0.3638 -0.6481
 7323TIP3    H121933   3.782   1.409   2.307 -0.9248  0.9684  0.2553
 7323TIP3    H221934   3.754   1.287   2.222  2.2651  0.7287 -0.5756
 7324TIP3   OH221935   0.171   1.055   5.397  0.3330 -0.3498  0.9905
 7324TIP3    H121936   0.155   1.072   5.305  3.3810 -0.4617  0.3336
 7324TIP3    H221937   0.085   1.033   5.433 -1.2221  1.3817 -1.4032
 7325TIP3   OH221938   2.979   4.873   4.069  0.0467 -0.0112  0.6492
 7325TIP3    H121939   2.990   4.823   3.988 -2.7427 -0.0882  0.1904
 7325TIP3    H221940   3.035   4.829   4.133  1.6249 -0.5001 -0.9907
 7326TIP3   OH221941   3.550   3.062   5.250 -0.1608  0.2106 -0.0775
 7326TIP3    H121942   3.619   3.033   5.310  0.5008  2.8588  0.5855
 7326TIP3    H221943   3.574   3.152   5.227 -2.3294  0.5213 -1.4766
 7327TIP3   OH221944   3.271   4.465   4.650 -0.0544 -0.0877 -0.1131
 7327TIP3    H121945   3.280   4.395   4.586 -2.3763  0.3845 -1.0502
 7327TIP3    H221946   3.206   4.433   4.712 -0.6396  0.9588 -0.1652
 7328TIP3   OH221947   3.819   6.436   2.938 -0.7464  0.1705  0.5702
 7328TIP3    H121948   3.876   6.445   3.014 -1.5654  1.2847  1.0839
 7328TIP3    H221949   3.781   6.523   2.926  0.5794  0.4697 -2.1174
 7329TIP3   OH221950   1.550   4.721   3.083 -0.5172 -0.0023  0.0460
 7329TIP3    H121951   1.571   4.715   3.176 -0.9966  0.5845  0.1958
 7329TIP3    H221952   1.629   4.757   3.043 -0.2143 -0.5003  0.1806
 7330TIP3   OH221953   6.528   6.158   1.435  0.1109  0.6644  1.1008
 7330TIP3    H121954   6.478   6.234   1.465  0.9110  0.5296  2.8893
 7330TIP3    H221955   6.514   6.156   1.340 -1.3572  1.9860  1.2481
 7331TIP3   OH221956   6.175   1.300   4.922  0.2783 -0.0449  0.0486
 7331TIP3    H121957   6.199   1.393   4.917  3.1515 -0.5908  1.5034
 7331TIP3    H221958   6.104   1.298   4.986  0.1688  1.1654  0.0001
 7332TIP3   OH221959   2.678   5.992   4.158  0.6504 -0.1065 -0.2912
 7332TIP3    H121960   2.702   5.930   4.090  0.6623  0.2056 -0.5765
 7332TIP3    H221961   2.585   5.977   4.174  0.7685 -0.5385  0.0003
 7333TIP3   OH221962   4.007   4.979   5.868  0.1348 -0.3943 -0.3531
 7333TIP3    H121963   3.931   4.929   5.899  0.8719 -1.5183 -0.2998
 7333TIP3    H221964   4.058   4.916   5.817  0.2167  0.7778 -1.7864
 7334TIP3   OH221965   7.176   5.661   4.248 -0.1169 -0.5281 -0.3166
 7334TIP3    H121966   7.173   5.582   4.194 -1.6601 -0.1700 -0.8014
 7334TIP3    H221967   7.103   5.651   4.309  0.5387 -0.1056  0.5554
 7335TIP3   OH221968   2.118   1.714   0.702  0.1626  0.0468 -0.6726
 7335TIP3    H121969   2.208   1.745   0.693 -0.2743  1.5411 -0.1662
 7335TIP3    H221970   2.072   1.749   0.626  0.4164 -2.5311 -2.1521
 7336TIP3   OH221971   0.184   0.871   3.965  0.2719  0.4469 -0.4410
 7336TIP3    H121972   0.143   0.957   3.978  1.8773  1.0041  1.5237
 7336TIP3    H221973   0.255   0.887   3.904  1.0735  0.7397  0.5344
 7337TIP3   OH221974   6.565   2.406   0.067 -0.4181 -0.3639  0.0323
 7337TIP3    H121975   6.593   2.484   0.115  0.0985  0.7205 -1.9204
 7337TIP3    H221976   6.635   2.343   0.080  0.7568  0.6712 -0.9620
 7338TIP3   OH221977   1.769   4.040   5.263 -0.7354  0.3794  0.0058
 7338TIP3    H121978   1.739   4.040   5.354 -3.7426  1.2369 -0.8985
 7338TIP3    H221979   1.804   4.128   5.249  1.3713 -0.2765  0.7375
 7339TIP3   OH221980   4.257   0.519   3.773 -0.5483  0.1946  0.5567
 7339TIP3    H121981   4.209   0.436   3.770  0.4984 -0.4322 -2.4365
 7339TIP3    H221982   4.218   0.572   3.704  2.6315 -0.2136 -1.7778
 7340TIP3   OH221983   7.030   6.011   5.791  0.0568  0.4753  0.5652
 7340TIP3    H121984   7.053   6.075   5.858  0.3967  0.2874  0.6303
 7340TIP3    H221985   7.114   5.969   5.767 -0.3354 -0.9722  1.5725
 7341TIP3   OH221986   2.475   2.049   4.426  0.1721 -0.3623 -0.1251
 7341TIP3    H121987   2.440   2.137   4.408  1.0516  0.0421  0.1013
 7341TIP3    H221988   2.432   2.023   4.508  0.1882  0.0084  0.0014
 7342TIP3   OH221989   1.221   3.692   1.325  0.8324  0.1196 -0.0098
 7342TIP3    H121990   1.171   3.648   1.393  0.7506  0.0649 -0.1042
 7342TIP3    H221991   1.279   3.752   1.372 -0.7461  1.6835  0.0336
 7343TIP3   OH221992   5.934   2.877   4.892 -0.4181  0.0187  0.5196
 7343TIP3    H121993   5.984   2.944   4.939  1.5723 -0.5072 -0.7407
 7343TIP3    H221994   5.969   2.794   4.924  0.2062 -0.3554 -1.0625
 7344TIP3   OH221995   7.001   1.084   2.459  0.3985 -0.0921 -0.2956
 7344TIP3    H121996   7.053   1.077   2.539  0.4031  4.1834  0.3305
 7344TIP3    H221997   6.918   1.042   2.481  0.8935 -0.2370  1.4765
 7345TIP3   OH221998   2.191   5.957   4.465 -0.3063  0.5660  0.3599
 7345TIP3    H121999   2.192   5.905   4.545 -1.4610  0.1232  0.1015
 7345TIP3    H222000   2.188   6.048   4.495  0.6212  0.4589  0.8065
 7346TIP3   OH222001   5.536   3.196   3.255 -0.6839 -0.1648  0.2651
 7346TIP3    H122002   5.471   3.261   3.228 -1.4085 -0.4479  1.2493
 7346TIP3    H222003   5.597   3.191   3.182 -0.8555  1.2966 -0.0158
 7347TIP3   OH222004   1.259   5.446   0.606  0.7274 -0.0376 -0.1445
 7347TIP3    H122005   1.182   5.494   0.637  1.0527  0.3224  0.1177
 7347TIP3    H222006   1.223   5.376   0.551  0.1901 -0.1357  0.3222
 7348TIP3   OH222007   7.035   6.274   4.907 -0.4810  0.2936 -0.2943
 7348TIP3    H122008   7.055   6.339   4.840  2.3099  0.0700  0.2086
 7348TIP3    H222009   7.024   6.325   4.987 -0.3673  0.2971 -0.2812
 7349TIP3   OH222010   4.497   5.855   2.873 -0.4051 -0.1015  0.0999
 7349TIP3    H122011   4.565   5.902   2.824  0.9988  0.0958  2.0861
 7349TIP3    H222012   4.494   5.768   2.833 -1.6466  0.9895 -2.3614
 7350TIP3   OH222013   2.809   5.709   1.308 -0.5587 -0.6985 -0.2752
 7350TIP3    H122014   2.836   5.702   1.216 -0.4721 -0.1251 -0.2921
 7350TIP3    H222015   2.859   5.782   1.343  0.9710 -2.1715  0.7912
 7351TIP3   OH222016   2.629   4.606   4.489  0.0011 -0.1299 -0.1315
 7351TIP3    H122017   2.717   4.644   4.489  0.2233 -0.6250  0.2792
 7351TIP3    H222018   2.602   4.607   4.397 -0.1829  1.4029 -0.0929
 7352TIP3   OH222019   5.884   4.698   3.745  0.2497 -0.4265 -0.3832
 7352TIP3    H122020   5.834   4.776   3.769 -0.5430 -1.1201  0.2785
 7352TIP3    H222021   5.898   4.707   3.650 -1.4892 -0.3915 -0.6778
 7353TIP3   OH222022   4.685   6.648   4.990  0.3263 -0.5476 -0.3538
 7353TIP3    H122023   4.636   6.591   5.049  0.7820 -0.5027  0.0844
 7353TIP3    H222024   4.625   6.669   4.919 -0.9547  1.0776  1.1239
 7354TIP3   OH222025   0.511   5.056   5.466  0.2839  0.7856  0.1533
 7354TIP3    H122026   0.525   4.971   5.508 -1.9245  1.2265  1.9641
 7354TIP3    H222027   0.500   5.036   5.373 -0.2193 -0.9205  0.5543
 7355TIP3   OH222028   4.952   2.152   1.236  0.2272 -0.0740  0.1774
 7355TIP3    H122029   4.983   2.216   1.300 -0.1671 -1.1962  1.5574
 7355TIP3    H222030   4.947   2.070   1.285 -1.5598 -0.6621 -0.8774
 7356TIP3   OH222031   6.323   2.493   2.913  0.3405 -0.3183  0.1398
 7356TIP3    H122032   6.370   2.429   2.966  3.2653  2.3030  0.9546
 7356TIP3    H222033   6.270   2.542   2.976 -1.1854 -1.2377 -0.3624
 7357TIP3   OH222034   0.203   1.298   2.440 -0.2413 -0.2642 -0.1226
 7357TIP3    H122035   0.244   1.218   2.474 -1.5601 -0.8246  0.2181
 7357TIP3    H222036   0.265   1.367   2.459 -0.2702 -0.7850  2.0835
 7358TIP3   OH222037   0.448   4.205   5.888 -0.3688 -0.0443  0.2107
 7358TIP3    H122038   0.392   4.281   5.875 -1.0799 -0.4265  0.8652
 7358TIP3    H222039   0.533   4.230   5.852 -0.7531  0.8327 -0.1156
 7359TIP3   OH222040   4.307   6.708   0.235  0.4707 -0.2074  0.5050
 7359TIP3    H122041   4.400   6.728   0.248  0.8993 -1.2444 -0.7536
 7359TIP3    H222042   4.290   6.730   0.143 -0.8756  1.1686  1.0417
 7360TIP3   OH222043   2.129   1.915   2.850  0.0696 -0.0162 -0.4330
 7360TIP3    H122044   2.197   1.848   2.843  0.7579  0.8263 -2.5374
 7360TIP3    H222045   2.178   1.997   2.860 -0.6002  0.6240 -2.1660
 7361TIP3   OH222046   6.034   4.054   4.987  0.4050 -0.2100 -0.0600
 7361TIP3    H122047   6.002   3.988   5.049 -1.9970  0.4994 -0.4484
 7361TIP3    H222048   6.035   4.136   5.037  0.1884  0.0448 -0.4694
 7362TIP3   OH222049   6.932   6.799   2.783 -0.2935 -0.0569  0.1171
 7362TIP3    H122050   7.023   6.778   2.760  0.0660  0.8603  0.6344
 7362TIP3    H222051   6.886   6.715   2.779  0.8187 -0.7327  0.9271
 7363TIP3   OH222052   1.272   1.130   5.546 -0.3136  0.2809 -0.1025
 7363TIP3    H122053   1.341   1.102   5.486 -2.4352 -0.3516 -2.4139
 7363TIP3    H222054   1.220   1.193   5.496 -0.9996  1.3518  1.8359
 7364TIP3   OH222055   3.569   3.254   2.927  0.2397 -0.7999 -0.6070
 7364TIP3    H122056   3.650   3.210   2.954  0.4594  0.4593  0.9844
 7364TIP3    H222057   3.599   3.330   2.877  0.1513  0.2404  0.8429
 7365TIP3   OH222058   3.093   4.642   2.674  0.2349 -0.1185  0.4311
 7365TIP3    H122059   3.157   4.711   2.692  1.2629 -1.3530  1.6778
 7365TIP3    H222060   3.086   4.594   2.756 -3.1172  0.5678  0.6955
 7366TIP3   OH222061   0.291   4.000   1.612  0.3805 -0.1606 -0.1920
 7366TIP3    H122062   0.236   4.077   1.603  0.6579  0.1396  0.5561
 7366TIP3    H222063   0.305   3.991   1.707  0.1514 -1.2688 -0.2439
 7367TIP3   OH222064   2.903   3.738   4.291 -0.6111  0.5195 -0.4053
 7367TIP3    H122065   2.807   3.734   4.293 -0.5957  0.0294 -0.3917
 7367TIP3    H222066   2.929   3.719   4.381 -0.5237  1.6429 -0.1864
 7368TIP3   OH222067   2.496   0.440   2.672  0.1771  0.4527 -0.2722
 7368TIP3    H122068   2.475   0.510   2.734  1.8433  0.8977 -0.1502
 7368TIP3    H222069   2.553   0.483   2.608  1.4927 -0.8638 -0.0144
 7369TIP3   OH222070   1.827   3.885   3.864 -0.3098  0.1655 -0.2710
 7369TIP3    H122071   1.734   3.860   3.870 -0.2930  0.4676  2.3581
 7369TIP3    H222072   1.873   3.820   3.916  0.7968  0.8627 -0.3422
 7370TIP3   OH222073   5.687   4.982   0.310 -0.3963 -0.8605 -0.2642
 7370TIP3    H122074   5.665   5.073   0.291 -2.0875 -1.2709 -0.4729
 7370TIP3    H222075   5.779   4.984   0.335 -0.2308  0.8111 -0.8693
 7371TIP3   OH222076   4.554   4.596   3.271  0.6307 -0.1227  0.3195
 7371TIP3    H122077   4.540   4.518   3.218 -0.9216  0.0371  0.4302
 7371TIP3    H222078   4.544   4.669   3.209 -0.3175  0.0369  0.6432
 7372TIP3   OH222079   6.138   0.896   4.892 -0.0701 -0.3021 -0.1658
 7372TIP3    H122080   6.230   0.913   4.914  0.0013 -0.3199 -0.4535
 7372TIP3    H222081   6.128   0.928   4.803  0.6425 -3.6180 -1.6151
 7373TIP3   OH222082   2.832   4.336   3.836 -0.1606  0.2363  0.2084
 7373TIP3    H122083   2.835   4.252   3.883  1.8218 -0.3296 -0.8365
 7373TIP3    H222084   2.923   4.353   3.813 -0.0523  3.9595  2.5473
 7374TIP3   OH222085   1.258   6.317   4.172 -0.3632 -0.1030  0.1990
 7374TIP3    H122086   1.282   6.409   4.181  2.1925 -0.2866 -2.7635
 7374TIP3    H222087   1.184   6.317   4.111 -1.5284 -0.0038  1.5609
 7375TIP3   OH222088   5.517   4.355   3.596 -0.2312 -0.5318  0.6952
 7375TIP3    H122089   5.482   4.444   3.590 -0.8174 -0.7710  0.4872
 7375TIP3    H222090   5.583   4.360   3.665 -0.1015  0.1117  0.5365
 7376TIP3   OH222091   5.072   5.260   5.042  0.6182  0.7327 -0.4067
 7376TIP3    H122092   5.043   5.320   5.111 -0.8150 -0.1104 -0.2241
 7376TIP3    H222093   5.022   5.180   5.058  0.1429  0.5613 -2.4919
 7377TIP3   OH222094   3.022   0.376   4.530 -0.4713  0.4669  0.4322
 7377TIP3    H122095   3.008   0.285   4.555  0.0632  0.3527  0.3360
 7377TIP3    H222096   2.972   0.387   4.449 -0.6823  0.3122  0.5413
 7378TIP3   OH222097   2.168   1.441   0.082 -0.5143 -0.0931 -0.3305
 7378TIP3    H122098   2.152   1.466  -0.009 -0.3772 -1.0455 -0.6264
 7378TIP3    H222099   2.083   1.410   0.113 -0.4491 -0.2098 -0.2719
 7379TIP3   OH222100   5.314   3.619   1.337  0.4736  0.4541 -0.0539
 7379TIP3    H122101   5.269   3.557   1.281  2.8328 -1.1993 -0.2551
 7379TIP3    H222102   5.360   3.677   1.276  0.0747  1.0211  0.1700
 7380TIP3   OH222103   0.789   0.320   3.274  0.4082  0.5478  0.0614
 7380TIP3    H122104   0.701   0.304   3.307  1.0502 -0.5480  1.3228
 7380TIP3    H222105   0.793   0.271   3.192 -0.1183  0.5170  0.0483
 7381TIP3   OH222106   5.321   2.738   0.387 -0.1201 -0.2708  0.7719
 7381TIP3    H122107   5.289   2.774   0.304 -2.3623 -0.0726  1.6418
 7381TIP3    H222108   5.261   2.666   0.407  0.7332 -0.7009  1.9333
 7382TIP3   OH222109   6.555   1.188   2.362  0.3624  0.0006 -0.4281
 7382TIP3    H122110   6.611   1.210   2.437  0.1314  0.3288 -0.3502
 7382TIP3    H222111   6.545   1.272   2.315  0.4381 -0.1845 -0.7794
 7383TIP3   OH222112   6.060   1.342   0.130 -0.2853 -0.2296 -0.0724
 7383TIP3    H122113   6.095   1.256   0.151  1.5315  0.5940  0.4203
 7383TIP3    H222114   6.136   1.399   0.125 -1.1683  0.8639 -3.0351
 7384TIP3   OH222115   5.836   1.948   2.500 -0.3181 -0.5869  0.6317
 7384TIP3    H122116   5.839   2.022   2.561  0.7398 -0.2831  0.2249
 7384TIP3    H222117   5.751   1.907   2.517 -0.0896 -0.4481  2.2216
 7385TIP3   OH222118   2.483   3.116   4.863 -0.0518  0.2774  0.0983
 7385TIP3    H122119   2.544   3.057   4.817 -0.6114 -0.9147  0.8450
 7385TIP3    H222120   2.399   3.103   4.819 -0.0713  0.9538 -0.0853
 7386TIP3   OH222121   6.352   3.659   4.162 -0.3236  0.1498  0.5176
 7386TIP3    H122122   6.280   3.675   4.223 -0.6728  0.5825 -0.0051
 7386TIP3    H222123   6.337   3.720   4.090 -0.8187 -1.4455 -0.7817
 7387TIP3   OH222124   3.398   2.057   3.414  0.1634 -0.2642 -0.5148
 7387TIP3    H122125   3.342   1.982   3.396  0.1505 -0.1026 -1.1690
 7387TIP3    H222126   3.337   2.130   3.427  0.1171 -0.6186  1.4322
 7388TIP3   OH222127   0.244   2.276   0.877 -0.4891  0.3002 -0.0839
 7388TIP3    H122128   0.263   2.363   0.842 -0.3122 -0.7718 -2.9489
 7388TIP3    H222129   0.155   2.257   0.847 -0.9498 -0.1216  1.4509
 7389TIP3   OH222130   3.841   2.195   0.202 -0.0797 -0.5132  0.2939
 7389TIP3    H122131   3.760   2.180   0.154 -0.9205  0.3823  1.3703
 7389TIP3    H222132   3.889   2.113   0.194  0.6889  0.1251 -3.5661
 7390TIP3   OH222133   5.909   0.532   2.107 -0.2181 -0.2603 -0.5869
 7390TIP3    H122134   5.816   0.554   2.106  0.2912  2.1563 -2.0096
 7390TIP3    H222135   5.945   0.585   2.178  0.3263  0.2264 -1.2099
 7391TIP3   OH222136   0.614   0.672   1.788  0.0775 -0.2051 -0.3879
 7391TIP3    H122137   0.632   0.642   1.877  0.2901  0.7854 -0.0901
 7391TIP3    H222138   0.700   0.689   1.750  0.0097 -1.0509 -0.9456
 7392TIP3   OH222139   7.142   0.646   1.825  0.0224 -0.0225  0.2088
 7392TIP3    H122140   7.211   0.583   1.847 -0.2292 -0.6022 -0.5864
 7392TIP3    H222141   7.166   0.726   1.872  0.0196 -0.8870  1.7400
 7393TIP3   OH222142   2.321   3.251   4.022  0.0915 -0.1199  0.0782
 7393TIP3    H122143   2.229   3.241   3.997  0.1789  1.5488 -1.0865
 7393TIP3    H222144   2.365   3.175   3.983 -0.5540 -0.0746 -0.7656
 7394TIP3   OH222145   1.466   1.587   3.797 -0.4791 -0.4265 -0.9677
 7394TIP3    H122146   1.546   1.613   3.843 -1.6723 -0.1431  1.0680
 7394TIP3    H222147   1.450   1.657   3.734 -0.1379  0.5017 -0.0570
 7395TIP3   OH222148   4.378   1.135   3.839 -0.3421  0.0737  0.2561
 7395TIP3    H122149   4.291   1.108   3.807 -1.1502  0.6020  1.9158
 7395TIP3    H222150   4.418   1.177   3.763 -0.6241 -2.1039 -1.2073
 7396TIP3   OH222151   4.990   1.162   2.606  0.0855  0.1733  0.0239
 7396TIP3    H122152   5.077   1.134   2.579  1.2624  1.4610  2.1913
 7396TIP3    H222153   4.939   1.166   2.525  1.4945 -2.3105 -1.0719
 7397TIP3   OH222154   4.444   1.036   0.465  0.2712  0.5715  0.4097
 7397TIP3    H122155   4.497   0.971   0.419 -0.7144 -0.8864  1.2771
 7397TIP3    H222156   4.413   0.991   0.544  0.3703  2.4036  1.5658
 7398TIP3   OH222157   2.747   2.889   3.045 -0.1528  0.3306  0.1680
 7398TIP3    H122158   2.806   2.819   3.073  0.4314 -0.7386 -3.2883
 7398TIP3    H222159   2.667   2.874   3.095  0.8670 -1.1186  1.4595
 7399TIP3   OH222160   4.461   5.719   5.343  0.0075  0.4999  0.0695
 7399TIP3    H122161   4.530   5.728   5.408 -0.2360 -1.1212  0.6145
 7399TIP3    H222162   4.409   5.799   5.351  0.4941  0.7157  1.2519
 7400TIP3   OH222163   0.911   1.597   5.225 -0.2298  0.0103 -0.3141
 7400TIP3    H122164   0.832   1.652   5.221  0.9750  1.8474 -0.0566
 7400TIP3    H222165   0.885   1.520   5.276 -1.5629  1.0955  0.7090
 7401TIP3   OH222166   2.122   2.971   2.999 -0.3171  0.5933 -0.6582
 7401TIP3    H122167   2.130   2.878   2.979  0.9531  0.7677 -1.0255
 7401TIP3    H222168   2.034   2.980   3.035 -0.4307 -0.7580 -0.5512
 7402TIP3   OH222169   0.317   2.558   5.335 -0.2772 -0.1228 -0.5984
 7402TIP3    H122170   0.262   2.526   5.406 -0.8237  1.0181 -0.4967
 7402TIP3    H222171   0.272   2.636   5.302 -0.2441 -0.8275 -2.4434
 7403TIP3   OH222172   0.218   0.624   4.937 -0.0980  0.0420  0.7734
 7403TIP3    H122173   0.225   0.703   4.991  0.5235  1.5008 -1.3211
 7403TIP3    H222174   0.142   0.641   4.881  0.7723 -0.2747 -0.5455
 7404TIP3   OH222175   1.889   4.571   3.731 -0.4241 -0.2138  0.0399
 7404TIP3    H122176   1.885   4.636   3.661  1.7215  0.3418  0.3821
 7404TIP3    H222177   1.805   4.580   3.776 -0.3039  2.1459 -0.0883
 7405TIP3   OH222178   2.676   3.045   2.377  0.1552  0.4220 -0.3291
 7405TIP3    H122179   2.666   3.043   2.472 -1.5713 -1.4394 -0.4728
 7405TIP3    H222180   2.714   2.960   2.355  1.5532  1.2450 -1.2561
 7406TIP3   OH222181   1.198   1.074   1.008  0.2369  0.2583  0.2443
 7406TIP3    H122182   1.171   1.018   1.081  0.9064 -0.7852 -0.2815
 7406TIP3    H222183   1.286   1.043   0.985  0.5187  1.3620 -0.2399
 7407TIP3   OH222184   7.184   5.439   2.062  0.3880  0.0229  0.2032
 7407TIP3    H122185   7.125   5.432   1.987  1.3686 -0.6429 -0.5326
 7407TIP3    H222186   7.127   5.428   2.138 -0.3127 -1.5785 -0.5091
 7408TIP3   OH222187   1.337   4.814   0.884 -0.3226 -0.1002  0.3740
 7408TIP3    H122188   1.315   4.907   0.873 -0.0785  0.0360  0.9666
 7408TIP3    H222189   1.295   4.770   0.810 -1.5597  0.3076  0.7993
 7409TIP3   OH222190   3.639   2.980   0.413  0.1557  0.3235 -0.0886
 7409TIP3    H122191   3.697   3.019   0.479 -0.1435 -0.8791  0.9157
 7409TIP3    H222192   3.665   3.022   0.331  2.5905 -0.3194  0.2867
 7410TIP3   OH222193   2.567   3.109   3.201 -0.0955  0.5681  0.3572
 7410TIP3    H122194   2.476   3.138   3.204 -0.5975 -0.7219 -0.9686
 7410TIP3    H222195   2.601   3.145   3.119  0.7251  1.3795  1.0399
 7411TIP3   OH222196   2.765   5.595   4.201  0.8078 -0.4168 -0.1992
 7411TIP3    H122197   2.679   5.624   4.171  1.8336 -0.5648 -3.8802
 7411TIP3    H222198   2.792   5.661   4.264 -2.0099 -0.4734  1.1954
 7412TIP3   OH222199   1.450   1.581   1.824  0.4785 -0.3651 -0.7421
 7412TIP3    H122200   1.478   1.542   1.907 -0.2772 -1.2496 -0.8960
 7412TIP3    H222201   1.358   1.557   1.815 -0.0295  1.4207 -0.8735
 7413TIP3   OH222202   6.266   1.985   0.516 -0.1292 -0.1471  0.3716
 7413TIP3    H122203   6.335   1.971   0.580  0.8759 -3.5840 -1.1932
 7413TIP3    H222204   6.193   1.932   0.548 -0.6348  0.3642  0.0814
 7414TIP3   OH222205   6.387   1.060   1.473 -0.3444 -0.5562 -0.3909
 7414TIP3    H122206   6.419   1.112   1.545  0.1630 -0.2884 -0.8060
 7414TIP3    H222207   6.354   1.124   1.409  3.0756 -0.4534 -2.3010
 7415TIP3   OH222208   3.133   4.815   4.838  0.6267 -0.2949 -0.2530
 7415TIP3    H122209   3.049   4.847   4.807  0.5574  1.8258  1.8169
 7415TIP3    H222210   3.112   4.758   4.911  0.9180  1.4591  1.2899
 7416TIP3   OH222211   0.874   3.184   4.015 -0.2177  1.3471 -0.2966
 7416TIP3    H122212   0.854   3.105   3.965 -3.2133  2.9306 -1.8750
 7416TIP3    H222213   0.818   3.179   4.092  1.0797  1.0341  0.6585
 7417TIP3   OH222214   6.183   0.643   5.615  0.4594  0.2644 -0.6006
 7417TIP3    H122215   6.231   0.669   5.536 -0.7945  0.3177 -1.3617
 7417TIP3    H222216   6.118   0.711   5.627  0.2206 -0.0842  0.1118
 7418TIP3   OH222217   1.523   3.592   1.908  0.0605 -0.2736  0.3561
 7418TIP3    H122218   1.525   3.557   1.819  0.6141  0.2870  0.1458
 7418TIP3    H222219   1.614   3.609   1.929 -0.2454  1.7779  0.1655
 7419TIP3   OH222220   1.795   5.916   5.173 -0.0131  0.0679  0.3596
 7419TIP3    H122221   1.730   5.982   5.149  0.6672  0.2854 -0.9571
 7419TIP3    H222222   1.755   5.868   5.246 -1.3776  0.6009 -0.0130
 7420TIP3   OH222223   2.498   5.171   2.319  0.6076 -0.2587  1.0167
 7420TIP3    H122224   2.546   5.164   2.236  0.1481  0.1265  0.7119
 7420TIP3    H222225   2.533   5.101   2.373  1.0214 -0.4192  0.5493
 7421TIP3   OH222226   4.313   1.686   0.816  0.0416 -0.4733  0.3319
 7421TIP3    H122227   4.363   1.756   0.859 -3.6381  1.2726  2.2889
 7421TIP3    H222228   4.315   1.614   0.879  0.2333 -0.4750  0.3249
 7422TIP3   OH222229   6.230   5.855   4.560 -0.4439 -0.3951 -0.2598
 7422TIP3    H122230   6.243   5.793   4.631 -1.1436 -0.4479 -0.1777
 7422TIP3    H222231   6.299   5.920   4.572  0.4198 -1.2534 -0.4651
 7423TIP3   OH222232   0.642   1.109   2.913 -0.2470 -0.0937  0.0160
 7423TIP3    H122233   0.665   1.200   2.894 -3.5120  1.3356  1.9611
 7423TIP3    H222234   0.593   1.080   2.836  2.2622 -0.9297 -1.3626
 7424TIP3   OH222235   3.607   4.846   4.865  0.3437 -0.2228 -0.3070
 7424TIP3    H122236   3.531   4.901   4.885  0.1723 -1.0908  1.5806
 7424TIP3    H222237   3.582   4.801   4.784 -0.4155  0.7818 -0.6601
 7425TIP3   OH222238   4.343   0.955   4.207  0.2155  0.3280  0.0484
 7425TIP3    H122239   4.431   0.963   4.171  0.2328 -0.3315 -0.0611
 7425TIP3    H222240   4.287   0.999   4.143  0.4764  0.8783  0.1908
 7426TIP3   OH222241   3.047   0.740   2.064 -0.0075 -0.3299 -0.2178
 7426TIP3    H122242   3.126   0.743   2.117  0.5082 -0.2848 -0.9776
 7426TIP3    H222243   3.049   0.653   2.023 -0.9889 -0.8198  0.7021
 7427TIP3   OH222244   7.028   1.490   4.173  0.0554 -0.3532  0.1234
 7427TIP3    H122245   6.960   1.557   4.178  0.2934 -0.2084  1.9275
 7427TIP3    H222246   6.980   1.408   4.162 -0.3377 -0.0967 -0.0900
 7428TIP3   OH222247   4.044   5.374   2.410  0.3904 -0.6647  0.7666
 7428TIP3    H122248   4.025   5.467   2.401  3.0473 -0.1349 -0.2064
 7428TIP3    H222249   3.985   5.344   2.479 -1.2417  1.4822  0.4141
 7429TIP3   OH222250   2.909   6.495   5.225 -0.0756  0.3220  0.1537
 7429TIP3    H122251   2.877   6.582   5.200  0.8483  0.6232 -0.0489
 7429TIP3    H222252   2.977   6.475   5.160  1.0443  0.2991  1.2832
 7430TIP3   OH222253   1.316   4.364   1.617 -0.6684  0.2125  0.0838
 7430TIP3    H122254   1.244   4.402   1.666 -0.9230 -0.1263 -0.0276
 7430TIP3    H222255   1.288   4.274   1.597  0.2713 -0.3299  1.0737
 7431TIP3   OH222256   0.404   1.114   5.069 -0.0108  0.3955  0.5988
 7431TIP3    H122257   0.334   1.174   5.042  0.1642  0.3889  0.1063
 7431TIP3    H222258   0.358   1.040   5.109 -0.2851  0.4190  0.3359
 7432TIP3   OH222259   3.123   5.532   3.236  0.2529 -0.1232 -0.5647
 7432TIP3    H122260   3.132   5.627   3.234 -1.9549  0.1702 -3.1793
 7432TIP3    H222261   3.050   5.516   3.295  1.0223 -0.2934  0.3659
 7433TIP3   OH222262   0.488   5.428   5.750 -0.1917  0.5690 -0.3578
 7433TIP3    H122263   0.580   5.420   5.773 -0.3778 -0.0305  0.1962
 7433TIP3    H222264   0.441   5.394   5.826 -0.8369 -0.7860 -1.3333
 7434TIP3   OH222265   0.374   4.872   3.250  0.1611  0.2139 -0.2345
 7434TIP3    H122266   0.352   4.778   3.247 -0.5512  0.3496  0.2841
 7434TIP3    H222267   0.295   4.916   3.219 -0.0396  0.6931  0.9068
 7435TIP3   OH222268   1.856   0.675   3.651  0.8093 -0.0174  0.0238
 7435TIP3    H122269   1.823   0.696   3.564  0.7477  0.9909  0.2749
 7435TIP3    H222270   1.778   0.655   3.702  0.4677  2.6218  0.6867
 7436TIP3   OH222271   4.422   6.445   0.389 -0.8933  0.2484  0.7471
 7436TIP3    H122272   4.423   6.407   0.300 -1.1302 -0.0451  0.8652
 7436TIP3    H222273   4.362   6.520   0.381 -0.6562  0.4225  0.5818
 7437TIP3   OH222274   5.714   2.481   2.852  0.2574 -0.6050  0.1452
 7437TIP3    H122275   5.756   2.525   2.778 -1.7001  0.9321 -0.1315
 7437TIP3    H222276   5.676   2.402   2.815 -0.9313  0.2871 -0.5860
 7438TIP3   OH222277   0.331   6.563   4.818  0.6911 -0.5280 -0.2427
 7438TIP3    H122278   0.400   6.535   4.757 -0.5697  0.9970 -2.5236
 7438TIP3    H222279   0.263   6.599   4.761 -0.7965  0.5240  2.0866
 7439TIP3   OH222280   1.964   6.120   2.053 -0.8477 -0.2233  0.0273
 7439TIP3    H122281   1.986   6.179   2.125 -2.0767  0.5543 -0.1991
 7439TIP3    H222282   2.023   6.145   1.983 -2.8612  2.4688 -0.8937
 7440TIP3   OH222283   6.731   5.788   1.780 -0.2252 -0.4871 -0.7663
 7440TIP3    H122284   6.822   5.816   1.784 -0.5887  0.6434  2.2407
 7440TIP3    H222285   6.683   5.865   1.749 -0.3871 -0.1925  0.1640
 7441TIP3   OH222286   2.483   2.643   2.511  0.1862 -0.0416 -0.1978
 7441TIP3    H122287   2.552   2.584   2.481  0.2102  0.0553 -0.3302
 7441TIP3    H222288   2.488   2.718   2.453  0.0459  0.0184 -0.1327
 7442TIP3   OH222289   1.511   2.450   4.203  0.0571 -0.2176  0.5631
 7442TIP3    H122290   1.457   2.397   4.144  1.1249  0.7632 -1.3701
 7442TIP3    H222291   1.457   2.526   4.223 -0.3691 -0.6294  1.0154
 7443TIP3   OH222292   2.701   1.925   2.430 -0.0302  0.3112  0.2850
 7443TIP3    H122293   2.665   1.878   2.505  1.9580 -1.6632  0.1134
 7443TIP3    H222294   2.665   1.879   2.354 -1.1056  1.5584  0.0163
 7444TIP3   OH222295   4.760   4.027   1.855 -0.1933  0.5221 -0.3905
 7444TIP3    H122296   4.761   3.993   1.765  1.0902 -1.5369  0.3171
 7444TIP3    H222297   4.711   3.961   1.904  1.6339  0.0265  0.8958
 7445TIP3   OH222298   1.749   0.750   1.066  0.3629  0.6491  0.3468
 7445TIP3    H122299   1.834   0.737   1.108  0.0726  1.5694  1.2667
 7445TIP3    H222300   1.733   0.844   1.073  1.8427  1.6042 -4.9106
 7446TIP3   OH222301   6.649   4.441   1.196  0.3597  0.5432  0.1109
 7446TIP3    H122302   6.711   4.499   1.150  0.0101  0.7177 -0.1416
 7446TIP3    H222303   6.668   4.354   1.163 -1.1364  0.8837 -1.7829
 7447TIP3   OH222304   3.632   3.297   1.182  0.2910  0.5886 -0.0624
 7447TIP3    H122305   3.607   3.303   1.275  0.4767 -0.1968  0.0411
 7447TIP3    H222306   3.691   3.222   1.178  1.2402  1.3472 -0.6221
 7448TIP3   OH222307   1.413   3.571   2.172  0.1428  0.6205  0.4099
 7448TIP3    H122308   1.463   3.578   2.091 -1.6695  1.7268 -0.6817
 7448TIP3    H222309   1.474   3.533   2.235  1.8221  0.4102 -1.2669
 7449TIP3   OH222310   5.699   2.797   5.761 -0.5434 -0.2734  0.1036
 7449TIP3    H122311   5.611   2.822   5.732 -0.4344  0.5864  0.4907
 7449TIP3    H222312   5.707   2.836   5.848 -0.1392 -1.1827  0.4798
 7450TIP3   OH222313   7.172   2.713   2.529 -0.0425  0.0642  0.3783
 7450TIP3    H122314   7.240   2.646   2.521  0.3195  0.6509 -3.0188
 7450TIP3    H222315   7.090   2.666   2.514  0.2052  0.2850 -1.9320
 7451TIP3   OH222316   5.362   1.760   3.511  0.1139 -0.3534 -0.2268
 7451TIP3    H122317   5.384   1.841   3.557 -0.2912  1.1880 -2.6196
 7451TIP3    H222318   5.446   1.720   3.490  0.3134 -1.1819  1.8720
 7452TIP3   OH222319   0.043   4.688   0.486  0.2588  0.5249 -0.0181
 7452TIP3    H122320  -0.006   4.768   0.501  1.2942  1.1371  0.1974
 7452TIP3    H222321  -0.004   4.644   0.415 -0.8219  0.8800  0.4578
 7453TIP3   OH222322   4.651   1.280   3.770 -0.0632  0.3418  0.4539
 7453TIP3    H122323   4.697   1.280   3.854 -0.6809  2.2550  0.8512
 7453TIP3    H222324   4.641   1.373   3.749  0.2553 -0.1119 -1.8507
 7454TIP3   OH222325   2.296   6.017   2.898 -0.1144  0.3809  0.1695
 7454TIP3    H122326   2.305   6.004   2.993 -0.6350 -1.6140  0.0017
 7454TIP3    H222327   2.245   5.941   2.869  1.7659 -0.1580 -2.0144
 7455TIP3   OH222328   2.602   1.735   2.251 -0.3426 -0.0173 -0.3164
 7455TIP3    H122329   2.576   1.644   2.266  0.7188 -0.1647  0.8351
 7455TIP3    H222330   2.523   1.778   2.220 -0.9502 -1.2495 -0.5470
 7456TIP3   OH222331   2.112   0.341   3.212  0.4792  0.0481 -0.4590
 7456TIP3    H122332   2.145   0.421   3.253  1.6169 -0.2206 -0.8284
 7456TIP3    H222333   2.062   0.371   3.137 -0.5926  0.4834  0.3971
 7457TIP3   OH222334   0.440   4.406   3.836 -0.1361  1.0192 -0.0797
 7457TIP3    H122335   0.374   4.468   3.806  0.2494  2.1579  1.3489
 7457TIP3    H222336   0.485   4.450   3.908  0.7599 -0.5571  0.3905
 7458TIP3   OH222337   3.698   5.662   2.806  0.5386 -0.9178  0.3853
 7458TIP3    H122338   3.697   5.710   2.723 -1.1961  0.4780  1.1649
 7458TIP3    H222339   3.756   5.587   2.789  2.9112  1.0926 -1.0484
 7459TIP3   OH222340   3.544   1.809   3.648 -0.4901 -0.1630 -0.0765
 7459TIP3    H122341   3.471   1.813   3.586 -0.7180  0.0648  0.1996
 7459TIP3    H222342   3.565   1.716   3.655 -1.2043 -0.3012  0.3516
 7460TIP3   OH222343   4.667   3.148   0.430  0.3871 -0.1846  0.1726
 7460TIP3    H122344   4.709   3.090   0.494  1.4623 -0.0545 -0.3944
 7460TIP3    H222345   4.729   3.220   0.419 -0.6344  0.7479  0.3702
 7461TIP3   OH222346   4.704   4.342   5.129 -0.3940  0.0450 -0.0434
 7461TIP3    H122347   4.759   4.413   5.094 -0.8436 -0.4211 -1.8111
 7461TIP3    H222348   4.743   4.262   5.093  0.2589 -0.6677  2.1348
 7462TIP3   OH222349   5.701   3.591   4.246  0.4165  0.6357 -0.2677
 7462TIP3    H122350   5.683   3.646   4.322  2.6070 -1.5981  2.0808
 7462TIP3    H222351   5.615   3.560   4.217 -0.4690  1.2085  1.6184
 7463TIP3   OH222352   3.809   2.020   5.679 -0.6016  0.6869 -0.0603
 7463TIP3    H122353   3.780   1.940   5.637  1.9662 -0.1698 -0.4022
 7463TIP3    H222354   3.843   1.991   5.764 -1.5754  1.7540  0.7284
 7464TIP3   OH222355   1.490   0.722   0.957 -0.4847 -0.1647  0.4138
 7464TIP3    H122356   1.529   0.786   0.898 -0.9460  0.1217  0.4179
 7464TIP3    H222357   1.557   0.654   0.967  0.5602  0.9640  1.4775
 7465TIP3   OH222358   5.540   3.582   3.107  0.1730 -1.0441  0.1767
 7465TIP3    H122359   5.470   3.519   3.121 -1.9013  1.5982  2.7735
 7465TIP3    H222360   5.573   3.602   3.194  0.9684  1.1754 -0.5515
 7466TIP3   OH222361   4.385   3.647   5.249 -0.2364 -0.0458  0.1708
 7466TIP3    H122362   4.392   3.720   5.188  1.3788  0.6348  1.1246
 7466TIP3    H222363   4.292   3.647   5.274 -0.7228  0.2755 -1.4752
 7467TIP3   OH222364   3.804   6.298   4.104  0.2879  0.1662 -0.2891
 7467TIP3    H122365   3.854   6.219   4.125  2.0289  1.4731  0.8157
 7467TIP3    H222366   3.713   6.269   4.103  0.8793 -1.8737 -0.0652
 7468TIP3   OH222367   4.613   1.011   4.191 -0.1406 -0.0980 -0.4026
 7468TIP3    H122368   4.600   1.017   4.286 -0.4932  0.0075 -0.4589
 7468TIP3    H222369   4.602   1.101   4.159 -1.1927 -0.3179 -0.6915
 7469TIP3   OH222370   5.232   6.033   2.876 -0.7085 -0.7382  0.1908
 7469TIP3    H122371   5.259   5.941   2.886  0.6478 -0.8083 -2.8914
 7469TIP3    H222372   5.281   6.080   2.944 -0.2327 -2.0991  0.8283
 7470TIP3   OH222373   5.410   1.331   3.104 -0.1009 -0.2703 -0.5739
 7470TIP3    H122374   5.430   1.419   3.073 -0.5435  0.7758  1.8200
 7470TIP3    H222375   5.357   1.292   3.035  1.0825  0.9051 -2.2019
 7471TIP3   OH222376   1.721   2.153   5.542 -0.0106 -0.1170 -0.4516
 7471TIP3    H122377   1.744   2.241   5.572 -1.9225  0.1341  0.4736
 7471TIP3    H222378   1.724   2.158   5.447  0.5825  0.7528 -0.3966
 7472TIP3   OH222379   5.930   2.986   5.703  0.5437  0.0439 -0.5194
 7472TIP3    H122380   5.839   2.958   5.706  0.6276 -0.1545  0.9147
 7472TIP3    H222381   5.943   3.017   5.613 -0.7430 -0.5276 -0.9241
 7473TIP3   OH222382   5.240   4.639   5.702 -0.3084  0.0400  0.5218
 7473TIP3    H122383   5.185   4.651   5.624 -0.1932  1.0294  0.5735
 7473TIP3    H222384   5.198   4.692   5.769  1.3086  1.7869  0.2458
 7474TIP3   OH222385   4.869   4.876   5.714 -0.6493 -0.5716  0.3803
 7474TIP3    H122386   4.872   4.962   5.756 -1.5707  0.8917 -2.3467
 7474TIP3    H222387   4.956   4.864   5.676 -0.7299 -0.5332  0.1833
 7475TIP3   OH222388   6.883   6.454   5.096  0.3086  0.4028 -0.4397
 7475TIP3    H122389   6.860   6.546   5.087 -0.2252  0.2772 -0.3726
 7475TIP3    H222390   6.912   6.445   5.186 -0.2143  0.3860 -0.2669
 7476TIP3   OH222391   4.151   3.007   4.848 -0.0693  0.5350  0.2462
 7476TIP3    H122392   4.223   2.953   4.881 -0.5726 -1.1314 -1.2318
 7476TIP3    H222393   4.108   3.040   4.927  1.0756 -0.1084  1.1757
 7477TIP3   OH222394   7.028   3.106   0.557  0.0286  0.0360  0.1662
 7477TIP3    H122395   6.995   3.194   0.539  0.3487  0.4777  1.6138
 7477TIP3    H222396   7.123   3.117   0.564  0.1158 -0.5142 -0.0757
 7478TIP3   OH222397   3.113   1.621   0.220  0.7439  0.1093 -0.5116
 7478TIP3    H122398   3.119   1.620   0.125 -2.2628  1.0212 -0.8057
 7478TIP3    H222399   3.097   1.529   0.244  2.1748 -0.2380 -0.7383
 7479TIP3   OH222400   3.984   3.233   4.797 -0.3139  0.5140  0.3943
 7479TIP3    H122401   4.006   3.170   4.729  0.7795  0.7411  0.5216
 7479TIP3    H222402   3.923   3.186   4.854  0.1293 -0.2715  0.2350
 7480TIP3   OH222403   2.120   1.376   5.495 -0.1878 -0.0253  0.4685
 7480TIP3    H122404   2.209   1.412   5.490 -0.7715  1.2669 -1.4817
 7480TIP3    H222405   2.075   1.433   5.557 -0.3865  1.0569 -0.6369
 7481TIP3   OH222406   2.362   6.385   0.978 -0.1940  0.2367  0.0884
 7481TIP3    H122407   2.316   6.459   1.019 -0.8826 -0.5152  0.7051
 7481TIP3    H222408   2.295   6.343   0.923  0.3117  0.3205 -0.6050
 7482TIP3   OH222409   4.445   6.583   1.214  1.0100  0.2504  0.0324
 7482TIP3    H122410   4.381   6.619   1.152  1.2194 -1.3071 -1.1602
 7482TIP3    H222411   4.475   6.502   1.172  2.5225  0.0885  1.3490
 7483TIP3   OH222412   4.545   6.571   2.256 -0.3411  0.5337  0.3102
 7483TIP3    H122413   4.562   6.639   2.322  0.9662  1.0900 -0.5668
 7483TIP3    H222414   4.506   6.499   2.306 -0.7990  1.5252  1.4287
 7484TIP3   OH222415   1.583   6.382   4.229  0.4273 -0.1550 -0.4977
 7484TIP3    H122416   1.639   6.417   4.298 -0.0635  1.0355 -0.6806
 7484TIP3    H222417   1.595   6.442   4.155 -1.2145  0.2510 -0.4764
 7485TIP3   OH222418   1.548   4.146   2.323 -0.6363 -0.3857 -0.3530
 7485TIP3    H122419   1.493   4.073   2.294 -1.0868 -1.6396  3.2308
 7485TIP3    H222420   1.492   4.224   2.314 -2.0784 -1.2617  0.6936
 7486TIP3   OH222421   2.080   5.588   0.298  0.2604 -0.1927  0.3392
 7486TIP3    H122422   2.058   5.672   0.258 -0.6069 -0.4002  0.3645
 7486TIP3    H222423   2.142   5.610   0.368  0.3440  0.3741  0.0906
 7487TIP3   OH222424   5.693   3.121   0.307  0.8043  0.0091  0.1660
 7487TIP3    H122425   5.657   3.093   0.392 -1.1115  0.3143 -0.5026
 7487TIP3    H222426   5.746   3.047   0.278  0.7149 -0.4756  1.1862
 7488TIP3   OH222427   6.359   4.884   1.084 -0.0954  0.3422  0.1065
 7488TIP3    H122428   6.329   4.915   0.999 -1.8680  1.1527  0.9723
 7488TIP3    H222429   6.418   4.953   1.116  0.1487  0.2875 -0.2219
 7489TIP3   OH222430   3.155   2.909   2.972  0.2102  0.1992  0.2999
 7489TIP3    H122431   3.246   2.926   2.997 -0.2049 -1.1012  2.9073
 7489TIP3    H222432   3.162   2.866   2.886  2.0297  0.2545  0.3761
 7490TIP3   OH222433   2.091   4.515  -0.023 -0.1019  0.1985 -0.2887
 7490TIP3    H122434   2.038   4.438  -0.002  3.9868 -2.7687  0.5873
 7490TIP3    H222435   2.107   4.557   0.061 -0.6638  0.8538 -0.4969
 7491TIP3   OH222436   3.279   4.243   1.651  0.0125  0.1311 -0.2715
 7491TIP3    H122437   3.263   4.316   1.591 -0.2166  0.5491  0.2933
 7491TIP3    H222438   3.374   4.231   1.650 -0.1063 -1.1962 -2.2687
 7492TIP3   OH222439   2.601   2.567   3.792  0.5465 -0.1127 -0.9559
 7492TIP3    H122440   2.525   2.612   3.756  0.9975  0.6521 -0.9632
 7492TIP3    H222441   2.564   2.504   3.854 -0.0492  0.8579 -0.2932
 7493TIP3   OH222442   7.119   4.362   5.672 -0.4692 -0.3852 -0.2839
 7493TIP3    H122443   7.163   4.447   5.678  0.7594 -1.0116 -0.2087
 7493TIP3    H222444   7.178   4.308   5.620 -2.1286 -0.6577 -2.0346
 7494TIP3   OH222445   6.571   2.224   0.887  0.2074  0.2421 -0.1405
 7494TIP3    H122446   6.530   2.250   0.969  0.9696 -1.8422  0.9610
 7494TIP3    H222447   6.601   2.307   0.848 -1.3156  1.3842  1.0230
 7495TIP3   OH222448   0.369   3.065   0.088  0.1222 -0.0531 -0.7819
 7495TIP3    H122449   0.341   3.061  -0.003  0.4168 -0.2977 -0.8612
 7495TIP3    H222450   0.299   3.114   0.132 -0.7029 -1.1137 -0.8732
 7496TIP3   OH222451   2.676   4.145   1.729  0.2129 -0.2073  0.3338
 7496TIP3    H122452   2.725   4.182   1.803  1.0216 -0.6536  0.0362
 7496TIP3    H222453   2.658   4.219   1.672  2.3916 -0.3047 -0.5854
 7497TIP3   OH222454   0.066   2.162   5.301  0.2583 -0.0582  0.1153
 7497TIP3    H122455   0.123   2.238   5.314 -1.7242  1.2194  2.2643
 7497TIP3    H222456   0.061   2.122   5.388 -1.8541 -0.2538 -0.0583
 7498TIP3   OH222457   5.974   3.871   2.260  0.0996 -0.1212  0.3178
 7498TIP3    H122458   5.943   3.894   2.173 -0.1704 -0.1957  0.3950
 7498TIP3    H222459   6.069   3.868   2.251  0.0900  0.1966  0.1055
 7499TIP3   OH222460   0.324   1.661   4.100  0.3470 -0.2102  0.5475
 7499TIP3    H122461   0.291   1.670   4.190  0.8331 -2.2375  0.9891
 7499TIP3    H222462   0.403   1.716   4.097 -0.5046  1.0714  0.8642
 7500TIP3   OH222463   3.216   2.373   0.457  0.4431  0.3808 -0.4185
 7500TIP3    H122464   3.228   2.413   0.543 -1.3873  0.2652 -0.0687
 7500TIP3    H222465   3.129   2.400   0.430  0.2534 -1.1148 -1.4079
 7501TIP3   OH222466   0.412   3.462   5.671  1.4290 -0.3838  0.4052
 7501TIP3    H122467   0.432   3.426   5.585 -2.5547  0.6500 -1.1728
 7501TIP3    H222468   0.426   3.389   5.732  1.0990 -2.2237 -1.6125
 7502TIP3   OH222469   4.745   3.837   3.956  0.2808 -0.0059 -0.3871
 7502TIP3    H122470   4.750   3.861   4.048  0.5161 -0.0332 -0.3937
 7502TIP3    H222471   4.677   3.895   3.920 -1.4848 -1.5408  0.2898
 7503TIP3   OH222472   6.776   4.832   5.696  0.0522  0.1401 -0.7273
 7503TIP3    H122473   6.763   4.874   5.611 -1.0245  0.0857 -0.6006
 7503TIP3    H222474   6.689   4.832   5.737  0.3108 -0.9420 -0.1340
 7504TIP3   OH222475   0.806   5.531   2.640 -1.0689 -0.0036 -0.1657
 7504TIP3    H122476   0.749   5.553   2.714  1.2000  1.3541  1.3238
 7504TIP3    H222477   0.815   5.613   2.592  0.1025 -0.0134  0.0106
 7505TIP3   OH222478   5.311   1.805   3.085  0.7464 -0.6706  0.0607
 7505TIP3    H122479   5.383   1.861   3.114  0.2502 -0.4744  0.9549
 7505TIP3    H222480   5.316   1.807   2.989  0.3235  1.4867  0.0300
 7506TIP3   OH222481   2.155   0.863   5.157  0.1610 -0.6552 -0.2555
 7506TIP3    H122482   2.072   0.817   5.146 -0.7124  0.5924  0.6935
 7506TIP3    H222483   2.221   0.806   5.117 -1.4598 -0.5027 -3.4327
 7507TIP3   OH222484   2.219   3.460   3.780 -0.5147  0.0898  0.1339
 7507TIP3    H122485   2.288   3.521   3.806  1.1384 -2.0935  1.2378
 7507TIP3    H222486   2.213   3.470   3.685  1.7801 -0.0378 -0.0867
 7508TIP3   OH222487   3.821   1.389   3.654  0.6537 -0.0224  0.1091
 7508TIP3    H122488   3.879   1.378   3.730 -1.0608  1.6965  1.7672
 7508TIP3    H222489   3.829   1.306   3.606  1.6919 -1.2333  2.2186
 7509TIP3   OH222490   2.038   4.024   5.645 -0.1216 -0.1866 -0.0340
 7509TIP3    H122491   1.970   3.982   5.592 -0.3435  1.0304 -0.7473
 7509TIP3    H222492   2.045   4.113   5.610  2.1782 -0.4070 -0.3050
 7510TIP3   OH222493   6.094   2.143   4.015 -0.0009 -0.6787 -0.0236
 7510TIP3    H122494   6.111   2.136   4.109 -0.4740 -0.9984  0.0439
 7510TIP3    H222495   6.179   2.132   3.974  0.0835 -1.4116  0.3366
 7511TIP3   OH222496   0.910   4.619   1.278  0.5226 -0.1269  0.0975
 7511TIP3    H122497   0.819   4.595   1.295  1.1889 -2.3807  0.8232
 7511TIP3    H222498   0.959   4.574   1.347  2.0333  3.0543  1.3114
 7512TIP3   OH222499   5.608   2.156   2.769  0.2094  0.2621 -0.3293
 7512TIP3    H122500   5.679   2.092   2.775 -0.8444 -0.7955  1.6929
 7512TIP3    H222501   5.528   2.105   2.777 -0.6849  1.7829  1.0859
 7513TIP3   OH222502   5.081   4.350   1.982 -0.1739 -0.2456  0.6881
 7513TIP3    H122503   5.034   4.383   2.059  1.3673  2.4005  0.6221
 7513TIP3    H222504   5.150   4.294   2.018 -1.0478 -1.1311  1.0204
 7514TIP3   OH222505   6.470   1.250   4.676 -0.2208 -0.2006  0.0153
 7514TIP3    H122506   6.561   1.225   4.662 -0.7745 -1.7845 -1.0175
 7514TIP3    H222507   6.453   1.316   4.609  0.0416 -0.2221 -0.0727
 7515TIP3   OH222508   4.266   0.741   4.714 -0.4873  0.4614 -0.1755
 7515TIP3    H122509   4.357   0.732   4.742 -0.1810 -1.0881 -1.5465
 7515TIP3    H222510   4.271   0.756   4.619 -1.6892 -1.4244 -0.5881
 7516TIP3   OH222511   3.307   0.781   2.120  0.1982  0.4524  0.2348
 7516TIP3    H122512   3.365   0.705   2.112 -0.1773  0.3606 -2.5178
 7516TIP3    H222513   3.359   0.846   2.168  0.9809 -1.0641  1.5293
 7517TIP3   OH222514   1.137   5.935   1.603 -0.6908 -0.3384  0.1775
 7517TIP3    H122515   1.096   6.001   1.660  0.6929 -0.3932  1.2836
 7517TIP3    H222516   1.147   5.979   1.519 -1.4511  0.2415  0.3739
 7518TIP3   OH222517   4.597   3.149   3.644 -0.0936  0.2294 -0.0825
 7518TIP3    H122518   4.550   3.067   3.628  0.0196  0.1279  0.0926
 7518TIP3    H222519   4.686   3.121   3.667 -0.1240  0.3870  0.2335
 7519TIP3   OH222520   6.536   1.719   1.841 -0.2713 -0.6170 -0.1494
 7519TIP3    H122521   6.595   1.785   1.877 -0.7970  0.1276 -0.6171
 7519TIP3    H222522   6.593   1.644   1.821  0.5624  0.1469 -0.7592
 7520TIP3   OH222523   6.669   6.010   0.801 -0.2457 -0.1136 -0.6343
 7520TIP3    H122524   6.678   5.986   0.709  1.5170  0.2691 -0.5942
 7520TIP3    H222525   6.592   6.067   0.803  0.0232  0.3531 -1.9823
 7521TIP3   OH222526   4.319   4.167   0.506  0.6231  0.4884  0.1222
 7521TIP3    H122527   4.398   4.143   0.554  2.3363 -0.2625 -2.8069
 7521TIP3    H222528   4.260   4.093   0.518  0.6207  0.7261  1.7572
 7522TIP3   OH222529   4.244   3.007   0.121  0.1568  0.4410  0.0575
 7522TIP3    H122530   4.199   2.951   0.058 -0.2367  2.0624 -1.1592
 7522TIP3    H222531   4.307   2.950   0.164 -2.9335 -1.9943  1.8260
 7523TIP3   OH222532   2.393   0.501   3.721  0.4614 -0.0745 -0.2440
 7523TIP3    H122533   2.382   0.439   3.793  0.5103 -2.0397 -1.8454
 7523TIP3    H222534   2.426   0.581   3.763  1.7498 -1.5654  1.7528
 7524TIP3   OH222535   4.086   5.452   2.740  0.0892 -0.2563 -0.0226
 7524TIP3    H122536   4.134   5.404   2.807  0.0238  0.6436  0.6865
 7524TIP3    H222537   4.140   5.443   2.661  0.7144 -0.4190  0.4153
 7525TIP3   OH222538   3.034   2.643   0.137  0.2028 -0.1338  0.6114
 7525TIP3    H122539   2.997   2.577   0.195  1.5452 -0.0667  1.5944
 7525TIP3    H222540   3.055   2.717   0.194  1.1891  0.0977 -0.0145
 7526TIP3   OH222541   2.455   1.112   5.842 -0.0622 -0.2678  0.3497
 7526TIP3    H122542   2.377   1.071   5.803 -0.0173 -0.4654  0.4656
 7526TIP3    H222543   2.494   1.043   5.895 -0.0336 -0.0436  0.6195
 7527TIP3   OH222544   0.757   1.702   4.939  0.0462 -0.2101 -0.4349
 7527TIP3    H122545   0.663   1.683   4.940  0.1627 -0.9529  2.2198
 7527TIP3    H222546   0.763   1.797   4.930 -1.2609  0.5461  4.1281
 7528TIP3   OH222547   0.355   3.916   2.267 -0.7009  0.4424 -0.3539
 7528TIP3    H122548   0.323   3.977   2.200 -0.8026 -0.0716 -0.7794
 7528TIP3    H222549   0.439   3.952   2.294 -0.7692  0.7814 -0.5850
 7529TIP3   OH222550   4.281   3.575   4.588 -0.3053 -0.4536  0.1722
 7529TIP3    H122551   4.257   3.611   4.503  0.1850  1.0506  0.6392
 7529TIP3    H222552   4.202   3.584   4.641 -0.2741 -0.3473  0.2009
 7530TIP3   OH222553   0.271   3.589   1.230  0.1058 -0.6004  0.3218
 7530TIP3    H122554   0.334   3.634   1.285  0.6652  1.3004 -1.7053
 7530TIP3    H222555   0.186   3.627   1.254 -0.2417 -2.4572  2.3597
 7531TIP3   OH222556   0.810   2.239   5.803 -0.1140  0.3705  0.1356
 7531TIP3    H122557   0.753   2.227   5.727 -2.5860 -0.5269  1.9902
 7531TIP3    H222558   0.783   2.323   5.840  1.1793  0.8727 -0.0055
 7532TIP3   OH222559   2.319   4.415   2.913  0.4429  0.0259  0.3063
 7532TIP3    H122560   2.226   4.390   2.918  0.0457  1.3195 -0.1997
 7532TIP3    H222561   2.361   4.341   2.871 -0.3384 -0.6321  0.6479
 7533TIP3   OH222562   1.689   4.652   1.162  0.0850  0.6044 -0.3053
 7533TIP3    H122563   1.773   4.680   1.128  0.2729 -0.0417 -0.3723
 7533TIP3    H222564   1.634   4.641   1.085  0.5098 -0.8559 -0.4140
 7534TIP3   OH222565   2.055   1.759   5.167  0.8014 -0.1554 -0.1343
 7534TIP3    H122566   2.015   1.774   5.253  0.6692  0.3755 -0.2810
 7534TIP3    H222567   2.068   1.665   5.162 -2.5917 -0.7343 -0.9848
 7535TIP3   OH222568   3.340   1.847   2.516  0.0830  0.5029 -0.9692
 7535TIP3    H122569   3.340   1.774   2.578  0.4902  1.2752 -0.0236
 7535TIP3    H222570   3.318   1.924   2.570 -0.9818  0.9926 -2.0555
 7536TIP3   OH222571   0.188   6.104   3.455 -0.2400 -0.5577  0.4190
 7536TIP3    H122572   0.146   6.047   3.520  1.3930  0.3920  2.4358
 7536TIP3    H222573   0.260   6.052   3.421  0.7700 -0.0373  1.6814
 7537TIP3   OH222574   3.589   5.434   0.874 -0.0986 -0.2360 -0.0311
 7537TIP3    H122575   3.651   5.361   0.871 -1.1602 -1.1256 -2.1765
 7537TIP3    H222576   3.644   5.511   0.891  0.9523 -1.5178  3.1105
 7538TIP3   OH222577   2.195   2.591   1.527  0.1121 -0.0867 -0.6295
 7538TIP3    H122578   2.216   2.644   1.450  0.0729 -0.7231 -1.0806
 7538TIP3    H222579   2.130   2.528   1.496 -3.1725  2.2362  0.8361
 7539TIP3   OH222580   6.586   3.776   4.702 -0.4152 -0.1916  0.2963
 7539TIP3    H122581   6.681   3.790   4.697 -0.2629 -0.9349  0.9158
 7539TIP3    H222582   6.555   3.792   4.613  0.0897  1.4267  0.3876
 7540TIP3   OH222583   7.172   4.033   4.239 -0.0564  0.4586 -0.3538
 7540TIP3    H122584   7.167   4.128   4.251 -0.7518  0.2789  1.0646
 7540TIP3    H222585   7.263   4.016   4.216  0.1997  1.4281 -0.0943
 7541TIP3   OH222586   5.259   1.157   2.942  0.2201  0.1549  0.2572
 7541TIP3    H122587   5.166   1.159   2.920  0.2121 -0.7791  0.1456
 7541TIP3    H222588   5.263   1.101   3.020  0.4280  2.0896  1.7261
 7542TIP3   OH222589   0.846   3.375   5.013 -0.0671 -0.0680 -0.3851
 7542TIP3    H122590   0.844   3.450   4.954  0.0799 -0.8038 -1.3341
 7542TIP3    H222591   0.931   3.381   5.057 -0.2607  0.5928 -0.0832
 7543TIP3   OH222592   5.192   6.169   3.895  0.0737  0.6516 -0.8269
 7543TIP3    H122593   5.174   6.121   3.814 -0.5743 -4.1802  1.7968
 7543TIP3    H222594   5.288   6.169   3.901  0.0911 -0.5104 -0.8510
 7544TIP3   OH222595   6.765   2.095   5.540 -0.1696 -0.0023  0.1709
 7544TIP3    H122596   6.724   2.154   5.604 -0.1534  0.1741  0.0193
 7544TIP3    H222597   6.692   2.043   5.505 -0.2735  0.3599 -0.1505
 7545TIP3   OH222598   4.810   4.479   5.516  0.5950  0.1555 -0.4393
 7545TIP3    H122599   4.727   4.521   5.539  0.1217 -1.0425  0.1345
 7545TIP3    H222600   4.832   4.516   5.430  0.8153  2.4113  0.5201
 7546TIP3   OH222601   1.018   0.401   4.713 -0.4262 -0.4483 -0.4117
 7546TIP3    H122602   0.974   0.460   4.774  0.7090 -0.2379  0.2370
 7546TIP3    H222603   1.111   0.422   4.723 -0.0097 -2.1749 -0.3335
 7547TIP3   OH222604   5.688   0.703   0.751  0.2105 -0.0940 -0.1454
 7547TIP3    H122605   5.604   0.730   0.714  0.2529  1.2239  0.6411
 7547TIP3    H222606   5.682   0.728   0.844  0.5126 -2.3103  0.5138
 7548TIP3   OH222607   6.834   3.384   4.790 -0.5882 -0.5193 -0.0653
 7548TIP3    H122608   6.758   3.430   4.753 -0.5150  0.1064  0.5534
 7548TIP3    H222609   6.863   3.325   4.719 -0.9612  0.0531 -0.7060
 7549TIP3   OH222610   6.133   3.566   1.590  0.3346  0.2515  0.1109
 7549TIP3    H122611   6.201   3.631   1.608 -0.5317  0.6507  2.3408
 7549TIP3    H222612   6.066   3.613   1.541  0.6333  0.4743 -0.0821
 7550TIP3   OH222613   0.193   0.497   1.890  0.2011 -0.4635 -0.1472
 7550TIP3    H122614   0.161   0.428   1.948  2.4964 -1.9929 -0.5787
 7550TIP3    H222615   0.231   0.562   1.948  1.4818 -1.4486  0.1604
 7551TIP3   OH222616   5.214   0.835   4.177 -0.0874 -0.2749  0.1865
 7551TIP3    H122617   5.142   0.799   4.229 -1.1139  0.4937 -0.6549
 7551TIP3    H222618   5.235   0.766   4.114 -1.2950  0.1203 -0.6963
 7552TIP3   OH222619   3.468   2.764   1.620  0.3241  0.0576 -0.3790
 7552TIP3    H122620   3.384   2.797   1.651  0.2633 -0.2776 -0.1773
 7552TIP3    H222621   3.470   2.789   1.527 -0.8610 -1.5762 -0.9056
 7553TIP3   OH222622   7.069   4.378   0.820 -0.4508 -0.2559 -0.2061
 7553TIP3    H122623   7.016   4.410   0.747 -1.7624  0.3584  0.9669
 7553TIP3    H222624   7.046   4.285   0.828  1.1437 -0.8327 -1.7462
 7554TIP3   OH222625   3.294   6.784   2.435  0.0522  0.1910  0.2065
 7554TIP3    H122626   3.308   6.741   2.519 -0.3006 -0.4393 -0.0530
 7554TIP3    H222627   3.200   6.800   2.431 -0.2662 -1.5728 -0.8921
 7555TIP3   OH222628   2.361   2.984   0.570  0.4312 -0.3693  0.1559
 7555TIP3    H122629   2.331   2.932   0.645  0.4370 -1.7428 -0.7573
 7555TIP3    H222630   2.450   3.011   0.593  0.0955  0.0236  1.0294
 7556TIP3   OH222631   1.438   5.879   5.392  0.3346 -0.0109 -0.2858
 7556TIP3    H122632   1.491   5.955   5.367  0.0769  0.0445 -0.6691
 7556TIP3    H222633   1.347   5.907   5.380  0.2307 -0.2896 -0.1742
 7557TIP3   OH222634   1.620   3.479   4.640 -0.0628 -0.2732  0.1435
 7557TIP3    H122635   1.570   3.418   4.695  0.3233  0.1101  0.9303
 7557TIP3    H222636   1.631   3.432   4.557  0.8850 -1.6010  0.9725
 7558TIP3   OH222637   3.955   5.669   3.445  0.5364 -0.0228 -0.8232
 7558TIP3    H122638   3.875   5.708   3.479  2.1633  2.5811  0.3472
 7558TIP3    H222639   3.951   5.686   3.351 -0.3172 -0.0022 -0.7930
 7559TIP3   OH222640   2.269   5.160   0.572 -0.0065 -0.1172  0.3795
 7559TIP3    H122641   2.246   5.198   0.487  0.9815  0.4543  0.3599
 7559TIP3    H222642   2.232   5.221   0.636 -0.3590 -0.3125  0.3679
 7560TIP3   OH222643   4.238   2.626   5.845 -0.1662 -0.4095 -0.3704
 7560TIP3    H122644   4.170   2.619   5.911 -0.8079  1.9069 -0.6709
 7560TIP3    H222645   4.317   2.594   5.887 -0.4614  1.3750  1.7332
 7561TIP3   OH222646   6.584   2.678   5.003 -0.1259 -0.5200  0.2849
 7561TIP3    H122647   6.612   2.767   5.023 -1.4778 -0.2109  0.8799
 7561TIP3    H222648   6.602   2.628   5.083  2.0304 -1.1728 -0.5315
 7562TIP3   OH222649   6.092   2.683   4.175 -0.3124 -0.6521 -0.1834
 7562TIP3    H122650   6.073   2.593   4.204 -1.7599 -0.5418 -0.7278
 7562TIP3    H222651   6.110   2.674   4.081  0.2043 -0.4582 -0.1035
 7563TIP3   OH222652   3.466   4.122   2.038 -0.1895  0.0516  0.4934
 7563TIP3    H122653   3.492   4.059   2.105 -2.1234 -1.7898 -0.3585
 7563TIP3    H222654   3.506   4.088   1.957  0.1616  0.9028  0.2972
 7564TIP3   OH222655   3.371   5.493   0.711 -0.1214  0.7386  0.4073
 7564TIP3    H122656   3.437   5.486   0.779 -0.2965 -2.8405  0.3988
 7564TIP3    H222657   3.417   5.469   0.630 -1.2473 -1.5264  0.3585
 7565TIP3   OH222658   5.418   0.586   2.325 -0.0038 -0.2956 -0.0843
 7565TIP3    H122659   5.442   0.641   2.399 -0.8445 -0.7125  0.5209
 7565TIP3    H222660   5.336   0.624   2.293  0.6890  0.2899 -1.2482
 7566TIP3   OH222661   0.159   1.111   2.172 -0.7858  0.2515 -0.5584
 7566TIP3    H122662   0.110   1.044   2.220 -0.7214  0.6967  0.1430
 7566TIP3    H222663   0.224   1.143   2.234  1.7215 -1.6371 -2.0232
 7567TIP3   OH222664   3.881   2.358   5.269 -0.4121 -0.5246 -0.6463
 7567TIP3    H122665   3.913   2.433   5.319 -1.5639  0.6877 -1.6804
 7567TIP3    H222666   3.950   2.292   5.279  0.3933  0.4788  0.6900
 7568TIP3   OH222667   3.462   6.113   5.110 -0.2893 -0.3151 -0.3505
 7568TIP3    H122668   3.410   6.103   5.029 -0.2125 -1.7660 -0.2434
 7568TIP3    H222669   3.401   6.090   5.180 -1.4348  4.1525  0.4263
 7569TIP3   OH222670   4.932   2.273   4.705  0.5134  0.4668  0.5638
 7569TIP3    H122671   4.852   2.225   4.726  0.0908  1.6799  1.8620
 7569TIP3    H222672   5.003   2.212   4.722 -0.0883 -0.3082  0.3299
 7570TIP3   OH222673   2.992   1.455   0.595 -0.0095 -0.5040  0.0574
 7570TIP3    H122674   2.941   1.470   0.675 -0.2703  2.1580 -0.5235
 7570TIP3    H222675   3.078   1.493   0.614  0.1885 -0.5731 -0.6633
 7571TIP3   OH222676   4.108   6.056   4.875  0.1767 -0.4647  0.0527
 7571TIP3    H122677   4.054   6.074   4.798  0.7196 -0.8407 -0.4241
 7571TIP3    H222678   4.056   6.087   4.949 -0.8072 -1.0380 -0.3749
 7572TIP3   OH222679   3.008   6.464   1.885  0.0285 -0.1445 -0.0308
 7572TIP3    H122680   3.003   6.441   1.978  0.4039  0.3923  0.1277
 7572TIP3    H222681   2.960   6.546   1.878  0.0774 -0.1373 -0.2978
 7573TIP3   OH222682   2.745   4.257   5.346  0.1782 -0.1272 -0.6177
 7573TIP3    H122683   2.662   4.275   5.390 -0.9080 -1.5145 -2.0126
 7573TIP3    H222684   2.773   4.173   5.382  0.9607  0.2774 -0.2389
 7574TIP3   OH222685   1.069   5.491   3.334  0.5116  0.6549  0.0525
 7574TIP3    H122686   1.017   5.543   3.395 -0.6362  0.6607 -0.8942
 7574TIP3    H222687   1.022   5.407   3.328  1.0037  0.3982 -0.2780
 7575TIP3   OH222688   3.169   5.167   1.776  0.2476  0.6984  0.4613
 7575TIP3    H122689   3.127   5.173   1.862 -0.4948  0.2552  0.1382
 7575TIP3    H222690   3.097   5.165   1.714  0.7958  2.8760 -0.3343
 7576TIP3   OH222691   1.986   5.665   2.796 -0.0978  1.0437 -0.1147
 7576TIP3    H122692   1.947   5.603   2.857 -1.0784  3.2861  1.6596
 7576TIP3    H222693   1.996   5.615   2.714 -1.9812 -1.0602  0.8491
 7577TIP3   OH222694   6.527   0.125   3.440 -0.0348 -0.1920  0.0973
 7577TIP3    H122695   6.581   0.150   3.365 -0.8407  1.6776  0.0717
 7577TIP3    H222696   6.438   0.145   3.413 -0.7835 -2.9257  0.2571
 7578TIP3   OH222697   2.968   3.928   3.062  0.1558 -0.0709  0.3507
 7578TIP3    H122698   2.888   3.939   3.113  0.6587  2.8822  0.6807
 7578TIP3    H222699   3.035   3.906   3.126 -0.0034 -0.5031  0.3677
 7579TIP3   OH222700   0.165   1.280   4.997 -0.3817  0.1089 -0.1868
 7579TIP3    H122701   0.196   1.258   4.909 -0.0993 -1.4714  0.2558
 7579TIP3    H222702   0.218   1.355   5.023  0.7119 -0.4277 -0.7643
 7580TIP3   OH222703   0.264   4.158   4.001  0.5618  0.2275  0.1442
 7580TIP3    H122704   0.240   4.075   4.043 -1.1695  0.2187 -0.7780
 7580TIP3    H222705   0.350   4.141   3.962  0.3704 -1.0334  0.2321
 7581TIP3   OH222706   6.591   0.275   3.993 -0.5111  0.0766 -0.0606
 7581TIP3    H122707   6.503   0.240   3.978 -0.9218  0.1829  1.8184
 7581TIP3    H222708   6.628   0.287   3.905 -1.7420 -1.5358 -0.8460
 7582TIP3   OH222709   0.294   6.000   3.775 -0.4048 -0.1205 -0.1215
 7582TIP3    H122710   0.262   6.011   3.864 -0.4269 -0.8301 -0.0401
 7582TIP3    H222711   0.216   5.982   3.723 -0.4340  0.6306 -0.3457
 7583TIP3   OH222712   6.835   0.968   2.002 -0.2640  0.1400 -0.2033
 7583TIP3    H122713   6.811   0.995   2.091  0.1403 -1.4604  0.4219
 7583TIP3    H222714   6.844   0.873   2.007  1.4791  0.1779 -1.5362
 7584TIP3   OH222715   2.268   6.315   0.521 -0.1940 -0.5916  0.1408
 7584TIP3    H122716   2.283   6.221   0.529 -0.1575 -0.6225 -0.2544
 7584TIP3    H222717   2.306   6.338   0.436 -1.4251 -0.4676 -0.3980
 7585TIP3   OH222718   5.127   1.397   5.788  0.4338 -0.0622  0.4153
 7585TIP3    H122719   5.219   1.422   5.793  0.1921  0.9621 -0.1965
 7585TIP3    H222720   5.093   1.412   5.877  0.6389  0.4103  0.4145
 7586TIP3   OH222721   1.447   4.040   1.242 -0.4403  0.5576  0.0487
 7586TIP3    H122722   1.471   4.009   1.330 -1.1824  1.1342  0.4611
 7586TIP3    H222723   1.359   4.005   1.228 -0.6455  1.1510 -0.1320
 7587TIP3   OH222724   5.826   5.146   0.039  0.2038  0.8730 -0.0841
 7587TIP3    H122725   5.829   5.080   0.109  2.7971 -0.9935 -1.7359
 7587TIP3    H222726   5.743   5.131  -0.005 -0.7683  1.0459  1.6069
 7588TIP3   OH222727   2.643   2.551   0.171  0.1830  0.4285 -0.1797
 7588TIP3    H122728   2.555   2.545   0.209  0.3448 -0.9964  0.0294
 7588TIP3    H222729   2.701   2.561   0.246  0.2623  0.7053 -0.2750
 7589TIP3   OH222730   4.664   3.477   4.255  0.3265 -0.2222 -0.1151
 7589TIP3    H122731   4.602   3.538   4.216  0.7953 -0.1171 -0.7293
 7589TIP3    H222732   4.615   3.432   4.323 -0.1706  0.4747  0.0010
 7590TIP3   OH222733   4.367   2.388   0.947  0.0150 -0.2646  0.2348
 7590TIP3    H122734   4.392   2.435   1.026 -0.5130 -3.2307  2.3297
 7590TIP3    H222735   4.438   2.405   0.885  1.0778  1.1448  1.7865
 7591TIP3   OH222736   0.664   2.486   3.200  0.0507 -0.3954  0.0251
 7591TIP3    H122737   0.652   2.426   3.274  0.7417  0.2413  0.6661
 7591TIP3    H222738   0.695   2.568   3.239 -1.9667  0.8004 -0.6912
 7592TIP3   OH222739   4.204   0.439   0.621 -0.2936  0.1095  0.4640
 7592TIP3    H122740   4.239   0.528   0.610  0.2124  0.0548  1.5180
 7592TIP3    H222741   4.267   0.395   0.678  0.7924 -1.7419 -2.0335
 7593TIP3   OH222742   1.152   5.319   5.100 -0.0966  0.1803  0.0297
 7593TIP3    H122743   1.215   5.272   5.155 -0.7390  0.1374  0.7378
 7593TIP3    H222744   1.067   5.284   5.126 -0.4028  0.0409 -1.1103
 7594TIP3   OH222745   5.469   2.328   3.155  0.5138 -0.2680  0.0257
 7594TIP3    H122746   5.445   2.416   3.184 -1.8436  0.3781 -3.3710
 7594TIP3    H222747   5.559   2.337   3.124  0.5755  0.7296  0.4685
 7595TIP3   OH222748   7.162   2.523   3.063 -0.3595  0.0745  0.0866
 7595TIP3    H122749   7.116   2.483   2.989 -1.4072 -1.1565  1.3695
 7595TIP3    H222750   7.202   2.450   3.109 -1.7254  0.5269  2.0906
 7596TIP3   OH222751   3.838  -0.008   3.987 -0.0550  0.7319  0.5764
 7596TIP3    H122752   3.779   0.067   3.970  0.9365  1.2426 -0.7855
 7596TIP3    H222753   3.850  -0.048   3.901  1.7238  0.7528  0.7948
 7597TIP3   OH222754   0.621   0.463   4.615 -0.0481 -0.0499 -0.2006
 7597TIP3    H122755   0.697   0.496   4.661 -0.6843  2.2648 -0.6903
 7597TIP3    H222756   0.551   0.459   4.681  0.0937 -0.7167 -0.0840
 7598TIP3   OH222757   6.733   5.840   3.099 -0.2630 -0.1091 -0.4400
 7598TIP3    H122758   6.667   5.795   3.153  1.2716  0.5963  2.2401
 7598TIP3    H222759   6.733   5.793   3.016 -0.0539 -3.9045  1.5161
 7599TIP3   OH222760   6.326   2.861   1.896  0.4516 -0.5430 -0.3123
 7599TIP3    H122761   6.251   2.900   1.942  0.6986 -0.9722  0.4809
 7599TIP3    H222762   6.329   2.907   1.812  0.5846  0.9791  0.4906
 7600TIP3   OH222763   1.956   4.965   4.466  0.2134 -0.3911  1.0382
 7600TIP3    H122764   2.027   4.919   4.512  0.4338  0.2694  1.3762
 7600TIP3    H222765   1.909   4.896   4.420  1.1938 -0.8313  0.6537
 7601TIP3   OH222766   0.690   0.721   1.195  0.5194 -0.1924  0.3512
 7601TIP3    H122767   0.671   0.636   1.235 -1.2296  0.2732  0.5813
 7601TIP3    H222768   0.750   0.700   1.123 -0.8041 -1.8046 -0.3532
 7602TIP3   OH222769   5.398   2.621   0.760 -0.3238 -0.2090 -0.3812
 7602TIP3    H122770   5.335   2.693   0.754 -0.4274 -0.2238  0.5324
 7602TIP3    H222771   5.348   2.543   0.736 -0.3520 -0.0610 -0.8137
 7603TIP3   OH222772   4.467   1.635   3.698  0.4180  0.1275  0.2392
 7603TIP3    H122773   4.562   1.622   3.687  0.4994  0.4769  0.4996
 7603TIP3    H222774   4.427   1.565   3.646  0.8193 -0.0182  0.1202
 7604TIP3   OH222775   3.701   6.285   0.312 -0.7327 -0.2305 -0.3462
 7604TIP3    H122776   3.660   6.370   0.296  0.0471  0.3386  0.5230
 7604TIP3    H222777   3.652   6.248   0.385 -1.3201 -0.7153 -0.9765
 7605TIP3   OH222778   4.760   2.588   2.712  0.3213  0.2201  0.1937
 7605TIP3    H122779   4.841   2.560   2.754  1.3334  2.9900  0.3266
 7605TIP3    H222780   4.785   2.606   2.621 -0.6111 -0.7249 -0.2612
 7606TIP3   OH222781   4.515   5.412   2.203  0.4853  0.9147  0.3479
 7606TIP3    H122782   4.428   5.440   2.231 -0.1442 -0.7445  0.1049
 7606TIP3    H222783   4.512   5.317   2.204  1.8672  0.8170 -0.9872
 7607TIP3   OH222784   2.328   2.580   4.955  0.0541 -0.1447  0.4030
 7607TIP3    H122785   2.259   2.643   4.939 -0.0355 -0.1082  0.9293
 7607TIP3    H222786   2.348   2.543   4.869  0.4819  0.9805  0.0078
 7608TIP3   OH222787   3.324   3.184   3.846 -0.8510 -0.8734 -0.8404
 7608TIP3    H122788   3.270   3.235   3.906 -0.8597 -0.7325 -0.9662
 7608TIP3    H222789   3.323   3.095   3.881  0.3771 -0.4994  0.2377
 7609TIP3   OH222790   1.711   5.625   3.066 -0.3712 -0.5388 -0.5202
 7609TIP3    H122791   1.763   5.575   3.003 -0.9435  0.5755 -1.9324
 7609TIP3    H222792   1.626   5.637   3.023 -0.8111  0.1858  0.5068
 7610TIP3   OH222793   6.675   1.473   1.896  0.4676 -0.1302 -0.4679
 7610TIP3    H122794   6.737   1.462   1.968 -0.8348  2.1825  1.1186
 7610TIP3    H222795   6.607   1.407   1.912  1.4230 -1.3036 -1.0690
 7611TIP3   OH222796   3.923   4.056   0.759  0.0097 -0.7135 -0.5289
 7611TIP3    H122797   3.984   4.082   0.828  0.7974  1.4963 -1.9578
 7611TIP3    H222798   3.972   3.993   0.706 -0.5457 -2.3003  0.7324
 7612TIP3   OH222799   4.494   4.872   0.863  0.2517  0.2165 -0.6024
 7612TIP3    H122800   4.442   4.827   0.796  0.6336 -0.7219 -0.2887
 7612TIP3    H222801   4.546   4.936   0.815 -1.4072  1.4310 -0.8959
 7613TIP3   OH222802   4.621   2.806   2.783 -0.0454  0.3767 -0.1845
 7613TIP3    H122803   4.657   2.718   2.772 -1.2217 -0.2943  0.9444
 7613TIP3    H222804   4.652   2.855   2.708  2.0451 -0.5242  0.0419
 7614TIP3   OH222805   0.312   3.132   1.859 -0.5661 -0.2180 -0.1122
 7614TIP3    H122806   0.354   3.204   1.811 -0.4203 -0.8932 -1.0138
 7614TIP3    H222807   0.343   3.144   1.949  0.1971  0.3076 -0.4250
 7615TIP3   OH222808   6.972   2.242   4.690 -0.3175 -0.1233 -0.1771
 7615TIP3    H122809   6.879   2.261   4.702 -0.3095 -0.1155 -0.1310
 7615TIP3    H222810   7.015   2.326   4.699 -0.0777 -0.4110  1.9103
 7616TIP3   OH222811   3.775   0.365   1.382  0.1651  0.3400 -0.2753
 7616TIP3    H122812   3.870   0.367   1.370  0.4033  1.6535  1.3865
 7616TIP3    H222813   3.750   0.275   1.360  1.7221  0.0625 -1.0981
 7617TIP3   OH222814   1.537   6.590   0.656 -0.3343  0.0538  0.1030
 7617TIP3    H122815   1.584   6.672   0.647 -1.1768  0.7087  1.3757
 7617TIP3    H222816   1.582   6.529   0.597  1.4914  0.8945  0.5756
 7618TIP3   OH222817   6.279   3.290   3.403  0.2064 -0.6578  0.2405
 7618TIP3    H122818   6.203   3.308   3.348  0.3976 -1.3329 -0.2649
 7618TIP3    H222819   6.245   3.285   3.492  0.0146  1.2827  0.3128
 7619TIP3   OH222820   5.040   5.123   2.524 -0.1280  0.2294 -0.0708
 7619TIP3    H122821   5.056   5.053   2.461  3.0320  0.8968 -0.1656
 7619TIP3    H222822   5.011   5.197   2.471  0.3568  0.1299 -0.4801
 7620TIP3   OH222823   5.322   0.308   3.754 -0.7520  0.0786 -0.3623
 7620TIP3    H122824   5.401   0.295   3.702  1.2911  0.5594  2.4169
 7620TIP3    H222825   5.262   0.355   3.695  0.7297 -0.8671 -2.7629
 7621TIP3   OH222826   3.708   4.820   1.767 -0.3472  0.1529  0.1404
 7621TIP3    H122827   3.644   4.889   1.783  1.0182  1.9562 -1.6412
 7621TIP3    H222828   3.768   4.826   1.841  0.3055  1.5993 -0.4671
 7622TIP3   OH222829   1.668   4.482   0.601  0.1388  0.0131  0.4236
 7622TIP3    H122830   1.761   4.502   0.591  0.5031 -1.2020  1.1666
 7622TIP3    H222831   1.641   4.531   0.679  0.4680 -0.5745  0.9174
 7623TIP3   OH222832   0.130   0.558   1.442  0.5459 -0.5577  0.0335
 7623TIP3    H122833   0.112   0.479   1.493  1.2806 -0.7273  0.0441
 7623TIP3    H222834   0.174   0.617   1.503  0.2150 -0.2298 -0.0412
 7624TIP3   OH222835   7.079   5.917   4.106 -0.1315  0.4601 -0.2911
 7624TIP3    H122836   7.152   5.867   4.143 -0.0253  0.4750 -0.4786
 7624TIP3    H222837   7.075   5.997   4.159 -0.0151  0.4575 -0.2794
 7625TIP3   OH222838   0.679   5.445   1.706  0.5945 -0.0004 -0.1137
 7625TIP3    H122839   0.652   5.378   1.644  0.5492  0.8877 -1.0954
 7625TIP3    H222840   0.613   5.444   1.775 -1.3382  1.2982 -1.8271
 7626TIP3   OH222841   5.617   1.547   3.658  0.2998  0.0550 -0.1279
 7626TIP3    H122842   5.643   1.620   3.602  2.5374 -0.9564 -0.5393
 7626TIP3    H222843   5.558   1.585   3.723  2.5808  2.5702  0.6356
 7627TIP3   OH222844   6.677   1.845   5.115 -0.1948 -0.0092  0.3241
 7627TIP3    H122845   6.673   1.750   5.119  0.6509 -0.0754 -0.0449
 7627TIP3    H222846   6.771   1.865   5.124 -0.0840  0.6561 -1.9055
 7628TIP3   OH222847   6.014   4.690   1.395  0.3557 -0.6714 -0.3974
 7628TIP3    H122848   6.104   4.660   1.410  0.9845  1.5133  0.4993
 7628TIP3    H222849   6.016   4.730   1.308  0.4655  0.0826 -0.0539
 7629TIP3   OH222850   0.296   0.046   0.019  0.1495  0.3366 -0.0156
 7629TIP3    H122851   0.226  -0.013   0.046 -0.0915  0.8571  0.5151
 7629TIP3    H222852   0.253   0.131   0.008  0.9003  0.9929  1.6626
 7630TIP3   OH222853   0.623   2.968   5.586 -0.0235 -0.1875 -0.2178
 7630TIP3    H122854   0.544   2.950   5.534 -1.6278  3.0562  0.7611
 7630TIP3    H222855   0.609   2.920   5.667 -0.0262 -1.1770 -0.7910
 7631TIP3   OH222856   3.651   3.607   0.217 -0.0115 -0.2115  0.4643
 7631TIP3    H122857   3.599   3.562   0.150 -0.1288 -1.6615  1.4892
 7631TIP3    H222858   3.608   3.693   0.226  0.6288  0.4743 -2.0130
 7632TIP3   OH222859   4.196   6.214   3.907 -0.4492 -0.3882  0.0097
 7632TIP3    H122860   4.246   6.277   3.959 -0.6420  0.5336 -0.8948
 7632TIP3    H222861   4.118   6.262   3.879 -1.0272 -1.3002  0.0200
 7633TIP3   OH222862   5.446   5.958   5.729 -0.0274  0.1577 -0.0074
 7633TIP3    H122863   5.445   5.953   5.825 -2.4227  1.2764  0.1026
 7633TIP3    H222864   5.414   5.873   5.700 -0.1383  0.1208  0.2214
 7634TIP3   OH222865   0.962   5.543   0.472  0.1842  0.3299 -0.4650
 7634TIP3    H122866   0.935   5.472   0.531 -1.0172  1.2555  0.1592
 7634TIP3    H222867   0.976   5.500   0.388 -0.5983 -0.6425 -0.1247
 7635TIP3   OH222868   4.298   6.549   3.691  0.0249 -0.2326 -0.3000
 7635TIP3    H122869   4.241   6.604   3.637 -0.1181 -0.7662 -0.6991
 7635TIP3    H222870   4.376   6.603   3.706 -0.5429  0.4691  0.1801
 7636TIP3   OH222871   1.162   3.691   2.755 -0.5264  0.1868  0.4965
 7636TIP3    H122872   1.182   3.745   2.678 -1.9887 -0.1599 -0.1540
 7636TIP3    H222873   1.071   3.666   2.743 -0.4656 -0.7310  1.8418
 7637TIP3   OH222874   1.700   6.384   5.306 -0.0490 -0.1712  0.2606
 7637TIP3    H122875   1.723   6.413   5.218  1.4288 -0.4212  0.5424
 7637TIP3    H222876   1.623   6.436   5.329  0.4465  0.9822 -0.6044
 7638TIP3   OH222877   6.514   3.999   1.297 -0.1743  0.9793 -0.4651
 7638TIP3    H122878   6.545   4.030   1.382  0.9032  0.8034 -0.7825
 7638TIP3    H222879   6.587   4.015   1.237 -1.1284  1.6568 -1.4993
 7639TIP3   OH222880   1.942   1.969   5.011  0.3753 -0.2976 -0.3432
 7639TIP3    H122881   1.972   1.882   5.038 -3.2693 -3.1072 -4.1405
 7639TIP3    H222882   1.866   1.987   5.067  0.9656  0.4266  0.2582
 7640TIP3   OH222883   2.748   3.859   0.880  0.7673  0.0224  0.1318
 7640TIP3    H122884   2.759   3.931   0.941  0.0478 -0.2217  0.5681
 7640TIP3    H222885   2.795   3.886   0.801 -1.0011  1.8142 -0.3995
 7641TIP3   OH222886   2.259   3.155   1.629 -0.1840  0.6834 -0.2832
 7641TIP3    H122887   2.317   3.080   1.618  0.2943  0.8322  1.0328
 7641TIP3    H222888   2.243   3.186   1.540 -1.0500 -1.4464 -0.9365
 7642TIP3   OH222889   7.151   1.401   5.197  0.4202 -0.6226 -0.1577
 7642TIP3    H122890   7.188   1.413   5.109  2.0167 -3.0256  0.0856
 7642TIP3    H222891   7.205   1.456   5.254 -1.2284  1.7087 -0.7208
 7643TIP3   OH222892   1.984   1.451   3.263  0.1775  0.3595  0.0576
 7643TIP3    H122893   1.905   1.481   3.218 -0.9940  0.2946  1.9535
 7643TIP3    H222894   2.038   1.530   3.272  0.3033  0.4247 -1.1802
 7644TIP3   OH222895   6.265   6.172   0.985 -0.2139 -0.2230 -0.3095
 7644TIP3    H122896   6.193   6.111   0.970 -0.5027  0.4039 -1.6782
 7644TIP3    H222897   6.225   6.259   0.973  0.8208  0.1243 -1.4328
 7645TIP3   OH222898   3.267   1.111   4.307 -0.4618 -0.6565  0.0762
 7645TIP3    H122899   3.345   1.068   4.343 -0.9707 -0.7367  1.1216
 7645TIP3    H222900   3.195   1.082   4.364 -1.1122  0.1125 -0.3345
 7646TIP3   OH222901   5.388   0.917   0.245 -0.0536 -0.0716  0.7836
 7646TIP3    H122902   5.444   0.994   0.239 -1.6275  1.1328  0.7637
 7646TIP3    H222903   5.300   0.950   0.224 -0.9710 -1.6310  1.9854
 7647TIP3   OH222904   4.498   0.604   5.523 -0.2971 -0.5490  0.1347
 7647TIP3    H122905   4.460   0.622   5.609  0.5339  2.8040 -0.0876
 7647TIP3    H222906   4.586   0.571   5.542 -0.1953 -0.0356  0.5711
 7648TIP3   OH222907   5.722   5.085   1.184 -0.2098 -0.4776 -0.0683
 7648TIP3    H122908   5.686   5.115   1.268  0.5665 -0.9966  0.4675
 7648TIP3    H222909   5.676   5.002   1.167  1.0433 -1.4073  0.8758
 7649TIP3   OH222910   1.960   3.929   0.932 -0.4460  0.2918 -0.1539
 7649TIP3    H122911   1.896   3.889   0.990 -0.2573 -0.2287 -0.2960
 7649TIP3    H222912   1.908   3.976   0.866 -0.6568  1.3742  0.7574
 7650TIP3   OH222913   5.333   5.262   2.980 -0.7384  0.6698  0.7387
 7650TIP3    H122914   5.285   5.264   2.897 -0.5089 -0.3890  0.5555
 7650TIP3    H222915   5.302   5.182   3.023 -0.1864  0.7256  1.2505
 7651TIP3   OH222916   4.293   0.318   0.377  0.9526 -0.4865 -0.0808
 7651TIP3    H122917   4.301   0.351   0.466 -2.2215  0.9706 -0.2063
 7651TIP3    H222918   4.327   0.389   0.322 -0.0249 -0.0448 -0.1246
 7652TIP3   OH222919   4.553   5.378   4.513 -0.5120 -0.6209  0.1262
 7652TIP3    H122920   4.532   5.464   4.479 -2.2195 -1.4496 -1.0853
 7652TIP3    H222921   4.500   5.369   4.592  0.2804 -0.2777  0.7096
 7653TIP3   OH222922   0.615   1.341   0.717  0.1207  0.3549 -0.3926
 7653TIP3    H122923   0.697   1.387   0.701 -1.0860  2.0483 -2.2903
 7653TIP3    H222924   0.590   1.366   0.806  1.6721 -0.2499  0.2308
 7654TIP3   OH222925   6.853   2.164   0.915 -0.1471  0.2143 -0.7251
 7654TIP3    H122926   6.759   2.164   0.893 -0.3177  0.3848 -0.0246
 7654TIP3    H222927   6.895   2.121   0.841 -0.9484 -1.2518 -0.3635
 7655TIP3   OH222928   2.677   5.797   5.529 -0.5375 -0.0351  0.2432
 7655TIP3    H122929   2.590   5.827   5.504 -0.4589 -0.1991 -0.2163
 7655TIP3    H222930   2.737   5.851   5.478 -0.3643  0.1192  0.6017
 7656TIP3   OH222931   3.435   5.801   0.549  0.3469  0.4709 -0.2906
 7656TIP3    H122932   3.392   5.787   0.634  0.5420 -0.1344 -0.2851
 7656TIP3    H222933   3.424   5.718   0.503 -0.8634  1.1914 -1.3664
 7657TIP3   OH222934   4.077   5.588   5.487  0.0020 -0.1897  0.3543
 7657TIP3    H122935   4.128   5.635   5.421 -1.5899  0.4164 -0.4869
 7657TIP3    H222936   4.142   5.534   5.533  1.1483 -0.8070 -1.8311
 7658TIP3   OH222937   6.616   4.365   3.895 -0.2347 -0.6941 -0.2464
 7658TIP3    H122938   6.530   4.355   3.937 -0.5453  0.3713 -0.5995
 7658TIP3    H222939   6.606   4.323   3.809 -0.4006 -0.5739 -0.2856
 7659TIP3   OH222940   1.854   5.018   3.074 -0.5108  0.1542  0.4051
 7659TIP3    H122941   1.784   5.041   3.136 -1.8859  0.6948 -1.2682
 7659TIP3    H222942   1.811   4.964   3.008  0.6011  0.6287 -0.7559
 7660TIP3   OH222943   1.611   0.567   3.778  0.4058  0.3458 -0.2901
 7660TIP3    H122944   1.656   0.582   3.861  0.9202 -1.5961 -0.1604
 7660TIP3    H222945   1.520   0.550   3.803  0.4680  0.1997 -0.1596
 7661TIP3   OH222946   1.753   2.897   2.576  0.3245  0.1682 -0.3314
 7661TIP3    H122947   1.780   2.968   2.518  3.9344 -0.3024  0.5546
 7661TIP3    H222948   1.771   2.929   2.664  0.3668 -1.1870  0.1831
 7662TIP3   OH222949   4.030   2.751   4.856  0.4108 -0.4942 -0.0562
 7662TIP3    H122950   4.069   2.837   4.842  0.1964 -0.3144  0.4181
 7662TIP3    H222951   3.937   2.768   4.867  0.4246 -0.7335  0.4781
 7663TIP3   OH222952   4.260   6.089   5.744  0.0808  0.1062 -0.4160
 7663TIP3    H122953   4.300   6.048   5.821 -1.1302  0.8012  0.6327
 7663TIP3    H222954   4.327   6.083   5.676  0.1196 -3.2495 -0.2601
 7664TIP3   OH222955   6.216   3.651   3.521  0.3196  0.1913 -0.3526
 7664TIP3    H122956   6.152   3.707   3.565 -1.0521 -1.1155 -0.6131
 7664TIP3    H222957   6.216   3.682   3.431 -1.1671 -0.7934 -0.7299
 7665TIP3   OH222958   6.062   4.867   4.789  0.2757 -0.0290 -0.1457
 7665TIP3    H122959   6.065   4.940   4.727  0.8554 -0.6799 -0.9128
 7665TIP3    H222960   6.121   4.802   4.752  0.0766 -0.7295  0.7315
 7666TIP3   OH222961   6.708   4.587   3.794 -0.2391 -0.0707  0.4548
 7666TIP3    H122962   6.710   4.583   3.699  0.4206 -0.7754  0.4820
 7666TIP3    H222963   6.691   4.497   3.822  0.9884 -0.1666  1.0053
 7667TIP3   OH222964   3.549   3.357   0.567  0.2489  0.2139  0.1997
 7667TIP3    H122965   3.576   3.332   0.656  0.4035 -1.8419 -0.3569
 7667TIP3    H222966   3.632   3.373   0.522  0.3569 -1.2663 -0.2029
 7668TIP3   OH222967   6.689   3.299   2.907  0.4962 -0.2385 -0.1620
 7668TIP3    H122968   6.627   3.308   2.979 -0.6919 -1.9366 -0.9099
 7668TIP3    H222969   6.775   3.310   2.948 -0.1829 -0.1771  1.3161
 7669TIP3   OH222970   0.151   6.528   0.391 -0.0501 -0.3275 -0.3997
 7669TIP3    H122971   0.146   6.443   0.345  3.4650 -0.6308 -0.4836
 7669TIP3    H222972   0.244   6.550   0.389 -0.5160  2.2774  1.9830
 7670TIP3   OH222973   0.261   4.998   1.645  0.0445 -0.1297 -0.1661
 7670TIP3    H122974   0.317   5.065   1.683 -1.8126  1.7399 -0.5323
 7670TIP3    H222975   0.272   4.922   1.702  0.3536  1.2942  1.7669
 7671TIP3   OH222976   0.553   1.113   1.346  0.4542  0.6196  0.3629
 7671TIP3    H122977   0.577   1.021   1.349 -0.6499  0.3410  0.9640
 7671TIP3    H222978   0.465   1.114   1.309  0.4493  1.4351  0.3745
 7672TIP3   OH222979   6.480   4.233   5.649 -0.1059  0.7314  0.2362
 7672TIP3    H122980   6.463   4.146   5.613  0.6671  0.8494 -0.4289
 7672TIP3    H222981   6.469   4.222   5.744 -2.7487  0.5386 -0.0046
 7673TIP3   OH222982   3.288   6.406   3.218 -0.7339  0.5800  0.5854
 7673TIP3    H122983   3.357   6.366   3.271 -1.0439  0.7861  1.1465
 7673TIP3    H222984   3.299   6.367   3.131 -0.0666  0.4289  0.7321
 7674TIP3   OH222985   4.593   5.646   4.784 -0.0269 -0.1440  0.1362
 7674TIP3    H122986   4.512   5.599   4.769  0.3626 -1.3113  1.4668
 7674TIP3    H222987   4.593   5.716   4.719 -0.6663 -1.9014 -1.8570
 7675TIP3   OH222988   2.595   0.236   5.040  0.1089  0.2578 -0.3926
 7675TIP3    H122989   2.660   0.187   4.988  0.0178 -0.5807  0.2588
 7675TIP3    H222990   2.627   0.326   5.039  0.5814  0.0944 -1.1733
 7676TIP3   OH222991   4.943   1.935   3.623  0.1887 -0.2961 -0.3097
 7676TIP3    H122992   4.979   1.904   3.540 -0.3762 -0.6792 -0.4261
 7676TIP3    H222993   4.895   2.015   3.600 -0.3290 -0.6371 -0.4373
 7677TIP3   OH222994   7.095   0.626   3.565  0.0740 -0.0146 -0.5304
 7677TIP3    H122995   7.015   0.672   3.590  0.0134 -0.3806 -0.0270
 7677TIP3    H222996   7.166   0.677   3.604  0.0043 -0.3625  0.0614
 7678TIP3   OH222997   1.651   5.023   3.979  0.1953 -0.1805  0.5797
 7678TIP3    H122998   1.612   5.032   4.066  0.2210 -0.5235  0.6250
 7678TIP3    H222999   1.737   4.986   3.994  0.4363  0.3174  0.4537
 7679TIP3   OH223000   2.269   6.161   5.767 -0.6754 -0.0865  0.2055
 7679TIP3    H123001   2.252   6.251   5.738 -1.6514 -0.7453 -1.3842
 7679TIP3    H223002   2.345   6.133   5.715 -3.1877 -1.7042 -2.9584
 7680TIP3   OH223003   1.822   0.266   0.129 -0.0891  0.2581 -0.3899
 7680TIP3    H123004   1.736   0.292   0.162  0.1295  0.8751 -0.2958
 7680TIP3    H223005   1.867   0.229   0.205 -0.8663 -1.6693 -0.8007
 7681TIP3   OH223006   3.679   0.831   5.645  0.2251  0.6826  0.7383
 7681TIP3    H123007   3.675   0.892   5.719 -0.9030  1.1530  0.3254
 7681TIP3    H223008   3.614   0.865   5.583 -0.1922 -0.7374  0.3446
 7682TIP3   OH223009   6.778   2.608   1.709 -0.3638  0.5275 -0.2489
 7682TIP3    H123010   6.713   2.591   1.778 -0.2539  0.3976 -0.1765
 7682TIP3    H223011   6.847   2.657   1.752  0.4476 -0.8764  0.1248
 7683TIP3   OH223012   6.456   4.850   5.479 -0.2083 -0.0184  0.4081
 7683TIP3    H123013   6.441   4.944   5.487 -1.0840  0.1051 -2.0041
 7683TIP3    H223014   6.390   4.810   5.537 -0.4473  0.8146  0.7162
 7684TIP3   OH223015   5.825   2.351   1.399 -0.0737 -0.1505  0.6389
 7684TIP3    H123016   5.773   2.431   1.387  0.8335  0.6720  2.0250
 7684TIP3    H223017   5.773   2.298   1.459 -0.5961 -0.5696 -0.1521
 7685TIP3   OH223018   2.334   1.397   4.114 -0.0162 -0.0016 -0.1188
 7685TIP3    H123019   2.359   1.454   4.188  0.4211 -0.4143  0.0596
 7685TIP3    H223020   2.301   1.457   4.048  0.3744  0.4580  0.0937
 7686TIP3   OH223021   5.582   2.815   5.422  0.0648 -0.5206  0.5766
 7686TIP3    H123022   5.606   2.843   5.334 -1.7354  0.8878  0.4632
 7686TIP3    H223023   5.581   2.896   5.473 -1.8479 -0.8449  1.1292
 7687TIP3   OH223024   4.070   6.205   2.556  0.0188 -0.0230 -0.1919
 7687TIP3    H123025   4.044   6.231   2.468 -1.0079 -0.0440  0.0841
 7687TIP3    H223026   3.988   6.178   2.598  0.4975 -0.0734  0.7494
 7688TIP3   OH223027   4.539   0.090   1.123 -0.7111  0.2470  0.4673
 7688TIP3    H123028   4.618   0.076   1.174 -1.4429 -1.4689  1.2271
 7688TIP3    H223029   4.482   0.143   1.180  0.2241  2.4179 -0.4974
 7689TIP3   OH223030   7.092   2.819   1.002 -0.0161  0.0790 -0.1484
 7689TIP3    H123031   7.044   2.781   0.929 -1.3242  1.1927  0.0839
 7689TIP3    H223032   7.109   2.910   0.976 -2.6066  1.2653  1.7735
 7690TIP3   OH223033   2.100   5.663   0.628  0.6949 -0.1704 -0.5754
 7690TIP3    H123034   2.187   5.699   0.643  0.2673 -0.0563  2.0037
 7690TIP3    H223035   2.059   5.724   0.567  1.3419  1.5630  0.6392
 7691TIP3   OH223036   4.958   0.762   3.047  0.1450 -0.0239 -0.0090
 7691TIP3    H123037   4.927   0.772   2.957  0.1347 -0.0695 -0.0104
 7691TIP3    H223038   5.001   0.676   3.048  0.7586  0.2745 -0.1544
 7692TIP3   OH223039   1.340   1.658   2.514  0.1653 -0.2854  0.3402
 7692TIP3    H123040   1.355   1.752   2.514 -0.7728 -0.0892 -1.4631
 7692TIP3    H223041   1.247   1.649   2.538  0.0484 -0.6955 -0.2520
 7693TIP3   OH223042   1.538   1.852   4.400 -0.0353 -0.2201 -0.4911
 7693TIP3    H123043   1.615   1.819   4.447 -0.3971 -1.3289 -0.6489
 7693TIP3    H223044   1.571   1.925   4.348  0.3300  1.2823  1.6875
 7694TIP3   OH223045   3.358   5.366   1.757  0.0004 -0.2118  0.0979
 7694TIP3    H123046   3.366   5.390   1.665 -1.9869  1.9668  0.4080
 7694TIP3    H223047   3.292   5.296   1.758 -2.1062  1.6789  0.0255
 7695TIP3   OH223048   2.347   0.893   2.288 -0.3014  0.3885 -0.1352
 7695TIP3    H123049   2.422   0.873   2.231 -0.8030  0.2953 -0.7700
 7695TIP3    H223050   2.342   0.989   2.288  0.2832  0.4262  0.5269
 7696TIP3   OH223051   0.516   3.026   0.921  0.4448  0.2082  0.1026
 7696TIP3    H123052   0.569   3.105   0.927  0.5809  0.1586 -0.4143
 7696TIP3    H223053   0.533   2.992   0.833  2.0001 -1.5469  1.0165
 7697TIP3   OH223054   1.746   4.478   2.113 -0.2430 -0.1129  0.1952
 7697TIP3    H123055   1.823   4.424   2.130  2.0935  3.1469  0.8277
 7697TIP3    H223056   1.721   4.511   2.199 -2.1660 -0.7655 -0.0667
 7698TIP3   OH223057   6.435   2.677   1.116  0.0803 -0.4840 -0.0069
 7698TIP3    H123058   6.443   2.648   1.207 -0.7977 -0.2228  0.1663
 7698TIP3    H223059   6.367   2.620   1.079 -0.1409 -0.0562 -0.2645
 7699TIP3   OH223060   7.067   0.820   3.349  0.3011  0.1266 -0.4012
 7699TIP3    H123061   6.990   0.811   3.405  1.1602 -0.0425  0.7955
 7699TIP3    H223062   7.124   0.748   3.377  1.3008  0.8358 -0.5896
 7700TIP3   OH223063   3.517   5.768   0.120 -0.0599 -0.2445  0.3556
 7700TIP3    H123064   3.506   5.838   0.185  0.9259 -0.6095  0.9461
 7700TIP3    H223065   3.548   5.814   0.041 -0.2507  0.0814  0.4659
 7701TIP3   OH223066   6.429   4.710   0.586  0.3642  0.4756  0.1378
 7701TIP3    H123067   6.337   4.715   0.561  0.2110  0.2807  0.6542
 7701TIP3    H223068   6.477   4.743   0.510 -0.1319  0.5702 -0.1324
 7702TIP3   OH223069   2.181   1.211   1.332  0.2519 -0.8067 -0.3559
 7702TIP3    H123070   2.271   1.229   1.306  0.7027 -1.3915  0.7472
 7702TIP3    H223071   2.130   1.283   1.296  1.5872  1.2469  1.6364
 7703TIP3   OH223072   3.738   0.266   5.838 -0.3864 -0.2147  0.3161
 7703TIP3    H123073   3.729   0.294   5.929 -1.1951 -0.0281  0.1869
 7703TIP3    H223074   3.811   0.319   5.804  0.4458 -0.8525  1.0589
 7704TIP3   OH223075   6.201   4.710   3.747 -0.7529  0.2394  0.2009
 7704TIP3    H123076   6.206   4.648   3.674 -1.9186 -0.0188  0.3177
 7704TIP3    H223077   6.291   4.718   3.778 -0.6496 -1.9669  0.6361
 7705TIP3   OH223078   2.117   4.127   4.053 -0.1736  0.2851 -0.4868
 7705TIP3    H123079   2.185   4.194   4.039  0.1159  0.0825 -0.0440
 7705TIP3    H223080   2.160   4.059   4.104 -1.8446  2.1344  3.7969
 7706TIP3   OH223081   6.013   2.296   5.366  0.0575 -0.2305  0.2617
 7706TIP3    H123082   6.097   2.277   5.324 -0.3092  1.6559 -1.5088
 7706TIP3    H223083   6.035   2.345   5.445  0.6615  0.5449 -0.3674
 7707TIP3   OH223084   3.408   6.598   1.043  0.1848  0.4615 -0.1626
 7707TIP3    H123085   3.407   6.656   0.967  1.4884  0.6005 -0.0849
 7707TIP3    H223086   3.322   6.557   1.042  0.0812  0.6682 -1.5537
 7708TIP3   OH223087   5.789   4.130   1.573  0.2486  0.3671 -0.1592
 7708TIP3    H123088   5.765   4.222   1.569  0.0164  0.2691 -1.2794
 7708TIP3    H223089   5.720   4.089   1.626  0.1942  0.7788  0.0916
 7709TIP3   OH223090   2.226   2.637   5.596  0.5500  0.0651 -0.3462
 7709TIP3    H123091   2.133   2.648   5.580  0.4927  1.8538  0.9165
 7709TIP3    H223092   2.239   2.542   5.602 -1.2941 -0.1850  0.1732
 7710TIP3   OH223093   3.689   5.702   5.691  0.1960 -0.0505  0.0933
 7710TIP3    H123094   3.625   5.636   5.716  1.0565 -0.6205  0.8788
 7710TIP3    H223095   3.688   5.765   5.764 -0.8589  1.0107 -0.8027
 7711TIP3   OH223096   5.933   2.273   0.967 -1.1233  0.2444  0.6487
 7711TIP3    H123097   5.899   2.356   0.934  0.2054 -0.2149 -2.1703
 7711TIP3    H223098   6.026   2.291   0.984 -0.0511 -1.1942 -2.7533
 7712TIP3   OH223099   3.689   6.083   2.111  0.0593  0.0884  0.3045
 7712TIP3    H123100   3.733   6.144   2.171  2.8124 -1.5132  0.0725
 7712TIP3    H223101   3.648   6.019   2.169 -0.6758  0.7203  0.5008
 7713TIP3   OH223102   3.567   2.361   3.528 -0.9762 -0.5217  0.2369
 7713TIP3    H123103   3.502   2.354   3.458 -2.1779 -1.5939  1.3967
 7713TIP3    H223104   3.639   2.305   3.500 -0.8714  0.0407 -0.6881
 7714TIP3   OH223105   1.858   3.146   2.176 -0.1334  0.1098 -0.7317
 7714TIP3    H123106   1.847   3.120   2.085 -0.9011 -0.7387 -0.4097
 7714TIP3    H223107   1.811   3.079   2.226 -1.2125  1.4782  0.1863
 7715TIP3   OH223108   5.297   4.045   4.746  0.0155  0.3040  0.1228
 7715TIP3    H123109   5.328   3.982   4.811 -1.6136  0.1126  0.7550
 7715TIP3    H223110   5.219   4.004   4.708  1.8214 -0.4036 -3.2428
 7716TIP3   OH223111   1.972   2.819   2.359 -0.2666 -0.3217  0.1238
 7716TIP3    H123112   2.039   2.882   2.330  0.4059 -0.5791  1.0531
 7716TIP3    H223113   1.966   2.833   2.453 -0.0173 -1.7140  0.3754
 7717TIP3   OH223114   2.611   6.266   4.060 -0.6193  0.2318 -0.3858
 7717TIP3    H123115   2.664   6.331   4.105 -1.9845 -1.0218  3.3697
 7717TIP3    H223116   2.639   6.182   4.096 -3.5645 -0.6375  0.1333
 7718TIP3   OH223117   6.230   2.889   4.699 -0.6394  0.0010 -0.9219
 7718TIP3    H123118   6.288   2.839   4.756 -1.3794  0.4879  0.3061
 7718TIP3    H223119   6.283   2.909   4.622  0.1960 -1.1878 -0.6810
 7719TIP3   OH223120   4.048   4.956   5.265  0.0209 -0.0698  0.0932
 7719TIP3    H123121   3.997   4.908   5.200  1.0121 -1.5090  0.3291
 7719TIP3    H223122   4.131   4.976   5.221  0.9793 -1.6590  1.0598
 7720TIP3   OH223123   1.017   6.064   3.637  0.1154 -0.1427 -0.3870
 7720TIP3    H123124   0.951   6.079   3.569  0.6218  1.1733 -0.6169
 7720TIP3    H223125   1.036   6.151   3.671  2.3167 -0.3688 -0.8777
 7721TIP3   OH223126   5.839   4.895   3.457 -0.3548 -0.0718 -0.0959
 7721TIP3    H123127   5.865   4.804   3.449 -0.0166  0.1022 -1.1856
 7721TIP3    H223128   5.909   4.937   3.507 -0.5061 -0.3963  0.3952
 7722TIP3   OH223129   3.296   0.360   3.465  0.0407  0.4719 -0.1738
 7722TIP3    H123130   3.266   0.321   3.547  1.6145 -0.1419  0.1272
 7722TIP3    H223131   3.234   0.327   3.399 -0.3183 -0.2564  0.5182
 7723TIP3   OH223132   0.836   0.703   3.140 -0.4836 -0.0258 -0.5935
 7723TIP3    H123133   0.806   0.625   3.186  1.3320  0.0653  0.8201
 7723TIP3    H223134   0.767   0.768   3.154 -0.7114 -0.5153  0.5889
 7724TIP3   OH223135   4.349   3.114   0.376 -0.1591  0.3255  0.2332
 7724TIP3    H123136   4.391   3.110   0.461 -0.2329  3.6548  0.5820
 7724TIP3    H223137   4.421   3.127   0.314 -0.1931 -0.9523 -0.0914
 7725TIP3   OH223138   2.009   5.865   1.854 -0.6930  0.0205 -0.2021
 7725TIP3    H123139   1.952   5.790   1.869 -0.3267  0.1819  2.5371
 7725TIP3    H223140   1.956   5.941   1.880 -0.0223  0.3875  0.1189
 7726TIP3   OH223141   6.932   1.433   4.692 -0.6047  0.5191  0.2092
 7726TIP3    H123142   6.966   1.520   4.710 -1.5865  1.2169 -1.1795
 7726TIP3    H223143   7.003   1.389   4.646  0.7099 -0.2075  2.7291
 7727TIP3   OH223144   3.799   6.004   1.621  0.3220 -0.2604 -0.0526
 7727TIP3    H123145   3.830   6.061   1.692  0.3581  0.2004 -0.4269
 7727TIP3    H223146   3.704   6.014   1.622  0.4359  2.0971 -1.9182
 7728TIP3   OH223147   3.809   0.874   0.167 -0.1378  0.6053 -0.7487
 7728TIP3    H123148   3.904   0.861   0.170 -0.2552 -0.8354 -2.1415
 7728TIP3    H223149   3.792   0.900   0.076 -1.2250 -0.7078 -0.9451
 7729TIP3   OH223150   3.125   3.432   0.968 -0.2170  0.4728  0.5897
 7729TIP3    H123151   3.196   3.387   1.012 -0.1571 -0.7930 -0.7420
 7729TIP3    H223152   3.047   3.409   1.018  0.0150  0.1023  0.7812
 7730TIP3   OH223153   1.205   3.179   3.429 -0.4694 -0.2816 -0.1992
 7730TIP3    H123154   1.131   3.185   3.489  0.2221 -0.7914  0.7350
 7730TIP3    H223155   1.165   3.168   3.342 -1.4813 -0.1691  0.2409
 7731TIP3   OH223156   2.386   1.780   0.632  0.0038  0.0673  0.0526
 7731TIP3    H123157   2.445   1.796   0.706  0.0212 -0.0614  0.0664
 7731TIP3    H223158   2.400   1.688   0.610 -1.7124 -0.5728  1.3958
 7732TIP3   OH223159   5.071   2.735   4.968 -0.8531  0.0236 -0.3001
 7732TIP3    H123160   5.068   2.773   5.056 -0.0328 -0.8269  0.1147
 7732TIP3    H223161   4.983   2.748   4.933 -1.3992 -0.2557  0.9204
 7733TIP3   OH223162   6.480   6.234   1.866 -0.1604  0.0838 -0.0576
 7733TIP3    H123163   6.554   6.237   1.806 -0.5220 -0.1261 -0.5125
 7733TIP3    H223164   6.402   6.238   1.811 -0.5633 -2.5890  0.1590
 7734TIP3   OH223165   4.707   1.528   3.646 -0.1838  0.0886 -0.7357
 7734TIP3    H123166   4.769   1.537   3.718 -0.3300 -2.3627 -0.1957
 7734TIP3    H223167   4.752   1.565   3.570  0.7735  0.8984  0.1977
 7735TIP3   OH223168   1.154   4.170   4.456  0.0743 -0.2093 -0.1598
 7735TIP3    H123169   1.167   4.079   4.482  0.9699  0.0593  0.3916
 7735TIP3    H223170   1.135   4.165   4.362 -1.4607 -1.0606  0.1670
 7736TIP3   OH223171   2.661   6.252   3.444 -0.3543  0.3118 -0.2802
 7736TIP3    H123172   2.693   6.167   3.475 -1.2123 -0.3152 -1.0775
 7736TIP3    H223173   2.636   6.299   3.523  0.9505  0.1839  0.2397
 7737TIP3   OH223174   1.764   0.787   1.427 -0.0127 -0.6004  0.2891
 7737TIP3    H123175   1.715   0.801   1.346  0.7173 -3.8770 -0.8866
 7737TIP3    H223176   1.851   0.760   1.398 -0.0915 -3.0760  2.0669
 7738TIP3   OH223177   3.579   1.017   0.529 -0.5124 -0.5962  0.0923
 7738TIP3    H123178   3.524   0.992   0.603  1.8157  0.4271  2.3140
 7738TIP3    H223179   3.587   0.937   0.477 -2.3536 -1.3110  0.8292
 7739TIP3   OH223180   1.513   5.315   3.744 -0.1092  0.6552 -0.1543
 7739TIP3    H123181   1.549   5.260   3.675  0.4112  0.8028 -0.0049
 7739TIP3    H223182   1.431   5.349   3.708 -1.3178 -1.5239  0.3467
 7740TIP3   OH223183   1.561   3.817   3.903  0.1676 -0.3324 -0.2296
 7740TIP3    H123184   1.575   3.753   3.973  0.5491  0.4904  0.4590
 7740TIP3    H223185   1.492   3.874   3.936  1.0431  0.6607 -0.0959
 7741TIP3   OH223186   3.209   0.809   5.633  0.1994  0.1024 -0.1809
 7741TIP3    H123187   3.227   0.752   5.708 -1.2472  1.6173  1.4319
 7741TIP3    H223188   3.115   0.802   5.620  0.5333 -0.7279 -2.4304
 7742TIP3   OH223189   0.866   3.462   2.387  0.0432  0.3257 -0.5504
 7742TIP3    H123190   0.827   3.447   2.301  0.4060  0.6175 -0.7701
 7742TIP3    H223191   0.831   3.547   2.414  0.7033  0.7048 -0.8574
 7743TIP3   OH223192   0.945   0.298   1.985  0.1159 -0.3819 -0.5900
 7743TIP3    H123193   0.988   0.376   1.950  0.2379 -0.7166 -1.1928
 7743TIP3    H223194   0.872   0.282   1.925  0.3618 -0.9949 -0.7346
 7744TIP3   OH223195   1.604   3.609   5.630 -0.1586  0.1916 -0.2228
 7744TIP3    H123196   1.674   3.566   5.679 -1.7030  0.1793  2.1342
 7744TIP3    H223197   1.589   3.552   5.555 -0.1289 -1.8247  1.2298
 7745TIP3   OH223198   5.992   5.187   2.032 -0.2489  0.3158  0.0889
 7745TIP3    H123199   6.000   5.186   1.936  0.9139 -0.2879  0.1770
 7745TIP3    H223200   6.065   5.242   2.062  0.0574 -0.3914  0.6726
 7746TIP3   OH223201   0.817   3.537   5.515 -0.7086  0.2528 -0.1893
 7746TIP3    H123202   0.767   3.598   5.569 -0.9497  0.0183 -0.1517
 7746TIP3    H223203   0.875   3.594   5.464 -0.5840  0.4851  0.2037
 7747TIP3   OH223204   1.647   1.804   4.773 -0.0026  0.2207  0.0343
 7747TIP3    H123205   1.710   1.734   4.789 -1.7616 -2.0194 -2.0413
 7747TIP3    H223206   1.700   1.877   4.740  1.6014 -1.2640 -0.8420
 7748TIP3   OH223207   0.478   2.333   5.004  0.6652 -0.0820 -0.1682
 7748TIP3    H123208   0.531   2.388   5.062 -0.1211 -0.7600  1.2487
 7748TIP3    H223209   0.402   2.309   5.057  0.5132 -1.7331 -1.0779
 7749TIP3   OH223210   3.466   1.099   0.198 -0.1968  0.6224 -0.1257
 7749TIP3    H123211   3.399   1.164   0.176  1.7762  2.3568 -1.3431
 7749TIP3    H223212   3.486   1.056   0.115 -1.0146 -1.2019  0.5517
 7750TIP3   OH223213   3.635   0.779   0.785  0.2784  0.1866  1.0077
 7750TIP3    H123214   3.541   0.795   0.772  0.7317  0.9647 -2.5690
 7750TIP3    H223215   3.675   0.866   0.778  1.3409 -0.2337  1.6566
 7751TIP3   OH223216   1.006   3.072   1.270  1.1548  0.1795  0.1575
 7751TIP3    H123217   0.941   3.002   1.280  2.0829 -0.5937  0.9090
 7751TIP3    H223218   1.087   3.034   1.303  1.9881  1.1566 -0.7034
 7752TIP3   OH223219   4.573   4.043   5.568 -0.0065  0.6630 -0.1001
 7752TIP3    H123220   4.566   4.117   5.508  0.9425  0.4798 -0.4539
 7752TIP3    H223221   4.590   4.082   5.654 -0.6593  0.8955 -0.0730
 7753TIP3   OH223222   2.580   2.051   1.851 -0.2438 -0.2298 -0.3948
 7753TIP3    H123223   2.497   2.097   1.846  0.3141  1.1125  1.6010
 7753TIP3    H223224   2.623   2.086   1.929  1.9055 -1.3712 -0.9691
 7754TIP3   OH223225   0.673   3.632   2.969  0.5014  0.0465  0.3742
 7754TIP3    H123226   0.674   3.712   3.021  1.1045  0.3159 -0.0344
 7754TIP3    H223227   0.679   3.661   2.878  0.2471 -0.4435  0.1949
 7755TIP3   OH223228   0.514   1.702   0.871  0.5048  0.2651 -0.0844
 7755TIP3    H123229   0.543   1.617   0.906 -1.2941 -0.7589 -0.9345
 7755TIP3    H223230   0.437   1.723   0.923  0.2136  0.7628 -0.7142
 7756TIP3   OH223231   0.936   3.160   1.025 -0.1832  0.4668 -0.7081
 7756TIP3    H123232   0.901   3.244   1.055 -0.8491  0.5154 -1.5907
 7756TIP3    H223233   0.939   3.106   1.104 -0.6633  1.0167 -0.3074
 7757TIP3   OH223234   3.486   2.701   4.487 -0.1831 -0.0110 -0.1267
 7757TIP3    H123235   3.402   2.742   4.468  0.3478  0.6456 -1.1614
 7757TIP3    H223236   3.540   2.719   4.410  0.1629 -2.4901 -0.5578
 7758TIP3   OH223237   5.999   2.239   5.761 -0.1776  1.0800  0.3802
 7758TIP3    H123238   5.927   2.297   5.788 -2.2790 -1.0843 -0.1939
 7758TIP3    H223239   5.955   2.168   5.714  2.3804 -0.4290  0.1290
 7759TIP3   OH223240   6.734   4.457   3.529 -0.2377  0.2353 -0.5393
 7759TIP3    H123241   6.727   4.372   3.572  3.0827  0.1787  0.1631
 7759TIP3    H223242   6.685   4.446   3.447 -1.9569 -1.4782  0.6175
 7760TIP3   OH223243   6.856   1.925   3.208 -0.4239 -0.6008  0.5640
 7760TIP3    H123244   6.944   1.944   3.242 -0.6982  0.2989  0.8202
 7760TIP3    H223245   6.863   1.942   3.114 -0.0817 -1.4853  0.4220
 7761TIP3   OH223246   6.083   2.637   4.852  0.6287  0.0349 -0.0752
 7761TIP3    H123247   6.036   2.664   4.773  0.6871 -1.4834 -0.6685
 7761TIP3    H223248   6.173   2.667   4.838  1.1203 -1.8754 -1.5423
 7762TIP3   OH223249   3.562   2.057   1.974  0.0492 -0.0376 -0.7121
 7762TIP3    H123250   3.512   2.005   1.911  0.9848  0.3679 -1.8178
 7762TIP3    H223251   3.594   1.994   2.038  0.1227 -0.6431 -1.3381
 7763TIP3   OH223252   0.559   6.585   5.378 -0.1269  0.2875 -0.2795
 7763TIP3    H123253   0.470   6.605   5.350  0.3085  1.5658 -0.8207
 7763TIP3    H223254   0.611   6.658   5.347  0.7855  0.6114  1.8316
 7764TIP3   OH223255   3.199   1.677   5.788  0.1941  0.6750 -0.1575
 7764TIP3    H123256   3.226   1.598   5.741  4.3987  1.6075  0.2465
 7764TIP3    H223257   3.106   1.664   5.806 -0.3606 -2.1499 -3.8546
 7765TIP3   OH223258   2.020   0.638   0.134  0.3018 -0.0241  0.0729
 7765TIP3    H123259   1.964   0.695   0.186 -0.3850  0.2517 -0.9407
 7765TIP3    H223260   2.109   0.672   0.149  0.3121 -0.8493  2.1659
 7766TIP3   OH223261   2.059   2.045   3.225 -0.4046 -0.6013  0.2013
 7766TIP3    H123262   2.114   1.966   3.225 -0.4400 -0.6465 -1.0983
 7766TIP3    H223263   2.121   2.117   3.232 -0.1655 -0.6554 -1.1778
 7767TIP3   OH223264   3.737   6.189   5.795  0.1891 -0.2684 -0.1060
 7767TIP3    H123265   3.828   6.162   5.778  0.1801  0.1185 -0.7925
 7767TIP3    H223266   3.745   6.264   5.854  0.3027 -0.3726  0.0141
 7768TIP3   OH223267   4.167   2.624   3.078  0.0870 -0.0311 -0.1103
 7768TIP3    H123268   4.196   2.678   3.152  0.4143  1.6109 -1.3889
 7768TIP3    H223269   4.219   2.654   3.004 -0.5475 -1.3388 -1.1339
 7769TIP3   OH223270   2.186   6.186   0.847  0.2261 -0.2203 -0.1941
 7769TIP3    H123271   2.122   6.168   0.778  0.0780  0.9082 -0.3744
 7769TIP3    H223272   2.271   6.167   0.807  0.1712  0.8376 -0.8426
 7770TIP3   OH223273   2.649   5.133   5.145 -0.0552  0.6634  0.4246
 7770TIP3    H123274   2.698   5.141   5.227  1.0936  0.6202 -0.2400
 7770TIP3    H223275   2.699   5.185   5.082  0.5382 -1.3556 -0.8809
 7771TIP3   OH223276   5.053   5.700   5.500  0.4475 -0.2300  0.0563
 7771TIP3    H123277   5.068   5.640   5.427  0.0384 -1.4816  0.9454
 7771TIP3    H223278   4.979   5.661   5.548 -0.1556  1.2666  0.3991
 7772TIP3   OH223279   4.648   0.374   0.048 -0.0954 -0.0919  0.3003
 7772TIP3    H123280   4.564   0.329   0.053 -0.5564  0.7498  0.2926
 7772TIP3    H223281   4.698   0.340   0.122  0.0385 -1.5153 -0.3989
 7773TIP3   OH223282   5.734   2.116   0.902  0.2722 -0.1930 -0.6457
 7773TIP3    H123283   5.818   2.154   0.927  0.4427 -0.4008 -0.8989
 7773TIP3    H223284   5.669   2.179   0.932  0.5112 -0.1069 -0.3053
 7774TIP3   OH223285   6.982   5.283   0.908  0.6785  0.3305 -0.4443
 7774TIP3    H123286   6.963   5.265   1.000 -0.5161  0.7037 -0.5963
 7774TIP3    H223287   7.077   5.296   0.905  0.7851 -0.0866  0.6579
 7775TIP3   OH223288   0.561   6.556   0.829  0.3148 -0.3964  0.5619
 7775TIP3    H123289   0.542   6.642   0.791  0.3690 -0.5078  0.2849
 7775TIP3    H223290   0.482   6.505   0.813  0.6397 -0.6982 -0.1319
 7776TIP3   OH223291   0.487   0.434   2.672  0.0781  0.0730  0.1799
 7776TIP3    H123292   0.398   0.452   2.704 -0.2748 -0.6948 -0.3451
 7776TIP3    H223293   0.501   0.499   2.603 -0.1382  0.0803  0.1417
 7777TIP3   OH223294   2.327   5.082   3.071  0.1530 -0.3160  0.0930
 7777TIP3    H123295   2.257   5.129   3.026 -0.4015 -0.8605  0.3751
 7777TIP3    H223296   2.385   5.052   3.000  0.1124  0.1461 -0.1404
 7778TIP3   OH223297   3.795   4.183   0.463 -0.6651 -0.1533  0.5882
 7778TIP3    H123298   3.744   4.208   0.540 -0.5260 -0.2653  0.7162
 7778TIP3    H223299   3.860   4.252   0.453 -1.8035  0.8109 -0.4799
 7779TIP3   OH223300   1.406   3.887   3.010  0.0296  0.1839  0.0944
 7779TIP3    H123301   1.437   3.919   3.095  2.6202 -1.3151 -0.1849
 7779TIP3    H223302   1.448   3.945   2.947 -1.0304  0.6119 -0.2452
 7780TIP3   OH223303   4.865   3.142   0.930  0.5648  0.0852 -0.0598
 7780TIP3    H123304   4.786   3.095   0.906  0.8578 -1.0826  1.1090
 7780TIP3    H223305   4.920   3.138   0.852  0.7953 -2.0463  0.1405
 7781TIP3   OH223306   3.016   2.541   5.305  0.1394 -0.2960  0.2599
 7781TIP3    H123307   2.940   2.543   5.246  0.4223 -0.7078 -0.1201
 7781TIP3    H223308   3.082   2.491   5.257  0.7163  0.2148  0.5105
 7782TIP3   OH223309   7.056   5.103   1.773  0.3423  0.2276 -0.4140
 7782TIP3    H123310   7.143   5.071   1.797  0.8492 -1.3522 -3.8244
 7782TIP3    H223311   7.058   5.196   1.794  3.1773  0.4135 -1.1421
 7783TIP3   OH223312   2.760   1.345   1.078 -0.3338 -0.0285  0.0687
 7783TIP3    H123313   2.722   1.257   1.068 -0.2521 -0.3320  2.1579
 7783TIP3    H223314   2.770   1.357   1.172 -1.9393  2.9260 -0.0233
 7784TIP3   OH223315   2.456   1.010   4.651 -0.2204  0.6719  0.5003
 7784TIP3    H123316   2.541   0.970   4.670 -0.3774  1.3115  2.9170
 7784TIP3    H223317   2.478   1.094   4.610  0.1936 -0.3433 -1.4507
 7785TIP3   OH223318   4.357   3.256   3.336 -0.2268 -0.2709  0.4612
 7785TIP3    H123319   4.401   3.174   3.317 -1.5374 -1.0401  0.6491
 7785TIP3    H223320   4.363   3.307   3.255 -0.1660 -0.9120  0.0637
 7786TIP3   OH223321   5.981   3.862   5.801  0.3279 -0.0120 -0.4051
 7786TIP3    H123322   5.991   3.771   5.830 -0.4186  0.5366  1.7240
 7786TIP3    H223323   5.914   3.858   5.732 -1.5412 -0.8228  1.3589
 7787TIP3   OH223324   5.526   3.326   1.027  0.4217 -0.0825  0.3024
 7787TIP3    H123325   5.550   3.250   1.080  0.1254  0.4712  1.2519
 7787TIP3    H223326   5.598   3.335   0.964  1.0735 -0.4076  0.9825
 7788TIP3   OH223327   3.408   0.667   4.376  0.5171 -0.1129 -0.1326
 7788TIP3    H123328   3.338   0.651   4.438  0.9576  0.6545  0.5904
 7788TIP3    H223329   3.366   0.665   4.290 -0.4761  0.7833  0.3197
 7789TIP3   OH223330   5.261   2.129   3.338 -0.1388 -0.3831  0.2713
 7789TIP3    H123331   5.242   2.047   3.383 -0.7693 -1.1399 -1.3070
 7789TIP3    H223332   5.176   2.159   3.306  0.3622 -0.1865 -0.9272
 7790TIP3   OH223333   6.422   2.691   3.885 -0.0156  0.5136 -0.0633
 7790TIP3    H123334   6.507   2.657   3.914  0.7391  1.0974 -1.4989
 7790TIP3    H223335   6.439   2.725   3.797 -1.3174  2.3392  0.3492
 7791TIP3   OH223336   4.161   4.481   5.285  0.0676  0.0151 -0.2725
 7791TIP3    H123337   4.163   4.396   5.330  1.4635  0.5281  0.7234
 7791TIP3    H223338   4.186   4.461   5.195 -2.6742 -1.0205 -0.9117
 7792TIP3   OH223339   6.689   3.925   0.869  0.2752  0.2115  0.4909
 7792TIP3    H123340   6.748   3.850   0.883 -0.4577 -0.1622  1.8264
 7792TIP3    H223341   6.605   3.885   0.848  0.2738  0.7147 -0.4707
 7793TIP3   OH223342   4.619   5.918   1.101 -0.1252  0.3907 -0.4449
 7793TIP3    H123343   4.576   5.952   1.179  2.3922  1.6194  0.5108
 7793TIP3    H223344   4.622   5.823   1.114  1.5530  0.6729  1.7460
 7794TIP3   OH223345   1.783   1.431   1.435  0.4031 -0.1296  0.2509
 7794TIP3    H123346   1.741   1.517   1.436  1.4557  0.4102  1.6690
 7794TIP3    H223347   1.710   1.369   1.437 -0.3760  0.7717  1.6497
 7795TIP3   OH223348   3.436   4.028   3.186  0.3631 -0.2575  0.1907
 7795TIP3    H123349   3.520   4.039   3.141 -0.6737 -0.4095 -1.8996
 7795TIP3    H223350   3.446   3.948   3.238  2.1722  0.8585  1.6695
 7796TIP3   OH223351   1.750   1.807   2.008  0.0799  0.2927  0.0212
 7796TIP3    H123352   1.827   1.785   1.956  1.2341  0.5009  1.5842
 7796TIP3    H223353   1.773   1.888   2.053 -1.0635  0.3795  0.4962
 7797TIP3   OH223354   6.724   5.323   1.343 -0.9250  0.1167  0.3936
 7797TIP3    H123355   6.687   5.396   1.392  2.3167  2.8476 -0.8606
 7797TIP3    H223356   6.697   5.339   1.252  0.2279  0.0594  0.0323
 7798TIP3   OH223357   5.885   4.160   5.557  0.1710 -0.1747 -0.7172
 7798TIP3    H123358   5.856   4.081   5.602  1.4582  0.1561  0.7724
 7798TIP3    H223359   5.804   4.206   5.534 -0.5403 -0.6264  0.7858
 7799TIP3   OH223360   1.816   5.772   5.684  0.6838  0.0078  0.1623
 7799TIP3    H123361   1.907   5.800   5.674  0.4544  0.1416 -1.8297
 7799TIP3    H223362   1.794   5.796   5.774  2.2177  1.1288  0.2772
 7800TIP3   OH223363   3.101   0.046   3.877 -0.5094  0.1734  0.2684
 7800TIP3    H123364   3.110   0.012   3.966  1.8341 -0.2893 -0.0791
 7800TIP3    H223365   3.140  -0.021   3.822 -0.1463  1.3295 -0.9169
 7801TIP3   OH223366   3.773   4.943   1.995 -0.2264 -0.7947  0.3774
 7801TIP3    H123367   3.703   5.006   2.013 -1.5395 -1.5222 -1.8107
 7801TIP3    H223368   3.850   4.981   2.038 -1.3934  1.2913  0.8069
 7802TIP3   OH223369   1.778   1.275   3.760  0.4909 -0.0008  0.1097
 7802TIP3    H123370   1.824   1.292   3.678  0.9009  2.6139  0.8023
 7802TIP3    H223371   1.846   1.275   3.826  0.0113 -0.8195  0.6150
 7803TIP3   OH223372   3.834   0.826   1.631 -0.3467 -0.3326  0.5623
 7803TIP3    H123373   3.930   0.820   1.631 -0.4141 -2.0648  0.1386
 7803TIP3    H223374   3.806   0.747   1.584 -1.9859  0.0042  0.9374
 7804TIP3   OH223375   5.957   3.345   4.851  0.1949  0.0960 -0.3516
 7804TIP3    H123376   6.046   3.346   4.884 -0.7057  0.9851  2.2648
 7804TIP3    H223377   5.954   3.415   4.786  0.5883  2.4368  2.0338
 7805TIP3   OH223378   5.733   3.874   5.344  0.0762  0.2446  0.0597
 7805TIP3    H123379   5.698   3.887   5.256 -0.0954  2.7761  0.4398
 7805TIP3    H223380   5.745   3.779   5.351  0.5934 -0.0062 -2.8639
 7806TIP3   OH223381   5.672   1.448   4.236  0.3381 -0.1568  0.2374
 7806TIP3    H123382   5.582   1.480   4.242  0.4784  0.6738 -1.4997
 7806TIP3    H223383   5.670   1.362   4.279 -1.0238  0.3026  1.1555
 7807TIP3   OH223384   4.616   6.791   1.972 -0.1764  0.1357 -0.5066
 7807TIP3    H123385   4.661   6.712   2.001 -1.5998 -0.8746 -0.9643
 7807TIP3    H223386   4.614   6.847   2.050  1.7816  0.2045 -0.4566
 7808TIP3   OH223387   7.018   5.525   3.144 -0.1877  0.3095  0.3055
 7808TIP3    H123388   6.922   5.516   3.145 -0.2439  0.8306  0.1619
 7808TIP3    H223389   7.048   5.471   3.217 -0.5817  0.0181  0.2566
 7809TIP3   OH223390   2.197   4.892   5.085 -0.2105 -0.0446  0.5406
 7809TIP3    H123391   2.243   4.975   5.077  0.2251 -0.2038  1.3064
 7809TIP3    H223392   2.136   4.891   5.011 -0.6294  1.2105  0.8386
 7810TIP3   OH223393   4.328   1.353   5.773 -0.1354 -0.2191  0.5121
 7810TIP3    H123394   4.332   1.343   5.678 -0.2218  0.0347  0.4807
 7810TIP3    H223395   4.359   1.269   5.807  0.2737 -0.1689  0.2611
 7811TIP3   OH223396   1.960   3.797   2.950 -0.1956  0.1379 -0.1202
 7811TIP3    H123397   1.880   3.807   2.897 -0.1581 -0.3739 -0.2793
 7811TIP3    H223398   2.031   3.811   2.888 -0.1481 -0.6830 -0.2618
 7812TIP3   OH223399   6.449   5.237   2.714 -0.0560 -0.0249  0.1138
 7812TIP3    H123400   6.396   5.255   2.792  0.4993  1.3455  0.1856
 7812TIP3    H223401   6.458   5.321   2.671 -2.1908 -1.0504 -2.6756
 7813TIP3   OH223402   6.572   0.502   4.424 -0.3657 -0.5136  0.3630
 7813TIP3    H123403   6.508   0.572   4.406 -1.4769 -1.7257 -0.6116
 7813TIP3    H223404   6.652   0.533   4.383 -1.1913 -0.3550 -1.2173
 7814TIP3   OH223405   3.135   4.506   1.243  0.0339  0.0716  0.5463
 7814TIP3    H123406   3.134   4.555   1.326  0.2453  1.3338 -0.1777
 7814TIP3    H223407   3.118   4.572   1.176  3.1730 -0.2765 -0.7590
 7815TIP3   OH223408   2.571   5.456   3.999 -0.7819 -0.7136  0.3932
 7815TIP3    H123409   2.566   5.518   4.071 -0.3353  0.6160 -0.6769
 7815TIP3    H223410   2.576   5.370   4.041  1.2187  0.1182  1.9748
 7816TIP3   OH223411   2.437   3.007   1.461  0.4560  0.0475 -0.0298
 7816TIP3    H123412   2.508   3.071   1.465 -0.5235  1.1129  1.2033
 7816TIP3    H223413   2.473   2.934   1.410  2.0317  1.0319 -0.3878
 7817TIP3   OH223414   0.901   1.108   1.218 -0.1122 -0.1842  0.1903
 7817TIP3    H123415   0.974   1.169   1.207  1.5800 -2.1455 -0.0657
 7817TIP3    H223416   0.897   1.061   1.135 -1.8597  0.0369  0.1177
 7818TIP3   OH223417   0.151   1.239   0.110 -0.4681  0.9467  0.5713
 7818TIP3    H123418   0.212   1.291   0.162 -0.8435  0.1378  1.8931
 7818TIP3    H223419   0.207   1.181   0.059 -0.0951  1.2360  0.6453
 7819TIP3   OH223420   0.120   3.946   5.512 -0.3082 -0.4656  0.3741
 7819TIP3    H123421   0.078   3.936   5.427 -0.5047 -0.5114  0.4751
 7819TIP3    H223422   0.196   3.887   5.508  2.0445  2.4404 -1.2338
 7820TIP3   OH223423   5.988   0.859   1.878 -0.0775 -0.2994 -0.2737
 7820TIP3    H123424   5.933   0.855   1.956  1.6472 -0.8570  0.9604
 7820TIP3    H223425   5.990   0.768   1.846 -1.0581 -0.0144 -1.2031
 7821TIP3   OH223426   6.131   3.590   3.998  0.2782  0.2006 -0.6886
 7821TIP3    H123427   6.121   3.602   4.092 -1.5471 -0.9721 -0.6780
 7821TIP3    H223428   6.155   3.498   3.987 -0.7142  0.0046 -1.3904
 7822TIP3   OH223429   3.751   0.213   2.670  0.3232  0.2324 -0.0354
 7822TIP3    H123430   3.729   0.232   2.579  0.2290  2.7671  0.4411
 7822TIP3    H223431   3.728   0.293   2.717 -0.1449 -1.1885  2.3210
 7823TIP3   OH223432   5.174   3.950   5.645 -0.7019 -0.1200  0.0604
 7823TIP3    H123433   5.129   3.911   5.570  0.4852 -1.0505 -0.2064
 7823TIP3    H223434   5.167   3.883   5.714  0.6910 -0.5391 -0.1588
 7824TIP3   OH223435   0.795   3.854   4.519 -0.2259 -0.6277  0.2141
 7824TIP3    H123436   0.753   3.902   4.448  0.3592 -1.1499 -0.5026
 7824TIP3    H223437   0.722   3.816   4.569 -0.6496  0.0668  0.1296
 7825TIP3   OH223438   1.631   5.994   1.474  0.0833 -0.2751 -0.2051
 7825TIP3    H123439   1.717   6.012   1.437 -0.5888  0.1856 -1.5859
 7825TIP3    H223440   1.585   6.078   1.472 -0.5270 -0.5893  0.1840
 7826TIP3   OH223441   0.429   5.547   0.329  0.1276 -0.3270  0.2641
 7826TIP3    H123442   0.385   5.572   0.410 -1.7201  0.3395 -0.8664
 7826TIP3    H223443   0.489   5.619   0.311 -0.7168  0.3805  0.1819
 7827TIP3   OH223444   3.891   3.235   3.131  0.1559 -0.2915  0.6038
 7827TIP3    H123445   3.981   3.221   3.103 -0.5470  1.1494 -3.0419
 7827TIP3    H223446   3.844   3.157   3.100 -0.2242  0.1132  0.1393
 7828TIP3   OH223447   6.139   4.492   0.761  0.1261 -0.1250  0.2633
 7828TIP3    H123448   6.124   4.406   0.722 -2.2529  0.3403 -0.0486
 7828TIP3    H223449   6.076   4.549   0.716  0.6857  1.4584  1.4308
 7829TIP3   OH223450   6.265   0.864   1.754 -0.5734 -0.5306  0.3717
 7829TIP3    H123451   6.263   0.888   1.847  0.0465  0.3980  0.1640
 7829TIP3    H223452   6.227   0.940   1.709  0.0350 -0.5546 -0.1998
 7830TIP3   OH223453   2.184   1.026   3.654  0.0966 -0.4095  0.0271
 7830TIP3    H123454   2.245   1.100   3.661 -1.8670  1.3282 -0.1512
 7830TIP3    H223455   2.201   0.990   3.567 -0.4528  1.3549 -0.8702
 7831TIP3   OH223456   1.208   1.825   3.755 -0.7364  0.3814  0.4419
 7831TIP3    H123457   1.142   1.891   3.734 -0.7894  0.1517 -0.1069
 7831TIP3    H223458   1.209   1.766   3.680 -1.3224 -0.7599  1.3073
 7832TIP3   OH223459   1.593   6.150   1.814  0.3204  0.4863 -0.0103
 7832TIP3    H123460   1.626   6.194   1.892 -0.7684  1.7264 -0.2080
 7832TIP3    H223461   1.628   6.061   1.820  0.2529  0.5378  1.8984
 7833TIP3   OH223462   2.760   1.333   1.965 -0.0166 -0.5387 -0.0717
 7833TIP3    H123463   2.806   1.271   2.021  1.2027  1.0390  0.7541
 7833TIP3    H223464   2.673   1.340   2.004 -0.4817 -2.3181 -0.6794
 7834TIP3   OH223465   6.387   4.808   4.573  0.2763  0.1356 -0.2422
 7834TIP3    H123466   6.374   4.879   4.637  2.1692 -0.0554  0.4201
 7834TIP3    H223467   6.345   4.732   4.614  0.4290  0.2947  0.2241
 7835TIP3   OH223468   4.523   1.499   5.291  0.2720  0.5256  0.0032
 7835TIP3    H123469   4.560   1.550   5.364  2.3964  0.7468 -1.1639
 7835TIP3    H223470   4.534   1.555   5.215 -0.1251 -0.4862 -0.8168
 7836TIP3   OH223471   4.430   0.665   5.812  0.5384 -0.4429  0.4825
 7836TIP3    H123472   4.469   0.738   5.860 -2.3630  1.7084 -0.1852
 7836TIP3    H223473   4.406   0.602   5.880  1.2540  0.1016  1.2651
 7837TIP3   OH223474   1.540   4.002   4.215  0.2085 -0.7761  0.0446
 7837TIP3    H123475   1.595   3.924   4.204 -0.7415 -1.5029  0.2353
 7837TIP3    H223476   1.456   3.977   4.175 -1.2948 -1.2028  3.1379
 7838TIP3   OH223477   4.767   1.308   3.324 -0.2714  0.0576  0.2503
 7838TIP3    H123478   4.799   1.398   3.319 -1.3570  0.4185 -0.6373
 7838TIP3    H223479   4.830   1.256   3.274  0.0490  0.4098  0.2882
 7839TIP3   OH223480   6.306   1.141   3.923 -0.4292 -0.2698 -0.0650
 7839TIP3    H123481   6.219   1.113   3.894 -0.0169 -1.1437 -0.4904
 7839TIP3    H223482   6.360   1.138   3.844 -0.3241  1.6433 -0.1052
 7840TIP3   OH223483   3.358   6.068   4.502 -0.1555 -0.0014 -1.2000
 7840TIP3    H123484   3.296   6.104   4.439  0.2370  0.1714 -1.4825
 7840TIP3    H223485   3.406   6.143   4.536 -0.3355 -0.0949 -0.7169
 7841TIP3   OH223486   0.609   1.301   2.276  0.5359 -0.8383  0.5425
 7841TIP3    H123487   0.559   1.246   2.217 -1.7443  1.5900  0.0273
 7841TIP3    H223488   0.674   1.344   2.219 -0.3063 -0.0569  0.1397
 7842TIP3   OH223489   1.720   5.794   5.413 -0.2017 -0.1954  0.6612
 7842TIP3    H123490   1.728   5.807   5.508 -1.5681  0.7849  0.6718
 7842TIP3    H223491   1.665   5.716   5.405 -2.9979  1.6133  0.7859
 7843TIP3   OH223492   6.767   4.825   1.499 -0.3538  0.1276 -0.6648
 7843TIP3    H123493   6.801   4.737   1.515  0.9223  0.8451  0.8040
 7843TIP3    H223494   6.674   4.818   1.522 -0.4566 -0.9966 -1.3051
 7844TIP3   OH223495   4.634   6.504   0.597 -0.2282 -0.2618  0.3340
 7844TIP3    H123496   4.555   6.502   0.543  0.6542  0.7229 -1.0683
 7844TIP3    H223497   4.603   6.486   0.686 -2.1341  0.8610 -0.0432
 7845TIP3   OH223498   3.515   0.975   2.653 -0.3653  0.7499 -0.5647
 7845TIP3    H123499   3.571   1.012   2.585 -0.3443  1.6717 -0.0683
 7845TIP3    H223500   3.573   0.960   2.727 -0.1320 -1.4373 -1.1197
 7846TIP3   OH223501   4.174   0.205   1.111 -0.2882  0.5265  0.4837
 7846TIP3    H123502   4.139   0.221   1.023  0.8478  0.5236  0.0174
 7846TIP3    H223503   4.198   0.113   1.112 -2.7944 -0.2172  1.7388
 7847TIP3   OH223504   3.229   2.115   0.895 -0.5211 -0.0700  0.0385
 7847TIP3    H123505   3.259   2.026   0.914 -0.6225 -0.0656  0.2188
 7847TIP3    H223506   3.309   2.167   0.896 -0.6431  0.1390  1.6511
 7848TIP3   OH223507   0.223   0.163   3.382 -0.5107 -0.7317  0.4601
 7848TIP3    H123508   0.288   0.143   3.314  1.0985  0.3521  1.5970
 7848TIP3    H223509   0.157   0.094   3.373 -1.7145  0.6969 -3.7559
 7849TIP3   OH223510   6.842   1.266   5.604  0.6503  0.2131  0.6076
 7849TIP3    H123511   6.853   1.216   5.685  0.9441 -2.7678 -1.1399
 7849TIP3    H223512   6.931   1.284   5.575  0.6026 -0.6424 -0.1124
 7850TIP3   OH223513   2.676   3.677   2.662 -0.0421  0.1874 -0.2697
 7850TIP3    H123514   2.754   3.636   2.624 -0.0416  0.4723 -0.5786
 7850TIP3    H223515   2.710   3.745   2.720 -0.0413 -0.2888  0.2941
 7851TIP3   OH223516   3.971   4.005   3.172 -0.6029  0.4301  0.9323
 7851TIP3    H123517   4.044   4.060   3.200 -0.7316  2.3620 -2.1338
 7851TIP3    H223518   4.013   3.927   3.135 -0.1594  0.8626  0.5138
 7852TIP3   OH223519   6.274   5.223   4.127  0.7687 -0.5521  0.4810
 7852TIP3    H123520   6.272   5.219   4.031 -1.0873 -1.2127  0.5079
 7852TIP3    H223521   6.367   5.214   4.149  1.1296 -1.5335 -1.2239
 7853TIP3   OH223522   1.411   2.858   2.632 -0.1628 -0.4392  0.4180
 7853TIP3    H123523   1.500   2.890   2.621  0.4877 -2.1332  0.5067
 7853TIP3    H223524   1.403   2.837   2.725 -0.7437 -0.0736  0.4583
 7854TIP3   OH223525   1.083   3.373   0.905  0.3470  0.1363 -0.0143
 7854TIP3    H123526   1.174   3.350   0.887  0.7057  1.3467  0.1971
 7854TIP3    H223527   1.059   3.318   0.980  0.3813 -1.3216 -1.0182
 7855TIP3   OH223528   6.113   6.398   1.084  0.1421  0.1812 -0.4144
 7855TIP3    H123529   6.142   6.456   1.154  0.4922 -0.7373  0.2243
 7855TIP3    H223530   6.095   6.315   1.128  0.4442 -0.4354 -1.4224
 7856TIP3   OH223531   1.013   2.799   4.233 -0.3250 -0.0947  0.3104
 7856TIP3    H123532   0.970   2.726   4.188 -1.9672  2.0459 -1.8667
 7856TIP3    H223533   0.947   2.831   4.295 -0.3201  0.6416 -0.0549
 7857TIP3   OH223534   2.160   3.255   0.666  0.1475 -0.0481 -0.0633
 7857TIP3    H123535   2.183   3.230   0.577 -1.5507  0.7595 -0.7744
 7857TIP3    H223536   2.162   3.173   0.716  1.4858 -0.4423 -0.7473
 7858TIP3   OH223537   6.804   2.046   0.409  0.3217  0.0246 -0.5761
 7858TIP3    H123538   6.746   2.072   0.480  1.9861 -0.9843  1.2196
 7858TIP3    H223539   6.745   2.019   0.338 -1.3727  0.3214  0.6761
 7859TIP3   OH223540   4.069   0.715   4.190 -0.1082  1.0089  0.0171
 7859TIP3    H123541   4.074   0.665   4.271  0.7307 -0.2854 -0.7862
 7859TIP3    H223542   4.137   0.677   4.134 -1.1701  1.3220 -1.5609
 7860TIP3   OH223543   3.940   2.107   0.615  0.7422  0.0013 -0.1397
 7860TIP3    H123544   3.943   2.011   0.616  0.1436 -0.1069 -2.8603
 7860TIP3    H223545   3.880   2.129   0.687 -0.2800 -1.7358 -0.3937
 7861TIP3   OH223546   6.306   1.426   0.097  0.3204 -0.6222 -0.5100
 7861TIP3    H123547   6.305   1.504   0.041 -1.2164 -0.4976 -0.3569
 7861TIP3    H223548   6.393   1.389   0.084  0.7695  0.6167 -1.2851
 7862TIP3   OH223549   0.176   0.720   0.089  0.1636  0.4565  0.2106
 7862TIP3    H123550   0.250   0.721   0.149  0.1583 -1.2748  0.3151
 7862TIP3    H223551   0.112   0.662   0.131  0.3875 -1.2700 -1.6390
 7863TIP3   OH223552   2.645   3.325   2.697 -0.5344 -0.0134  0.4936
 7863TIP3    H123553   2.729   3.281   2.683  0.0711  1.2904 -0.1955
 7863TIP3    H223554   2.668   3.417   2.707 -1.8607  0.3145  0.7139
 7864TIP3   OH223555   5.857   5.959   0.233  0.1849 -0.1920  0.0235
 7864TIP3    H123556   5.941   6.000   0.253  1.3680 -1.4594 -1.9963
 7864TIP3    H223557   5.877   5.893   0.167 -2.0581 -2.1269  1.1088
 7865TIP3   OH223558   0.647   3.284   0.909  0.4127 -0.1498  0.4229
 7865TIP3    H123559   0.568   3.333   0.885  0.1171  0.1776  1.9447
 7865TIP3    H223560   0.692   3.340   0.972  0.1017 -1.7527  2.1631
 7866TIP3   OH223561   3.785   2.571   4.589  0.4494  0.2758 -0.2543
 7866TIP3    H123562   3.779   2.611   4.502  3.4268 -2.0379 -1.6809
 7866TIP3    H223563   3.869   2.601   4.623 -0.5270  0.8833  1.8109
 7867TIP3   OH223564   2.404   2.191   0.535 -0.1801  0.1752  0.1231
 7867TIP3    H123565   2.342   2.254   0.572  0.5741  0.9228  0.1401
 7867TIP3    H223566   2.481   2.197   0.592  1.1618  1.6346 -1.7513
 7868TIP3   OH223567   4.640   4.540   3.829  0.2901 -0.1477 -0.3526
 7868TIP3    H123568   4.612   4.574   3.744  4.2656  0.7694 -1.5099
 7868TIP3    H223569   4.604   4.602   3.892 -2.7882 -0.8804 -1.2413
 7869TIP3   OH223570   0.571   6.110   2.802 -0.0413  0.2307 -0.2728
 7869TIP3    H123571   0.596   6.027   2.842  0.5805  0.7090  0.3600
 7869TIP3    H223572   0.645   6.133   2.746 -0.3462  0.2130 -0.6900
 7870TIP3   OH223573   7.038   1.683   4.730  0.4769 -0.2238  0.1179
 7870TIP3    H123574   7.132   1.692   4.720  0.5248  1.0977  1.3513
 7870TIP3    H223575   7.001   1.753   4.676  0.2868  0.2075  0.7898
 7871TIP3   OH223576   6.980   2.626   0.114 -0.0285  0.1664  0.1198
 7871TIP3    H123577   7.036   2.659   0.044  0.7017  1.3147  1.2004
 7871TIP3    H223578   7.035   2.626   0.192 -1.4828  1.3134  1.2192
 7872TIP3   OH223579   3.229   6.262   3.674 -0.7061 -0.3430  0.0336
 7872TIP3    H123580   3.271   6.319   3.738 -2.1448 -0.0530  0.7740
 7872TIP3    H223581   3.277   6.179   3.680 -1.1234 -0.4920  1.8964
 7873TIP3   OH223582   1.692   4.364   3.143 -0.1237 -0.2076  0.6395
 7873TIP3    H123583   1.673   4.292   3.204 -1.5548 -0.8971 -0.5584
 7873TIP3    H223584   1.785   4.353   3.122 -0.1716 -1.3466  0.9452
 7874TIP3   OH223585   3.661   2.067   1.657 -0.4844 -0.2249 -0.3830
 7874TIP3    H123586   3.605   2.077   1.733 -0.8071  0.9028 -0.7481
 7874TIP3    H223587   3.750   2.077   1.691 -0.6456  0.6241 -0.2020
 7875TIP3   OH223588   5.357   5.688   5.771 -0.0662 -0.8361 -0.2020
 7875TIP3    H123589   5.349   5.658   5.861 -1.5895 -0.1703 -0.0700
 7875TIP3    H223590   5.451   5.694   5.755  0.2537  0.4561  1.8449
 7876TIP3   OH223591   3.688   5.009   4.569 -0.2482  0.6937 -0.0979
 7876TIP3    H123592   3.767   4.983   4.616 -0.0509 -0.5158 -1.0558
 7876TIP3    H223593   3.659   5.089   4.613 -0.4425 -0.7079  2.4674
 7877TIP3   OH223594   4.255   3.121   4.258  0.5005 -0.3186 -0.2430
 7877TIP3    H123595   4.286   3.178   4.329 -2.5132  2.9128 -1.2669
 7877TIP3    H223596   4.271   3.170   4.178 -1.3836 -1.2818 -1.2913
 7878TIP3   OH223597   1.718   1.839   3.619 -0.4553 -0.1255  0.4615
 7878TIP3    H123598   1.623   1.851   3.628 -0.4200  1.1533 -0.5092
 7878TIP3    H223599   1.727   1.771   3.552 -0.7520  1.2533 -1.0722
 7879TIP3   OH223600   1.205   1.080   3.612 -0.0003 -0.0744 -0.3520
 7879TIP3    H123601   1.216   1.018   3.540  0.9125 -0.8343  0.4061
 7879TIP3    H223602   1.245   1.161   3.581 -0.7169 -0.0155 -1.1519
 7880TIP3   OH223603   5.560   4.084   0.297 -0.3190 -0.6976  0.2785
 7880TIP3    H123604   5.655   4.100   0.295 -0.2174 -1.2247  0.7068
 7880TIP3    H223605   5.538   4.086   0.390 -0.0720 -4.2097  0.5391
 7881TIP3   OH223606   3.124   1.455   4.474  0.3031  0.5448 -0.4010
 7881TIP3    H123607   3.096   1.472   4.384 -1.3934  0.8802  0.1667
 7881TIP3    H223608   3.078   1.375   4.500 -1.1982  1.7738  0.9521
 7882TIP3   OH223609   3.555   4.469   4.676 -0.2836 -0.2554 -0.2935
 7882TIP3    H123610   3.585   4.541   4.619 -1.0719 -1.5507 -2.4825
 7882TIP3    H223611   3.460   4.475   4.673 -0.3413 -0.6124  0.6031
 7883TIP3   OH223612   2.807   2.598   5.655  0.0214 -0.1899  0.5023
 7883TIP3    H123613   2.767   2.668   5.604 -0.0923 -0.8416 -0.3336
 7883TIP3    H223614   2.786   2.620   5.746  0.2238  0.9904  0.2780
 7884TIP3   OH223615   1.434   5.862   4.994  0.0512  0.4850  0.3609
 7884TIP3    H123616   1.352   5.832   4.953 -0.2181 -0.8120  1.7747
 7884TIP3    H223617   1.455   5.795   5.058  1.1651  1.8101  1.4464
 7885TIP3   OH223618   4.053   5.628  -0.004 -0.5369 -0.4831  0.7991
 7885TIP3    H123619   3.994   5.639   0.070  0.7752 -0.2088  1.8423
 7885TIP3    H223620   4.128   5.581   0.032  0.5343  0.4515 -0.1184
 7886TIP3   OH223621  -0.006   3.281   3.140  0.3305 -0.2587 -0.2697
 7886TIP3    H123622   0.038   3.344   3.197 -1.6647  0.3351  0.6930
 7886TIP3    H223623   0.033   3.297   3.054  0.4131  1.8197  0.0881
 7887TIP3   OH223624   6.996   2.855   2.984  0.2604 -0.4929 -0.2092
 7887TIP3    H123625   6.913   2.822   3.019  0.6004 -1.6885 -0.5011
 7887TIP3    H223626   7.040   2.892   3.060 -0.6303  0.3600 -0.0908
 7888TIP3   OH223627   6.774   2.947   4.762 -0.0686  0.5167  0.9218
 7888TIP3    H123628   6.791   2.972   4.853 -1.3956  1.1814  1.0112
 7888TIP3    H223629   6.804   3.021   4.710  0.2693  0.3292  0.8472
 7889TIP3   OH223630   1.083   4.507   1.476 -0.0502  0.1051 -0.1297
 7889TIP3    H123631   1.043   4.434   1.526  0.2986  0.0292  0.0387
 7889TIP3    H223632   1.173   4.512   1.508  0.2248 -0.0363 -0.8573
 7890TIP3   OH223633   3.463   6.338   3.415  0.0614  0.1058 -0.3338
 7890TIP3    H123634   3.530   6.405   3.418  0.5622 -0.4239  1.8778
 7890TIP3    H223635   3.497   6.267   3.469 -1.5085 -0.9291 -0.6266
 7891TIP3   OH223636   3.105   4.109   1.873 -0.1571  0.1319 -0.1909
 7891TIP3    H123637   3.151   4.157   1.941 -0.8347  0.6338 -0.0740
 7891TIP3    H223638   3.151   4.132   1.792  1.0894 -1.0224  0.1633
 7892TIP3   OH223639   3.165   3.989   3.872 -0.0384  0.0913  0.3554
 7892TIP3    H123640   3.256   3.961   3.880  0.5071  1.5320 -0.3234
 7892TIP3    H223641   3.141   4.016   3.960  0.6840  1.0167  0.2948
 7893TIP3   OH223642   5.221   0.653   0.776 -0.0001  0.2042 -0.1413
 7893TIP3    H123643   5.291   0.651   0.710 -0.7911  0.2912 -1.0066
 7893TIP3    H223644   5.265   0.675   0.857  1.1229 -0.7026 -0.4805
 7894TIP3   OH223645   0.626   2.092   4.664 -0.1065  0.6669 -0.0782
 7894TIP3    H123646   0.627   2.127   4.753 -0.1228 -0.5818  0.4326
 7894TIP3    H223647   0.592   2.003   4.674 -0.5364  0.6653 -1.3933
 7895TIP3   OH223648   6.138   2.755   3.460 -0.0658 -0.2664 -0.1529
 7895TIP3    H123649   6.052   2.797   3.459 -0.7198 -1.5329  0.5348
 7895TIP3    H223650   6.120   2.663   3.480  1.4321 -0.6038 -0.2152
 7896TIP3   OH223651   1.373   1.386   0.974  0.3390 -0.0209 -0.1361
 7896TIP3    H123652   1.323   1.336   1.038  0.6851 -0.1993 -0.0054
 7896TIP3    H223653   1.464   1.366   0.993  0.5301  1.3332  0.4731
 7897TIP3   OH223654   2.814   2.149   3.493 -0.5239  0.0267 -0.7324
 7897TIP3    H123655   2.794   2.217   3.429 -1.6477  2.9052  2.4093
 7897TIP3    H223656   2.728   2.124   3.528 -0.2177 -3.5928 -2.1395
 7898TIP3   OH223657   6.504   1.740   3.008 -1.1924  0.1601 -0.0513
 7898TIP3    H123658   6.568   1.748   3.078 -0.8970 -0.4626 -0.2394
 7898TIP3    H223659   6.549   1.772   2.930 -0.9898 -0.5575 -0.2432
 7899TIP3   OH223660   2.075   2.894   5.209  0.1932 -0.3200 -0.1547
 7899TIP3    H123661   2.000   2.900   5.269  1.3816  0.6226  1.3295
 7899TIP3    H223662   2.133   2.829   5.250  0.5835 -0.3964 -0.8141
 7900TIP3   OH223663   5.134   2.006   0.694 -0.0729 -0.3371 -0.3776
 7900TIP3    H123664   5.046   2.023   0.728  0.1668  0.9699 -0.3331
 7900TIP3    H223665   5.148   1.912   0.706  0.0566  0.0163  3.3495
 7901TIP3   OH223666   1.281   6.044   3.526  0.0216 -0.5979 -0.0506
 7901TIP3    H123667   1.300   6.134   3.499  0.2999 -1.1047 -1.6353
 7901TIP3    H223668   1.194   6.049   3.566  0.6209  0.5922  1.1990
 7902TIP3   OH223669   3.400   5.146   2.297  0.0790 -0.4007  0.8569
 7902TIP3    H123670   3.348   5.079   2.341 -0.1146  0.3286  1.7730
 7902TIP3    H223671   3.336   5.201   2.253  0.1624 -0.2450  0.9285
 7903TIP3   OH223672   1.189   2.517   4.248  0.3176 -0.1642 -0.0847
 7903TIP3    H123673   1.180   2.478   4.162 -0.2374 -0.2728  0.0194
 7903TIP3    H223674   1.130   2.467   4.304 -0.2898  0.7029  0.0810
 7904TIP3   OH223675   7.026   1.037   4.186  0.1875 -0.2654 -0.5615
 7904TIP3    H123676   7.049   1.027   4.278  1.0290 -1.0701 -0.8445
 7904TIP3    H223677   6.953   0.976   4.172  0.1739 -0.2687 -0.4769
 7905TIP3   OH223678   2.137   6.127   2.564  0.3265 -0.1282  0.6644
 7905TIP3    H123679   2.142   6.182   2.643 -0.2364 -0.2416  0.7887
 7905TIP3    H223680   2.069   6.062   2.585  0.4810 -0.4290  0.2472
 7906TIP3   OH223681   6.372   2.504   4.334 -0.1145  0.1676 -0.5140
 7906TIP3    H123682   6.407   2.593   4.330 -0.0968  0.1632 -0.4459
 7906TIP3    H223683   6.430   2.453   4.277  0.4066  0.0149  0.1445
 7907TIP3   OH223684   0.379   1.863   1.687  0.3665  0.1362 -0.1543
 7907TIP3    H123685   0.425   1.947   1.689 -0.4259  0.5650  0.5972
 7907TIP3    H223686   0.360   1.844   1.779  1.4519 -1.3953 -0.2033
 7908TIP3   OH223687   4.421   2.664   3.355  0.2888 -0.3700 -0.2165
 7908TIP3    H123688   4.507   2.625   3.372  0.2951 -0.4620 -0.4565
 7908TIP3    H223689   4.359   2.591   3.366  0.1832 -0.1880  0.4944
 7909TIP3   OH223690   3.097   3.764   3.545 -0.7780 -0.8917  0.2435
 7909TIP3    H123691   3.165   3.777   3.611 -1.2878 -0.6907  0.7404
 7909TIP3    H223692   3.052   3.684   3.574 -1.4613 -0.4112  0.5595
 7910TIP3   OH223693   3.004   5.196   4.974  0.2942  0.2358 -0.3187
 7910TIP3    H123694   2.923   5.247   4.979 -0.1832 -0.3402 -1.8585
 7910TIP3    H223695   2.976   5.106   4.992  0.8055  0.2083  0.3667
 7911TIP3   OH223696   4.921   0.885   3.996  0.3057 -0.1759 -0.2953
 7911TIP3    H123697   4.921   0.970   4.040 -3.4354 -0.1357 -0.0325
 7911TIP3    H223698   4.919   0.821   4.068  3.3727 -0.6339 -0.4849
 7912TIP3   OH223699   6.053   2.689   0.820  0.4263 -0.2313 -0.4869
 7912TIP3    H123700   6.136   2.662   0.858  1.6580  0.1146 -2.7343
 7912TIP3    H223701   5.998   2.611   0.824  1.7896 -1.2650 -1.3153
 7913TIP3   OH223702   1.259   1.519   0.442  0.7098  0.3598  0.3913
 7913TIP3    H123703   1.257   1.614   0.436  1.7123  0.3526 -0.3671
 7913TIP3    H223704   1.341   1.499   0.487  0.1778 -0.1372  1.1728
 7914TIP3   OH223705   4.804   5.716   4.967 -0.1421  0.0252 -0.5827
 7914TIP3    H123706   4.759   5.705   5.051 -1.9452 -0.4123 -1.5401
 7914TIP3    H223707   4.737   5.697   4.901  1.6121 -1.2471 -2.1289
 7915TIP3   OH223708   2.540   3.031   4.164 -0.0089  0.0089  0.0811
 7915TIP3    H123709   2.445   3.019   4.164  0.0397 -0.4567 -0.2331
 7915TIP3    H223710   2.575   2.942   4.156  0.4992  0.0074  1.9531
 7916TIP3   OH223711   0.041   5.208   3.490 -0.3495  0.5538  0.7472
 7916TIP3    H123712   0.120   5.262   3.486  0.5527 -0.8166 -1.7881
 7916TIP3    H223713   0.072   5.122   3.517 -1.2288  0.3903  1.2661
 7917TIP3   OH223714   1.685   4.163   4.911 -0.2364  0.2216  0.7282
 7917TIP3    H123715   1.734   4.229   4.961 -0.0699  0.4800  0.2257
 7917TIP3    H223716   1.750   4.123   4.854 -0.6617  0.7829 -0.1693
 7918TIP3   OH223717   4.141   4.724   5.817 -0.4836 -0.3931  0.4276
 7918TIP3    H123718   4.062   4.673   5.799 -0.3013 -0.3505 -0.5785
 7918TIP3    H223719   4.206   4.689   5.755 -0.5649  1.5479 -0.8253
 7919TIP3   OH223720   3.156   1.073   4.767  0.7218  0.1031  0.3311
 7919TIP3    H123721   3.089   1.139   4.787 -0.3449 -0.1570 -2.0906
 7919TIP3    H223722   3.235   1.124   4.751  0.4149  0.6340  0.4496
 7920TIP3   OH223723   6.222   3.479   0.224 -0.4454  0.1911  0.4797
 7920TIP3    H123724   6.237   3.571   0.245 -0.8430 -0.1890  2.7546
 7920TIP3    H223725   6.304   3.450   0.184 -0.1536  1.4137  0.1510
 7921TIP3   OH223726   6.338   5.246   3.535 -0.0242 -0.7176  0.1250
 7921TIP3    H123727   6.367   5.336   3.550  1.6153 -1.3183  0.7888
 7921TIP3    H223728   6.243   5.250   3.540 -0.0389  1.1529 -0.9066
 7922TIP3   OH223729   2.257   4.645   1.752  0.0584  0.1375  0.1259
 7922TIP3    H123730   2.246   4.721   1.809  1.4374 -0.4026  1.1732
 7922TIP3    H223731   2.296   4.578   1.809  0.5256 -0.7581 -1.2043
 7923TIP3   OH223732   3.370   2.259   2.035  0.4791 -0.3672 -0.0288
 7923TIP3    H123733   3.347   2.251   2.128  1.3935  0.4950  0.2912
 7923TIP3    H223734   3.436   2.191   2.021  1.5405  0.5423  0.3863
 7924TIP3   OH223735   4.073   2.391   1.434 -0.0411  0.8251  0.1586
 7924TIP3    H123736   4.149   2.369   1.489  0.2378  0.1119 -0.4970
 7924TIP3    H223737   4.101   2.469   1.386  0.9355 -0.3937 -1.3194
 7925TIP3   OH223738   1.052   2.503   0.455  0.0085 -0.2132  0.2918
 7925TIP3    H123739   1.063   2.549   0.538 -0.6859 -0.9978  0.8471
 7925TIP3    H223740   0.977   2.445   0.471  1.6117 -2.4669  0.0674
 7926TIP3   OH223741   2.549   5.890   1.523 -0.3017 -0.1704 -0.6911
 7926TIP3    H123742   2.625   5.880   1.579 -0.4924 -0.2373 -0.4442
 7926TIP3    H223743   2.503   5.806   1.529 -0.2405 -0.2356 -1.0674
 7927TIP3   OH223744   1.963   6.183   4.936 -0.1042  0.3005  0.4304
 7927TIP3    H123745   2.041   6.239   4.944  1.0975 -1.4070  1.3003
 7927TIP3    H223746   1.892   6.235   4.973  0.8660  1.4213  0.7715
 7928TIP3   OH223747   6.127   6.426   5.430  0.1373  0.3424 -0.3487
 7928TIP3    H123748   6.185   6.352   5.417 -1.3410 -0.7524 -0.9867
 7928TIP3    H223749   6.039   6.389   5.426 -0.6321  1.9211  0.6684
 7929TIP3   OH223750   6.267   2.214   2.332 -0.0012 -0.6872 -0.3058
 7929TIP3    H123751   6.192   2.273   2.321  0.7442  0.1022 -1.3383
 7929TIP3    H223752   6.259   2.182   2.422  0.1923  1.8736  0.7111
 7930TIP3   OH223753   2.297   0.950   0.220 -0.3445 -0.5912  0.0972
 7930TIP3    H123754   2.229   0.933   0.285 -1.1479  0.0597 -0.5496
 7930TIP3    H223755   2.255   1.008   0.156 -0.1844 -2.6796 -2.0305
 7931TIP3   OH223756   3.144   0.311   2.724 -0.5826 -0.2939 -0.2980
 7931TIP3    H123757   3.115   0.222   2.707 -0.3257 -0.5950  0.7713
 7931TIP3    H223758   3.236   0.303   2.747 -0.6535  0.1967  0.1786
 7932TIP3   OH223759   4.933   4.143   3.632 -0.1518 -0.0081  0.7389
 7932TIP3    H123760   4.878   4.211   3.671 -0.9116 -1.3477  2.1080
 7932TIP3    H223761   4.931   4.072   3.695  1.2593 -1.0155 -0.2975
 7933TIP3   OH223762   3.143   5.368   4.482  0.8335 -0.3174 -0.1341
 7933TIP3    H123763   3.093   5.299   4.526  0.4606 -0.0882 -0.1914
 7933TIP3    H223764   3.093   5.387   4.402  1.1816 -0.3061 -0.3515
 7934TIP3   OH223765   1.348   1.695   0.744  0.2782  0.2166  0.0371
 7934TIP3    H123766   1.432   1.679   0.786  0.6550  0.9693 -0.4147
 7934TIP3    H223767   1.285   1.644   0.796  0.7972  0.7583  1.2403
 7935TIP3   OH223768   7.171   2.699   0.275 -0.5555 -0.5701 -0.4039
 7935TIP3    H123769   7.135   2.724   0.360  0.4158  1.1323 -0.4438
 7935TIP3    H223770   7.208   2.780   0.240  0.7589 -1.6308 -1.5955
 7936TIP3   OH223771   0.074   4.577   0.780  0.2360 -0.2434  0.1873
 7936TIP3    H123772   0.037   4.605   0.697  1.0625  0.7473  0.1373
 7936TIP3    H223773   0.008   4.518   0.817 -0.1617 -0.6514 -1.1323
 7937TIP3   OH223774   3.016   0.468   2.015  0.0269  0.3705  0.2535
 7937TIP3    H123775   2.956   0.465   1.941 -2.3162  1.2887  1.9611
 7937TIP3    H223776   2.962   0.442   2.090  1.9770  0.5973  1.8229
 7938TIP3   OH223777   6.950   3.241   3.073  0.3489  0.2950 -0.5387
 7938TIP3    H123778   7.038   3.229   3.108 -0.7913  2.0874  3.5798
 7938TIP3    H223779   6.896   3.180   3.123 -0.8429 -0.9946 -3.1904
 7939TIP3   OH223780   2.238   2.500   0.884 -0.2590  0.0319 -0.5455
 7939TIP3    H123781   2.249   2.457   0.969  1.3941  0.6199 -0.4131
 7939TIP3    H223782   2.275   2.587   0.897 -0.8300  0.4488 -1.6260
 7940TIP3   OH223783   4.550   4.553   5.835  0.2535  1.0438  0.5911
 7940TIP3    H123784   4.517   4.587   5.752  0.2994  0.0513  0.1552
 7940TIP3    H223785   4.645   4.566   5.830  0.7369 -2.0710 -1.0389
 7941TIP3   OH223786   2.343   3.778   4.415 -0.7080 -0.4530 -0.0215
 7941TIP3    H123787   2.253   3.790   4.444 -0.3827 -0.7732  1.1701
 7941TIP3    H223788   2.393   3.767   4.496  0.5268  0.5009 -0.6363
 7942TIP3   OH223789   3.912   2.964   2.014  0.0697  0.2111 -0.4468
 7942TIP3    H123790   4.000   2.982   1.982  0.6847 -1.4529  0.1905
 7942TIP3    H223791   3.910   2.869   2.028 -1.7932  0.2198 -0.3448
 7943TIP3   OH223792   2.822   1.019   1.055  0.7534  0.2723  0.2495
 7943TIP3    H123793   2.880   1.027   1.130 -0.6417  0.4515  1.3562
 7943TIP3    H223794   2.857   0.945   1.005  0.1427 -1.7140  2.5629
 7944TIP3   OH223795   5.821   1.646   3.164  0.3347 -0.3304  0.0368
 7944TIP3    H123796   5.888   1.658   3.097 -1.9998 -2.1686 -2.8360
 7944TIP3    H223797   5.798   1.735   3.191  0.8893  0.5250 -2.1170
 7945TIP3   OH223798   2.075   1.478   4.459 -0.6104 -0.1171 -0.3075
 7945TIP3    H123799   2.059   1.559   4.507  1.2237  0.2439 -0.2239
 7945TIP3    H223800   2.054   1.500   4.368 -1.3256  0.0505 -0.1114
 7946TIP3   OH223801   2.844   0.583   0.950 -0.2042  0.2225 -0.1729
 7946TIP3    H123802   2.801   0.588   1.035  0.2464 -0.7617  0.1323
 7946TIP3    H223803   2.783   0.534   0.895  0.6216 -1.5077  0.3662
 7947TIP3   OH223804   4.022   3.105   5.101 -0.3044  0.1648 -0.3526
 7947TIP3    H123805   3.941   3.126   5.054  0.8576  0.6064 -2.2697
 7947TIP3    H223806   4.054   3.190   5.132  0.7637  0.4080 -1.9720
 7948TIP3   OH223807   4.344   4.752   4.285  0.0684  0.1735  1.0781
 7948TIP3    H123808   4.430   4.768   4.324  1.3692 -1.4182 -0.9318
 7948TIP3    H223809   4.325   4.661   4.306 -0.0587 -0.1577 -0.3764
 7949TIP3   OH223810   1.796   6.714   1.072  0.6762  0.3472  0.3699
 7949TIP3    H123811   1.723   6.667   1.112  0.3117 -1.5739 -2.2310
 7949TIP3    H223812   1.812   6.667   0.990  3.6779  1.8074 -0.0186
 7950TIP3   OH223813   2.496   0.938   4.329  0.1923  0.1525  0.0040
 7950TIP3    H123814   2.578   0.986   4.347  1.0996 -0.5062 -2.0584
 7950TIP3    H223815   2.428   1.005   4.335  0.7945  0.6567  2.0804
 7951TIP3   OH223816   4.945   0.571   5.306 -0.0238 -0.3180  0.3515
 7951TIP3    H123817   4.872   0.632   5.322  0.6732  1.1071 -1.5850
 7951TIP3    H223818   4.902   0.489   5.282 -1.0679  0.6256 -1.2370
 7952TIP3   OH223819   1.746   1.559   2.600 -0.9244  0.5001 -0.6461
 7952TIP3    H123820   1.763   1.650   2.575 -0.8518  0.4416 -0.8178
 7952TIP3    H223821   1.804   1.508   2.543 -1.3420  0.3223 -0.9174
 7953TIP3   OH223822   4.103   4.126   4.151 -0.5317  0.9083  0.5247
 7953TIP3    H123823   4.172   4.175   4.194 -1.2560  2.0781  0.4104
 7953TIP3    H223824   4.138   4.038   4.140  0.5073  1.1938  1.4502
 7954TIP3   OH223825   6.472   6.344   4.718  0.2121  0.2035  0.0556
 7954TIP3    H123826   6.529   6.389   4.656 -1.0020 -0.0618 -1.3247
 7954TIP3    H223827   6.518   6.348   4.801  1.5306  1.2952 -0.6925
 7955TIP3   OH223828   3.022   2.365   3.304  0.3398  0.0181 -0.0878
 7955TIP3    H123829   2.942   2.355   3.253  0.1958  0.0512  0.1315
 7955TIP3    H223830   3.051   2.454   3.286  0.6733 -0.1990 -0.6650
 7956TIP3   OH223831   4.826   4.397   3.730 -0.0332 -0.4097 -0.0492
 7956TIP3    H123832   4.902   4.437   3.772 -0.5302 -0.3942  0.8616
 7956TIP3    H223833   4.751   4.443   3.768 -0.5094 -0.5283 -0.8237
 7957TIP3   OH223834   6.788   4.581   1.598  0.3634  0.1713  0.3483
 7957TIP3    H123835   6.835   4.510   1.642  0.1987  0.4902  1.0479
 7957TIP3    H223836   6.697   4.571   1.625  0.3587  0.7184  0.5521
 7958TIP3   OH223837   3.314   4.285   2.330 -0.4752  0.3478 -0.8061
 7958TIP3    H123838   3.283   4.293   2.420  1.8626  1.2304 -0.0004
 7958TIP3    H223839   3.365   4.204   2.329 -0.5240  0.3197 -1.3536
 7959TIP3   OH223840   2.639   3.822   2.991 -0.0912  0.0435 -0.2801
 7959TIP3    H123841   2.712   3.771   3.026 -0.1086 -0.3534 -0.8101
 7959TIP3    H223842   2.677   3.872   2.919 -0.2203  0.2750 -0.1895
 7960TIP3   OH223843   4.069   1.913   2.134  0.3981  0.0627  0.1852
 7960TIP3    H123844   4.133   1.895   2.066  0.3782  1.6354 -0.2854
 7960TIP3    H223845   4.062   2.008   2.136  1.3281  0.1901  3.2377
 7961TIP3   OH223846   6.427   1.251   0.529 -0.3988 -0.0191  0.0352
 7961TIP3    H123847   6.479   1.227   0.453 -1.1760  0.1431 -0.5600
 7961TIP3    H223848   6.488   1.246   0.603 -0.4209 -3.8028 -0.0079
 7962TIP3   OH223849   5.696   5.754   5.386 -0.0690  0.2685  0.0890
 7962TIP3    H123850   5.682   5.831   5.330  1.5524  1.5123  1.2904
 7962TIP3    H223851   5.634   5.689   5.353 -1.0824  1.8743 -1.3640
 7963TIP3   OH223852   6.414   0.661   5.149 -0.2833  0.0132  0.0595
 7963TIP3    H123853   6.495   0.651   5.098 -0.9784  0.1820 -1.1335
 7963TIP3    H223854   6.380   0.747   5.122 -1.2785 -0.4183 -0.0943
 7964TIP3   OH223855   1.936   2.528   4.209 -0.3016  0.3988 -0.5209
 7964TIP3    H123856   1.900   2.609   4.174  1.4990  1.5657  0.2221
 7964TIP3    H223857   1.863   2.488   4.257 -1.1392  1.7001 -0.6805
 7965TIP3   OH223858   1.976   0.308   3.538 -0.4794 -0.6491 -0.1793
 7965TIP3    H123859   1.952   0.269   3.454 -1.7800 -0.6858  0.1985
 7965TIP3    H223860   1.970   0.403   3.523 -3.1994 -0.6373  0.5135
 7966TIP3   OH223861   6.254   0.466   5.081  0.8091  0.2382 -0.5454
 7966TIP3    H123862   6.247   0.459   4.985 -0.3700 -1.9080 -0.3486
 7966TIP3    H223863   6.319   0.536   5.094 -2.0898  3.7337 -2.8353
 7967TIP3   OH223864   2.881   0.548   0.269  0.3751  0.0388 -0.5222
 7967TIP3    H123865   2.857   0.636   0.244 -0.1245  0.0867  0.1048
 7967TIP3    H223866   2.892   0.501   0.186 -1.3318  0.1547 -0.8463
 7968TIP3   OH223867   4.527   2.886   5.271 -0.0751  0.2634  0.2889
 7968TIP3    H123868   4.443   2.932   5.265  0.4532  1.2248  0.0649
 7968TIP3    H223869   4.556   2.902   5.361  0.6883  1.4382 -0.1442
 7969TIP3   OH223870   5.095   6.492   0.918  0.4116  0.7562  0.2927
 7969TIP3    H123871   5.022   6.489   0.857  1.9055 -0.0871 -1.5804
 7969TIP3    H223872   5.087   6.412   0.969  1.2332 -0.5872 -1.5272
 7970TIP3   OH223873   2.243   6.769   3.751  0.3132  0.7107 -0.4103
 7970TIP3    H123874   2.206   6.796   3.835  0.6175  2.1149 -0.7078
 7970TIP3    H223875   2.320   6.717   3.776 -0.5319 -0.2909  0.1783
 7971TIP3   OH223876   6.962   0.062   0.888 -0.4450 -0.0302 -0.4643
 7971TIP3    H123877   6.997  -0.026   0.904 -1.3336 -0.2010  0.6555
 7971TIP3    H223878   6.888   0.048   0.829  0.4427  0.1755 -1.6658
 7972TIP3   OH223879   1.849   2.038   2.109 -0.4950 -0.3561 -0.3417
 7972TIP3    H123880   1.808   2.070   2.190 -0.5338  0.1889 -0.5702
 7972TIP3    H223881   1.930   1.997   2.139 -0.0238  0.7162 -0.1045
 7973TIP3   OH223882   1.879   2.182   3.976 -0.0952  0.2006 -0.3257
 7973TIP3    H123883   1.809   2.247   3.972 -0.6761 -0.4344 -0.6357
 7973TIP3    H223884   1.934   2.210   4.049 -1.8537 -0.4820  1.3355
 7974TIP3   OH223885   6.622   3.478   5.303  0.2304  0.2423 -0.4032
 7974TIP3    H123886   6.704   3.513   5.269 -0.0487  1.4876  0.1553
 7974TIP3    H223887   6.641   3.456   5.394 -0.2200  1.1957 -0.0627
 7975TIP3   OH223888   6.174   3.084   2.396 -0.0669  0.2557  0.4176
 7975TIP3    H123889   6.230   3.160   2.379  1.7456 -1.4002 -1.5820
 7975TIP3    H223890   6.202   3.052   2.482  0.6954  0.5819  0.2986
 7976TIP3   OH223891   4.437   2.120   1.130 -0.8548  0.4769  0.1029
 7976TIP3    H123892   4.381   2.184   1.087 -1.4548  0.3012  0.6159
 7976TIP3    H223893   4.384   2.085   1.201 -1.0866 -1.6343 -1.0096
 7977TIP3   OH223894   0.775   5.525   0.803  0.4576  0.1642 -0.0487
 7977TIP3    H123895   0.766   5.620   0.807  3.1181  0.4527  0.7342
 7977TIP3    H223896   0.760   5.496   0.893  1.6884  0.0906  0.1437
 7978TIP3   OH223897   4.870   3.564   0.108 -0.3178  0.3337 -0.3991
 7978TIP3    H123898   4.830   3.648   0.131  2.1116  1.5829 -0.3065
 7978TIP3    H223899   4.846   3.550   0.016 -2.3547  0.0923  0.1341
 7979TIP3   OH223900   1.245   1.174   2.874  0.2848  0.5104 -0.3933
 7979TIP3    H123901   1.267   1.239   2.807  0.4057  0.5075 -0.3562
 7979TIP3    H223902   1.157   1.199   2.903  0.0177  0.1961 -0.9271
 7980TIP3   OH223903   3.840   4.813   1.151 -0.5503 -0.3132  0.0733
 7980TIP3    H123904   3.830   4.803   1.056  0.1413 -0.8570  0.0501
 7980TIP3    H223905   3.759   4.778   1.187 -2.0128  2.3308 -0.4011
 7981TIP3   OH223906   5.567   0.580   3.935  0.4822 -0.5342  0.1521
 7981TIP3    H123907   5.627   0.615   3.868 -0.9490  0.7631 -0.5168
 7981TIP3    H223908   5.620   0.576   4.014  1.7621 -0.4882 -0.6711
 7982TIP3   OH223909   4.638   4.458   1.796  0.1032  0.2665 -0.2152
 7982TIP3    H123910   4.546   4.450   1.771  0.1808  0.1467 -0.4602
 7982TIP3    H223911   4.645   4.407   1.877 -0.1728  0.7569  0.1310
 7983TIP3   OH223912   3.487   1.001   1.652 -0.3277 -0.3894 -0.4425
 7983TIP3    H123913   3.397   1.018   1.680  0.1522 -0.1197  1.0424
 7983TIP3    H223914   3.491   0.906   1.641  0.2792 -1.0663  3.8461
 7984TIP3   OH223915   0.393   3.374   1.081 -0.5915 -0.4680 -0.1062
 7984TIP3    H123916   0.405   3.305   1.146 -0.5754  0.9380  1.4344
 7984TIP3    H223917   0.333   3.436   1.121  0.7548  1.3141 -0.6873
 7985TIP3   OH223918   3.076   2.570   5.567 -0.2688  0.4184 -0.1446
 7985TIP3    H123919   3.058   2.541   5.478 -0.4781 -1.3752  0.4438
 7985TIP3    H223920   2.991   2.573   5.610 -0.1348  0.9312  0.1021
 7986TIP3   OH223921   4.667   6.030   0.543  0.1880  0.4380 -0.5491
 7986TIP3    H123922   4.638   6.062   0.458 -1.2054  1.9457  0.4462
 7986TIP3    H223923   4.593   5.980   0.577  1.7972 -2.8388 -1.4437
 7987TIP3   OH223924   6.295   0.201   3.980 -0.5444  0.4178 -0.3577
 7987TIP3    H123925   6.312   0.243   4.064  1.7173 -0.6539 -0.1968
 7987TIP3    H223926   6.212   0.155   3.992  0.4572 -0.9762  1.8552
 7988TIP3   OH223927   6.767   5.192   0.746  0.0005  0.0749  0.3478
 7988TIP3    H123928   6.722   5.183   0.830 -0.0764  0.1373  0.3133
 7988TIP3    H223929   6.855   5.222   0.769  1.0529 -2.9234  0.6668
 7989TIP3   OH223930   1.560   3.966   3.246  0.5042 -0.5650 -0.0614
 7989TIP3    H123931   1.600   4.033   3.302  0.1665  0.2878 -0.8165
 7989TIP3    H223932   1.475   3.949   3.288  1.4741 -2.1803  1.3869
 7990TIP3   OH223933   3.870   4.819   2.564 -0.2488 -1.0087  0.3348
 7990TIP3    H123934   3.831   4.886   2.508  0.9633 -0.8429 -0.3457
 7990TIP3    H223935   3.924   4.767   2.505  1.6659 -0.3770  1.4421
 7991TIP3   OH223936   6.458   4.978   4.340  0.2461 -0.2848  0.0997
 7991TIP3    H123937   6.431   4.925   4.415 -0.6966 -0.9770 -0.7002
 7991TIP3    H223938   6.379   4.986   4.287  0.4392  1.6953  0.0493
 7992TIP3   OH223939   3.762   5.870   3.945  0.2942  0.2367 -0.1022
 7992TIP3    H123940   3.775   5.777   3.929  0.5303  0.5282 -1.7746
 7992TIP3    H223941   3.746   5.908   3.859  1.3048  1.9200  0.3926
 7993TIP3   OH223942   0.540   3.778   1.604  0.5768  0.4065 -0.3035
 7993TIP3    H123943   0.597   3.819   1.668  1.3370 -2.4893  1.0654
 7993TIP3    H223944   0.471   3.842   1.588  0.5252  1.4310  3.1808
 7994TIP3   OH223945   1.737   1.486   4.722  0.4085 -0.1773 -0.5766
 7994TIP3    H123946   1.647   1.512   4.700  0.5066 -0.9120 -2.0069
 7994TIP3    H223947   1.750   1.515   4.812 -0.6661  1.4856 -0.9258
 7995TIP3   OH223948   2.382   0.765   3.297  0.0687 -0.0164 -0.5476
 7995TIP3    H123949   2.390   0.861   3.295 -0.5626  0.0379 -0.6745
 7995TIP3    H223950   2.472   0.733   3.288  0.2962  0.5662 -0.3871
 7996TIP3   OH223951   5.791   4.967   5.477 -0.0366 -0.2543 -0.1017
 7996TIP3    H123952   5.745   5.046   5.505  1.4987  1.0887 -1.2277
 7996TIP3    H223953   5.883   4.983   5.497  0.2842 -1.8603 -0.1499
 7997TIP3   OH223954   2.188   2.923   1.795  0.0661 -0.3373 -0.1661
 7997TIP3    H123955   2.277   2.898   1.769  0.3106 -0.4126  0.6876
 7997TIP3    H223956   2.169   3.002   1.744  0.3712 -0.6871 -0.8312
 7998TIP3   OH223957   6.918   0.928   5.602 -0.1679 -0.6477  0.4991
 7998TIP3    H123958   6.829   0.945   5.572  0.0219  0.5464  0.5841
 7998TIP3    H223959   6.925   0.975   5.685  1.2618  1.2727 -0.6368
 7999TIP3   OH223960   0.466   6.339   1.053  0.3883 -0.4534  0.3526
 7999TIP3    H123961   0.376   6.320   1.024  0.4159 -0.0410 -0.0086
 7999TIP3    H223962   0.464   6.431   1.077  1.0213 -0.0925 -0.8695
 8000TIP3   OH223963   4.412   4.022   4.115 -0.7213  0.1676  0.3910
 8000TIP3    H123964   4.386   4.083   4.184  0.7462 -1.1826  2.2667
 8000TIP3    H223965   4.354   3.947   4.127 -1.4720  0.5354 -0.8693
 8001TIP3   OH223966   3.551   4.701   0.656 -0.3823  0.5030 -0.3471
 8001TIP3    H123967   3.621   4.643   0.684 -0.7773 -0.6670 -1.6293
 8001TIP3    H223968   3.508   4.654   0.584 -0.1526  2.7684 -2.0985
 8002TIP3   OH223969   4.557   5.165   4.895 -0.3472 -0.6751  0.1601
 8002TIP3    H123970   4.626   5.188   4.957  0.4872  0.8865 -1.2429
 8002TIP3    H223971   4.519   5.249   4.869 -1.4204 -1.3644 -0.5946
 8003TIP3   OH223972   3.593   4.704   1.269  0.4836  0.6349  0.0796
 8003TIP3    H123973   3.568   4.789   1.305  2.3044  0.4646  1.9566
 8003TIP3    H223974   3.515   4.672   1.225 -2.5878  0.3404  4.9410
 8004TIP3   OH223975   6.938   0.218   2.149  0.1268 -0.6013  0.1504
 8004TIP3    H123976   6.884   0.284   2.192  0.2547 -0.8819  0.7470
 8004TIP3    H223977   6.880   0.143   2.138  0.2500 -0.7226  0.3272
 8005TIP3   OH223978   1.882   4.271   5.280 -0.0782  0.1921  0.2802
 8005TIP3    H123979   1.873   4.366   5.271  1.4826  0.2675 -0.9142
 8005TIP3    H223980   1.973   4.259   5.307 -0.4139 -0.9591  0.9492
 8006TIP3   OH223981   0.919   5.385   3.580  0.1395  0.5444 -0.0090
 8006TIP3    H123982   1.009   5.353   3.579 -0.2404 -0.5713 -0.8400
 8006TIP3    H223983   0.868   5.316   3.537 -1.1994  0.9094  0.8971
 8007TIP3   OH223984   1.318   0.488   4.681  0.3081  0.2836  0.3446
 8007TIP3    H123985   1.279   0.523   4.601  0.4353  0.9617  0.5700
 8007TIP3    H223986   1.376   0.418   4.651 -1.2596 -0.9481  0.0217
 8008TIP3   OH223987   0.106   5.103   1.860 -0.5175 -0.4778  0.5070
 8008TIP3    H123988   0.132   5.097   1.952  2.3101  1.8959  0.0519
 8008TIP3    H223989   0.177   5.060   1.812 -2.1138 -1.9783 -0.6090
 8009TIP3   OH223990   1.500   5.746   5.620  0.4129  0.3932  0.0659
 8009TIP3    H123991   1.468   5.803   5.550 -2.3289 -0.2819  0.6510
 8009TIP3    H223992   1.517   5.662   5.576  0.3624  0.4595 -0.0834
 8010TIP3   OH223993   2.262   3.321   1.349 -0.0663 -0.2455 -0.0722
 8010TIP3    H123994   2.355   3.344   1.358  0.2407  0.2831 -3.2753
 8010TIP3    H223995   2.232   3.374   1.275 -2.3649 -1.9853 -0.4738
 8011TIP3   OH223996   1.555   1.623   4.218 -0.5550  0.6470  0.2952
 8011TIP3    H123997   1.601   1.701   4.247  1.1793  0.0404 -0.6823
 8011TIP3    H223998   1.610   1.586   4.150 -1.0980 -1.6481  0.9935
 8012TIP3   OH223999   3.362   6.729   3.781  0.2852  0.1551  0.1213
 8012TIP3    H124000   3.393   6.791   3.847 -1.0354 -0.3628  1.3010
 8012TIP3    H224001   3.267   6.734   3.788  0.1398 -0.4397 -1.2751
 8013TIP3   OH224002   5.449   1.246   1.269  0.2754  0.4911  0.3710
 8013TIP3    H124003   5.410   1.159   1.277  1.0249  0.2578  1.9660
 8013TIP3    H224004   5.378   1.306   1.288  0.2785  0.1231  1.6373
 8014TIP3   OH224005   5.507   5.264   5.749  0.6118 -0.2607 -0.0585
 8014TIP3    H124006   5.422   5.301   5.772  1.3422  1.5181 -0.1106
 8014TIP3    H224007   5.568   5.302   5.813  1.9768  1.4759 -2.2500
 8015TIP3   OH224008   5.193   3.812   2.113  0.0697  0.1464  0.2452
 8015TIP3    H124009   5.260   3.853   2.058 -1.5565  0.1749 -1.8382
 8015TIP3    H224010   5.178   3.727   2.071 -2.1938  0.7272 -0.2324
 8016TIP3   OH224011   7.142   1.559   3.366 -0.2474 -0.0998  0.5608
 8016TIP3    H124012   7.073   1.606   3.412 -0.0333  0.5093  0.2716
 8016TIP3    H224013   7.099   1.482   3.330 -0.3163 -0.8558  2.1805
 8017TIP3   OH224014   6.664   1.532   0.910 -0.2671 -0.0882  0.3058
 8017TIP3    H124015   6.729   1.575   0.854 -2.4149  0.6670 -1.7700
 8017TIP3    H224016   6.594   1.596   0.919 -1.1296 -1.1806  1.7690
 8018TIP3   OH224017   7.212   5.373   2.930 -0.1346 -0.0916  0.1767
 8018TIP3    H124018   7.179   5.360   3.019  1.1092 -1.8617  0.4276
 8018TIP3    H224019   7.209   5.286   2.891 -1.5508  0.8133 -1.8779
 8019TIP3   OH224020   1.964   0.227   5.352  0.5246  0.1302  0.4083
 8019TIP3    H124021   1.987   0.138   5.328 -0.8113 -0.2779  0.5555
 8019TIP3    H224022   1.894   0.217   5.416  0.3812  1.2860  0.4531
 8020TIP3   OH224023   0.257   6.583   3.699  0.8511 -0.2471 -0.5797
 8020TIP3    H124024   0.231   6.635   3.623  0.1987  0.2217 -0.0431
 8020TIP3    H224025   0.226   6.633   3.774 -0.0708 -1.5711 -0.0489
 8021TIP3   OH224026   5.645   3.192   2.922  0.6459 -0.0185 -1.0690
 8021TIP3    H124027   5.593   3.272   2.914 -0.5092 -0.8077 -1.7617
 8021TIP3    H224028   5.730   3.222   2.954  0.1221  1.4367 -0.9501
 8022TIP3   OH224029   4.654   6.021   4.409  0.5456 -0.4991  0.3664
 8022TIP3    H124030   4.662   6.099   4.465 -1.6730  0.5553 -0.6535
 8022TIP3    H224031   4.606   6.052   4.332  0.1094 -2.7559 -0.3327
 8023TIP3   OH224032   1.262   0.918   2.781  0.0362  0.3946 -0.0649
 8023TIP3    H124033   1.170   0.895   2.772  0.0315  0.4982 -0.2854
 8023TIP3    H224034   1.262   1.005   2.821 -0.0319  1.5164 -2.3310
 8024TIP3   OH224035   0.920   0.577   5.459  0.5003 -0.3159 -0.5683
 8024TIP3    H124036   1.000   0.542   5.499  1.9859  0.3421 -2.7459
 8024TIP3    H224037   0.950   0.652   5.409 -1.6203  0.3060 -0.9996
 8025TIP3   OH224038   0.700   1.420   2.499 -0.1441 -0.0666 -0.2147
 8025TIP3    H124039   0.685   1.382   2.413 -1.3745  1.9593 -0.9692
 8025TIP3    H224040   0.705   1.515   2.483  1.4680  0.2434  1.7179
 8026TIP3   OH224041   2.488   3.404   2.493 -0.3799  0.3118  0.1137
 8026TIP3    H124042   2.513   3.381   2.582 -0.4393  0.4471  0.1656
 8026TIP3    H224043   2.572   3.419   2.448 -0.3728  3.2574  0.9470
 8027TIP3   OH224044   4.491   4.301   5.693  0.8935  0.0230 -0.0767
 8027TIP3    H124045   4.417   4.337   5.643 -0.4064 -0.6542  1.2749
 8027TIP3    H224046   4.517   4.371   5.752  0.4797 -0.1491  0.3191
 8028TIP3   OH224047   2.992   2.259   4.817  0.2234  0.1855  0.2097
 8028TIP3    H124048   2.989   2.181   4.762  1.9612 -0.0939  0.4697
 8028TIP3    H224049   3.081   2.293   4.807  0.5101  0.3049  2.5554
 8029TIP3   OH224050   3.480   4.748   3.298  0.2271  0.2368  0.2142
 8029TIP3    H124051   3.492   4.822   3.237  0.7897 -0.3026 -0.3522
 8029TIP3    H224052   3.483   4.671   3.242  0.6360 -0.2674  0.9181
 8030TIP3   OH224053   2.433   2.003   3.143 -0.2763 -0.1975 -0.3650
 8030TIP3    H124054   2.495   1.954   3.088  1.0157 -0.0208  0.9009
 8030TIP3    H224055   2.413   1.944   3.216 -1.0048  0.0572 -0.3440
 8031TIP3   OH224056   4.605   0.129   1.854  0.2013  0.2643 -0.1627
 8031TIP3    H124057   4.663   0.054   1.844  0.0507  0.2362 -0.9494
 8031TIP3    H224058   4.597   0.142   1.948 -0.7088 -1.4492  0.0488
 8032TIP3   OH224059   4.473   6.086   4.209 -0.6437 -0.5230  0.2630
 8032TIP3    H124060   4.434   6.171   4.230 -0.6682 -0.3854 -0.3235
 8032TIP3    H224061   4.422   6.054   4.134  0.7511 -0.0570 -0.9238
 8033TIP3   OH224062   6.861   2.826   1.176  0.6039  0.3158  0.0840
 8033TIP3    H124063   6.873   2.737   1.209 -0.1797 -0.3405 -1.2720
 8033TIP3    H224064   6.941   2.845   1.127  0.8954  0.4751  0.6211
 8034TIP3   OH224065   6.079   2.928   0.250  0.5056  0.1912  0.4917
 8034TIP3    H124066   6.129   2.983   0.310 -1.1913  1.2051  1.0493
 8034TIP3    H224067   5.996   2.912   0.295 -0.3120 -0.0887 -1.0381
 8035TIP3   OH224068   1.329   5.817   3.641  0.3260  0.0905 -0.0997
 8035TIP3    H124069   1.244   5.793   3.603  1.2208 -0.6611 -1.7560
 8035TIP3    H224070   1.343   5.908   3.614 -0.6627  0.7805  1.5955
 8036TIP3   OH224071   5.645   6.002   3.409 -0.1268 -0.0935 -0.2174
 8036TIP3    H124072   5.615   6.056   3.482 -0.1761  2.0611 -1.7366
 8036TIP3    H224073   5.652   5.914   3.446 -0.9283  0.7480  2.1490
 8037TIP3   OH224074   7.043   6.116   2.738  0.0383 -0.0838 -0.1423
 8037TIP3    H124075   7.117   6.100   2.795 -1.0003  1.8043  1.9027
 8037TIP3    H224076   6.994   6.034   2.737  1.1658 -0.7685 -0.0067
 8038TIP3   OH224077   6.253   5.175   3.848 -0.5469  0.1034  0.1369
 8038TIP3    H124078   6.311   5.127   3.789  0.3201  0.8460  0.3665
 8038TIP3    H224079   6.200   5.229   3.791 -2.0394 -1.6061 -0.1856
 8039TIP3   OH224080   1.091   4.463   1.749  0.5877  0.1025 -0.3453
 8039TIP3    H124081   1.132   4.501   1.826  1.1351  0.7594 -0.9449
 8039TIP3    H224082   0.997   4.480   1.761  0.6767  0.2670  0.1355
 8040TIP3   OH224083   5.896   0.178   5.662 -0.2116  0.2720 -0.0293
 8040TIP3    H124084   5.821   0.217   5.618 -1.3428 -0.5334  1.1432
 8040TIP3    H224085   5.874   0.178   5.754  0.8861 -0.7231  0.2662
 8041TIP3   OH224086   0.953   5.830   3.367  0.9468 -0.2032  0.1566
 8041TIP3    H124087   0.959   5.764   3.436  0.3877 -1.6890 -1.1512
 8041TIP3    H224088   0.863   5.862   3.372  0.5051 -1.2442 -0.6511
 8042TIP3   OH224089   0.834   4.530   1.851 -0.3366  0.3151 -0.1025
 8042TIP3    H124090   0.765   4.466   1.866  0.5716 -1.1759 -2.0027
 8042TIP3    H224091   0.846   4.572   1.937 -0.9401 -2.0430  1.2143
 8043TIP3   OH224092   3.862   6.168   1.836 -0.7037 -0.0406  0.4441
 8043TIP3    H124093   3.772   6.202   1.838 -0.2087  1.3444  0.5200
 8043TIP3    H224094   3.909   6.220   1.901 -0.2488 -2.0787  1.8411
 8044TIP3   OH224095   4.196   1.646   2.936  0.0878 -0.4759 -0.6270
 8044TIP3    H124096   4.125   1.634   2.998 -0.8332  0.8659 -1.3553
 8044TIP3    H224097   4.256   1.707   2.979  0.3984 -0.9775 -0.3383
 8045TIP3   OH224098   2.873   5.173   3.005 -0.2719 -0.7670  0.4320
 8045TIP3    H124099   2.926   5.102   3.040  0.3491 -0.6934 -0.3161
 8045TIP3    H224100   2.892   5.173   2.911 -0.2187  0.4170  0.4250
 8046TIP3   OH224101   6.868   3.711   3.003  0.2849 -0.1817  0.6214
 8046TIP3    H124102   6.906   3.765   2.934 -1.1862  1.5507  1.1002
 8046TIP3    H224103   6.887   3.758   3.084 -2.0340  0.3141  0.9485
 8047TIP3   OH224104   3.769   2.220   0.790  0.2932  0.5329  0.3540
 8047TIP3    H124105   3.827   2.283   0.833 -1.3928  1.4487  1.3748
 8047TIP3    H224106   3.694   2.273   0.761 -0.9426 -0.9108  0.7994
 8048TIP3   OH224107   1.364   1.859   1.201 -0.0031  0.1803  0.4260
 8048TIP3    H124108   1.289   1.914   1.180 -0.2627  0.3510  1.7048
 8048TIP3    H224109   1.334   1.803   1.273  0.9618 -0.0156  0.6989
 8049TIP3   OH224110   2.616   5.017   4.397  0.2486  0.0568 -0.4468
 8049TIP3    H124111   2.558   4.954   4.440 -1.2733  0.3352 -1.9720
 8049TIP3    H224112   2.663   4.965   4.331  0.4988  0.1438 -0.3376
 8050TIP3   OH224113   6.580   6.118   2.562  0.3293 -0.0754  0.3025
 8050TIP3    H124114   6.675   6.123   2.571  0.3625  0.1794 -0.1353
 8050TIP3    H224115   6.562   6.160   2.478 -0.2325  0.4459  0.6767
 8051TIP3   OH224116   5.594   4.449   1.987  0.4944 -0.4795  0.0872
 8051TIP3    H124117   5.650   4.449   2.064 -1.2971  0.4985  1.4762
 8051TIP3    H224118   5.649   4.481   1.916  1.5181  1.0571  1.5189
 8052TIP3   OH224119   6.404   2.399   2.030 -0.1166  0.2083 -0.1012
 8052TIP3    H124120   6.375   2.489   2.044  0.7752  0.4616  0.1912
 8052TIP3    H224121   6.324   2.347   2.029 -0.7052  1.1008 -1.0320
 8053TIP3   OH224122   5.050   1.383   5.390 -0.6166 -0.7710 -0.7590
 8053TIP3    H124123   4.997   1.387   5.311 -0.4092 -0.1245 -0.8735
 8053TIP3    H224124   5.137   1.357   5.359 -0.1941  0.7560 -0.9379
 8054TIP3   OH224125   5.805   5.071   5.797  0.4964 -0.2454 -0.1092
 8054TIP3    H124126   5.777   5.118   5.718 -3.3647 -0.0648  1.1681
 8054TIP3    H224127   5.800   5.137   5.867  0.8898 -1.1137  0.7693
 8055TIP3   OH224128   3.307   3.538   1.970  0.1455 -0.2711 -0.1832
 8055TIP3    H124129   3.211   3.536   1.973  0.1439 -1.0067 -0.5293
 8055TIP3    H224130   3.333   3.562   2.059 -0.3479 -0.9514  0.1527
 8056TIP3   OH224131   2.052   1.618   4.197 -0.3729 -0.0137  0.3319
 8056TIP3    H124132   2.093   1.699   4.227 -0.5445 -0.6436  2.4970
 8056TIP3    H224133   2.094   1.599   4.113 -0.2024  2.1827 -0.1421
 8057TIP3   OH224134   1.475   6.306   2.536 -0.2362 -0.2439  0.2475
 8057TIP3    H124135   1.495   6.292   2.629  0.6126  0.9450  0.2622
 8057TIP3    H224136   1.400   6.366   2.537  0.3771  0.5356  0.1739
 8058TIP3   OH224137   2.495   6.684   3.858  0.0119  0.0124  0.1800
 8058TIP3    H124138   2.525   6.775   3.862 -2.2770  0.9076 -1.4376
 8058TIP3    H224139   2.569   6.636   3.820  0.9652  1.3056  0.3248
 8059TIP3   OH224140   5.734   1.437   0.675  0.1083 -0.5966  0.5659
 8059TIP3    H124141   5.723   1.477   0.589  0.0921 -1.9418 -0.0856
 8059TIP3    H224142   5.681   1.490   0.734  0.2913  0.4661 -0.2166
 8060TIP3   OH224143   5.444   2.398   2.713  0.0004  0.0108  0.6339
 8060TIP3    H124144   5.406   2.403   2.625  0.9805  3.3039  0.2589
 8060TIP3    H224145   5.496   2.318   2.711 -0.2195 -0.1612 -1.7246
 8061TIP3   OH224146   5.240   2.897   1.787 -0.1437  0.2849  0.4133
 8061TIP3    H124147   5.310   2.944   1.832 -1.3229  2.3556  0.2470
 8061TIP3    H224148   5.212   2.957   1.718 -0.7852 -1.3157 -0.7511
 8062TIP3   OH224149   2.960   5.443  -0.005 -0.3277 -0.0082  0.0072
 8062TIP3    H124150   3.015   5.417   0.069  1.9270 -0.7905 -1.8124
 8062TIP3    H224151   2.982   5.535  -0.020  0.4772 -0.2980 -0.6680
 8063TIP3   OH224152   2.042   6.330   3.647 -0.5922 -0.0341  0.4553
 8063TIP3    H124153   1.976   6.399   3.647 -0.1458  0.4027  1.0739
 8063TIP3    H224154   1.994   6.250   3.668 -1.1318  0.0635 -0.3746
 8064TIP3   OH224155   6.367   5.298   0.001 -0.4789  0.6187  0.6084
 8064TIP3    H124156   6.440   5.353   0.030 -0.1053  0.7686 -0.5686
 8064TIP3    H224157   6.408   5.217  -0.029 -0.8291  0.5604  0.2749
 8065TIP3   OH224158   1.116   1.835   2.263 -0.3151  0.9343  0.2134
 8065TIP3    H124159   1.196   1.889   2.260  0.0662  0.3371 -1.0613
 8065TIP3    H224160   1.145   1.749   2.233 -1.3636  0.6005  0.1511
 8066TIP3   OH224161   6.947   2.680   2.406  0.1569 -0.2838 -0.0591
 8066TIP3    H124162   6.908   2.608   2.355  2.1984  0.3871 -2.7953
 8066TIP3    H224163   6.872   2.736   2.428 -1.0929 -1.7067 -0.5076
 8067TIP3   OH224164   2.273   4.753   5.299  0.2940  0.8093  0.6745
 8067TIP3    H124165   2.354   4.795   5.269  0.5510 -0.2587 -0.1711
 8067TIP3    H224166   2.204   4.796   5.248  0.5375  0.3553 -0.0565
 8068TIP3   OH224167   5.219   5.211   2.739 -0.1495  0.0969 -0.3602
 8068TIP3    H124168   5.286   5.270   2.706 -0.2881 -0.4503 -1.6782
 8068TIP3    H224169   5.171   5.183   2.661  0.1776 -2.0686  0.1366
 8069TIP3   OH224170   3.851   3.336   4.191 -0.4604 -0.1039 -0.4079
 8069TIP3    H124171   3.756   3.342   4.192 -0.4363  0.4203  0.8871
 8069TIP3    H224172   3.870   3.264   4.130 -1.7145 -0.7375 -0.0918
 8070TIP3   OH224173   6.359   5.456   2.299 -0.0191 -0.2788  0.0974
 8070TIP3    H124174   6.326   5.539   2.264  0.5627  0.5075  1.3453
 8070TIP3    H224175   6.388   5.407   2.222  2.2870  1.8482 -0.5178
 8071TIP3   OH224176   4.778   0.682   4.661 -0.0484 -0.5658  0.4199
 8071TIP3    H124177   4.783   0.606   4.602  0.2516  0.6575 -1.2130
 8071TIP3    H224178   4.864   0.724   4.653 -0.3674  0.2132  0.9187
 8072TIP3   OH224179   0.748   5.285   4.538  0.3037 -0.1513  0.0562
 8072TIP3    H124180   0.826   5.312   4.489  0.1494  0.2407  0.0239
 8072TIP3    H224181   0.701   5.227   4.479 -1.0737  2.1050 -1.1960
 8073TIP3   OH224182   1.305   1.313   5.095 -0.4821 -0.2768  0.1693
 8073TIP3    H124183   1.274   1.242   5.039 -0.7943  0.4441 -0.5861
 8073TIP3    H224184   1.285   1.393   5.046  0.6777  0.2989  0.6159
 8074TIP3   OH224185   2.271   2.447   0.596 -0.3492 -0.3266 -0.1194
 8074TIP3    H124186   2.308   2.470   0.681  2.9448 -0.1809 -1.4438
 8074TIP3    H224187   2.231   2.529   0.565  1.0496  0.4879  0.1100
 8075TIP3   OH224188   2.116   5.878   4.010  0.0036  0.1073  0.1103
 8075TIP3    H124189   2.195   5.833   3.981  0.2436  1.2671 -1.1570
 8075TIP3    H224190   2.044   5.835   3.964  0.2073  0.8268 -0.9107
 8076TIP3   OH224191   7.090   0.551   1.293  0.0930  0.1094 -0.3969
 8076TIP3    H124192   7.146   0.489   1.247 -0.4779 -0.2524 -0.6097
 8076TIP3    H224193   7.056   0.502   1.368 -0.3145  0.1776 -0.5324
 8077TIP3   OH224194   6.684   6.011   2.273 -0.1535  0.0021 -0.0718
 8077TIP3    H124195   6.647   6.075   2.213  0.5589 -1.1504 -1.8118
 8077TIP3    H224196   6.768   6.048   2.299 -0.5645  0.6080  0.4047
 8078TIP3   OH224197   2.477   6.143   1.094 -0.2930 -0.1537 -0.0909
 8078TIP3    H124198   2.422   6.150   1.173  0.5301 -0.1294  0.4986
 8078TIP3    H224199   2.469   6.228   1.052  1.2835  0.7947  1.3690
 8079TIP3   OH224200   4.747   1.464   1.789  0.3610  0.1350  0.5362
 8079TIP3    H124201   4.787   1.385   1.752 -0.3348 -0.6364  1.4028
 8079TIP3    H224202   4.798   1.536   1.750  0.4669 -0.6795 -0.9298
 8080TIP3   OH224203   2.087   2.647   0.459  0.2394 -0.0792 -0.1449
 8080TIP3    H124204   2.035   2.708   0.511  0.9010 -0.6272  1.2114
 8080TIP3    H224205   2.152   2.702   0.415  0.5889  0.2442  0.7583
 8081TIP3   OH224206   3.817   1.375   4.328 -0.8635 -0.0502  0.3427
 8081TIP3    H124207   3.781   1.454   4.369 -0.0630 -0.2280  1.4336
 8081TIP3    H224208   3.912   1.388   4.330 -0.6172 -1.6590  1.9286
 8082TIP3   OH224209   6.133   1.826   4.484 -0.2543 -0.4327 -0.6527
 8082TIP3    H124210   6.211   1.868   4.522 -0.3784 -0.7377 -0.0427
 8082TIP3    H224211   6.122   1.746   4.536 -2.6217  0.9705  1.2438
 8083TIP3   OH224212   0.591   0.259   0.988  0.2638  0.3019  0.4701
 8083TIP3    H124213   0.514   0.224   0.945  0.0377  1.5532 -0.1862
 8083TIP3    H224214   0.662   0.247   0.925  1.4906 -4.0131  2.3226
 8084TIP3   OH224215   2.478   4.434   0.801 -0.0783 -0.2321 -0.1349
 8084TIP3    H124216   2.450   4.349   0.834  0.7070 -0.8498 -1.0157
 8084TIP3    H224217   2.429   4.497   0.854 -1.1438 -1.2264  0.1232
 8085TIP3   OH224218   4.933   2.474   2.149  0.0515 -0.4534  0.2764
 8085TIP3    H124219   4.882   2.411   2.201  1.8497 -2.3593 -0.1298
 8085TIP3    H224220   4.919   2.558   2.192 -2.9706 -0.9469  0.4747
 8086TIP3   OH224221   0.056   4.191   3.617  0.4662 -0.2056  0.2982
 8086TIP3    H124222   0.072   4.144   3.699 -1.2384 -1.8854 -0.2320
 8086TIP3    H224223  -0.040   4.196   3.611  0.5664  0.4837 -1.2683
 8087TIP3   OH224224   2.300   3.133   2.883  0.5553  0.1405 -0.7139
 8087TIP3    H124225   2.272   3.129   2.792  1.9514 -1.2148 -1.1227
 8087TIP3    H224226   2.236   3.081   2.931 -1.0861  2.1206 -0.6140
 8088TIP3   OH224227   4.217   5.334   2.956 -0.1341  0.1060 -0.4661
 8088TIP3    H124228   4.312   5.324   2.953 -0.0860  0.6068 -0.6096
 8088TIP3    H224229   4.202   5.394   3.030 -0.3902 -0.6038  0.0710
 8089TIP3   OH224230   5.542   1.995   0.554 -0.3165 -0.1977  0.4614
 8089TIP3    H124231   5.573   1.912   0.592  0.7190 -0.4643 -0.9000
 8089TIP3    H224232   5.619   2.051   0.552 -0.9028  0.6465  0.8972
 8090TIP3   OH224233   0.922   4.186   3.018  0.0107  0.4075  0.1048
 8090TIP3    H124234   0.876   4.133   2.954  0.3689  0.3253 -0.0864
 8090TIP3    H224235   0.953   4.263   2.969 -2.3690  1.9181  0.8095
 8091TIP3   OH224236   5.078   4.422   3.872 -0.2609 -0.2885 -0.2331
 8091TIP3    H124237   5.092   4.475   3.951 -1.7428  1.6435 -1.1774
 8091TIP3    H224238   5.092   4.332   3.901  1.7520  0.5206  1.6131
 8092TIP3   OH224239   3.498   0.354   0.597  0.1199  0.0969 -0.2687
 8092TIP3    H124240   3.410   0.366   0.562 -0.5816 -2.2092  0.5188
 8092TIP3    H224241   3.534   0.281   0.546  0.7356 -0.3758  0.7953
 8093TIP3   OH224242   5.150   2.819   4.323  0.0074 -0.2100  0.4252
 8093TIP3    H124243   5.162   2.727   4.301  1.1078  0.1738 -0.7710
 8093TIP3    H224244   5.056   2.829   4.338 -0.3729 -1.2145 -1.0570
 8094TIP3   OH224245   6.600   4.226   2.700 -0.1620 -0.0880  0.0784
 8094TIP3    H124246   6.641   4.303   2.660 -0.4839 -0.3623 -0.8184
 8094TIP3    H224247   6.565   4.257   2.783 -0.7083  0.8526 -0.4809
 8095TIP3   OH224248   2.969   1.160   2.712  0.1589  0.1379  0.1772
 8095TIP3    H124249   2.967   1.238   2.768 -0.1956 -2.0046  3.4322
 8095TIP3    H224250   3.049   1.169   2.661  1.7771  1.2908  2.6883
 8096TIP3   OH224251   6.127   5.905   0.492  0.1991 -0.5318  0.0383
 8096TIP3    H124252   6.119   5.984   0.438 -2.3274 -0.7842 -0.0527
 8096TIP3    H224253   6.117   5.833   0.430 -1.2917 -0.8397  0.5983
 8097TIP3   OH224254   4.426   3.411   5.741  0.3668 -1.0771 -0.4350
 8097TIP3    H124255   4.441   3.350   5.814 -1.3293 -0.6961  0.2873
 8097TIP3    H224256   4.495   3.476   5.750  0.3983 -1.2312  0.6577
 8098TIP3   OH224257   7.085   3.107   1.598  0.2125  0.1476  0.2254
 8098TIP3    H124258   7.050   3.037   1.652  0.5399 -1.0365 -1.0395
 8098TIP3    H224259   7.101   3.066   1.513 -0.8849  2.0664 -0.9882
 8099TIP3   OH224260   5.536   0.281   0.080 -0.1216  0.1501 -0.0445
 8099TIP3    H124261   5.462   0.255   0.134 -1.3114 -0.5874 -1.9429
 8099TIP3    H224262   5.612   0.270   0.137 -1.1957 -1.6234  1.1574
 8100TIP3   OH224263   6.719   5.444   5.440  0.2551  0.0132  0.2866
 8100TIP3    H124264   6.627   5.435   5.417 -0.1718  0.7380  1.5633
 8100TIP3    H224265   6.730   5.387   5.517  0.2306  1.7309  1.6354
 8101TIP3   OH224266   5.323   6.698   5.047  0.3031  0.5972  0.0035
 8101TIP3    H124267   5.266   6.774   5.033 -1.9725 -1.2550 -1.4991
 8101TIP3    H224268   5.342   6.666   4.959 -0.5893 -1.8022  0.6294
 8102TIP3   OH224269   6.908   1.980   4.555 -0.0852  0.4802 -0.2939
 8102TIP3    H124270   6.900   2.074   4.574  0.0515  0.3054  0.6645
 8102TIP3    H224271   7.000   1.960   4.571 -0.5976 -0.3242  1.9827
 8103TIP3   OH224272   2.408   6.293   4.748 -0.1201 -0.6766 -0.3046
 8103TIP3    H124273   2.362   6.282   4.831 -0.4953  0.1027 -0.3990
 8103TIP3    H224274   2.408   6.388   4.733  1.9563 -0.5970 -0.0532
 8104TIP3   OH224275   1.247   4.609   4.619 -0.4006  0.0525  0.1270
 8104TIP3    H124276   1.203   4.530   4.588  2.4576 -1.8669  0.6086
 8104TIP3    H224277   1.263   4.594   4.712 -1.1606  1.9433  0.6257
 8105TIP3   OH224278   5.461   4.789   1.373  0.0967  0.2667 -0.0310
 8105TIP3    H124279   5.518   4.716   1.347  0.6535  0.6095  0.2049
 8105TIP3    H224280   5.376   4.748   1.390 -0.5171  0.0685 -2.9920
 8106TIP3   OH224281   1.532   1.097   5.425  0.5016  0.3740  0.0853
 8106TIP3    H124282   1.518   1.031   5.357 -2.5456 -2.0516  2.7006
 8106TIP3    H224283   1.625   1.090   5.447  0.4080 -2.8683 -0.0517
 8107TIP3   OH224284   4.951   6.071   2.870  0.5330 -0.7873 -0.1058
 8107TIP3    H124285   5.040   6.073   2.905  0.2469 -0.9040  0.6390
 8107TIP3    H224286   4.963   6.076   2.775  1.3773 -1.8091 -0.0744
 8108TIP3   OH224287   1.508   3.297   0.153 -0.4091  0.0879 -0.2131
 8108TIP3    H124288   1.497   3.206   0.126 -0.0845  0.1718 -0.6374
 8108TIP3    H224289   1.429   3.341   0.123 -0.6427 -0.0860  0.1409
 8109TIP3   OH224290   3.118   5.313   0.187 -0.5587 -0.0970  0.1011
 8109TIP3    H124291   3.143   5.379   0.253  1.8998 -0.2201 -0.6041
 8109TIP3    H224292   3.191   5.251   0.186 -0.6933 -0.3189 -2.4529
 8110TIP3   OH224293   7.050   2.519   4.629  0.4049  0.5543  0.4240
 8110TIP3    H124294   7.085   2.519   4.718 -1.4232  2.6064  1.2247
 8110TIP3    H224295   7.011   2.606   4.618 -1.0777 -0.2869 -1.7031
 8111TIP3   OH224296   4.000   4.251   5.806 -0.0863  1.0281  0.1373
 8111TIP3    H124297   3.996   4.219   5.896 -0.9153  0.5748 -0.0496
 8111TIP3    H224298   4.092   4.240   5.780 -0.0911  0.0062  0.5192
 8112TIP3   OH224299   5.628   5.551   2.707  0.2756 -0.5017 -0.2567
 8112TIP3    H124300   5.549   5.514   2.668  1.0130 -2.5068  0.0359
 8112TIP3    H224301   5.597   5.600   2.783 -0.5780 -3.4990  1.4792
 8113TIP3   OH224302   6.665   3.300   0.711 -0.3187  0.6142  0.4437
 8113TIP3    H124303   6.665   3.227   0.773  1.4532  0.7716  0.6745
 8113TIP3    H224304   6.698   3.262   0.629  0.0425  1.0262  0.3969
 8114TIP3   OH224305   0.727   4.509   1.559  0.0901  0.4654 -0.5868
 8114TIP3    H124306   0.636   4.483   1.575  0.5269 -0.8121 -0.0283
 8114TIP3    H224307   0.756   4.547   1.642  0.1696  0.5587 -0.6574
 8115TIP3   OH224308   0.204   0.309   0.766  0.5971 -0.5104  0.1080
 8115TIP3    H124309   0.140   0.254   0.811  1.0032 -1.0280  0.0596
 8115TIP3    H224310   0.155   0.387   0.743  0.3240 -0.3146  1.2652
 8116TIP3   OH224311   5.417   4.743   2.215 -0.6183  0.2970  0.1081
 8116TIP3    H124312   5.386   4.741   2.305 -1.0378 -0.9378 -0.0492
 8116TIP3    H224313   5.490   4.806   2.216  1.2672 -1.7543  1.9028
 8117TIP3   OH224314   5.804   5.881   5.772  0.5138 -0.4572  0.1077
 8117TIP3    H124315   5.841   5.938   5.705 -1.1515  0.2047 -0.2912
 8117TIP3    H224316   5.842   5.912   5.854  0.3350  0.6342 -0.2083
 8118TIP3   OH224317   5.080   1.835   1.088  0.1002 -0.2880  0.1058
 8118TIP3    H124318   5.133   1.788   1.024 -1.0797 -2.4625  0.6422
 8118TIP3    H224319   5.126   1.824   1.171 -0.2626 -0.6430  0.2625
 8119TIP3   OH224320   4.393   0.613   0.517 -0.2190 -0.1575 -0.4822
 8119TIP3    H124321   4.400   0.704   0.546  1.4631 -0.8057  1.3937
 8119TIP3    H224322   4.472   0.597   0.466 -1.0385 -0.2965 -1.7555
 8120TIP3   OH224323   7.067   6.114   0.335  0.1253 -0.0019 -0.1316
 8120TIP3    H124324   7.123   6.122   0.257 -0.8178 -0.5976 -0.8966
 8120TIP3    H224325   7.015   6.195   0.336 -0.0947 -0.1402 -0.3122
 8121TIP3   OH224326   2.967   5.847   2.022  0.3792 -0.1327  0.6118
 8121TIP3    H124327   2.930   5.831   2.109  0.9833 -2.7529  0.4762
 8121TIP3    H224328   2.891   5.846   1.963 -0.1675  2.6844  1.1008
 8122TIP3   OH224329   0.973   2.080   4.128 -0.0128  0.7256 -0.5178
 8122TIP3    H124330   0.952   1.988   4.109 -0.4785  0.6570  0.2656
 8122TIP3    H224331   1.027   2.108   4.055  0.0979 -0.1654 -0.7928
 8123TIP3   OH224332   5.569   4.832   1.001  0.2798 -0.0997 -0.6819
 8123TIP3    H124333   5.624   4.842   0.923 -2.3186 -0.7816 -2.7545
 8123TIP3    H224334   5.513   4.909   1.001  0.4439  0.0478  0.7671
 8124TIP3   OH224335   3.176   5.771   5.767 -0.0341 -0.7377  0.0171
 8124TIP3    H124336   3.094   5.775   5.717 -1.1503  2.5448  1.8060
 8124TIP3    H224337   3.242   5.805   5.706 -0.3206 -1.7326 -0.8728
 8125TIP3   OH224338   1.462   4.313   3.685  0.1435 -0.5169  0.5020
 8125TIP3    H124339   1.402   4.387   3.692 -0.1365 -0.7773  0.9917
 8125TIP3    H224340   1.524   4.338   3.617 -0.9952 -0.5680 -0.5974
 8126TIP3   OH224341   6.935   3.897   4.821  0.5556 -0.2141 -0.6249
 8126TIP3    H124342   7.016   3.945   4.835 -0.1642  0.4859  1.6059
 8126TIP3    H224343   6.870   3.964   4.801  0.1319 -0.5516 -0.4071
 8127TIP3   OH224344   1.103   1.956   2.004  0.1834  0.6665 -0.2570
 8127TIP3    H124345   1.146   1.917   2.080  1.8874  1.0537 -0.9962
 8127TIP3    H224346   1.058   2.033   2.038  1.1802  1.0000  0.3094
 8128TIP3   OH224347   6.634   5.314   1.846 -0.7873  0.1621 -0.5402
 8128TIP3    H124348   6.653   5.236   1.794  1.6343 -0.6994  1.3957
 8128TIP3    H224349   6.699   5.378   1.817 -0.2019  0.0746  0.4966
 8129TIP3   OH224350   0.434   1.754   3.800  0.0377  0.1644 -0.2376
 8129TIP3    H124351   0.459   1.833   3.849 -1.0481  0.3552  0.0251
 8129TIP3    H224352   0.514   1.729   3.754  1.1521 -0.0886  1.7254
 8130TIP3   OH224353   0.717   5.225   0.608 -0.3942  0.4694  0.3812
 8130TIP3    H124354   0.697   5.209   0.700 -0.6536  1.2949  0.4688
 8130TIP3    H224355   0.805   5.262   0.608 -0.1855 -0.0208  0.2536
 8131TIP3   OH224356   1.939   6.733   1.535 -0.1840 -0.4059 -0.3922
 8131TIP3    H124357   2.013   6.679   1.562 -0.7939 -0.5032  1.2201
 8131TIP3    H224358   1.934   6.723   1.440  0.1007 -2.7039 -0.2119
 8132TIP3   OH224359   4.710   3.822   5.609  0.6508 -0.5806  0.8807
 8132TIP3    H124360   4.688   3.764   5.683 -1.4007 -1.9017 -0.6404
 8132TIP3    H224361   4.641   3.889   5.611  1.8934  0.7281  1.4539
 8133TIP3   OH224362   4.063   6.256   1.074  0.2624  0.2541 -0.6574
 8133TIP3    H124363   3.983   6.306   1.054  0.5688  0.4173 -1.5190
 8133TIP3    H224364   4.134   6.313   1.045  0.6878 -0.0112 -0.1517
 8134TIP3   OH224365   7.015   2.698   1.846  0.0676 -0.5408 -0.2979
 8134TIP3    H124366   6.991   2.710   1.938 -1.7823 -1.5889 -0.5930
 8134TIP3    H224367   6.987   2.779   1.803  1.4738  0.1974  0.1269
 8135TIP3   OH224368   6.206   0.197   5.779 -0.8299 -0.2810 -0.2578
 8135TIP3    H124369   6.180   0.106   5.763 -0.2625 -0.7079  1.0745
 8135TIP3    H224370   6.181   0.244   5.699 -0.9012 -1.6540 -1.0740
 8136TIP3   OH224371   2.970   4.149   0.080  0.0904  0.0109 -0.1433
 8136TIP3    H124372   3.010   4.134  -0.005  0.2145 -1.6245  0.1692
 8136TIP3    H224373   3.041   4.186   0.133 -0.0657  1.3013 -0.8109
 8137TIP3   OH224374   1.338   0.431   0.881  0.2132 -0.2871  0.3174
 8137TIP3    H124375   1.306   0.382   0.805 -2.4676  1.3090  0.2828
 8137TIP3    H224376   1.317   0.375   0.956  1.5306 -1.2185  0.0295
 8138TIP3   OH224377   4.279   0.129   5.248  0.0872  0.0399 -0.7712
 8138TIP3    H124378   4.224   0.207   5.242  0.9188  0.6151 -1.0745
 8138TIP3    H224379   4.368   0.164   5.260  0.2594 -0.8714  0.8490
 8139TIP3   OH224380   6.272   3.454   2.602 -1.2324  0.3387 -0.4034
 8139TIP3    H124381   6.351   3.452   2.657 -1.2415 -0.6250 -0.4132
 8139TIP3    H224382   6.292   3.394   2.530 -2.0409 -0.0512 -0.3066
 8140TIP3   OH224383   6.204   2.625   1.614  0.1193 -0.0476 -0.2362
 8140TIP3    H124384   6.233   2.657   1.529 -1.5074 -1.8597 -1.5641
 8140TIP3    H224385   6.141   2.690   1.644 -0.8361 -0.3862 -1.4265
 8141TIP3   OH224386   3.601   3.592   4.399 -0.4624  0.2975 -0.1595
 8141TIP3    H124387   3.563   3.597   4.311  0.3622 -0.4993 -0.5820
 8141TIP3    H224388   3.644   3.677   4.412 -0.1572  0.2406 -0.7461
 8142TIP3   OH224389   5.852   2.238   4.114  0.3011 -0.0264  0.1542
 8142TIP3    H124390   5.943   2.261   4.099  0.4569  0.8156  2.1283
 8142TIP3    H224391   5.810   2.248   4.028  1.9460  0.0419 -0.6740
 8143TIP3   OH224392   5.342   2.231   5.000 -0.2602  0.3032  0.2321
 8143TIP3    H124393   5.307   2.255   4.914  0.1460 -1.5629 -0.4947
 8143TIP3    H224394   5.316   2.140   5.012  2.0005 -0.3355  0.8474
 8144TIP3   OH224395   0.823   3.417   1.120  0.4490 -0.2007 -0.2644
 8144TIP3    H124396   0.835   3.499   1.071  0.7584  0.3529  0.7100
 8144TIP3    H224397   0.841   3.441   1.210  0.4027 -1.3313  0.0518
 8145TIP3   OH224398   2.149   6.685   2.448 -0.4649  0.0907  0.0678
 8145TIP3    H124399   2.195   6.648   2.373 -0.1153 -0.6829  0.6474
 8145TIP3    H224400   2.058   6.689   2.420 -0.3734 -0.3966 -0.3330
 8146TIP3   OH224401   5.669   3.825   1.024 -0.8684  0.2910 -0.0216
 8146TIP3    H124402   5.695   3.735   1.002 -0.8135  0.3619 -0.2539
 8146TIP3    H224403   5.595   3.814   1.084 -0.2016  0.0921  0.7814
 8147TIP3   OH224404   6.983   1.876   0.495 -0.0265 -0.0083 -0.1779
 8147TIP3    H124405   6.934   1.794   0.485  0.1334 -0.0145 -0.9496
 8147TIP3    H224406   6.918   1.944   0.475 -0.0811  0.0416  0.1676
 8148TIP3   OH224407   2.547   3.372   1.749  0.2236  0.5816  0.1647
 8148TIP3    H124408   2.507   3.450   1.787 -3.4057 -0.1394 -1.7100
 8148TIP3    H224409   2.579   3.401   1.663 -1.2305  0.0815 -0.5816
 8149TIP3   OH224410   0.928   3.008   1.752 -0.2930  0.4559 -0.1030
 8149TIP3    H124411   0.853   3.031   1.806 -0.0121 -2.1652  1.5641
 8149TIP3    H224412   0.891   2.989   1.666 -1.3354  0.6188  0.3020
 8150TIP3   OH224413   2.026   4.750   1.964 -0.0443  0.7063 -0.4546
 8150TIP3    H124414   2.061   4.820   1.910  1.5921 -0.0577 -0.4341
 8150TIP3    H224415   2.017   4.788   2.051  1.5179  0.7295 -0.2734
 8151TIP3   OH224416   4.912   2.444   4.981  0.4406 -0.3352  0.7630
 8151TIP3    H124417   4.988   2.396   5.014  0.7750  0.1229  0.6670
 8151TIP3    H224418   4.836   2.396   5.017  0.7785  0.5044  2.7434
 8152TIP3   OH224419   5.134   6.502   3.803  0.5134  0.0349  0.0068
 8152TIP3    H124420   5.087   6.581   3.829 -0.6689 -0.1585 -1.4040
 8152TIP3    H224421   5.208   6.496   3.864 -0.3417  1.2757  1.2164
 8153TIP3   OH224422   2.254   0.587   4.992 -0.2816  0.0653  0.2533
 8153TIP3    H124423   2.307   0.511   4.967  0.0879  0.8310 -1.4215
 8153TIP3    H224424   2.186   0.592   4.924 -0.7166  0.8325  0.7304
 8154TIP3   OH224425   4.354   1.419   3.600 -0.5531 -0.1135  0.0957
 8154TIP3    H124426   4.266   1.390   3.624 -0.2137 -1.1054  0.1776
 8154TIP3    H224427   4.376   1.366   3.523 -1.0420  1.9623 -1.5893
 8155TIP3   OH224428   5.272   1.616   4.496 -0.0671  0.2154  0.0537
 8155TIP3    H124429   5.302   1.701   4.527 -1.0662  0.1899  1.1342
 8155TIP3    H224430   5.202   1.636   4.434  0.9113  0.2141 -1.0905
 8156TIP3   OH224431   0.247   2.222   2.530  0.3006 -0.3757  0.7553
 8156TIP3    H124432   0.318   2.269   2.485  0.8021  1.3722  3.1615
 8156TIP3    H224433   0.281   2.205   2.618 -1.9378 -0.2597  1.7164
 8157TIP3   OH224434   6.020   2.417   2.375  0.1541  0.0526  0.2262
 8157TIP3    H124435   5.980   2.351   2.431  2.0773 -0.2578  1.2908
 8157TIP3    H224436   6.003   2.500   2.420 -2.7216  0.4900 -1.3688
 8158TIP3   OH224437   1.436   1.799   3.613 -0.1391 -0.5681 -0.2526
 8158TIP3    H124438   1.389   1.870   3.658  0.3237  0.0469 -0.7246
 8158TIP3    H224439   1.400   1.799   3.524  0.8195 -0.0231 -0.6493
 8159TIP3   OH224440   3.823   6.441   5.335  0.0591  0.6731 -0.1840
 8159TIP3    H124441   3.877   6.498   5.281  0.4328  0.5729  0.0779
 8159TIP3    H224442   3.770   6.391   5.273  0.9592  0.0823 -0.4811
 8160TIP3   OH224443   3.927   3.118   3.911  0.9398  0.1961 -0.9726
 8160TIP3    H124444   3.836   3.114   3.882 -0.5955  0.8701  3.1098
 8160TIP3    H224445   3.955   3.027   3.919  0.7393 -0.0087 -2.3503
 8161TIP3   OH224446   0.254   4.481   0.540  0.0115 -0.2817 -0.3474
 8161TIP3    H124447   0.199   4.557   0.521 -2.2267 -1.9222 -0.8822
 8161TIP3    H224448   0.342   4.517   0.549 -0.8503  2.2759 -1.1618
 8162TIP3   OH224449   6.587   4.537   3.318  0.0371  0.3172  0.0809
 8162TIP3    H124450   6.625   4.547   3.231  1.4666 -0.2344  0.6020
 8162TIP3    H224451   6.622   4.611   3.368 -0.4696  0.4210  0.2854
 8163TIP3   OH224452   0.530   1.338   2.766 -0.3539 -0.0517  0.4553
 8163TIP3    H124453   0.547   1.365   2.675  0.5856 -0.3860  0.5220
 8163TIP3    H224454   0.437   1.316   2.767 -0.2467 -0.6250 -0.5833
 8164TIP3   OH224455   2.035   3.356   2.312  0.0780 -0.5800 -0.8921
 8164TIP3    H124456   1.997   3.363   2.224 -2.1070 -1.0345 -0.0466
 8164TIP3    H224457   2.129   3.348   2.297 -0.3490 -2.0625 -3.2606
 8165TIP3   OH224458   2.087   4.015   5.291  0.1464 -0.8265  0.4914
 8165TIP3    H124459   2.113   4.031   5.201  1.3616 -2.7606  0.4345
 8165TIP3    H224460   2.119   4.091   5.339  0.3505 -0.2375 -0.5447
 8166TIP3   OH224461   4.460   2.814   4.538  0.3096  0.0510 -0.0273
 8166TIP3    H124462   4.374   2.804   4.498  0.9890  1.1249 -1.9050
 8166TIP3    H224463   4.497   2.725   4.538 -0.1636 -0.1532 -0.7764
 8167TIP3   OH224464   3.065   0.238   2.352  0.1480  0.0748 -0.2088
 8167TIP3    H124465   3.024   0.154   2.369  0.0049  0.1920  0.0342
 8167TIP3    H224466   2.993   0.301   2.355  0.2914  0.2364 -0.1332
 8168TIP3   OH224467   5.457   1.573   1.276 -0.0190 -0.4785  0.1259
 8168TIP3    H124468   5.404   1.642   1.315 -0.0603 -2.4928  4.0515
 8168TIP3    H224469   5.548   1.601   1.293  0.0759 -0.0393 -0.9899
 8169TIP3   OH224470   4.865   1.628   3.417 -0.4869 -0.5347 -0.2637
 8169TIP3    H124471   4.840   1.705   3.366 -0.5914 -0.2323  0.2330
 8169TIP3    H224472   4.959   1.620   3.404 -0.0573  1.0277  1.4532
 8170TIP3   OH224473   1.412   1.350   0.029  0.6458 -0.0636 -0.2884
 8170TIP3    H124474   1.448   1.269   0.065  0.2137  0.3557  1.1823
 8170TIP3    H224475   1.352   1.321  -0.040  1.1714 -0.9424 -0.3911
 8171TIP3   OH224476   2.928   2.012   1.918 -0.2516  0.0714 -0.0756
 8171TIP3    H124477   2.835   2.008   1.937  0.1380 -0.0564  2.0626
 8171TIP3    H224478   2.935   1.990   1.826 -2.1899 -1.5553  0.1080
 8172TIP3   OH224479   1.230   6.222   5.348 -0.1009 -0.1912  0.4187
 8172TIP3    H124480   1.196   6.136   5.325 -3.5636  1.0682  0.2253
 8172TIP3    H224481   1.256   6.214   5.440 -1.0687 -1.2619  0.6160
 8173TIP3   OH224482   5.024   1.301   4.448  0.2150  0.3612 -0.2772
 8173TIP3    H124483   5.109   1.304   4.403  0.5871  0.5721  0.4340
 8173TIP3    H224484   5.044   1.269   4.536 -0.1614  2.1928  0.5217
 8174TIP3   OH224485   6.289   3.850   2.898 -0.8321  0.3081 -0.4645
 8174TIP3    H124486   6.308   3.792   2.972 -0.8089  1.3314  0.3691
 8174TIP3    H224487   6.375   3.872   2.862 -0.6969  1.2876  0.4046
 8175TIP3   OH224488   2.950   5.271   5.789  0.6066 -0.0629  0.0717
 8175TIP3    H124489   2.920   5.189   5.827 -1.6331  0.6787  0.0490
 8175TIP3    H224490   2.956   5.331   5.864 -1.9853  0.8743 -0.3453
 8176TIP3   OH224491   5.273   5.716   3.761  0.1032  0.1892 -0.1471
 8176TIP3    H124492   5.347   5.670   3.801 -0.3313  0.3852  0.9307
 8176TIP3    H224493   5.197   5.682   3.808 -0.2133  2.1393  0.8513
 8177TIP3   OH224494   1.759   0.921   5.357 -0.0897 -0.1501  0.0758
 8177TIP3    H124495   1.772   0.826   5.348  2.9060  0.1227  0.6946
 8177TIP3    H224496   1.846   0.959   5.345 -0.9725  2.4445  1.1730
 8178TIP3   OH224497   3.385   3.723   3.679  0.0553 -0.1945 -0.0343
 8178TIP3    H124498   3.431   3.797   3.717 -0.5378 -0.0278  0.3759
 8178TIP3    H224499   3.330   3.690   3.750  0.6786 -1.3460 -0.0505
 8179TIP3   OH224500   3.757   5.813   4.627 -0.0361  0.1216 -0.0762
 8179TIP3    H124501   3.767   5.908   4.627  0.6186  0.0651  0.4653
 8179TIP3    H224502   3.689   5.797   4.692  1.1114  0.1349  1.1857
 8180TIP3   OH224503   5.428   3.387   1.693  0.3285  0.0241 -0.1423
 8180TIP3    H124504   5.437   3.401   1.598 -0.1319  1.4032 -0.0122
 8180TIP3    H224505   5.511   3.418   1.730  0.1200  0.4395 -0.0175
 8181TIP3   OH224506   2.237   2.799   5.813  0.0342  0.0864  0.0092
 8181TIP3    H124507   2.229   2.892   5.793 -0.0217  0.1590  0.3611
 8181TIP3    H224508   2.260   2.758   5.730  1.7479  0.6358  0.1657
 8182TIP3   OH224509   2.983   4.357   4.945  0.1757  0.1351  0.6204
 8182TIP3    H124510   2.925   4.310   5.005  0.4168 -1.1188 -0.0909
 8182TIP3    H224511   2.925   4.390   4.877 -0.2398  2.3865  1.9701
 8183TIP3   OH224512   3.979   5.269   1.419 -0.6416  0.1958  0.4585
 8183TIP3    H124513   4.062   5.307   1.391 -1.2866  1.8292  0.6473
 8183TIP3    H224514   3.997   5.175   1.425  0.8876  0.3802 -0.5130
 8184TIP3   OH224515   6.818   5.921   4.864  0.2653 -0.0933  0.2723
 8184TIP3    H124516   6.772   5.974   4.800 -0.2536 -1.5085 -0.5709
 8184TIP3    H224517   6.836   5.839   4.819  1.2661 -0.5496  1.4506
 8185TIP3   OH224518   5.789   5.121   1.559 -0.4788  0.3775  0.3623
 8185TIP3    H124519   5.702   5.151   1.532 -0.4171  0.1869 -0.0648
 8185TIP3    H224520   5.776   5.029   1.584  0.3915 -1.2928 -4.3294
 8186TIP3   OH224521   6.464   6.203   0.760  0.1754 -0.6052  0.0673
 8186TIP3    H124522   6.495   6.291   0.781 -1.2091 -0.1478  0.3111
 8186TIP3    H224523   6.394   6.186   0.824 -0.9450 -1.0566 -1.2311
 8187TIP3   OH224524   4.747   6.195   0.754 -0.0647  0.3806 -0.0518
 8187TIP3    H124525   4.727   6.143   0.676  0.4928  0.3184 -0.1642
 8187TIP3    H224526   4.759   6.131   0.824  0.6068  0.3428 -0.1867
 8188TIP3   OH224527   3.301   2.969   0.673  0.1778  0.0353 -0.3811
 8188TIP3    H124528   3.335   2.929   0.592  0.5638  0.6567 -0.5353
 8188TIP3    H224529   3.312   3.063   0.659 -1.4348  0.2496 -0.3458
 8189TIP3   OH224530   0.361   5.278   3.448  0.6266 -0.2717  0.6049
 8189TIP3    H124531   0.439   5.292   3.394  1.0857  1.6636  1.6696
 8189TIP3    H224532   0.395   5.242   3.530  0.2261 -0.7658  0.5587
 8190TIP3   OH224533   6.763   6.589   0.970 -0.5452 -0.0648 -0.2621
 8190TIP3    H124534   6.725   6.541   1.044 -1.5625 -0.1534 -0.8306
 8190TIP3    H224535   6.821   6.526   0.928  1.5261  0.5370  1.5313
 8191TIP3   OH224536   0.347   6.065   1.138 -0.6370  0.3343 -0.3335
 8191TIP3    H124537   0.275   6.069   1.074 -1.6988  3.5179  0.8837
 8191TIP3    H224538   0.421   6.107   1.095 -0.2989 -0.5341 -0.6219
 8192TIP3   OH224539   6.364   4.249   0.115  0.0660 -0.6049  0.2358
 8192TIP3    H124540   6.403   4.252   0.027  2.0619  0.7208  1.1012
 8192TIP3    H224541   6.333   4.339   0.130 -2.0045 -1.2534  0.2099
 8193TIP3   OH224542   2.412   6.000   3.932 -1.0907  0.2135  0.2491
 8193TIP3    H124543   2.370   5.944   3.866  0.5394  1.4275 -1.9558
 8193TIP3    H224544   2.476   6.051   3.883  1.1428  0.3173  3.0107
 8194TIP3   OH224545   6.771   4.425   2.329 -0.0241  0.1638  0.7038
 8194TIP3    H124546   6.782   4.451   2.238 -0.2725  1.6858  1.0835
 8194TIP3    H224547   6.861   4.420   2.363  0.2734 -2.8552 -0.1968
 8195TIP3   OH224548   4.910   4.297   0.118  0.0432 -0.2410 -0.6320
 8195TIP3    H124549   4.846   4.232   0.088 -0.7704  0.6595 -0.9149
 8195TIP3    H224550   4.944   4.261   0.200 -1.8232 -0.1665  0.2414
 8196TIP3   OH224551   1.328   1.965   2.572  0.1323 -0.1063 -0.3162
 8196TIP3    H124552   1.307   2.056   2.552  2.8884  0.3865 -1.5129
 8196TIP3    H224553   1.267   1.940   2.641 -2.0038  1.9847 -1.3246
 8197TIP3   OH224554   5.592   1.761   2.820  0.6148 -0.4386 -0.1736
 8197TIP3    H124555   5.688   1.771   2.824  0.4375  2.1982 -0.4931
 8197TIP3    H224556   5.560   1.800   2.901 -0.2795  1.9243 -1.5563
 8198TIP3   OH224557   0.141   1.743   0.474  0.2429  1.2235 -0.0484
 8198TIP3    H124558   0.081   1.681   0.433 -0.9214  0.7828  2.1633
 8198TIP3    H224559   0.099   1.829   0.462  1.3731  1.5111 -2.2619
 8199TIP3   OH224560   6.018   6.023   4.636  0.1917 -0.1265 -0.3019
 8199TIP3    H124561   6.076   5.964   4.589 -0.5099 -0.8008 -0.3332
 8199TIP3    H224562   6.058   6.032   4.723  0.8009  0.1107 -0.6010
 8200TIP3   OH224563   2.050   4.317   4.698  0.4977  0.3777 -0.0905
 8200TIP3    H124564   2.035   4.353   4.611  1.3846 -1.3564 -1.0248
 8200TIP3    H224565   2.146   4.317   4.709  0.4275  0.0510  0.6391
 8201TIP3   OH224566   4.195   0.546   2.104  0.3840 -0.2005 -0.5672
 8201TIP3    H124567   4.120   0.491   2.128 -0.8253  1.5114 -0.2761
 8201TIP3    H224568   4.270   0.504   2.147 -0.5008 -1.5291 -0.2416
 8202TIP3   OH224569   5.251   0.790   4.794 -1.1782  0.1232 -0.0583
 8202TIP3    H124570   5.335   0.829   4.770 -1.7172  1.0669 -0.4878
 8202TIP3    H224571   5.255   0.779   4.889 -2.0077  3.8753  0.5663
 8203TIP3   OH224572   2.936   4.032   4.348 -0.4696  0.0356 -0.5848
 8203TIP3    H124573   2.961   3.949   4.307  1.7209 -0.2317  1.0791
 8203TIP3    H224574   2.861   4.010   4.403 -0.1748 -0.7585 -0.4819
 8204TIP3   OH224575   0.380   3.580   1.717 -0.1641 -0.0743 -0.4378
 8204TIP3    H124576   0.345   3.622   1.796 -0.6111  0.5286 -0.9503
 8204TIP3    H224577   0.458   3.632   1.696 -0.4576  0.2138 -0.8111
 8205TIP3   OH224578   1.834   0.942   4.774  0.4159 -0.5301 -0.3994
 8205TIP3    H124579   1.774   1.016   4.776  0.2192 -0.6807  1.5879
 8205TIP3    H224580   1.781   0.868   4.805  1.5301 -0.6986  1.2155
 8206TIP3   OH224581   3.844   4.045   5.116 -0.4675 -0.5064  0.6454
 8206TIP3    H124582   3.925   4.067   5.070  0.0940  0.1953  1.9028
 8206TIP3    H224583   3.788   4.122   5.105 -0.1263 -0.1173  1.5485
 8207TIP3   OH224584   6.405   1.586   1.252  0.2759  0.7217  0.5883
 8207TIP3    H124585   6.428   1.519   1.188 -1.2273 -0.4483  1.2322
 8207TIP3    H224586   6.470   1.575   1.322  0.7159  0.6969  0.1843
 8208TIP3   OH224587   6.343   3.307   0.489 -0.6590 -0.0639  0.3852
 8208TIP3    H124588   6.317   3.395   0.516 -0.4782 -0.0881  0.6404
 8208TIP3    H224589   6.418   3.321   0.432 -0.9696 -0.0199 -0.0153
 8209TIP3   OH224590   4.178   3.595   1.007 -0.0912 -0.5955 -0.6430
 8209TIP3    H124591   4.101   3.564   1.056 -0.8756  1.6313 -0.3835
 8209TIP3    H224592   4.143   3.619   0.921  0.1791  0.9336 -0.3472
 8210TIP3   OH224593   5.310   0.645   2.596  0.2888 -0.1808 -0.4032
 8210TIP3    H124594   5.364   0.568   2.614 -0.0450 -0.3079  0.0689
 8210TIP3    H224595   5.237   0.638   2.657 -0.4613 -0.2054 -1.2858
 8211TIP3   OH224596   6.181   0.487   2.986  0.1766  0.1870  0.3946
 8211TIP3    H124597   6.098   0.440   2.982 -0.0617  0.5972  0.5133
 8211TIP3    H224598   6.175   0.540   3.065  0.5122  0.2919  0.3515
 8212TIP3   OH224599   1.760   4.355   2.637  0.4937 -0.1894  0.0870
 8212TIP3    H124600   1.757   4.261   2.624 -0.5449 -0.0778 -0.5903
 8212TIP3    H224601   1.833   4.386   2.583 -0.0839 -0.4354 -0.8447
 8213TIP3   OH224602   1.388   2.676   1.059  0.0594  0.0019 -0.5729
 8213TIP3    H124603   1.413   2.640   0.974  0.0490  0.1393 -0.6349
 8213TIP3    H224604   1.296   2.701   1.049  0.4135  1.2362 -0.9427
 8214TIP3   OH224605   1.512   5.670   5.886 -0.7278  0.4710  1.0681
 8214TIP3    H124606   1.574   5.713   5.946 -0.2969  3.0681 -1.0396
 8214TIP3    H224607   1.524   5.716   5.803 -1.0496 -3.2031 -1.1899
 8215TIP3   OH224608   1.781   0.738   3.391 -1.0524 -0.0370  0.1393
 8215TIP3    H124609   1.772   0.703   3.303  2.8418 -0.8136 -0.1339
 8215TIP3    H224610   1.777   0.833   3.379  0.0116 -0.1097 -1.0256
 8216TIP3   OH224611   3.650   5.115   1.648  0.3780 -0.1677 -0.5681
 8216TIP3    H124612   3.648   5.050   1.578 -1.3937 -1.1187  0.3013
 8216TIP3    H224613   3.651   5.064   1.729  0.8987  0.9005  0.1217
 8217TIP3   OH224614   4.875   6.638   3.029  0.1062  0.5738  0.0812
 8217TIP3    H124615   4.790   6.600   3.050 -0.3547  3.0082  3.4900
 8217TIP3    H224616   4.860   6.687   2.947 -1.4930  0.1724  0.1095
 8218TIP3   OH224617   1.912   2.741   1.606 -0.3982 -0.2882 -0.1433
 8218TIP3    H124618   1.975   2.731   1.677  0.5998 -0.2735 -0.9992
 8218TIP3    H224619   1.926   2.665   1.549  0.7788  1.0706 -1.7749
 8219TIP3   OH224620   1.799   4.915   0.793 -0.0283 -0.0784 -0.3875
 8219TIP3    H124621   1.835   4.955   0.872 -1.2251 -0.4921  0.4021
 8219TIP3    H224622   1.734   4.852   0.826  0.1249 -0.9378 -1.6786
 8220TIP3   OH224623   4.848   5.042   0.551 -0.1900 -0.5753 -0.4792
 8220TIP3    H124624   4.931   5.000   0.531  0.7261  0.9204  0.0005
 8220TIP3    H224625   4.839   5.111   0.485 -1.4472 -1.2048 -1.0021
 8221TIP3   OH224626   3.815   3.813   1.788  0.1961 -0.2270  0.1916
 8221TIP3    H124627   3.850   3.740   1.840  1.0615 -0.3927 -0.5919
 8221TIP3    H224628   3.785   3.771   1.707  0.3242  0.2380 -0.0958
 8222TIP3   OH224629   5.245   3.887   1.127 -0.1423  0.5777 -0.7692
 8222TIP3    H124630   5.201   3.964   1.091 -2.3519  0.0947  0.7055
 8222TIP3    H224631   5.328   3.920   1.161 -0.4331  2.0340 -1.4317
 8223TIP3   OH224632   1.669   0.278   5.082  0.2226  0.1953  0.3494
 8223TIP3    H124633   1.652   0.190   5.118 -0.0869  0.0561 -0.1358
 8223TIP3    H224634   1.584   0.320   5.080  0.3188  0.3854  0.2414
 8224TIP3   OH224635   6.904   3.571   2.349 -0.3952 -0.0393  0.6325
 8224TIP3    H124636   6.936   3.641   2.406  0.8271 -1.3736  1.6691
 8224TIP3    H224637   6.919   3.491   2.399  0.4640 -1.2475 -1.4374
 8225TIP3   OH224638   3.422   5.028   4.930 -0.6670  0.2095 -0.2526
 8225TIP3    H124639   3.486   5.099   4.935  0.4362 -0.7556 -0.2644
 8225TIP3    H224640   3.353   5.062   4.872  1.2458  0.2401 -2.6404
 8226TIP3   OH224641   6.867   2.201   5.135 -0.2896 -0.2537  0.0285
 8226TIP3    H124642   6.940   2.261   5.119 -0.5314  0.2402  0.7481
 8226TIP3    H224643   6.789   2.250   5.109 -0.5971  0.1939  1.7124
 8227TIP3   OH224644   4.377   2.099   3.246 -0.1202  0.8281  0.6780
 8227TIP3    H124645   4.447   2.151   3.206  0.0731 -1.5843 -2.4748
 8227TIP3    H224646   4.410   2.078   3.333  1.4436  2.6967  0.6064
 8228TIP3   OH224647   2.910   4.349   3.304  0.1317  0.1106  0.1210
 8228TIP3    H124648   2.995   4.305   3.301  1.5108  2.4757  0.9686
 8228TIP3    H224649   2.872   4.323   3.387  0.9535  0.4963  0.6370
 8229TIP3   OH224650   4.297   6.371   4.554 -0.5834 -1.0351 -0.4402
 8229TIP3    H124651   4.341   6.351   4.637 -0.3697 -0.8389 -0.5025
 8229TIP3    H224652   4.219   6.420   4.579 -0.2986 -0.6027 -0.3714
 8230TIP3   OH224653   3.115   2.054   2.644 -0.5769  0.6491 -0.4668
 8230TIP3    H124654   3.114   2.085   2.734  0.0551  0.2303 -0.3128
 8230TIP3    H224655   3.089   1.962   2.649  0.2339  0.4063 -0.6184
 8231TIP3   OH224656   4.810   2.359   2.391 -0.1907  0.4049  0.7810
 8231TIP3    H124657   4.728   2.387   2.433 -2.0991 -2.0506 -1.0057
 8231TIP3    H224658   4.832   2.277   2.434  1.0695  0.7947  0.8978
 8232TIP3   OH224659   2.701   0.681   1.795  0.1927  0.4540  0.3322
 8232TIP3    H124660   2.776   0.623   1.806 -0.1910 -0.0954  0.1069
 8232TIP3    H224661   2.732   0.751   1.738  0.1385 -0.5391 -0.9629
 8233TIP3   OH224662   5.455   6.649   5.301 -0.2246  0.1094 -0.0355
 8233TIP3    H124663   5.525   6.598   5.260 -0.1311  0.4588 -0.3248
 8233TIP3    H224664   5.385   6.652   5.236  0.1717  1.1958 -0.4439
 8234TIP3   OH224665   5.308   0.588   4.004  0.2491 -0.2362 -0.6958
 8234TIP3    H124666   5.278   0.608   3.915 -0.1241 -0.6129 -0.6580
 8234TIP3    H224667   5.403   0.580   3.996  0.1958 -0.4909 -1.1043
 8235TIP3   OH224668   5.339   3.628   2.896  0.9844  0.0532 -0.8984
 8235TIP3    H124669   5.418   3.615   2.844  1.1013 -0.0590 -0.6931
 8235TIP3    H224670   5.348   3.716   2.931  1.6571 -0.4299  0.2038
 8236TIP3   OH224671   2.938   2.290   1.608 -0.0019 -0.1959 -0.0425
 8236TIP3    H124672   2.984   2.360   1.562  2.2304 -0.8159  1.0792
 8236TIP3    H224673   2.872   2.335   1.660  0.0562  0.8735 -0.8498
 8237TIP3   OH224674   1.494   4.397   1.134 -0.1312 -0.1970 -0.0446
 8237TIP3    H124675   1.470   4.484   1.102 -0.6508 -0.8997 -1.7265
 8237TIP3    H224676   1.421   4.370   1.190  0.6233  0.9299  1.5311
 8238TIP3   OH224677   6.013   2.014   1.095 -0.5874 -0.2459 -0.4914
 8238TIP3    H124678   5.932   2.037   1.142 -0.9300  1.3533 -1.7720
 8238TIP3    H224679   6.080   2.068   1.135 -0.5471 -0.1266 -0.7189
 8239TIP3   OH224680   3.524   6.610   2.093  0.5117  0.2315  0.2297
 8239TIP3    H124681   3.518   6.586   2.186 -0.0481  0.4223  0.2447
 8239TIP3    H224682   3.470   6.688   2.085  0.1292 -0.0864 -0.3653
 8240TIP3   OH224683   4.872   4.747   5.034  0.0547  0.1152  0.2233
 8240TIP3    H124684   4.797   4.736   4.975  0.1752  0.3863  0.0171
 8240TIP3    H224685   4.948   4.726   4.980  0.0629 -1.1797  0.7162
 8241TIP3   OH224686   1.919   3.513   4.940  0.4888  0.3830 -0.0391
 8241TIP3    H124687   2.005   3.471   4.938  1.8245  2.9018 -1.3002
 8241TIP3    H224688   1.892   3.508   5.031  1.5201 -1.2954  0.2096
 8242TIP3   OH224689   3.883   0.449   4.938  0.4702 -0.1495  0.0146
 8242TIP3    H124690   3.949   0.518   4.931  0.3371  0.1209  1.1690
 8242TIP3    H224691   3.844   0.444   4.851  0.6274  1.0962 -0.1518
 8243TIP3   OH224692   5.399   4.375   5.203  0.1503  0.2745 -0.8267
 8243TIP3    H124693   5.350   4.312   5.150 -0.2511  1.3544 -1.7952
 8243TIP3    H224694   5.337   4.400   5.272  0.4246 -0.6179 -0.2498
 8244TIP3   OH224695   7.008   5.238   1.170 -0.5705  0.4692  0.2279
 8244TIP3    H124696   7.082   5.286   1.206 -0.0738  0.3540 -0.6354
 8244TIP3    H224697   6.934   5.263   1.227  0.0125  0.9700  0.7830
 8245TIP3   OH224698   5.006   0.717   0.610  0.2554  0.4274 -0.0602
 8245TIP3    H124699   5.042   0.791   0.562  0.9399 -1.2165 -2.2437
 8245TIP3    H224700   5.074   0.692   0.673  0.3414  1.1251  0.1278
 8246TIP3   OH224701   4.940   3.018   3.473 -0.3044 -0.9637 -0.6507
 8246TIP3    H124702   4.976   3.080   3.410  0.0301 -1.5290 -1.0221
 8246TIP3    H224703   4.923   3.071   3.551 -0.9659 -0.2090 -1.2915
 8247TIP3   OH224704   5.614   6.196   5.790 -0.1742 -0.5052  0.0958
 8247TIP3    H124705   5.565   6.254   5.732  0.0825 -0.2936  0.0866
 8247TIP3    H224706   5.553   6.125   5.811 -0.8333  0.2552  0.8668
 8248TIP3   OH224707   5.394   3.878   1.708 -0.1987  0.0449  0.2915
 8248TIP3    H124708   5.302   3.900   1.719 -0.2256 -0.9326  2.4999
 8248TIP3    H224709   5.396   3.819   1.632 -1.6796 -1.3805  1.2980
 8249TIP3   OH224710   7.208   3.371   2.630 -0.5356 -0.5397  0.2252
 8249TIP3    H124711   7.151   3.360   2.554 -1.0050 -0.5801  0.5710
 8249TIP3    H224712   7.179   3.302   2.691 -1.2577  0.4789  1.0783
 8250TIP3   OH224713   0.649   0.043   5.512 -0.4264 -0.0229  0.3360
 8250TIP3    H124714   0.726   0.093   5.540 -1.4541  0.8775  1.6591
 8250TIP3    H224715   0.686  -0.032   5.465  1.2460  0.5734  0.6165
 8251TIP3   OH224716   2.921   0.513   1.764 -0.1565  0.1416 -0.1424
 8251TIP3    H124717   2.989   0.580   1.754  0.9784 -0.8272  0.7411
 8251TIP3    H224718   2.884   0.504   1.676  0.0005  1.5568 -0.3844
 8252TIP3   OH224719   0.041   3.197   3.894  0.0931  0.4941 -0.1829
 8252TIP3    H124720   0.030   3.244   3.811 -1.2726  1.0261  0.2735
 8252TIP3    H224721  -0.025   3.235   3.952  0.8106 -0.1006  1.0524
 8253TIP3   OH224722   2.238   5.272   5.564 -0.0659 -0.1614  0.4001
 8253TIP3    H124723   2.250   5.327   5.486  1.1876  0.9760  1.3626
 8253TIP3    H224724   2.219   5.185   5.529 -3.4896  1.0495 -1.1991
 8254TIP3   OH224725   7.031   0.969   4.455  0.1920  0.2836 -0.1381
 8254TIP3    H124726   6.995   0.881   4.441  0.4323  0.1982 -0.2388
 8254TIP3    H224727   7.120   0.953   4.486 -0.0846  0.4839  0.7798
 8255TIP3   OH224728   4.851   4.344   4.238  0.0726 -0.1853 -0.2369
 8255TIP3    H124729   4.864   4.438   4.251 -0.2031 -0.3854  1.8936
 8255TIP3    H224730   4.824   4.336   4.147 -0.5162  1.8811 -0.2999
 8256TIP3   OH224731   1.756   0.546   4.582  0.4478  0.1786 -0.5726
 8256TIP3    H124732   1.803   0.592   4.512  2.9994  0.9545  1.4726
 8256TIP3    H224733   1.818   0.479   4.613 -1.4185 -1.5522 -0.4004
 8257TIP3   OH224734   1.553   5.557   2.841  0.3253  0.0087  0.2974
 8257TIP3    H124735   1.567   5.469   2.806  0.5597  0.7641 -1.6391
 8257TIP3    H224736   1.479   5.548   2.901 -0.2739 -1.3373 -0.5985
 8258TIP3   OH224737   1.723   1.727   5.709  0.0340 -0.0506  0.1174
 8258TIP3    H124738   1.691   1.802   5.657 -2.5019  0.0127  1.5815
 8258TIP3    H224739   1.666   1.655   5.683  0.5867 -0.7276  0.7748
 8259TIP3   OH224740   0.820   1.156   1.820 -0.0846 -0.3879 -0.0941
 8259TIP3    H124741   0.801   1.089   1.754 -3.3438  1.1148 -0.8736
 8259TIP3    H224742   0.735   1.194   1.840  1.5418  3.1786  0.7082
 8260TIP3   OH224743   4.280   5.977   4.033  0.3105  0.3852  0.2324
 8260TIP3    H124744   4.227   6.051   4.002 -0.5093 -0.1569  0.2879
 8260TIP3    H224745   4.220   5.902   4.030  1.4264 -0.5040 -0.8476
 8261TIP3   OH224746   3.510   4.717   2.474 -0.4174  0.0492  0.5208
 8261TIP3    H124747   3.493   4.633   2.431  0.1203  0.4677 -0.5330
 8261TIP3    H224748   3.581   4.756   2.424 -0.5694  1.0843  1.0826
 8262TIP3   OH224749   2.907   5.659   1.063  0.1427 -0.2127  0.5914
 8262TIP3    H124750   2.954   5.577   1.077  0.4877 -0.6339 -2.3253
 8262TIP3    H224751   2.976   5.722   1.043 -0.3242 -0.3449 -1.6766
 8263TIP3   OH224752   0.159   1.859   1.204 -0.5281  0.5364  0.2934
 8263TIP3    H124753   0.171   1.885   1.295 -0.9415  0.0855  0.4809
 8263TIP3    H224754   0.074   1.896   1.180 -0.0038  1.4609 -0.2108
 8264TIP3   OH224755   3.142   2.885   2.104 -0.0603 -0.5884 -0.3130
 8264TIP3    H124756   3.191   2.920   2.030 -1.5807  1.6546 -0.3353
 8264TIP3    H224757   3.062   2.849   2.066  0.2882 -1.7596  0.0102
 8265TIP3   OH224758   4.147   5.808   1.632 -0.0009 -0.4352 -0.0814
 8265TIP3    H124759   4.161   5.830   1.540 -0.1820 -0.9663 -0.2417
 8265TIP3    H224760   4.122   5.891   1.673  0.7983 -0.0489 -0.3598
 8266TIP3   OH224761   5.631   6.522   5.117 -0.0710  0.3807  0.4482
 8266TIP3    H124762   5.673   6.595   5.071  0.0043  0.3442  0.4588
 8266TIP3    H224763   5.562   6.493   5.058 -1.1197  1.4550  1.0945
 8267TIP3   OH224764   0.703   4.852   5.297 -0.2166 -0.1405 -0.2371
 8267TIP3    H124765   0.724   4.786   5.231  1.3143 -1.4363  1.4499
 8267TIP3    H224766   0.627   4.898   5.262  1.0088 -0.1773 -3.2843
 8268TIP3   OH224767   4.259   6.640   0.980 -0.5218 -0.3008 -0.0534
 8268TIP3    H124768   4.165   6.645   0.964 -0.0654  1.0947 -2.7265
 8268TIP3    H224769   4.294   6.591   0.906  1.0131  0.3876  0.1718
 8269TIP3   OH224770   3.679   6.016   4.965  0.9955  0.6176  0.0917
 8269TIP3    H124771   3.689   6.073   4.889 -0.1494 -0.7392 -1.1574
 8269TIP3    H224772   3.603   6.052   5.012  0.5856  0.4343 -0.4154
 8270TIP3   OH224773   2.286   1.280   3.864 -0.3773  0.0165  0.0654
 8270TIP3    H124774   2.306   1.323   3.947 -1.4528 -1.0647  0.9226
 8270TIP3    H224775   2.368   1.240   3.836  0.1714  1.0035  0.2057
 8271TIP3   OH224776   0.922   5.262   3.266  0.2553  1.0412 -0.2793
 8271TIP3    H124777   0.875   5.200   3.210  2.1482 -0.7422 -0.0166
 8271TIP3    H224778   0.899   5.237   3.355  3.7198 -1.8299  0.0228
 8272TIP3   OH224779   0.183   1.389   0.398 -0.3425 -0.7673  0.4788
 8272TIP3    H124780   0.214   1.414   0.311  0.8157 -2.7682  0.2653
 8272TIP3    H224781   0.262   1.388   0.452 -0.9155 -0.4478  1.3321
 8273TIP3   OH224782   1.988   1.395   1.286 -0.2344  0.1651  0.4516
 8273TIP3    H124783   2.023   1.484   1.295 -0.9341  0.4326  0.6641
 8273TIP3    H224784   1.910   1.395   1.343  0.5700 -1.0280  1.6148
 8274TIP3   OH224785   1.961   1.638   4.926 -0.8416 -0.0958 -0.3007
 8274TIP3    H124786   1.914   1.681   4.997 -0.5966  0.8108 -0.6744
 8274TIP3    H224787   2.018   1.574   4.970 -0.8137  0.3372  0.3003
 8275TIP3   OH224788   3.319   5.814   2.818  0.3670  0.5670 -0.5555
 8275TIP3    H124789   3.335   5.768   2.900  0.6137  1.3808 -0.1353
 8275TIP3    H224790   3.292   5.746   2.757 -1.4120  0.1436  0.6224
 8276TIP3   OH224791   6.112   3.316   1.405 -0.3087  0.4011 -0.0398
 8276TIP3    H124792   6.102   3.368   1.326  0.2898  0.7274  0.0926
 8276TIP3    H224793   6.025   3.316   1.446 -0.3841  1.0437 -0.1958
 8277TIP3   OH224794   4.680   5.550   2.049  0.1170  0.0227  0.1725
 8277TIP3    H124795   4.616   5.497   2.098 -0.1434 -1.2384 -1.4338
 8277TIP3    H224796   4.756   5.492   2.039  0.2901  0.3766 -0.6188
 8278TIP3   OH224797   0.953   0.126   5.623 -0.2693  0.5655  0.5797
 8278TIP3    H124798   0.944   0.041   5.667 -0.3092 -0.2050 -0.8553
 8278TIP3    H224799   1.047   0.133   5.605 -0.6154 -0.9655 -2.5587
 8279TIP3   OH224800   1.105   5.692   2.242 -0.6250  0.0334  0.5599
 8279TIP3    H124801   1.180   5.652   2.198 -0.4033 -1.2391  2.0342
 8279TIP3    H224802   1.133   5.783   2.258 -0.5603  0.4312 -1.4683
 8280TIP3   OH224803   5.307   5.260   5.408 -0.2226  0.0550  0.8030
 8280TIP3    H124804   5.217   5.273   5.379 -0.6408 -1.8324  1.1071
 8280TIP3    H224805   5.325   5.334   5.466 -0.6242  1.9165 -1.3050
 8281TIP3   OH224806   1.615   3.822   3.643  0.4214 -0.3514 -0.7259
 8281TIP3    H124807   1.651   3.910   3.635 -0.0026 -0.2360 -1.4052
 8281TIP3    H224808   1.583   3.817   3.733  1.2685 -0.1312 -0.4038
 8282TIP3   OH224809   1.636   3.804   2.222  0.6659  0.1609 -0.1078
 8282TIP3    H124810   1.577   3.856   2.167  0.5262  0.6837  0.5236
 8282TIP3    H224811   1.578   3.758   2.283  0.9194  1.2247  0.9881
 8283TIP3   OH224812   4.960   1.664   4.741  0.1785 -0.3823  0.3345
 8283TIP3    H124813   4.953   1.609   4.818 -2.5271 -1.1091 -0.3141
 8283TIP3    H224814   4.923   1.612   4.670  2.6133  0.2296 -1.5484
 8284TIP3   OH224815   5.594   2.454   2.427  0.3480 -0.6354 -0.3145
 8284TIP3    H124816   5.503   2.434   2.448  0.1439  0.3234 -0.1995
 8284TIP3    H224817   5.632   2.371   2.399 -0.5244 -1.0735 -0.2229
 8285TIP3   OH224818   7.035   2.009   0.758  0.5058 -0.3218  0.5782
 8285TIP3    H124819   6.993   1.981   0.676 -0.9582  3.2135 -0.0920
 8285TIP3    H224820   7.112   2.058   0.729 -0.6615  1.9890  1.0741
 8286TIP3   OH224821   3.059   4.399   3.655  0.1197  0.0531 -0.3383
 8286TIP3    H124822   2.979   4.452   3.650  1.1498  1.5971 -1.7450
 8286TIP3    H224823   3.105   4.417   3.573  1.7131 -1.1223  0.2368
 8287TIP3   OH224824   3.546   0.812   2.255  0.2284 -0.3825  0.2288
 8287TIP3    H124825   3.620   0.800   2.195  0.4621 -1.9600  0.7916
 8287TIP3    H224826   3.519   0.723   2.278  0.2095  0.1571  2.5562
 8288TIP3   OH224827   2.908   1.236   5.170 -0.0760  0.6598  0.7684
 8288TIP3    H124828   2.821   1.256   5.206  0.0374  1.4489  0.6326
 8288TIP3    H224829   2.966   1.299   5.213  0.5553 -0.3539  1.4110
 8289TIP3   OH224830   6.812   5.689   3.926 -0.6436  0.1531  0.3839
 8289TIP3    H124831   6.752   5.707   3.854  0.4271 -0.1489 -0.6159
 8289TIP3    H224832   6.896   5.673   3.883 -0.3437 -1.7489  1.5836
 8290TIP3   OH224833   6.434   2.833   2.373 -0.0157  0.0487 -0.3780
 8290TIP3    H124834   6.487   2.754   2.373 -0.2995 -0.1439 -0.4316
 8290TIP3    H224835   6.358   2.811   2.318 -0.0112  0.4105 -0.5326
 8291TIP3   OH224836   4.750   1.588   2.375  0.0194  0.4261 -0.5252
 8291TIP3    H124837   4.825   1.539   2.339  0.7456  0.8848  0.3083
 8291TIP3    H224838   4.741   1.555   2.464 -0.3879  0.8001 -0.4246
 8292TIP3   OH224839   1.669   0.162   3.030 -0.0409 -0.2921  0.1952
 8292TIP3    H124840   1.761   0.138   3.042  0.0139  0.3412  1.1108
 8292TIP3    H224841   1.624   0.078   3.018  0.6281 -0.6157 -0.0994
 8293TIP3   OH224842   0.114   0.333   1.666  0.7043  0.0384  0.6008
 8293TIP3    H124843   0.046   0.295   1.721  3.0560 -2.7196  1.8590
 8293TIP3    H224844   0.162   0.392   1.724  1.4286 -0.6898  0.7780
 8294TIP3   OH224845   0.348   1.466   1.551 -0.1065  0.3840  0.4988
 8294TIP3    H124846   0.298   1.510   1.482  0.6696 -0.6503 -0.7785
 8294TIP3    H224847   0.309   1.379   1.557 -0.2039  0.4868  1.4182
 8295TIP3   OH224848   5.351   2.587   0.051  0.1231  0.3035  0.1738
 8295TIP3    H124849   5.308   2.673   0.044 -0.5304  0.0802  1.1814
 8295TIP3    H224850   5.410   2.595   0.125 -0.4037 -0.3004  0.6696
 8296TIP3   OH224851   2.792   2.923   4.662  0.0751  0.8858  0.0246
 8296TIP3    H124852   2.886   2.927   4.645  0.0870 -1.1489 -0.6269
 8296TIP3    H224853   2.753   2.975   4.591  0.5930 -0.4319 -1.2681
 8297TIP3   OH224854   3.515   4.784   3.736  0.0867  0.6080 -0.2366
 8297TIP3    H124855   3.585   4.775   3.671 -0.2426  0.6682 -0.6075
 8297TIP3    H224856   3.475   4.869   3.716 -1.4330 -0.3126 -1.3912
 8298TIP3   OH224857   1.404   4.488   0.740 -0.1494 -0.2371 -0.1522
 8298TIP3    H124858   1.393   4.512   0.648 -2.1798 -1.9497 -0.4395
 8298TIP3    H224859   1.333   4.534   0.785  2.2109  2.5144  1.0738
 8299TIP3   OH224860   2.600   5.023   1.024  1.0716  0.2479  0.0974
 8299TIP3    H124861   2.552   5.077   1.087 -2.5334 -0.3530 -1.8699
 8299TIP3    H224862   2.663   5.084   0.984  2.2962  1.0222  2.9526
 8300TIP3   OH224863   4.969   1.994   0.169  0.0312  0.5433 -0.4048
 8300TIP3    H124864   4.978   1.942   0.249  2.5238  0.4286 -0.6774
 8300TIP3    H224865   4.942   1.932   0.102  0.8669  0.0172 -0.2678
 8301TIP3   OH224866   1.036   6.337   0.680 -0.3524  0.2644  0.5881
 8301TIP3    H124867   1.017   6.261   0.735  0.3065  0.5676  1.2640
 8301TIP3    H224868   1.003   6.412   0.730 -1.2815  0.4024 -0.2186
 8302TIP3   OH224869   5.973   0.888   3.925  0.0392  0.0129  0.0547
 8302TIP3    H124870   5.957   0.809   3.873 -0.1271  0.3750 -0.4509
 8302TIP3    H224871   5.932   0.870   4.009 -2.1348  0.4786 -0.8405
 8303TIP3   OH224872   1.504   1.473   0.590  0.5408  0.1798  0.0470
 8303TIP3    H124873   1.455   1.434   0.662 -0.4213  0.6216 -0.3473
 8303TIP3    H224874   1.595   1.470   0.618  0.1071  1.1760  1.6652
 8304TIP3   OH224875   2.916   1.419   2.294 -0.0222  0.3969 -0.2505
 8304TIP3    H124876   2.981   1.367   2.246  0.8159  0.3692  0.8783
 8304TIP3    H224877   2.923   1.507   2.256 -1.1186 -0.1562 -1.8447
 8305TIP3   OH224878   1.929   2.543   5.512 -0.5054 -0.2258  0.0851
 8305TIP3    H124879   1.918   2.471   5.573  0.5833 -1.5537 -1.2063
 8305TIP3    H224880   1.854   2.537   5.453 -0.4397 -0.2924  0.0069
 8306TIP3   OH224881   2.112   1.840   4.337  0.0835 -0.3287 -0.2062
 8306TIP3    H124882   2.152   1.803   4.415  0.5764  1.2259  0.3167
 8306TIP3    H224883   2.090   1.930   4.361 -0.2694  0.0147 -1.6847
 8307TIP3   OH224884   4.134   1.228   3.295  0.0797 -0.4694  0.5936
 8307TIP3    H124885   4.116   1.160   3.230 -0.0320 -0.1967  0.3327
 8307TIP3    H224886   4.179   1.296   3.245 -0.5708  0.0213  0.6594
 8308TIP3   OH224887   4.633   4.103   3.588 -0.2394  0.0005  0.0295
 8308TIP3    H124888   4.723   4.068   3.590  0.0034  0.4555 -1.5244
 8308TIP3    H224889   4.641   4.186   3.541 -1.7874 -1.0675 -2.3241
 8309TIP3   OH224890   6.812   2.969   5.486  0.2543  0.3556  0.0046
 8309TIP3    H124891   6.834   2.999   5.574 -0.6386  0.6913  0.1266
 8309TIP3    H224892   6.831   3.044   5.430  3.5737 -0.7646 -0.5377
 8310TIP3   OH224893   1.792   4.626   1.421 -0.3672  0.1183 -0.0862
 8310TIP3    H124894   1.726   4.631   1.491 -1.2183  1.4343 -0.9297
 8310TIP3    H224895   1.741   4.610   1.342  0.7052 -2.9928 -0.2726
 8311TIP3   OH224896   2.606   5.123   3.467  0.5953 -0.0950  0.6232
 8311TIP3    H124897   2.669   5.051   3.462 -0.3045 -0.9031  0.6379
 8311TIP3    H224898   2.595   5.151   3.376  0.1774 -0.6758  0.4868
 8312TIP3   OH224899   6.465   6.283   3.413 -0.1624 -0.2228 -0.1698
 8312TIP3    H124900   6.404   6.231   3.464 -2.5913  1.5006 -1.1044
 8312TIP3    H224901   6.502   6.345   3.476  0.0041 -0.7388  0.2469
 8313TIP3   OH224902   3.013   3.204   0.461 -0.5084 -0.2471  0.6682
 8313TIP3    H124903   2.963   3.284   0.443  0.0643 -0.0429 -0.0497
 8313TIP3    H224904   3.031   3.208   0.555 -2.1749 -0.5287  1.0388
 8314TIP3   OH224905   4.650   4.696   4.857  0.7344 -0.7377 -0.0261
 8314TIP3    H124906   4.569   4.658   4.890 -1.1306  2.6318 -0.3349
 8314TIP3    H224907   4.628   4.726   4.768  2.2071  0.4756 -0.0195
 8315TIP3   OH224908   4.068   4.999   2.675 -0.4988  0.1544  0.4161
 8315TIP3    H124909   4.010   4.929   2.646 -1.7888  1.4936 -0.4266
 8315TIP3    H224910   4.138   5.000   2.610 -0.9800  0.2360 -0.1124
 8316TIP3   OH224911   5.967   0.709   4.479  1.4330  0.0058 -0.1702
 8316TIP3    H124912   5.968   0.800   4.509 -0.8525  0.0571 -0.0644
 8316TIP3    H224913   5.907   0.665   4.540  2.5413 -1.6073 -0.1895
 8317TIP3   OH224914   2.951   1.471   4.744 -0.2947 -0.0824 -0.8890
 8317TIP3    H124915   2.973   1.378   4.743 -0.0590 -0.0371 -0.0464
 8317TIP3    H224916   2.995   1.507   4.667 -1.5566 -0.9229 -2.0531
 8318TIP3   OH224917   6.035   2.397   1.599 -0.5479 -0.1983  0.3873
 8318TIP3    H124918   5.965   2.425   1.540 -1.2098 -0.6798  0.9240
 8318TIP3    H224919   6.089   2.475   1.612  0.7869 -0.5558 -2.4032
 8319TIP3   OH224920   0.634   3.700   5.271 -0.1548 -0.5650  0.5874
 8319TIP3    H124921   0.686   3.722   5.193 -1.7046  0.0810 -0.3325
 8319TIP3    H224922   0.635   3.780   5.324 -2.0439  0.3077 -0.5646
 8320TIP3   OH224923   2.890   6.594   4.315 -0.1443  0.4846  0.1776
 8320TIP3    H124924   2.946   6.654   4.266 -0.8709  2.5689  1.7229
 8320TIP3    H224925   2.922   6.599   4.405 -0.7290 -0.8689  0.4895
 8321TIP3   OH224926   0.857   6.097   3.134  0.6904  0.0983 -0.1269
 8321TIP3    H124927   0.856   6.159   3.206 -0.6601  0.8694 -0.7759
 8321TIP3    H224928   0.938   6.047   3.146  0.4848  0.1909  1.9085
 8322TIP3   OH224929   6.657   5.141   4.406  0.3850  0.4145 -0.8236
 8322TIP3    H124930   6.711   5.090   4.467 -0.0113  1.5755  0.5522
 8322TIP3    H224931   6.591   5.079   4.375  1.9726 -0.8084 -1.8962
 8323TIP3   OH224932   6.788   0.462   0.262 -0.8437  0.5771 -0.0229
 8323TIP3    H124933   6.843   0.478   0.185 -1.0561  0.2111 -0.2503
 8323TIP3    H224934   6.849   0.427   0.327 -0.9896 -0.8560 -0.6297
 8324TIP3   OH224935   3.859   4.271   2.932  0.3055  0.0355  0.0436
 8324TIP3    H124936   3.899   4.358   2.935  0.4817 -0.0507  0.1827
 8324TIP3    H224937   3.933   4.211   2.923  0.2464 -0.1628  0.8328
 8325TIP3   OH224938   4.281   3.601   4.990 -0.4158 -0.6964  0.1370
 8325TIP3    H124939   4.219   3.528   4.993 -0.5881 -0.6373 -1.3912
 8325TIP3    H224940   4.361   3.566   5.029 -0.6688 -1.5442 -0.0856
 8326TIP3   OH224941   0.691   2.830   4.656  0.2352 -0.0009 -0.1290
 8326TIP3    H124942   0.719   2.864   4.741  0.4545  0.0927 -0.2407
 8326TIP3    H224943   0.644   2.749   4.678  0.3489 -0.0126  0.0768
 8327TIP3   OH224944   2.646   2.186   2.930 -0.5053  0.1746  0.4613
 8327TIP3    H124945   2.614   2.258   2.984 -0.7055  1.5468 -1.3855
 8327TIP3    H224946   2.577   2.173   2.865  0.1842 -0.7067 -0.1098
 8328TIP3   OH224947   5.517   3.442   1.445  0.0272 -0.5291 -0.6203
 8328TIP3    H124948   5.451   3.495   1.400  0.6400 -0.4344 -1.4312
 8328TIP3    H224949   5.600   3.485   1.425  0.3011 -0.3707  0.7900
 8329TIP3   OH224950   6.628   6.552   5.466  0.5945 -0.5937  0.0464
 8329TIP3    H124951   6.574   6.586   5.538 -1.1799 -0.0562 -1.4490
 8329TIP3    H224952   6.682   6.484   5.506 -2.0708 -2.0395  1.4502
 8330TIP3   OH224953   4.914   0.342   2.929 -0.3492  0.7023 -0.3396
 8330TIP3    H124954   4.890   0.319   2.839 -2.0032  3.2141 -0.6260
 8330TIP3    H224955   4.843   0.307   2.983  1.3818 -2.1818  0.3194
 8331TIP3   OH224956   0.239   3.779   3.484 -0.0400  0.5283  0.4862
 8331TIP3    H124957   0.302   3.746   3.548  0.4608  0.2597 -0.1391
 8331TIP3    H224958   0.269   3.869   3.467  1.5587 -0.3166 -1.4993
 8332TIP3   OH224959   6.815   5.491   5.739  0.4423 -0.5783 -0.2140
 8332TIP3    H124960   6.797   5.564   5.680  1.6179  0.5041  0.6988
 8332TIP3    H224961   6.735   5.480   5.789 -0.3399 -1.0747 -1.5252
 8333TIP3   OH224962   2.627   1.585   4.462 -0.0822 -0.0267  0.2763
 8333TIP3    H124963   2.643   1.679   4.474  0.6665  0.0884 -1.3285
 8333TIP3    H224964   2.645   1.547   4.548  0.5429  1.1877  0.7114
 8334TIP3   OH224965   4.183   2.352   4.845 -0.0532 -0.4079 -0.1296
 8334TIP3    H124966   4.137   2.272   4.821  0.2001  0.0995 -2.5310
 8334TIP3    H224967   4.144   2.378   4.929 -0.9088 -2.4171  0.1473
 8335TIP3   OH224968   2.880   1.318   5.861  0.2276  0.2942 -0.0423
 8335TIP3    H124969   2.792   1.322   5.899 -0.1327  1.3070 -0.9097
 8335TIP3    H224970   2.915   1.406   5.875  0.9353  0.0156 -0.0746
 8336TIP3   OH224971   4.270   2.296   3.570  0.0545 -0.1397 -0.1176
 8336TIP3    H124972   4.247   2.254   3.653  0.2245  0.7146  0.3783
 8336TIP3    H224973   4.329   2.234   3.528  1.4768  0.2031  1.2548
 8337TIP3   OH224974   6.658   0.088   1.300 -0.2048 -0.0391  0.2835
 8337TIP3    H124975   6.729   0.133   1.255 -1.3106 -0.5044 -2.1085
 8337TIP3    H224976   6.591   0.155   1.311 -1.3204 -0.6351 -2.0802
 8338TIP3   OH224977   1.039   2.580   3.323  0.1601 -0.3806  0.5667
 8338TIP3    H124978   0.999   2.560   3.238  3.0594 -1.5954 -0.6488
 8338TIP3    H224979   1.013   2.507   3.379  1.5248 -1.8020 -0.5556
 8339TIP3   OH224980   3.547   4.892   5.835 -0.1277  0.4087  0.0836
 8339TIP3    H124981   3.494   4.968   5.857 -1.5954 -0.7434  0.6157
 8339TIP3    H224982   3.600   4.876   5.913  1.0356  1.5253 -0.4302
 8340TIP3   OH224983   6.517   6.024   3.782 -0.1608  0.0076  0.4217
 8340TIP3    H124984   6.491   6.068   3.863 -0.7368  0.4817 -0.0097
 8340TIP3    H224985   6.439   5.974   3.757  0.5360 -1.3991  0.9915
 8341TIP3   OH224986   3.045   0.377   1.478  0.8907 -0.2992 -0.3350
 8341TIP3    H124987   3.074   0.320   1.407  0.1881  2.5170 -3.1020
 8341TIP3    H224988   3.109   0.448   1.480  0.2912  0.2575  1.1682
 8342TIP3   OH224989   4.335   2.062   5.427  0.2767  0.4736  0.6057
 8342TIP3    H124990   4.287   2.143   5.408  0.9900  0.7716  0.0466
 8342TIP3    H224991   4.270   2.006   5.469 -0.6290  0.7891 -0.3256
 8343TIP3   OH224992   7.143   6.475   2.312 -0.0208  0.0396  0.4187
 8343TIP3    H124993   7.134   6.524   2.230 -1.3658  1.9291  1.6206
 8343TIP3    H224994   7.232   6.440   2.309  0.3409  0.9841 -1.3495
 8344TIP3   OH224995   3.184   2.541   1.180  0.5866  0.5910  0.1253
 8344TIP3    H124996   3.262   2.543   1.236  0.2045 -0.5456  0.7439
 8344TIP3    H224997   3.159   2.448   1.177 -0.2425  0.8229 -0.7700
 8345TIP3   OH224998   5.555   2.425   5.105 -0.0181  0.1104  0.8019
 8345TIP3    H124999   5.647   2.405   5.089 -0.2842  0.2635 -1.1577
 8345TIP3    H225000   5.507   2.349   5.071 -0.7226  1.2565 -0.8675
 8346TIP3   OH225001   2.376   3.930   1.191 -0.1258  0.1455  0.1536
 8346TIP3    H125002   2.327   4.006   1.159  0.0831  0.1746 -0.1034
 8346TIP3    H225003   2.434   3.966   1.259 -1.3951 -0.1042  1.4242
 8347TIP3   OH225004   6.134   1.984   2.012  0.1671  0.4203 -1.1972
 8347TIP3    H125005   6.202   2.032   2.059  0.9795  0.0117 -1.9356
 8347TIP3    H225006   6.128   1.900   2.058  2.3445 -0.7748 -2.9079
 8348TIP3   OH225007   6.727   3.979   5.142 -0.2128  0.2715  0.0163
 8348TIP3    H125008   6.711   3.935   5.226  0.0375 -0.6337 -0.4032
 8348TIP3    H225009   6.711   3.912   5.076  0.1401  0.8217 -0.6405
 8349TIP3   OH225010   0.266   2.896   3.058 -0.0153  0.7750 -0.0410
 8349TIP3    H125011   0.225   2.813   3.084 -0.4701  1.0610  0.1738
 8349TIP3    H225012   0.298   2.934   3.139 -1.3592  1.6254  0.1258
 8350TIP3   OH225013   1.865   6.179   3.073 -0.6431 -0.1479  0.2621
 8350TIP3    H125014   1.782   6.227   3.073  0.1446  1.3326 -1.2265
 8350TIP3    H225015   1.841   6.089   3.093 -2.6886  0.1178 -0.7540
 8351TIP3   OH225016   3.805   2.333   2.707  0.5122 -0.1829 -0.2631
 8351TIP3    H125017   3.720   2.348   2.750  1.8553  1.8705  1.9343
 8351TIP3    H225018   3.846   2.265   2.759  0.8154 -0.0801 -0.3679
 8352TIP3   OH225019   3.818   4.500   3.569 -0.1381 -0.2732  0.0766
 8352TIP3    H125020   3.832   4.593   3.556 -0.4080 -0.2193  0.1715
 8352TIP3    H225021   3.822   4.488   3.664 -0.0536 -0.3683  0.0621
 8353TIP3   OH225022   1.059   3.054   2.104  0.5570 -0.5870  0.4217
 8353TIP3    H125023   1.132   3.036   2.164  2.2078  0.1243 -1.2650
 8353TIP3    H225024   1.071   2.992   2.032 -0.3859 -0.3051  0.0119
 8354TIP3   OH225025   3.279   6.532   4.094  0.3423  0.1974  0.0312
 8354TIP3    H125026   3.317   6.512   4.009  0.6485  1.9218 -0.2762
 8354TIP3    H225027   3.226   6.455   4.115  1.0255 -0.6707 -1.2517
 8355TIP3   OH225028   1.909   1.032   3.468 -0.3410  0.1907  0.1674
 8355TIP3    H125029   1.870   1.015   3.554  1.5587 -0.4433  0.9459
 8355TIP3    H225030   1.992   0.985   3.469  0.7491  1.9461 -1.1799
 8356TIP3   OH225031   4.607   6.487   5.520 -0.2180  1.0613  0.4486
 8356TIP3    H125032   4.684   6.535   5.489  1.3191 -0.1628  2.1413
 8356TIP3    H225033   4.588   6.424   5.450  0.0711  1.6111 -0.1377
 8357TIP3   OH225034   6.116   1.191   4.312  0.1968 -0.1821 -0.3822
 8357TIP3    H125035   6.163   1.109   4.293  1.6572  0.4527  0.3166
 8357TIP3    H225036   6.148   1.253   4.247 -2.3763 -0.6067 -2.1961
 8358TIP3   OH225037   4.932   2.385   3.105 -0.3127 -0.1407 -0.6224
 8358TIP3    H125038   5.021   2.396   3.070 -0.8044 -0.5541 -2.0530
 8358TIP3    H225039   4.881   2.453   3.062 -0.6121  0.3747  0.5280
 8359TIP3   OH225040   3.918   5.385   1.996  0.1619  0.3061 -0.0316
 8359TIP3    H125041   4.010   5.409   2.002  1.1359 -2.8938 -0.2026
 8359TIP3    H225042   3.906   5.360   1.904 -0.3103 -1.0758  0.3768
 8360TIP3   OH225043   4.948   1.814   2.439 -0.7202 -0.1236 -0.0123
 8360TIP3    H125044   4.995   1.827   2.522 -0.0058 -0.0808 -0.4166
 8360TIP3    H225045   4.862   1.782   2.466 -1.0335  1.3292  0.8211
 8361TIP3   OH225046   6.901   1.421   3.697  0.2114 -0.4107  0.0428
 8361TIP3    H125047   6.872   1.441   3.786 -0.6685 -0.2812 -0.2635
 8361TIP3    H225048   6.939   1.333   3.703 -3.0231 -1.9761 -0.0796
 8362TIP3   OH225049   2.316   2.347   4.754 -0.5596 -0.0131  0.3502
 8362TIP3    H125050   2.382   2.400   4.710 -0.1537  0.9615  2.0605
 8362TIP3    H225051   2.365   2.298   4.820 -1.2737 -0.7771  0.3231
 8363TIP3   OH225052   2.731   2.372   0.381 -0.4774  0.2085 -0.1685
 8363TIP3    H125053   2.793   2.301   0.391  0.3950  0.8714 -0.7271
 8363TIP3    H225054   2.691   2.382   0.468 -0.8996 -1.1918 -0.1804
 8364TIP3   OH225055   0.976   2.265   5.110  0.4695 -0.2719  0.3972
 8364TIP3    H125056   0.936   2.292   5.027 -1.2517  0.4897  1.4328
 8364TIP3    H225057   0.940   2.178   5.127 -1.3057  0.6617  1.6323
 8365TIP3   OH225058   2.308   4.642   5.717  0.5472 -0.3461  0.0383
 8365TIP3    H125059   2.281   4.633   5.809  0.4889 -0.0689  0.0486
 8365TIP3    H225060   2.346   4.730   5.712 -0.8233  0.2360 -0.5469
 8366TIP3   OH225061   5.843   4.598   1.930 -0.3601 -0.1346 -0.1953
 8366TIP3    H125062   5.912   4.588   1.865  0.2729 -1.5495  0.6582
 8366TIP3    H225063   5.887   4.637   2.006 -1.1168  1.6189 -0.5917
 8367TIP3   OH225064   1.976   2.799   3.417 -0.0028  0.1267 -0.1287
 8367TIP3    H125065   2.029   2.868   3.379 -1.3249  1.4564  0.3585
 8367TIP3    H225066   1.892   2.805   3.372 -0.4708 -0.4779  0.6342
 8368TIP3   OH225067   1.823   4.553   5.180 -0.0081 -0.3612  0.2962
 8368TIP3    H125068   1.838   4.582   5.270 -0.8463  1.1213 -0.0032
 8368TIP3    H225069   1.858   4.624   5.126  1.7921 -1.8631 -0.6278
 8369TIP3   OH225070   0.293   0.861   1.161 -0.7465 -0.0529  0.3194
 8369TIP3    H125071   0.241   0.920   1.106  0.2789  0.7678  0.2010
 8369TIP3    H225072   0.311   0.786   1.105  2.3768  1.8086 -1.4701
 8370TIP3   OH225073   5.790   2.442   0.283 -0.2486 -0.4537  0.2678
 8370TIP3    H125074   5.759   2.356   0.254  0.2899  0.5895 -4.1647
 8370TIP3    H225075   5.875   2.424   0.324 -0.7558 -2.1463  0.6496
 8371TIP3   OH225076   2.934   5.556   2.110  0.1844 -0.5045  0.6731
 8371TIP3    H125077   2.898   5.481   2.156 -1.3091  0.3249  0.9186
 8371TIP3    H225078   2.878   5.566   2.033 -0.6231  1.2397  1.4287
 8372TIP3   OH225079   4.151   6.636   3.310  0.2673 -0.7882 -0.0213
 8372TIP3    H125080   4.081   6.673   3.363 -0.7879 -1.9750 -0.5212
 8372TIP3    H225081   4.178   6.707   3.252  0.2334 -0.0018  0.9226
 8373TIP3   OH225082   5.303   1.181   3.429 -0.6325 -0.3474 -0.0378
 8373TIP3    H125083   5.321   1.131   3.508 -0.8191  0.3222  0.4432
 8373TIP3    H225084   5.268   1.117   3.367  0.3790 -1.0575  0.0950
 8374TIP3   OH225085   1.595   1.596   1.549  0.5725  0.6377 -0.6493
 8374TIP3    H125086   1.568   1.687   1.553 -0.5586  0.5074 -3.3881
 8374TIP3    H225087   1.516   1.548   1.522  1.4503 -0.9882 -0.4923
 8375TIP3   OH225088   6.038   5.809   4.172  0.0970  0.3371 -1.2093
 8375TIP3    H125089   5.990   5.868   4.230  1.1058 -0.0707  0.1037
 8375TIP3    H225090   6.084   5.749   4.231  2.7351  1.1231 -2.3062
 8376TIP3   OH225091   2.874   6.698   1.861 -0.2369 -0.2245 -0.3116
 8376TIP3    H125092   2.791   6.735   1.892 -0.7869 -1.7998  0.1913
 8376TIP3    H225093   2.936   6.770   1.867 -1.6187  1.0799 -0.9793
 8377TIP3   OH225094   6.536   5.856   2.575 -0.3461  0.9463  0.0599
 8377TIP3    H125095   6.552   5.949   2.589 -0.9093  1.2232 -1.0577
 8377TIP3    H225096   6.441   5.847   2.584 -0.2834  0.4555  0.2696
 8378TIP3   OH225097   6.638   2.543   5.251  0.9939  0.6442 -0.4137
 8378TIP3    H125098   6.596   2.477   5.305  0.6457  1.2148  0.0234
 8378TIP3    H225099   6.696   2.589   5.311  0.6049  1.2847 -0.5215
 8379TIP3   OH225100   3.717   0.955   5.157 -0.2236  0.3202 -0.3605
 8379TIP3    H125101   3.692   0.867   5.186  1.3409 -0.3549 -0.9474
 8379TIP3    H225102   3.643   1.010   5.182 -1.8005 -1.3593 -1.1220
 8380TIP3   OH225103   1.275   2.227   2.487 -0.1856  0.5586 -0.1129
 8380TIP3    H125104   1.220   2.305   2.474  0.3974  0.8737 -0.7325
 8380TIP3    H225105   1.242   2.164   2.424  0.1994  0.7685 -0.5259
 8381TIP3   OH225106   2.107   2.036   2.253 -0.2544 -0.5521 -0.0628
 8381TIP3    H125107   2.166   2.013   2.325 -1.1032 -1.8839  0.2381
 8381TIP3    H225108   2.157   2.099   2.201  0.9838 -0.7600  0.8139
 8382TIP3   OH225109   3.953   6.540   0.583 -0.0328 -0.8340  0.0313
 8382TIP3    H125110   3.859   6.523   0.577 -0.1451 -0.1217 -0.2684
 8382TIP3    H225111   3.983   6.483   0.655 -0.5538 -1.6071 -0.3467
 8383TIP3   OH225112   6.965   6.057   5.066 -0.4307 -0.1305  0.1475
 8383TIP3    H125113   6.920   6.005   4.999  2.1149 -1.0772 -0.9648
 8383TIP3    H225114   6.981   6.141   5.024  0.6182 -0.5155 -0.2720
 8384TIP3   OH225115   5.824   4.950   4.885 -0.2790  0.2242 -0.1734
 8384TIP3    H125116   5.889   4.887   4.853  0.2454  1.0348 -0.7252
 8384TIP3    H225117   5.749   4.895   4.909  0.1694 -0.6178 -0.6240
 8385TIP3   OH225118   1.472   0.672   2.258  0.3247 -0.3239  0.2924
 8385TIP3    H125119   1.487   0.757   2.216  0.4496 -0.0091  0.9673
 8385TIP3    H225120   1.381   0.651   2.238  0.6556 -0.6475 -0.9612
 8386TIP3   OH225121   6.726   3.720   0.556  0.3148  0.0295  0.2434
 8386TIP3    H125122   6.689   3.674   0.631  2.3312 -2.3416 -0.1166
 8386TIP3    H225123   6.792   3.778   0.593  1.7862 -1.6283  0.3551
 8387TIP3   OH225124   1.944   0.366   4.678 -0.3561  0.4201 -0.3016
 8387TIP3    H125125   2.038   0.351   4.671 -0.1600  1.2500  0.3029
 8387TIP3    H225126   1.918   0.322   4.759 -0.9620 -1.8225 -1.6464
 8388TIP3   OH225127   1.525   2.755   5.256 -0.1407 -0.0611  0.5508
 8388TIP3    H125128   1.481   2.736   5.173  1.1852 -1.4667  0.1292
 8388TIP3    H225129   1.585   2.682   5.269  0.0569  0.3852  2.5115
 8389TIP3   OH225130   1.005   0.579   4.455 -0.2954  0.3546 -0.1082
 8389TIP3    H125131   1.086   0.556   4.409 -0.4546  0.3765 -0.4079
 8389TIP3    H225132   1.005   0.523   4.533 -0.7092 -0.7427 -0.8590
 8390TIP3   OH225133   2.193   4.496   0.477 -0.4093 -0.3983 -0.1133
 8390TIP3    H125134   2.209   4.415   0.526 -0.5070 -0.4652 -0.1908
 8390TIP3    H225135   2.239   4.564   0.526  0.1594 -0.5967 -0.3628
 8391TIP3   OH225136   1.423   6.451   0.212 -0.0176  0.0618  0.2271
 8391TIP3    H125137   1.503   6.503   0.210 -0.4513  0.7084 -0.3443
 8391TIP3    H225138   1.393   6.457   0.303 -0.1506  0.9365  0.1268
 8392TIP3   OH225139   2.514   0.223   3.139 -0.0151  0.1640  0.1436
 8392TIP3    H125140   2.490   0.314   3.121 -0.6564 -0.1459 -0.6121
 8392TIP3    H225141   2.430   0.178   3.149  0.3027 -0.3103  0.7016
 8393TIP3   OH225142   0.279   1.022   1.375 -0.3735  0.5404  0.5974
 8393TIP3    H125143   0.271   0.964   1.300 -0.3577 -1.0216  1.7515
 8393TIP3    H225144   0.191   1.058   1.388 -0.8427 -0.6757  0.9535
 8394TIP3   OH225145   7.118   4.938   0.487 -0.2057  0.6166  0.1481
 8394TIP3    H125146   7.162   5.007   0.438  1.9352 -0.5210  0.3235
 8394TIP3    H225147   7.124   4.966   0.578  0.4771  0.3302  0.1998
 8395TIP3   OH225148   3.897   4.864   0.083 -0.0060 -0.2413 -0.2139
 8395TIP3    H125149   3.909   4.955   0.109  0.4968 -0.4058  0.1389
 8395TIP3    H225150   3.884   4.817   0.166 -0.8137 -0.4133 -0.4246
 8396TIP3   OH225151   4.718   4.416   4.741  0.0917 -0.3078  0.2150
 8396TIP3    H125152   4.653   4.347   4.727  0.1593  0.0344 -2.1553
 8396TIP3    H225153   4.673   4.481   4.794 -1.3035 -0.3622 -0.8698
 8397TIP3   OH225154   1.578   3.603   1.608 -0.2989 -0.3999 -0.3845
 8397TIP3    H125155   1.663   3.645   1.618  0.6543 -2.7819  3.6327
 8397TIP3    H225156   1.582   3.560   1.523  2.1611  0.2670 -0.6713
 8398TIP3   OH225157   6.716   6.738   0.271  0.0145  0.1797  0.1597
 8398TIP3    H125158   6.778   6.685   0.222  0.0719  0.2760  0.1270
 8398TIP3    H225159   6.765   6.818   0.292  0.0797  0.0253  0.6082
 8399TIP3   OH225160   6.745   2.872   0.280 -0.3456  0.2203 -0.1855
 8399TIP3    H125161   6.725   2.807   0.213 -1.9151  0.1050  0.3455
 8399TIP3    H225162   6.733   2.825   0.363 -1.1829  1.0752  0.1999
 8400TIP3   OH225163   3.232   5.204   2.908  0.2026  0.3093 -0.3930
 8400TIP3    H125164   3.234   5.133   2.973 -1.1840  0.9513  0.4007
 8400TIP3    H225165   3.250   5.161   2.825  1.1240 -0.6818  0.2932
 8401TIP3   OH225166   1.153   0.542   5.834  0.4387 -0.1366  0.2277
 8401TIP3    H125167   1.174   0.450   5.816  0.3590 -0.0271 -0.4468
 8401TIP3    H225168   1.228   0.574   5.885  1.0697 -0.2409 -0.6072
 8402TIP3   OH225169   2.826   0.819   3.105 -0.5349 -0.1673  0.6413
 8402TIP3    H125170   2.788   0.732   3.092 -0.4574 -0.1070 -0.0362
 8402TIP3    H225171   2.825   0.859   3.018 -0.2081  0.3608  0.8737
 8403TIP3   OH225172   3.928   1.415   3.283 -0.6168  0.5342 -0.0415
 8403TIP3    H125173   3.870   1.374   3.219  1.2626 -0.3299 -1.2854
 8403TIP3    H225174   3.981   1.343   3.317  0.8392  1.4873 -0.1935
 8404TIP3   OH225175  -0.010   1.927   4.534  0.0111  0.4541  0.2021
 8404TIP3    H125176   0.028   1.839   4.530 -0.1365  0.3418  1.2321
 8404TIP3    H225177   0.056   1.980   4.579 -0.7030  0.4312  1.3077
 8405TIP3   OH225178   3.251   2.645   3.732  0.1833  0.1686  0.1797
 8405TIP3    H125179   3.218   2.601   3.654 -0.5539 -0.0800  0.6203
 8405TIP3    H225180   3.177   2.699   3.762  0.2715 -0.1559  1.0053
 8406TIP3   OH225181   1.082   2.706   1.081  0.9699  0.0006  0.3074
 8406TIP3    H125182   1.057   2.740   1.167  0.3769  0.6718 -0.1284
 8406TIP3    H225183   1.034   2.623   1.073  1.3711 -0.2855  0.8013
 8407TIP3   OH225184   3.657   5.471   3.187  0.1754 -0.0984  0.4190
 8407TIP3    H125185   3.574   5.515   3.202 -1.2419 -2.7870  1.1462
 8407TIP3    H225186   3.722   5.525   3.232 -1.5060  0.9841  1.6339
 8408TIP3   OH225187   2.262   2.157   1.354  0.1763  0.0659  0.4300
 8408TIP3    H125188   2.296   2.229   1.300 -2.5194  2.0695  1.1386
 8408TIP3    H225189   2.326   2.148   1.425 -0.1410  3.0529  1.2718
 8409TIP3   OH225190   5.966   6.604   2.500  0.1891 -0.5542  0.5602
 8409TIP3    H125191   6.047   6.554   2.511  1.7145  1.4032 -1.0036
 8409TIP3    H225192   5.990   6.675   2.442 -2.7798 -0.0497 -0.1904
 8410TIP3   OH225193   4.261   4.997   5.112 -0.1244 -0.5426 -0.3676
 8410TIP3    H125194   4.315   4.959   5.043 -0.2174  1.2914 -1.5108
 8410TIP3    H225195   4.305   5.079   5.135 -0.0990 -1.0877  1.7894
 8411TIP3   OH225196   0.607   4.500   3.276  0.3622 -0.0245 -0.6117
 8411TIP3    H125197   0.546   4.445   3.326  1.2740  0.5193  1.1706
 8411TIP3    H225198   0.635   4.444   3.204  1.3185 -2.0047  1.1656
 8412TIP3   OH225199   0.270   0.428   5.129 -0.2140 -0.2540 -0.2796
 8412TIP3    H125200   0.204   0.375   5.083 -0.9250  0.9336 -0.6509
 8412TIP3    H225201   0.267   0.513   5.086  0.5677  0.2550  0.6389
 8413TIP3   OH225202   2.830   2.391   2.679  0.1759  0.8842  0.0856
 8413TIP3    H125203   2.844   2.320   2.615 -0.5051  1.8388 -1.1821
 8413TIP3    H225204   2.885   2.367   2.753  2.3483  0.5657 -1.5087
 8414TIP3   OH225205   6.295   3.463   4.750  0.1708 -0.0929 -0.3260
 8414TIP3    H125206   6.299   3.472   4.845  1.4794  0.3314 -0.3981
 8414TIP3    H225207   6.306   3.369   4.734 -0.6104 -0.2389 -0.0505
 8415TIP3   OH225208   6.645   0.690   3.860  0.0150  0.0937  0.7333
 8415TIP3    H125209   6.651   0.769   3.806 -0.3257 -1.9795 -2.6179
 8415TIP3    H225210   6.707   0.629   3.820 -1.0564 -1.9634  2.0412
 8416TIP3   OH225211   0.918   2.290   3.313 -0.0950  0.0372  0.1079
 8416TIP3    H125212   0.871   2.256   3.236  0.6458  0.8184 -0.7206
 8416TIP3    H225213   0.849   2.322   3.371 -0.6740 -0.6863 -0.1725
 8417TIP3   OH225214   5.830   6.780   1.698 -0.1543 -0.2381  0.1780
 8417TIP3    H125215   5.805   6.711   1.636 -0.4199  0.9085 -1.0376
 8417TIP3    H225216   5.756   6.785   1.759 -0.1344 -1.0132  0.2765
 8418TIP3   OH225217   6.244   4.096   4.796 -0.0871 -0.5621 -0.6969
 8418TIP3    H125218   6.183   4.071   4.865  0.7451 -0.3477  0.1502
 8418TIP3    H225219   6.235   4.027   4.730 -1.2008 -0.5505 -0.5760
 8419TIP3   OH225220   0.303   0.056   4.033  0.0602  0.0052  0.1783
 8419TIP3    H125221   0.284  -0.036   4.052 -1.5670  0.2997  0.1404
 8419TIP3    H225222   0.391   0.069   4.066 -1.1538 -0.5185  4.1652
 8420TIP3   OH225223   6.442   0.601   1.042  0.2565 -0.0124 -0.0998
 8420TIP3    H125224   6.464   0.621   1.133 -0.3000 -1.2510  0.3295
 8420TIP3    H225225   6.504   0.653   0.990  0.7985  0.4565  0.9909
 8421TIP3   OH225226   5.464   5.311   1.629  0.3053 -0.2542  0.8767
 8421TIP3    H125227   5.463   5.237   1.690 -0.1450 -0.2317  0.9030
 8421TIP3    H225228   5.407   5.376   1.671  0.1512 -0.1631  0.5251
 8422TIP3   OH225229   0.188   5.793   1.177 -0.2798  0.0612 -0.4956
 8422TIP3    H125230   0.159   5.837   1.097  1.5380 -2.0874 -2.4744
 8422TIP3    H225231   0.283   5.800   1.176 -0.2082  0.0438  1.5747
 8423TIP3   OH225232   1.606   5.663   3.682  0.3199 -0.1119 -0.3235
 8423TIP3    H125233   1.576   5.647   3.593 -2.7868 -2.1555  0.9169
 8423TIP3    H225234   1.646   5.580   3.710 -1.7879 -0.7353  1.1489
 8424TIP3   OH225235   3.427   6.434   4.945 -0.2950 -0.4582 -0.2751
 8424TIP3    H125236   3.364   6.401   5.008 -0.2913  0.1751  0.0707
 8424TIP3    H225237   3.379   6.499   4.894 -0.4124 -1.2465 -1.2092
 8425TIP3   OH225238   4.255   2.996   5.240 -0.2863 -0.1460  0.5631
 8425TIP3    H125239   4.174   3.042   5.222  0.5913  1.2516  0.0289
 8425TIP3    H225240   4.261   2.929   5.171  0.2719  1.4745 -1.0311
 8426TIP3   OH225241   0.077   1.460   1.115 -0.4110 -0.2398  0.2856
 8426TIP3    H125242   0.082   1.424   1.026  3.4896 -0.5218  0.4755
 8426TIP3    H225243   0.027   1.394   1.164 -1.3630 -0.7934 -1.3260
 8427TIP3   OH225244   6.487   2.018   0.676 -0.0550 -0.1106 -0.1108
 8427TIP3    H125245   6.463   2.054   0.761 -1.9281  1.4995 -1.2366
 8427TIP3    H225246   6.572   1.975   0.691  0.5905  1.7374  2.1309
 8428TIP3   OH225247   5.699   4.690   5.512  0.0089  0.4633 -0.0089
 8428TIP3    H125248   5.621   4.649   5.551 -1.0682  1.3827 -1.1497
 8428TIP3    H225249   5.667   4.769   5.470  1.4085  0.3785 -1.3289
 8429TIP3   OH225250   4.873   6.242   1.486 -0.7941  0.3419  0.3306
 8429TIP3    H125251   4.883   6.147   1.494  0.5618  0.3599 -0.7600
 8429TIP3    H225252   4.931   6.278   1.553 -1.2580  0.4155  0.6995
 8430TIP3   OH225253   3.969   4.765   4.254  0.4156  0.2093 -0.2408
 8430TIP3    H125254   3.969   4.775   4.159  0.9808 -1.3553 -0.4220
 8430TIP3    H225255   4.025   4.836   4.285 -0.4653  1.2650 -1.0005
 8431TIP3   OH225256   6.633   2.346   5.063 -0.2512  0.1504  0.4142
 8431TIP3    H125257   6.644   2.425   5.116 -1.1902  0.5236  0.0654
 8431TIP3    H225258   6.558   2.365   5.006  0.8785 -0.1309 -1.2509
 8432TIP3   OH225259   6.493   1.261   1.962  0.1866 -0.2982 -0.0135
 8432TIP3    H125260   6.509   1.172   1.996 -0.0731 -0.1141  0.6109
 8432TIP3    H225261   6.400   1.262   1.941 -0.5484  0.7263  2.8305
 8433TIP3   OH225262   4.211   5.395   3.485  0.9287 -0.1413  0.0415
 8433TIP3    H125263   4.148   5.426   3.420  1.3297  1.0637  0.1898
 8433TIP3    H225264   4.296   5.409   3.444  1.2303  1.3798  1.0665
 8434TIP3   OH225265   5.220   1.789   4.738 -0.5464 -0.1057 -0.0579
 8434TIP3    H125266   5.279   1.723   4.775 -1.0425 -0.6380 -0.2101
 8434TIP3    H225267   5.136   1.744   4.730 -1.0391  0.7190  0.3817
 8435TIP3   OH225268   4.632   5.492   5.851  0.3114 -0.3556  0.2427
 8435TIP3    H125269   4.568   5.507   5.781  1.0031 -0.2137 -0.3767
 8435TIP3    H225270   4.652   5.399   5.845  1.4367 -0.0764 -0.7126
 8436TIP3   OH225271   6.443   3.729   0.792 -0.1026 -0.3252 -0.0003
 8436TIP3    H125272   6.412   3.754   0.705  1.0724 -1.0011 -0.6504
 8436TIP3    H225273   6.379   3.766   0.852 -1.1711 -0.1929 -1.1728
 8437TIP3   OH225274   1.107   0.631   2.977 -0.0599  0.5949  0.9518
 8437TIP3    H125275   1.104   0.651   2.883  3.5230 -2.8261 -0.1864
 8437TIP3    H225276   1.037   0.567   2.990  1.6460 -1.6984 -0.4180
 8438TIP3   OH225277   2.701   1.000   3.656  0.6479  0.5611 -0.9062
 8438TIP3    H125278   2.652   1.065   3.707 -3.4785 -2.8932  0.0768
 8438TIP3    H225279   2.656   0.996   3.572  1.4944 -0.3370 -1.3332
 8439TIP3   OH225280   7.043   3.660   5.382 -0.4657  0.2662  0.3282
 8439TIP3    H125281   7.035   3.734   5.443  1.6690  0.1967  0.7772
 8439TIP3    H225282   7.130   3.670   5.344 -1.3580 -0.2589 -2.0201
 8440TIP3   OH225283   2.809   0.943   2.852  0.4446  0.0588  0.2338
 8440TIP3    H125284   2.875   0.989   2.800  0.7375  0.6475  1.1025
 8440TIP3    H225285   2.733   1.002   2.853  0.4087  0.0100  0.3987
 8441TIP3   OH225286   4.846   0.645   4.940  0.5433  0.0733  0.0665
 8441TIP3    H125287   4.766   0.603   4.970 -0.1973 -0.0402 -1.9109
 8441TIP3    H225288   4.893   0.576   4.892  1.1944  0.4833  0.0973
 8442TIP3   OH225289   5.436   0.546   1.548 -0.3816 -0.1281 -0.3098
 8442TIP3    H125290   5.345   0.556   1.522 -0.9603  1.5837  2.0360
 8442TIP3    H225291   5.432   0.502   1.633  1.0786 -1.1299 -0.7133
 8443TIP3   OH225292   5.217   5.627   2.444 -0.3169 -0.4604  0.0903
 8443TIP3    H125293   5.185   5.717   2.443 -2.2548 -1.1002  0.4436
 8443TIP3    H225294   5.170   5.584   2.373  0.2314 -1.3080  0.2269
 8444TIP3   OH225295   2.014   1.015   5.366 -0.7330 -0.1266  0.1995
 8444TIP3    H125296   2.107   1.030   5.384 -1.0469 -1.4661  3.8026
 8444TIP3    H225297   2.009   0.921   5.345 -1.1739  0.1232 -0.8245
 8445TIP3   OH225298   3.499   5.943   3.453 -0.3584  0.4795  0.4316
 8445TIP3    H125299   3.416   5.976   3.488 -0.3889  0.4782  0.3627
 8445TIP3    H225300   3.501   5.977   3.363 -0.5030  0.0951  0.2816
 8446TIP3   OH225301   1.033   3.670   5.357  0.3634 -0.3377 -0.4362
 8446TIP3    H125302   1.085   3.738   5.314  1.1658 -0.7892 -0.2005
 8446TIP3    H225303   1.082   3.589   5.342 -0.1808 -0.7478 -0.0537
 8447TIP3   OH225304   4.900   3.228   4.522  0.0414  0.5472 -0.7218
 8447TIP3    H125305   4.821   3.221   4.576  0.0346 -1.1141 -0.8728
 8447TIP3    H225306   4.866   3.231   4.432  0.1146 -1.7591 -0.8934
 8448TIP3   OH225307   3.298   4.821   0.321 -0.4561 -0.1959 -0.1223
 8448TIP3    H125308   3.392   4.836   0.328 -0.4844  0.3379 -0.7638
 8448TIP3    H225309   3.284   4.736   0.363 -0.0172  0.7380  2.0650
 8449TIP3   OH225310   4.563  -0.004   5.595  0.5297 -0.4694  0.3218
 8449TIP3    H125311   4.500   0.067   5.583  0.1146 -0.7018  1.0470
 8449TIP3    H225312   4.630   0.033   5.653  1.2522 -0.1137 -0.7236
 8450TIP3   OH225313   4.969   5.828   0.548  0.5700  0.8114  0.9844
 8450TIP3    H125314   4.963   5.780   0.631 -0.8876  0.3769  0.6584
 8450TIP3    H225315   4.880   5.861   0.533  1.0034  1.5772 -0.0014
 8451TIP3   OH225316   1.795   0.260   1.845 -0.3340  0.1128 -0.3452
 8451TIP3    H125317   1.725   0.307   1.801 -0.3930 -0.4739 -0.8954
 8451TIP3    H225318   1.871   0.318   1.837 -1.3079  2.0471  2.6591
 8452TIP3   OH225319   5.004   3.410   0.925  0.9870 -0.0906  0.0489
 8452TIP3    H125320   4.964   3.325   0.944 -2.6775  1.6871  1.1715
 8452TIP3    H225321   5.005   3.415   0.829  0.2081 -0.9405 -0.0180
 8453TIP3   OH225322   4.207   5.130   2.362  0.1369 -0.2993  0.1755
 8453TIP3    H125323   4.236   5.136   2.271  0.2901  1.6892  0.3249
 8453TIP3    H225324   4.145   5.201   2.373 -2.1883 -2.3035  0.8729
 8454TIP3   OH225325   2.021   1.032   0.203 -0.2786  0.1093 -0.1354
 8454TIP3    H125326   1.935   0.993   0.218  0.4516 -2.0925 -1.2922
 8454TIP3    H225327   2.027   1.044   0.108  0.8757 -0.2302 -0.1256
 8455TIP3   OH225328   5.034   4.960   1.806  0.4444  0.6677 -1.1667
 8455TIP3    H125329   4.988   4.924   1.730  0.5208 -0.6304 -0.6361
 8455TIP3    H225330   5.031   5.055   1.794  0.5983  0.4926 -2.8686
 8456TIP3   OH225331   6.239   2.590   2.229  0.0881  0.3286 -0.4505
 8456TIP3    H125332   6.179   2.657   2.195 -0.6691 -0.5305 -0.8398
 8456TIP3    H225333   6.185   2.538   2.289  1.2763  1.5175  1.7793
 8457TIP3   OH225334   2.237   1.200   4.724  0.2528  0.3075 -0.4073
 8457TIP3    H125335   2.180   1.201   4.801  0.8947  0.4418  0.0731
 8457TIP3    H225336   2.251   1.107   4.706  1.5360  0.2531  0.7340
 8458TIP3   OH225337   3.549   3.511   3.617 -0.0221  0.3802 -0.8399
 8458TIP3    H125338   3.634   3.510   3.661 -0.3045 -0.2721 -0.2759
 8458TIP3    H225339   3.506   3.590   3.649  0.5737  1.0004 -1.5440
 8459TIP3   OH225340   3.717   3.909   4.053 -0.1214  0.1947 -0.2903
 8459TIP3    H125341   3.727   3.975   3.985  1.1249  0.3682  0.0477
 8459TIP3    H225342   3.721   3.958   4.135 -0.0187 -0.2045 -0.0544
 8460TIP3   OH225343   1.181   6.563   4.462 -0.4549 -0.2549 -0.1995
 8460TIP3    H125344   1.086   6.554   4.458 -0.6592  1.6356 -0.5312
 8460TIP3    H225345   1.208   6.510   4.537 -1.8025 -0.5622  0.0838
 8461TIP3   OH225346   2.346   0.414   2.971 -0.0337  0.5319  0.1201
 8461TIP3    H125347   2.316   0.505   2.969  0.6935  0.7856  0.5670
 8461TIP3    H225348   2.266   0.363   2.962 -0.3007  1.2192 -2.1085
 8462TIP3   OH225349   5.570   0.149   4.473  0.3999  0.1907 -0.4403
 8462TIP3    H125350   5.534   0.234   4.500 -0.8249  0.1587 -1.8212
 8462TIP3    H225351   5.591   0.104   4.555 -0.1321  1.3328  0.3478
 8463TIP3   OH225352   2.958   5.081   5.587 -0.3284  0.9271 -0.2236
 8463TIP3    H125353   3.045   5.098   5.623  0.5447 -1.6404 -0.8750
 8463TIP3    H225354   2.903   5.151   5.622  1.7694  2.0628  1.0117
 8464TIP3   OH225355   5.006   4.352   0.613  1.1160 -0.0059  0.1200
 8464TIP3    H125356   5.039   4.440   0.599  1.9288 -0.1053  1.2752
 8464TIP3    H225357   5.015   4.309   0.528  1.1063  0.8962 -0.3394
 8465TIP3   OH225358   3.490   2.414   5.340  0.3376 -0.2806 -0.0553
 8465TIP3    H125359   3.456   2.325   5.328  0.3018 -0.2352 -0.2960
 8465TIP3    H225360   3.574   2.414   5.295  0.5390 -0.3188  0.3247
 8466TIP3   OH225361   1.414   3.503   2.544  0.2011 -0.2503  0.5924
 8466TIP3    H125362   1.324   3.471   2.531  0.2247 -0.5095  1.0481
 8466TIP3    H225363   1.469   3.427   2.522  0.3852  0.3241 -1.1145
 8467TIP3   OH225364   4.641   0.469   2.395  0.8541  0.2151  0.2231
 8467TIP3    H125365   4.718   0.416   2.416  2.0087  2.7276  3.0309
 8467TIP3    H225366   4.634   0.465   2.300  1.3389 -4.1149  0.1706
 8468TIP3   OH225367   4.148   5.023   1.460 -0.2921 -0.1389 -0.0921
 8468TIP3    H125368   4.199   5.100   1.433 -0.8260  0.5354  0.7731
 8468TIP3    H225369   4.095   5.001   1.383 -0.9344  1.0387 -0.0088
 8469TIP3   OH225370   3.687   3.272   1.766  0.3631  0.5560 -0.6581
 8469TIP3    H125371   3.715   3.245   1.854 -0.2363  1.0309 -0.3157
 8469TIP3    H225372   3.693   3.193   1.713 -0.1203  0.0585  0.0215
 8470TIP3   OH225373   2.430   4.896   3.270  0.6951  0.1697  0.2700
 8470TIP3    H125374   2.391   4.961   3.212 -0.8411 -0.3774  0.6432
 8470TIP3    H225375   2.355   4.851   3.309  1.7231 -1.4710  0.4241
 8471TIP3   OH225376   6.949   1.874   2.111  0.1006 -0.6289  0.3327
 8471TIP3    H125377   6.999   1.956   2.108 -1.4261  0.3330 -0.4925
 8471TIP3    H225378   7.009   1.810   2.149  0.8232  1.2542  2.6078
 8472TIP3   OH225379   2.150   3.187   5.378  0.2291 -0.0528  0.0051
 8472TIP3    H125380   2.158   3.272   5.421  2.4882 -0.7546  1.1458
 8472TIP3    H225381   2.232   3.142   5.399 -0.4484 -2.1166 -1.4550
 8473TIP3   OH225382   6.496   2.737   0.050  0.0800  0.4094 -0.0692
 8473TIP3    H125383   6.591   2.729   0.043  0.1375 -0.4169  1.3444
 8473TIP3    H225384   6.462   2.681  -0.019  0.6102  0.5784 -0.4775
 8474TIP3   OH225385   5.869   6.253   0.092  0.1998 -0.3282 -0.1655
 8474TIP3    H125386   5.823   6.289   0.016  0.6310  1.2058  0.2610
 8474TIP3    H225387   5.935   6.319   0.113 -0.4345 -0.3131  2.0210
 8475TIP3   OH225388   2.522   4.013   2.078 -0.2829 -0.1185 -0.8196
 8475TIP3    H125389   2.528   4.059   2.161 -1.3560 -1.7711  0.2267
 8475TIP3    H225390   2.436   3.970   2.080  0.0829 -1.0206 -2.3330
 8476TIP3   OH225391   6.222   2.278   0.859  0.5580 -0.1973 -0.3305
 8476TIP3    H125392   6.304   2.231   0.873 -0.5858 -1.7627  1.7067
 8476TIP3    H225393   6.165   2.215   0.814 -1.3254 -1.3992  3.2968
 8477TIP3   OH225394   6.610   3.873   5.498  0.0954 -0.1800  0.4836
 8477TIP3    H125395   6.691   3.919   5.475 -1.6755  3.5534  0.9377
 8477TIP3    H225396   6.583   3.830   5.417  1.0895  0.9468 -0.4877
 8478TIP3   OH225397   5.897   0.577   1.256 -0.4218 -0.4971 -0.4167
 8478TIP3    H125398   5.802   0.568   1.250 -0.8821  2.7538  0.0174
 8478TIP3    H225399   5.918   0.650   1.197  1.4936  0.2250  1.0507
 8479TIP3   OH225400   0.067   4.314   0.586  0.0686 -0.1430  0.2940
 8479TIP3    H125401   0.012   4.389   0.609  0.9401  0.1227  1.6019
 8479TIP3    H225402   0.153   4.351   0.569 -0.1213 -0.5536 -1.8117
 8480TIP3   OH225403   1.435   2.407   5.355  0.3768 -0.0371  0.0418
 8480TIP3    H125404   1.486   2.442   5.428  0.8601  0.7023 -0.6440
 8480TIP3    H225405   1.458   2.314   5.352  0.2633 -0.1048  0.8933
 8481TIP3   OH225406   0.641   0.552   5.175  0.0813  0.5289 -0.5518
 8481TIP3    H125407   0.604   0.640   5.187 -0.8528  0.1262 -0.4405
 8481TIP3    H225408   0.578   0.507   5.120  0.0855 -0.3727  0.1610
 8482TIP3   OH225409   6.897   2.917   2.734 -0.0248 -0.1958  0.4057
 8482TIP3    H125410   6.946   2.894   2.812 -0.0288 -1.3356  0.0972
 8482TIP3    H225411   6.808   2.885   2.751  0.6219 -3.2274 -1.1763
 8483TIP3   OH225412   4.875   5.469   4.569  0.6838 -0.0909  0.4707
 8483TIP3    H125413   4.805   5.405   4.563  0.0730  0.5736  0.4204
 8483TIP3    H225414   4.831   5.554   4.563  1.3264  0.3710  1.9259
 8484TIP3   OH225415   5.386   2.372   5.302 -0.0905 -0.4806  0.7468
 8484TIP3    H125416   5.418   2.282   5.304 -1.4666 -1.0853 -1.4253
 8484TIP3    H225417   5.447   2.419   5.246  0.1286 -0.2453  1.1720
 8485TIP3   OH225418   6.191   3.397   5.395  0.5283 -0.2691 -0.3209
 8485TIP3    H125419   6.176   3.460   5.465 -0.3724 -0.4008 -0.3778
 8485TIP3    H225420   6.112   3.343   5.393  0.2028  0.1985 -1.9139
 8486TIP3   OH225421   2.103   1.990   3.535 -0.4080  0.6111 -0.3818
 8486TIP3    H125422   2.059   1.932   3.598  0.0032  0.1629 -0.5018
 8486TIP3    H225423   2.032   2.027   3.483 -0.7036  0.4965 -0.0638
 8487TIP3   OH225424   0.009   1.500  -0.009  0.2982  0.4556 -0.6341
 8487TIP3    H125425  -0.039   1.580   0.012 -1.3257 -1.0739  2.0932
 8487TIP3    H225426   0.092   1.508   0.038 -0.7680 -0.2857  1.5051
 8488TIP3   OH225427   2.380   1.719   1.591 -0.1371  0.2454  0.4083
 8488TIP3    H125428   2.468   1.756   1.602  0.3253 -0.7783  0.2680
 8488TIP3    H225429   2.363   1.725   1.497  0.5427 -1.1894  0.1709
 8489TIP3   OH225430   2.959   3.821   4.699 -0.9491 -0.4574 -0.1682
 8489TIP3    H125431   2.923   3.835   4.612  1.8010  0.4571 -1.2478
 8489TIP3    H225432   2.995   3.906   4.725  0.7318 -1.3539  0.6290
 8490TIP3   OH225433   7.142   2.252   0.310 -0.5302 -0.3370  0.4975
 8490TIP3    H125434   7.111   2.193   0.242  0.2037 -0.6770  0.4467
 8490TIP3    H225435   7.212   2.303   0.268  1.2826 -1.8751  1.4595
 8491TIP3   OH225436   3.156   3.486   1.516 -0.1660  0.1129  0.0918
 8491TIP3    H125437   3.171   3.406   1.465  1.3316 -0.8571  1.8994
 8491TIP3    H225438   3.068   3.474   1.553  0.4640 -1.3069  1.2531
 8492TIP3   OH225439   0.714   6.528   4.717  0.1244  0.0507  0.7589
 8492TIP3    H125440   0.705   6.448   4.769  0.2270  1.3906  2.9608
 8492TIP3    H225441   0.795   6.515   4.666  0.2469 -1.1508  1.2422
 8493TIP3   OH225442   0.555   6.156   3.329  0.1222 -0.3349 -0.3837
 8493TIP3    H125443   0.500   6.092   3.283 -1.7654  1.5749 -0.9422
 8493TIP3    H225444   0.507   6.238   3.322  0.7411  0.5114  3.3024
 8494TIP3   OH225445   6.744   0.163   2.475 -0.0502 -0.3051  0.0049
 8494TIP3    H125446   6.740   0.250   2.436 -1.1348 -0.3690 -0.0564
 8494TIP3    H225447   6.652   0.137   2.486  0.2471 -0.9907  1.0349
 8495TIP3   OH225448   6.933   3.234   2.147 -0.4762  0.3204  0.7143
 8495TIP3    H125449   6.842   3.258   2.166 -0.2182  0.6307  1.5740
 8495TIP3    H225450   6.937   3.234   2.051 -1.5132 -0.1995  0.6535
 8496TIP3   OH225451   3.504   1.616   1.034 -0.0451 -0.0010  0.7293
 8496TIP3    H125452   3.499   1.524   1.007  1.6994 -0.3770  1.5186
 8496TIP3    H225453   3.575   1.652   0.980  0.3105  0.4682  1.5047
 8497TIP3   OH225454   1.184   6.136   3.049  0.2517 -0.2618 -0.7276
 8497TIP3    H125455   1.163   6.200   2.981  0.1934  1.6561  1.0364
 8497TIP3    H225456   1.279   6.143   3.060  0.0371  0.8467  0.6844
 8498TIP3   OH225457   2.187   3.658   5.649 -0.1889 -0.5452  0.3693
 8498TIP3    H125458   2.108   3.712   5.648 -0.3205 -0.7451 -0.3564
 8498TIP3    H225459   2.257   3.718   5.622 -0.3615 -0.7653 -0.6012
 8499TIP3   OH225460   4.792   2.184   1.490 -0.8600 -0.1731 -0.3543
 8499TIP3    H125461   4.741   2.184   1.410 -0.2099 -1.0484 -0.7891
 8499TIP3    H225462   4.855   2.113   1.478 -0.1802  0.2536  0.5629
 8500TIP3   OH225463   6.853   6.554   0.125  0.0108  0.0504  0.0705
 8500TIP3    H125464   6.813   6.467   0.128  1.0562 -0.5112 -1.1567
 8500TIP3    H225465   6.945   6.538   0.148  0.8478  0.3687 -2.7089
 8501TIP3   OH225466   2.475   2.447   1.557 -0.5892 -0.0261  0.3763
 8501TIP3    H125467   2.455   2.492   1.475 -1.7510  0.6087  0.9730
 8501TIP3    H225468   2.408   2.480   1.618  2.6083  2.7518  2.7691
 8502TIP3   OH225469   5.908   2.642   0.136  0.3255  0.0226 -0.3877
 8502TIP3    H125470   5.988   2.603   0.101 -1.3402 -0.6369 -3.8460
 8502TIP3    H225471   5.853   2.567   0.160 -0.2049  0.4184 -0.3497
 8503TIP3   OH225472   6.858   3.580   3.496  0.3738 -0.6029 -0.5075
 8503TIP3    H125473   6.797   3.510   3.473 -0.1887 -0.0424 -0.7516
 8503TIP3    H225474   6.807   3.661   3.487  0.1864 -0.2803  2.3866
 8504TIP3   OH225475   2.401   0.185   5.712  0.1488 -0.0821  0.3169
 8504TIP3    H125476   2.385   0.151   5.625  2.0927 -0.0052 -0.1278
 8504TIP3    H225477   2.349   0.266   5.716  0.2636  0.0714 -0.8856
 8505TIP3   OH225478   2.707   1.867   4.516 -0.2390  0.4013 -0.2897
 8505TIP3    H125479   2.672   1.947   4.475 -1.4463  0.0459  0.0198
 8505TIP3    H225480   2.732   1.895   4.604  0.1189  0.6174 -0.4553
 8506TIP3   OH225481   3.506   4.984   1.841 -0.1090 -0.1217 -0.2159
 8506TIP3    H125482   3.527   5.053   1.903 -2.2467  0.7808 -0.4357
 8506TIP3    H225483   3.478   4.910   1.896  0.6900 -0.3229 -0.0514
 8507TIP3   OH225484   3.063   2.676   4.792  0.3143 -0.0721 -0.0744
 8507TIP3    H125485   3.130   2.664   4.859 -1.6413 -1.0111  1.8251
 8507TIP3    H225486   3.065   2.594   4.742  1.0947  0.2313 -0.5625
 8508TIP3   OH225487   0.237   4.048   4.781 -0.6788  0.3797 -0.1810
 8508TIP3    H125488   0.253   4.130   4.828  1.5331 -0.6727  1.0341
 8508TIP3    H225489   0.277   4.061   4.695 -1.4306  0.9864 -0.4483
 8509TIP3   OH225490   0.999   6.532   2.163  0.7860  0.1890 -0.2593
 8509TIP3    H125491   0.962   6.524   2.251 -0.6152  1.3100 -0.7188
 8509TIP3    H225492   1.003   6.626   2.147  1.3230  0.0058 -1.2857
 8510TIP3   OH225493   2.081   0.757   2.256 -0.2028 -0.6555 -0.6751
 8510TIP3    H125494   2.043   0.810   2.326 -0.3712 -1.9261  0.2461
 8510TIP3    H225495   2.166   0.797   2.239 -0.6098  0.3058 -0.4856
 8511TIP3   OH225496   5.805   5.391   3.135 -0.3024  0.1478 -0.1695
 8511TIP3    H125497   5.755   5.472   3.131 -1.8272 -0.7583 -0.4793
 8511TIP3    H225498   5.740   5.324   3.157  1.3123 -0.6687  2.6314
 8512TIP3   OH225499   3.705   5.024   3.888  0.1579  0.0920 -0.0360
 8512TIP3    H125500   3.738   5.105   3.928 -0.9836  0.7767 -0.4230
 8512TIP3    H225501   3.687   5.048   3.797  0.0351 -0.6656 -0.2184
 8513TIP3   OH225502   6.382   3.357   5.201 -0.2561 -0.8054 -0.1275
 8513TIP3    H125503   6.314   3.341   5.267 -0.5722 -1.4401 -0.5947
 8513TIP3    H225504   6.456   3.392   5.251 -1.2860  0.9715  0.2509
 8514TIP3   OH225505   2.999   5.862   0.519  0.2243  0.5409  0.7451
 8514TIP3    H125506   3.090   5.859   0.489  0.3566  1.2002  1.0529
 8514TIP3    H225507   2.969   5.771   0.516  0.4469  0.4812 -0.7237
 8515TIP3   OH225508   1.064   6.171   1.710  0.2166  0.1927 -0.0008
 8515TIP3    H125509   1.028   6.215   1.787  1.2656  1.4086 -0.1546
 8515TIP3    H225510   1.038   6.227   1.636 -0.5492 -0.8150 -0.5184
 8516TIP3   OH225511   7.199   6.089   4.727 -0.3306  0.0496 -0.5246
 8516TIP3    H125512   7.130   6.128   4.780 -0.8020 -1.9495  0.3959
 8516TIP3    H225513   7.265   6.159   4.718  0.8625 -0.0534  4.5405
 8517TIP3   OH225514   2.900   6.753   3.539  0.0057  0.2137 -0.1243
 8517TIP3    H125515   2.913   6.696   3.464 -1.5517 -0.8376  0.3343
 8517TIP3    H225516   2.842   6.702   3.597 -2.1435  2.5353 -0.0598
 8518TIP3   OH225517   3.297   3.240   1.086  0.0939 -0.6274 -0.4367
 8518TIP3    H125518   3.229   3.227   1.153 -0.2914 -1.1041 -0.9143
 8518TIP3    H225519   3.340   3.154   1.079  0.9241 -0.2640  0.0458
 8519TIP3   OH225520   0.633   2.484   0.681 -0.0635  0.3882  0.0267
 8519TIP3    H125521   0.696   2.427   0.724 -0.2841  0.5500  0.5828
 8519TIP3    H225522   0.658   2.484   0.589 -0.6278 -1.3466 -0.1526
 8520TIP3   OH225523   1.902   3.070   1.909 -0.2822 -0.3596 -0.4402
 8520TIP3    H125524   1.878   3.086   1.818 -3.3535 -0.5162  0.2212
 8520TIP3    H225525   1.934   2.980   1.910 -1.0971 -0.6728 -1.2542
 8521TIP3   OH225526   1.635   4.665   1.672  0.2062 -0.3724  0.0188
 8521TIP3    H125527   1.584   4.618   1.607  0.2388  0.2917 -0.5040
 8521TIP3    H225528   1.624   4.615   1.753  0.1213 -1.1807 -0.4820
 8522TIP3   OH225529   0.052   4.210   2.657 -0.1034 -0.6870 -0.1786
 8522TIP3    H125530   0.074   4.120   2.681  0.3774 -0.2899  0.8761
 8522TIP3    H225531  -0.012   4.200   2.586  0.6628 -1.8507 -0.7358
 8523TIP3   OH225532   5.893   3.488   0.288 -1.2191 -0.2187  0.0230
 8523TIP3    H125533   5.811   3.454   0.252 -0.6143 -2.6057  0.6782
 8523TIP3    H225534   5.883   3.480   0.383 -0.4524  0.0301  0.1314
 8524TIP3   OH225535   5.589   6.508   4.346  0.2375  0.0252  0.9454
 8524TIP3    H125536   5.523   6.494   4.414 -0.5452  1.3232  0.4835
 8524TIP3    H225537   5.662   6.550   4.392  0.6260 -1.1161  1.3942
 8525TIP3   OH225538   3.580   1.517   3.644  0.5086 -0.4563 -0.7396
 8525TIP3    H125539   3.669   1.483   3.641  0.5642 -0.5462  0.9349
 8525TIP3    H225540   3.530   1.461   3.585  1.3788 -0.9576 -1.0127
 8526TIP3   OH225541   2.381   4.030   4.208  0.2531 -0.5546 -0.2373
 8526TIP3    H125542   2.315   3.961   4.205  2.4428 -2.7684 -1.6397
 8526TIP3    H225543   2.448   3.996   4.268  0.4516  1.3591  0.7031
 8527TIP3   OH225544   0.638   6.390   5.561  0.6579  0.3005  0.3927
 8527TIP3    H125545   0.627   6.453   5.489 -0.0116  0.2179  0.4146
 8527TIP3    H225546   0.550   6.358   5.578  1.0459 -0.9074  0.1632
 8528TIP3   OH225547   0.929   4.218   3.867  0.5716  0.7119  0.2171
 8528TIP3    H125548   0.903   4.178   3.784 -0.1219 -0.4697  0.9939
 8528TIP3    H225549   1.012   4.262   3.847  0.4568  0.3721 -1.0733
 8529TIP3   OH225550   0.499   3.593   3.401 -0.4959 -0.5824  0.2488
 8529TIP3    H125551   0.476   3.677   3.360 -1.0188 -0.9298 -0.1903
 8529TIP3    H225552   0.494   3.610   3.495 -1.1886 -0.2792  0.1618
 8530TIP3   OH225553   4.850   1.581   0.549 -0.1667 -0.4294 -0.4258
 8530TIP3    H125554   4.765   1.591   0.591  0.3554 -1.5323  0.9403
 8530TIP3    H225555   4.879   1.493   0.573  1.0694 -0.3275 -1.4308
 8531TIP3   OH225556   5.909   0.142   0.926 -0.4199  0.6945 -0.2391
 8531TIP3    H125557   5.838   0.205   0.941 -1.2300 -0.5465  1.4827
 8531TIP3    H225558   5.869   0.074   0.872  0.2615  1.2742 -1.5224
 8532TIP3   OH225559   0.852   2.966   2.791 -0.3827  0.9402  0.0153
 8532TIP3    H125560   0.934   2.918   2.779 -0.5665  0.7121 -0.3379
 8532TIP3    H225561   0.849   2.984   2.885 -1.4985 -1.8640  0.6037
 8533TIP3   OH225562   4.195   4.441   4.924  0.2115 -0.1211 -0.2265
 8533TIP3    H125563   4.142   4.379   4.875  0.9172 -0.5351 -0.4731
 8533TIP3    H225564   4.135   4.514   4.942  0.1803  0.4685 -2.4907
 8534TIP3   OH225565   5.041   2.628   0.909  0.9911  0.1644 -0.0812
 8534TIP3    H125566   5.001   2.602   0.992  1.3605 -0.1380  0.0044
 8534TIP3    H225567   5.032   2.551   0.853  2.7976 -0.4583  0.4246
 8535TIP3   OH225568   5.707   4.851   4.404  0.1427  0.1494 -0.5799
 8535TIP3    H125569   5.723   4.762   4.370 -1.6219 -0.8100  0.8995
 8535TIP3    H225570   5.689   4.838   4.497  0.1475  2.1290 -0.2647
 8536TIP3   OH225571   5.173   1.845   4.321 -0.4773  0.6935  0.7060
 8536TIP3    H125572   5.252   1.879   4.363  0.0749 -0.5054  0.6892
 8536TIP3    H225573   5.191   1.850   4.227 -0.1004 -0.2496  0.7129
 8537TIP3   OH225574   2.202   3.561   2.140  0.1787  0.5988  0.2497
 8537TIP3    H125575   2.215   3.590   2.230  2.4464 -1.8938  0.8715
 8537TIP3    H225576   2.118   3.515   2.141  0.8509 -0.6911  1.5472
 8538TIP3   OH225577   5.184   1.353   1.295 -0.0165  0.1185  0.8337
 8538TIP3    H125578   5.172   1.422   1.361 -0.9758 -1.5206  2.4755
 8538TIP3    H225579   5.101   1.306   1.293  0.3351 -0.5100 -0.8518
 8539TIP3   OH225580   4.508   0.392   2.146  0.4156  0.3445  0.4581
 8539TIP3    H125581   4.436   0.381   2.208  0.9717  0.1123  1.0736
 8539TIP3    H225582   4.536   0.302   2.126 -0.0581  0.3906 -0.5019
 8540TIP3   OH225583   6.760   1.634   5.708 -0.0594  0.0412 -0.2172
 8540TIP3    H125584   6.810   1.569   5.659 -0.3160  0.4418 -1.0251
 8540TIP3    H225585   6.790   1.624   5.798  1.6048  0.3848 -0.7002
 8541TIP3   OH225586   2.657   2.381   0.641  0.0332  0.1234  0.0247
 8541TIP3    H125587   2.685   2.447   0.704  0.9414 -0.4245  0.2171
 8541TIP3    H225588   2.623   2.309   0.694 -0.7042  0.3198 -0.1734
 8542TIP3   OH225589   0.396   1.507   2.490 -0.0223  0.4250  0.0151
 8542TIP3    H125590   0.367   1.596   2.512 -2.2639 -0.3781  0.5404
 8542TIP3    H225591   0.477   1.521   2.440 -0.1588  2.7398  0.2943
 8543TIP3   OH225592   1.923   1.954   1.109  0.2576  0.1428 -0.4558
 8543TIP3    H125593   1.913   1.921   1.198  0.0653 -0.6208 -0.7552
 8543TIP3    H225594   2.017   1.966   1.098  0.5151 -2.0885 -0.9665
 8544TIP3   OH225595   5.459   5.476   5.172 -0.3976 -0.1115  0.0608
 8544TIP3    H125596   5.536   5.525   5.145 -0.8081  0.1307 -0.6937
 8544TIP3    H225597   5.418   5.530   5.239  0.5914 -0.6845  1.1618
 8545TIP3   OH225598   1.797   3.630   2.025  0.6880 -0.1188  0.4590
 8545TIP3    H125599   1.832   3.557   2.076  0.5190  0.7449  1.8696
 8545TIP3    H225600   1.752   3.685   2.090 -2.0915 -0.4569 -1.0253
 8546TIP3   OH225601   2.485   5.146   0.236 -0.2141  0.4716  0.0454
 8546TIP3    H125602   2.543   5.212   0.199  2.4819 -1.2946  0.8406
 8546TIP3    H225603   2.521   5.063   0.206 -0.7535 -0.8222  2.7079
 8547TIP3   OH225604   3.197   3.774   1.385  0.1094 -0.2983  0.7959
 8547TIP3    H125605   3.214   3.853   1.436 -0.0358  1.7141 -2.0138
 8547TIP3    H225606   3.121   3.735   1.427 -0.7674  1.9272  1.4386
 8548TIP3   OH225607   0.936   3.691   4.850 -0.1183 -0.2071 -0.1054
 8548TIP3    H125608   1.018   3.739   4.856  0.2445 -0.7767 -0.3955
 8548TIP3    H225609   0.960   3.606   4.812 -1.3051  0.7783 -3.3653
 8549TIP3   OH225610   3.249   2.409   4.866 -0.4473 -0.4442 -0.6211
 8549TIP3    H125611   3.314   2.408   4.796 -1.7130  1.7955 -1.9586
 8549TIP3    H225612   3.292   2.366   4.940  1.4856 -1.5502 -2.2837
 8550TIP3   OH225613   5.555   4.181   0.590 -0.3533  0.8381 -0.0667
 8550TIP3    H125614   5.572   4.111   0.654  0.0073  1.5037  0.5703
 8550TIP3    H225615   5.631   4.238   0.596 -0.6424  1.2847 -0.5980
 8551TIP3   OH225616   0.497   4.780   5.520  0.2002 -0.2273  0.0169
 8551TIP3    H125617   0.459   4.730   5.448 -0.3856 -1.4375  1.1326
 8551TIP3    H225618   0.592   4.768   5.510  0.3141  1.6345 -1.9390
 8552TIP3   OH225619   4.679   1.121   1.164 -0.4910  0.3532 -0.4746
 8552TIP3    H125620   4.591   1.118   1.202 -1.1814  0.9247 -1.9518
 8552TIP3    H225621   4.665   1.148   1.073  1.1975  0.2066 -0.8093
 8553TIP3   OH225622   1.821   0.989   3.231 -0.1706  0.3451 -0.0447
 8553TIP3    H125623   1.843   1.036   3.312  0.9416  0.5938 -0.4783
 8553TIP3    H225624   1.731   1.014   3.212  0.3570  2.2192 -0.2042
 8554TIP3   OH225625   0.769   1.026   4.106  0.3418  0.6067  0.3564
 8554TIP3    H125626   0.829   0.969   4.153  0.8036  0.0248 -0.8887
 8554TIP3    H225627   0.776   1.111   4.150 -1.0477 -0.4668  2.8278
 8555TIP3   OH225628   1.643   3.605   0.376  0.2565 -0.5597  0.2055
 8555TIP3    H125629   1.548   3.595   0.368  0.1003  0.9449 -0.0693
 8555TIP3    H225630   1.659   3.699   0.364  1.7349 -0.7140  0.7250
 8556TIP3   OH225631   5.272   6.024   1.210 -0.4494  0.0859  0.4322
 8556TIP3    H125632   5.316   6.088   1.266 -0.4360  1.5503 -1.1852
 8556TIP3    H225633   5.183   6.057   1.202 -0.5146 -0.2457 -0.2175
 8557TIP3   OH225634   0.110   6.767   3.888 -0.2934  0.4302 -0.5595
 8557TIP3    H125635   0.055   6.777   3.810  1.4937  0.0679 -1.9089
 8557TIP3    H225636   0.176   6.836   3.879  0.7840 -0.5308 -0.1078
 8558TIP3   OH225637   6.945   5.331   2.684  0.1699 -0.5865  0.4830
 8558TIP3    H125638   6.857   5.322   2.720  0.8577  0.0518  2.5133
 8558TIP3    H225639   6.934   5.380   2.603 -1.1524  2.0918  2.1207
 8559TIP3   OH225640   5.496   0.456   0.369 -0.6442  0.4201 -0.3461
 8559TIP3    H125641   5.582   0.421   0.347  0.7507  2.9644  0.6769
 8559TIP3    H225642   5.485   0.531   0.310 -1.0345  1.5843  1.1332
 8560TIP3   OH225643   1.388   4.937   3.044  0.2452  0.2543 -0.4178
 8560TIP3    H125644   1.396   4.964   2.952 -0.9118  1.1373 -0.2988
 8560TIP3    H225645   1.430   4.851   3.048 -1.2895 -0.6625 -2.2023
 8561TIP3   OH225646   4.315   6.524   0.704  0.2068  0.1394 -0.3631
 8561TIP3    H125647   4.387   6.469   0.736  0.9113 -0.0850 -2.2374
 8561TIP3    H225648   4.267   6.468   0.643  0.2974  1.2656 -1.4909
 8562TIP3   OH225649   4.932   0.906   5.618 -0.8754  0.0256  0.6373
 8562TIP3    H125650   4.945   0.919   5.525 -1.4383  1.5437  0.7513
 8562TIP3    H225651   4.837   0.903   5.630 -0.9145  2.2315  1.4078
 8563TIP3   OH225652   4.809   2.681   0.195  0.1000  0.6690  0.2641
 8563TIP3    H125653   4.904   2.691   0.197  0.4628 -1.9487  2.8242
 8563TIP3    H225654   4.795   2.591   0.164 -1.5609  0.9610  0.0789
 8564TIP3   OH225655   4.856   3.149   3.724  0.3204  0.1205  0.2461
 8564TIP3    H125656   4.843   3.162   3.818  2.7478 -0.9922  0.8032
 8564TIP3    H225657   4.951   3.149   3.712  0.1208  2.0719 -2.5253
 8565TIP3   OH225658   5.914   1.846   1.364 -0.3685  0.1329 -0.0958
 8565TIP3    H125659   5.998   1.878   1.396  1.1783 -0.8023 -2.8220
 8565TIP3    H225660   5.888   1.780   1.427  1.7166 -0.5580  0.1228
 8566TIP3   OH225661   5.143   2.375   4.508  0.2675 -0.3678  0.1164
 8566TIP3    H125662   5.062   2.363   4.557 -1.1042  0.7418 -1.7908
 8566TIP3    H225663   5.149   2.298   4.451 -0.3453  0.3535 -0.9397
 8567TIP3   OH225664   1.476   3.863   5.534  0.5822  0.1109 -0.0093
 8567TIP3    H125665   1.533   3.797   5.574  0.8522  0.9973  1.1228
 8567TIP3    H225666   1.509   3.946   5.569  0.8083  0.9391 -2.0753
 8568TIP3   OH225667   4.518   1.736   2.348  0.2469 -0.4292  0.0320
 8568TIP3    H125668   4.499   1.709   2.258 -0.2749 -2.1906  0.6309
 8568TIP3    H225669   4.597   1.688   2.372  0.0716 -0.4076  0.6824
 8569TIP3   OH225670   6.786   0.603   5.753  0.1891 -0.1572  0.5025
 8569TIP3    H125671   6.692   0.618   5.740  0.5714  3.1181  0.7739
 8569TIP3    H225672   6.798   0.604   5.848  0.6414  0.9823  0.4534
 8570TIP3   OH225673   1.624   3.334   4.402  0.1086 -0.3734 -0.2783
 8570TIP3    H125674   1.662   3.288   4.326 -0.3075  0.0621 -0.7604
 8570TIP3    H225675   1.575   3.266   4.449  0.3500 -0.6438 -0.4108
 8571TIP3   OH225676   6.463   3.097   1.318  1.0340 -0.5126  0.0936
 8571TIP3    H125677   6.483   3.157   1.389  1.3673 -1.3019  0.6753
 8571TIP3    H225678   6.546   3.084   1.272  1.0262 -0.7393  0.1386
 8572TIP3   OH225679   1.406   3.271   1.891  0.9237  0.5549  0.4738
 8572TIP3    H125680   1.344   3.199   1.882 -0.3820  1.6013  0.8193
 8572TIP3    H225681   1.478   3.248   1.832  0.7132 -1.1820  0.8279
 8573TIP3   OH225682   0.969   6.686   3.967  0.1504 -0.3821 -0.3824
 8573TIP3    H125683   0.956   6.770   4.012  2.8942  0.5793 -1.1537
 8573TIP3    H225684   0.963   6.621   4.037 -3.3451  0.1956  0.0352
 8574TIP3   OH225685   3.311   0.278   1.697 -0.2705 -0.0455  0.1693
 8574TIP3    H125686   3.323   0.305   1.788 -0.8904 -0.5745  0.4150
 8574TIP3    H225687   3.396   0.241   1.672 -0.2883 -0.4982  0.7422
 8575TIP3   OH225688   6.933   4.724   2.994 -0.5370 -0.5037 -0.9910
 8575TIP3    H125689   6.977   4.806   3.013  0.2238 -1.3148  1.0646
 8575TIP3    H225690   6.860   4.748   2.938 -1.0349  1.7434  0.4989
 8576TIP3   OH225691   0.034   4.249   4.515  0.2485  0.4980 -0.4497
 8576TIP3    H125692   0.083   4.294   4.584 -1.1092  1.3845 -0.0177
 8576TIP3    H225693  -0.012   4.319   4.469 -0.2656 -0.2630 -1.1247
 8577TIP3   OH225694   2.942   2.136   5.514 -0.4557 -1.1223  0.0081
 8577TIP3    H125695   2.909   2.149   5.425 -0.1211  1.3603  0.1597
 8577TIP3    H225696   3.029   2.099   5.503  0.3519  0.8594 -0.8706
 8578TIP3   OH225697   5.892   5.209   4.236  0.1527  0.0471  0.0488
 8578TIP3    H125698   5.932   5.293   4.212 -2.5128  1.4953  0.3664
 8578TIP3    H225699   5.866   5.220   4.327 -0.0780 -1.2058  0.1491
 8579TIP3   OH225700   3.498   1.786   4.529  0.2677  0.0655  0.4999
 8579TIP3    H125701   3.465   1.847   4.594  0.4506  0.3657  0.3122
 8579TIP3    H225702   3.457   1.702   4.551  0.2528  0.1891  0.9389
 8580TIP3   OH225703   5.739   4.372   0.595 -0.7704  0.0107 -0.1417
 8580TIP3    H125704   5.678   4.422   0.650 -1.6030 -0.4513 -0.6237
 8580TIP3    H225705   5.789   4.439   0.548 -1.7970  0.4057 -0.7009
 8581TIP3   OH225706   6.824   5.371   5.125  0.1621  0.3973 -0.9674
 8581TIP3    H125707   6.910   5.336   5.149  0.2393  0.9564 -0.3907
 8581TIP3    H225708   6.762   5.304   5.154  0.4491 -0.5137 -2.3866
 8582TIP3   OH225709   0.124   4.719   2.233 -0.4706 -0.2408 -0.2546
 8582TIP3    H125710   0.146   4.626   2.231 -2.5887 -0.8327  0.8613
 8582TIP3    H225711   0.059   4.729   2.163 -1.6104 -0.0339  0.7988
 8583TIP3   OH225712   5.116   2.876   2.005  0.2556  0.2642 -0.3084
 8583TIP3    H125713   5.149   2.879   1.916 -0.2203  0.2561 -0.4899
 8583TIP3    H225714   5.190   2.845   2.058 -0.3308 -2.8920 -1.1523
 8584TIP3   OH225715   4.019   1.096   5.380  0.0923  0.3527  0.0435
 8584TIP3    H125716   4.027   1.186   5.349  0.9496  0.3969  0.3736
 8584TIP3    H225717   4.075   1.045   5.322 -0.3621  0.0335 -0.1204
 8585TIP3   OH225718   0.430   5.097   0.876 -0.1841  0.0817  0.0843
 8585TIP3    H125719   0.347   5.104   0.924 -0.9680 -0.0806 -1.2103
 8585TIP3    H225720   0.404   5.084   0.785  1.2577  1.4890 -0.5731
 8586TIP3   OH225721   4.278   2.835   4.259  0.1049  0.7909  0.0845
 8586TIP3    H125722   4.270   2.929   4.248  1.2218  0.8060 -0.6895
 8586TIP3    H225723   4.205   2.811   4.317 -0.4548  2.0479 -0.0858
 8587TIP3   OH225724   5.797   3.513   1.501 -0.1190 -0.2505  0.5566
 8587TIP3    H125725   5.824   3.435   1.549 -0.0479  0.1540  1.1864
 8587TIP3    H225726   5.836   3.503   1.414 -2.4182 -2.3011 -0.3693
 8588TIP3   OH225727   4.453   3.374   4.764 -0.4188 -0.3489 -0.0184
 8588TIP3    H125728   4.435   3.422   4.683 -0.8097  0.1645  0.3617
 8588TIP3    H225729   4.447   3.440   4.833 -2.4611 -1.1719  0.6866
 8589TIP3   OH225730   4.052   5.958   2.888 -0.0923  0.5876  0.2784
 8589TIP3    H125731   4.127   5.974   2.832 -0.0287 -0.0383  0.1764
 8589TIP3    H225732   3.979   5.944   2.828 -0.1622  0.5781  0.3643
 8590TIP3   OH225733   5.044   2.044   3.070  0.0666 -0.3895 -0.1639
 8590TIP3    H125734   5.133   2.069   3.047  0.4800 -0.0597  1.6435
 8590TIP3    H225735   5.015   2.112   3.130 -0.7182 -1.4654  0.7223
 8591TIP3   OH225736   1.578   5.023   4.231  0.0332  0.2827  0.3053
 8591TIP3    H125737   1.556   4.965   4.304 -1.8412  0.6441  0.0863
 8591TIP3    H225738   1.522   5.100   4.244  1.0907  1.2122 -0.4627
 8592TIP3   OH225739   4.446   0.629   2.485 -0.0177 -0.2064  0.1920
 8592TIP3    H125740   4.509   0.701   2.478 -1.8352  1.4255 -0.5757
 8592TIP3    H225741   4.492   0.553   2.451  1.6718  0.8005  0.1006
 8593TIP3   OH225742   1.964   3.533   4.646 -0.0852 -0.1382  0.7741
 8593TIP3    H125743   1.903   3.580   4.703 -0.8642  0.0768 -0.1977
 8593TIP3    H225744   1.935   3.442   4.649 -0.0108 -0.1596  0.8580
 8594TIP3   OH225745   2.040   5.493   5.830 -0.6439 -0.1774  0.2558
 8594TIP3    H125746   2.050   5.582   5.795  1.6087 -0.5175 -0.1628
 8594TIP3    H225747   1.972   5.453   5.776 -0.0521  0.5907 -1.1155
 8595TIP3   OH225748   2.282   6.108   3.649  0.7212 -0.1557  0.1114
 8595TIP3    H125749   2.265   6.179   3.712  3.9311  0.7633  0.0984
 8595TIP3    H225750   2.205   6.051   3.657 -1.4654  2.6474  1.0011
 8596TIP3   OH225751   3.396   1.396   4.481  0.5398 -0.6042  0.1184
 8596TIP3    H125752   3.413   1.415   4.388  1.4635 -0.7357  0.2437
 8596TIP3    H225753   3.309   1.432   4.497 -0.2899 -1.9010 -1.1647
 8597TIP3   OH225754   6.280   5.287   2.917 -0.0171  0.2814  0.3449
 8597TIP3    H125755   6.189   5.268   2.896  0.4687 -0.5833 -1.1362
 8597TIP3    H225756   6.298   5.235   2.995 -0.9789  1.0446  1.1014
 8598TIP3   OH225757   2.110   1.383   2.719 -0.0655 -0.1612 -0.6094
 8598TIP3    H125758   2.139   1.441   2.649  0.5241  0.6129  0.2536
 8598TIP3    H225759   2.149   1.298   2.698  1.9631  0.5762 -0.0877
 8599TIP3   OH225760   1.726   5.247   1.797  0.3941  0.4268  0.0314
 8599TIP3    H125761   1.666   5.249   1.723  0.9164  1.1297 -0.3847
 8599TIP3    H225762   1.705   5.326   1.847  2.4233  1.9186 -1.3184
 8600TIP3   OH225763   0.225   1.216   1.561 -0.0297 -0.2412  0.0828
 8600TIP3    H125764   0.209   1.188   1.651 -1.6649  0.2568 -0.0164
 8600TIP3    H225765   0.285   1.151   1.526  1.1345 -0.1061  1.7102
 8601TIP3   OH225766   1.011   0.210   1.153 -0.1563  0.0881  0.2928
 8601TIP3    H125767   0.973   0.297   1.141 -0.6945 -0.2691 -0.7110
 8601TIP3    H225768   0.936   0.151   1.154  0.2535 -0.4393  0.2690
 8602TIP3   OH225769   1.343   3.976   1.766  0.0141  0.1659 -0.0502
 8602TIP3    H125770   1.431   4.014   1.769  0.3019 -0.5316  1.1472
 8602TIP3    H225771   1.289   4.037   1.815  0.3694 -0.6395  1.4106
 8603TIP3   OH225772   2.113   3.893   3.189 -0.3795 -0.1556 -0.4658
 8603TIP3    H125773   2.044   3.847   3.142 -0.9456 -1.4533  1.4782
 8603TIP3    H225774   2.070   3.971   3.225  0.0483  0.8243 -2.0000
 8604TIP3   OH225775   0.830   4.194   3.584  0.2072  0.4714  0.2832
 8604TIP3    H125776   0.818   4.289   3.585 -0.1863  0.4387 -0.4815
 8604TIP3    H225777   0.782   4.165   3.506  1.5337 -0.1981 -0.3030
 8605TIP3   OH225778   3.277   3.312   2.262 -0.5962  0.1250  0.1287
 8605TIP3    H125779   3.322   3.240   2.218  1.1912 -0.2606  2.3870
 8605TIP3    H225780   3.342   3.382   2.267 -1.6401  1.1431 -0.1884
 8606TIP3   OH225781   6.262   3.060   3.047 -0.2811 -0.1301 -0.3831
 8606TIP3    H125782   6.325   3.014   2.992  0.5552  0.3055  0.1836
 8606TIP3    H225783   6.296   3.049   3.136 -0.4278  0.9955 -0.1745
 8607TIP3   OH225784   3.033   4.457   2.912 -0.1408  0.0329  0.1111
 8607TIP3    H125785   3.008   4.365   2.923  1.0239 -0.5122 -1.3286
 8607TIP3    H225786   3.123   4.461   2.946  0.3792  0.2466 -1.2190
 8608TIP3   OH225787   0.678   3.266   2.962 -0.3107 -0.2437  0.1014
 8608TIP3    H125788   0.593   3.311   2.958 -1.7751 -2.8108 -0.4202
 8608TIP3    H225789   0.715   3.279   2.874 -0.6526  0.0501 -0.0051
 8609TIP3   OH225790   2.245   0.808   4.612 -0.1143 -0.2551 -0.2058
 8609TIP3    H125791   2.337   0.834   4.608  0.3613 -1.8583 -0.0335
 8609TIP3    H225792   2.222   0.815   4.705  1.1415 -3.9708  0.5526
 8610TIP3   OH225793   7.013   0.725   5.424 -0.0172 -0.1270 -0.0647
 8610TIP3    H125794   7.056   0.762   5.347  0.4824 -0.9015 -0.1673
 8610TIP3    H225795   7.007   0.798   5.486 -2.3201  1.0852 -1.5767
 8611TIP3   OH225796   0.350   0.817   3.331  0.1314  0.4583  0.1554
 8611TIP3    H125797   0.332   0.884   3.265  0.3931 -0.9501 -1.4177
 8611TIP3    H225798   0.437   0.839   3.364  0.2327  0.8934 -0.3846
 8612TIP3   OH225799   1.199   5.735   3.347 -0.0853 -0.2163 -0.1855
 8612TIP3    H125800   1.121   5.789   3.353 -0.0948 -0.1689 -0.6899
 8612TIP3    H225801   1.167   5.649   3.321  0.0272 -0.1877 -0.4276
 8613TIP3   OH225802   1.034   3.516   1.492  0.0342  0.5930  0.3514
 8613TIP3    H125803   1.073   3.463   1.561 -0.7901  0.0600  0.4130
 8613TIP3    H225804   0.991   3.588   1.538 -0.5688  0.2035  0.4068
 8614TIP3   OH225805   5.852   6.367   5.448  0.8836 -0.2807  0.2856
 8614TIP3    H125806   5.844   6.276   5.477  0.3706 -0.3195  0.0316
 8614TIP3    H225807   5.772   6.409   5.477  0.5602 -0.2099 -0.6572
 8615TIP3   OH225808   6.201   5.520   0.088  0.3903 -0.4567  0.1385
 8615TIP3    H125809   6.113   5.485   0.100  0.3860 -0.5534 -0.1645
 8615TIP3    H225810   6.259   5.444   0.100  0.4808 -0.2444  1.0963
 8616TIP3   OH225811   6.353   0.780   3.032 -0.4933 -0.6986  0.0747
 8616TIP3    H125812   6.344   0.747   3.121  0.9869 -1.9603 -0.1768
 8616TIP3    H225813   6.266   0.772   2.994 -0.6199 -2.6009  0.6498
 8617TIP3   OH225814   2.533   2.794   2.215 -0.0193  0.3253 -0.1229
 8617TIP3    H125815   2.474   2.851   2.264 -0.2462 -0.0617  0.0648
 8617TIP3    H225816   2.488   2.780   2.131 -0.6007 -0.6236  0.3247
 8618TIP3   OH225817   4.858   3.454   4.792  0.0314 -0.2133  0.7646
 8618TIP3    H125818   4.926   3.473   4.728  0.3490 -0.4929  1.0164
 8618TIP3    H225819   4.905   3.422   4.869 -0.4491 -1.8519  0.4331
 8619TIP3   OH225820   2.130   6.416   3.385  0.3646 -0.3441  0.1470
 8619TIP3    H125821   2.041   6.431   3.352 -0.4136 -4.2570 -0.1337
 8619TIP3    H225822   2.117   6.391   3.477  0.8250 -2.8368 -0.3951
 8620TIP3   OH225823   2.811   2.950   0.320  0.3657  0.3245  0.3381
 8620TIP3    H125824   2.723   2.913   0.323  1.0674 -1.5150 -0.4813
 8620TIP3    H225825   2.812   3.002   0.240 -0.1397  0.8337  0.6563
 8621TIP3   OH225826   1.466   0.857   5.108  0.2237  0.3066 -0.2918
 8621TIP3    H125827   1.456   0.777   5.057  0.7308 -0.4643  0.7740
 8621TIP3    H225828   1.518   0.915   5.053 -1.6265  0.6217 -1.8199
 8622TIP3   OH225829   1.559   1.285   0.317  0.0730  0.4018 -0.1188
 8622TIP3    H125830   1.617   1.296   0.393 -0.0135  0.1102 -0.0118
 8622TIP3    H225831   1.548   1.374   0.283 -2.2414  0.9763  1.9274
 8623TIP3   OH225832   6.338   1.090   4.865  0.5459 -0.3891 -0.3324
 8623TIP3    H125833   6.285   1.165   4.891  1.8648 -0.0972  1.7241
 8623TIP3    H225834   6.386   1.120   4.787 -0.7224  0.0271 -0.9870
 8624TIP3   OH225835   3.924   2.581   3.421 -0.3405  0.2630  0.1843
 8624TIP3    H125836   3.869   2.535   3.357  1.6176 -0.4148 -1.1032
 8624TIP3    H225837   3.865   2.597   3.495 -2.2249 -0.5190 -1.0457
 8625TIP3   OH225838   0.560   0.162   3.594 -0.1371 -0.5197 -0.1500
 8625TIP3    H125839   0.507   0.182   3.517  0.3463  2.8187  0.2281
 8625TIP3    H225840   0.529   0.076   3.623 -4.2554  0.5097 -0.8739
 8626TIP3   OH225841   3.422   0.024   5.018  0.4249 -0.0255 -0.2561
 8626TIP3    H125842   3.352  -0.015   5.071  1.3484 -0.8706  0.3712
 8626TIP3    H225843   3.488   0.051   5.082 -0.1239  2.5318 -0.6697
 8627TIP3   OH225844   5.905   0.300   4.486  0.7641 -0.2775  0.4179
 8627TIP3    H125845   5.886   0.216   4.527 -1.7662  0.0190  0.0535
 8627TIP3    H225846   5.858   0.364   4.539  1.1147  0.6650 -0.3671
 8628TIP3   OH225847   2.993   5.737   3.459  0.0512  0.0738 -0.3775
 8628TIP3    H125848   3.017   5.788   3.381 -1.0146  1.4558  0.1604
 8628TIP3    H225849   2.897   5.735   3.458  0.0373 -0.3519  0.6072
 8629TIP3   OH225850   7.159   2.075   2.639 -0.0246 -0.1338  0.0635
 8629TIP3    H125851   7.102   2.080   2.562  0.3866  1.7313 -0.1605
 8629TIP3    H225852   7.192   1.985   2.638 -1.3375 -0.6396 -0.9690
 8630TIP3   OH225853   2.102   3.007   0.799 -0.0112 -0.0683  0.0757
 8630TIP3    H125854   2.185   2.998   0.846  1.7533  0.1648 -2.7426
 8630TIP3    H225855   2.067   2.918   0.794  0.0975 -0.1864  1.1679
 8631TIP3   OH225856   4.897   0.199   5.687 -0.0685 -0.0507 -0.3727
 8631TIP3    H125857   4.952   0.124   5.711 -2.1501 -1.5613 -0.0872
 8631TIP3    H225858   4.854   0.225   5.768 -0.8608  0.1802 -0.8559
 8632TIP3   OH225859   7.229   5.188   4.880  0.3181  0.0376 -0.0869
 8632TIP3    H125860   7.195   5.278   4.875 -0.4088 -0.2746 -1.1246
 8632TIP3    H225861   7.168   5.137   4.828  1.8841 -0.7051 -1.3028
 8633TIP3   OH225862   7.135   5.003   0.767  0.0549 -0.3747 -0.2122
 8633TIP3    H125863   7.142   4.979   0.859 -1.2045 -0.1287 -0.0247
 8633TIP3    H225864   7.208   5.062   0.751 -0.0687  0.0738  0.8105
 8634TIP3   OH225865   3.561   4.082   5.526  0.1790 -0.3265  0.0640
 8634TIP3    H125866   3.597   4.157   5.574 -2.1916  0.9300  0.0265
 8634TIP3    H225867   3.537   4.019   5.594 -0.2494  0.0927  0.3086
 8635TIP3   OH225868   3.034   4.246   1.184 -0.2234 -0.3029  0.3744
 8635TIP3    H125869   3.052   4.241   1.090  2.6773 -0.2583  0.8481
 8635TIP3    H225870   3.079   4.325   1.213  0.9057 -1.5392  2.1524
 8636TIP3   OH225871   3.526   1.377   2.676  0.0414  0.3220 -0.1615
 8636TIP3    H125872   3.526   1.471   2.698 -0.8906  0.4947 -0.8356
 8636TIP3    H225873   3.505   1.375   2.582  2.7484 -0.4395 -0.8607
 8637TIP3   OH225874   5.368   0.082   0.170 -0.2892  0.0980 -0.2287
 8637TIP3    H125875   5.327   0.068   0.255 -2.0070  0.1933 -0.9999
 8637TIP3    H225876   5.339   0.008   0.116  0.5054  0.2065 -0.8298
 8638TIP3   OH225877   4.290   4.456   5.590  0.2587 -0.0128 -0.0400
 8638TIP3    H125878   4.279   4.542   5.549 -0.5025 -0.1935 -0.2439
 8638TIP3    H225879   4.224   4.402   5.547 -1.0097 -0.0696  1.8436
 8639TIP3   OH225880   3.899   2.463   3.746  0.0367  0.2533  0.2928
 8639TIP3    H125881   3.950   2.389   3.713 -0.1264  0.2907 -0.0505
 8639TIP3    H225882   3.944   2.490   3.826  0.8614  0.6218 -0.2856
 8640TIP3   OH225883   0.461   0.464   3.250  0.2545  0.1345  0.6881
 8640TIP3    H125884   0.385   0.522   3.244 -0.6399 -1.1030 -1.1800
 8640TIP3    H225885   0.534   0.517   3.216 -0.5764  0.1947 -1.1485
 8641TIP3   OH225886   2.943   0.220   5.783 -0.4460 -0.2392 -0.7049
 8641TIP3    H125887   3.007   0.249   5.717 -1.2708  0.9826 -0.9974
 8641TIP3    H225888   2.860   0.256   5.754 -0.7943  0.5675  1.1409
 8642TIP3   OH225889   2.420   0.187   4.493  0.0382  0.5188  0.2149
 8642TIP3    H125890   2.328   0.173   4.516 -0.0067 -0.4124 -0.4688
 8642TIP3    H225891   2.417   0.230   4.408  0.2314 -0.3610 -0.2453
 8643TIP3   OH225892   5.933   2.809   3.195  0.4412  0.2197 -0.1600
 8643TIP3    H125893   5.954   2.869   3.124  1.2022  0.3930  0.2087
 8643TIP3    H225894   5.913   2.726   3.151 -0.0735  0.5836 -0.6302
 8644TIP3   OH225895   1.107   0.875   2.137 -0.4039 -0.2145  0.0669
 8644TIP3    H125896   1.025   0.898   2.092 -1.7871  0.0042  2.5304
 8644TIP3    H225897   1.145   0.959   2.161 -0.2983 -0.3537  0.3835
 8645TIP3   OH225898   4.288   2.761   1.060 -0.3010 -0.5984  0.1609
 8645TIP3    H125899   4.213   2.713   1.025 -0.6105 -1.1951  1.5868
 8645TIP3    H225900   4.354   2.694   1.074  1.1082  0.0940 -2.4330
 8646TIP3   OH225901   5.522   3.970   3.972  0.6457  0.2900  0.0565
 8646TIP3    H125902   5.465   4.022   4.028  0.5687 -0.5807  0.8004
 8646TIP3    H225903   5.551   3.897   4.027  1.4577  0.0210 -0.6955
 8647TIP3   OH225904   4.171   2.183   0.238 -0.0519  0.5302  0.0644
 8647TIP3    H125905   4.192   2.186   0.144  0.5562  0.1677  0.1831
 8647TIP3    H225906   4.107   2.113   0.246  0.4682  0.0407  0.0186
 8648TIP3   OH225907   6.033   0.793   5.121  0.0597 -0.4859  0.0113
 8648TIP3    H125908   6.065   0.831   5.039  1.4257  0.5111  0.9857
 8648TIP3    H225909   5.939   0.814   5.121  0.0754 -0.3255 -1.1932
 8649TIP3   OH225910   6.305   3.065   3.939  0.3882  0.1880 -0.1106
 8649TIP3    H125911   6.325   3.119   3.862 -0.6664  0.1142 -0.4597
 8649TIP3    H225912   6.297   2.976   3.905 -3.4182  0.5473 -0.6442
 8650TIP3   OH225913   5.678   6.098   1.966 -0.2243 -0.4551  0.1347
 8650TIP3    H125914   5.645   6.172   1.916  1.1680  0.2735  0.2316
 8650TIP3    H225915   5.672   6.023   1.906  0.7247  0.2523 -0.8906
 8651TIP3   OH225916   4.008   4.750   0.537 -0.2056  0.2398 -0.1418
 8651TIP3    H125917   3.992   4.828   0.589 -0.1005  0.4868 -0.4764
 8651TIP3    H225918   4.098   4.726   0.556 -0.6147 -0.5390  0.9310
 8652TIP3   OH225919   3.282   6.476   4.506  0.4707 -0.2761 -0.2418
 8652TIP3    H125920   3.363   6.480   4.455  0.7673 -0.7808  0.1754
 8652TIP3    H225921   3.220   6.430   4.450 -1.0398  3.9843 -2.5049
 8653TIP3   OH225922   5.797   1.221   1.982 -0.3879  0.2477 -0.5303
 8653TIP3    H125923   5.867   1.209   1.918 -0.5454 -0.4968 -0.5633
 8653TIP3    H225924   5.834   1.280   2.047  0.4484 -0.5457 -0.2705
 8654TIP3   OH225925   2.702   3.831   0.374 -0.1415  0.3416 -0.4248
 8654TIP3    H125926   2.753   3.843   0.454  3.2676 -0.0471 -2.3383
 8654TIP3    H225927   2.712   3.912   0.326  0.3610 -0.4562 -1.7136
 8655TIP3   OH225928   1.288   4.522   5.100  0.3219 -0.1700  0.7292
 8655TIP3    H125929   1.247   4.460   5.160  0.3427 -0.2298  0.6814
 8655TIP3    H225930   1.380   4.496   5.097 -0.2834 -2.4007 -2.0618
 8656TIP3   OH225931   2.965   6.070   0.306  0.3684  0.0175 -0.4369
 8656TIP3    H125932   3.059   6.055   0.300  0.3322 -1.1733  1.3380
 8656TIP3    H225933   2.936   6.017   0.380 -2.0003 -1.0870 -1.9844
 8657TIP3   OH225934   2.924   4.476   5.363 -0.1547  0.7902 -0.4737
 8657TIP3    H125935   2.838   4.434   5.366  0.6082 -0.7799  0.4756
 8657TIP3    H225936   2.974   4.422   5.302  0.1100  1.8345 -1.2029
 8658TIP3   OH225937   5.477   6.507   0.156 -1.1370  0.0699 -0.1524
 8658TIP3    H125938   5.442   6.539   0.073  0.4215  1.1441 -0.4408
 8658TIP3    H225939   5.402   6.511   0.217 -2.0114  0.3205 -1.2094
 8659TIP3   OH225940   5.937   4.655   1.673  0.3198  0.1451  0.0108
 8659TIP3    H125941   6.008   4.679   1.614  1.3888  0.6358  1.4495
 8659TIP3    H225942   5.860   4.700   1.637  1.3720  2.1521  0.1344
 8660TIP3   OH225943   7.014   5.104   5.756 -0.0448 -0.7163 -0.3498
 8660TIP3    H125944   6.920   5.122   5.749  0.1460 -0.0444 -1.3844
 8660TIP3    H225945   7.052   5.145   5.679  1.1794 -0.4997  0.3485
 8661TIP3   OH225946   6.327   6.728   0.183 -0.3204  0.4747  0.4856
 8661TIP3    H125947   6.269   6.717   0.108  1.1562  0.4037 -0.6796
 8661TIP3    H225948   6.386   6.653   0.179 -0.5102  0.2096  2.0179
 8662TIP3   OH225949   5.780   6.371   4.837  0.4418 -0.0903 -0.4475
 8662TIP3    H125950   5.690   6.384   4.868  0.2305 -1.0377 -0.6240
 8662TIP3    H225951   5.813   6.298   4.889  1.4285  0.8201  0.2323
 8663TIP3   OH225952   2.679   6.738   2.605 -0.1462 -0.0791 -0.8749
 8663TIP3    H125953   2.622   6.773   2.537 -0.3749 -1.4316 -1.3948
 8663TIP3    H225954   2.739   6.810   2.625  1.4656 -0.3135 -4.1679
 8664TIP3   OH225955   2.429   4.960   3.821  0.0539  0.0752  0.0476
 8664TIP3    H125956   2.512   5.007   3.809 -0.7164  1.2678 -0.8845
 8664TIP3    H225957   2.416   4.916   3.737  0.8469 -2.0034  0.9689
 8665TIP3   OH225958   6.684   5.714   4.183 -0.2693  0.1986  0.0709
 8665TIP3    H125959   6.724   5.689   4.100 -0.9562  0.2706 -0.2820
 8665TIP3    H225960   6.735   5.790   4.212 -0.0545  0.1953 -0.3003
 8666TIP3   OH225961   0.888   1.125   0.664 -0.2086 -0.2304  0.4888
 8666TIP3    H125962   0.845   1.149   0.582 -0.3410 -0.9833  0.3360
 8666TIP3    H225963   0.847   1.043   0.690 -0.1978  0.0221  1.3350
 8667TIP3   OH225964   6.288   0.161   2.521 -0.4603 -0.0739 -0.2478
 8667TIP3    H125965   6.318   0.222   2.588 -2.2336 -0.4101  0.9410
 8667TIP3    H225966   6.361   0.101   2.508  0.6801  1.2613 -0.1822
 8668TIP3   OH225967   6.492   4.921   1.537  0.6646  0.2186  0.2334
 8668TIP3    H125968   6.400   4.895   1.542  1.0616 -1.3674 -0.0683
 8668TIP3    H225969   6.513   4.918   1.443  1.5168 -1.3878  0.4371
 8669TIP3   OH225970   6.435   4.752   4.119  0.1770  0.3166  0.4081
 8669TIP3    H125971   6.368   4.810   4.157 -0.3344 -1.1079  1.8062
 8669TIP3    H225972   6.395   4.665   4.121  0.3189  0.0422 -3.0623
 8670TIP3   OH225973   1.497   1.450   4.469  0.3863 -0.1663 -0.0793
 8670TIP3    H125974   1.461   1.485   4.550 -0.1163 -0.1910 -0.2925
 8670TIP3    H225975   1.515   1.527   4.414 -1.3583 -0.2521 -0.8193
 8671TIP3   OH225976   0.518   2.305   3.657  0.1387  0.1676 -0.0550
 8671TIP3    H125977   0.467   2.224   3.667  0.0604  0.1299 -0.7220
 8671TIP3    H225978   0.458   2.375   3.682  0.3448 -0.0087  0.9574
 8672TIP3   OH225979   1.985   4.200   3.272 -0.5181  0.3269  0.0973
 8672TIP3    H125980   2.057   4.249   3.311 -0.6552  0.9204 -0.3788
 8672TIP3    H225981   1.994   4.216   3.178 -1.3778  0.5560  0.0496
 8673TIP3   OH225982   2.877   1.525   2.607 -0.0971 -0.5775 -0.4995
 8673TIP3    H125983   2.932   1.484   2.541 -1.4738 -2.5026 -0.5275
 8673TIP3    H225984   2.921   1.508   2.690  1.1793  1.0833 -0.7844
 8674TIP3   OH225985   0.866   3.706   1.929  0.1669 -0.5441 -0.2009
 8674TIP3    H125986   0.850   3.774   1.994 -0.1082 -0.1042 -0.7175
 8674TIP3    H225987   0.961   3.696   1.928  0.5856  2.3136 -2.5293
 8675TIP3   OH225988   5.808   1.071   5.147 -0.4847 -0.0614  0.6168
 8675TIP3    H125989   5.733   1.121   5.179 -0.2497  0.1484  0.8351
 8675TIP3    H225990   5.773   0.983   5.131 -0.4193 -0.3964  2.2100
 8676TIP3   OH225991   4.769   6.170   5.654  0.0076  0.2166  0.5014
 8676TIP3    H125992   4.675   6.190   5.660  0.1712  1.3603 -0.2535
 8676TIP3    H225993   4.794   6.145   5.743 -0.9604  0.1422  0.7664
 8677TIP3   OH225994   6.799   1.851   3.778  0.2667  0.3011  0.4409
 8677TIP3    H125995   6.872   1.898   3.819  1.1314 -1.9427  1.6323
 8677TIP3    H225996   6.823   1.845   3.686  0.5355  1.4328  0.4255
 8678TIP3   OH225997   6.048   6.662   5.026  0.3696  0.0919 -0.1110
 8678TIP3    H125998   6.017   6.628   4.942 -1.0479 -0.3271  0.5480
 8678TIP3    H225999   5.971   6.703   5.066  1.3920  1.7260  0.3070
 8679TIP3   OH226000   1.436   3.381   4.865 -0.2462 -0.0715  0.1419
 8679TIP3    H126001   1.419   3.423   4.949 -1.6497 -1.3108  0.5180
 8679TIP3    H226002   1.450   3.289   4.887  1.3865 -0.0847 -0.7932
 8680TIP3   OH226003   3.416   5.863   3.980  0.1990  0.3587 -0.3700
 8680TIP3    H126004   3.372   5.780   3.962  1.7840 -0.3091 -1.3998
 8680TIP3    H226005   3.393   5.884   4.070  1.7004 -2.4957  0.8158
 8681TIP3   OH226006   0.602   0.352   4.935  0.0139  0.4462 -0.5690
 8681TIP3    H126007   0.536   0.297   4.978  0.3837  0.0735 -0.4720
 8681TIP3    H226008   0.647   0.293   4.874  1.4299  0.2493  0.6213
 8682TIP3   OH226009   1.909   0.258   4.942  0.4352  0.3285 -0.2579
 8682TIP3    H126010   1.834   0.309   4.972  0.9909  1.3020 -0.4394
 8682TIP3    H226011   1.893   0.170   4.974  0.7742  1.1802  2.5433
 8683TIP3   OH226012   6.915   0.419   0.025 -0.2482 -0.4923 -0.4595
 8683TIP3    H126013   6.895   0.325   0.025 -1.0706 -0.3532  0.8921
 8683TIP3    H226014   6.848   0.457  -0.033 -1.2431 -0.5319  0.6205
 8684TIP3   OH226015   6.561   3.758   5.244  0.0746  0.5192 -0.2024
 8684TIP3    H126016   6.491   3.797   5.192  0.0244  0.2697 -0.3253
 8684TIP3    H226017   6.560   3.666   5.219  1.1790  0.7113 -1.0268
 8685TIP3   OH226018   6.018   1.719   2.031  0.5042  0.5787  0.0613
 8685TIP3    H126019   6.076   1.653   1.993 -0.0713 -0.8649  1.5898
 8685TIP3    H226020   5.933   1.704   1.988  0.7787  1.4900 -0.8400
 8686TIP3   OH226021   4.483   4.739   3.993 -0.4690 -0.0700  0.1775
 8686TIP3    H126022   4.420   4.669   4.006  0.6089 -0.8876  1.1894
 8686TIP3    H226023   4.526   4.749   4.078  1.2292 -0.0039 -0.6501
 8687TIP3   OH226024   5.527   5.899   2.538  0.5572 -0.5375 -0.0005
 8687TIP3    H126025   5.561   5.983   2.567  1.2431 -0.8197  0.0359
 8687TIP3    H226026   5.445   5.888   2.586 -0.0195  0.5301 -0.7069
 8688TIP3   OH226027   5.277   3.082   5.126  0.0804 -0.6001 -0.0338
 8688TIP3    H126028   5.291   3.115   5.038 -0.3626 -1.1194 -0.3031
 8688TIP3    H226029   5.275   2.986   5.116  0.7241 -0.6950  0.6393
 8689TIP3   OH226030   6.502   0.295   0.957  0.6672 -0.6032  0.5655
 8689TIP3    H126031   6.473   0.221   1.010  1.1151  0.3966  2.2912
 8689TIP3    H226032   6.433   0.361   0.967 -0.0399 -0.9754 -1.4664
 8690TIP3   OH226033   3.140   1.227   2.142  0.0565 -0.5866 -0.0800
 8690TIP3    H126034   3.199   1.227   2.217  2.0737  0.2702 -1.5574
 8690TIP3    H226035   3.197   1.212   2.067 -1.4017  1.5049 -1.7268
 8691TIP3   OH226036   6.242   5.576   3.324 -0.2506 -0.4316 -0.4642
 8691TIP3    H126037   6.165   5.522   3.338 -0.2355  0.0266  1.6759
 8691TIP3    H226038   6.208   5.658   3.287 -0.9926  0.2196  1.5340
 8692TIP3   OH226039   1.333   0.040   1.876  0.1705 -0.4894  0.4473
 8692TIP3    H126040   1.314  -0.044   1.832  0.1866  0.6113 -1.8269
 8692TIP3    H226041   1.261   0.051   1.938 -0.3353 -1.7471  0.1252
 8693TIP3   OH226042   4.826   0.365   3.699  0.6841 -0.3298  0.0444
 8693TIP3    H126043   4.784   0.332   3.620  1.0511 -0.0947 -0.2533
 8693TIP3    H226044   4.833   0.290   3.757  0.1073 -0.4303 -0.0150
 8694TIP3   OH226045   5.312   6.368   2.883 -0.6183  0.7729 -0.2590
 8694TIP3    H126046   5.373   6.360   2.809  0.4267  0.7220  0.5811
 8694TIP3    H226047   5.226   6.376   2.842 -0.0130  1.3135 -1.5026
 8695TIP3   OH226048   2.917   0.089   0.326  0.1048 -0.2452 -0.2643
 8695TIP3    H126049   2.990   0.034   0.353 -1.0428 -2.8938 -2.1685
 8695TIP3    H226050   2.870   0.108   0.407  2.6023  1.2956  0.9740
 8696TIP3   OH226051   0.621   2.027   3.240 -0.0225 -0.0092 -0.1584
 8696TIP3    H126052   0.700   1.986   3.206  0.6888  0.4544  0.8876
 8696TIP3    H226053   0.589   1.967   3.307 -0.4725 -0.1178 -0.4660
 8697TIP3   OH226054   5.009   4.809   3.863 -0.8407 -0.5355  0.8232
 8697TIP3    H126055   4.959   4.761   3.929 -0.2966 -2.1792  0.0847
 8697TIP3    H226056   5.021   4.747   3.792 -1.5629  1.2372 -0.9436
 8698TIP3   OH226057   2.788   2.001   0.908 -0.9292 -0.2568  0.2344
 8698TIP3    H126058   2.798   2.095   0.895 -1.3953  0.0984  2.2584
 8698TIP3    H226059   2.866   1.976   0.958  0.1868 -1.3534 -1.8966
 8699TIP3   OH226060   6.916   4.962   4.110  0.3291 -0.0318 -0.5755
 8699TIP3    H126061   6.843   4.904   4.090 -1.1918  1.8561 -0.7878
 8699TIP3    H226062   6.893   5.045   4.069  1.4723  1.3122  1.3255
 8700TIP3   OH226063   0.230   3.603   0.632  0.1629 -0.5089 -0.4687
 8700TIP3    H126064   0.321   3.597   0.663  0.2704  0.7024 -0.4742
 8700TIP3    H226065   0.180   3.552   0.695  0.8106 -0.9602 -0.3007
 8701TIP3   OH226066   3.617   4.412   0.934  0.1427 -0.3292  0.2140
 8701TIP3    H126067   3.653   4.343   0.989  0.9596 -1.0919 -1.2306
 8701TIP3    H226068   3.553   4.368   0.879  0.2896  0.1565 -0.3580
 8702TIP3   OH226069   1.107   3.325   1.287 -0.3945  0.0666  0.5966
 8702TIP3    H126070   1.047   3.251   1.286 -0.7231  0.2678 -1.9119
 8702TIP3    H226071   1.072   3.384   1.354 -1.8271 -0.7393  0.5975
 8703TIP3   OH226072   4.887   6.678   0.086 -0.3803  0.5400 -0.6518
 8703TIP3    H126073   4.886   6.593   0.041  0.3715  0.8939 -1.3559
 8703TIP3    H226074   4.795   6.695   0.107 -0.4069 -1.1316  0.8229
 8704TIP3   OH226075   0.612   3.195   1.208  0.3824 -0.1248 -0.6982
 8704TIP3    H126076   0.639   3.107   1.182 -0.5601 -0.1178 -1.7716
 8704TIP3    H226077   0.683   3.252   1.180  1.2231 -0.5856  0.4458
 8705TIP3   OH226078   2.536   4.261   4.944 -0.1655 -0.1381 -0.1449
 8705TIP3    H126079   2.585   4.184   4.916  2.7164  0.2973  3.0329
 8705TIP3    H226080   2.512   4.242   5.035 -1.1740  1.8969  0.0746
 8706TIP3   OH226081   3.859   4.643   4.475  0.2197  0.7222 -0.0224
 8706TIP3    H126082   3.769   4.674   4.488 -0.3003 -1.1311  1.2599
 8706TIP3    H226083   3.887   4.683   4.393 -1.2613  2.4541  0.2572
 8707TIP3   OH226084   2.490   5.677   4.151  0.1996 -0.0515  0.7088
 8707TIP3    H126085   2.492   5.757   4.205  0.3094 -0.4062  1.2366
 8707TIP3    H226086   2.405   5.638   4.169  0.1055 -0.0024  0.3735
 8708TIP3   OH226087   1.587   5.649   2.140 -0.5339  0.4138 -0.2016
 8708TIP3    H126088   1.611   5.680   2.228 -0.7642 -0.5154  0.2056
 8708TIP3    H226089   1.640   5.702   2.081  1.2026 -0.3691  0.5968
 8709TIP3   OH226090   5.986   2.997   2.989 -0.8186  0.1532 -0.5593
 8709TIP3    H126091   5.926   3.069   3.006 -0.6587  0.1220  0.1719
 8709TIP3    H226092   6.072   3.029   3.018 -0.9925 -0.8238  1.1407
 8710TIP3   OH226093   1.600   4.979   1.888 -0.2308 -0.2410 -0.2982
 8710TIP3    H126094   1.666   4.920   1.925 -1.2975  0.4802  3.1267
 8710TIP3    H226095   1.644   5.064   1.883 -0.6901  0.1797  1.7339
 8711TIP3   OH226096   5.629   3.399   0.290 -0.3217 -0.2554  0.0700
 8711TIP3    H126097   5.642   3.304   0.302 -1.0515 -0.2277  1.2850
 8711TIP3    H226098   5.549   3.405   0.238 -1.5418 -0.3261  1.8337
 8712TIP3   OH226099   0.534   2.122   2.218  0.2923  0.4384 -0.4291
 8712TIP3    H126100   0.517   2.183   2.290 -0.1522 -0.9905  0.7331
 8712TIP3    H226101   0.450   2.079   2.201  0.9175 -0.9916 -0.0886
 8713TIP3   OH226102   0.420   0.087   2.549  0.0580  0.7296  0.1614
 8713TIP3    H126103   0.416   0.089   2.645 -0.8592 -1.6465  0.2381
 8713TIP3    H226104   0.506   0.125   2.528  0.0158  1.8680  1.8580
 8714TIP3   OH226105   2.567   0.495   5.767  0.3068  0.1595  0.0528
 8714TIP3    H126106   2.472   0.478   5.768  0.5372 -1.2381 -0.1658
 8714TIP3    H226107   2.581   0.545   5.687 -0.3469  1.0619  0.4858
 8715TIP3   OH226108   0.813   2.644   5.890 -0.6791  0.3170 -0.0410
 8715TIP3    H126109   0.811   2.625   5.796 -0.8472 -0.7331  0.1672
 8715TIP3    H226110   0.903   2.673   5.907 -0.7924  1.0522 -0.6157
 8716TIP3   OH226111   6.477   1.404   5.485  0.2749  0.1332 -0.0587
 8716TIP3    H126112   6.530   1.446   5.417 -0.0028 -0.0339 -0.3765
 8716TIP3    H226113   6.394   1.384   5.442 -1.0344  2.6229  1.0623
 8717TIP3   OH226114   5.225   6.587   2.037 -0.4073  0.4984  0.1064
 8717TIP3    H126115   5.301   6.616   2.087  0.5669  0.2725 -1.1777
 8717TIP3    H226116   5.176   6.532   2.098  0.8106  0.1216  0.7866
 8718TIP3   OH226117   1.312   0.319   0.155  0.1489 -0.4407  0.1638
 8718TIP3    H126118   1.234   0.294   0.204 -0.4283 -1.5817 -1.2612
 8718TIP3    H226119   1.283   0.321   0.064  1.2974  1.1803 -0.2166
 8719TIP3   OH226120   5.540   5.145   1.397 -0.0369  0.0419  0.1794
 8719TIP3    H126121   5.525   5.239   1.386 -1.1198 -0.3663 -2.7255
 8719TIP3    H226122   5.468   5.115   1.452 -0.6319  0.7029 -0.2246
 8720TIP3   OH226123   6.488   0.300   3.660 -0.0707  0.0446  0.0323
 8720TIP3    H126124   6.478   0.392   3.638  1.1847  0.1822 -0.0517
 8720TIP3    H226125   6.513   0.258   3.578  2.0335  0.1171  0.5795
 8721TIP3   OH226126   1.665   4.109   5.501 -0.2570  0.0231  0.0182
 8721TIP3    H126127   1.583   4.130   5.458  0.1000 -0.4896 -0.9414
 8721TIP3    H226128   1.693   4.192   5.540 -1.6966 -0.0174  1.2166
 8722TIP3   OH226129   2.801   4.883   4.261  0.2154  0.6028 -0.2169
 8722TIP3    H126130   2.858   4.874   4.185 -0.4733 -2.6270 -0.5189
 8722TIP3    H226131   2.725   4.828   4.241 -0.8165  1.0441  2.0718
 8723TIP3   OH226132   6.281   3.818   3.951  0.0452 -0.3517 -0.1832
 8723TIP3    H126133   6.238   3.894   3.912 -1.4337 -1.2777 -0.4329
 8723TIP3    H226134   6.211   3.754   3.963  1.2697 -1.7495 -0.1566
 8724TIP3   OH226135   3.439   4.076   4.305  0.4331  0.5285 -0.2710
 8724TIP3    H126136   3.395   4.155   4.337  0.7529  0.5426  0.1309
 8724TIP3    H226137   3.368   4.012   4.296  0.0029  1.1431 -1.5380
 8725TIP3   OH226138   7.206   2.791   2.800 -0.0904  0.0341  0.4395
 8725TIP3    H126139   7.116   2.796   2.833  0.2913  2.2953  1.2632
 8725TIP3    H226140   7.197   2.792   2.705 -0.9095  1.6594  0.5074
 8726TIP3   OH226141   0.946   5.284   1.176 -0.0601  0.2716  0.1758
 8726TIP3    H126142   0.941   5.373   1.209  1.8662  1.3701 -2.2180
 8726TIP3    H226143   1.025   5.247   1.214 -0.3729 -0.1262  0.4578
 8727TIP3   OH226144   6.892   0.397   1.465 -0.2976 -0.4346 -0.1269
 8727TIP3    H126145   6.836   0.397   1.543 -0.5872  2.0595 -0.2772
 8727TIP3    H226146   6.833   0.419   1.393  0.4295 -0.2752 -0.6888
 8728TIP3   OH226147   0.245   3.050   0.955  0.2474  0.2106  0.2681
 8728TIP3    H126148   0.340   3.057   0.951  0.3466 -0.4351  1.1360
 8728TIP3    H226149   0.229   2.991   1.029 -0.7946 -0.3282 -0.3651
 8729TIP3   OH226150   1.672   0.929   0.832 -0.2655 -0.1548  0.2698
 8729TIP3    H126151   1.672   0.930   0.736  1.1153  0.6739  0.2443
 8729TIP3    H226152   1.757   0.966   0.856 -0.4931 -0.5651  1.8201
 8730TIP3   OH226153   3.745   0.740   4.616 -0.5459 -0.4708 -0.7026
 8730TIP3    H126154   3.724   0.687   4.694  1.9023  0.0051  0.3651
 8730TIP3    H226155   3.726   0.682   4.542 -0.3943 -1.9135  0.3490
 8731TIP3   OH226156   6.496   4.865   0.383  0.6581 -0.1514 -0.1669
 8731TIP3    H126157   6.513   4.816   0.302 -0.3275 -0.6079 -0.1138
 8731TIP3    H226158   6.558   4.937   0.380  0.6431 -0.1547 -1.3403
 8732TIP3   OH226159   1.382   4.819   2.726 -0.0833  0.0815 -0.4976
 8732TIP3    H126160   1.286   4.823   2.718 -0.2462 -0.3439  0.9298
 8732TIP3    H226161   1.400   4.725   2.736  0.2824  0.3128  1.1801
 8733TIP3   OH226162   5.804   4.834   2.746 -0.0720 -0.3791 -1.7338
 8733TIP3    H126163   5.844   4.748   2.736  1.7006 -0.0761  1.4819
 8733TIP3    H226164   5.878   4.894   2.752 -1.1678  0.9245 -0.6824
 8734TIP3   OH226165   3.648   4.674   5.685 -0.3145 -0.0884  0.0156
 8734TIP3    H126166   3.581   4.734   5.717 -0.9650 -1.5297  1.5548
 8734TIP3    H226167   3.602   4.616   5.625 -0.7782 -1.7165  1.8372
 8735TIP3   OH226168   5.156   4.076   3.497  0.0028 -0.3995  0.3949
 8735TIP3    H126169   5.074   4.083   3.547  0.1572 -0.5015  0.6622
 8735TIP3    H226170   5.224   4.105   3.558  0.0154  1.1490 -0.2921
 8736TIP3   OH226171   0.706   0.436   1.568 -0.2252  0.3991 -0.0211
 8736TIP3    H126172   0.658   0.500   1.620  0.5399  0.5126  0.5601
 8736TIP3    H226173   0.757   0.489   1.506  0.2572  0.3519  0.3303
 8737TIP3   OH226174   0.978   3.360   3.583  0.1714 -0.6891 -0.0372
 8737TIP3    H126175   0.985   3.368   3.678 -2.6642 -0.9772  0.2645
 8737TIP3    H226176   0.985   3.450   3.551  1.2905 -0.6019  0.3930
 8738TIP3   OH226177   1.458   4.735   0.144  0.1632  0.0498  0.2413
 8738TIP3    H126178   1.388   4.735   0.210  1.2956 -0.6190  1.5106
 8738TIP3    H226179   1.537   4.754   0.194  0.9273  0.5636 -1.1278
 8739TIP3   OH226180   1.694   3.330   3.580 -0.2703  0.3497 -0.3103
 8739TIP3    H126181   1.612   3.370   3.607 -1.7983 -2.6224 -0.0693
 8739TIP3    H226182   1.686   3.321   3.485 -1.2948 -1.7799 -0.1061
 8740TIP3   OH226183   4.005   5.753   4.762 -0.5888 -0.0412  0.0846
 8740TIP3    H126184   3.950   5.760   4.684 -0.1094 -0.0050 -0.2501
 8740TIP3    H226185   4.031   5.843   4.782  0.1825 -0.1597 -0.3592
 8741TIP3   OH226186   6.424   1.086   3.646  0.5617  0.1146  0.1964
 8741TIP3    H126187   6.460   1.174   3.631 -0.9779  0.7247 -0.1119
 8741TIP3    H226188   6.331   1.095   3.628  0.3128 -1.5171  0.5207
 8742TIP3   OH226189   6.967   6.685   1.922 -0.2340 -0.8578 -0.0183
 8742TIP3    H126190   7.018   6.744   1.977 -1.3396  0.5564 -0.4346
 8742TIP3    H226191   7.019   6.675   1.842 -1.2127  1.8633 -1.1149
 8743TIP3   OH226192   0.780   2.991   4.855  0.4694 -0.2771 -0.1457
 8743TIP3    H126193   0.779   3.030   4.943  1.8390  1.3042 -0.7692
 8743TIP3    H226194   0.862   2.943   4.852  0.0290 -1.0260 -0.2948
 8744TIP3   OH226195   0.017   1.520   4.910  0.0671 -0.3032 -0.3459
 8744TIP3    H126196   0.049   1.582   4.845 -1.7786 -0.5149 -1.5026
 8744TIP3    H226197   0.051   1.435   4.880 -0.4443 -0.3453 -0.8080
 8745TIP3   OH226198   1.372   2.687   4.191 -0.5786  0.0214  0.4456
 8745TIP3    H126199   1.287   2.646   4.204 -0.3800 -0.9588 -1.0379
 8745TIP3    H226200   1.362   2.735   4.108  0.5790 -0.9548 -0.2913
 8746TIP3   OH226201   0.240   5.569   1.570  0.3780  0.0598  0.3504
 8746TIP3    H126202   0.209   5.493   1.620  1.1196 -0.1263  0.5361
 8746TIP3    H226203   0.201   5.558   1.484 -0.2939 -0.0259  0.6553
 8747TIP3   OH226204   6.018   3.856   1.802  0.2295  0.5624 -0.3772
 8747TIP3    H126205   6.087   3.793   1.823 -0.8256 -0.4331  0.1453
 8747TIP3    H226206   6.056   3.910   1.732  1.4464 -0.1197 -0.2625
 8748TIP3   OH226207   5.209   0.252   5.693 -0.2357 -0.2804 -0.4108
 8748TIP3    H126208   5.180   0.228   5.780  0.3206 -0.9544 -0.4063
 8748TIP3    H226209   5.141   0.312   5.661 -0.3692  0.0924  0.5318
 8749TIP3   OH226210   6.632   2.281   5.720  1.2175 -0.7753  0.7770
 8749TIP3    H126211   6.640   2.353   5.783 -0.1650 -0.9799  1.2211
 8749TIP3    H226212   6.581   2.214   5.766  0.2925 -0.9872 -0.4998
 8750TIP3   OH226213   0.887   1.466   1.544 -0.3354 -0.1452  0.5815
 8750TIP3    H126214   0.813   1.432   1.494 -0.6636 -0.4499  1.2670
 8750TIP3    H226215   0.892   1.559   1.519 -1.6571  0.1665  1.3582
 8751TIP3   OH226216   5.119   4.959   5.302 -0.2409  0.0917 -0.4565
 8751TIP3    H126217   5.172   4.880   5.310  0.0402  0.3844  0.7686
 8751TIP3    H226218   5.173   5.018   5.248 -0.6488 -0.6835 -1.7677
 8752TIP3   OH226219   3.971   6.097   4.633  0.2982  0.5623 -0.2139
 8752TIP3    H126220   3.881   6.121   4.657  0.5751 -0.4915  2.1844
 8752TIP3    H226221   3.977   6.118   4.540 -2.4941  0.4623 -0.5132
 8753TIP3   OH226222   3.779   2.404   1.132 -0.5214 -0.5248 -0.3308
 8753TIP3    H126223   3.701   2.348   1.133 -0.6411 -0.3743 -0.8090
 8753TIP3    H226224   3.799   2.420   1.224 -2.2522  1.1006 -0.1822
 8754TIP3   OH226225   3.569   2.545   4.207 -0.4404 -0.1659  0.3015
 8754TIP3    H126226   3.543   2.591   4.127 -1.5261  0.3390  0.9272
 8754TIP3    H226227   3.576   2.453   4.180  0.6130  0.1842 -0.6903
 8755TIP3   OH226228   5.708   4.188   1.221  0.7745 -0.4529  0.6622
 8755TIP3    H126229   5.648   4.119   1.249 -0.0012 -0.7875 -1.5973
 8755TIP3    H226230   5.667   4.269   1.252 -0.9242 -0.6805 -0.8527
 8756TIP3   OH226231   1.568   4.476   5.093 -0.4816  0.3400 -0.1161
 8756TIP3    H126232   1.562   4.470   4.998  0.5940 -0.3765 -0.1698
 8756TIP3    H226233   1.661   4.493   5.110 -0.5079 -0.3276  0.8201
 8757TIP3   OH226234   4.149   1.386   4.152  0.3419  0.0803 -0.8571
 8757TIP3    H126235   4.204   1.445   4.100 -1.0413  1.5649 -0.6967
 8757TIP3    H226236   4.106   1.443   4.215 -2.5043 -0.7691 -1.8980
 8758TIP3   OH226237   6.049   0.185   5.362  0.3571  0.1517  0.2214
 8758TIP3    H126238   6.032   0.219   5.450  3.7835  0.7687  0.7647
 8758TIP3    H226239   6.144   0.177   5.356  0.1902 -1.2665 -2.9562
 8759TIP3   OH226240   0.653   5.918   3.156 -0.3200 -0.3807  0.4404
 8759TIP3    H126241   0.704   5.998   3.168 -1.1529  0.1208  0.7885
 8759TIP3    H226242   0.717   5.851   3.134  0.2817  0.6418 -1.0980
 8760TIP3   OH226243   3.891   4.084   2.082 -0.0535 -0.0858  0.1887
 8760TIP3    H126244   3.934   4.000   2.095  0.9338  0.4965  0.8351
 8760TIP3    H226245   3.826   4.089   2.152 -0.0519 -0.2728  0.2045
 8761TIP3   OH226246   3.262   3.186   2.620  0.2253  0.4336  0.4572
 8761TIP3    H126247   3.325   3.145   2.679 -0.1707  1.6080  1.7561
 8761TIP3    H226248   3.268   3.280   2.638 -1.3933  0.6423  0.1366
 8762TIP3   OH226249   2.340   5.517   0.484  0.6444  0.1863  0.2008
 8762TIP3    H126250   2.355   5.602   0.525  1.6846 -0.3300  0.9169
 8762TIP3    H226251   2.408   5.460   0.519  0.2415 -0.8393 -0.6097
 8763TIP3   OH226252   5.178   1.324   4.161 -0.2002  0.1211 -0.4409
 8763TIP3    H126253   5.192   1.418   4.162 -2.1311  0.4533 -0.0244
 8763TIP3    H226254   5.244   1.289   4.220 -0.5295  1.4125  0.7436
 8764TIP3   OH226255   7.039   6.319   0.019  0.1197 -0.5299  0.3024
 8764TIP3    H126256   6.961   6.306   0.073  0.4823  0.0446  0.9873
 8764TIP3    H226257   7.047   6.238  -0.031 -0.3063 -1.0331  1.0233
 8765TIP3   OH226258   1.117   0.075   0.473 -0.1354  0.2342  0.2159
 8765TIP3    H126259   1.143   0.045   0.386  0.4571 -0.0573  0.4865
 8765TIP3    H226260   1.022   0.075   0.471 -0.1266  0.2601 -0.4437
 8766TIP3   OH226261   0.300   2.158   0.319  0.2502  0.1416  0.2675
 8766TIP3    H126262   0.230   2.131   0.259  0.0906 -0.4024  0.6946
 8766TIP3    H226263   0.373   2.100   0.299 -0.3570 -1.2202  1.7387
 8767TIP3   OH226264   2.977   0.772   0.518 -0.6261  0.2104 -0.1080
 8767TIP3    H126265   2.995   0.816   0.435  0.5575 -1.6658 -0.9045
 8767TIP3    H226266   2.900   0.718   0.501 -0.7232  0.2487  0.1987
 8768TIP3   OH226267   5.075   1.735   1.794 -0.5751 -0.1869  0.3617
 8768TIP3    H126268   5.031   1.689   1.722  1.8193  0.5678 -1.7136
 8768TIP3    H226269   5.011   1.800   1.823 -1.3567 -0.0321 -1.5822
 8769TIP3   OH226270   4.069   2.738   4.397 -0.0862  0.4799 -0.6908
 8769TIP3    H126271   4.063   2.676   4.469 -0.9529  1.1109 -0.2087
 8769TIP3    H226272   3.988   2.726   4.348 -0.7874  1.9710  0.0380
 8770TIP3   OH226273   6.485   1.452   4.492 -0.0299  0.5533  0.2007
 8770TIP3    H126274   6.579   1.460   4.503 -0.1886  1.2072  1.3844
 8770TIP3    H226275   6.470   1.456   4.398  1.1323  0.2575 -0.0025
 8771TIP3   OH226276   1.765   3.461   0.577 -0.2790  0.3768  0.1290
 8771TIP3    H126277   1.750   3.514   0.655  0.3118 -0.3506  0.7543
 8771TIP3    H226278   1.720   3.508   0.507 -2.6223 -0.0359  1.2780
 8772TIP3   OH226279   2.667   5.753   4.748 -0.7958  0.2052 -0.2013
 8772TIP3    H126280   2.635   5.685   4.689  1.1606 -0.9617  0.0032
 8772TIP3    H226281   2.696   5.823   4.689  0.8324 -0.8131 -0.6865
 8773TIP3   OH226282   3.113   5.512   4.886  0.1870 -0.4111 -0.0470
 8773TIP3    H126283   3.119   5.508   4.982 -0.9515 -0.2139  0.0477
 8773TIP3    H226284   3.190   5.465   4.855  3.1449  3.3083  0.9321
 8774TIP3   OH226285   7.136   1.854   5.282 -0.2645  0.1439 -0.1996
 8774TIP3    H126286   7.184   1.898   5.212  0.6002  1.1270  0.9581
 8774TIP3    H226287   7.054   1.903   5.290  0.2756  0.9714  0.4343
 8775TIP3   OH226288   4.500   1.254   0.140 -0.3694 -0.4475  0.4820
 8775TIP3    H126289   4.494   1.343   0.105  2.3914 -0.0274  0.8440
 8775TIP3    H226290   4.416   1.240   0.184 -1.0621  1.7795  0.0059
 8776TIP3   OH226291   0.246   3.301   2.521  0.4322  0.6859  0.0047
 8776TIP3    H126292   0.164   3.327   2.563 -0.2990 -0.5592 -0.5821
 8776TIP3    H226293   0.280   3.231   2.576  0.1490 -0.0393 -0.7096
 8777TIP3   OH226294   5.382   5.930   4.086 -0.3116 -0.1690  0.2565
 8777TIP3    H126295   5.451   5.954   4.025 -1.8721 -0.2642 -1.6442
 8777TIP3    H226296   5.338   5.856   4.044 -0.4425 -1.3471  2.3079
 8778TIP3   OH226297   2.907   1.956   3.287 -0.3254  0.3062  0.0357
 8778TIP3    H126298   2.824   1.920   3.317  0.8014 -2.3947  0.1485
 8778TIP3    H226299   2.929   2.023   3.352 -1.4975 -0.2798  1.0682
 8779TIP3   OH226300   2.657   3.173   1.481 -0.1157 -0.0539 -0.0487
 8779TIP3    H126301   2.738   3.136   1.515  0.8520  0.5640 -1.5854
 8779TIP3    H226302   2.662   3.266   1.505 -0.5868 -0.1035  0.2461
 8780TIP3   OH226303   0.524   1.454   4.660  0.2955  0.1477  0.0464
 8780TIP3    H126304   0.512   1.386   4.593 -2.1920 -0.6147  1.1338
 8780TIP3    H226305   0.548   1.532   4.611  1.4200 -1.0479 -1.4188
 8781TIP3   OH226306   1.918   2.678   2.709  0.4575  0.5599 -0.2747
 8781TIP3    H126307   1.863   2.743   2.666 -0.3497  1.1510  1.5489
 8781TIP3    H226308   1.898   2.596   2.665 -0.3883  1.1259 -0.9571
 8782TIP3   OH226309   1.191   0.989   4.064  0.4389 -0.0538 -0.4838
 8782TIP3    H126310   1.234   0.955   3.985  1.8451  1.2062 -0.2950
 8782TIP3    H226311   1.263   1.002   4.126 -0.4565  0.4546  0.4657
 8783TIP3   OH226312   6.485   2.992   2.609 -0.1694 -0.0199 -0.0866
 8783TIP3    H126313   6.526   2.927   2.666 -1.6110 -0.7517  0.1515
 8783TIP3    H226314   6.452   2.942   2.535 -0.6246  0.5583 -0.2821
 8784TIP3   OH226315   0.241   0.705   2.155  0.0704 -0.5297 -0.6752
 8784TIP3    H126316   0.161   0.745   2.121  1.1735  2.5828  0.0372
 8784TIP3    H226317   0.226   0.698   2.249  0.2607 -0.9082 -0.6727
 8785TIP3   OH226318   3.747   5.222   3.354  0.7085 -0.0637  0.1018
 8785TIP3    H126319   3.817   5.242   3.292  1.0788 -1.1573  0.1411
 8785TIP3    H226320   3.673   5.195   3.299  0.4583  0.6488  0.0786
 8786TIP3   OH226321   3.571   4.416   3.896  0.0907 -0.2936 -0.8143
 8786TIP3    H126322   3.581   4.362   3.817 -0.3912  0.0919 -1.1499
 8786TIP3    H226323   3.493   4.469   3.879  0.0848 -0.0765 -0.1485
 8787TIP3   OH226324   6.534   4.993   5.802 -0.2435 -0.2151  0.1073
 8787TIP3    H126325   6.458   5.050   5.796 -1.0407 -1.3623 -1.0439
 8787TIP3    H226326   6.507   4.922   5.861 -0.2175 -0.8432 -0.6296
 8788TIP3   OH226327   1.593   3.279   2.091 -0.8273  0.1861  0.0256
 8788TIP3    H126328   1.519   3.288   2.031 -0.0417  0.0487 -0.9992
 8788TIP3    H226329   1.670   3.290   2.035 -0.0736  0.7060  1.1328
 8789TIP3   OH226330   6.649   0.229   3.223  0.1503 -0.2682  0.1043
 8789TIP3    H126331   6.668   0.321   3.202 -1.1893 -0.0584 -0.3490
 8789TIP3    H226332   6.717   0.179   3.179 -0.2589  0.4154 -1.3646
 8790TIP3   OH226333   0.715   2.250   2.047 -0.1763 -0.2124  0.0658
 8790TIP3    H126334   0.688   2.342   2.034  0.5058 -0.2443 -2.0687
 8790TIP3    H226335   0.643   2.211   2.096  0.4554  1.9059  2.9608
 8791TIP3   OH226336   0.564   0.259   2.366  0.0055  0.7670 -0.7228
 8791TIP3    H126337   0.550   0.349   2.395 -0.6591  0.1809  0.9293
 8791TIP3    H226338   0.652   0.259   2.328  0.4678  1.8815  0.2866
 8792TIP3   OH226339   5.434   3.028   1.960 -0.3536 -0.2462 -0.4744
 8792TIP3    H126340   5.401   3.067   2.040  1.4903 -0.9265  0.6772
 8792TIP3    H226341   5.488   2.955   1.989 -1.5293 -2.0499 -2.4368
 8793TIP3   OH226342   0.549   1.101   3.320  0.0031 -0.5049 -0.1567
 8793TIP3    H126343   0.619   1.161   3.344  0.3188 -0.0994 -1.9077
 8793TIP3    H226344   0.502   1.083   3.402  0.2001  1.7268  0.4983
 8794TIP3   OH226345   0.700   3.975   0.871  0.0469  0.1072  0.2325
 8794TIP3    H126346   0.786   3.981   0.912 -0.8587 -0.5579  2.3144
 8794TIP3    H226347   0.645   4.035   0.921 -0.7149  0.5977 -1.1330
 8795TIP3   OH226348   6.702   1.503   3.280 -0.6037  0.2429 -0.7067
 8795TIP3    H126349   6.706   1.598   3.286 -1.1909  0.2213  0.0186
 8795TIP3    H226350   6.699   1.473   3.370  0.7754 -0.5328 -0.8843
 8796TIP3   OH226351   0.889   1.834   1.818 -0.3227 -0.3850  0.3176
 8796TIP3    H126352   0.839   1.915   1.813  0.2377 -0.0670 -0.5879
 8796TIP3    H226353   0.957   1.852   1.883  0.3277  0.2044 -0.4929
 8797TIP3   OH226354   2.067   1.492   5.195  0.3520 -0.3968 -0.1086
 8797TIP3    H126355   2.084   1.415   5.141 -1.2236 -0.7439 -0.1626
 8797TIP3    H226356   2.008   1.462   5.264 -1.7567  1.0428 -1.1417
 8798TIP3   OH226357   3.651   4.596   1.607 -0.0754  0.1180  0.3150
 8798TIP3    H126358   3.671   4.651   1.683  0.8935 -0.9267  0.8491
 8798TIP3    H226359   3.675   4.649   1.531  0.4139  0.6055  0.8026
 8799TIP3   OH226360   1.647   1.190   5.166 -0.7243  0.4469  0.2439
 8799TIP3    H126361   1.589   1.162   5.095 -0.7515  0.4019  0.2840
 8799TIP3    H226362   1.659   1.111   5.220  1.6675 -0.3850 -1.3239
 8800TIP3   OH226363   0.832   6.422   0.845  0.5573 -0.4439 -0.1465
 8800TIP3    H126364   0.744   6.458   0.830  0.3686 -1.2875 -1.2205
 8800TIP3    H226365   0.819   6.355   0.912  0.1164 -1.4808 -1.2316
 8801TIP3   OH226366   6.763   2.738   0.507 -0.4904 -0.4197 -0.2872
 8801TIP3    H126367   6.725   2.650   0.515 -1.6545 -0.0729 -1.6371
 8801TIP3    H226368   6.700   2.795   0.552 -0.3621 -0.1204 -0.4905
 8802TIP3   OH226369   1.315   6.632   3.442  0.0036  0.2978 -0.0618
 8802TIP3    H126370   1.341   6.605   3.353 -2.2725 -0.3772 -0.5794
 8802TIP3    H226371   1.251   6.701   3.428 -2.3704 -1.5745  0.9020
 8803TIP3   OH226372   1.560   2.295   1.832 -0.1601 -0.0566 -0.2778
 8803TIP3    H126373   1.521   2.370   1.877 -0.6925 -0.2336 -0.4296
 8803TIP3    H226374   1.497   2.274   1.763  0.0839 -0.5166 -0.3629
 8804TIP3   OH226375   5.492   3.481   3.521  0.8626 -0.2787 -0.3823
 8804TIP3    H126376   5.455   3.541   3.586  0.2538  0.4081 -1.3435
 8804TIP3    H226377   5.548   3.423   3.572 -1.4411 -1.3049  1.1267
 8805TIP3   OH226378   1.577   0.415   2.370 -0.0561 -0.2147 -0.1020
 8805TIP3    H126379   1.535   0.486   2.322 -1.6024 -2.6090 -2.5478
 8805TIP3    H226380   1.614   0.359   2.302  2.4588 -1.0357  1.8027
 8806TIP3   OH226381   1.694   5.833   3.441 -0.9340  0.4127 -0.4400
 8806TIP3    H126382   1.759   5.808   3.506  0.4711 -0.3676 -2.0774
 8806TIP3    H226383   1.675   5.925   3.460 -0.1103  0.3674  0.6773
 8807TIP3   OH226384   1.642   0.400   1.665  0.0013  0.3108 -0.1253
 8807TIP3    H126385   1.584   0.325   1.670 -0.9111  0.8853 -1.4775
 8807TIP3    H226386   1.589   0.469   1.625  2.0899  0.3289 -3.1282
 8808TIP3   OH226387   4.633   1.767   1.504 -0.1984 -0.2372 -0.1898
 8808TIP3    H126388   4.608   1.827   1.434  0.8036  0.7694  0.2806
 8808TIP3    H226389   4.550   1.732   1.536 -0.8117  0.8944 -0.4783
 8809TIP3   OH226390   2.374   5.136   5.075 -0.3870  0.0246  0.0036
 8809TIP3    H126391   2.466   5.154   5.097 -0.0434 -1.5394 -0.0240
 8809TIP3    H226392   2.336   5.222   5.061  0.1938  1.0085  3.4064
 8810TIP3   OH226393   3.274   6.020   3.009  0.1257  0.4293 -0.2479
 8810TIP3    H126394   3.233   5.969   3.079 -0.1246 -0.6011 -1.1328
 8810TIP3    H226395   3.248   5.977   2.928  0.3627  1.6419 -1.0019
 8811TIP3   OH226396   3.458   0.139   3.670 -0.4132 -0.0180 -0.0193
 8811TIP3    H126397   3.489   0.088   3.745 -1.8684  1.4514  1.6851
 8811TIP3    H226398   3.466   0.079   3.596  2.4769 -1.0437  0.9812
 8812TIP3   OH226399   0.468   1.415   5.861  0.4989  0.0114  0.6711
 8812TIP3    H126400   0.543   1.357   5.875  1.6624  1.1587 -0.4905
 8812TIP3    H226401   0.507   1.500   5.844 -1.1545  1.0820  1.9160
 8813TIP3   OH226402   5.622   0.567   1.289  0.0886 -0.3781 -0.1468
 8813TIP3    H126403   5.547   0.509   1.273 -1.3412  1.3186  0.2102
 8813TIP3    H226404   5.599   0.616   1.367 -0.3182  3.0591 -2.2335
 8814TIP3   OH226405   1.410   1.112   3.097  0.0464 -0.2248 -0.1940
 8814TIP3    H126406   1.438   1.183   3.155  0.8883 -1.2952  0.7609
 8814TIP3    H226407   1.370   1.156   3.023 -0.6165  1.2114  0.9688
 8815TIP3   OH226408   2.639   0.084   2.941  0.1011  0.4213  0.0744
 8815TIP3    H126409   2.602   0.127   3.018 -0.1447 -1.6876  1.2079
 8815TIP3    H226410   2.611  -0.008   2.949  2.7249 -0.5566 -0.8202
 8816TIP3   OH226411   3.936   4.490   5.650 -0.0670  0.4474  0.3261
 8816TIP3    H126412   3.877   4.514   5.722 -0.4943 -0.3694  0.2647
 8816TIP3    H226413   3.944   4.395   5.656  0.8297  0.4974  0.0025
 8817TIP3   OH226414   1.911   5.839   0.491  0.4332  0.8154  0.0268
 8817TIP3    H126415   1.834   5.823   0.547  1.1205  1.7512  1.2994
 8817TIP3    H226416   1.882   5.815   0.403 -0.8814 -0.1467  0.6874
 8818TIP3   OH226417   0.674   4.876   1.341 -0.1122 -0.0501  0.2843
 8818TIP3    H126418   0.613   4.811   1.377 -0.2316 -0.6221 -0.9096
 8818TIP3    H226419   0.648   4.887   1.250 -0.6144  2.3131  0.6365
 8819TIP3   OH226420   3.927   0.320   4.271 -0.1722 -0.1833 -0.1407
 8819TIP3    H126421   3.911   0.274   4.354  2.1790 -1.1287 -0.1356
 8819TIP3    H226422   3.893   0.261   4.204 -1.3212  0.1999  0.0902
 8820TIP3   OH226423   6.379   4.537   5.198 -0.1147  0.4129 -0.3226
 8820TIP3    H126424   6.387   4.490   5.281  0.3919  0.2162 -0.4765
 8820TIP3    H226425   6.285   4.554   5.189 -0.0815  1.2707  0.7409
 8821TIP3   OH226426   3.776   2.503   2.490 -0.2019 -0.0491 -0.2203
 8821TIP3    H126427   3.847   2.567   2.485 -1.2434  1.0802 -1.0175
 8821TIP3    H226428   3.801   2.445   2.562  1.7528  0.0262 -0.7979
 8822TIP3   OH226429   3.646   1.824   2.103 -0.0215 -0.2898  0.5142
 8822TIP3    H126430   3.732   1.782   2.110  0.0150 -0.4540 -0.7499
 8822TIP3    H226431   3.631   1.861   2.190  2.0101  1.0400  0.3923
 8823TIP3   OH226432   3.484   1.973   0.354 -0.0935 -0.0845  0.8001
 8823TIP3    H126433   3.432   1.946   0.430 -3.1773  2.9164 -0.0402
 8823TIP3    H226434   3.481   2.068   0.355  2.5414  0.1516 -1.3635
 8824TIP3   OH226435   3.858   5.353   0.888  0.0875 -0.0837  0.1025
 8824TIP3    H126436   3.944   5.340   0.849  0.5876  0.2550  1.0440
 8824TIP3    H226437   3.873   5.337   0.982 -0.8913 -0.0992  0.2601
 8825TIP3   OH226438   3.776   5.219   0.643 -0.1906 -0.0892 -0.2099
 8825TIP3    H126439   3.796   5.266   0.724 -2.9947 -1.5995  1.5227
 8825TIP3    H226440   3.744   5.134   0.672  0.2300 -1.3236 -3.0274
 8826TIP3   OH226441   3.521   0.949   3.503  0.2461  0.3114  0.0493
 8826TIP3    H126442   3.581   0.880   3.531 -0.3219  0.4562  1.7183
 8826TIP3    H226443   3.452   0.951   3.570  0.4984  2.8052  0.3591
 8827TIP3   OH226444   5.005   5.331   4.332 -0.3590  0.3844  0.3475
 8827TIP3    H126445   4.944   5.322   4.405 -0.8030  0.4949 -0.0072
 8827TIP3    H226446   5.014   5.242   4.297  0.6529  0.1482  1.1681
 8828TIP3   OH226447   1.861   2.995   1.108 -0.1100 -0.6820 -0.0517
 8828TIP3    H126448   1.891   3.066   1.052 -0.6772  0.1877  0.7329
 8828TIP3    H226449   1.811   2.938   1.049  0.4031 -0.4673 -0.6973
 8829TIP3   OH226450   0.098   6.753   4.661  0.0122 -0.3410  0.2381
 8829TIP3    H126451   0.074   6.825   4.602 -0.4572  1.7248  2.7722
 8829TIP3    H226452   0.112   6.679   4.603 -0.9612  1.3865 -2.4107
 8830TIP3   OH226453   1.131   0.448   5.089  0.0668 -0.1447 -0.6229
 8830TIP3    H126454   1.125   0.411   5.178  2.6342  0.1351 -0.2454
 8830TIP3    H226455   1.043   0.439   5.053 -0.8373 -1.0850  1.6333
 8831TIP3   OH226456   0.750   6.339   3.814 -0.3469  0.2777 -0.2668
 8831TIP3    H126457   0.681   6.364   3.753 -1.6552 -0.3694  0.8855
 8831TIP3    H226458   0.822   6.308   3.758 -1.5524 -0.4435 -1.4737
 8832TIP3   OH226459   1.043   3.792   0.105 -0.2801  0.0725  0.0163
 8832TIP3    H126460   1.024   3.703   0.074  0.3611  0.5570 -1.9388
 8832TIP3    H226461   1.102   3.827   0.039  0.5112  1.5246  1.4439
 8833TIP3   OH226462   4.422   6.337   0.123 -0.0903  0.8771  0.6749
 8833TIP3    H126463   4.459   6.416   0.084 -1.0276  1.5761  1.1638
 8833TIP3    H226464   4.479   6.267   0.092  0.4911  1.6768 -0.1454
 8834TIP3   OH226465   3.904   3.642   4.259 -0.2553  0.6842 -0.3593
 8834TIP3    H126466   3.891   3.558   4.301  3.7407  0.0270 -0.0900
 8834TIP3    H226467   3.918   3.621   4.166  2.5503  0.7404 -0.0097
 8835TIP3   OH226468   5.249   3.099   0.807 -0.1479  0.6302 -0.4558
 8835TIP3    H126469   5.275   3.106   0.898 -0.8639 -0.3527 -0.1558
 8835TIP3    H226470   5.201   3.016   0.802 -0.6077  0.9426 -1.6010
 8836TIP3   OH226471   3.561   0.567   4.066  0.0221  1.1345 -0.0495
 8836TIP3    H126472   3.593   0.650   4.100 -0.7932  1.6318 -0.4715
 8836TIP3    H226473   3.553   0.580   3.972 -1.4561  1.0652  0.0330
 8837TIP3   OH226474   1.273   3.968   3.250 -0.2071 -0.3014 -0.4030
 8837TIP3    H126475   1.186   3.934   3.274 -0.1963  0.7062  1.2768
 8837TIP3    H226476   1.254   4.043   3.194 -0.2848 -1.8104 -2.5023
 8838TIP3   OH226477   1.191   3.973   1.218 -0.6628 -0.0892 -0.3232
 8838TIP3    H126478   1.181   3.952   1.125 -0.9382  1.4912 -0.6790
 8838TIP3    H226479   1.159   3.895   1.263 -0.7023 -0.8165 -1.5402
 8839TIP3   OH226480   4.875   1.591   2.024  0.1118  0.0701 -0.8073
 8839TIP3    H126481   4.801   1.562   1.971  0.7331  0.9618 -2.2152
 8839TIP3    H226482   4.904   1.672   1.983 -0.8005  2.1243  2.2276
 8840TIP3   OH226483   2.831   4.206   5.093  0.3977 -0.1629 -0.4323
 8840TIP3    H126484   2.801   4.247   5.175 -1.4174  0.3692 -1.3176
 8840TIP3    H226485   2.814   4.113   5.105 -1.8957  0.1346 -0.9558
 8841TIP3   OH226486   2.391   4.437   4.271 -0.4225 -0.0311  0.2240
 8841TIP3    H126487   2.372   4.409   4.182 -1.7605  0.0057  0.4858
 8841TIP3    H226488   2.460   4.376   4.300 -0.6361 -0.6449 -0.5110
 8842TIP3   OH226489   5.952   0.333   5.130  0.1698  1.2482  0.2979
 8842TIP3    H126490   5.998   0.410   5.163  0.7812  0.6695  0.8477
 8842TIP3    H226491   5.954   0.271   5.203  0.7069  0.2876 -0.5014
 8843TIP3   OH226492   0.737   1.955   3.630 -0.3422  0.1945  0.3403
 8843TIP3    H126493   0.764   1.887   3.691  1.3086 -0.5795 -1.1727
 8843TIP3    H226494   0.674   1.912   3.572 -0.6914  0.4817  0.4998
 8844TIP3   OH226495   2.753   0.652   1.210  0.4208 -0.1865 -0.3729
 8844TIP3    H126496   2.707   0.733   1.233 -1.3705 -1.2269 -0.0574
 8844TIP3    H226497   2.835   0.657   1.259 -0.4892  0.5871  1.1653
 8845TIP3   OH226498   6.395   1.571   5.854 -0.3127  0.4796  0.4843
 8845TIP3    H126499   6.394   1.475   5.855 -0.3547  0.4796  0.4483
 8845TIP3    H226500   6.354   1.594   5.771 -1.7229  0.5527  1.1749
 8846TIP3   OH226501   2.246   2.718   5.298  0.3296  0.4299  0.6167
 8846TIP3    H126502   2.321   2.732   5.356 -0.0374  0.7146  1.0336
 8846TIP3    H226503   2.230   2.623   5.301  0.2729  0.4522  1.0357
 8847TIP3   OH226504   2.434   2.462   5.406  0.4741  0.3725 -0.0391
 8847TIP3    H126505   2.342   2.447   5.427 -0.0986 -1.7163 -3.3719
 8847TIP3    H226506   2.483   2.423   5.479 -1.2620 -0.2770  0.8199
 8848TIP3   OH226507   0.681   3.427   2.184 -0.0590 -0.0597  0.1912
 8848TIP3    H126508   0.591   3.421   2.217  0.2721 -0.1282  1.1228
 8848TIP3    H226509   0.678   3.387   2.098 -0.8951 -0.1900  0.2706
 8849TIP3   OH226510   1.324   4.095   5.300 -0.2701 -0.0314  0.2656
 8849TIP3    H126511   1.327   4.050   5.384 -0.2461  1.3290  1.0258
 8849TIP3    H226512   1.385   4.168   5.309  1.1285 -0.8798 -1.5795
 8850TIP3   OH226513   5.823   3.169   3.377 -0.5522 -0.0985 -0.1309
 8850TIP3    H126514   5.863   3.240   3.427 -0.8136  0.0629 -0.1433
 8850TIP3    H226515   5.730   3.193   3.373 -0.5146 -0.0429 -0.7961
 8851TIP3   OH226516   1.408   2.155   4.611 -0.1978  0.2612  0.1012
 8851TIP3    H126517   1.445   2.243   4.609 -1.2838  0.7300 -0.6225
 8851TIP3    H226518   1.401   2.129   4.519  0.2974 -0.6769  0.3126
 8852TIP3   OH226519   7.132   1.053   1.593  0.3683 -0.0282 -0.5191
 8852TIP3    H126520   7.048   1.028   1.556 -0.5392  0.8449  0.8765
 8852TIP3    H226521   7.153   1.137   1.552  0.8859 -0.5379 -1.3281
 8853TIP3   OH226522   2.351   4.046   4.667 -0.0098 -0.2420 -0.4107
 8853TIP3    H126523   2.381   3.965   4.708  1.3938  1.0180  1.2015
 8853TIP3    H226524   2.298   4.089   4.735 -0.5123  0.3216 -1.1464
 8854TIP3   OH226525   6.156   5.583   5.147  0.2997 -0.1032 -0.0029
 8854TIP3    H126526   6.219   5.644   5.109  1.5187 -0.8406  0.7990
 8854TIP3    H226527   6.097   5.639   5.198  2.5185  0.3142  2.3002
 8855TIP3   OH226528   3.355   2.172   2.379 -0.4087  0.6424 -0.1210
 8855TIP3    H126529   3.319   2.236   2.440  1.1838 -1.4686  3.3620
 8855TIP3    H226530   3.446   2.199   2.367  0.3995 -0.9747  1.7002
 8856TIP3   OH226531   0.069   4.305   5.199 -0.5186  0.3874  0.7164
 8856TIP3    H126532   0.156   4.271   5.221  0.5514  0.9186 -2.1657
 8856TIP3    H226533   0.076   4.328   5.106 -3.8923  0.0460  0.2492
 8857TIP3   OH226534   0.634   2.294   0.178 -0.2587  0.1650 -0.3821
 8857TIP3    H126535   0.652   2.243   0.258 -0.4378  0.4453 -0.1607
 8857TIP3    H226536   0.691   2.371   0.186  0.0736 -0.0354 -0.7572
 8858TIP3   OH226537   3.297   0.936   0.953 -0.1659  0.7362  0.4109
 8858TIP3    H126538   3.331   0.987   1.026 -0.7169  0.8808  0.5701
 8858TIP3    H226539   3.282   0.849   0.989 -1.0238  0.9681  0.6443
 8859TIP3   OH226540   4.734   6.753   1.421  0.3126 -0.1090  0.5845
 8859TIP3    H126541   4.782   6.806   1.485 -1.3816  1.4137  0.6787
 8859TIP3    H226542   4.705   6.676   1.469 -0.8269  0.9517  1.6674
 8860TIP3   OH226543   2.279   5.692   0.102 -0.0016 -0.6733 -0.1059
 8860TIP3    H126544   2.226   5.624   0.142 -0.7078 -1.9525 -2.9876
 8860TIP3    H226545   2.231   5.718   0.023  1.5030  1.3595 -0.4607
 8861TIP3   OH226546   5.153   0.312   0.236 -0.2305 -0.0260 -0.1371
 8861TIP3    H126547   5.186   0.362   0.161  2.6271  0.1644  1.1173
 8861TIP3    H226548   5.200   0.229   0.231  0.3392  0.1588  1.6673
 8862TIP3   OH226549   4.773   4.868   2.800 -0.1203 -0.0405  0.2504
 8862TIP3    H126550   4.795   4.938   2.738 -0.8894  0.9318  1.0286
 8862TIP3    H226551   4.815   4.790   2.765  0.7727  0.8194 -0.6417
 8863TIP3   OH226552   4.370   4.700   4.601 -0.4568 -0.3780 -0.0857
 8863TIP3    H126553   4.466   4.705   4.606 -0.4838 -0.7839  1.2225
 8863TIP3    H226554   4.353   4.643   4.526  0.3661 -1.4668  0.5279
 8864TIP3   OH226555   6.177   5.341   2.629 -0.1182 -0.4173 -0.2435
 8864TIP3    H126556   6.269   5.355   2.605 -0.0480  0.7480  0.5896
 8864TIP3    H226557   6.145   5.429   2.651 -2.2520 -0.3708 -3.1470
 8865TIP3   OH226558   3.366   4.263   1.251  0.3945  0.0631  0.5517
 8865TIP3    H126559   3.351   4.346   1.205  1.8125  0.5394  0.9104
 8865TIP3    H226560   3.327   4.197   1.194  0.7285  0.8066 -0.5744
 8866TIP3   OH226561   0.217   2.817   5.178  0.1302 -0.0070 -0.2196
 8866TIP3    H126562   0.303   2.857   5.166 -0.1114  0.2464 -1.2494
 8866TIP3    H226563   0.167   2.881   5.229  0.1606  0.4243 -0.7202
 8867TIP3   OH226564   1.337   0.171   2.957  0.4720  0.4091 -0.1494
 8867TIP3    H126565   1.410   0.133   3.006 -1.1149 -1.2917  1.0506
 8867TIP3    H226566   1.349   0.265   2.965  1.3294  0.1798  1.9134
 8868TIP3   OH226567   2.886   0.348   2.647  0.0963  0.3374 -0.1203
 8868TIP3    H126568   2.838   0.379   2.724 -0.8267 -1.2117 -0.0320
 8868TIP3    H226569   2.974   0.330   2.680 -0.0728  0.4195  0.3903
 8869TIP3   OH226570   5.488   5.292   0.565 -0.0580  0.0891  0.0522
 8869TIP3    H126571   5.554   5.343   0.613 -0.5723  0.2816  0.5660
 8869TIP3    H226572   5.521   5.289   0.476  1.2137 -0.7734  0.5287
 8870TIP3   OH226573   2.509   6.616   4.723 -0.8269 -0.1739  0.8308
 8870TIP3    H126574   2.461   6.695   4.750 -2.7255  0.2497 -2.9852
 8870TIP3    H226575   2.584   6.649   4.674  0.3043 -0.8222  2.0866
 8871TIP3   OH226576   2.296   4.221   1.926  0.7280  0.1676 -0.2438
 8871TIP3    H126577   2.318   4.147   1.870  1.2849 -0.9156  1.3148
 8871TIP3    H226578   2.342   4.203   2.008 -1.1285  0.9644  1.0511
 8872TIP3   OH226579   6.106   2.429   4.361 -0.4762  0.4492 -0.4417
 8872TIP3    H126580   6.096   2.438   4.455  1.5765 -2.1602  0.1293
 8872TIP3    H226581   6.199   2.442   4.345 -0.4366 -1.1109 -1.7899
 8873TIP3   OH226582   4.389   4.306   1.726 -0.7968 -0.3251 -0.4827
 8873TIP3    H126583   4.412   4.214   1.742  0.2304  0.2346  1.7500
 8873TIP3    H226584   4.345   4.333   1.806 -1.5211  1.0122 -1.3127
 8874TIP3   OH226585   3.697   1.705   0.876 -0.3764  0.0975 -0.1918
 8874TIP3    H126586   3.778   1.688   0.923  1.1755  1.4831 -2.1698
 8874TIP3    H226587   3.698   1.800   0.860 -2.3864  0.1508 -0.2832
 8875TIP3   OH226588   5.634   4.050   2.459  0.4454  0.1031  0.0240
 8875TIP3    H126589   5.564   4.038   2.395  1.0301 -2.1695 -0.2763
 8875TIP3    H226590   5.592   4.034   2.544 -0.1970  2.5484  0.2510
 8876TIP3   OH226591   2.925   4.206   0.501  0.5098 -0.1311 -0.3671
 8876TIP3    H126592   3.001   4.148   0.497  1.4298  1.0061  0.1232
 8876TIP3    H226593   2.905   4.225   0.409  1.0767 -0.1092 -0.4891
 8877TIP3   OH226594   2.943   6.601   3.323  0.5208  0.0901  0.6072
 8877TIP3    H126595   2.932   6.582   3.230  0.6189 -0.4519  0.6983
 8877TIP3    H226596   3.036   6.623   3.333  0.3940  0.6821  0.4903
 8878TIP3   OH226597   3.241   4.692   1.711  0.3015 -0.1442  0.1440
 8878TIP3    H126598   3.259   4.785   1.703 -1.0316  0.2612  1.3867
 8878TIP3    H226599   3.253   4.673   1.804 -0.2657 -1.0091  0.0522
 8879TIP3   OH226600   5.056   2.457   2.524  0.4530 -0.0115 -0.2533
 8879TIP3    H126601   4.977   2.449   2.471  1.2290 -0.3079 -1.3953
 8879TIP3    H226602   5.033   2.416   2.608 -0.7281  0.2969 -0.4196
 8880TIP3   OH226603   5.706   5.349   1.094  0.1438  0.2469  0.1137
 8880TIP3    H126604   5.720   5.400   1.174  0.3839  1.3599 -0.6052
 8880TIP3    H226605   5.735   5.261   1.116 -0.0453  0.4725  1.3313
 8881TIP3   OH226606   1.721   6.748   5.105 -0.1773 -0.1620  0.6945
 8881TIP3    H126607   1.801   6.784   5.144  0.1986  0.8226 -0.8925
 8881TIP3    H226608   1.743   6.658   5.085  1.0446  0.4642 -0.9659
 8882TIP3   OH226609   2.421   6.471   4.045  0.7407  0.4227 -0.3242
 8882TIP3    H126610   2.411   6.518   3.962  2.3805  1.0170 -0.2182
 8882TIP3    H226611   2.492   6.409   4.030  2.9359  2.3668  1.3228
 8883TIP3   OH226612   5.848   3.450   1.243  0.3900  0.3488 -0.2137
 8883TIP3    H126613   5.872   3.493   1.161  0.2842  0.5791 -0.1241
 8883TIP3    H226614   5.810   3.366   1.216 -0.5739  0.8490 -0.4470
 8884TIP3   OH226615   3.470   5.812   2.127  0.2497  0.2649 -0.1467
 8884TIP3    H126616   3.388   5.790   2.084  0.1605  0.5655 -0.1292
 8884TIP3    H226617   3.512   5.727   2.143 -0.4769  0.0485  0.6935
 8885TIP3   OH226618   6.529   2.307   5.371 -0.2554 -0.4379 -0.6814
 8885TIP3    H126619   6.537   2.221   5.329  0.2955 -0.5017 -0.4524
 8885TIP3    H226620   6.537   2.288   5.464  2.0897  0.0974 -0.7240
 8886TIP3   OH226621   2.243   6.060   2.150  0.2059 -0.0530  0.0538
 8886TIP3    H126622   2.225   6.009   2.071  0.6028 -1.0067  0.5704
 8886TIP3    H226623   2.279   5.997   2.212  1.4533  0.9952  0.4474
 8887TIP3   OH226624   1.359   6.641   3.155 -0.2024  0.2947  0.0019
 8887TIP3    H126625   1.382   6.714   3.098 -1.1166 -0.6747 -1.6911
 8887TIP3    H226626   1.317   6.577   3.097  1.5988 -2.1065  1.1519
 8888TIP3   OH226627   2.525   3.272   1.152 -0.5211 -0.1631  0.2114
 8888TIP3    H126628   2.483   3.334   1.093 -0.4381 -0.2456  0.0652
 8888TIP3    H226629   2.571   3.211   1.094 -1.0029 -0.6523  0.3347
 8889TIP3   OH226630   6.857   6.681   5.699  0.2920 -0.1910 -0.2440
 8889TIP3    H126631   6.764   6.700   5.691  0.3267 -0.2386 -0.7855
 8889TIP3    H226632   6.876   6.691   5.793  0.4988  3.2934 -0.5375
 8890TIP3   OH226633   7.067   3.561   5.736 -0.2704 -0.6405  0.2287
 8890TIP3    H126634   7.035   3.644   5.772 -3.6739 -2.7313  2.6340
 8890TIP3    H226635   7.157   3.555   5.766 -0.3075  1.6427  0.9813
 8891TIP3   OH226636   4.209   2.057   5.031  0.1402  0.3539  0.0212
 8891TIP3    H126637   4.155   2.115   4.977  0.7182  0.3103 -0.6156
 8891TIP3    H226638   4.267   2.013   4.969  1.0744  0.5815  0.7089
 8892TIP3   OH226639   3.306   0.323   2.472  0.0246 -0.3003  0.1863
 8892TIP3    H126640   3.273   0.371   2.547  0.7805 -1.4242  1.2805
 8892TIP3    H226641   3.228   0.303   2.420 -0.5738  0.1078  0.9053
 8893TIP3   OH226642   2.569   5.928   1.978  0.7363 -0.3991 -0.1782
 8893TIP3    H126643   2.658   5.956   2.001 -0.2538  2.1735  1.0025
 8893TIP3    H226644   2.529   5.905   2.062 -0.2522  0.3202 -0.4346
 8894TIP3   OH226645   4.591   1.998   0.117 -0.0582 -0.1225 -0.3199
 8894TIP3    H126646   4.628   2.066   0.173 -1.3929  0.6925 -0.3964
 8894TIP3    H226647   4.664   1.971   0.060  0.5045  1.1813 -0.2401
 8895TIP3   OH226648   3.644   5.675   3.778 -0.3834  0.2846  0.4918
 8895TIP3    H126649   3.565   5.703   3.826 -0.6226 -1.8637  1.4472
 8895TIP3    H226650   3.611   5.615   3.711  0.4813 -1.2050  1.3662
 8896TIP3   OH226651   4.045   5.190   0.074  1.0765 -0.2963  0.0566
 8896TIP3    H126652   4.063   5.193  -0.021  1.0415  1.4261  0.0672
 8896TIP3    H226653   3.950   5.179   0.080  1.1423 -0.9846 -0.0953
 8897TIP3   OH226654   4.226   1.805   2.619  0.5339 -0.6585 -0.3483
 8897TIP3    H126655   4.220   1.892   2.659  0.3129 -1.1817  0.8183
 8897TIP3    H226656   4.143   1.763   2.642  0.8390 -1.3404 -0.4719
 8898TIP3   OH226657   2.469   1.929   0.414 -0.2974 -0.3639 -0.3867
 8898TIP3    H126658   2.415   2.003   0.387 -1.8590 -1.8953 -1.6810
 8898TIP3    H226659   2.426   1.894   0.492 -0.6398 -1.0039 -0.8543
 8899TIP3   OH226660   3.587   4.793   3.053 -0.5793  0.1418  0.4041
 8899TIP3    H126661   3.652   4.852   3.013 -0.3884 -0.4813 -0.2291
 8899TIP3    H226662   3.559   4.736   2.981 -0.8391 -0.4684  0.9778
 8900TIP3   OH226663   3.085   2.737   2.540 -0.1017  0.0495 -0.0591
 8900TIP3    H126664   3.049   2.805   2.482 -0.6405  0.8072  1.1246
 8900TIP3    H226665   3.064   2.655   2.496 -0.8128  0.5898 -0.7733
 8901TIP3   OH226666   5.393   3.922   5.019  0.1228 -0.8318  0.4657
 8901TIP3    H126667   5.348   3.966   5.091  2.9557  2.3267  0.5444
 8901TIP3    H226668   5.385   3.829   5.041 -0.1831 -0.0996  4.2676
 8902TIP3   OH226669   4.301   4.590   3.791  0.0850 -0.1327  0.7706
 8902TIP3    H126670   4.312   4.518   3.729 -0.0687 -0.1208  0.7290
 8902TIP3    H226671   4.245   4.554   3.860 -2.1918  0.7011 -0.5307
 8903TIP3   OH226672   0.162   3.188   0.285  0.4718 -0.0261 -0.4924
 8903TIP3    H126673   0.219   3.191   0.361  0.6039  0.2466 -0.5989
 8903TIP3    H226674   0.091   3.248   0.306  0.2210 -0.3640 -0.3607
 8904TIP3   OH226675   5.320   2.129   5.469 -0.6037 -0.1361 -0.1791
 8904TIP3    H126676   5.255   2.066   5.438 -0.9276 -0.3060  0.8251
 8904TIP3    H226677   5.287   2.214   5.438 -1.7043 -0.1325  0.9193
 8905TIP3   OH226678   6.244   1.570   4.633  0.1798 -0.0568  0.2746
 8905TIP3    H126679   6.299   1.516   4.576  0.0524 -0.5435  0.6074
 8905TIP3    H226680   6.162   1.580   4.584  0.0134 -0.6050  0.4340
 8906TIP3   OH226681   4.692   3.353   0.178  0.2123  0.1639 -0.1109
 8906TIP3    H126682   4.755   3.412   0.137  0.6923 -0.7919 -0.7963
 8906TIP3    H226683   4.744   3.280   0.211 -0.4486 -0.2685  0.0042
 8907TIP3   OH226684   4.552   5.488   2.465 -0.4216  0.3603 -0.2153
 8907TIP3    H126685   4.551   5.470   2.371 -0.7567  0.1558 -0.1759
 8907TIP3    H226686   4.620   5.431   2.500 -2.2288 -1.7414  0.0748
 8908TIP3   OH226687   3.429   5.984   2.352  0.0462 -0.3636 -0.2955
 8908TIP3    H126688   3.452   5.977   2.259 -0.1660 -0.1523 -0.3640
 8908TIP3    H226689   3.357   5.923   2.364  0.2363 -0.5728 -0.2147
 8909TIP3   OH226690   1.771   6.143   5.617 -0.6422  0.4398 -0.2806
 8909TIP3    H126691   1.718   6.140   5.538  0.6927  1.3770 -1.2677
 8909TIP3    H226692   1.761   6.233   5.648  1.3552  1.0498 -1.2492
 8910TIP3   OH226693   6.061   5.128   3.473  0.3086  0.2318 -0.4769
 8910TIP3    H126694   6.132   5.082   3.427  0.9613 -0.1067  0.8159
 8910TIP3    H226695   6.045   5.076   3.551  0.6667  1.8629  0.7458
 8911TIP3   OH226696   1.731   0.374   5.723  0.6034 -0.1379 -0.1291
 8911TIP3    H126697   1.673   0.325   5.782  1.4584  0.1768  1.0142
 8911TIP3    H226698   1.720   0.465   5.750  0.8417  0.0357 -0.6144
 8912TIP3   OH226699   1.981   5.551   3.353  0.0916  0.2052 -0.5693
 8912TIP3    H126700   1.889   5.576   3.360 -0.0744 -0.6563  0.8404
 8912TIP3    H226701   2.019   5.576   3.437  0.6989 -1.1307 -0.4223
 8913TIP3   OH226702   3.980   4.456   1.777 -0.0775 -0.0417 -1.0412
 8913TIP3    H126703   4.032   4.400   1.720  0.0557 -0.4891 -0.4882
 8913TIP3    H226704   3.986   4.415   1.863 -0.7644  0.2940 -0.8259
 8914TIP3   OH226705   0.840   2.823   2.086 -0.1684  0.4006  0.2943
 8914TIP3    H126706   0.850   2.892   2.152  1.4438 -0.8911  1.4910
 8914TIP3    H226707   0.748   2.827   2.060 -0.7377  1.2821  2.2866
 8915TIP3   OH226708   2.896   4.480   0.973 -0.6532 -0.6365 -0.3205
 8915TIP3    H126709   2.984   4.441   0.970 -1.0080 -1.4664 -0.2257
 8915TIP3    H226710   2.874   4.497   0.881  1.0085  2.8839 -0.2019
 8916TIP3   OH226711   0.141   3.593   4.973  0.6670 -0.1151  0.3084
 8916TIP3    H126712   0.189   3.659   4.922 -0.0821  0.8644  0.8275
 8916TIP3    H226713   0.068   3.568   4.917  1.6991 -1.5535 -0.4526
 8917TIP3   OH226714   0.092   1.046   4.497 -0.0902  0.0847 -0.0224
 8917TIP3    H126715   0.132   1.101   4.564 -0.2791  1.2226 -0.8169
 8917TIP3    H226716   0.118   1.085   4.414  0.6682 -1.6774 -0.6617
 8918TIP3   OH226717   3.673   3.556   4.912  0.1018 -0.4014 -0.0575
 8918TIP3    H126718   3.693   3.631   4.857  0.3496 -0.7698 -0.4787
 8918TIP3    H226719   3.753   3.541   4.963 -0.3952  0.4351  1.0083
 8919TIP3   OH226720   1.788   2.218   5.247 -0.1590 -0.1333  0.4599
 8919TIP3    H126721   1.883   2.204   5.249  0.1618  1.4328 -1.1735
 8919TIP3    H226722   1.758   2.166   5.172 -0.1327  1.5701 -0.7692
 8920TIP3   OH226723   5.425   5.463   2.563  0.0739 -0.6667 -0.1996
 8920TIP3    H126724   5.340   5.505   2.547 -0.5204 -1.9385 -0.5161
 8920TIP3    H226725   5.465   5.457   2.476  0.8709  0.6678  0.0503
 8921TIP3   OH226726   1.553   3.425   1.405  0.0759 -0.0215  0.0752
 8921TIP3    H126727   1.545   3.351   1.466 -1.0239  0.6696  0.7922
 8921TIP3    H226728   1.469   3.429   1.361  0.2409  0.6083 -0.1891
 8922TIP3   OH226729   1.457   4.380   2.224  0.2099  0.1798 -0.1522
 8922TIP3    H126730   1.441   4.472   2.201  0.2867 -0.3570 -2.5955
 8922TIP3    H226731   1.519   4.349   2.159  0.3826 -1.5532  0.7846
 8923TIP3   OH226732   4.827   5.569   2.287 -0.2338 -0.0140 -0.4368
 8923TIP3    H126733   4.803   5.653   2.325 -1.5714  0.2471 -1.7742
 8923TIP3    H226734   4.788   5.570   2.199  2.3347 -0.7448 -1.7020
 8924TIP3   OH226735   1.179   2.592   2.040 -0.0112 -0.1615  0.0603
 8924TIP3    H126736   1.167   2.624   2.129  2.5118  0.8373  0.1412
 8924TIP3    H226737   1.140   2.660   1.985  0.2675  0.2653  0.3771
 8925TIP3   OH226738   3.930   5.690   3.163 -0.2199 -0.2329  0.2844
 8925TIP3    H126739   3.847   5.697   3.115 -0.1404  0.2414  0.2113
 8925TIP3    H226740   3.989   5.751   3.118 -0.0262 -0.0780  0.7406
 8926TIP3   OH226741   3.439   0.067   2.463  0.4515 -0.0243 -0.1563
 8926TIP3    H126742   3.398   0.152   2.446  1.5421  0.5633  0.1093
 8926TIP3    H226743   3.468   0.071   2.554  1.0450 -0.4527 -0.3207
 8927TIP3   OH226744   5.740   2.811   1.538 -0.5487 -0.1022  0.0707
 8927TIP3    H126745   5.680   2.867   1.586 -1.8399 -0.9210 -0.5152
 8927TIP3    H226746   5.820   2.808   1.591 -1.1067  0.8354  0.9831
 8928TIP3   OH226747   2.149   4.200   5.085  0.0226  0.3479  0.1532
 8928TIP3    H126748   2.192   4.181   5.001 -1.2747 -0.6923 -0.2953
 8928TIP3    H226749   2.085   4.268   5.064 -1.8550 -1.4384 -0.2258
 8929TIP3   OH226750   3.483   0.000   2.198 -0.4227 -0.1972  0.6460
 8929TIP3    H126751   3.531   0.071   2.156  0.5699 -1.1347  0.1612
 8929TIP3    H226752   3.481   0.024   2.291  0.3595  0.1977  0.5637
 8930TIP3   OH226753   0.568   2.000   4.353  0.1306  0.2871 -0.2144
 8930TIP3    H126754   0.595   2.019   4.442 -1.0295  0.6485  0.0741
 8930TIP3    H226755   0.646   1.961   4.312  0.7805  0.4501  0.8341
 8931TIP3   OH226756   0.113   0.005   2.206 -0.3241 -0.2858  0.4564
 8931TIP3    H126757   0.128   0.056   2.127 -0.6394  1.1519  1.2749
 8931TIP3    H226758   0.110   0.071   2.276  0.0072 -1.5160  1.6667
 8932TIP3   OH226759   5.099   3.692   1.503 -0.3644 -0.0049 -0.0731
 8932TIP3    H126760   5.162   3.625   1.476 -1.4822 -1.7870  1.5704
 8932TIP3    H226761   5.058   3.721   1.421  0.1085 -1.3600 -0.8143
 8933TIP3   OH226762   2.284   6.371   3.795  0.4025 -0.3949  0.0260
 8933TIP3    H126763   2.197   6.381   3.757  0.4486  1.4540  0.2875
 8933TIP3    H226764   2.273   6.310   3.868 -0.7629  0.1045  0.2815
 8934TIP3   OH226765   1.072   4.919   0.590  0.0860  0.0479 -0.2726
 8934TIP3    H126766   1.126   4.996   0.577  0.0151  0.0998 -0.2622
 8934TIP3    H226767   0.983   4.953   0.598 -0.0495 -0.1023 -1.0610
 8935TIP3   OH226768   2.801   1.546   3.390 -0.2816 -0.3278 -0.3456
 8935TIP3    H126769   2.807   1.466   3.442 -0.0065  0.9211  1.6328
 8935TIP3    H226770   2.735   1.599   3.434 -1.4071  0.0491 -2.3784
 8936TIP3   OH226771   3.571   1.058   4.021 -0.2959 -0.2376  0.1325
 8936TIP3    H126772   3.562   1.078   3.928 -1.3672 -0.8122  0.0991
 8936TIP3    H226773   3.639   1.118   4.052  1.3194 -1.2052 -1.3737
 8937TIP3   OH226774   2.622   2.238   4.680 -0.1819  0.3927  0.5137
 8937TIP3    H126775   2.659   2.227   4.767  1.4801 -2.3172 -0.4092
 8937TIP3    H226776   2.535   2.198   4.685  0.0470 -0.0720  0.8659
 8938TIP3   OH226777   3.800   5.555   5.459 -0.3354  0.2322 -0.8188
 8938TIP3    H126778   3.894   5.571   5.462 -0.1809 -0.3722 -1.9188
 8938TIP3    H226779   3.764   5.613   5.526  0.8393  0.2671 -0.1888
 8939TIP3   OH226780   5.283   1.793   2.783 -0.0837 -0.0978 -0.0309
 8939TIP3    H126781   5.190   1.804   2.766 -0.2012 -2.1010 -0.9427
 8939TIP3    H226782   5.308   1.715   2.733  2.4216  1.2222 -1.0539
 8940TIP3   OH226783   2.635   1.824   3.306  0.2092  0.0450  0.1046
 8940TIP3    H126784   2.646   1.741   3.260  2.3170 -0.1787  0.9016
 8940TIP3    H226785   2.590   1.801   3.387 -0.3421 -0.1039 -0.2390
 8941TIP3   OH226786   6.688   3.561   0.782  0.5725 -0.0565 -0.2570
 8941TIP3    H126787   6.597   3.590   0.782 -0.1121 -1.8313  2.3220
 8941TIP3    H226788   6.683   3.467   0.766  1.9289 -0.2350  0.2495
 8942TIP3   OH226789   5.269   2.209   3.019  0.0489 -0.2861 -0.7884
 8942TIP3    H126790   5.230   2.288   2.983  0.7497  0.0404 -0.8604
 8942TIP3    H226791   5.346   2.240   3.068 -1.4323 -0.5910  1.9126
 8943TIP3   OH226792   0.848   1.679   3.425  0.1666  0.6205  0.1871
 8943TIP3    H126793   0.843   1.666   3.520 -1.0496  0.2603  0.0895
 8943TIP3    H226794   0.765   1.719   3.402 -0.8022 -1.8971 -1.0948
 8944TIP3   OH226795   4.744   0.903   3.191 -0.2156  0.5997 -0.5718
 8944TIP3    H126796   4.791   0.921   3.273 -2.0144 -1.6057  1.0925
 8944TIP3    H226797   4.797   0.835   3.149 -0.4076  0.1664 -0.1261
 8945TIP3   OH226798   4.463   4.282   0.209 -0.5205 -0.2280  0.0708
 8945TIP3    H126799   4.512   4.280   0.291 -0.5891  1.1731  0.1757
 8945TIP3    H226800   4.411   4.202   0.210 -0.9424  0.0321  1.6856
 8946TIP3   OH226801   5.098   5.730   1.836 -0.4434 -0.1823  0.1591
 8946TIP3    H126802   5.037   5.798   1.805 -1.1371 -0.7522  0.2373
 8946TIP3    H226803   5.059   5.699   1.918 -1.4132 -2.2566 -0.9882
 8947TIP3   OH226804   5.217   1.991   1.506  0.5139  0.4910 -0.5384
 8947TIP3    H126805   5.182   2.079   1.520 -2.7401 -0.9556  1.5377
 8947TIP3    H226806   5.264   1.970   1.587  1.1572  0.2329 -0.9678
 8948TIP3   OH226807   5.823   0.735   5.713  0.4159  0.1369 -0.0807
 8948TIP3    H126808   5.874   0.817   5.717  1.5272 -0.5816  1.5807
 8948TIP3    H226809   5.753   0.747   5.777  0.0144  0.1371 -0.5175
 8949TIP3   OH226810   3.354   0.504   1.523  0.2447 -0.4079 -0.2215
 8949TIP3    H126811   3.427   0.468   1.473  1.6216  0.9243  0.7217
 8949TIP3    H226812   3.326   0.432   1.580  1.4394 -0.6925  0.0426
 8950TIP3   OH226813   6.447   1.384   3.962  0.4244 -0.2057 -0.2244
 8950TIP3    H126814   6.393   1.306   3.953  1.1319 -0.7437  0.0400
 8950TIP3    H226815   6.401   1.452   3.913 -1.1386 -0.2928  1.0650
 8951TIP3   OH226816   5.525   2.330   1.163 -0.7237  0.5170  0.2189
 8951TIP3    H126817   5.476   2.338   1.245 -1.9212  0.2054 -0.4389
 8951TIP3    H226818   5.458   2.311   1.097  0.1395  1.3327 -0.9391
 8952TIP3   OH226819   1.813   5.155   4.325 -0.0165 -0.4930  0.1022
 8952TIP3    H126820   1.857   5.083   4.370  0.6055 -0.7195 -0.8136
 8952TIP3    H226821   1.747   5.113   4.271  0.4495 -0.4057 -0.5514
 8953TIP3   OH226822   6.653   0.908   5.545  0.6335  0.5036  0.2667
 8953TIP3    H126823   6.624   0.830   5.593  1.3008  0.0602 -0.0497
 8953TIP3    H226824   6.576   0.965   5.545  0.7084  0.6853  2.1903
 8954TIP3   OH226825   3.904   0.017   0.181  0.4066  0.0005  0.2064
 8954TIP3    H126826   3.948   0.045   0.101  2.3726 -0.5549  1.0455
 8954TIP3    H226827   3.945   0.069   0.250  0.0780 -0.8918  1.0866
 8955TIP3   OH226828   2.504   4.587   0.571  0.0635 -0.7477  0.0707
 8955TIP3    H126829   2.497   4.511   0.630  0.6112  0.9162  2.4395
 8955TIP3    H226830   2.451   4.654   0.612 -1.4528 -0.1406 -2.6571
 8956TIP3   OH226831   1.444   3.230   2.337 -0.0964  0.3784  0.1634
 8956TIP3    H126832   1.501   3.266   2.270 -1.0105  1.3783 -0.0985
 8956TIP3    H226833   1.493   3.240   2.419  0.6775 -0.0916 -0.2285
 8957TIP3   OH226834   1.658   1.391   4.994  0.0277  0.1413 -1.0278
 8957TIP3    H126835   1.577   1.437   5.018 -1.7116 -1.9970 -2.3783
 8957TIP3    H226836   1.674   1.331   5.067  1.8531  2.1919  0.3667
 8958TIP3   OH226837   3.105   3.389   2.837 -1.1332 -0.1194 -0.1811
 8958TIP3    H126838   3.125   3.407   2.929  1.6443 -0.3094 -0.6398
 8958TIP3    H226839   3.021   3.342   2.838 -0.1122 -2.1271  2.4909
 8959TIP3   OH226840   6.021   5.820   0.752 -0.1348  0.3413  0.0613
 8959TIP3    H126841   6.042   5.840   0.661 -1.8657  0.0696 -0.4312
 8959TIP3    H226842   6.106   5.799   0.792  0.5985  0.0244 -1.5856
 8960TIP3   OH226843   2.127   5.755   1.570 -0.0762  0.2164 -0.4167
 8960TIP3    H126844   2.108   5.662   1.584  0.3226 -0.0458 -1.4734
 8960TIP3    H226845   2.187   5.778   1.641 -1.7129  0.2089  1.0281
 8961TIP3   OH226846   1.699   1.486   3.131  0.3722 -0.2324 -0.5933
 8961TIP3    H126847   1.639   1.558   3.149 -1.2038 -1.4791 -0.5496
 8961TIP3    H226848   1.711   1.489   3.036  1.0821  0.6487 -0.4808
 8962TIP3   OH226849   2.964   2.074   4.633 -0.1247  0.0668 -0.7400
 8962TIP3    H126850   2.886   2.025   4.661  0.2881 -1.1210 -1.5927
 8962TIP3    H226851   2.956   2.078   4.537  0.4862  0.5898 -0.7747
 8963TIP3   OH226852   4.244   1.656   2.338  0.1593 -0.1261  0.6372
 8963TIP3    H126853   4.202   1.722   2.392  1.2619 -0.2035  1.6228
 8963TIP3    H226854   4.337   1.662   2.360  0.2949 -1.9703  0.7308
 8964TIP3   OH226855   6.936   2.392   5.791 -0.1234  0.4316  0.6969
 8964TIP3    H126856   6.939   2.487   5.778 -0.8542  0.3422 -0.2176
 8964TIP3    H226857   6.846   2.368   5.768  0.3411 -0.6115 -0.1174
 8965TIP3   OH226858   3.553   0.173   1.610 -0.7869  0.0266  0.3264
 8965TIP3    H126859   3.572   0.079   1.617 -0.0648  0.2647  2.1843
 8965TIP3    H226860   3.572   0.194   1.518  0.7517 -1.3005  0.2836
 8966TIP3   OH226861   1.848   0.399   0.520 -0.5876 -0.2697  0.0676
 8966TIP3    H126862   1.862   0.481   0.566 -1.3124  0.2349 -0.5711
 8966TIP3    H226863   1.752   0.389   0.519 -0.4634 -2.0941  1.7962
 8967TIP3   OH226864   4.513   6.106   3.561 -0.2879  1.3830  0.0870
 8967TIP3    H126865   4.449   6.058   3.614  1.5143 -0.0371  1.1159
 8967TIP3    H226866   4.519   6.192   3.602  0.9340  0.3798  2.1798
 8968TIP3   OH226867   3.316   0.951   5.895 -0.0311 -0.2503  0.5534
 8968TIP3    H126868   3.273   0.866   5.906  1.0447 -1.2874 -2.2934
 8968TIP3    H226869   3.253   1.003   5.845  0.0951 -0.0381  0.6136
 8969TIP3   OH226870   5.643   3.437   1.852  0.3693 -0.3244 -0.0027
 8969TIP3    H126871   5.595   3.493   1.912  1.6474 -0.8755  1.5854
 8969TIP3    H226872   5.729   3.477   1.845  0.6300 -0.9543 -0.4976
 8970TIP3   OH226873   4.247   1.058   5.549  0.5194  0.1477 -0.2730
 8970TIP3    H126874   4.197   1.074   5.468  0.2455  0.2569 -0.0842
 8970TIP3    H226875   4.309   0.989   5.525  0.6491  0.3951 -0.6645
 8971TIP3   OH226876   3.852   4.730   0.314 -0.5492 -0.0295 -0.0699
 8971TIP3    H126877   3.907   4.758   0.387  0.2810  1.2954 -1.1426
 8971TIP3    H226878   3.823   4.642   0.337 -3.1870  1.5144  3.5015
 8972TIP3   OH226879   5.362   2.659   5.468 -0.0602 -0.3205  0.4507
 8972TIP3    H126880   5.436   2.715   5.446  1.0413 -1.8024  0.1721
 8972TIP3    H226881   5.401   2.588   5.519 -1.1310 -1.5984 -0.4354
 8973TIP3   OH226882   6.747   0.420   0.981  0.2300  0.4694 -0.2710
 8973TIP3    H126883   6.778   0.425   0.890  1.3005  0.2589  0.0652
 8973TIP3    H226884   6.666   0.369   0.976  0.0876  0.7589 -1.1476
 8974TIP3   OH226885   0.528   2.948   2.928 -0.4171  0.2395  0.8812
 8974TIP3    H126886   0.463   2.931   2.996 -0.0436 -1.5965  0.8175
 8974TIP3    H226887   0.558   3.037   2.947 -1.5303  0.3943  2.0932
 8975TIP3   OH226888   0.099   0.635   5.509 -0.1487  0.3172 -0.1385
 8975TIP3    H126889   0.030   0.597   5.563  0.3078  0.6360  0.6836
 8975TIP3    H226890   0.108   0.725   5.540 -1.3402  1.2140 -2.1858
 8976TIP3   OH226891   6.638   4.863   4.825 -0.1153  0.2297  0.5935
 8976TIP3    H126892   6.682   4.818   4.753 -3.4139  0.6610 -1.9021
 8976TIP3    H226893   6.624   4.795   4.891  0.9072 -0.7609 -0.1837
 8977TIP3   OH226894   0.969   3.538   0.017 -0.1479  0.3298  0.0748
 8977TIP3    H126895   0.983   3.467   0.079  1.6932  1.8894  1.5871
 8977TIP3    H226896   0.875   3.535  -0.003 -0.2715 -1.9205  0.7715
 8978TIP3   OH226897   1.565   6.586   1.685  0.3840  0.2871 -0.4730
 8978TIP3    H126898   1.506   6.511   1.685 -2.1301  2.1406 -0.8453
 8978TIP3    H226899   1.618   6.575   1.765 -0.3551 -1.5129 -0.1895
 8979TIP3   OH226900   1.499   4.235   4.710 -0.1829 -0.1772  0.0964
 8979TIP3    H126901   1.553   4.195   4.779 -0.1326  0.7620  0.6126
 8979TIP3    H226902   1.531   4.195   4.629  0.6050 -0.3828  0.4941
 8980TIP3   OH226903   4.301   6.023   4.654  0.8933  0.7316 -0.6429
 8980TIP3    H126904   4.239   5.986   4.591  1.1275 -1.9269  0.5491
 8980TIP3    H226905   4.249   6.040   4.732  1.5517 -1.4178  0.3295
 8981TIP3   OH226906   2.256   0.701   1.591 -0.1103  0.3089 -0.5712
 8981TIP3    H126907   2.164   0.681   1.608 -0.1479 -0.5277 -1.6650
 8981TIP3    H226908   2.263   0.702   1.496  0.5325  2.6783 -0.5664
 8982TIP3   OH226909   1.048   3.493   1.988 -0.4873  0.6598 -0.3042
 8982TIP3    H126910   1.067   3.500   2.082  2.3550  0.6889 -0.7950
 8982TIP3    H226911   1.009   3.406   1.978  2.4128 -0.8830  0.5601
 8983TIP3   OH226912   6.327   4.518   0.042  0.5361 -0.0471 -0.3328
 8983TIP3    H126913   6.263   4.499  -0.027  0.5871  0.3502 -0.4921
 8983TIP3    H226914   6.335   4.613   0.042  1.4159 -0.1040 -0.5889
 8984TIP3   OH226915   6.756   6.756   5.292  0.9875  0.2824  0.0008
 8984TIP3    H126916   6.718   6.701   5.360 -0.9052  1.0537 -0.3670
 8984TIP3    H226917   6.720   6.722   5.210 -0.0098  1.8433 -0.2597
 8985TIP3   OH226918   1.135   2.341   4.548  0.4715 -0.4417 -0.0631
 8985TIP3    H126919   1.223   2.376   4.539  0.3646  0.5148  1.9194
 8985TIP3    H226920   1.100   2.385   4.626 -2.7461  1.3201 -2.2155
 8986TIP3   OH226921   5.052   1.386   1.683 -0.6034 -0.4693 -0.0902
 8986TIP3    H126922   5.137   1.394   1.725 -0.9747  0.6684  0.4850
 8986TIP3    H226923   5.010   1.312   1.726 -0.5151 -0.0543  0.7142
 8987TIP3   OH226924   6.217   5.338   5.233  0.0053 -0.0864  0.1810
 8987TIP3    H126925   6.191   5.426   5.204 -1.5345 -1.2698 -2.4105
 8987TIP3    H226926   6.274   5.306   5.163  2.0787 -0.5100  1.9985
 8988TIP3   OH226927   2.750   2.915   0.811  0.4064 -0.1914 -0.2465
 8988TIP3    H126928   2.801   2.930   0.732 -2.2645  0.5246 -1.9752
 8988TIP3    H226929   2.751   2.821   0.824  2.2554 -0.1851 -0.0899
 8989TIP3   OH226930   1.987   5.333   4.220  0.1955 -0.0535 -0.3343
 8989TIP3    H126931   1.956   5.416   4.256  1.9385  0.7953 -0.7092
 8989TIP3    H226932   1.924   5.268   4.253 -0.6451  1.2630  0.7641
 8990TIP3   OH226933   4.227   4.492   2.437  0.6756  0.5395 -0.0456
 8990TIP3    H126934   4.304   4.441   2.462 -0.9307 -1.5939  0.8680
 8990TIP3    H226935   4.216   4.475   2.343  1.5877  1.2892 -0.2998
 8991TIP3   OH226936   3.798   4.389   1.486 -0.0026  0.0715 -0.3222
 8991TIP3    H126937   3.762   4.445   1.555  1.2271  1.2713 -0.6160
 8991TIP3    H226938   3.737   4.315   1.481 -0.9315  0.7076  1.0048
 8992TIP3   OH226939   4.786   3.213   4.255 -0.1498 -0.2525 -0.1858
 8992TIP3    H126940   4.846   3.283   4.228 -0.4696  0.4622  0.8961
 8992TIP3    H226941   4.703   3.235   4.212 -0.5233  0.6112  0.9268
 8993TIP3   OH226942   1.577   5.387   2.323  0.5065  0.0141 -0.5181
 8993TIP3    H126943   1.552   5.355   2.409  0.8642 -0.2711 -0.5173
 8993TIP3    H226944   1.552   5.480   2.324  1.3546  0.2518  0.2340
 8994TIP3   OH226945   1.186   0.547   5.536  0.1767 -0.5322  0.2405
 8994TIP3    H126946   1.281   0.540   5.532  0.3055  1.1752 -1.9107
 8994TIP3    H226947   1.168   0.587   5.621  1.3726 -0.8905  0.6807
 8995TIP3   OH226948   6.086   6.745   1.043 -0.1772  0.4170  0.3048
 8995TIP3    H126949   6.066   6.721   1.134  0.5520  1.0790  0.6450
 8995TIP3    H226950   6.098   6.840   1.045  1.2051  0.2743 -0.2189
 8996TIP3   OH226951   6.074   1.085   3.794  0.3424 -0.4898 -0.2832
 8996TIP3    H126952   6.046   1.010   3.846  0.5764  0.4449  1.2728
 8996TIP3    H226953   5.996   1.140   3.787  0.8052  0.3892  0.9538
 8997TIP3   OH226954   0.969   3.198   0.393  0.5361 -0.1385  0.0461
 8997TIP3    H126955   1.007   3.263   0.451  2.6109 -1.3582  0.1486
 8997TIP3    H226956   0.993   3.227   0.305 -0.3895  0.3300 -0.0708
 8998TIP3   OH226957   5.722   0.376   3.325  0.5050  0.4106 -0.4629
 8998TIP3    H126958   5.717   0.471   3.318 -1.9390  0.3535 -0.0617
 8998TIP3    H226959   5.747   0.359   3.416 -1.3543  0.6868  0.1424
 8999TIP3   OH226960   0.479   1.099   2.448  0.1879  0.3197  0.1740
 8999TIP3    H126961   0.493   1.179   2.398 -0.7778  0.9445  0.8753
 8999TIP3    H226962   0.485   1.029   2.382 -0.0324  1.0447 -0.6354
 9000TIP3   OH226963   7.098   4.493   4.734 -0.0882  0.3487  0.4661
 9000TIP3    H126964   7.060   4.480   4.647  0.7394 -1.4656  0.3322
 9000TIP3    H226965   7.024   4.490   4.794 -0.4590 -0.4515 -0.0152
 9001TIP3   OH226966   1.156   5.974   5.276 -0.0402 -0.0618 -0.3087
 9001TIP3    H126967   1.134   5.991   5.185  0.6742 -2.1076 -0.9044
 9001TIP3    H226968   1.160   5.879   5.283  0.9215  0.0655  1.6286
 9002TIP3   OH226969   6.427   0.043   3.136  0.5060 -0.1740  0.4862
 9002TIP3    H126970   6.373   0.077   3.064  1.4437 -0.3705 -0.3392
 9002TIP3    H226971   6.414   0.105   3.207 -2.6634 -1.4747  1.1908
 9003TIP3   OH226972   5.856   1.144   2.682  0.1538  0.1560 -0.2607
 9003TIP3    H126973   5.836   1.237   2.686  0.4854  0.3173 -1.6856
 9003TIP3    H226974   5.771   1.102   2.667  0.1019  0.3083 -0.3930
 9004TIP3   OH226975   5.159   2.256   1.544 -0.1269  0.1188  0.1686
 9004TIP3    H126976   5.190   2.310   1.617  0.9114 -1.3239  0.8495
 9004TIP3    H226977   5.081   2.301   1.512 -0.2755  1.0921  1.8004
 9005TIP3   OH226978   6.939   6.277   3.777 -0.4820  0.3318 -0.2990
 9005TIP3    H126979   6.866   6.216   3.764  0.8964 -1.4262 -0.2068
 9005TIP3    H226980   6.966   6.264   3.868  0.7234  0.0404 -0.6859
 9006TIP3   OH226981   3.708   4.293   1.883 -0.0339  0.0719  0.2125
 9006TIP3    H126982   3.711   4.243   1.965 -0.5234 -1.7964 -0.8335
 9006TIP3    H226983   3.764   4.369   1.899  0.5161 -0.6383  2.0010
 9007TIP3   OH226984   5.081   1.065   1.459  0.1525 -0.3506  1.1020
 9007TIP3    H126985   5.032   0.983   1.469  0.4974 -0.5841  0.9111
 9007TIP3    H226986   5.025   1.131   1.498 -1.9020 -0.0282 -2.0080
 9008TIP3   OH226987   4.469   3.277   1.704  0.0295 -0.1993 -0.2248
 9008TIP3    H126988   4.442   3.310   1.618  1.5884  0.4916 -0.4758
 9008TIP3    H226989   4.415   3.198   1.717 -1.5115  0.6788 -1.0092
 9009TIP3   OH226990   5.938   6.296   1.332 -0.2499 -0.4162 -0.3243
 9009TIP3    H126991   6.006   6.362   1.319 -0.6143 -0.0507 -0.4167
 9009TIP3    H226992   5.985   6.213   1.339  0.2456 -0.1028  0.1685
 9010TIP3   OH226993   3.921   2.854   3.830 -0.1276 -0.4775  0.1921
 9010TIP3    H126994   4.013   2.836   3.848 -0.3765 -0.5663  1.4849
 9010TIP3    H226995   3.920   2.886   3.740  1.2075 -0.1144  0.2835
 9011TIP3   OH226996   5.622   4.441   1.340 -0.3431  0.2267  0.2404
 9011TIP3    H126997   5.540   4.435   1.292 -0.2557  1.5031 -0.0801
 9011TIP3    H226998   5.660   4.524   1.314  1.9361 -1.1024 -1.0071
 9012TIP3   OH226999   6.275   2.203   4.975 -0.2120 -0.1083  0.1624
 9012TIP3    H127000   6.323   2.122   4.992  1.4027  0.8488  0.3684
 9012TIP3    H227001   6.241   2.230   5.060 -1.3047 -0.8758 -0.0115
 9013TIP3   OH227002   0.458   5.021   4.465  0.0157  0.4455 -0.6203
 9013TIP3    H127003   0.471   4.941   4.414 -0.3431 -0.5483  0.8137
 9013TIP3    H227004   0.430   4.991   4.551 -0.9146  2.1518 -0.2916
 9014TIP3   OH227005   4.568   1.584   3.037  0.4727 -0.1505 -0.4442
 9014TIP3    H127006   4.556   1.666   2.988  0.5869  1.4252  1.9934
 9014TIP3    H227007   4.649   1.548   3.003  1.2448  1.5717 -0.5374
 9015TIP3   OH227008   1.265   0.215   0.682  0.4816  0.0737  0.1969
 9015TIP3    H127009   1.253   0.176   0.595  1.9842  0.8160 -0.3864
 9015TIP3    H227010   1.235   0.148   0.743 -1.5064 -0.1033 -0.9092
 9016TIP3   OH227011   4.579   1.272   2.738 -0.1276  0.4764  0.4130
 9016TIP3    H127012   4.635   1.347   2.719  2.0304 -0.9501  0.7078
 9016TIP3    H227013   4.581   1.266   2.834 -0.0854 -0.0797  0.3776
 9017TIP3   OH227014   4.040   4.706   4.906  0.6649  0.0830  0.6106
 9017TIP3    H127015   3.985   4.776   4.942  1.3240  0.5577  0.7094
 9017TIP3    H227016   4.116   4.751   4.870  1.4235 -0.6383  1.2789
 9018TIP3   OH227017   1.263   5.808   0.832  0.4616 -0.4704  0.7554
 9018TIP3    H127018   1.309   5.828   0.751  0.9585 -0.5880  1.0053
 9018TIP3    H227019   1.207   5.733   0.811 -1.1444  0.8916 -0.0965
 9019TIP3   OH227020   6.549   0.207   0.692  0.9153  0.7623  0.3925
 9019TIP3    H127021   6.623   0.150   0.711 -0.3459 -0.4347  2.0737
 9019TIP3    H227022   6.532   0.252   0.774 -0.9383  0.0973  0.4217
 9020TIP3   OH227023   1.972   3.976   4.424 -0.3196  0.0533  0.1362
 9020TIP3    H127024   2.019   3.896   4.449 -0.5308 -0.0282  0.2843
 9020TIP3    H227025   2.028   4.048   4.451 -0.0524 -0.0474 -0.1475
 9021TIP3   OH227026   3.812   5.392   2.765 -0.5928  0.3265 -0.5420
 9021TIP3    H127027   3.903   5.415   2.783 -0.3781 -1.3121  0.7549
 9021TIP3    H227028   3.792   5.324   2.830 -2.1337 -0.7211 -2.0503
 9022TIP3   OH227029   5.550   6.440   2.736  0.1022  0.5124 -0.5727
 9022TIP3    H127030   5.474   6.499   2.734  0.0107  0.5729  1.7599
 9022TIP3    H227031   5.571   6.432   2.829  0.6878 -2.4292 -0.8751
 9023TIP3   OH227032   2.482   5.265   3.680  0.6079 -0.3995  0.1467
 9023TIP3    H127033   2.457   5.286   3.590  0.1989 -0.4676  0.2420
 9023TIP3    H227034   2.536   5.186   3.672  0.9221 -0.1631 -0.0755
 9024TIP3   OH227035   2.708   1.359   1.337  0.2935 -0.2324  0.7061
 9024TIP3    H127036   2.705   1.282   1.395  0.2422  0.6897  1.9803
 9024TIP3    H227037   2.707   1.433   1.397 -0.8710  0.7940 -0.5326
 9025TIP3   OH227038   6.487   6.664   3.206 -0.3038  0.0894 -0.0409
 9025TIP3    H127039   6.418   6.698   3.149 -1.3275  0.2204  1.2213
 9025TIP3    H227040   6.453   6.579   3.237  0.5467 -0.3131 -0.1775
 9026TIP3   OH227041   5.110   2.163   4.292 -0.5011  0.6880  0.4357
 9026TIP3    H127042   5.093   2.120   4.208  2.9657  0.6160 -0.3687
 9026TIP3    H227043   5.101   2.093   4.356 -0.4021  0.0610 -0.2145
 9027TIP3   OH227044   0.822   4.823   0.852  0.5717 -0.3017  0.0997
 9027TIP3    H127045   0.738   4.778   0.851 -0.2115  1.1196 -1.1791
 9027TIP3    H227046   0.824   4.874   0.771  3.4316 -1.6225 -0.7954
 9028TIP3   OH227047   4.211   6.269   5.184 -0.3267  0.6149 -0.7144
 9028TIP3    H127048   4.151   6.195   5.187 -0.2431  0.5713  0.0044
 9028TIP3    H227049   4.231   6.280   5.091  0.4060 -0.8604 -0.7633
 9029TIP3   OH227050   3.872   6.412   4.419 -0.4292  0.0605  0.5715
 9029TIP3    H127051   3.924   6.358   4.359 -0.6793  0.8517 -0.3830
 9029TIP3    H227052   3.937   6.460   4.470 -0.1822  0.7384 -0.3355
 9030TIP3   OH227053   0.786   6.527   1.850 -0.3485 -0.1052 -0.4348
 9030TIP3    H127054   0.844   6.453   1.864 -0.3539 -0.4442 -2.0506
 9030TIP3    H227055   0.835   6.603   1.881 -0.2383 -0.7234  0.9783
 9031TIP3   OH227056   1.678   2.915   3.339  0.1230  0.2243 -0.7287
 9031TIP3    H127057   1.630   2.977   3.395 -0.0437 -1.0337  0.5687
 9031TIP3    H227058   1.769   2.944   3.342  0.2321 -0.2295  0.7872
 9032TIP3   OH227059   6.257   6.177   5.858 -0.3497 -0.1522  0.0704
 9032TIP3    H127060   6.234   6.146   5.945 -0.7949  0.9952  0.3747
 9032TIP3    H227061   6.185   6.146   5.802 -0.7114  0.1889  0.3426
 9033TIP3   OH227062   5.909   5.757   2.965 -0.5077  0.2721 -0.2715
 9033TIP3    H127063   5.885   5.849   2.961  1.6711  0.9181  0.1319
 9033TIP3    H227064   5.826   5.711   2.978 -1.7605  2.0711 -1.4044
 9034TIP3   OH227065   2.921   2.438   3.049  0.3918  0.2379 -0.2334
 9034TIP3    H127066   2.878   2.389   2.978 -0.3180 -1.0943  1.0619
 9034TIP3    H227067   2.882   2.525   3.045  1.6222  0.7581 -2.5534
 9035TIP3   OH227068   4.481   4.299   3.445  0.3707  0.0029  0.3637
 9035TIP3    H127069   4.459   4.279   3.354  0.6591 -1.4309  0.5912
 9035TIP3    H227070   4.571   4.332   3.441  0.0387  0.9011  0.0313
 9036TIP3   OH227071   6.237   1.793   3.401  0.2868  0.3280 -0.3128
 9036TIP3    H127072   6.310   1.760   3.453 -0.2251 -0.4808 -0.0865
 9036TIP3    H227073   6.278   1.830   3.323  0.9989  0.7498  0.2490
 9037TIP3   OH227074   6.012   3.484   5.573  0.1509 -0.0792  0.2266
 9037TIP3    H127075   5.977   3.417   5.632 -0.2141  0.0446  0.1530
 9037TIP3    H227076   6.074   3.533   5.626  3.0921 -2.5953 -0.5716
 9038TIP3   OH227077   2.464   2.179   4.059  0.3267  0.1625 -0.1971
 9038TIP3    H127078   2.548   2.184   4.013 -0.8409  0.6364 -2.3650
 9038TIP3    H227079   2.444   2.270   4.082 -0.6903  0.3911 -1.8330
 9039TIP3   OH227080   3.387   0.495   5.413 -0.4617  0.8627  0.2276
 9039TIP3    H127081   3.414   0.530   5.498 -0.7061  0.4405  0.4807
 9039TIP3    H227082   3.293   0.515   5.409 -0.5481  0.4580  0.2639
 9040TIP3   OH227083   0.810   0.216   0.813  0.4544  0.0297  0.6102
 9040TIP3    H127084   0.841   0.125   0.811  0.1390 -0.0787  0.6476
 9040TIP3    H227085   0.889   0.268   0.795  1.4009 -0.0505  3.7991
 9041TIP3   OH227086   4.252   2.332   3.152 -0.4259 -0.3939 -0.0665
 9041TIP3    H127087   4.238   2.392   3.226  0.2205  0.6913 -0.7935
 9041TIP3    H227088   4.258   2.245   3.193  1.7499  0.3521  1.4069
 9042TIP3   OH227089   1.754   4.252   3.891  0.0830  0.2820 -0.4130
 9042TIP3    H127090   1.696   4.177   3.880  0.4732 -0.2888  1.1016
 9042TIP3    H227091   1.727   4.291   3.974  0.9413  0.8510 -0.3835
 9043TIP3   OH227092   2.330   6.567   3.286 -0.4617 -0.3454 -0.7881
 9043TIP3    H127093   2.342   6.617   3.367  1.0293 -1.3709 -0.3369
 9043TIP3    H227094   2.277   6.492   3.312 -1.4790  0.2175 -1.1665
 9044TIP3   OH227095   3.238   4.118   4.822 -0.4344  0.0413 -0.4191
 9044TIP3    H127096   3.142   4.126   4.825 -0.6534 -0.6668 -3.1877
 9044TIP3    H227097   3.255   4.029   4.854 -0.5949  0.4198  0.7832
 9045TIP3   OH227098   0.763   0.043   2.518 -0.0916  0.5332  0.3171
 9045TIP3    H127099   0.819   0.121   2.516  0.7480 -0.0636 -0.0408
 9045TIP3    H227100   0.782  -0.002   2.436 -1.0376  0.2638  0.2360
 9046TIP3   OH227101   4.977   0.438   4.785 -0.2020 -0.3012 -0.5568
 9046TIP3    H127102   5.014   0.383   4.715  1.9906  1.2553 -0.7518
 9046TIP3    H227103   5.037   0.425   4.859  0.0660  1.3530 -0.4451
 9047TIP3   OH227104   2.672   3.246   4.261  0.2307 -0.0459 -0.1368
 9047TIP3    H127105   2.633   3.176   4.209  0.9703  1.2988 -2.7023
 9047TIP3    H227106   2.600   3.308   4.275  0.1600 -0.1309 -0.1282
 9048TIP3   OH227107   1.875   5.036   1.888 -0.1558 -0.7289 -0.2935
 9048TIP3    H127108   1.841   5.117   1.852  1.2853  0.4170  0.8022
 9048TIP3    H227109   1.876   5.050   1.983 -0.5775 -2.3200 -0.0244
 9049TIP3   OH227110   0.043   2.006   1.989 -0.2370 -0.3414  0.0979
 9049TIP3    H127111   0.105   2.003   1.917 -0.6750  0.5623 -0.3217
 9049TIP3    H227112   0.084   1.954   2.058 -0.0805 -1.7211 -0.9953
 9050TIP3   OH227113   3.874   5.773   0.197 -0.6558  0.0582 -0.0108
 9050TIP3    H127114   3.941   5.839   0.176 -1.2657  0.5056 -0.5849
 9050TIP3    H227115   3.900   5.739   0.282  1.0836 -0.7472 -0.7977
 9051TIP3   OH227116   6.884   2.044   2.683 -0.0770 -0.3674 -0.0129
 9051TIP3    H127117   6.898   2.006   2.596 -1.3503 -1.0861  0.0679
 9051TIP3    H227118   6.885   2.139   2.669  3.3274 -0.2905 -0.2019
 9052TIP3   OH227119   1.865   6.386   2.314  0.2038  0.5278 -0.2655
 9052TIP3    H127120   1.940   6.414   2.261  0.4936  0.4194  0.0876
 9052TIP3    H227121   1.848   6.296   2.287  0.0220  0.6392 -0.5410
 9053TIP3   OH227122   2.868   1.523   3.123 -0.0501 -0.0746  0.2790
 9053TIP3    H127123   2.853   1.441   3.077 -0.7844  0.3975 -0.3285
 9053TIP3    H227124   2.800   1.526   3.190  0.1416 -0.0752  0.4790
 9054TIP3   OH227125   4.494   1.034   1.568 -0.8512  0.4038  0.1015
 9054TIP3    H127126   4.543   1.101   1.522  1.4674 -0.9847  0.4018
 9054TIP3    H227127   4.473   0.969   1.501 -3.6483  1.5892 -0.3287
 9055TIP3   OH227128   1.986   2.356   0.829  0.4870 -0.5379  0.4793
 9055TIP3    H127129   2.022   2.278   0.787 -0.8530 -1.1413  0.3940
 9055TIP3    H227130   2.054   2.423   0.818  0.3357 -0.7270 -2.4546
 9056TIP3   OH227131   6.370   5.577   2.961  0.3717 -0.3757  0.3090
 9056TIP3    H127132   6.322   5.646   2.915  0.9642  0.2820  0.6493
 9056TIP3    H227133   6.319   5.498   2.946 -1.0836  0.3716  1.0465
 9057TIP3   OH227134   4.120   3.837   5.582  0.1288 -0.1665 -0.1202
 9057TIP3    H127135   4.182   3.766   5.565  0.6553  0.4726 -0.9304
 9057TIP3    H227136   4.158   3.913   5.538 -1.7945 -0.0175 -1.6584
 9058TIP3   OH227137   7.083   2.017   0.123  0.5462 -0.4220 -0.0880
 9058TIP3    H127138   7.014   1.969   0.168 -0.0314  0.8060  0.3941
 9058TIP3    H227139   7.070   1.997   0.030  0.0817 -0.8809  0.0764
 9059TIP3   OH227140   2.370   4.284   2.566  0.3153  0.2026  0.1219
 9059TIP3    H127141   2.461   4.305   2.546  0.4340  0.6436  1.0667
 9059TIP3    H227142   2.373   4.242   2.652 -0.3079 -0.3725 -0.1282
 9060TIP3   OH227143   4.044   2.168   4.374 -0.2916  0.0646 -0.3840
 9060TIP3    H127144   4.028   2.078   4.401 -0.5441  0.1578 -0.2141
 9060TIP3    H227145   3.980   2.219   4.424  0.6019  0.4624  0.3700
 9061TIP3   OH227146   3.991   3.903   5.320  0.1768 -0.5508  0.0630
 9061TIP3    H127147   3.948   3.942   5.244 -1.0130 -0.1409  0.9241
 9061TIP3    H227148   3.992   3.972   5.386  0.6966 -1.0773  0.6217
 9062TIP3   OH227149   0.174   2.149   1.761 -0.1948 -0.0100 -0.0026
 9062TIP3    H127150   0.096   2.188   1.724 -2.0811 -2.8672  0.6100
 9062TIP3    H227151   0.245   2.210   1.741 -2.3404  2.0310 -1.7621
 9063TIP3   OH227152   2.422   2.800   4.508 -0.5373  0.0630 -0.1034
 9063TIP3    H127153   2.336   2.840   4.500 -0.1443  0.8425 -0.5637
 9063TIP3    H227154   2.481   2.873   4.528 -0.1882 -0.6475  1.6521
 9064TIP3   OH227155   5.005   3.262   3.368 -0.5650  0.1909 -0.0721
 9064TIP3    H127156   4.941   3.246   3.299 -1.3196 -3.5615  1.2438
 9064TIP3    H227157   4.956   3.307   3.437 -0.7061  0.8679 -0.6093
 9065TIP3   OH227158   1.939   2.838   4.145  0.2585 -0.5243 -0.2516
 9065TIP3    H127159   2.010   2.867   4.087  0.1961 -1.6270 -0.9008
 9065TIP3    H227160   1.871   2.806   4.086  0.3357 -2.0180  0.4236
 9066TIP3   OH227161   6.959   0.898   1.436  0.1230  0.0876 -0.1888
 9066TIP3    H127162   6.870   0.923   1.460 -0.0885 -2.9500  3.1382
 9066TIP3    H227163   6.948   0.822   1.379  0.3824 -1.8325  2.1545
 9067TIP3   OH227164   4.712   0.040   0.243 -0.5128 -0.2702  0.2683
 9067TIP3    H127165   4.716  -0.012   0.323  1.3565 -1.4643 -0.5140
 9067TIP3    H227166   4.698  -0.024   0.174 -1.6693  0.6960 -0.4372
 9068TIP3   OH227167   7.171   4.077   2.213  0.2544 -0.1959  0.1121
 9068TIP3    H127168   7.210   3.997   2.249 -1.0933  0.0264  2.2456
 9068TIP3    H227169   7.116   4.046   2.141  0.2277 -1.1450  0.5182
 9069TIP3   OH227170   6.849   0.165   2.741 -0.0075  0.4598 -0.7448
 9069TIP3    H127171   6.784   0.105   2.778  1.0865 -0.3519 -0.0967
 9069TIP3    H227172   6.826   0.168   2.648 -0.7096 -0.1572 -0.6090
 9070TIP3   OH227173   1.668   5.374   4.737  0.0659  0.1167  0.5332
 9070TIP3    H127174   1.704   5.343   4.654 -0.0174 -0.3209  0.6533
 9070TIP3    H227175   1.617   5.299   4.770  0.2690  0.2144  1.0750
 9071TIP3   OH227176   0.514   1.933   0.464  0.2709 -0.3091  0.0688
 9071TIP3    H127177   0.572   1.910   0.536 -0.8278  0.3168  1.1881
 9071TIP3    H227178   0.432   1.960   0.506  0.4838  2.8503 -1.2035
 9072TIP3   OH227179   1.107   0.678   2.702 -0.2739 -0.5109  0.2637
 9072TIP3    H127180   1.031   0.685   2.644  0.2195 -1.2970 -0.4902
 9072TIP3    H227181   1.150   0.597   2.676  0.3393 -0.5260  1.2793
 9073TIP3   OH227182   3.351   0.344   1.035 -0.1510  0.1577 -0.0869
 9073TIP3    H127183   3.344   0.405   0.961  0.8739  1.9018  1.1757
 9073TIP3    H227184   3.339   0.258   0.996 -2.7229  1.1600 -1.8242
 9074TIP3   OH227185   2.017   0.246   0.354 -0.6898 -0.6103 -0.4321
 9074TIP3    H127186   1.951   0.296   0.401  0.2017 -0.2590  0.4765
 9074TIP3    H227187   2.082   0.310   0.327  0.9604 -1.3154  1.5797
 9075TIP3   OH227188   5.087   3.672   0.680  0.1176  0.1652  0.2439
 9075TIP3    H127189   5.083   3.767   0.696  0.1644  0.3612 -0.8255
 9075TIP3    H227190   4.996   3.647   0.664 -0.0632 -0.2096  1.6834
 9076TIP3   OH227191   4.816   2.128   2.563  0.0829  0.1434 -0.4467
 9076TIP3    H127192   4.739   2.077   2.537  0.4016 -0.3965 -0.3459
 9076TIP3    H227193   4.824   2.113   2.657  0.9896 -0.7593 -0.6490
 9077TIP3   OH227194   4.014   6.018   2.241 -0.2923  0.5642  0.1415
 9077TIP3    H127195   4.027   6.112   2.253  1.2996  0.3167  0.5899
 9077TIP3    H227196   3.931   5.999   2.284 -1.5480  2.0498 -1.5162
 9078TIP3   OH227197   5.453   2.887   0.945  0.3890  0.0935  0.0942
 9078TIP3    H127198   5.410   2.849   0.868  0.4791 -1.3424  0.7099
 9078TIP3    H227199   5.427   2.829   1.017 -0.4102  1.8891  1.3352
 9079TIP3   OH227200   5.220   4.812   3.122  0.0912  0.0666  0.1094
 9079TIP3    H127201   5.178   4.894   3.094  1.0063  0.1271 -1.1721
 9079TIP3    H227202   5.307   4.838   3.152  1.4123 -0.6401 -2.7548
 9080TIP3   OH227203   1.350   6.608   2.652  0.0151 -0.2111  0.4885
 9080TIP3    H127204   1.390   6.616   2.738 -0.3178 -0.1144  0.6345
 9080TIP3    H227205   1.256   6.605   2.669 -0.0886  0.5535  0.0821
 9081TIP3   OH227206   6.818   3.339   5.055 -0.1518  0.1996  0.1356
 9081TIP3    H127207   6.822   3.339   4.959 -3.5957  0.9263 -0.1559
 9081TIP3    H227208   6.856   3.423   5.080 -1.1313  0.9510 -0.7990
 9082TIP3   OH227209   2.308   1.228   0.821 -0.3831  0.3595  0.2369
 9082TIP3    H127210   2.396   1.237   0.784 -0.3126  0.7072  0.4832
 9082TIP3    H227211   2.269   1.156   0.772  0.3432 -0.3784  0.7181
 9083TIP3   OH227212   6.462   2.353   4.848  0.3075 -0.6360 -0.0005
 9083TIP3    H127213   6.407   2.296   4.902 -0.5990 -0.0417 -0.2785
 9083TIP3    H227214   6.412   2.365   4.767  1.2788 -0.8556 -0.6500
 9084TIP3   OH227215   1.805   3.707   3.470 -0.2667 -0.1006 -0.2024
 9084TIP3    H127216   1.758   3.626   3.450  1.6318 -2.0566  2.4784
 9084TIP3    H227217   1.746   3.755   3.528 -1.0761  0.0965 -1.1610
 9085TIP3   OH227218   2.429   2.416   0.338  0.1726 -0.3696 -0.0988
 9085TIP3    H127219   2.461   2.351   0.400 -1.1869 -1.8845 -0.8963
 9085TIP3    H227220   2.339   2.434   0.366  0.1293  0.2565 -0.6080
 9086TIP3   OH227221   4.504   5.817   0.617 -1.0683  0.3580  0.0497
 9086TIP3    H127222   4.539   5.804   0.705  2.6193  2.3776 -0.9177
 9086TIP3    H227223   4.544   5.749   0.564 -0.7712  1.0127 -0.5941
 9087TIP3   OH227224   0.877   5.912   1.022 -0.5246 -0.1769  0.1691
 9087TIP3    H127225   0.815   5.940   1.089 -1.9682 -3.3065  0.3193
 9087TIP3    H227226   0.952   5.879   1.071 -1.3918 -2.0513  0.2924
 9088TIP3   OH227227   2.268   1.670   5.446 -0.3916  0.2286  0.1970
 9088TIP3    H127228   2.173   1.677   5.434 -0.2902  1.0863 -0.1664
 9088TIP3    H227229   2.278   1.604   5.515 -1.2698  0.4880  0.5924
 9089TIP3   OH227230   6.594   3.439   3.441  0.1230 -0.3736  0.2478
 9089TIP3    H127231   6.544   3.358   3.428 -0.8544  0.3733 -0.9636
 9089TIP3    H227232   6.658   3.439   3.369 -1.6961  1.1830 -1.4963
 9090TIP3   OH227233   1.899   6.591   2.047  0.2948 -0.6392 -0.0880
 9090TIP3    H127234   1.835   6.594   1.975 -0.6720  0.2246  0.7676
 9090TIP3    H227235   1.964   6.527   2.019 -0.6751 -1.1716 -1.2215
 9091TIP3   OH227236   2.688   0.169   3.732 -0.3906 -0.0939 -0.0363
 9091TIP3    H127237   2.612   0.216   3.696 -0.5557  0.0889  0.5344
 9091TIP3    H227238   2.733   0.235   3.785  0.9851  0.2131 -1.5168
 9092TIP3   OH227239   3.610   5.168   2.038 -0.6308 -0.5228 -0.2669
 9092TIP3    H127240   3.552   5.188   2.112  1.3473  0.4570  1.0817
 9092TIP3    H227241   3.633   5.254   2.002  0.1673 -0.8848 -0.6412
 9093TIP3   OH227242   4.483   3.727   0.890 -0.1997 -0.4226  0.2714
 9093TIP3    H127243   4.470   3.651   0.946  0.5205 -0.7008  0.0659
 9093TIP3    H227244   4.547   3.781   0.936  1.4731 -1.3230 -0.9090
 9094TIP3   OH227245   0.922   1.061   4.407 -0.0119  0.7000 -0.1308
 9094TIP3    H127246   0.955   1.010   4.334 -2.2601  1.7877 -2.0379
 9094TIP3    H227247   0.983   1.043   4.479 -0.4339 -4.4244 -0.6569
 9095TIP3   OH227248   4.568   4.136   2.946  0.5853 -0.3519 -0.6272
 9095TIP3    H127249   4.598   4.049   2.919  0.9138 -0.2023 -0.7501
 9095TIP3    H227250   4.636   4.196   2.915  2.0838 -0.3548  2.2871
 9096TIP3   OH227251   2.750   6.271   2.855  0.8668 -0.0231 -0.7995
 9096TIP3    H127252   2.683   6.205   2.833  0.6541  0.0661 -0.4165
 9096TIP3    H227253   2.762   6.320   2.773 -0.0154  0.3846 -0.6976
 9097TIP3   OH227254   5.280   4.164   1.657  0.3727 -0.3664 -0.0348
 9097TIP3    H127255   5.225   4.233   1.620  1.5581  0.3891 -0.4464
 9097TIP3    H227256   5.220   4.092   1.674 -0.5192 -0.1020 -1.8174
 9098TIP3   OH227257   0.329   6.629   5.248 -0.0555 -0.3064  0.2132
 9098TIP3    H127258   0.352   6.588   5.164  0.2707 -0.9894  0.6308
 9098TIP3    H227259   0.234   6.621   5.253 -0.4633  2.2468 -1.3747
 9099TIP3   OH227260   6.644   0.655   0.513  0.2051  0.3172 -0.4902
 9099TIP3    H127261   6.657   0.607   0.431 -1.8242  1.3691 -1.5013
 9099TIP3    H227262   6.676   0.744   0.493  0.7897  0.2842  0.2629
 9100TIP3   OH227263   0.015   0.330   0.498 -0.0936  0.1142 -0.3322
 9100TIP3    H127264   0.109   0.310   0.498 -0.0944  0.0245 -2.1599
 9100TIP3    H227265   0.002   0.379   0.579  1.0799 -1.8371  1.1367
 9101TIP3   OH227266   6.076   5.429   1.370  0.2935 -0.3480 -0.6045
 9101TIP3    H127267   6.075   5.334   1.384 -0.4639 -0.0964  1.3517
 9101TIP3    H227268   6.120   5.464   1.447  0.2415  0.9187 -1.1336
 9102TIP3   OH227269   0.613   1.790   2.732  0.0568  0.2310  0.6487
 9102TIP3    H127270   0.581   1.740   2.807 -0.5480 -0.9286 -0.3569
 9102TIP3    H227271   0.535   1.805   2.678  0.1500  2.5123  1.0274
 9103TIP3   OH227272   5.353   6.669   4.357 -0.1300 -0.6659  0.1873
 9103TIP3    H127273   5.368   6.576   4.336  0.2222 -0.8131  1.0547
 9103TIP3    H227274   5.397   6.717   4.287 -1.1220 -1.1473 -0.8015
 9104TIP3   OH227275   1.603   5.719   1.458  0.1371 -0.2146  0.1592
 9104TIP3    H127276   1.620   5.813   1.449 -1.3636  0.0694  0.0422
 9104TIP3    H227277   1.558   5.711   1.542 -0.0016 -0.7963  0.0336
 9105TIP3   OH227278   7.126   3.667   3.994 -0.0508  0.5855  0.1995
 9105TIP3    H127279   7.209   3.715   3.996 -0.2345  0.8886  0.8526
 9105TIP3    H227280   7.096   3.674   3.904  0.8725  0.0578 -0.1600
 9106TIP3   OH227281   6.253   5.676   4.781  0.3160 -0.0430  0.3859
 9106TIP3    H127282   6.331   5.632   4.747  0.2932  0.7961 -0.8168
 9106TIP3    H227283   6.276   5.700   4.870  0.8865 -1.1294  0.5424
 9107TIP3   OH227284   6.887   0.494   5.527  0.4113  0.3285 -0.4879
 9107TIP3    H127285   6.855   0.520   5.613 -2.6308  0.1756 -1.4494
 9107TIP3    H227286   6.915   0.576   5.486  2.0967  0.3776  0.6335
 9108TIP3   OH227287   0.753   5.215   5.358 -0.7764  0.1266 -0.2028
 9108TIP3    H127288   0.696   5.193   5.432  1.2787 -0.3500  1.3179
 9108TIP3    H227289   0.802   5.291   5.388  0.3188 -0.2603 -0.9735
 9109TIP3   OH227290   4.896   4.922   1.600 -0.5906 -0.0737 -0.4785
 9109TIP3    H127291   4.801   4.929   1.610 -0.3281  2.8458  0.9492
 9109TIP3    H227292   4.907   4.882   1.514 -3.0582 -2.5756  0.2210
 9110TIP3   OH227293   7.202   1.109   0.712 -0.0396 -0.0618 -0.7821
 9110TIP3    H127294   7.265   1.037   0.716  1.2938  1.0746 -0.6442
 9110TIP3    H227295   7.137   1.088   0.779  1.4032 -0.1765  0.6372
 9111TIP3   OH227296   3.673   1.555   0.209 -0.0312  0.2015 -0.6626
 9111TIP3    H127297   3.588   1.559   0.254  0.3413 -0.4032  0.1234
 9111TIP3    H227298   3.737   1.544   0.279  0.7990  1.5454 -1.1819
 9112TIP3   OH227299   4.952   4.679   2.714 -0.7094  0.4744 -0.7062
 9112TIP3    H127300   5.026   4.619   2.729 -0.5341  0.7476 -0.4727
 9112TIP3    H227301   4.892   4.629   2.659 -0.8495 -0.1490 -0.0058
 9113TIP3   OH227302   7.022   2.740   3.832  0.0078  0.1293  0.4479
 9113TIP3    H127303   6.982   2.760   3.747  2.2913 -0.8242 -0.9395
 9113TIP3    H227304   7.089   2.808   3.843  2.6686 -2.1248 -0.6863
 9114TIP3   OH227305   3.835   6.251   2.693 -0.4542  0.2787 -0.2409
 9114TIP3    H127306   3.856   6.290   2.778  2.3759 -1.0823 -0.2081
 9114TIP3    H227307   3.762   6.304   2.660  0.3718  2.8059  1.6439
 9115TIP3   OH227308   6.021   5.055   4.023  0.3701  0.1242  0.1203
 9115TIP3    H127309   6.043   5.110   3.948  0.3398  0.4161  0.3241
 9115TIP3    H227310   5.960   5.107   4.075  2.2859  0.9656  1.6574
 9116TIP3   OH227311   4.079   0.336   0.844  0.1152 -0.2948 -0.0015
 9116TIP3    H127312   3.983   0.336   0.845  0.0905  0.5255 -1.0025
 9116TIP3    H227313   4.102   0.318   0.752  0.9020  0.5160  0.0217
 9117TIP3   OH227314   2.136   3.414   5.536 -0.3450  0.2732  0.6933
 9117TIP3    H127315   2.161   3.495   5.581 -1.3540  0.3877  1.0614
 9117TIP3    H227316   2.043   3.404   5.553 -0.8645  0.4842 -1.6213
 9118TIP3   OH227317   3.289   1.779   3.510  0.0822  0.4759 -0.3983
 9118TIP3    H127318   3.269   1.819   3.425  0.4141 -0.4403 -0.9191
 9118TIP3    H227319   3.260   1.688   3.502 -0.7985  0.6261  0.8232
 9119TIP3   OH227320   6.222   5.701   2.322 -0.0989  0.3889 -0.4211
 9119TIP3    H127321   6.311   5.738   2.318 -0.5595  1.5125 -0.4779
 9119TIP3    H227322   6.202   5.699   2.415 -0.2785  0.7829 -0.4507
 9120TIP3   OH227323   4.344   4.938   0.164  0.2946  0.2903 -0.2813
 9120TIP3    H127324   4.367   4.896   0.081  0.0876 -0.2301 -0.0791
 9120TIP3    H227325   4.428   4.954   0.207  0.3549 -0.7880  0.0561
 9121TIP3   OH227326   4.162   1.019   5.142  0.1301 -0.2252 -0.5603
 9121TIP3    H127327   4.111   0.939   5.128  0.1619 -0.0151 -2.1338
 9121TIP3    H227328   4.133   1.078   5.072 -0.0433  1.2269  0.7042
 9122TIP3   OH227329   6.088   1.456   5.601 -0.1627 -0.1905  0.1395
 9122TIP3    H127330   6.080   1.383   5.540  0.7682 -0.3028  0.1307
 9122TIP3    H227331   6.124   1.528   5.549 -0.1846 -0.0206  0.3548
 9123TIP3   OH227332   0.463   6.414   4.567 -0.4625  0.1517 -0.3793
 9123TIP3    H127333   0.525   6.380   4.631  0.1485 -1.7722 -1.8773
 9123TIP3    H227334   0.497   6.500   4.543  0.9178 -0.3353 -0.2266
 9124TIP3   OH227335   2.918   0.118   5.165  0.6910 -0.7632 -0.2061
 9124TIP3    H127336   2.859   0.046   5.185  0.3925 -0.9787 -1.7515
 9124TIP3    H227337   3.004   0.076   5.154  0.8203 -0.6693  0.4368
 9125TIP3   OH227338   7.047   0.377   2.744  0.6231  0.6219  0.3024
 9125TIP3    H127339   7.123   0.323   2.721 -0.3237  0.3091 -2.5564
 9125TIP3    H227340   6.999   0.325   2.809  1.2266 -0.6690 -0.2484
 9126TIP3   OH227341   2.500   2.039   2.208  0.4668  0.1170  0.2042
 9126TIP3    H127342   2.431   2.077   2.262  0.5155 -1.0556  1.1291
 9126TIP3    H227343   2.454   1.979   2.149  0.4982  0.8483 -0.5991
 9127TIP3   OH227344   3.140   2.469   3.573  0.0918  0.6933 -0.0152
 9127TIP3    H127345   3.114   2.428   3.656 -1.3247 -0.4670 -0.9886
 9127TIP3    H227346   3.097   2.416   3.506  2.1270  0.9155 -1.5775
 9128TIP3   OH227347   4.849   0.687   0.942 -0.4798  0.5694  0.0978
 9128TIP3    H127348   4.922   0.739   0.909  0.7282 -0.5726  0.8395
 9128TIP3    H227349   4.855   0.604   0.893 -0.0545 -0.2692  1.5076
 9129TIP3   OH227350   0.891   0.362   3.684  0.0385  0.1284  0.0066
 9129TIP3    H127351   0.966   0.411   3.650 -0.7362  0.5204 -1.2080
 9129TIP3    H227352   0.884   0.286   3.627 -1.1548  0.6796 -0.6186
 9130TIP3   OH227353   0.849   4.309   3.268 -0.0583  0.3097  0.7300
 9130TIP3    H127354   0.822   4.284   3.180  1.6975 -4.7248  1.3134
 9130TIP3    H227355   0.925   4.365   3.255 -1.1562  1.5483 -0.8126
 9131TIP3   OH227356   5.817   2.107   3.451 -0.1725  0.0591 -0.8839
 9131TIP3    H127357   5.724   2.126   3.441 -0.5393 -0.8437  0.6279
 9131TIP3    H227358   5.826   2.076   3.540  1.5329 -0.2168 -1.1248
 9132TIP3   OH227359   5.017   6.125   4.091  0.7271  0.5405  0.4167
 9132TIP3    H127360   5.098   6.113   4.042  0.6855 -0.0980  0.5036
 9132TIP3    H227361   4.948   6.122   4.025  0.7689  1.1407  0.3353
 9133TIP3   OH227362   6.418   5.124   5.358 -0.3176 -0.2415  0.6885
 9133TIP3    H127363   6.483   5.100   5.293  0.6635 -1.2994  2.0007
 9133TIP3    H227364   6.334   5.104   5.317  0.2161  0.0283 -0.5823
 9134TIP3   OH227365   6.746   4.338   0.817  0.0085 -0.6422  0.3703
 9134TIP3    H127366   6.776   4.398   0.885 -0.8919 -0.3770  0.5430
 9134TIP3    H227367   6.667   4.380   0.782  0.7893 -0.4486 -1.2654
 9135TIP3   OH227368   4.200   2.430   3.940  0.4393 -0.0243 -0.7842
 9135TIP3    H127369   4.208   2.421   4.035 -1.3100  1.0543 -0.4776
 9135TIP3    H227370   4.221   2.344   3.905  2.9255  0.0055  0.4011
 9136TIP3   OH227371   5.436   0.602   0.617  0.2445 -0.0462 -0.0416
 9136TIP3    H127372   5.465   0.551   0.541 -1.8137 -0.3897 -0.6481
 9136TIP3    H227373   5.434   0.693   0.585  0.4249 -0.0488 -0.0621
 9137TIP3   OH227374   3.848   1.182   3.469 -0.4232  0.1972 -0.3800
 9137TIP3    H127375   3.883   1.095   3.448  1.2413  0.5019  0.8982
 9137TIP3    H227376   3.819   1.217   3.386  3.0075  0.1528 -1.7655
 9138TIP3   OH227377   5.574   4.910   3.577 -0.5755 -0.5105 -0.1113
 9138TIP3    H127378   5.669   4.923   3.576 -0.4346 -1.4332 -1.7386
 9138TIP3    H227379   5.557   4.867   3.661  0.3070  0.5271  0.6233
 9139TIP3   OH227380   1.222   3.077   0.449  0.3932 -0.3589  0.1530
 9139TIP3    H127381   1.154   3.096   0.385 -0.2607  1.5099  1.3145
 9139TIP3    H227382   1.181   3.015   0.510  0.0402  0.0372  0.3241
 9140TIP3   OH227383   4.448   3.825   1.570  0.0382  0.3907  0.0460
 9140TIP3    H127384   4.359   3.791   1.578 -0.3848  1.3060 -0.6219
 9140TIP3    H227385   4.440   3.903   1.515  1.2334  0.5718  0.0871
 9141TIP3   OH227386   2.919   3.326   1.338 -0.2112 -0.3172 -0.2254
 9141TIP3    H127387   2.862   3.269   1.287 -0.2567  0.4494 -1.0652
 9141TIP3    H227388   2.997   3.273   1.356 -0.1185 -0.5435 -1.2543
 9142TIP3   OH227389   6.652   2.890   1.849  0.2782  0.5601 -0.2147
 9142TIP3    H127390   6.623   2.810   1.893 -3.8484  1.4248 -0.9944
 9142TIP3    H227391   6.688   2.944   1.920  2.9118 -1.6829  0.3674
 9143TIP3   OH227392   4.748   0.509   5.623  0.1816 -0.0396 -0.4408
 9143TIP3    H127393   4.822   0.566   5.645  0.4348 -1.0937  1.7460
 9143TIP3    H227394   4.760   0.432   5.679 -1.7162 -0.9392 -1.1980
 9144TIP3   OH227395   6.996   3.172   4.187  0.3707  0.6375 -0.1944
 9144TIP3    H127396   6.912   3.133   4.165  0.3189  0.9227 -0.5230
 9144TIP3    H227397   7.039   3.107   4.243  0.2629  0.1314 -0.6821
 9145TIP3   OH227398   2.687   6.608   1.433 -0.0968 -0.8079 -0.0885
 9145TIP3    H127399   2.648   6.551   1.499  1.2788 -2.6608 -0.7753
 9145TIP3    H227400   2.689   6.555   1.354 -1.2974  1.2100 -1.5672
 9146TIP3   OH227401   2.039   4.336   3.858 -0.5751  0.2539 -0.2963
 9146TIP3    H127402   2.021   4.411   3.803 -0.7270  0.5782  0.1915
 9146TIP3    H227403   1.953   4.309   3.891 -0.5317 -0.1819 -0.5284
 9147TIP3   OH227404   6.564   2.342   4.125 -0.4425  0.4952  0.6572
 9147TIP3    H127405   6.609   2.413   4.079 -2.4026  1.2538 -0.1983
 9147TIP3    H227406   6.616   2.328   4.204  0.6677  2.0561  0.2478
 9148TIP3   OH227407   1.887   3.964   5.010  0.3038 -0.0861  0.3176
 9148TIP3    H127408   1.940   4.044   5.010  0.8359 -0.4368  0.5749
 9148TIP3    H227409   1.819   3.980   5.075  0.4056  0.1577  0.3644
 9149TIP3   OH227410   4.193   2.018   1.249  0.9461 -0.0659 -0.1553
 9149TIP3    H127411   4.230   1.935   1.279 -0.2350 -0.4450  0.3297
 9149TIP3    H227412   4.130   1.993   1.182 -2.0265  0.0005  2.3789
 9150TIP3   OH227413   4.095   0.853   1.724 -0.3648 -0.2782 -0.1343
 9150TIP3    H127414   4.187   0.829   1.729 -0.0986  0.3390 -1.5981
 9150TIP3    H227415   4.086   0.930   1.780 -0.2905 -1.1186  1.0612
 9151TIP3   OH227416   1.028   0.365   0.702  0.1891 -0.1374 -0.3506
 9151TIP3    H127417   1.113   0.321   0.701 -0.8894 -2.5725  1.8649
 9151TIP3    H227418   0.986   0.337   0.621  0.9191 -0.1669 -0.7222
 9152TIP3   OH227419   4.179   4.717   0.167 -0.2635 -0.5997 -0.1573
 9152TIP3    H127420   4.146   4.719   0.077  1.7539 -0.3458 -0.9294
 9152TIP3    H227421   4.228   4.798   0.177 -1.9619  0.2970  1.8443
 9153TIP3   OH227422   3.297   6.547   2.601 -0.4314 -0.2110 -0.0912
 9153TIP3    H127423   3.289   6.453   2.618 -1.4749 -0.3508 -1.1741
 9153TIP3    H227424   3.344   6.552   2.518 -2.3103  0.0918 -1.2057
 9154TIP3   OH227425   3.707   2.655   3.692  0.1592 -0.3886  0.0492
 9154TIP3    H127426   3.772   2.591   3.723 -1.5851 -2.1822  0.1671
 9154TIP3    H227427   3.623   2.613   3.708 -1.0908  2.1980  0.5950
 9155TIP3   OH227428   0.879   3.999   0.184 -0.6600 -0.3470  0.1446
 9155TIP3    H127429   0.931   3.929   0.143 -0.8342  0.0678 -0.8159
 9155TIP3    H227430   0.928   4.024   0.261 -0.3131 -1.1537  0.1957
 9156TIP3   OH227431   4.803   6.275   2.221 -0.2942  0.0014  0.4533
 9156TIP3    H127432   4.714   6.292   2.190  0.7127  2.3856 -1.3607
 9156TIP3    H227433   4.843   6.223   2.151  0.3160  0.5930  0.3606
 9157TIP3   OH227434   3.998   1.796   5.537  0.3236 -0.0466 -0.6769
 9157TIP3    H127435   3.923   1.745   5.509  1.2541 -1.1173 -1.3148
 9157TIP3    H227436   4.033   1.833   5.456  0.3447  0.6481 -0.3572
 9158TIP3   OH227437   1.963   6.595   3.980  0.0257  0.2740 -0.1568
 9158TIP3    H127438   2.051   6.598   4.019  0.4012 -0.0324 -0.9733
 9158TIP3    H227439   1.933   6.686   3.984 -0.1822  0.1624  1.3667
 9159TIP3   OH227440   6.873   3.509   1.206 -1.0775  0.8057  0.8450
 9159TIP3    H127441   6.905   3.467   1.285  0.0229  1.2097  0.6359
 9159TIP3    H227442   6.815   3.444   1.166  0.0232 -0.2351  0.8942
 9160TIP3   OH227443   0.039   2.299   5.727  0.5133  0.3337  0.7759
 9160TIP3    H127444  -0.025   2.258   5.785  0.5390 -0.9031 -0.0517
 9160TIP3    H227445  -0.009   2.316   5.646 -0.1326  3.9564  1.7057
 9161TIP3   OH227446   3.833   6.610   3.935 -0.1652 -0.2839 -0.6032
 9161TIP3    H127447   3.838   6.705   3.941 -0.9748 -0.2189 -0.8293
 9161TIP3    H227448   3.824   6.580   4.026 -1.0331 -0.0621 -0.6074
 9162TIP3   OH227449   1.872   1.646   1.052  0.1256  0.5819  0.1439
 9162TIP3    H127450   1.877   1.728   1.101  0.2755 -0.5009  2.0497
 9162TIP3    H227451   1.801   1.598   1.094  0.4582 -0.5218 -0.5292
 9163TIP3   OH227452   4.855   4.098   2.148  0.6385  0.3210  0.0831
 9163TIP3    H127453   4.796   4.173   2.142  0.9518  0.5265 -0.5489
 9163TIP3    H227454   4.800   4.022   2.131  0.1836  0.3375  1.3765
 9164TIP3   OH227455   5.481   0.189   3.409 -0.0412  0.0587 -0.1674
 9164TIP3    H127456   5.561   0.148   3.376 -0.2058 -0.2856 -0.1422
 9164TIP3    H227457   5.434   0.117   3.452 -0.2561  0.3095  0.0167
 9165TIP3   OH227458   4.166   3.253   0.032  0.3439  0.1189  0.2161
 9165TIP3    H127459   4.079   3.266   0.071  0.5933 -0.3394  0.9518
 9165TIP3    H227460   4.201   3.177   0.079 -0.7075 -2.7986 -3.2537
 9166TIP3   OH227461   2.220   1.873   2.524  0.2084 -0.2309 -0.2341
 9166TIP3    H127462   2.147   1.930   2.545  1.1408  1.0850 -0.4820
 9166TIP3    H227463   2.282   1.929   2.477  0.0651 -2.0195 -2.8129
 9167TIP3   OH227464   4.520   0.972   4.698  0.1372 -0.0208 -0.1130
 9167TIP3    H127465   4.601   0.970   4.648 -0.6576 -1.4247 -1.4228
 9167TIP3    H227466   4.452   0.950   4.634 -1.0442 -0.8302  1.3674
 9168TIP3   OH227467   3.391   3.022   3.043  0.0291 -0.0833 -0.0758
 9168TIP3    H127468   3.330   3.067   3.101  0.0432 -2.1466  1.6738
 9168TIP3    H227469   3.477   3.035   3.085  0.4546  0.6325 -1.1262
 9169TIP3   OH227470   6.903   4.190   5.200  0.2299  0.1765 -0.3684
 9169TIP3    H127471   6.830   4.222   5.253 -1.0517  0.3459 -2.1580
 9169TIP3    H227472   6.869   4.112   5.157  1.1761  0.1416 -1.0747
 9170TIP3   OH227473   6.686   0.562   3.088  0.4612 -0.0522 -0.5378
 9170TIP3    H127474   6.723   0.489   3.040 -0.1964  0.1967 -1.4477
 9170TIP3    H227475   6.730   0.559   3.174  1.4849 -0.6268 -1.0632
 9171TIP3   OH227476   3.570   0.537   1.734  0.4433 -0.1552 -0.4500
 9171TIP3    H127477   3.548   0.519   1.642  0.5851 -0.9902 -0.3231
 9171TIP3    H227478   3.487   0.534   1.780  0.5389 -1.1586 -0.3251
 9172TIP3   OH227479   6.197   3.152   1.899 -0.0246 -0.1651  0.7204
 9172TIP3    H127480   6.227   3.217   1.963 -0.8716  0.8834  0.0707
 9172TIP3    H227481   6.226   3.186   1.814  2.5379 -2.3449  0.5984
 9173TIP3   OH227482   1.550   5.005   3.420  0.6058 -0.1272 -0.0626
 9173TIP3    H127483   1.633   5.047   3.440  0.4158  0.7725 -1.0990
 9173TIP3    H227484   1.551   4.992   3.325  0.3852 -1.9087  0.1429
 9174TIP3   OH227485   6.960  -0.015   2.449 -0.1433 -0.0654  0.8705
 9174TIP3    H127486   7.017   0.032   2.510 -2.0466  0.1166  2.6201
 9174TIP3    H227487   6.885   0.044   2.437 -0.7684 -1.0153  0.0081
 9175TIP3   OH227488   3.803   0.251   3.091 -0.6471 -0.4277  0.5452
 9175TIP3    H127489   3.732   0.232   3.152 -2.6779 -0.6076 -1.6894
 9175TIP3    H227490   3.786   0.341   3.062  0.3400 -0.2970  0.3409
 9176TIP3   OH227491   6.615   3.287   2.488  0.1905 -0.1215 -0.0308
 9176TIP3    H127492   6.589   3.378   2.499  1.2254  0.2440 -0.4761
 9176TIP3    H227493   6.597   3.246   2.573  1.6570  1.0028  0.8671
 9177TIP3   OH227494   1.442   0.703   3.304 -0.4994 -0.1183  0.2872
 9177TIP3    H127495   1.500   0.636   3.270 -1.0450  0.2459 -1.4665
 9177TIP3    H227496   1.494   0.784   3.299  0.3876 -0.4293  2.9967
 9178TIP3   OH227497   5.821   6.133   0.631 -0.1351 -0.3516  0.0291
 9178TIP3    H127498   5.903   6.180   0.647  0.2378 -0.9336 -0.1737
 9178TIP3    H227499   5.833   6.048   0.674 -0.1636 -0.9052 -1.0354
 9179TIP3   OH227500   6.444   4.934   0.751 -0.4409 -0.1289  0.5894
 9179TIP3    H127501   6.527   4.952   0.795 -0.8985 -0.6966  1.7001
 9179TIP3    H227502   6.451   4.843   0.723 -1.3557 -0.7421  2.2387
 9180TIP3   OH227503   5.117   6.345   2.121 -0.0925  0.3723 -0.4761
 9180TIP3    H127504   5.137   6.263   2.076 -1.2437 -0.1617 -0.0379
 9180TIP3    H227505   5.158   6.336   2.207 -1.1436 -0.2267 -0.0175
 9181TIP3   OH227506   2.480   1.310   3.316  0.1439 -0.1659  0.3423
 9181TIP3    H127507   2.503   1.218   3.324  0.4635 -0.1972 -0.7618
 9181TIP3    H227508   2.386   1.309   3.295  0.4665 -0.3454 -1.2546
 9182TIP3   OH227509   6.413   0.949   5.124  0.1938 -0.1984 -0.2032
 9182TIP3    H127510   6.502   0.962   5.154 -0.1532  1.8127  0.0762
 9182TIP3    H227511   6.405   1.004   5.047 -0.6815 -0.6947 -0.4812
 9183TIP3   OH227512   2.005   4.906   0.634  0.0069 -0.0224  0.0561
 9183TIP3    H127513   1.926   4.878   0.680 -1.3706  0.3495 -1.9438
 9183TIP3    H227514   1.992   4.999   0.617  1.1899  0.1957  0.2357
 9184TIP3   OH227515   0.503   4.039   3.104  0.4420  0.1581 -0.2479
 9184TIP3    H127516   0.549   4.120   3.081 -1.4933  0.8919 -1.8183
 9184TIP3    H227517   0.421   4.069   3.145  0.1670 -1.0337  0.1109
 9185TIP3   OH227518   2.025   0.586   3.386  0.6483 -0.4534  0.3149
 9185TIP3    H127519   1.977   0.609   3.307  1.4187  0.9456  0.2117
 9185TIP3    H227520   2.025   0.667   3.438  0.7546 -1.1463  1.4265
 9186TIP3   OH227521   2.851   1.304   5.598  0.2056  0.1402  0.3385
 9186TIP3    H127522   2.853   1.278   5.690 -1.0185  1.5704  0.8032
 9186TIP3    H227523   2.869   1.223   5.550  0.6868 -0.6640  1.8217
 9187TIP3   OH227524   3.948   0.081   1.584 -0.6955 -0.2144 -0.0174
 9187TIP3    H127525   3.898   0.061   1.505  1.0270  1.9185 -1.7861
 9187TIP3    H227526   3.896   0.149   1.628 -1.6463 -1.3891  0.7406
 9188TIP3   OH227527   4.247   6.525   2.100  0.1600  0.0696 -0.0810
 9188TIP3    H127528   4.277   6.436   2.078 -1.3336 -0.6734  0.7343
 9188TIP3    H227529   4.221   6.519   2.192 -2.6985  0.5394 -0.7738
 9189TIP3   OH227530   1.882   4.324   3.581  0.3357 -0.8865  0.0569
 9189TIP3    H127531   1.971   4.289   3.567  0.7384 -0.3791  1.2561
 9189TIP3    H227532   1.896   4.408   3.623 -0.7107 -0.3874 -0.5674
 9190TIP3   OH227533   4.178   5.786   1.037  0.2487 -0.1533 -0.2429
 9190TIP3    H127534   4.099   5.835   1.014  0.7886 -0.1169 -2.2059
 9190TIP3    H227535   4.250   5.842   1.010  0.8901 -1.9315 -2.5760
 9191TIP3   OH227536   4.201   3.863   4.118  0.1684  0.3696  0.2066
 9191TIP3    H127537   4.118   3.817   4.125 -0.5898  1.5297 -0.8812
 9191TIP3    H227538   4.245   3.821   4.044  0.5053 -0.1342  0.6801
 9192TIP3   OH227539   0.769   0.874   2.804 -0.0242 -0.4350 -0.1470
 9192TIP3    H127540   0.703   0.943   2.804 -0.0075 -0.3213  2.4770
 9192TIP3    H227541   0.719   0.793   2.814  0.1701 -0.3499  1.8289
 9193TIP3   OH227542   1.842   5.758   1.080  0.2539  0.3851  0.1489
 9193TIP3    H127543   1.871   5.709   1.004  1.5685  0.6518  0.4547
 9193TIP3    H227544   1.827   5.847   1.047 -0.8019  0.1187 -0.1236
 9194TIP3   OH227545   5.269   3.731   4.062  0.2751 -0.3344  0.4149
 9194TIP3    H127546   5.231   3.667   4.002  2.0955 -1.4514  0.3820
 9194TIP3    H227547   5.195   3.762   4.115 -0.9746 -0.9741 -0.8973
 9195TIP3   OH227548   0.782   3.179   3.643 -0.1489  0.2933 -0.1731
 9195TIP3    H127549   0.726   3.229   3.703  1.5457  0.8877  0.9994
 9195TIP3    H227550   0.831   3.245   3.594 -0.1305 -0.2072 -0.8481
 9196TIP3   OH227551   4.956   3.501   4.504  0.9183 -0.0557 -0.2570
 9196TIP3    H127552   4.885   3.565   4.504 -1.1135 -2.1660 -0.3592
 9196TIP3    H227553   4.913   3.418   4.527  3.7922 -1.0252  2.1778
 9197TIP3   OH227554   6.131   1.445   3.608 -0.1126  0.2096 -0.5406
 9197TIP3    H127555   6.038   1.467   3.610 -0.0193  0.5650  0.1109
 9197TIP3    H227556   6.134   1.353   3.582 -0.6387  0.2279 -0.6677
 9198TIP3   OH227557   2.735   5.197   0.870  0.1177  0.2026  0.2609
 9198TIP3    H127558   2.687   5.263   0.920  0.2626  0.9118 -0.5150
 9198TIP3    H227559   2.814   5.242   0.841  0.4296 -0.4496  0.1005
 9199TIP3   OH227560   0.234   0.938   2.766  0.0537 -0.1425  0.4080
 9199TIP3    H127561   0.249   1.023   2.806 -0.4284 -0.3464  1.0452
 9199TIP3    H227562   0.185   0.888   2.832  1.0231 -1.1971  0.3733
 9200TIP3   OH227563   3.109   5.753   3.965  0.0096 -0.2418  0.2483
 9200TIP3    H127564   3.175   5.707   3.913 -0.3224  0.0298 -0.4247
 9200TIP3    H227565   3.055   5.799   3.901  1.6966  3.0323  0.9341
 9201TIP3   OH227566   1.429   6.206   0.707 -0.1655  0.0861 -0.1524
 9201TIP3    H127567   1.429   6.118   0.746 -0.7536  0.3757  0.5185
 9201TIP3    H227568   1.418   6.190   0.613  1.5191 -0.6351 -0.2623
 9202TIP3   OH227569   4.879   5.527   4.086 -0.2802  0.6892  0.1495
 9202TIP3    H127570   4.965   5.505   4.121  0.0730  0.0641 -1.0263
 9202TIP3    H227571   4.817   5.472   4.134  0.0671  0.6089  0.4993
 9203TIP3   OH227572   0.715   6.560   2.347  0.1641 -0.4075 -0.0025
 9203TIP3    H127573   0.716   6.562   2.251  1.1483  0.6835  0.0045
 9203TIP3    H227574   0.795   6.606   2.372 -1.1370  1.2356  1.3701
 9204TIP3   OH227575   2.840   0.748   1.524  0.8861 -0.4319 -0.0203
 9204TIP3    H127576   2.912   0.811   1.533  0.9445 -0.4226 -0.5364
 9204TIP3    H227577   2.762   0.802   1.514  0.6010 -0.4239  1.9235
 9205TIP3   OH227578   2.603   4.332   4.417  0.3978 -0.0498  0.0299
 9205TIP3    H127579   2.689   4.332   4.374 -0.4997 -0.6236 -1.8900
 9205TIP3    H227580   2.602   4.413   4.468  1.5207  0.7096 -1.0957
 9206TIP3   OH227581   1.455   1.752   5.330  0.2217 -0.3327 -0.2248
 9206TIP3    H127582   1.381   1.720   5.278 -1.4145  0.3832  1.5311
 9206TIP3    H227583   1.501   1.812   5.272 -0.9765 -0.2719 -1.1450
 9207TIP3   OH227584   1.172   5.055   0.943 -0.1467 -0.2941  0.4363
 9207TIP3    H127585   1.097   5.099   0.904 -2.3623 -0.9642  3.5845
 9207TIP3    H227586   1.135   4.999   1.011  3.1549 -1.3907  1.5318
 9208TIP3   OH227587   1.899   4.053   2.539  0.4927  0.2367 -0.5618
 9208TIP3    H127588   1.992   4.031   2.545  0.7383  1.5462  1.9701
 9208TIP3    H227589   1.898   4.147   2.518 -0.3213 -0.0855 -2.1065
 9209TIP3   OH227590   0.296   5.796   1.835  0.4959 -1.0821  0.4310
 9209TIP3    H127591   0.275   5.769   1.745 -2.2920  1.3257  0.1906
 9209TIP3    H227592   0.241   5.741   1.890 -0.7613  0.0036  0.3226
 9210TIP3   OH227593   4.827   5.005   0.954 -0.0419  0.9971  0.6589
 9210TIP3    H127594   4.766   5.002   1.028 -0.7382  0.4525  0.0713
 9210TIP3    H227595   4.775   5.039   0.881  0.0613 -0.4742 -0.1287
 9211TIP3   OH227596   0.500   3.941   4.251 -0.5647 -0.4510  0.1082
 9211TIP3    H127597   0.560   3.897   4.191 -1.1119 -2.1633  0.7470
 9211TIP3    H227598   0.545   4.021   4.277  0.9276 -1.1330 -0.3154
 9212TIP3   OH227599   6.714   5.430   0.414  0.0117  0.0421 -0.4072
 9212TIP3    H127600   6.793   5.385   0.384  0.4204  0.5028 -0.0350
 9212TIP3    H227601   6.718   5.516   0.372  0.2573  0.4575  0.4470
 9213TIP3   OH227602   1.023   1.988   3.637  0.1503  0.3375 -0.5024
 9213TIP3    H127603   1.062   2.040   3.567  0.6702 -1.1919 -1.3848
 9213TIP3    H227604   0.943   1.952   3.599  1.3239 -1.9306 -0.9632
 9214TIP3   OH227605   1.786   1.824   4.493 -0.5489 -0.2343 -0.0378
 9214TIP3    H127606   1.849   1.761   4.529 -0.7161  0.4122  1.4860
 9214TIP3    H227607   1.794   1.900   4.551 -1.1362  0.7217 -1.1815
 9215TIP3   OH227608   3.978   1.564   4.788 -0.2003  0.1315  0.0643
 9215TIP3    H127609   3.976   1.572   4.883 -0.2009 -0.6599  0.1370
 9215TIP3    H227610   4.005   1.650   4.757 -1.0244  0.6476  0.7369
 9216TIP3   OH227611   0.189   6.717   5.594  0.6481  0.5858  0.7122
 9216TIP3    H127612   0.232   6.642   5.553  1.5957  1.5261 -0.0772
 9216TIP3    H227613   0.097   6.692   5.600  0.8482 -0.3999 -0.0853
 9217TIP3   OH227614   3.521   0.463   2.482 -0.1805 -0.0525  0.6684
 9217TIP3    H127615   3.502   0.517   2.559 -0.1518  1.2335 -0.1861
 9217TIP3    H227616   3.442   0.412   2.468 -0.8483  0.9779  0.5563
 9218TIP3   OH227617   7.023   3.737   5.054  0.5351  0.8134  0.4661
 9218TIP3    H127618   7.104   3.704   5.015 -1.1879 -3.0930 -0.2422
 9218TIP3    H227619   6.977   3.780   4.982 -0.2093 -1.5937 -0.6110
 9219TIP3   OH227620   3.550   1.721   4.257 -0.0562  0.6572  0.1401
 9219TIP3    H127621   3.515   1.762   4.336 -0.4305  0.0759  0.2877
 9219TIP3    H227622   3.552   1.627   4.278  2.4206  0.7145  0.4534
 9220TIP3   OH227623   0.045   2.341   0.566  0.4105 -0.0941  0.3683
 9220TIP3    H127624  -0.009   2.300   0.499  0.0116  1.2464 -0.1586
 9220TIP3    H227625   0.090   2.413   0.521 -0.2937  1.1882  1.6160
 9221TIP3   OH227626   0.380   2.631   3.142  0.0625 -0.2088  0.8345
 9221TIP3    H127627   0.446   2.669   3.200 -0.5823  2.1410  0.1222
 9221TIP3    H227628   0.297   2.647   3.187 -0.4019  1.2486 -0.4590
 9222TIP3   OH227629   1.027   4.820   3.419 -0.7091 -0.6606 -0.6733
 9222TIP3    H127630   1.052   4.736   3.459 -0.4429 -0.5552 -0.6114
 9222TIP3    H227631   1.088   4.831   3.346 -0.1222 -0.0798 -0.1130
 9223TIP3   OH227632   5.320   5.090   2.366 -0.2768  0.0992 -0.4594
 9223TIP3    H127633   5.399   5.037   2.378 -1.6972 -2.2432 -0.8629
 9223TIP3    H227634   5.265   5.069   2.442 -0.6820  1.4472 -0.3505
 9224TIP3   OH227635   5.892   2.618   5.710  0.1793  0.0689  0.0462
 9224TIP3    H127636   5.818   2.676   5.727 -0.4092 -0.6991  0.1542
 9224TIP3    H227637   5.852   2.536   5.681  0.9528 -0.6220  0.8725
 9225TIP3   OH227638   2.129   4.241   3.588 -0.0796 -0.0150  0.0919
 9225TIP3    H127639   2.120   4.212   3.679  2.2804 -0.6213  0.2065
 9225TIP3    H227640   2.195   4.182   3.551 -0.0940  1.0063 -1.6612
 9226TIP3   OH227641   2.506   5.943   5.821  0.0475  0.0327  0.0858
 9226TIP3    H127642   2.555   5.938   5.739 -0.6261  0.3545 -0.3410
 9226TIP3    H227643   2.514   6.035   5.849  0.8574 -0.2257  0.7523
 9227TIP3   OH227644   6.743   1.188   4.652  0.2223 -0.1477  0.0226
 9227TIP3    H127645   6.805   1.255   4.678 -0.8753  1.2364 -0.8141
 9227TIP3    H227646   6.737   1.196   4.557 -2.0983  0.5838  0.1687
 9228TIP3   OH227647   3.117   1.608   5.238  0.4382 -0.2471 -0.0347
 9228TIP3    H127648   3.061   1.618   5.162 -0.8404 -1.4277  0.7206
 9228TIP3    H227649   3.070   1.549   5.296  1.7782 -0.0772  1.3016
 9229TIP3   OH227650   0.348   5.623   2.953  0.1961 -0.0158  0.4173
 9229TIP3    H127651   0.253   5.629   2.961  0.2706  1.4567  0.3352
 9229TIP3    H227652   0.367   5.531   2.971 -1.2135 -0.2781  0.6985
 9230TIP3   OH227653   1.775   1.505   0.818 -0.1033 -0.5041  0.0366
 9230TIP3    H127654   1.698   1.539   0.863 -0.3225  0.5453 -1.0831
 9230TIP3    H227655   1.848   1.554   0.856 -0.3499  0.8173 -1.1167
 9231TIP3   OH227656   2.233   0.388   4.727 -0.3954 -0.2016 -0.4059
 9231TIP3    H127657   2.291   0.439   4.670  0.3312 -1.6525 -1.0161
 9231TIP3    H227658   2.183   0.454   4.776 -0.0275  1.0756 -1.6923
 9232TIP3   OH227659   2.693   3.694   1.485  0.5028  0.0272 -0.4580
 9232TIP3    H127660   2.776   3.740   1.469 -0.1951  1.1624 -0.9343
 9232TIP3    H227661   2.626   3.761   1.475 -0.4187 -0.5754  1.2470
 9233TIP3   OH227662   5.559   3.391   3.881  0.1905  0.3956  0.2791
 9233TIP3    H127663   5.599   3.342   3.809 -1.1924 -0.1967 -0.1141
 9233TIP3    H227664   5.606   3.359   3.959  1.0178  0.3140 -0.2344
 9234TIP3   OH227665   1.029   3.219   4.605  0.2935  0.1886 -0.1835
 9234TIP3    H127666   1.034   3.208   4.510  0.3897 -0.0710 -0.1482
 9234TIP3    H227667   1.084   3.150   4.640  1.2657  1.0495  0.0347
 9235TIP3   OH227668   0.946   5.843   3.779  0.5375 -0.2584  0.5123
 9235TIP3    H127669   0.868   5.871   3.827 -0.1750  0.4961 -1.0199
 9235TIP3    H227670   0.973   5.921   3.731  0.4265 -1.3225 -1.3451
 9236TIP3   OH227671   3.698   5.770   3.042 -0.4297 -0.1432  0.2685
 9236TIP3    H127672   3.619   5.726   3.074 -0.2459  0.6598  1.8953
 9236TIP3    H227673   3.709   5.736   2.953 -2.0246 -1.0387  0.3711
 9237TIP3   OH227674   6.111   4.969   2.141  0.1075 -0.0549 -0.2327
 9237TIP3    H127675   6.058   5.049   2.136  0.3866  0.0606 -2.8461
 9237TIP3    H227676   6.198   5.000   2.164  0.3952  0.5425 -2.0068
 9238TIP3   OH227677   6.879   4.548   2.091 -0.1615  0.8451 -0.0020
 9238TIP3    H127678   6.933   4.616   2.051 -0.2450  0.7212 -0.3324
 9238TIP3    H227679   6.893   4.471   2.035 -1.3312  1.0457 -0.5847
 9239TIP3   OH227680   3.531   5.405   1.503 -0.0340  0.4271 -0.1085
 9239TIP3    H127681   3.574   5.341   1.559  0.2241  2.2755  1.9627
 9239TIP3    H227682   3.599   5.471   1.486 -1.4044  2.3679  1.5316
 9240TIP3   OH227683   2.262   2.896   0.343  0.1814  0.2501  0.1091
 9240TIP3    H127684   2.291   2.924   0.430 -0.5683 -0.9601  0.7834
 9240TIP3    H227685   2.181   2.945   0.329  0.6661  0.9771 -0.2377
 9241TIP3   OH227686   5.068   2.628   0.169 -0.3671  0.2475 -0.3074
 9241TIP3    H127687   5.110   2.715   0.164 -1.2811  0.6649 -0.9853
 9241TIP3    H227688   5.072   2.605   0.262  2.1747 -0.1497 -0.4475
 9242TIP3   OH227689   3.273   0.186   5.406  0.1013  1.0104  0.1553
 9242TIP3    H127690   3.367   0.184   5.425  0.3623  0.8491 -1.0467
 9242TIP3    H227691   3.258   0.272   5.367 -0.4206  1.3559  1.0956
 9243TIP3   OH227692   2.117   2.650   3.613 -0.1173 -0.6150 -0.3693
 9243TIP3    H127693   2.057   2.615   3.679 -0.4750 -1.3431 -1.0580
 9243TIP3    H227694   2.062   2.707   3.560 -0.0828 -0.8568 -0.6697
 9244TIP3   OH227695   0.235   1.549   0.145 -0.0082 -0.6140  0.1286
 9244TIP3    H127696   0.214   1.641   0.129 -0.7083 -0.7771  0.0871
 9244TIP3    H227697   0.294   1.525   0.074  2.0619  0.4303  1.4126
 9245TIP3   OH227698   0.858   5.089   2.776  0.2634  0.1864 -0.7668
 9245TIP3    H127699   0.784   5.039   2.742  0.2202  0.8395 -1.6919
 9245TIP3    H227700   0.919   5.094   2.702  1.0402  0.0185 -0.1500
 9246TIP3   OH227701   1.212   4.873   2.328 -0.0589  0.2769 -0.6638
 9246TIP3    H127702   1.152   4.841   2.396  0.2656  0.9959 -0.0331
 9246TIP3    H227703   1.154   4.893   2.254 -0.2978 -1.5435 -1.0173
 9247TIP3   OH227704   1.463   2.787   1.936  0.4471  0.1236 -0.1189
 9247TIP3    H127705   1.540   2.799   1.880  1.0577 -1.0160  0.4555
 9247TIP3    H227706   1.466   2.863   1.995 -0.0586  1.1977 -1.4131
 9248TIP3   OH227707   3.717   0.306   2.412 -0.2853  0.2252 -0.1207
 9248TIP3    H127708   3.661   0.378   2.440  1.5481  1.2896  0.9599
 9248TIP3    H227709   3.674   0.272   2.333 -3.0496  0.2041  1.2695
 9249TIP3   OH227710   4.010   2.097   3.986  0.0602 -0.2208  0.4053
 9249TIP3    H127711   3.928   2.088   4.035 -0.7429  1.7025 -0.4915
 9249TIP3    H227712   4.071   2.135   4.049 -0.1276 -0.4220  0.7116
 9250TIP3   OH227713   3.731   3.376   5.451  0.0440 -0.2873 -0.4089
 9250TIP3    H127714   3.651   3.425   5.468 -1.7626 -2.2936 -2.4398
 9250TIP3    H227715   3.802   3.435   5.475 -1.9557  3.0426 -2.0420
 9251TIP3   OH227716   4.837   2.133   4.023 -0.1960  0.3232 -0.1313
 9251TIP3    H127717   4.742   2.123   4.023 -0.1657 -0.0470  0.6890
 9251TIP3    H227718   4.862   2.120   4.115  0.3761  3.2137  0.1990
 9252TIP3   OH227719   3.997   2.444   2.278  0.3536 -0.9099  0.7064
 9252TIP3    H127720   3.928   2.464   2.214  0.8767 -0.7371  0.1875
 9252TIP3    H227721   4.057   2.518   2.273  0.1578 -0.6632  1.7520
 9253TIP3   OH227722   4.832   6.248   2.546 -0.3503  0.0441  0.2229
 9253TIP3    H127723   4.770   6.261   2.474  0.2800  2.0733 -0.0206
 9253TIP3    H227724   4.836   6.333   2.590  1.8047 -0.1944  0.5907
 9254TIP3   OH227725   0.417   1.142   4.555  0.0085 -0.9493  0.0942
 9254TIP3    H127726   0.417   1.208   4.486 -1.3990 -0.6460  0.3634
 9254TIP3    H227727   0.441   1.060   4.510  0.5178 -0.5009 -0.4650
 9255TIP3   OH227728   6.500   3.531   2.814 -0.0156 -0.2896 -0.6872
 9255TIP3    H127729   6.562   3.593   2.775  1.1519 -0.0800  1.3952
 9255TIP3    H227730   6.555   3.461   2.849 -1.0747 -0.8624 -0.1082
 9256TIP3   OH227731   6.526   0.327   1.295  0.1584 -0.1697 -0.2401
 9256TIP3    H127732   6.492   0.416   1.312 -0.3864 -0.5818  0.9297
 9256TIP3    H227733   6.502   0.310   1.204  0.4587  0.9577 -0.5555
 9257TIP3   OH227734   4.500   4.105   0.728 -0.7281 -0.1664  0.2639
 9257TIP3    H127735   4.523   4.012   0.729  0.3945  0.0278  3.7643
 9257TIP3    H227736   4.582   4.150   0.708 -0.0048  0.1482  3.4262
 9258TIP3   OH227737   7.133   2.514   4.888 -0.4350  0.3823 -0.3018
 9258TIP3    H127738   7.196   2.477   4.950 -1.0836 -0.8916 -0.3722
 9258TIP3    H227739   7.074   2.566   4.943  0.6275  1.5676 -0.2328
 9259TIP3   OH227740   4.318   5.981   0.665 -0.1129 -0.0543 -0.7274
 9259TIP3    H127741   4.350   5.894   0.641 -1.0477 -1.0744  1.4203
 9259TIP3    H227742   4.376   6.042   0.620  2.2405 -1.7980 -0.2290
 9260TIP3   OH227743   5.033   0.475   0.864  0.3355  0.0845 -0.0310
 9260TIP3    H127744   5.098   0.414   0.829 -0.9740  0.5586 -3.6721
 9260TIP3    H227745   5.066   0.561   0.838  0.7695  0.8360  2.6726
 9261TIP3   OH227746   0.730   2.060   3.979  0.9682  0.0082  0.0907
 9261TIP3    H127747   0.783   2.138   3.995  1.4315  0.1317 -1.7342
 9261TIP3    H227748   0.645   2.094   3.950  1.1848 -0.1445 -0.7516
 9262TIP3   OH227749   1.390   5.732   0.221 -0.0435 -0.1410 -0.0369
 9262TIP3    H127750   1.322   5.799   0.218  0.7112  0.6967  0.9248
 9262TIP3    H227751   1.372   5.684   0.302  1.6290  1.3430  1.2791
 9263TIP3   OH227752   2.189   3.805   0.845 -0.4246 -0.3428 -0.1434
 9263TIP3    H127753   2.168   3.739   0.779 -2.0331 -0.9481  0.9202
 9263TIP3    H227754   2.106   3.851   0.861 -0.1031 -0.2710  1.5047
 9264TIP3   OH227755   3.218   5.067   0.336 -0.0467  0.0536  0.2113
 9264TIP3    H127756   3.234   4.977   0.310  0.4943  0.3637 -0.5908
 9264TIP3    H227757   3.306   5.103   0.353 -0.2329  0.4986  0.2506
 9265TIP3   OH227758   3.329   3.211   0.556 -0.2234 -0.3369 -0.3787
 9265TIP3    H127759   3.263   3.279   0.571  0.7211  0.1570  2.2302
 9265TIP3    H227760   3.413   3.258   0.555  0.3797 -1.3168  0.5880
 9266TIP3   OH227761   5.215   6.705   1.071 -0.5194 -0.0223 -0.1117
 9266TIP3    H127762   5.161   6.755   1.009  0.1544 -0.0631 -0.7436
 9266TIP3    H227763   5.201   6.614   1.047  0.3466 -0.0057 -0.7301
 9267TIP3   OH227764   2.942   3.810   0.137  0.0835 -0.2238 -0.3574
 9267TIP3    H127765   2.860   3.827   0.090  0.0088 -1.0171 -0.5350
 9267TIP3    H227766   2.957   3.889   0.189  0.5121  0.9477 -2.1957
 9268TIP3   OH227767   1.488   5.028   1.231 -0.3347  0.2004 -0.4285
 9268TIP3    H127768   1.422   5.003   1.296  0.4054 -0.2962  0.1529
 9268TIP3    H227769   1.572   5.018   1.277  0.2745 -1.1547 -1.7605
 9269TIP3   OH227770   0.701   3.718   5.698  0.3589  0.2998 -0.4670
 9269TIP3    H127771   0.708   3.813   5.707  0.5458  0.1865  0.8912
 9269TIP3    H227772   0.691   3.686   5.788 -1.3845 -0.8453 -1.0031
 9270TIP3   OH227773   4.990   2.363   2.751  0.6515 -0.3501 -0.2826
 9270TIP3    H127774   4.932   2.297   2.790  0.5143  0.5675  1.1541
 9270TIP3    H227775   5.028   2.407   2.826  0.2279  1.6590 -1.1930
 9271TIP3   OH227776   0.961   2.435   3.587  0.3180  0.0908  0.9303
 9271TIP3    H127777   0.901   2.361   3.600  0.5870 -0.0140  1.5801
 9271TIP3    H227778   1.048   2.395   3.584  0.4443  0.3561  1.0609
 9272TIP3   OH227779   4.805   1.419   4.360  0.1681 -0.0604  0.3978
 9272TIP3    H127780   4.885   1.371   4.384  0.6001  0.2810 -0.3321
 9272TIP3    H227781   4.804   1.419   4.265 -0.8253 -0.2345  0.3942
 9273TIP3   OH227782   6.528   3.788   3.798  0.3942 -0.1746  0.1750
 9273TIP3    H127783   6.446   3.811   3.841 -1.2386  0.8010 -3.1589
 9273TIP3    H227784   6.506   3.714   3.741  2.4681 -1.5101  0.9815
 9274TIP3   OH227785   1.234   0.800   4.431 -0.4027 -0.4793 -0.1817
 9274TIP3    H127786   1.176   0.764   4.363 -1.3691 -0.0243  0.3913
 9274TIP3    H227787   1.275   0.723   4.470 -1.6316 -0.9142  0.2977
 9275TIP3   OH227788   4.056   6.528   4.626 -0.4099 -0.5491  0.5573
 9275TIP3    H127789   4.058   6.604   4.684 -0.7780 -1.5830  1.9712
 9275TIP3    H227790   4.031   6.456   4.682 -0.2622 -1.6979 -0.8032
 9276TIP3   OH227791   3.541   6.001   5.425 -0.6101  0.9388 -0.3901
 9276TIP3    H127792   3.461   6.015   5.375 -0.9317 -1.2619 -0.5937
 9276TIP3    H227793   3.513   6.004   5.516 -0.8523  0.6027 -0.4518
 9277TIP3   OH227794   3.712   5.581   1.180 -0.5443 -0.4933  0.1150
 9277TIP3    H127795   3.779   5.650   1.185  0.0338 -0.9521 -0.9825
 9277TIP3    H227796   3.730   5.525   1.255  0.0824 -0.4093  0.0366
 9278TIP3   OH227797   3.124   6.659   5.660  0.1982 -0.0380 -0.4878
 9278TIP3    H127798   3.071   6.609   5.598  1.2504 -2.2824  0.3158
 9278TIP3    H227799   3.211   6.620   5.653  0.3002 -0.5687  2.5277
 9279TIP3   OH227800   3.989   5.985   0.968 -0.2265  0.4065 -0.4601
 9279TIP3    H127801   3.968   5.986   0.874 -0.3641 -0.5811 -0.4484
 9279TIP3    H227802   4.014   6.075   0.988  0.0023  0.5811 -1.4919
 9280TIP3   OH227803   2.738   4.707   2.635  0.3456 -0.3706 -0.0381
 9280TIP3    H127804   2.740   4.683   2.728  0.8410  0.9860  0.3204
 9280TIP3    H227805   2.794   4.641   2.593 -0.1602 -1.2002  0.5677
 9281TIP3   OH227806   1.472   2.840   4.520  0.1811 -0.2446 -0.6889
 9281TIP3    H127807   1.399   2.778   4.531  0.4688 -0.3753  0.6357
 9281TIP3    H227808   1.550   2.786   4.529  0.4404  0.3882  1.1613
 9282TIP3   OH227809   6.665   6.102   3.045  0.3769 -1.0056 -0.0191
 9282TIP3    H127810   6.674   6.008   3.064  2.6406 -1.2180 -1.7295
 9282TIP3    H227811   6.575   6.122   3.068 -0.2352 -3.6578  0.2533
 9283TIP3   OH227812   5.691   4.381   1.585  0.3843 -0.7516  0.0996
 9283TIP3    H127813   5.687   4.399   1.491  0.4179 -0.2801  0.1849
 9283TIP3    H227814   5.653   4.459   1.626  1.2775 -0.5277  0.5220
 9284TIP3   OH227815   1.885   3.525   2.459 -0.1784  0.5000 -0.2265
 9284TIP3    H127816   1.911   3.617   2.449  0.1192  0.5531  0.9511
 9284TIP3    H227817   1.942   3.478   2.399 -0.0638  1.0386 -0.5528
 9285TIP3   OH227818   1.742   6.404   5.688  0.6246  0.4700  0.1930
 9285TIP3    H127819   1.658   6.434   5.724 -0.2525 -2.7262  1.1460
 9285TIP3    H227820   1.805   6.422   5.758  0.5860  1.9316 -0.1111
 9286TIP3   OH227821   5.290   3.171   4.862  0.0706 -0.2852  0.1251
 9286TIP3    H127822   5.380   3.173   4.831  0.5620  2.1688  1.4176
 9286TIP3    H227823   5.246   3.106   4.807  2.2863 -0.5686 -1.4168
 9287TIP3   OH227824   2.972   0.654   2.820 -0.3310  0.7081  0.1863
 9287TIP3    H127825   2.906   0.710   2.779 -2.0044  0.3337  2.1930
 9287TIP3    H227826   3.050   0.709   2.824 -0.8992  1.6546 -1.0289
 9288TIP3   OH227827   1.353   4.678   1.410 -0.4087  0.2062  0.4419
 9288TIP3    H127828   1.306   4.642   1.336 -2.3490  0.7612  1.3491
 9288TIP3    H227829   1.375   4.768   1.384 -0.7507  0.2727  0.3780
 9289TIP3   OH227830   5.682   2.647   0.748 -0.2052  0.3218  0.4915
 9289TIP3    H127831   5.590   2.649   0.775 -0.5381  1.2068 -0.6950
 9289TIP3    H227832   5.725   2.710   0.806 -1.1801  3.3388 -1.8307
 9290TIP3   OH227833   5.825   4.316   2.717  0.2312 -0.4872 -0.3813
 9290TIP3    H127834   5.909   4.313   2.761  0.7137 -0.6061 -1.2888
 9290TIP3    H227835   5.769   4.258   2.768  1.3337 -2.2038 -1.0209
 9291TIP3   OH227836   0.684   5.052   3.762 -0.1041 -0.1295  0.3940
 9291TIP3    H127837   0.622   5.010   3.702  0.1783 -0.0059  0.0102
 9291TIP3    H227838   0.747   4.983   3.782 -1.0984 -0.6701  1.8650
 9292TIP3   OH227839   7.018   4.926   1.576  0.0386 -0.4194 -0.1050
 9292TIP3    H127840   6.924   4.931   1.557 -0.0846 -1.9674 -0.0030
 9292TIP3    H227841   7.029   4.982   1.653 -1.0724 -1.3167  0.7479
 9293TIP3   OH227842   0.859   6.779   1.615 -0.1420 -0.0351  0.0137
 9293TIP3    H127843   0.859   6.846   1.684 -1.1933  0.4938 -0.4716
 9293TIP3    H227844   0.936   6.726   1.634  1.1886  1.7708 -0.0337
 9294TIP3   OH227845   2.428   3.628   3.745 -0.2088 -0.7990  0.2895
 9294TIP3    H127846   2.502   3.591   3.698 -1.0023 -1.2060 -0.6585
 9294TIP3    H227847   2.466   3.699   3.797  0.6804 -0.2572 -1.0484
 9295TIP3   OH227848   6.865   0.828   4.133  0.0035 -0.0787 -0.1334
 9295TIP3    H127849   6.821   0.743   4.124  0.1608 -0.3495  1.2840
 9295TIP3    H227850   6.798   0.892   4.109 -0.4090 -0.5718 -0.3305
 9296TIP3   OH227851   1.465   0.769   2.897  0.0383  0.0167 -0.3261
 9296TIP3    H127852   1.396   0.822   2.856  0.3477  0.2656 -0.5325
 9296TIP3    H227853   1.542   0.826   2.898  0.0094  0.0652  0.7273
 9297TIP3   OH227854   5.840   2.762   4.335  0.4661  0.4895 -0.6006
 9297TIP3    H127855   5.784   2.690   4.364  1.7796 -0.0137  0.8854
 9297TIP3    H227856   5.901   2.722   4.273  0.8579  0.4279 -0.1804
 9298TIP3   OH227857   5.509   2.508   5.651  0.1423  0.7490  0.2505
 9298TIP3    H127858   5.494   2.433   5.709 -0.9669  0.1763 -0.7197
 9298TIP3    H227859   5.604   2.516   5.646  0.2954 -0.7616  0.2051
 9299TIP3   OH227860   4.822   5.835   1.857 -0.2343 -0.6424 -0.4970
 9299TIP3    H127861   4.781   5.895   1.795  0.6902  0.4550 -0.0927
 9299TIP3    H227862   4.756   5.821   1.924 -1.2642 -1.8922 -1.7386
 9300TIP3   OH227863   6.186   3.634   5.712 -0.2953 -0.0779  0.3973
 9300TIP3    H127864   6.249   3.604   5.778  0.5338 -0.2490 -0.4558
 9300TIP3    H227865   6.208   3.726   5.697 -0.8020  0.0957  0.7191
 9301TIP3   OH227866   4.912   1.667   5.836 -0.1334  0.4685  0.3627
 9301TIP3    H127867   4.867   1.696   5.757 -0.5397  2.4516  1.2708
 9301TIP3    H227868   4.981   1.732   5.850 -0.4321  0.4985  1.9387
 9302TIP3   OH227869   1.576   5.161   4.974  0.7302  0.3472  0.9331
 9302TIP3    H127870   1.577   5.225   5.046 -0.2343 -0.3499  1.5825
 9302TIP3    H227871   1.485   5.161   4.943  0.8268 -0.3691  0.6297
 9303TIP3   OH227872   6.158   4.198   2.609 -0.2884  0.4208  0.1349
 9303TIP3    H127873   6.098   4.129   2.580  0.5450  0.1591 -1.0407
 9303TIP3    H227874   6.189   4.239   2.528  2.0145 -0.2251  0.6212
 9304TIP3   OH227875   4.767   1.262   2.405  0.4894 -0.4214 -0.4387
 9304TIP3    H127876   4.700   1.211   2.451  0.3431  0.0472 -0.1242
 9304TIP3    H227877   4.720   1.306   2.335  0.3533  0.3299  0.1073
 9305TIP3   OH227878   6.982   6.058   2.206 -0.0961 -0.0140  0.0114
 9305TIP3    H127879   7.005   6.140   2.164  1.7309 -1.6506 -2.4811
 9305TIP3    H227880   7.031   6.058   2.288  1.8215  0.4238 -1.0834
 9306TIP3   OH227881   4.797   6.750   0.684  0.4615 -0.3679  0.6201
 9306TIP3    H127882   4.743   6.677   0.651 -1.6454  1.7767 -1.0654
 9306TIP3    H227883   4.881   6.739   0.640 -0.0679 -1.3896 -0.1850
 9307TIP3   OH227884   2.099   6.129   1.104 -0.2043 -0.2369 -0.1639
 9307TIP3    H127885   2.137   6.155   1.020  0.3320  3.6629  1.1229
 9307TIP3    H227886   2.127   6.038   1.115  1.3117 -0.2888 -3.3075
 9308TIP3   OH227887   6.071   3.721   0.216 -0.2396 -0.5618  0.2671
 9308TIP3    H127888   6.015   3.799   0.209  0.3417 -0.1054  0.6512
 9308TIP3    H227889   6.012   3.653   0.250 -0.9991 -0.5698 -0.9920
 9309TIP3   OH227890   6.197   0.574   2.186  0.5706  0.2963 -0.2843
 9309TIP3    H127891   6.214   0.481   2.197  1.6228  0.5306  0.1552
 9309TIP3    H227892   6.133   0.595   2.254 -0.2184 -0.2344 -0.8396
 9310TIP3   OH227893   3.608   4.741   4.584 -0.0599 -0.3032 -0.3764
 9310TIP3    H127894   3.657   4.819   4.558 -1.5818  0.5968 -0.6422
 9310TIP3    H227895   3.517   4.761   4.561 -0.4281 -2.3238 -0.8224
 9311TIP3   OH227896   5.570   5.912   3.853  0.8729 -0.0798 -0.2173
 9311TIP3    H127897   5.645   5.914   3.793 -0.9322  0.8761 -2.6104
 9311TIP3    H227898   5.545   5.820   3.859  1.9839 -0.3635  0.3404
 9312TIP3   OH227899   7.082   1.737   0.036 -0.2165 -0.2854 -0.1204
 9312TIP3    H127900   7.139   1.797  -0.012 -1.7029  0.9554 -0.4089
 9312TIP3    H227901   6.995   1.753   0.001 -1.6741  1.6913  3.7500
 9313TIP3   OH227902   2.242   0.658   3.111  0.3011  0.8028  0.4998
 9313TIP3    H127903   2.149   0.655   3.132  0.2624  0.0101  0.2544
 9313TIP3    H227904   2.282   0.703   3.186 -0.1941  0.5392  0.9312
 9314TIP3   OH227905   5.441   4.624   5.524 -0.3277 -0.1956  0.6210
 9314TIP3    H127906   5.391   4.543   5.516 -1.0796  0.2488  0.7264
 9314TIP3    H227907   5.406   4.667   5.602  0.4029  0.0030  0.8460
 9315TIP3   OH227908   5.603   1.068   2.727 -0.5125  0.0953 -0.3417
 9315TIP3    H127909   5.552   1.137   2.770 -1.3776 -0.4650 -0.4605
 9315TIP3    H227910   5.587   0.990   2.778 -1.1017 -0.4565 -1.3418
 9316TIP3   OH227911   4.761   4.950   4.320  0.4828 -0.7042 -0.5654
 9316TIP3    H127912   4.780   5.023   4.380 -0.1271 -0.1215 -1.0611
 9316TIP3    H227913   4.733   4.879   4.377  1.2438 -0.6074 -0.0569
 9317TIP3   OH227914   4.410   1.034   1.083  0.3978 -0.2880 -0.1491
 9317TIP3    H127915   4.404   1.060   0.991 -0.1028  1.6627  0.3821
 9317TIP3    H227916   4.431   0.941   1.080 -1.9776 -0.8936 -2.2513
 9318TIP3   OH227917   1.218   5.703   2.824  0.5659 -0.0624  0.0217
 9318TIP3    H127918   1.144   5.645   2.841  0.9354 -0.4742  0.2647
 9318TIP3    H227919   1.190   5.789   2.854  0.3315 -0.2979  0.4880
 9319TIP3   OH227920   4.904   6.421   1.946  0.6335 -0.7283  0.2601
 9319TIP3    H127921   4.829   6.455   1.995  0.5825  0.2631 -0.4664
 9319TIP3    H227922   4.949   6.364   2.008  1.3601  1.5351  1.9367
 9320TIP3   OH227923   5.509   3.613   1.157  0.2564  0.0720 -0.4563
 9320TIP3    H127924   5.582   3.631   1.216  0.7612 -1.1984 -0.6756
 9320TIP3    H227925   5.523   3.524   1.127  0.0904  0.7187 -2.6239
 9321TIP3   OH227926   2.867   4.589   3.170 -0.3401  0.3595 -0.1214
 9321TIP3    H127927   2.865   4.497   3.197 -0.3383  1.0303  2.4080
 9321TIP3    H227928   2.959   4.609   3.159 -0.3477  0.0310 -0.8058
 9322TIP3   OH227929   4.010   5.149   4.418 -0.3908 -0.2272  0.0510
 9322TIP3    H127930   3.923   5.115   4.399 -1.1341  1.5216  0.1564
 9322TIP3    H227931   4.067   5.105   4.355 -1.3165 -1.4257  0.0092
 9323TIP3   OH227932   2.622   3.898   2.497 -0.7948 -0.1715  0.6153
 9323TIP3    H127933   2.648   3.809   2.523  1.8646  0.9235  2.0253
 9323TIP3    H227934   2.698   3.952   2.516 -1.7293  2.1985 -1.7874
 9324TIP3   OH227935   6.914   1.587   3.924 -0.1157  0.0559  0.1710
 9324TIP3    H127936   6.892   1.678   3.907 -1.8084 -0.7664 -2.8278
 9324TIP3    H227937   6.846   1.556   3.983  0.0784  0.5424  0.6583
 9325TIP3   OH227938   6.358   1.962   2.752 -0.3263 -0.3490 -0.2895
 9325TIP3    H127939   6.423   2.021   2.713  0.0387 -0.5355  0.0322
 9325TIP3    H227940   6.350   1.992   2.843 -0.7497 -0.2784 -0.3479
 9326TIP3   OH227941   1.601   1.959   4.056  0.1387 -0.2842 -0.5090
 9326TIP3    H127942   1.513   1.926   4.039  0.9594 -1.5771 -2.6137
 9326TIP3    H227943   1.659   1.887   4.033  1.9240  1.7856 -3.1519
 9327TIP3   OH227944   3.648   3.680   5.192  0.1698 -0.1948  0.0383
 9327TIP3    H127945   3.699   3.730   5.129 -0.1663 -1.4929 -1.3002
 9327TIP3    H227946   3.703   3.676   5.270  0.9618  0.6651 -0.4556
 9328TIP3   OH227947   6.256   1.881   3.900 -0.2628  0.7686  0.3949
 9328TIP3    H127948   6.228   1.936   3.828  1.5077 -0.7223 -1.5476
 9328TIP3    H227949   6.179   1.829   3.923 -0.4121  0.0008 -1.6794
 9329TIP3   OH227950   2.522   2.670   5.699 -0.4073 -1.0643  0.6054
 9329TIP3    H127951   2.535   2.738   5.766  3.1429 -0.9729  0.0187
 9329TIP3    H227952   2.538   2.588   5.745 -0.2015 -1.1643  0.3561
 9330TIP3   OH227953   1.775   5.580   1.284 -0.3497 -0.4104 -0.0139
 9330TIP3    H127954   1.780   5.638   1.207 -0.0093  1.4147  1.3228
 9330TIP3    H227955   1.712   5.623   1.342 -0.1330 -1.4311  1.0023
 9331TIP3   OH227956   6.760   0.781   1.755 -0.0986 -0.0889  0.3424
 9331TIP3    H127957   6.812   0.708   1.787  1.7854 -0.1092 -2.4563
 9331TIP3    H227958   6.797   0.858   1.799  0.8163 -0.3645  0.0760
 9332TIP3   OH227959   2.902   5.211   0.376 -0.0852 -0.3201  0.2818
 9332TIP3    H127960   2.966   5.234   0.309  0.3558 -0.8305  0.5213
 9332TIP3    H227961   2.864   5.295   0.403  0.1843 -0.0557 -0.1532
 9333TIP3   OH227962   5.966   2.330   0.503  0.2509  0.1651 -0.0097
 9333TIP3    H127963   6.057   2.305   0.485  0.1973 -0.3606  0.3928
 9333TIP3    H227964   5.963   2.424   0.488  0.8324  0.1658 -0.1526
 9334TIP3   OH227965   5.909   3.782   2.706 -0.2763  0.2485 -0.1907
 9334TIP3    H127966   5.954   3.699   2.688 -1.3618 -0.8323  1.7866
 9334TIP3    H227967   5.823   3.757   2.738 -1.1206  2.2015 -0.7902
 9335TIP3   OH227968   1.540   1.323   3.870 -0.0908  0.4230 -0.2857
 9335TIP3    H127969   1.531   1.414   3.841 -1.9221  0.8637  1.4642
 9335TIP3    H227970   1.625   1.296   3.835  1.2404  3.2787  0.3739
 9336TIP3   OH227971   0.719   5.668   1.071 -0.6072  0.0762  0.2626
 9336TIP3    H127972   0.624   5.672   1.070 -0.5884  0.7034 -0.9590
 9336TIP3    H227973   0.747   5.752   1.034  0.4655  0.5784  2.0827
 9337TIP3   OH227974   4.725   6.514   3.422  0.6431 -0.1098 -0.0197
 9337TIP3    H127975   4.682   6.441   3.378  1.5721  0.2167 -1.5197
 9337TIP3    H227976   4.657   6.551   3.479 -0.2802 -1.1793 -0.4032
 9338TIP3   OH227977   1.962   4.503   1.849 -0.3512  0.8159 -0.3581
 9338TIP3    H127978   1.980   4.590   1.885  0.2448  0.7364 -0.4378
 9338TIP3    H227979   2.004   4.442   1.910  0.9505  0.6964 -1.3090
 9339TIP3   OH227980   4.547   6.552   4.630  0.0884 -0.5981 -0.4273
 9339TIP3    H127981   4.503   6.548   4.545  1.3826 -1.0449 -1.1110
 9339TIP3    H227982   4.535   6.465   4.667 -2.0976  0.1251  0.7557
 9340TIP3   OH227983   0.651   5.621   2.031  0.3668  0.6101 -0.7502
 9340TIP3    H127984   0.740   5.629   1.998 -0.1613 -1.1104 -2.9528
 9340TIP3    H227985   0.623   5.710   2.049  2.1787  1.2704 -1.0129
 9341TIP3   OH227986   1.356   1.764   0.256 -0.1573  0.7641 -0.3926
 9341TIP3    H127987   1.345   1.857   0.278 -1.0194  0.8699 -1.1896
 9341TIP3    H227988   1.266   1.732   0.244  0.1007 -0.3136  0.4081
 9342TIP3   OH227989   6.071   4.035   1.576 -0.9800  0.1419  0.1195
 9342TIP3    H127990   6.061   4.008   1.485 -0.6531  1.0783 -0.2032
 9342TIP3    H227991   5.989   4.079   1.597 -1.8771 -1.7812  0.9213
 9343TIP3   OH227992   4.594   3.541   1.744  0.0838 -0.2584  0.5469
 9343TIP3    H127993   4.603   3.565   1.652  2.3373  1.0701  1.0414
 9343TIP3    H227994   4.602   3.445   1.744  1.4501 -0.1793 -0.5387
 9344TIP3   OH227995   2.548   1.835   0.883  0.0767  0.1622 -0.2180
 9344TIP3    H127996   2.630   1.876   0.909  0.7414 -0.0828 -1.7771
 9344TIP3    H227997   2.562   1.742   0.899 -0.1054  0.1754  0.0206
 9345TIP3   OH227998   6.446   1.680   3.568 -0.0254  0.2292  0.6452
 9345TIP3    H127999   6.474   1.588   3.571 -1.0771 -0.0889  1.1339
 9345TIP3    H228000   6.528   1.729   3.561  0.4817 -0.8045 -1.6956
 9346TIP3   OH228001   6.561   0.608   2.517 -0.4381  0.0113  0.3912
 9346TIP3    H128002   6.627   0.539   2.523 -0.9753 -0.5217  0.2719
 9346TIP3    H228003   6.573   0.661   2.596 -0.5052 -0.6591  0.8590
 9347TIP3   OH228004   2.452   5.444   2.663 -0.5064 -0.0836 -0.1514
 9347TIP3    H128005   2.474   5.351   2.652 -0.1349 -0.1907  1.2780
 9347TIP3    H228006   2.417   5.470   2.578  1.4293 -0.9448 -1.2714
 9348TIP3   OH228007   6.457   5.731   0.831 -0.0751 -0.3587 -0.7957
 9348TIP3    H128008   6.433   5.795   0.764  0.4701  1.7373  0.8888
 9348TIP3    H228009   6.520   5.674   0.788 -1.6024 -0.6512 -2.7583
 9349TIP3   OH228010   6.639   6.476   3.572  0.4742 -0.4873  0.4310
 9349TIP3    H128011   6.670   6.566   3.569  1.5990 -0.7957  1.8563
 9349TIP3    H228012   6.574   6.475   3.642  1.1118 -0.9590  1.0249
 9350TIP3   OH228013   2.022   1.187   2.982  0.1069  0.7617  0.1067
 9350TIP3    H128014   1.938   1.228   3.005 -0.1427  0.5126 -0.3312
 9350TIP3    H228015   2.009   1.157   2.892 -0.6001 -2.4392  1.1441
 9351TIP3   OH228016   1.861   3.798   2.435 -0.4749 -0.3799  0.0806
 9351TIP3    H128017   1.790   3.819   2.374  0.6547  3.0506 -0.2795
 9351TIP3    H228018   1.887   3.883   2.470  2.8488 -1.6146  0.8861
 9352TIP3   OH228019   3.464   1.122   2.255  0.5314 -0.3358 -0.0873
 9352TIP3    H128020   3.454   1.035   2.217 -1.0410 -1.9193  3.4538
 9352TIP3    H228021   3.544   1.117   2.306  0.7875  0.5450 -0.3800
 9353TIP3   OH228022   6.274   5.445   4.327  0.4638 -0.4071 -0.3491
 9353TIP3    H128023   6.245   5.357   4.303 -0.1406 -1.2822  3.0723
 9353TIP3    H228024   6.366   5.433   4.354  0.2573 -0.0977  0.5171
 9354TIP3   OH228025   3.390   5.519   3.276 -0.3907 -0.3305  0.0610
 9354TIP3    H128026   3.398   5.557   3.364  1.4018 -0.3615 -0.0519
 9354TIP3    H228027   3.296   5.519   3.258 -0.6208  2.1406  0.9015
 9355TIP3   OH228028   2.347   1.757   1.075 -0.2424  0.3547 -0.3494
 9355TIP3    H128029   2.398   1.799   1.006 -0.4886 -0.3014 -0.9494
 9355TIP3    H228030   2.321   1.673   1.037  0.7846 -0.6331  1.0584
 9356TIP3   OH228031   6.623   1.573   3.775  0.2712 -0.1260  0.8282
 9356TIP3    H128032   6.635   1.665   3.797 -1.7031  0.4183 -0.1865
 9356TIP3    H228033   6.632   1.527   3.859  2.1434  0.8453  1.2169
 9357TIP3   OH228034   1.479   5.644   5.150  0.2194  0.1888  0.3889
 9357TIP3    H128035   1.511   5.631   5.239 -2.6162 -0.9649  1.3705
 9357TIP3    H228036   1.490   5.559   5.107 -1.3286 -0.2248  0.7388
 9358TIP3   OH228037   1.613   2.048   5.086  0.2549 -0.1603  0.5574
 9358TIP3    H128038   1.545   2.097   5.133  0.5663  0.1589  0.6742
 9358TIP3    H228039   1.576   2.033   4.999  0.6867  1.4345  0.0803
 9359TIP3   OH228040   2.864   1.694   2.183  0.1511  0.1847 -0.6439
 9359TIP3    H128041   2.868   1.718   2.091 -0.6502  0.0883 -0.7132
 9359TIP3    H228042   2.777   1.722   2.212  0.0118 -0.6730 -0.1783
 9360TIP3   OH228043   5.555   2.551   0.226 -0.0429  0.1803 -0.1552
 9360TIP3    H128044   5.513   2.480   0.274 -0.6662  1.5444  1.4081
 9360TIP3    H228045   5.649   2.537   0.240 -0.0827 -1.0090 -0.9153
 9361TIP3   OH228046   7.165   3.097   4.943 -0.4118  0.1210 -0.2223
 9361TIP3    H128047   7.119   3.072   5.023 -2.3496  1.0123 -0.9792
 9361TIP3    H228048   7.241   3.148   4.973 -0.8181  0.0015  1.0560
 9362TIP3   OH228049   0.099   0.388   4.685 -0.0972 -0.0333  0.1114
 9362TIP3    H128050   0.190   0.375   4.711 -0.0092 -0.5358 -0.4153
 9362TIP3    H228051   0.105   0.433   4.601 -0.3329 -0.0639  0.0780
 9363TIP3   OH228052   6.672   6.110   3.355 -0.2954  0.6443 -0.1358
 9363TIP3    H128053   6.604   6.043   3.348 -1.3397  1.5886  0.6243
 9363TIP3    H228054   6.625   6.191   3.370  1.0155  1.2130  1.2177
 9364TIP3   OH228055   5.720   2.528   1.181 -0.5323  0.0571 -0.1537
 9364TIP3    H128056   5.669   2.554   1.257 -0.4889 -0.5296  0.0762
 9364TIP3    H228057   5.683   2.445   1.153  0.7877 -0.7751  0.4949
 9365TIP3   OH228058   1.705   3.654   0.757 -0.5572  0.1309  0.1125
 9365TIP3    H128059   1.747   3.654   0.843  0.0140  0.0710 -0.1641
 9365TIP3    H228060   1.702   3.746   0.732 -2.2998  0.3463  0.9435
 9366TIP3   OH228061   4.243   6.657   1.679 -0.0656 -0.0032  0.0407
 9366TIP3    H128062   4.282   6.726   1.733 -0.7958 -0.2498  0.8971
 9366TIP3    H228063   4.295   6.659   1.598  1.9242 -0.5067  1.2286
 9367TIP3   OH228064   4.057   6.627   2.900  0.0350 -0.6340 -0.1634
 9367TIP3    H128065   3.989   6.620   2.967  1.0347  3.0684  1.4395
 9367TIP3    H228066   4.136   6.592   2.941  0.3827  0.5616  0.2255
 9368TIP3   OH228067   6.974   1.023   5.133 -0.1895 -0.0071 -0.1783
 9368TIP3    H128068   6.898   0.968   5.150 -0.6009  0.7075  0.3539
 9368TIP3    H228069   6.956   1.064   5.048 -1.0007  1.1296  0.5227
 9369TIP3   OH228070   4.773   0.661   3.656  0.0038 -0.3254  0.0424
 9369TIP3    H128071   4.783   0.568   3.634  1.9954 -0.2571  0.4658
 9369TIP3    H228072   4.681   0.669   3.684 -0.2357 -2.1390 -0.0802
 9370TIP3   OH228073   1.718   1.239   2.975 -0.4650  0.2407  0.2167
 9370TIP3    H128074   1.682   1.268   3.059  0.8809  1.8839  0.2866
 9370TIP3    H228075   1.746   1.320   2.932 -0.9007 -0.5907 -1.7327
 9371TIP3   OH228076   7.068   4.456   1.143  0.4747 -0.4436  0.0299
 9371TIP3    H128077   7.081   4.362   1.151  1.5070 -0.4297 -1.1918
 9371TIP3    H228078   7.152   4.489   1.112 -0.6854  0.4868 -2.4157
 9372TIP3   OH228079   3.943   4.979   4.697  0.0528  0.0831  0.6137
 9372TIP3    H128080   3.918   5.072   4.696  0.4204  0.1765 -0.3113
 9372TIP3    H228081   4.032   4.979   4.732  0.5900  0.2321 -0.6933
 9373TIP3   OH228082   4.671   3.284   1.881 -0.4015 -0.2657  0.0025
 9373TIP3    H128083   4.627   3.242   1.955 -0.4781 -0.6122 -0.2352
 9373TIP3    H228084   4.605   3.286   1.812 -0.5291  0.6273  0.1403
 9374TIP3   OH228085   2.134   2.896   3.954 -0.3224 -0.1494  0.2300
 9374TIP3    H128086   2.181   2.979   3.947  2.5122 -1.7242 -0.8290
 9374TIP3    H228087   2.079   2.893   3.875  0.2142  0.3533 -0.1677
 9375TIP3   OH228088   3.815   1.789   2.978 -0.7497 -0.3027 -0.5382
 9375TIP3    H128089   3.762   1.851   3.028 -0.1756  0.1819 -0.5254
 9375TIP3    H228090   3.754   1.754   2.913 -1.2668 -0.2741 -0.0781
 9376TIP3   OH228091   4.712   0.709   4.290  0.2288  0.1585  0.3865
 9376TIP3    H128092   4.656   0.787   4.293 -0.8025 -0.5878  0.7604
 9376TIP3    H228093   4.669   0.650   4.228  1.6261  0.3273 -0.8116
 9377TIP3   OH228094   4.987   2.895   5.190  0.0362 -0.0017  0.2345
 9377TIP3    H128095   4.921   2.911   5.257  0.4912  2.3209  0.2318
 9377TIP3    H228096   5.056   2.846   5.235 -0.9940 -1.1429  0.6178
 9378TIP3   OH228097   7.094   3.406   0.562 -0.1908 -0.4558  0.5994
 9378TIP3    H128098   7.136   3.428   0.479 -0.0866  0.3545  0.8653
 9378TIP3    H228099   7.000   3.415   0.544 -0.2090 -1.0919  0.3440
 9379TIP3   OH228100   2.421   4.238   0.493  0.4374  0.2607 -0.3135
 9379TIP3    H128101   2.512   4.256   0.517  0.3117  0.5254 -0.0234
 9379TIP3    H228102   2.420   4.145   0.471  0.5308 -0.0372  0.8819
 9380TIP3   OH228103   2.627   3.192   0.325  0.1705 -0.3058  0.1289
 9380TIP3    H128104   2.574   3.122   0.286  1.7254 -1.7248  0.4245
 9380TIP3    H228105   2.679   3.148   0.392  0.9031  1.2277  0.6131
 9381TIP3   OH228106   7.211   5.455   2.674  0.3872  0.1075  0.2360
 9381TIP3    H128107   7.130   5.407   2.656  0.5281 -0.0600  0.0464
 9381TIP3    H228108   7.223   5.445   2.768 -0.5133  1.2407  0.4915
 9382TIP3   OH228109   6.911   1.849   0.971  0.1695  0.1672  0.0639
 9382TIP3    H128110   6.943   1.931   0.935  2.0366  0.0411  1.3402
 9382TIP3    H228111   6.980   1.786   0.951  0.1045 -0.4410  1.6738
 9383TIP3   OH228112   0.875   4.237   0.781 -0.5668  0.1899  0.1032
 9383TIP3    H128113   0.863   4.142   0.781 -1.5010  0.2534 -2.1704
 9383TIP3    H228114   0.786   4.272   0.793 -0.4766  0.7458 -0.7430
 9384TIP3   OH228115   6.729   6.008   5.777 -0.0272  0.1074  0.2258
 9384TIP3    H128116   6.730   5.925   5.729 -1.0926  0.4403 -0.4167
 9384TIP3    H228117   6.780   6.068   5.722 -0.0779  0.1247  0.1972
 9385TIP3   OH228118   6.972   6.720   4.942  0.7912 -0.2153  0.3319
 9385TIP3    H128119   6.888   6.675   4.935  0.4051  0.1936  1.8128
 9385TIP3    H228120   6.976   6.777   4.865 -0.4943  0.0675  0.4489
 9386TIP3   OH228121   0.729   4.726   4.476 -0.4360 -0.0818  0.4946
 9386TIP3    H128122   0.681   4.745   4.396  1.4606 -1.1675 -0.9686
 9386TIP3    H228123   0.720   4.805   4.529  0.4239  1.7211 -1.8969
 9387TIP3   OH228124   6.713   2.612   0.192  0.1059  0.3216  0.1387
 9387TIP3    H128125   6.803   2.589   0.171  1.0006  2.2728  1.6158
 9387TIP3    H228126   6.694   2.563   0.273  0.1685  0.6125  0.3315
 9388TIP3   OH228127   4.539   4.063   2.210 -0.0179 -0.3609  0.4969
 9388TIP3    H128128   4.580   3.977   2.212  0.2727 -0.2348  0.0094
 9388TIP3    H228129   4.470   4.058   2.277  1.3620 -0.2820  1.9962
 9389TIP3   OH228130   4.378   5.188   3.802 -0.2040 -0.0022 -0.2449
 9389TIP3    H128131   4.471   5.193   3.779 -0.0946  1.6180  0.4065
 9389TIP3    H228132   4.333   5.179   3.717  0.5036  0.0123 -0.6284
 9390TIP3   OH228133   1.344   2.063   5.615 -0.3616  0.3211 -0.3243
 9390TIP3    H128134   1.327   2.086   5.706  0.5014  1.3016 -0.3891
 9390TIP3    H228135   1.287   2.122   5.564  0.1107  0.6846 -0.4393
 9391TIP3   OH228136   0.563   6.004   3.716  0.9921  0.0252 -0.1295
 9391TIP3    H128137   0.585   6.077   3.775  0.5212 -0.7299  1.0224
 9391TIP3    H228138   0.470   5.989   3.731  1.2312 -1.2612  0.1887
 9392TIP3   OH228139   0.171   2.651   4.578  0.1519 -0.0008 -0.0268
 9392TIP3    H128140   0.128   2.705   4.512 -1.7797 -0.1395  1.0694
 9392TIP3    H228141   0.209   2.713   4.640 -0.8133  0.1380  0.4447
 9393TIP3   OH228142   6.720   3.025   2.089 -0.3016 -0.0724  0.1452
 9393TIP3    H128143   6.685   3.114   2.102 -1.4694 -0.0875 -2.3587
 9393TIP3    H228144   6.808   3.028   2.125 -0.6879  1.7943  1.0525
 9394TIP3   OH228145   0.077   0.063   5.643 -0.4711  0.1398 -0.0076
 9394TIP3    H128146   0.069   0.067   5.548  0.1611 -0.5671 -0.1041
 9394TIP3    H228147   0.127  -0.017   5.659 -0.5776  0.2483  0.9218
 9395TIP3   OH228148   1.149   6.197   0.177 -0.0212 -0.0737 -0.6477
 9395TIP3    H128149   1.164   6.103   0.181  1.6381  0.2063  0.6872
 9395TIP3    H228150   1.181   6.223   0.090  1.5137 -0.4644 -0.2312
 9396TIP3   OH228151   6.543   5.939   1.635  0.0094  0.1944  0.2754
 9396TIP3    H128152   6.450   5.920   1.650  0.1592 -1.5540 -0.7646
 9396TIP3    H228153   6.543   6.022   1.588 -0.9886  0.5296  0.8436
 9397TIP3   OH228154   6.925   4.703   3.888  0.7539 -0.1986 -0.4173
 9397TIP3    H128155   6.956   4.716   3.798 -0.6839  2.4722 -0.6350
 9397TIP3    H228156   6.832   4.681   3.878  0.5459  0.2557  0.3960
 9398TIP3   OH228157   3.464   4.130   4.043 -0.2670  0.3202 -0.1772
 9398TIP3    H128158   3.535   4.194   4.031 -1.3478  1.5810 -0.0320
 9398TIP3    H228159   3.464   4.112   4.137 -1.2816  1.7387  0.1346
 9399TIP3   OH228160   6.586   0.980   4.377  0.0477  0.2618 -0.0573
 9399TIP3    H128161   6.583   0.896   4.423  1.3574  0.1382 -0.1584
 9399TIP3    H228162   6.500   0.988   4.336 -0.1407 -0.9714  0.0665
 9400TIP3   OH228163   4.321   0.182   3.271  0.3024  0.7881  0.1299
 9400TIP3    H128164   4.236   0.203   3.233 -0.1108  1.0946  1.1831
 9400TIP3    H228165   4.330   0.243   3.344  1.7765  1.2700 -0.4255
 9401TIP3   OH228166   0.641   5.453   0.087 -0.3174 -0.0712 -0.1382
 9401TIP3    H128167   0.552   5.444   0.055 -1.2145 -0.5192  2.2897
 9401TIP3    H228168   0.635   5.437   0.181  2.4367 -0.8811 -0.0002
 9402TIP3   OH228169   4.201   2.137   2.538 -0.2456  0.2096 -0.1166
 9402TIP3    H128170   4.105   2.131   2.542 -0.3155 -0.4973 -2.0718
 9402TIP3    H228171   4.218   2.221   2.496 -0.0836 -0.3337 -1.1847
 9403TIP3   OH228172   2.611   2.915   2.774  0.0368 -0.4827 -0.8629
 9403TIP3    H128173   2.699   2.942   2.749  0.1452 -0.6763 -0.6981
 9403TIP3    H228174   2.619   2.891   2.866 -0.3153  0.0303 -0.6970
 9404TIP3   OH228175   4.906   5.708   3.632 -0.3426 -0.2018 -0.6645
 9404TIP3    H128176   4.835   5.753   3.678  0.2787  0.7102 -0.5827
 9404TIP3    H228177   4.951   5.659   3.701  1.2027  1.9499 -0.0469
 9405TIP3   OH228178   6.980   3.525   3.172  0.1054  0.0594  0.3659
 9405TIP3    H128179   6.934   3.575   3.105 -0.7274 -0.9338  0.1707
 9405TIP3    H228180   6.963   3.433   3.150 -0.5233 -0.2948  2.1327
 9406TIP3   OH228181   0.749   0.691   2.421 -0.5319 -0.1663  0.1778
 9406TIP3    H128182   0.835   0.732   2.431 -0.0445 -0.8856 -0.8617
 9406TIP3    H228183   0.741   0.674   2.327 -1.4842 -0.8070  0.3605
 9407TIP3   OH228184   3.777   5.470   2.263 -0.5212  0.2571 -0.8174
 9407TIP3    H128185   3.733   5.389   2.287 -1.4453  0.7488 -0.7920
 9407TIP3    H228186   3.839   5.445   2.194 -1.0658 -0.4068 -1.0733
 9408TIP3   OH228187   1.753   1.025   0.592  0.0673  0.5354 -0.4142
 9408TIP3    H128188   1.842   0.991   0.599 -0.5027 -0.9233  0.0153
 9408TIP3    H228189   1.741   1.041   0.498  1.4220  2.6622 -0.3144
 9409TIP3   OH228190   6.861   6.370   3.451 -0.0301 -0.3692 -0.3671
 9409TIP3    H128191   6.778   6.404   3.487  0.4445  0.2601  0.1529
 9409TIP3    H228192   6.835   6.325   3.370 -0.9636 -0.7475  0.1263
 9410TIP3   OH228193   6.148   2.743   5.792 -0.1414 -0.2950 -0.6441
 9410TIP3    H128194   6.194   2.663   5.769 -0.3427 -0.3416 -0.8940
 9410TIP3    H228195   6.060   2.731   5.756 -0.3847 -0.2561 -0.0774
 9411TIP3   OH228196   2.399   0.289   4.249 -0.0501  0.3950  0.4458
 9411TIP3    H128197   2.481   0.292   4.199 -0.0511  0.3699  0.4429
 9411TIP3    H228198   2.340   0.348   4.201  0.4773  1.7028  1.3612
 9412TIP3   OH228199   6.412   6.278   2.703  0.2251  0.0013 -0.1254
 9412TIP3    H128200   6.433   6.279   2.796  1.0643 -2.0238 -0.2250
 9412TIP3    H228201   6.476   6.217   2.665 -0.1450  0.7210 -2.0092
 9413TIP3   OH228202   6.789   3.459   0.044 -0.4156  0.3657 -0.2916
 9413TIP3    H128203   6.780   3.411  -0.039 -0.5801  0.4172 -0.3042
 9413TIP3    H228204   6.700   3.461   0.080 -0.6995  1.9586 -1.0175
 9414TIP3   OH228205   5.052   4.525   0.887  0.1423  0.0465 -0.0241
 9414TIP3    H128206   5.047   4.583   0.811  0.9652 -0.5349 -0.5405
 9414TIP3    H228207   4.961   4.511   0.912 -0.0935  1.2227 -0.1366
 9415TIP3   OH228208   3.853   1.257   2.043 -0.3160  0.4245 -0.2325
 9415TIP3    H128209   3.916   1.198   2.001 -1.1077  0.2027 -1.1450
 9415TIP3    H228210   3.780   1.261   1.982 -0.4613  2.0296  0.0023
 9416TIP3   OH228211   0.164   6.349   1.629  0.0221  0.9037 -0.0214
 9416TIP3    H128212   0.174   6.254   1.626  0.4452  0.9261  0.4449
 9416TIP3    H228213   0.107   6.370   1.555  1.6696  0.5061 -1.4598
 9417TIP3   OH228214   6.566   1.817   1.287  0.0585 -0.5807 -0.7001
 9417TIP3    H128215   6.479   1.837   1.252 -0.4963 -0.3619  0.7465
 9417TIP3    H228216   6.549   1.775   1.371  1.2795 -3.3951 -1.7194
 9418TIP3   OH228217   6.382   6.223   5.048 -0.2431 -0.2469  0.0173
 9418TIP3    H128218   6.447   6.276   5.095  1.7202 -1.7036 -0.8880
 9418TIP3    H228219   6.431   6.146   5.020 -1.8497 -0.4454 -2.5625
 9419TIP3   OH228220   3.746   2.715   0.275 -0.8005 -0.0818  0.3031
 9419TIP3    H128221   3.719   2.803   0.300  0.3386 -0.2414  2.3356
 9419TIP3    H228222   3.778   2.676   0.356  1.5871 -1.2910 -1.0984
 9420TIP3   OH228223   1.407   4.336   4.446  0.6471 -0.0227 -0.1539
 9420TIP3    H128224   1.426   4.243   4.460 -0.9925 -0.3973 -0.2563
 9420TIP3    H228225   1.311   4.341   4.446  0.7151  1.6884 -0.0331
 9421TIP3   OH228226   5.374   4.714   2.487  0.2868  0.4241  0.0586
 9421TIP3    H128227   5.399   4.647   2.550  2.7828  0.3145 -0.9157
 9421TIP3    H228228   5.390   4.797   2.532 -0.0432  0.3594  0.2967
 9422TIP3   OH228229   1.989   5.597   0.868  0.2204  0.0875  0.6834
 9422TIP3    H128230   1.992   5.612   0.774 -1.9673  0.0582  0.5470
 9422TIP3    H228231   2.044   5.666   0.905  0.4036  0.6458 -0.5784
 9423TIP3   OH228232   0.303   2.460   4.420  0.5117 -0.1256  0.3791
 9423TIP3    H128233   0.349   2.385   4.457 -0.1990 -0.4983  0.5268
 9423TIP3    H228234   0.299   2.524   4.491  1.8017  0.3729  0.0188
 9424TIP3   OH228235   4.143   6.317   0.634  0.1994 -0.3560  0.2234
 9424TIP3    H128236   4.110   6.334   0.546  1.8156 -1.4743 -0.6375
 9424TIP3    H228237   4.118   6.226   0.652 -0.1849 -0.1139  0.9703
 9425TIP3   OH228238   4.139   0.483   0.138 -0.6024 -0.4970 -0.0182
 9425TIP3    H128239   4.112   0.456   0.226 -0.5712 -1.0887 -0.1924
 9425TIP3    H228240   4.232   0.503   0.147 -0.4561 -1.1601 -0.0595
 9426TIP3   OH228241   3.577   3.157   3.373 -0.1342 -0.3872  0.9276
 9426TIP3    H128242   3.541   3.211   3.303  1.5032 -1.0298 -0.4742
 9426TIP3    H228243   3.520   3.174   3.448 -1.8702  0.4139 -0.5115
 9427TIP3   OH228244   0.196   5.073   4.096  0.2118  0.2121  0.4302
 9427TIP3    H128245   0.127   5.083   4.161  1.2019 -0.5213  1.6293
 9427TIP3    H228246   0.254   5.147   4.110 -0.5588  1.1304 -0.9348
 9428TIP3   OH228247   1.970   0.621   1.580  0.4138 -0.2008 -0.0314
 9428TIP3    H128248   1.968   0.592   1.489  1.9919  1.1335 -0.5521
 9428TIP3    H228249   1.902   0.570   1.623  0.0442 -1.3189 -1.8183
 9429TIP3   OH228250   2.339   0.452   5.421  0.1056 -0.9409 -0.1645
 9429TIP3    H128251   2.430   0.425   5.412  0.1970 -0.8524  0.4318
 9429TIP3    H228252   2.290   0.389   5.367  0.3292 -2.1942  1.0337
 9430TIP3   OH228253   6.310   3.802   1.614 -0.5189  0.2380  0.2933
 9430TIP3    H128254   6.392   3.803   1.565 -0.2175  0.8481  0.7841
 9430TIP3    H228255   6.264   3.881   1.586 -0.5321  0.3707  0.6756
 9431TIP3   OH228256   1.297   0.544   1.780  0.5759 -0.8685  0.7066
 9431TIP3    H128257   1.305   0.620   1.838  1.7031  0.4712 -1.0786
 9431TIP3    H228258   1.364   0.483   1.810  2.2445  0.4902 -0.0922
 9432TIP3   OH228259   1.910   3.023   1.621  0.1933 -0.2277  0.2155
 9432TIP3    H128260   1.935   3.087   1.554 -0.9713  0.1149  0.0725
 9432TIP3    H228261   1.931   2.938   1.582 -0.6571 -0.0465 -0.7098
 9433TIP3   OH228262   3.773   3.804   4.428  0.7271  0.2497 -0.1153
 9433TIP3    H128263   3.837   3.754   4.378 -0.7002  0.7359 -2.6393
 9433TIP3    H228264   3.760   3.884   4.376 -1.3234  0.5112  0.7049
 9434TIP3   OH228265   6.218   3.806   0.928  0.6391  0.3323 -0.2583
 9434TIP3    H128266   6.180   3.894   0.919 -0.7754 -0.2115  0.0793
 9434TIP3    H228267   6.260   3.807   1.014  1.8851  1.1024 -0.8463
 9435TIP3   OH228268   1.890   5.684   2.514  0.5545 -0.0509 -0.0677
 9435TIP3    H128269   1.837   5.678   2.434 -0.0439 -2.1157  0.4218
 9435TIP3    H228270   1.980   5.677   2.483  0.3994  0.4075 -0.6520
 9436TIP3   OH228271   4.948   0.917   3.407 -0.0601 -0.2410 -0.0716
 9436TIP3    H128272   4.911   0.910   3.495 -0.2064  0.2778 -0.0892
 9436TIP3    H228273   5.010   0.844   3.401  1.8988  1.1754  1.4027
 9437TIP3   OH228274   2.364   4.220   5.569  0.2822  0.1468  0.3204
 9437TIP3    H128275   2.324   4.165   5.637 -1.0557  0.6720 -0.0192
 9437TIP3    H228276   2.444   4.173   5.545 -0.0460 -0.8666  1.1157
 9438TIP3   OH228277   1.783   1.700   0.155 -0.1269 -0.0338  0.2913
 9438TIP3    H128278   1.699   1.684   0.113  0.3034 -3.7424  0.4865
 9438TIP3    H228279   1.761   1.720   0.246 -0.8127 -0.4273  0.2183
 9439TIP3   OH228280   4.059   6.260   2.971  0.3349  0.6346 -1.0618
 9439TIP3    H128281   4.058   6.166   2.950 -0.8572  0.4494 -0.2520
 9439TIP3    H228282   3.967   6.283   2.982  0.7370  1.3533  1.1613
 9440TIP3   OH228283   1.722   3.353   3.293  0.8235  0.1324 -0.0052
 9440TIP3    H128284   1.795   3.359   3.232  0.2018  2.2493 -0.6505
 9440TIP3    H228285   1.666   3.285   3.258  0.6559  1.0702 -1.6395
 9441TIP3   OH228286   3.669   1.273   0.023 -0.7957 -0.2485 -0.0382
 9441TIP3    H128287   3.694   1.317   0.104  2.3046 -1.0622 -0.4280
 9441TIP3    H228288   3.634   1.343  -0.032  2.3326  1.5188  0.0021
 9442TIP3   OH228289   3.020   3.635   4.898 -0.3210  0.5480  0.2628
 9442TIP3    H128290   3.018   3.713   4.843  0.9692  2.1332  2.3391
 9442TIP3    H228291   2.929   3.623   4.927 -1.0833 -0.4909 -2.3044
 9443TIP3   OH228292   4.269   4.246   5.090  0.4618  0.6403 -0.0880
 9443TIP3    H128293   4.201   4.193   5.049  0.1200  0.7057  0.3891
 9443TIP3    H228294   4.286   4.316   5.027  0.4156  0.3663 -0.4072
 9444TIP3   OH228295   2.336   5.882   3.434 -0.0872  0.0948  0.3205
 9444TIP3    H128296   2.324   5.975   3.452 -0.0116  0.5270 -1.5912
 9444TIP3    H228297   2.252   5.854   3.398 -0.7123 -1.0630  2.5000
 9445TIP3   OH228298   0.422   4.265   4.905 -0.4514  0.1215  0.2316
 9445TIP3    H128299   0.494   4.310   4.949  0.0286 -2.4594  2.3152
 9445TIP3    H228300   0.464   4.203   4.846 -0.9501 -0.6598  0.6769
 9446TIP3   OH228301   3.855   5.914   2.413  0.0760 -0.9963 -0.0737
 9446TIP3    H128302   3.845   5.926   2.508 -0.2180  1.6393 -0.3705
 9446TIP3    H228303   3.793   5.844   2.391  0.1737 -1.6774  1.6703
 9447TIP3   OH228304   6.286   1.630   0.966 -0.6071 -0.1826  0.0282
 9447TIP3    H128305   6.207   1.649   1.016 -0.9658  0.4567 -0.7529
 9447TIP3    H228306   6.283   1.536   0.950 -1.8189 -0.0017 -0.9699
 9448TIP3   OH228307   2.851   0.787   5.846 -0.0532  0.1864 -0.2897
 9448TIP3    H128308   2.850   0.710   5.903 -0.7216  0.7100  0.4180
 9448TIP3    H228309   2.933   0.831   5.867  0.6890 -0.6931 -1.2160
 9449TIP3   OH228310   4.086   0.956   2.804  0.1438  0.6303 -0.5074
 9449TIP3    H128311   3.994   0.944   2.782  0.0183 -0.6847  0.6104
 9449TIP3    H228312   4.119   1.017   2.737 -1.3026  0.4253 -1.4533
 9450TIP3   OH228313   4.354   3.698   0.012 -0.1126  0.1185 -0.8368
 9450TIP3    H128314   4.358   3.777   0.067  0.5733 -0.2734 -0.3044
 9450TIP3    H228315   4.286   3.717  -0.052  0.5795  1.4758 -1.2253
 9451TIP3   OH228316   1.801   2.692   4.787 -0.5256 -0.7455 -0.0072
 9451TIP3    H128317   1.709   2.674   4.807 -0.4920 -0.4521  0.4233
 9451TIP3    H228318   1.823   2.768   4.841  0.2035 -1.3263  0.5501
 9452TIP3   OH228319   5.867   3.812   5.068 -0.0923  0.2236 -0.6202
 9452TIP3    H128320   5.792   3.867   5.044  0.0947  0.8518  0.1864
 9452TIP3    H228321   5.849   3.727   5.027  0.0931  1.1353 -2.7166
 9453TIP3   OH228322   4.943   3.105   2.600  0.2867 -0.3051 -0.1445
 9453TIP3    H128323   4.896   3.172   2.650  0.1159 -1.1405  0.8297
 9453TIP3    H228324   5.006   3.155   2.547 -0.9802  0.7499 -0.7020
 9454TIP3   OH228325   0.519   4.170   0.178 -0.2533 -0.6051  0.0180
 9454TIP3    H128326   0.579   4.185   0.252 -0.6428 -1.0977  0.4412
 9454TIP3    H228327   0.462   4.246   0.178 -0.2042 -0.5666  0.1793
 9455TIP3   OH228328   0.837   5.853   5.086  0.0106  0.0619 -0.1177
 9455TIP3    H128329   0.770   5.802   5.040  0.1392  0.9634 -1.3253
 9455TIP3    H228330   0.798   5.871   5.172 -0.1742 -1.7550  0.2172
 9456TIP3   OH228331   1.655   1.686   3.402 -0.4152  0.8287 -0.1737
 9456TIP3    H128332   1.722   1.718   3.342  0.2515  0.6679  0.4660
 9456TIP3    H228333   1.575   1.729   3.374 -0.2465  0.2639 -1.5699
 9457TIP3   OH228334   1.239   3.020   2.338 -0.0370  0.0196 -0.4865
 9457TIP3    H128335   1.203   3.082   2.402  0.0207  0.9645 -1.3500
 9457TIP3    H228336   1.333   3.036   2.340 -0.1439  0.8792 -1.6343
 9458TIP3   OH228337   3.664   1.990   0.943 -0.0153 -0.4128  0.2280
 9458TIP3    H128338   3.697   2.062   0.889 -0.6658 -0.5360 -0.3480
 9458TIP3    H228339   3.694   2.011   1.032  0.1963  0.3263 -0.0091
 9459TIP3   OH228340   5.725   2.807   1.018 -0.2243  0.7373  0.3376
 9459TIP3    H128341   5.633   2.830   1.021  0.2316  2.6909  0.4877
 9459TIP3    H228342   5.738   2.746   1.091 -1.8216 -1.5190 -1.1060
 9460TIP3   OH228343   3.668   0.269   5.005 -0.3633 -0.1475  0.5160
 9460TIP3    H128344   3.674   0.193   5.063  0.3116 -0.3706  0.1734
 9460TIP3    H228345   3.757   0.305   5.004 -0.7667  0.8899  0.9928
 9461TIP3   OH228346   5.231   1.886   4.069 -0.1679  0.0957 -0.4988
 9461TIP3    H128347   5.323   1.913   4.069 -0.3813  0.8809  0.5687
 9461TIP3    H228348   5.198   1.916   3.984  0.3001  0.7660 -0.4548
 9462TIP3   OH228349   2.234   3.231   0.174  0.6830 -0.0240  0.4402
 9462TIP3    H128350   2.215   3.304   0.233  1.1610 -0.0195  0.5955
 9462TIP3    H228351   2.329   3.219   0.181  0.7357 -0.0511 -0.2984
 9463TIP3   OH228352   3.560   5.457   2.558  0.1573 -0.2973 -0.2812
 9463TIP3    H128353   3.472   5.460   2.519  0.7900  2.0871 -1.7354
 9463TIP3    H228354   3.544   5.454   2.652 -1.5205  0.6021 -0.4953
 9464TIP3   OH228355   2.320   5.387   2.422 -0.2191  0.1443 -0.1931
 9464TIP3    H128356   2.365   5.337   2.353  1.1214 -0.2157  0.9073
 9464TIP3    H228357   2.264   5.323   2.465  0.2572 -0.0377  0.1610
 9465TIP3   OH228358   4.107   3.253   3.708  0.2065  0.5837  0.2789
 9465TIP3    H128359   4.098   3.190   3.636  0.8675  1.2922 -0.4523
 9465TIP3    H228360   4.039   3.229   3.770  0.6425 -1.0334  0.1613
 9466TIP3   OH228361   1.147   5.632   1.479  0.1218 -0.1825 -0.7906
 9466TIP3    H128362   1.086   5.622   1.551  2.3072  0.6827  1.3112
 9466TIP3    H228363   1.231   5.603   1.515  1.2329 -0.1153 -3.1446
 9467TIP3   OH228364   2.523   2.725   3.526  0.2539  0.3214 -0.0156
 9467TIP3    H128365   2.575   2.760   3.453 -1.6384 -0.2872 -1.7548
 9467TIP3    H228366   2.461   2.666   3.484 -1.1650  0.2504  2.0749
 9468TIP3   OH228367   2.274   4.764   0.686  0.1613  0.3191  0.0033
 9468TIP3    H128368   2.316   4.829   0.742 -1.0823 -0.1531  1.5838
 9468TIP3    H228369   2.191   4.804   0.660  0.4367  0.2722 -0.9910
 9469TIP3   OH228370   0.274   0.365   0.096 -0.0905 -0.0358  0.5972
 9469TIP3    H128371   0.220   0.394   0.169  0.1278 -1.3084  1.3056
 9469TIP3    H228372   0.364   0.382   0.125 -0.0027 -0.5693  0.6603
 9470TIP3   OH228373   2.042   2.716   3.123 -0.2786  0.5272  0.2209
 9470TIP3    H128374   2.114   2.688   3.067 -0.7240  0.6060 -0.4054
 9470TIP3    H228375   2.081   2.781   3.181  0.2375  0.3011  0.1328
 9471TIP3   OH228376   1.576   6.034   0.943  0.6480  0.1488 -0.3455
 9471TIP3    H128377   1.523   5.957   0.965 -0.8364  0.5664 -2.1821
 9471TIP3    H228378   1.590   6.078   1.027 -1.9479  0.0078  0.2427
 9472TIP3   OH228379   3.990   3.793   3.799  0.5119  0.1567  0.2748
 9472TIP3    H128380   3.972   3.737   3.723  0.4888  1.0917 -0.4231
 9472TIP3    H228381   3.988   3.733   3.873  0.4295 -0.7621 -0.4471
 9473TIP3   OH228382   4.771   3.243   5.362  0.2963 -0.5657 -0.2075
 9473TIP3    H128383   4.796   3.336   5.364  1.5918 -0.9021  0.6496
 9473TIP3    H228384   4.767   3.218   5.455  0.0595 -1.3945 -0.4358
 9474TIP3   OH228385   3.221   4.158   0.610  0.0539 -0.7624 -0.4878
 9474TIP3    H128386   3.248   4.106   0.534 -0.2683 -0.2394 -0.9608
 9474TIP3    H228387   3.220   4.095   0.682 -0.1788 -1.3908 -1.0254
 9475TIP3   OH228388   1.258   4.488   0.510 -0.0879 -0.4869 -0.1139
 9475TIP3    H128389   1.197   4.433   0.559  0.1588  0.2379  1.0557
 9475TIP3    H228390   1.329   4.429   0.486 -0.3844 -0.9382  0.0928
 9476TIP3   OH228391   2.846   3.836   2.805 -0.2018 -0.3588 -0.1149
 9476TIP3    H128392   2.931   3.809   2.841 -0.0548  0.6020  0.2692
 9476TIP3    H228393   2.865   3.913   2.752 -0.8613  0.0026  0.1550
 9477TIP3   OH228394   1.818   6.648   2.986  0.2112  0.8486 -0.1212
 9477TIP3    H128395   1.835   6.560   2.954 -1.0590  0.4023  0.3835
 9477TIP3    H228396   1.905   6.685   3.003  0.7343 -0.6383  0.5528
 9478TIP3   OH228397   7.035   1.195   3.824 -0.2220  0.8475 -0.0023
 9478TIP3    H128398   7.031   1.105   3.792  0.0998  1.3034 -1.4368
 9478TIP3    H228399   7.118   1.229   3.789 -1.1192  2.2022 -0.9471
 9479TIP3   OH228400   5.626   6.743   1.867  0.0656  0.0961  0.1100
 9479TIP3    H128401   5.591   6.780   1.948 -0.3304  1.4144 -0.6301
 9479TIP3    H228402   5.550   6.705   1.824  0.0456  0.4962 -0.2110
 9480TIP3   OH228403   4.032   1.631   1.507  0.6473 -0.3301 -0.2304
 9480TIP3    H128404   4.083   1.708   1.532  0.6710 -0.6090  0.6151
 9480TIP3    H228405   3.959   1.666   1.455  1.3328  0.1285 -0.9121
 9481TIP3   OH228406   1.371   1.009   3.854 -0.1883 -0.1023 -0.1496
 9481TIP3    H128407   1.424   0.958   3.793 -1.0966  1.3813 -2.2654
 9481TIP3    H228408   1.311   1.059   3.799 -0.6266  1.8204  1.9311
 9482TIP3   OH228409   5.330   3.968   0.815 -0.4481  0.2081 -0.3368
 9482TIP3    H128410   5.363   4.019   0.889 -0.3724 -0.0380 -0.1982
 9482TIP3    H228411   5.250   4.013   0.788 -0.7612  0.0075  0.2282
 9483TIP3   OH228412   5.784   5.775   2.588  0.5202 -0.3542 -0.5339
 9483TIP3    H128413   5.766   5.708   2.654 -0.2063 -1.0812 -1.4423
 9483TIP3    H228414   5.697   5.801   2.557  0.5847  2.6571  1.3435
 9484TIP3   OH228415   0.624   0.994   1.667  0.2814  0.3295 -0.2535
 9484TIP3    H128416   0.650   1.010   1.576  1.5351 -0.4338 -0.0572
 9484TIP3    H228417   0.600   0.901   1.668 -1.8984  0.8463 -0.2687
 9485TIP3   OH228418   1.164   0.883   5.045  0.2100 -0.3645  0.3436
 9485TIP3    H128419   1.253   0.918   5.045  0.2800 -0.2588 -2.3585
 9485TIP3    H228420   1.162   0.821   5.117  2.0624  0.5904  1.2833
 9486TIP3   OH228421   5.728   4.114   3.807  0.1645 -0.3790  0.0479
 9486TIP3    H128422   5.766   4.079   3.726 -2.1177 -0.1236 -1.1944
 9486TIP3    H228423   5.694   4.037   3.853  0.4828 -0.3994  0.2580
 9487TIP3   OH228424   1.255   6.367   0.881  0.3858 -0.0312  0.0495
 9487TIP3    H128425   1.267   6.445   0.827  0.6061  0.1587  0.3710
 9487TIP3    H228426   1.312   6.301   0.840  1.1500  0.3372  0.4968
 9488TIP3   OH228427   6.590   4.440   4.753  0.0404 -0.1016 -0.2076
 9488TIP3    H128428   6.613   4.533   4.747  0.0889 -0.1914 -2.8879
 9488TIP3    H228429   6.626   4.402   4.673 -0.5823 -2.2954  0.5015
 9489TIP3   OH228430   4.367   4.214   3.712 -0.1175 -0.5156 -0.2736
 9489TIP3    H128431   4.311   4.137   3.710  0.5298 -0.9930 -0.2880
 9489TIP3    H228432   4.423   4.204   3.635  1.2185 -0.9828  0.7328
 9490TIP3   OH228433   7.176   5.425   4.125 -0.3523  0.6366 -0.0694
 9490TIP3    H128434   7.081   5.437   4.120 -0.1611  1.9217 -1.5313
 9490TIP3    H228435   7.199   5.383   4.042  0.1855 -1.3861  1.0366
 9491TIP3   OH228436   5.879   1.984   5.736  0.2882  0.5077  0.0027
 9491TIP3    H128437   5.820   1.939   5.798 -0.5619  0.5114 -0.7842
 9491TIP3    H228438   5.960   1.933   5.741  0.2323  0.4813  1.0889
 9492TIP3   OH228439   4.281   3.501   1.798 -0.0666 -0.0626 -0.3327
 9492TIP3    H128440   4.353   3.462   1.748  0.4578  0.5027 -0.0311
 9492TIP3    H228441   4.225   3.426   1.822 -0.8545 -0.2446 -2.5440
 9493TIP3   OH228442   6.335   1.040   4.550 -0.2715 -0.4568  0.1258
 9493TIP3    H128443   6.258   1.089   4.577 -1.0798  0.1533 -2.8827
 9493TIP3    H228444   6.401   1.107   4.533  0.1337 -0.7904  0.3635
 9494TIP3   OH228445   2.405   3.531   0.151  0.5921 -0.7079 -0.7731
 9494TIP3    H128446   2.494   3.500   0.171  0.7929  0.5476  0.4463
 9494TIP3    H228447   2.357   3.519   0.233  0.2387  0.5843 -0.7729
 9495TIP3   OH228448   2.848   2.387   2.238  0.2809 -0.7804 -0.0775
 9495TIP3    H128449   2.837   2.309   2.184  2.2627 -2.6883  2.0309
 9495TIP3    H228450   2.766   2.395   2.286 -0.1579 -1.2193 -0.7433
 9496TIP3   OH228451   0.525   1.243   5.271 -0.2325  0.1174 -0.4581
 9496TIP3    H128452   0.494   1.202   5.190 -3.0900 -0.2679  0.7415
 9496TIP3    H228453   0.570   1.173   5.318 -2.0488 -0.7606  0.0214
 9497TIP3   OH228454   2.452   4.064   0.216 -0.0862  0.2157  0.1343
 9497TIP3    H128455   2.429   4.061   0.123  0.5168 -0.1089 -0.0150
 9497TIP3    H228456   2.544   4.038   0.218 -0.4148 -0.9388  0.9429
 9498TIP3   OH228457   4.195   1.913   3.871  0.3679  0.4707 -0.2759
 9498TIP3    H128458   4.175   1.822   3.894  0.1206  0.7726  0.7507
 9498TIP3    H228459   4.123   1.963   3.909  1.0603  1.2000  0.0967
 9499TIP3   OH228460   2.168   4.115   0.283 -0.1644  0.0446 -0.2407
 9499TIP3    H128461   2.263   4.111   0.276 -0.2448  0.3961 -2.2759
 9499TIP3    H228462   2.145   4.047   0.346  1.3913 -0.5222 -0.2526
 9500TIP3   OH228463   3.299   1.466   2.996 -0.1338  0.2948  0.4313
 9500TIP3    H128464   3.290   1.421   2.912  0.4266  0.5363  0.2403
 9500TIP3    H228465   3.388   1.447   3.025 -0.5143 -0.2758  1.2635
 9501TIP3   OH228466   1.975   1.727   2.686  0.5541 -0.3875  0.0176
 9501TIP3    H128467   2.061   1.757   2.714  0.7042  0.0487 -0.8477
 9501TIP3    H228468   1.989   1.696   2.596 -0.2023 -0.1958 -0.1736
 9502TIP3   OH228469   3.694   0.352   1.900  0.0339 -0.3620  0.2553
 9502TIP3    H128470   3.733   0.318   1.819  1.8375  0.9812  0.4918
 9502TIP3    H228471   3.697   0.447   1.890 -1.6038 -0.1833  1.0853
 9503TIP3   OH228472   0.306   0.412   3.941 -0.4433 -0.1231  0.3857
 9503TIP3    H128473   0.370   0.381   4.005 -0.5115 -1.4531 -0.1550
 9503TIP3    H228474   0.228   0.360   3.957  0.1023 -1.7996 -1.8581
 9504TIP3   OH228475   3.869   5.275   1.165 -0.4655  0.2081  0.3731
 9504TIP3    H128476   3.804   5.206   1.179 -0.4168  0.2251  0.6752
 9504TIP3    H228477   3.918   5.280   1.247 -0.3062  0.4321  0.2660
 9505TIP3   OH228478   4.879   2.030   0.757  0.2743  0.1886 -0.6479
 9505TIP3    H128479   4.913   2.026   0.846  1.8017 -0.4143 -1.2330
 9505TIP3    H228480   4.788   1.998   0.764  0.5442 -0.3449  0.5974
 9506TIP3   OH228481   1.640   5.257   0.656  0.1435  0.1673 -0.1889
 9506TIP3    H128482   1.599   5.333   0.616 -1.0771 -0.6925 -0.6464
 9506TIP3    H228483   1.727   5.287   0.682  0.5655  1.0846 -2.4390
 9507TIP3   OH228484   7.051   5.990   3.834 -0.3937  0.2820  0.6162
 9507TIP3    H128485   7.050   5.957   3.925 -1.1851 -1.0732  0.1541
 9507TIP3    H228486   6.960   6.015   3.817 -0.1492  1.0029  0.3498
 9508TIP3   OH228487   2.162   2.934   3.252 -0.2837  0.0681  0.0270
 9508TIP3    H128488   2.176   3.009   3.310  1.2883 -1.1292  1.3056
 9508TIP3    H228489   2.163   2.971   3.164 -2.9992  1.9892  0.6957
 9509TIP3   OH228490   6.132   2.280   3.674  0.4185  0.1173  0.1725
 9509TIP3    H128491   6.100   2.264   3.763 -0.0216  2.5647  0.5278
 9509TIP3    H228492   6.224   2.254   3.677  0.1454 -0.8042  1.0373
 9510TIP3   OH228493   3.419   2.022   4.685  0.1360 -0.5935 -1.0263
 9510TIP3    H128494   3.465   1.985   4.760 -0.8512 -0.4475 -0.3320
 9510TIP3    H228495   3.327   2.027   4.713 -0.3918 -1.3351 -2.5471
 9511TIP3   OH228496   4.439   6.649   3.393  0.0029  0.1201  0.5001
 9511TIP3    H128497   4.347   6.676   3.400  0.2940  1.2442  0.1788
 9511TIP3    H228498   4.480   6.685   3.471  0.2544 -0.0410  0.4412
 9512TIP3   OH228499   6.416   0.711   2.003  0.2679  0.3952  0.3301
 9512TIP3    H128500   6.365   0.697   2.083 -1.7525  2.3409 -0.5201
 9512TIP3    H228501   6.384   0.644   1.942 -1.3581  1.5984 -0.1953
 9513TIP3   OH228502   1.551   4.868   5.017  0.1570 -0.5707 -0.2448
 9513TIP3    H128503   1.555   4.963   5.003 -0.9228 -0.4846 -0.0893
 9513TIP3    H228504   1.546   4.859   5.112 -1.9827 -0.6324 -0.3067
 9514TIP3   OH228505   0.605   2.499   2.154 -0.0237 -0.5742  0.6116
 9514TIP3    H128506   0.519   2.536   2.174 -0.3121 -0.4625 -0.7236
 9514TIP3    H228507   0.660   2.574   2.133 -0.3872 -0.7875 -1.2945
 9515TIP3   OH228508   5.858   3.530   2.139 -0.3047  0.1733  0.6988
 9515TIP3    H128509   5.772   3.557   2.170 -0.1762  1.5543 -0.0863
 9515TIP3    H228510   5.854   3.434   2.139 -2.2264  0.2101 -0.3842
 9516TIP3   OH228511   6.785   5.959   4.095 -0.6959  0.3561 -0.3476
 9516TIP3    H128512   6.858   6.016   4.072  0.9213 -0.3720  2.4061
 9516TIP3    H228513   6.787   5.889   4.030 -0.9304  1.9086 -2.0999
 9517TIP3   OH228514   0.440   3.694   3.654  0.5578 -0.1099 -0.5970
 9517TIP3    H128515   0.419   3.620   3.711 -1.8326  1.8375  1.3058
 9517TIP3    H228516   0.510   3.740   3.701 -0.7696  0.9843  0.3848
 9518TIP3   OH228517   3.161   1.899   2.060 -0.0083  0.4913 -0.1053
 9518TIP3    H128518   3.080   1.912   2.010  0.2984  1.2581 -0.4299
 9518TIP3    H228519   3.146   1.946   2.142 -1.0392 -1.9008  1.1786
 9519TIP3   OH228520   6.510   3.156   3.351  0.4697 -0.3498 -0.5081
 9519TIP3    H128521   6.527   3.120   3.263  1.3015  1.8470 -1.3073
 9519TIP3    H228522   6.422   3.193   3.345  1.3918  1.8800 -1.2203
 9520TIP3   OH228523   1.312   1.356   4.668 -0.6411 -0.5142  0.0554
 9520TIP3    H128524   1.243   1.316   4.720 -1.0097 -2.6342 -1.9068
 9520TIP3    H228525   1.266   1.410   4.604 -0.2457  0.9370  0.9270
 9521TIP3   OH228526   1.289   1.616   4.262  0.0125  0.1376 -0.1873
 9521TIP3    H128527   1.384   1.608   4.268 -0.0256 -1.8061 -1.2650
 9521TIP3    H228528   1.272   1.622   4.168 -0.9328  0.6886  0.0086
 9522TIP3   OH228529   2.846   6.686   0.045 -0.2769  0.3857  0.2047
 9522TIP3    H128530   2.758   6.648   0.039  0.5757 -1.5397 -1.7714
 9522TIP3    H228531   2.904   6.613   0.026  1.9164  1.1908  3.1056
 9523TIP3   OH228532   3.248   6.733   5.412  0.2283  0.4043 -0.3889
 9523TIP3    H128533   3.223   6.820   5.444 -0.3650 -0.5760  2.0326
 9523TIP3    H228534   3.333   6.716   5.453 -0.8323 -1.1335  1.3147
 9524TIP3   OH228535   1.476   1.653   3.100 -0.3965  0.0636 -0.3493
 9524TIP3    H128536   1.505   1.672   3.011 -1.0726  0.7222 -0.4324
 9524TIP3    H228537   1.401   1.711   3.114 -0.4389 -0.2021  0.5644
 9525TIP3   OH228538   1.603   5.077   3.159 -0.4406 -0.3935  0.0088
 9525TIP3    H128539   1.576   5.169   3.158  0.3326 -0.1599 -0.5707
 9525TIP3    H228540   1.533   5.031   3.111 -1.4199 -0.3017  1.2965
 9526TIP3   OH228541   2.325   1.235   2.362 -0.6560 -0.3632  0.0402
 9526TIP3    H128542   2.402   1.226   2.417 -1.5974 -1.3583  1.2527
 9526TIP3    H228543   2.355   1.284   2.286  0.4757  1.9468  1.8602
 9527TIP3   OH228544   4.325   2.368   1.597  0.0442  0.1465  0.2403
 9527TIP3    H128545   4.377   2.310   1.652 -0.5604 -1.6624 -0.9883
 9527TIP3    H228546   4.344   2.456   1.629  3.9277 -0.3906 -0.1865
 9528TIP3   OH228547   0.991   0.674   3.507 -0.1517 -0.2019  0.1322
 9528TIP3    H128548   1.035   0.602   3.552 -0.0647  0.1258  0.5811
 9528TIP3    H228549   1.048   0.694   3.432 -0.7533 -1.3389 -0.6508
 9529TIP3   OH228550   4.514   6.270   1.732 -0.3066  0.2546  0.4704
 9529TIP3    H128551   4.522   6.290   1.639 -0.5652  1.6653  0.7312
 9529TIP3    H228552   4.498   6.354   1.774  0.6790 -0.2327  1.9116
 9530TIP3   OH228553   1.567   1.126   3.559 -0.0064 -0.0565 -0.0056
 9530TIP3    H128554   1.502   1.188   3.591  0.8586  0.8205  0.0877
 9530TIP3    H228555   1.630   1.118   3.630  0.1986 -0.6095 -0.2401
 9531TIP3   OH228556   6.417   2.325   1.120  0.1058 -0.2248 -0.1758
 9531TIP3    H128557   6.335   2.278   1.135  0.6472 -1.2219 -0.2349
 9531TIP3    H228558   6.391   2.417   1.115 -0.8725 -0.4182  0.8266
 9532TIP3   OH228559   4.461   4.053   1.795 -0.4961 -0.3333  0.5024
 9532TIP3    H128560   4.418   4.043   1.880 -0.8651  1.2998  0.5379
 9532TIP3    H228561   4.499   3.967   1.777 -2.6954 -1.4978  1.0529
 9533TIP3   OH228562   3.780   3.533   2.169 -0.5633  0.3411  0.4876
 9533TIP3    H128563   3.793   3.608   2.227  0.1976  1.0597 -0.5969
 9533TIP3    H228564   3.721   3.475   2.219 -2.7219  2.4769  0.5937
 9534TIP3   OH228565   2.229   5.376   0.080  0.2050  0.2617  0.1004
 9534TIP3    H128566   2.277   5.306   0.037 -0.3212  0.4191 -0.7819
 9534TIP3    H228567   2.140   5.368   0.046  0.5557  2.5676 -1.6149
 9535TIP3   OH228568   2.714   2.465   4.547  0.1618 -0.5900  0.2580
 9535TIP3    H128569   2.689   2.380   4.585 -2.0041 -0.2062 -0.2000
 9535TIP3    H228570   2.701   2.527   4.619  1.6177 -0.5858  0.5509
 9536TIP3   OH228571   4.257   6.731   3.980  0.1213  0.1672  0.1729
 9536TIP3    H128572   4.182   6.724   3.920 -1.0211  0.1933  1.5562
 9536TIP3    H228573   4.328   6.766   3.925 -0.8035 -0.0326 -1.2137
 9537TIP3   OH228574   5.635   2.217   2.275 -0.4062 -0.3555  0.6507
 9537TIP3    H128575   5.560   2.158   2.278 -0.6809  0.0045  0.8911
 9537TIP3    H228576   5.707   2.162   2.244 -0.7929 -0.6720  0.2995
 9538TIP3   OH228577   4.525   6.353   0.809 -0.3162  0.6587  0.0664
 9538TIP3    H128578   4.535   6.334   0.902 -0.5586 -0.2483 -0.0817
 9538TIP3    H228579   4.589   6.296   0.766 -1.3320 -0.1687 -0.4171
 9539TIP3   OH228580   5.602   5.675   1.817 -0.2337 -0.5651 -0.1107
 9539TIP3    H128581   5.592   5.590   1.859  0.3000  0.0583  1.3374
 9539TIP3    H228582   5.517   5.717   1.826 -0.1499 -0.4737  0.2674
 9540TIP3   OH228583   2.118   3.081   2.251  0.2389  0.1421 -0.2877
 9540TIP3    H128584   2.026   3.095   2.227  0.4491  1.8858 -0.2186
 9540TIP3    H228585   2.142   3.160   2.300  1.8300 -0.1860 -0.4891
 9541TIP3   OH228586   6.314   1.604   2.828 -0.2748 -0.2784 -0.5782
 9541TIP3    H128587   6.279   1.533   2.882  0.0773 -0.4127 -0.5233
 9541TIP3    H228588   6.380   1.646   2.884 -0.2682 -0.0984 -0.7207
 9542TIP3   OH228589   3.125   3.437   3.136 -0.3034  0.4544  0.0180
 9542TIP3    H128590   3.075   3.444   3.217 -1.0115  0.6537 -0.4320
 9542TIP3    H228591   3.166   3.523   3.124 -0.4247  0.5120  0.0197
 9543TIP3   OH228592   2.405   4.223   3.774  0.0845 -0.6186 -0.0943
 9543TIP3    H128593   2.359   4.145   3.743  1.2994 -1.7863  0.9260
 9543TIP3    H228594   2.459   4.192   3.847 -0.1069  1.3551  0.9760
 9544TIP3   OH228595   1.781   5.486   3.795  0.1315 -0.4164 -0.3320
 9544TIP3    H128596   1.789   5.399   3.756  3.1455 -0.8617  0.9823
 9544TIP3    H228597   1.765   5.469   3.888 -0.6885  0.4906 -0.2955
 9545TIP3   OH228598   3.783   2.062   4.145 -0.3845  0.3305  0.3553
 9545TIP3    H128599   3.732   2.007   4.086 -1.0272  0.3776  0.8456
 9545TIP3    H228600   3.746   2.043   4.232  0.4672  0.3390  0.7251
 9546TIP3   OH228601   5.127   2.554   0.434 -0.2531  0.0037  0.4286
 9546TIP3    H128602   5.066   2.514   0.495  0.9114 -1.1280  0.9065
 9546TIP3    H228603   5.200   2.492   0.429 -0.7646 -0.5329 -2.9547
 9547TIP3   OH228604   7.068   0.245   1.749  0.1369 -0.0437 -0.2444
 9547TIP3    H128605   7.116   0.163   1.736  0.5013 -0.0604  1.1025
 9547TIP3    H228606   6.989   0.235   1.697  1.0945 -0.4369 -1.7037
 9548TIP3   OH228607   0.570   1.452   0.995 -0.2310 -0.0635 -0.1914
 9548TIP3    H128608   0.533   1.455   1.083  0.6385 -0.8130  0.2136
 9548TIP3    H228609   0.658   1.417   1.007  0.8966  2.2939 -1.0482
 9549TIP3   OH228610   6.484   6.507   5.140  0.2116  0.0170  0.6135
 9549TIP3    H128611   6.451   6.548   5.219 -0.4920 -1.9580  1.4001
 9549TIP3    H228612   6.543   6.438   5.171 -0.8331 -1.4492 -0.4887
 9550TIP3   OH228613   0.695   4.530   1.009  0.0424 -0.1236 -0.1777
 9550TIP3    H128614   0.787   4.554   1.003  0.3828 -1.0841  0.8353
 9550TIP3    H228615   0.674   4.535   1.102 -1.0736  0.5546 -0.4434
 9551TIP3   OH228616   3.906   4.845   3.984  0.2215 -0.2420  0.4143
 9551TIP3    H128617   3.830   4.894   3.953  1.0233  0.3136 -0.7421
 9551TIP3    H228618   3.977   4.909   3.985  0.9848 -1.0594  0.1464
 9552TIP3   OH228619   3.660   4.302   3.088 -0.4586 -0.2369 -0.1700
 9552TIP3    H128620   3.681   4.237   3.156  2.4188  2.3419  1.6573
 9552TIP3    H228621   3.734   4.296   3.027 -1.1695 -0.0142 -1.0601
 9553TIP3   OH228622   1.197   2.299   5.432  0.7576 -0.3271 -0.0181
 9553TIP3    H128623   1.130   2.360   5.401 -0.5109 -1.7535 -0.2047
 9553TIP3    H228624   1.279   2.338   5.404 -0.0258  1.1801 -0.3266
 9554TIP3   OH228625   2.023   5.302   1.163 -0.2826 -0.3903  0.4932
 9554TIP3    H128626   1.965   5.230   1.189 -0.2013 -1.3117 -1.6228
 9554TIP3    H228627   1.989   5.330   1.078  2.4008 -1.0428 -0.8865
 9555TIP3   OH228628   2.727   2.771   2.391  0.0485  0.3734  0.8203
 9555TIP3    H128629   2.809   2.742   2.352 -0.5210  1.1173 -1.0437
 9555TIP3    H228630   2.663   2.766   2.320 -1.6024 -0.3954  2.2708
 9556TIP3   OH228631   5.391   2.185   4.239 -0.2441  0.4402 -0.0817
 9556TIP3    H128632   5.413   2.232   4.320  0.2189  3.1014 -1.6209
 9556TIP3    H228633   5.297   2.167   4.247 -0.1246  0.2561  1.2105
 9557TIP3   OH228634   5.977   3.009   1.837  0.6241 -0.5847  0.2538
 9557TIP3    H128635   6.057   3.056   1.862  1.3000 -0.1685 -2.3474
 9557TIP3    H228636   5.906   3.063   1.872  1.4358  1.4023 -0.9802
 9558TIP3   OH228637   0.093   0.700   5.255  0.6643  0.3484  0.6435
 9558TIP3    H128638   0.060   0.689   5.344 -0.2150 -0.3093  0.2497
 9558TIP3    H228639   0.043   0.638   5.202  0.5553  1.3248 -0.4644
 9559TIP3   OH228640   1.856   5.177   0.318  0.2182  0.3379  0.9795
 9559TIP3    H128641   1.852   5.269   0.292  1.0555  0.0746 -0.1342
 9559TIP3    H228642   1.778   5.137   0.279 -0.0672  0.5308  1.3414
 9560TIP3   OH228643   7.033   5.358   3.383 -0.3606  0.0606 -0.6547
 9560TIP3    H128644   6.986   5.408   3.450  1.5937  2.2708 -0.8346
 9560TIP3    H228645   7.096   5.305   3.432 -1.0270 -0.7281 -0.6102
 9561TIP3   OH228646   6.302   6.098   2.247  0.5301  1.3063  0.2417
 9561TIP3    H128647   6.218   6.054   2.258  0.3331  1.5813 -0.1235
 9561TIP3    H228648   6.367   6.028   2.247  0.2365  1.0336 -0.1613
 9562TIP3   OH228649   1.704   2.554   1.970 -0.0647  0.5586  0.6029
 9562TIP3    H128650   1.664   2.500   2.039  0.9706 -1.1147 -0.0556
 9562TIP3    H228651   1.648   2.631   1.966 -2.5644 -1.1271  0.5453
 9563TIP3   OH228652   3.644   1.804   5.125  0.1950  0.4273 -0.3218
 9563TIP3    H128653   3.617   1.713   5.118  2.5291 -0.5223  1.7252
 9563TIP3    H228654   3.718   1.812   5.064  0.9256  0.5282  0.5608
 9564TIP3   OH228655   2.229   0.001   5.227 -0.1959  0.3890  0.4024
 9564TIP3    H128656   2.233   0.046   5.143 -0.4398 -1.5798 -0.7313
 9564TIP3    H228657   2.135  -0.004   5.247 -0.0902  2.0673  1.5431
 9565TIP3   OH228658   5.135   2.152   2.547  0.0711  0.0238  0.1300
 9565TIP3    H128659   5.183   2.129   2.627 -0.0747 -0.2809  0.1316
 9565TIP3    H228660   5.048   2.176   2.578 -0.1957 -0.7544  0.0054
 9566TIP3   OH228661   1.908   4.169   4.234 -0.3331  0.0380  0.4109
 9566TIP3    H128662   1.963   4.158   4.157 -0.9130  0.5155 -0.0794
 9566TIP3    H228663   1.919   4.088   4.284  1.2373  0.3452  0.5997
 9567TIP3   OH228664   0.054   4.182   0.108 -0.1787 -0.0910  0.0811
 9567TIP3    H128665   0.080   4.095   0.079 -1.4261 -0.4711  0.0555
 9567TIP3    H228666   0.060   4.236   0.029 -1.7691 -0.7141 -0.5040
 9568TIP3   OH228667   3.330   0.320   4.453 -0.2670 -0.2626 -0.2633
 9568TIP3    H128668   3.382   0.372   4.513 -0.3638 -0.1912 -0.2412
 9568TIP3    H228669   3.311   0.239   4.500  0.6230 -0.6936 -0.6129
 9569TIP3   OH228670   5.059   3.955   2.278 -0.6446 -0.4950 -0.2442
 9569TIP3    H128671   5.002   4.028   2.251  1.2609  1.3899  0.5335
 9569TIP3    H228672   5.083   3.912   2.196 -1.7327 -0.2182 -0.7297
 9570TIP3   OH228673   2.354   0.572   4.545  0.5273 -0.4479 -0.0802
 9570TIP3    H128674   2.310   0.656   4.553 -0.7610 -1.0583 -0.3171
 9570TIP3    H228675   2.419   0.584   4.476  0.8405  0.5322  0.3809
 9571TIP3   OH228676   3.445   0.025   3.425 -0.4429 -0.4743 -0.2028
 9571TIP3    H128677   3.446  -0.030   3.347  0.3532  0.3545 -0.7989
 9571TIP3    H228678   3.371   0.085   3.411 -0.6518 -0.6938 -0.0491
 9572TIP3   OH228679   0.636   5.841   2.849 -0.5984  0.3028  0.4219
 9572TIP3    H128680   0.702   5.855   2.918  0.5878 -0.8540 -0.4215
 9572TIP3    H228681   0.602   5.753   2.866 -0.8295  0.3031 -0.0272
 9573TIP3   OH228682   5.162   5.986   0.477 -0.3800 -0.6794 -0.7729
 9573TIP3    H128683   5.227   5.940   0.423  0.2318 -1.0266  0.2179
 9573TIP3    H228684   5.086   5.928   0.477 -0.1659 -0.9666 -0.7782
 9574TIP3   OH228685   4.028   5.129   2.943 -0.1861 -0.5566 -0.1081
 9574TIP3    H128686   4.032   5.113   2.849  0.7242  1.0591 -0.3934
 9574TIP3    H228687   4.113   5.170   2.964  0.2861 -2.3106  1.7247
 9575TIP3   OH228688   4.735   2.200   0.286 -0.0250 -0.6285  0.2960
 9575TIP3    H128689   4.798   2.164   0.348 -0.7885 -0.8997  0.9231
 9575TIP3    H228690   4.660   2.224   0.339 -1.2668 -2.1715 -0.6887
 9576TIP3   OH228691   0.330   6.155   2.696 -0.2909  0.3269 -0.6193
 9576TIP3    H128692   0.310   6.158   2.602 -1.0812 -1.9155 -0.5832
 9576TIP3    H228693   0.422   6.129   2.700 -0.4624 -0.3279 -0.7897
 9577TIP3   OH228694   3.646   5.284   3.011  0.3664  0.4479 -0.3062
 9577TIP3    H128695   3.586   5.324   2.949 -1.1592 -0.8611  0.2595
 9577TIP3    H228696   3.639   5.338   3.090  1.2427  1.2818 -0.7788
 9578TIP3   OH228697   2.920   0.471   4.771  0.2358  0.3049  0.5206
 9578TIP3    H128698   2.967   0.450   4.690  0.2703 -2.1762  1.1194
 9578TIP3    H228699   2.988   0.473   4.839  0.4005  3.5441  0.4323
 9579TIP3   OH228700   1.193   2.066   1.177 -0.1190  0.2921  0.0500
 9579TIP3    H128701   1.098   2.050   1.171 -0.4185  1.1081  2.1065
 9579TIP3    H228702   1.203   2.159   1.154 -0.1175  0.8000  1.9900
 9580TIP3   OH228703   3.335   2.572   2.974  0.2548 -0.3494  0.1551
 9580TIP3    H128704   3.310   2.564   3.066  0.3722 -1.4578  0.1109
 9580TIP3    H228705   3.287   2.501   2.930  0.8294 -0.3447 -0.4993
 9581TIP3   OH228706   5.935   1.034  -0.020  0.0730 -0.1436  0.5382
 9581TIP3    H128707   5.842   1.057  -0.022  0.4383  1.3225 -1.1228
 9581TIP3    H228708   5.964   1.060   0.067 -0.5607  1.5721  0.2633
 9582TIP3   OH228709   7.043   5.718   3.758  0.3800 -0.1890 -0.1657
 9582TIP3    H128710   7.051   5.735   3.664 -0.7407  0.7654 -0.1245
 9582TIP3    H228711   7.101   5.782   3.799  1.8624 -1.4367 -0.2042
 9583TIP3   OH228712   4.012   0.695   0.752  0.7705  0.1250 -0.1579
 9583TIP3    H128713   3.938   0.664   0.700 -0.5462 -0.1835  1.7995
 9583TIP3    H228714   4.027   0.627   0.817  0.9499  1.4033  1.2070
 9584TIP3   OH228715   3.094   3.354   4.866  0.0293 -0.2143  0.4041
 9584TIP3    H128716   3.048   3.439   4.864 -0.1487 -0.3153 -0.0966
 9584TIP3    H228717   3.034   3.294   4.822 -0.3954 -0.8944  1.8609
 9585TIP3   OH228718   4.575   2.038   4.021 -0.0557 -0.3060  0.0878
 9585TIP3    H128719   4.619   2.012   3.940  0.4046 -1.6566  0.7582
 9585TIP3    H228720   4.512   1.969   4.038 -1.4532  0.8694 -0.0537
 9586TIP3   OH228721   1.770   4.969   5.900  0.1681 -0.3138 -0.3892
 9586TIP3    H128722   1.710   5.037   5.868  2.9367  3.6064  1.9697
 9586TIP3    H228723   1.853   4.988   5.858  1.2851 -1.6934  1.0613
 9587TIP3   OH228724   2.715   6.720   4.593 -0.2102  0.2995  0.5849
 9587TIP3    H128725   2.750   6.791   4.538  1.9479  0.6189  2.2202
 9587TIP3    H228726   2.793   6.674   4.624 -1.4931 -1.5858  1.1716
 9588TIP3   OH228727   0.249   5.989   0.279 -0.0712 -0.0060 -0.0107
 9588TIP3    H128728   0.314   5.983   0.209 -0.5091 -2.6956 -0.2891
 9588TIP3    H228729   0.166   6.000   0.234 -0.5040 -2.8911 -0.1200
 9589TIP3   OH228730   5.176   0.770   1.350  0.1331  0.3240 -0.1218
 9589TIP3    H128731   5.173   0.678   1.376  0.6888  0.4022  0.2372
 9589TIP3    H228732   5.102   0.810   1.396  0.3615  0.2090  0.3589
 9590TIP3   OH228733   6.727   6.448   1.333  0.1972 -0.4994  0.3247
 9590TIP3    H128734   6.767   6.362   1.340 -0.3553 -0.7615  0.3120
 9590TIP3    H228735   6.717   6.478   1.423  0.2020 -0.5368  0.3375
 9591TIP3   OH228736   2.892   0.030   3.356  0.3807  0.1556  0.1953
 9591TIP3    H128737   2.822   0.093   3.338 -0.6375 -1.0609 -0.2774
 9591TIP3    H228738   2.897   0.025   3.451  0.4140  0.8570  0.2391
 9592TIP3   OH228739   1.897   5.487   0.548 -0.2179 -0.3489  0.1360
 9592TIP3    H128740   1.974   5.543   0.562 -1.1436  1.1740 -0.6430
 9592TIP3    H228741   1.933   5.405   0.513  0.9824  0.7249 -1.2531
 9593TIP3   OH228742   2.306   2.714   0.150  0.2227 -0.2370 -0.1624
 9593TIP3    H128743   2.287   2.790   0.205 -2.4952 -0.2636 -0.9627
 9593TIP3    H228744   2.377   2.743   0.092 -0.6451  1.6349 -0.3376
 9594TIP3   OH228745   2.874   1.720   2.913  0.1026  0.2113 -0.4024
 9594TIP3    H128746   2.880   1.650   2.979 -0.6129 -0.2571 -0.8212
 9594TIP3    H228747   2.839   1.795   2.961  1.6813  0.5659  0.2464
 9595TIP3   OH228748   3.760   4.409   2.314 -0.3946 -0.2000 -0.2707
 9595TIP3    H128749   3.713   4.486   2.283 -2.0113 -1.0848 -0.1075
 9595TIP3    H228750   3.744   4.407   2.408  1.0433  0.1521  0.0195
 9596TIP3   OH228751   0.588   2.592   2.623 -0.4879 -0.3441  0.9977
 9596TIP3    H128752   0.629   2.514   2.660 -0.2672 -0.8042 -0.1680
 9596TIP3    H228753   0.573   2.649   2.698  3.4212  0.3963  1.4421
 9597TIP3   OH228754   1.116   0.068   3.756  0.5063 -0.8968  0.4301
 9597TIP3    H128755   1.204   0.033   3.767  1.1460  0.5474  0.2461
 9597TIP3    H228756   1.096   0.054   3.663  0.8068 -0.6852  0.3313
 9598TIP3   OH228757   5.611   5.782   2.879  0.3921 -0.0496 -0.2358
 9598TIP3    H128758   5.605   5.877   2.876 -1.8214 -0.0944  0.7530
 9598TIP3    H228759   5.610   5.760   2.972  2.3302 -1.0098 -0.3976
 9599TIP3   OH228760   4.520   4.175   5.330 -0.4301  0.3433  0.6995
 9599TIP3    H128761   4.425   4.171   5.338 -0.3310 -0.0821  1.8887
 9599TIP3    H228762   4.536   4.241   5.263 -1.5535  1.5296  1.5534
 9600TIP3   OH228763   5.391   5.520   0.805 -0.4667 -0.2770 -0.1575
 9600TIP3    H128764   5.419   5.610   0.791 -1.2540  0.2429  1.3238
 9600TIP3    H228765   5.465   5.467   0.779  0.5629  0.8765  0.3195
 9601TIP3   OH228766   4.009   2.688   2.548 -0.5110 -0.2871  0.8779
 9601TIP3    H128767   3.965   2.741   2.614  0.2729 -0.6074  1.6803
 9601TIP3    H228768   4.098   2.677   2.582 -0.3446 -1.1946  0.1891
 9602TIP3   OH228769   6.588   5.697   1.125  0.4531 -0.3651  0.1622
 9602TIP3    H128770   6.620   5.762   1.187  0.5122 -0.3881  0.1561
 9602TIP3    H228771   6.570   5.747   1.045 -2.4489  0.2073  1.0746
 9603TIP3   OH228772   1.402   3.085   1.191 -0.1011 -0.4222  0.1564
 9603TIP3    H128773   1.475   3.139   1.221 -0.6489  1.4943 -1.7429
 9603TIP3    H228774   1.408   3.088   1.095 -1.6023 -1.7669 -0.0253
 9604TIP3   OH228775   4.056   1.924   3.334 -0.3709  0.4201  0.3806
 9604TIP3    H128776   4.003   1.998   3.304  0.3320  0.8437  0.1797
 9604TIP3    H228777   4.146   1.949   3.315 -0.2597 -1.7868 -2.5551
 9605TIP3   OH228778   2.077   2.195   5.302 -0.7146 -0.1220 -0.4677
 9605TIP3    H128779   2.120   2.216   5.219 -0.3132  0.0349 -0.2248
 9605TIP3    H228780   2.145   2.151   5.354 -0.0686  2.2793  0.8511
 9606TIP3   OH228781   6.415   1.128   4.184  0.4962  0.2593 -0.0580
 9606TIP3    H128782   6.407   1.068   4.110  0.2350  0.7773 -0.4495
 9606TIP3    H228783   6.362   1.204   4.160  1.2820  0.8983  0.1799
 9607TIP3   OH228784   3.852   6.400   3.427 -0.3908  0.0596 -0.4188
 9607TIP3    H128785   3.806   6.338   3.484 -1.1804  0.8912 -0.1228
 9607TIP3    H228786   3.789   6.472   3.414  0.6448  1.0032 -0.3947
 9608TIP3   OH228787   5.391   2.496   4.075 -0.6143 -0.3042 -0.2633
 9608TIP3    H128788   5.351   2.491   4.162 -0.2612 -1.5872 -0.1651
 9608TIP3    H228789   5.448   2.573   4.079 -3.0066  1.5984 -0.4020
 9609TIP3   OH228790   0.015   6.395   5.366 -0.1411  0.2024 -0.2590
 9609TIP3    H128791   0.061   6.478   5.372 -0.3052  0.2957 -0.2944
 9609TIP3    H228792  -0.074   6.418   5.340 -0.7600  0.2105  1.6699
 9610TIP3   OH228793   1.505   3.776   4.570  0.2487  0.2323  0.3502
 9610TIP3    H128794   1.546   3.690   4.558  2.4096  1.4359 -2.1404
 9610TIP3    H228795   1.536   3.805   4.656  0.0220 -1.1679  0.9367
 9611TIP3   OH228796   0.644   3.261   5.600 -0.0544 -0.3715 -0.0431
 9611TIP3    H128797   0.624   3.167   5.601  0.3574 -0.4593 -0.2083
 9611TIP3    H228798   0.610   3.292   5.516 -0.2897 -0.3523  0.0595
 9612TIP3   OH228799   6.912   2.699   2.115 -0.5577 -0.1457 -0.7575
 9612TIP3    H128800   6.947   2.651   2.190 -0.6527  0.6051 -0.2182
 9612TIP3    H228801   6.923   2.791   2.139 -2.8233  0.1426 -0.5842
 9613TIP3   OH228802   0.664   6.335   4.062  0.0354  0.8125  0.5933
 9613TIP3    H128803   0.708   6.343   3.977 -2.0905 -2.5119 -1.0040
 9613TIP3    H228804   0.576   6.372   4.047 -0.6799 -0.6553  1.0165
 9614TIP3   OH228805   6.794   3.604   2.085  0.3104  0.5013  0.0351
 9614TIP3    H128806   6.802   3.566   2.172 -1.1542 -2.0425 -0.8456
 9614TIP3    H228807   6.842   3.544   2.028 -0.7403  0.8104 -1.2176
 9615TIP3   OH228808   4.467   0.781   5.090  0.2826  0.1450  0.0911
 9615TIP3    H128809   4.394   0.726   5.118 -0.7389  1.1264 -0.5672
 9615TIP3    H228810   4.480   0.758   4.998  0.3428  0.4609  0.0191
 9616TIP3   OH228811   6.415   0.723   4.305  0.2618  0.3378  0.1794
 9616TIP3    H128812   6.329   0.696   4.273  0.0861  0.0644  0.8462
 9616TIP3    H228813   6.454   0.772   4.233 -1.0888  1.8433  0.4079
 9617TIP3   OH228814   0.576   2.063   1.635  0.2712 -0.3815  0.0160
 9617TIP3    H128815   0.641   2.070   1.705  0.5254 -0.9106 -0.1677
 9617TIP3    H228816   0.623   2.088   1.555 -0.5004  2.1877  0.2569
 9618TIP3   OH228817   1.039   4.951   3.641 -0.2964 -0.2715 -0.2032
 9618TIP3    H128818   1.071   5.036   3.609 -2.8598  1.2959  1.0684
 9618TIP3    H228819   1.022   4.900   3.562  0.7605  0.5761 -1.0125
 9619TIP3   OH228820   0.945   2.643   2.817  0.1151 -0.4760 -0.3477
 9619TIP3    H128821   1.017   2.705   2.826  0.2089 -0.3322 -1.8470
 9619TIP3    H228822   0.962   2.598   2.734 -0.0852 -2.3425  0.5893
 9620TIP3   OH228823   1.439   6.534   5.350  0.1374  0.2317  0.0255
 9620TIP3    H128824   1.441   6.630   5.357  0.4317  0.2444 -0.2137
 9620TIP3    H228825   1.378   6.516   5.279 -0.0523  0.2339  0.1862
 9621TIP3   OH228826   1.820   5.944   0.022  0.4229 -0.3701 -0.1200
 9621TIP3    H128827   1.756   5.975   0.085  0.8953 -0.4818  0.4150
 9621TIP3    H228828   1.826   6.015  -0.043  1.0283  0.3936  0.7479
 9622TIP3   OH228829   5.142   1.746   0.679  0.4477 -0.3538 -0.2358
 9622TIP3    H128830   5.060   1.717   0.640  0.3651 -0.7792  0.2535
 9622TIP3    H228831   5.208   1.732   0.610  0.1158 -0.0089 -0.6281
 9623TIP3   OH228832   1.676   4.471   1.849 -0.5861 -0.2930 -0.1281
 9623TIP3    H128833   1.669   4.508   1.937  1.0289 -0.4456  0.0999
 9623TIP3    H228834   1.770   4.475   1.829 -0.6050 -2.3274 -0.9150
 9624TIP3   OH228835   0.953   4.012   0.985  0.3267 -0.1773 -0.4850
 9624TIP3    H128836   0.968   4.085   1.045  1.7578 -1.7721  1.2456
 9624TIP3    H228837   1.039   3.995   0.947 -0.7463  1.6162 -4.2094
 9625TIP3   OH228838   6.980   4.626   5.537 -0.1710 -0.3434  0.2580
 9625TIP3    H128839   6.898   4.672   5.558 -0.5717 -0.1187 -1.5896
 9625TIP3    H228840   7.048   4.693   5.544 -0.2506 -0.3357  1.0077
 9626TIP3   OH228841   1.742   2.353   0.950  0.1589 -1.0723  0.2285
 9626TIP3    H128842   1.762   2.347   1.043  0.5899 -0.3904  0.1910
 9626TIP3    H228843   1.825   2.336   0.906 -0.7617 -5.5420 -0.2437
 9627TIP3   OH228844   3.394   0.836   1.304 -0.8506  0.0635  0.0180
 9627TIP3    H128845   3.468   0.891   1.279 -1.5945 -0.0758 -2.8247
 9627TIP3    H228846   3.412   0.751   1.263 -1.4015 -0.7743  1.4214
 9628TIP3   OH228847   0.517   3.643   1.381  0.3980 -0.4602  0.5377
 9628TIP3    H128848   0.559   3.697   1.315 -1.3440  0.6522  0.2562
 9628TIP3    H228849   0.528   3.691   1.463 -1.0656  0.3564  0.3033
 9629TIP3   OH228850   6.670   5.808   1.378 -0.1000  0.3094  0.7627
 9629TIP3    H128851   6.633   5.830   1.464  0.0016 -0.0934  0.9097
 9629TIP3    H228852   6.745   5.867   1.369  0.3964 -0.2284  1.3202
 9630TIP3   OH228853   2.774   2.370   4.904 -0.2673  0.7870  0.6461
 9630TIP3    H128854   2.763   2.453   4.857  0.1708 -0.7482 -2.4277
 9630TIP3    H228855   2.858   2.336   4.874 -0.5723 -0.9177  1.5840
 9631TIP3   OH228856   1.259   6.325   3.416  0.6450  0.2946 -0.2604
 9631TIP3    H128857   1.224   6.409   3.385  0.1572 -0.5197 -2.0401
 9631TIP3    H228858   1.255   6.268   3.339  2.1579 -1.0017  0.5782
 9632TIP3   OH228859   3.698   1.290   0.342 -0.2794 -0.2217 -0.1383
 9632TIP3    H128860   3.725   1.367   0.392 -0.7548  0.7064 -1.2716
 9632TIP3    H228861   3.756   1.220   0.373 -0.4878  0.3309  1.6082
 9633TIP3   OH228862   3.351   2.008   2.996  0.7693  0.9336 -0.4063
 9633TIP3    H128863   3.444   2.027   2.988  0.9701 -0.0485 -0.5144
 9633TIP3    H228864   3.347   1.918   3.027 -0.1439  1.1618  0.1795
 9634TIP3   OH228865   4.632   2.517   1.833  0.3499  0.1251  0.0360
 9634TIP3    H128866   4.714   2.539   1.876  1.3953 -0.3463 -1.6474
 9634TIP3    H228867   4.569   2.508   1.905  1.4174  1.8631  1.2510
 9635TIP3   OH228868   3.375   1.360   0.272 -0.0167 -0.0805  0.4031
 9635TIP3    H128869   3.280   1.367   0.264  0.1014 -0.4242 -1.8269
 9635TIP3    H228870   3.405   1.450   0.277 -0.3554  0.1160 -0.7948
 9636TIP3   OH228871   5.162   6.175   0.268  0.4074  0.1068 -0.4818
 9636TIP3    H128872   5.185   6.136   0.353  0.9835  0.2503 -0.5706
 9636TIP3    H228873   5.083   6.225   0.286  0.5471  0.1681 -0.0156
 9637TIP3   OH228874   4.600   6.288   3.301  0.2770 -1.0002 -0.7862
 9637TIP3    H128875   4.639   6.261   3.217  0.3075 -0.7849 -0.8444
 9637TIP3    H228876   4.615   6.214   3.359 -0.3010 -1.4069 -1.1456
 9638TIP3   OH228877   2.712   2.086   4.989 -0.1439  0.3538 -0.4093
 9638TIP3    H128878   2.622   2.070   5.020  0.2170 -0.7715  0.1371
 9638TIP3    H228879   2.738   2.166   5.033  0.3134 -1.1265  2.2691
 9639TIP3   OH228880   7.140   3.461   1.384  0.1302  0.1366  0.1350
 9639TIP3    H128881   7.105   3.550   1.391 -0.8860 -0.2104 -0.2758
 9639TIP3    H228882   7.208   3.457   1.451  0.8085  1.4950 -0.4301
 9640TIP3   OH228883   1.445   5.952   2.081  0.0111 -0.1763  0.6396
 9640TIP3    H128884   1.451   6.012   2.155 -1.2339  0.3989  0.3071
 9640TIP3    H228885   1.383   5.994   2.021  1.2071 -0.4815 -0.8813
 9641TIP3   OH228886   6.468   6.704   1.162 -0.6152  0.4326 -0.1314
 9641TIP3    H128887   6.484   6.698   1.256  0.2651 -0.9296 -0.3490
 9641TIP3    H228888   6.465   6.613   1.131  1.8625  0.8238 -1.8424
 9642TIP3   OH228889   3.113   5.940   4.786 -0.6171 -0.3724 -0.2299
 9642TIP3    H128890   3.131   5.913   4.876  1.2235  0.9300 -0.1492
 9642TIP3    H228891   3.134   5.864   4.733 -0.1346 -0.6298  0.3277
 9643TIP3   OH228892   0.459   3.040   3.215  0.0525  0.3746  0.2494
 9643TIP3    H128893   0.554   3.037   3.227  0.7354  0.5701 -3.6588
 9643TIP3    H228894   0.435   3.132   3.232  1.0038  0.8459 -0.8152
 9644TIP3   OH228895   6.541   4.043   0.415  0.4557 -0.5383  0.1128
 9644TIP3    H128896   6.580   4.109   0.358 -1.0913  1.0522  0.7893
 9644TIP3    H228897   6.607   4.028   0.483  0.2288  1.6492  0.9105
 9645TIP3   OH228898   2.482   6.472   5.127  0.2304  0.0122  0.3812
 9645TIP3    H128899   2.547   6.496   5.061 -0.1149  0.5071  0.2177
 9645TIP3    H228900   2.469   6.378   5.115 -0.0131  0.1437 -0.4225
 9646TIP3   OH228901   0.609   4.973   3.405 -0.3274 -0.0143  0.2393
 9646TIP3    H128902   0.525   4.939   3.373 -0.6122 -0.6853  1.6325
 9646TIP3    H228903   0.664   4.896   3.418  0.2355  0.3557  0.0889
 9647TIP3   OH228904   6.185   1.609   5.398  0.0859 -0.1754  0.1434
 9647TIP3    H128905   6.264   1.628   5.348 -0.1955  0.8047  0.0423
 9647TIP3    H228906   6.114   1.642   5.342 -0.2016  1.4231  1.3805
 9648TIP3   OH228907   3.242   2.412   4.444  0.2029  0.1581  0.6392
 9648TIP3    H128908   3.244   2.479   4.376 -1.7791  0.7579  1.1072
 9648TIP3    H228909   3.271   2.332   4.400  1.3005  1.0287 -0.2692
 9649TIP3   OH228910   2.176   5.546   3.164 -0.0446  0.3972  0.1901
 9649TIP3    H128911   2.164   5.456   3.132  1.2122 -0.1145  1.0712
 9649TIP3    H228912   2.107   5.557   3.229  0.7732 -0.5501  1.2686
 9650TIP3   OH228913   0.111   4.654   4.771 -0.4944  0.1077  0.7647
 9650TIP3    H128914   0.061   4.575   4.749  0.1057  0.2159 -1.2738
 9650TIP3    H228915   0.170   4.666   4.696  1.2447  1.0595  2.2008
 9651TIP3   OH228916   1.157   6.404   4.697 -0.1542  0.8986  0.2230
 9651TIP3    H128917   1.083   6.344   4.690  1.5043 -1.1124 -1.7348
 9651TIP3    H228918   1.155   6.435   4.788 -1.7613 -1.2429  0.9908
 9652TIP3   OH228919   5.817   3.153   0.754 -0.1362 -0.4985  0.0874
 9652TIP3    H128920   5.870   3.098   0.812 -0.5970 -3.3692 -2.0230
 9652TIP3    H228921   5.727   3.123   0.768 -0.5735  0.5427 -0.3257
 9653TIP3   OH228922   3.842   6.589   0.290  0.0331 -0.0361  0.1281
 9653TIP3    H128923   3.922   6.588   0.343  0.2844  2.4166 -0.1110
 9653TIP3    H228924   3.772   6.601   0.354 -0.0991 -1.2003  0.2368
 9654TIP3   OH228925   5.104   5.270   1.758 -0.0441 -0.0888  0.0874
 9654TIP3    H128926   5.141   5.341   1.706  0.3383 -1.0741 -1.0168
 9654TIP3    H228927   5.156   5.270   1.839  0.6655  0.1949 -0.3583
 9655TIP3   OH228928   6.075   0.881   3.599 -0.2567  0.0365  0.5931
 9655TIP3    H128929   6.081   0.959   3.655 -0.2631 -0.5481  1.4311
 9655TIP3    H228930   6.007   0.902   3.535 -0.6165  0.5235  1.1294
 9656TIP3   OH228931   7.136   4.325   2.165 -0.4556 -0.4743  0.8302
 9656TIP3    H128932   7.079   4.330   2.089  0.9083 -0.1283 -0.2090
 9656TIP3    H228933   7.170   4.236   2.164 -0.5234 -0.5045  1.1144
 9657TIP3   OH228934   2.815   4.436   2.150  0.6338  0.2182 -0.5914
 9657TIP3    H128935   2.769   4.518   2.164  1.0890  0.3501  0.2476
 9657TIP3    H228936   2.893   4.460   2.099 -0.1426  0.0113 -1.9147
 9658TIP3   OH228937   0.834   1.958   2.849  0.3663 -0.1575 -0.2324
 9658TIP3    H128938   0.767   1.907   2.803 -1.1291  1.6103 -0.1176
 9658TIP3    H228939   0.863   2.023   2.786 -0.4544  1.1855  0.7353
 9659TIP3   OH228940   7.052   2.300   5.505  0.0421  0.0150  0.0566
 9659TIP3    H128941   7.043   2.207   5.527  1.2575 -0.1095  0.0803
 9659TIP3    H228942   6.993   2.312   5.430  0.0028 -0.8134 -0.0600
 9660TIP3   OH228943   2.807   1.119   1.503  0.5236 -0.1574  0.2809
 9660TIP3    H128944   2.882   1.069   1.536  0.3278 -0.0937  0.8212
 9660TIP3    H228945   2.734   1.092   1.558 -0.0284 -0.7854 -0.7165
 9661TIP3   OH228946   4.652   6.600   0.929 -0.1452 -0.7818 -0.4888
 9661TIP3    H128947   4.682   6.629   1.016 -1.1713 -0.7496 -0.1257
 9661TIP3    H228948   4.634   6.506   0.940 -0.7717 -0.6696 -0.5137
 9662TIP3   OH228949   6.682   1.916   2.023 -0.1867  0.0491 -0.0643
 9662TIP3    H128950   6.671   2.010   2.009  0.4186  0.5030  2.1344
 9662TIP3    H228951   6.773   1.907   2.054  0.0953 -1.4010 -1.1821
 9663TIP3   OH228952   0.985   6.627   0.975  0.1672 -0.3330 -0.4077
 9663TIP3    H128953   1.080   6.629   0.990  1.2368  0.9740 -5.3391
 9663TIP3    H228954   0.974   6.569   0.900 -2.8338  0.4037 -0.6671
 9664TIP3   OH228955   0.141   6.627   4.144 -0.3514  0.2614 -0.0935
 9664TIP3    H128956   0.118   6.677   4.065 -0.8460 -0.4574 -0.4145
 9664TIP3    H228957   0.057   6.603   4.182 -0.1326 -0.8545 -0.2894
 9665TIP3   OH228958   6.577   4.003   2.995 -0.0788 -0.3512  0.4899
 9665TIP3    H128959   6.588   3.974   2.904  1.0849 -1.6065  0.9919
 9665TIP3    H228960   6.641   4.073   3.005  0.4907 -0.8834  0.6102
 9666TIP3   OH228961   0.177   4.222   0.858 -0.0185 -0.0090  0.2342
 9666TIP3    H128962   0.118   4.244   0.786  0.2894 -0.9697 -0.3194
 9666TIP3    H228963   0.256   4.189   0.816  0.9394  1.2776  0.9730
 9667TIP3   OH228964   7.031   0.086   5.785  0.1541  0.3775  0.1039
 9667TIP3    H128965   7.111   0.100   5.734 -0.9052  2.2633 -1.1855
 9667TIP3    H228966   7.061   0.078   5.875  1.7321  3.0337 -0.0576
 9668TIP3   OH228967   5.348   5.718   4.998 -0.1060  0.6589 -0.1467
 9668TIP3    H128968   5.263   5.679   4.977  0.3773 -0.2252 -0.4676
 9668TIP3    H228969   5.395   5.650   5.046 -0.2423  1.7652  1.6649
 9669TIP3   OH228970   6.698   6.526   3.967  0.3518  0.3536 -0.0113
 9669TIP3    H128971   6.763   6.544   3.900  1.0712  0.2009  0.6327
 9669TIP3    H228972   6.749   6.499   4.044 -0.5321 -0.9807  0.1291
 9670TIP3   OH228973   3.868   6.592   2.396 -0.0418 -0.9003  0.3440
 9670TIP3    H128974   3.831   6.665   2.445  0.3199 -0.9295  0.6691
 9670TIP3    H228975   3.897   6.530   2.463  2.5903  0.0777  0.2322
 9671TIP3   OH228976   4.910   3.063   5.864 -0.4341 -0.5218  0.4456
 9671TIP3    H128977   4.887   3.149   5.828  0.7825 -1.1822 -2.1133
 9671TIP3    H228978   4.827   3.015   5.864 -0.7322 -0.0287 -0.1721
 9672TIP3   OH228979   2.289   1.734   5.009 -0.4598  0.4718  0.7763
 9672TIP3    H128980   2.196   1.736   5.032 -1.3180 -0.6344 -2.1510
 9672TIP3    H228981   2.300   1.651   4.961  1.9515  0.7728  0.6956
 9673TIP3   OH228982   2.879   1.341   3.759 -0.6252  0.5023  0.5053
 9673TIP3    H128983   2.963   1.379   3.733 -0.6604  0.1884 -0.1012
 9673TIP3    H228984   2.848   1.297   3.679 -1.0049 -0.0216  0.9373
 9674TIP3   OH228985   6.029   1.441   3.026 -0.6019 -0.0239 -0.2505
 9674TIP3    H128986   5.980   1.396   2.958  0.0504  0.9009 -1.3532
 9674TIP3    H228987   6.100   1.380   3.048 -2.9808 -2.1029  2.4965
 9675TIP3   OH228988   0.288   2.317   5.212 -0.5313  0.3040 -0.7305
 9675TIP3    H128989   0.340   2.250   5.255 -1.5215  0.0310  0.0797
 9675TIP3    H228990   0.322   2.400   5.248 -0.4563  0.1478 -0.4378
 9676TIP3   OH228991   6.123   1.062   0.199 -0.0182 -0.2793 -0.1097
 9676TIP3    H128992   6.099   0.989   0.256  1.2110 -0.9747 -0.4409
 9676TIP3    H228993   6.218   1.070   0.210  0.2610 -0.4141 -2.0135
 9677TIP3   OH228994   6.645   5.288   0.119  0.1057 -0.0911 -0.2978
 9677TIP3    H128995   6.704   5.260   0.190 -0.5413 -0.4387  0.1106
 9677TIP3    H228996   6.651   5.218   0.054 -0.9777 -0.8695  0.4107
 9678TIP3   OH228997   0.442   5.441   4.398  0.4129  0.2872 -0.3106
 9678TIP3    H128998   0.466   5.470   4.486  0.4266 -0.9170  0.0999
 9678TIP3    H228999   0.356   5.480   4.382  1.2587  2.1244 -0.5733
 9679TIP3   OH229000   5.501   4.399   4.275 -0.1361  0.1071 -0.7223
 9679TIP3    H129001   5.516   4.485   4.314  0.2542  0.4205 -1.5268
 9679TIP3    H229002   5.531   4.337   4.341  0.3119  0.6138 -0.4396
 9680TIP3   OH229003   0.183   1.051   1.011  0.1417  0.1868 -0.3649
 9680TIP3    H129004   0.095   1.063   0.974  0.7226 -0.8225 -2.2309
 9680TIP3    H229005   0.225   1.136   1.001 -0.2164  0.3349 -0.6473
 9681TIP3   OH229006   0.385   0.368   1.512 -0.2357 -0.0454 -0.0977
 9681TIP3    H129007   0.381   0.463   1.518 -0.8835  0.3188 -3.8892
 9681TIP3    H229008   0.300   0.342   1.477 -0.2079 -2.1141  1.1835
 9682TIP3   OH229009   3.676   4.147   2.255  0.1298 -0.2132  0.3499
 9682TIP3    H129010   3.599   4.125   2.308  1.0318 -1.3907  1.2255
 9682TIP3    H229011   3.687   4.241   2.267 -0.5155 -0.2258  1.1220
 9683TIP3   OH229012   0.834   2.328   0.804  0.3011  0.0268 -0.4408
 9683TIP3    H129013   0.875   2.379   0.874  0.1174 -0.0028 -0.3107
 9683TIP3    H229014   0.811   2.245   0.846 -0.3953  0.2525 -0.3660
 9684TIP3   OH229015   2.421   0.420   2.265 -0.1464 -0.1213  0.4348
 9684TIP3    H129016   2.353   0.464   2.317 -0.3380 -0.3896  0.4127
 9684TIP3    H229017   2.416   0.328   2.292 -0.4308 -0.3160 -0.2440
 9685TIP3   OH229018   4.548   0.073   3.980 -0.4236  0.5220 -0.5228
 9685TIP3    H129019   4.549   0.002   4.043 -1.7038 -0.2122 -1.2815
 9685TIP3    H229020   4.504   0.145   4.025  1.6692  1.1729  0.5553
 9686TIP3   OH229021   1.093   4.779   0.039 -0.5272 -0.5829  0.1839
 9686TIP3    H129022   1.151   4.714   0.000  1.2347  0.1321  1.4363
 9686TIP3    H229023   1.064   4.739   0.121  0.8933  0.2659  1.1628
 9687TIP3   OH229024   2.801   0.306   2.146  0.1642  0.5907  0.1683
 9687TIP3    H129025   2.793   0.325   2.239  2.6235 -1.6350  0.9557
 9687TIP3    H229026   2.712   0.283   2.118 -0.4472  0.2984  2.2016
 9688TIP3   OH229027   2.481   4.018   0.825  0.3815  0.0549 -0.4255
 9688TIP3    H129028   2.439   4.016   0.739  1.5436  4.4773 -1.3652
 9688TIP3    H229029   2.547   3.949   0.821 -0.6520 -0.9004 -2.4580
 9689TIP3   OH229030   1.268   0.902   2.417 -0.2825 -0.0360  0.1973
 9689TIP3    H129031   1.264   0.983   2.468 -2.0730 -0.4360  0.7713
 9689TIP3    H229032   1.176   0.875   2.408  0.2419 -1.7287 -0.4170
 9690TIP3   OH229033   1.659   4.261   0.969 -0.2327 -0.2645  0.5122
 9690TIP3    H129034   1.613   4.319   1.029 -0.0530  0.2458  0.1665
 9690TIP3    H229035   1.654   4.174   1.009 -0.8481 -0.0769  0.8357
 9691TIP3   OH229036   6.944   5.861   1.025  0.2458  0.2125 -0.2383
 9691TIP3    H129037   6.904   5.840   0.941  0.7489  0.6343 -0.5837
 9691TIP3    H229038   7.001   5.935   1.008 -1.2090  1.6622  0.8902
 9692TIP3   OH229039   1.567   5.702   2.407 -0.2745  0.4518 -0.2331
 9692TIP3    H129040   1.628   5.776   2.414  0.1760  0.1087 -0.4254
 9692TIP3    H229041   1.508   5.712   2.481  0.0526  0.7622 -0.0094
 9693TIP3   OH229042   0.082   6.140   1.253 -0.5512  0.0592 -0.2057
 9693TIP3    H129043   0.015   6.145   1.184 -1.2268 -1.4336  0.2968
 9693TIP3    H229044   0.137   6.067   1.227  1.7379  2.0154 -1.2728
 9694TIP3   OH229045   6.690   4.748   2.121  0.4348  0.6992  0.0586
 9694TIP3    H129046   6.698   4.751   2.026  1.7692  1.2660  0.1778
 9694TIP3    H229047   6.763   4.694   2.150 -2.3801 -3.2998  0.5346
 9695TIP3   OH229048   2.748   4.904   3.148  0.3789 -0.1565  0.1630
 9695TIP3    H129049   2.782   4.960   3.218 -1.3557  0.8219  0.3031
 9695TIP3    H229050   2.817   4.904   3.082  1.3056  0.4038  1.0861
 9696TIP3   OH229051   0.647   1.370   3.017  0.2333  0.7944 -0.2910
 9696TIP3    H129052   0.573   1.309   3.012 -0.0679  0.9453  1.4271
 9696TIP3    H229053   0.616   1.449   2.974 -1.3689  1.4948  1.9187
 9697TIP3   OH229054   3.409   3.591   0.822  0.2760 -0.1510  0.1588
 9697TIP3    H129055   3.489   3.631   0.788 -1.4297  1.8234 -1.8724
 9697TIP3    H229056   3.435   3.502   0.846  2.6679 -0.2233 -2.2081
 9698TIP3   OH229057   6.062   4.740   5.373 -0.4371 -0.1405  0.9345
 9698TIP3    H129058   6.088   4.769   5.285 -1.5413  0.4924  0.8013
 9698TIP3    H229059   6.045   4.646   5.362 -1.7249  0.1445  0.1540
 9699TIP3   OH229060   4.698   2.930   3.365  0.4997  0.0270 -0.2781
 9699TIP3    H129061   4.784   2.961   3.393  1.9275 -3.0110 -0.8314
 9699TIP3    H229062   4.672   2.867   3.433 -0.8201  0.1416 -0.6522
 9700TIP3   OH229063   4.289   3.592   3.023  0.4494 -0.1725 -0.2498
 9700TIP3    H129064   4.336   3.510   3.013  1.3486  0.1280  1.1967
 9700TIP3    H229065   4.331   3.653   2.963 -0.0195 -0.6622 -1.0968
 9701TIP3   OH229066   2.717   3.882   5.172  0.1941  0.6391  0.5020
 9701TIP3    H129067   2.645   3.845   5.224  0.6714 -0.4304  0.4266
 9701TIP3    H229068   2.788   3.893   5.235  0.4123  0.3779  0.3050
 9702TIP3   OH229069   1.941   1.792   1.331 -0.2058  0.0960  0.4173
 9702TIP3    H129070   1.976   1.706   1.354 -0.7777 -0.6833 -1.4249
 9702TIP3    H229071   1.879   1.812   1.400  0.4756 -0.6204  1.2651
 9703TIP3   OH229072   2.327   1.426   4.578 -0.6936 -0.1682  0.7803
 9703TIP3    H129073   2.293   1.353   4.630 -2.1650 -1.4179 -1.7591
 9703TIP3    H229074   2.254   1.452   4.522  0.5008  1.8041  0.0250
 9704TIP3   OH229075   3.376   4.572   2.263 -0.3781 -0.6913  0.1856
 9704TIP3    H129076   3.295   4.623   2.269 -1.2852 -2.1947  1.5327
 9704TIP3    H229077   3.352   4.485   2.295  1.6701 -1.3195  0.1541
 9705TIP3   OH229078   5.766   1.482   4.631  0.6417 -0.3810 -0.0342
 9705TIP3    H129079   5.741   1.390   4.616  3.0126 -0.9421 -0.8484
 9705TIP3    H229080   5.785   1.486   4.725 -2.7843  0.2240  0.7767
 9706TIP3   OH229081   3.963   3.950   1.044 -0.0630  0.6211 -0.6475
 9706TIP3    H129082   3.889   3.894   1.020 -1.1724  1.8662 -0.2537
 9706TIP3    H229083   4.029   3.890   1.079 -1.3461 -0.4110  0.0725
 9707TIP3   OH229084   1.409   3.137   4.979 -0.3777  0.1995 -0.3632
 9707TIP3    H129085   1.476   3.078   4.945 -0.1635 -0.1980  0.7134
 9707TIP3    H229086   1.397   3.110   5.071 -0.2408  1.8556  0.1688
 9708TIP3   OH229087   5.317   0.049   0.442 -0.2846 -0.3666 -0.2184
 9708TIP3    H129088   5.265  -0.028   0.463 -0.0335 -0.0182  1.8055
 9708TIP3    H229089   5.270   0.122   0.481 -0.2648  0.4938 -1.7016
 9709TIP3   OH229090   3.369   0.921   4.936 -0.0217  0.4658 -0.2830
 9709TIP3    H129091   3.294   0.978   4.951 -2.0792 -1.8084 -1.3941
 9709TIP3    H229092   3.333   0.832   4.938  2.9642 -0.8409  0.9707
 9710TIP3   OH229093   3.351   6.759   4.235  0.7439 -0.6762  0.5169
 9710TIP3    H129094   3.353   6.695   4.164  1.4025 -0.8998  0.7309
 9710TIP3    H229095   3.412   6.724   4.300  2.2817  0.9102 -0.0068
 9711TIP3   OH229096   2.932   4.881   3.639  0.3742 -0.0860 -0.9117
 9711TIP3    H129097   2.927   4.828   3.560 -0.4451 -2.5980  0.7263
 9711TIP3    H229098   3.017   4.859   3.679 -0.3933 -0.9920  0.2874
 9712TIP3   OH229099   3.126   5.893   4.411  0.0310 -0.4576  0.5736
 9712TIP3    H129100   3.185   5.865   4.341  0.1709 -1.3827  1.0362
 9712TIP3    H229101   3.144   5.831   4.483  0.6665  1.1202  1.8335
 9713TIP3   OH229102   1.806   5.941   4.333 -0.3495 -0.2822 -0.0219
 9713TIP3    H129103   1.882   5.974   4.285 -0.8133  0.1757 -0.4590
 9713TIP3    H229104   1.839   5.865   4.381  0.4006 -0.0459 -0.1423
 9714TIP3   OH229105   4.012   0.692   2.863 -0.3782  0.2153 -0.1798
 9714TIP3    H129106   4.030   0.785   2.846  0.2211 -0.1690 -1.6925
 9714TIP3    H229107   3.964   0.662   2.786 -0.8455 -0.6722  0.4388
 9715TIP3   OH229108   2.631   3.570   4.627  0.1519  0.3868  0.1465
 9715TIP3    H129109   2.722   3.572   4.600 -0.0292 -0.9289 -0.6513
 9715TIP3    H229110   2.626   3.500   4.693 -0.0439  1.3355  1.1677
 9716TIP3   OH229111   1.696   1.198   4.785  0.3597 -0.4678 -0.2406
 9716TIP3    H129112   1.704   1.223   4.693  0.7277 -1.8169 -0.6077
 9716TIP3    H229113   1.692   1.281   4.833  0.7635  0.2553 -1.4178
 9717TIP3   OH229114   0.530   5.059   0.477 -0.1341 -0.2691 -0.3535
 9717TIP3    H129115   0.523   4.993   0.546  0.5651 -0.9751 -0.9335
 9717TIP3    H229116   0.575   5.133   0.518  1.1662 -1.0608 -0.2949
 9718TIP3   OH229117   0.914   3.191   5.470 -0.2106 -0.4402  0.0520
 9718TIP3    H129118   1.003   3.157   5.483 -1.4849 -3.1619  2.9292
 9718TIP3    H229119   0.866   3.117   5.433 -1.3636  1.0128 -1.4968
 9719TIP3   OH229120   1.520   3.054   3.577  0.4527  1.0566  0.0412
 9719TIP3    H129121   1.596   3.110   3.592  1.2102  0.0748  0.0043
 9719TIP3    H229122   1.453   3.088   3.637  1.2754  1.2817  0.8678
 9720TIP3   OH229123   2.145   0.065   3.994  0.3603 -1.0895  0.6964
 9720TIP3    H129124   2.207   0.033   3.929 -0.2840 -1.4543  0.2516
 9720TIP3    H229125   2.078   0.110   3.944  0.9274  0.4551  1.2711
 9721TIP3   OH229126   5.073   5.064   2.055  0.6108 -0.5250 -0.3596
 9721TIP3    H129127   5.126   5.143   2.043 -0.1068 -0.0819 -0.6706
 9721TIP3    H229128   5.077   5.020   1.970  1.3287 -1.0360 -0.0730
 9722TIP3   OH229129   6.898   2.665   5.693 -0.4366 -0.1703 -0.0736
 9722TIP3    H129130   6.825   2.725   5.682 -0.3495  0.2738  1.5937
 9722TIP3    H229131   6.973   2.721   5.713  0.1257 -0.7018 -0.6167
 9723TIP3   OH229132   5.152   0.939   4.509 -0.4795  0.0110  0.3098
 9723TIP3    H129133   5.131   0.853   4.547  1.1886 -0.7503 -0.3988
 9723TIP3    H229134   5.075   0.961   4.457 -0.1539 -2.0670 -1.1636
 9724TIP3   OH229135   1.416   5.176   2.195  0.2834 -0.1470  0.3597
 9724TIP3    H129136   1.378   5.178   2.283  0.2927 -0.8774  0.3892
 9724TIP3    H229137   1.495   5.229   2.201 -0.1754  0.5294  0.5656
 9725TIP3   OH229138   4.500   5.993   2.594 -0.1939  0.0145  0.2488
 9725TIP3    H129139   4.518   5.899   2.595 -0.8312 -0.1079  0.4594
 9725TIP3    H229140   4.569   6.031   2.649 -0.0446 -0.3483  0.3157
 9726TIP3   OH229141   1.363   1.833   4.027 -0.6258  0.0205 -0.6422
 9726TIP3    H129142   1.314   1.871   4.100 -0.7540 -1.5546  0.1404
 9726TIP3    H229143   1.295   1.803   3.967 -0.5837 -0.5506 -0.4093
 9727TIP3   OH229144   2.834   4.392   1.380 -0.0947  0.1531  0.0893
 9727TIP3    H129145   2.855   4.340   1.303  0.2004 -0.5294  0.6194
 9727TIP3    H229146   2.832   4.482   1.349  2.3419  0.1348 -0.2622
 9728TIP3   OH229147   2.032   6.015   5.138  0.3925  0.0614 -0.2767
 9728TIP3    H129148   2.009   6.058   5.055  0.8024 -0.0490 -0.4447
 9728TIP3    H229149   1.950   5.972   5.165 -0.5392  2.3370  0.7577
 9729TIP3   OH229150   1.428   5.255   2.796 -0.1606  0.1040  0.1631
 9729TIP3    H129151   1.335   5.257   2.774 -0.5658  0.5520  1.7739
 9729TIP3    H229152   1.430   5.263   2.892  1.5862  1.2735  0.0670
 9730TIP3   OH229153   2.569   1.287   0.709  0.3495 -0.1453  0.1900
 9730TIP3    H129154   2.592   1.232   0.784 -1.4902 -0.7906  0.3402
 9730TIP3    H229155   2.626   1.257   0.638  3.0826  1.3713  1.5757
 9731TIP3   OH229156   3.622   1.549   3.929  0.1385 -0.2765 -0.0233
 9731TIP3    H129157   3.671   1.518   3.853 -0.6928 -1.8343  0.0187
 9731TIP3    H229158   3.530   1.539   3.904 -0.1467 -0.9772  1.2178
 9732TIP3   OH229159   1.170   3.827   0.970  0.0878  0.0322  0.4205
 9732TIP3    H129160   1.249   3.773   0.980  1.0354  1.0077 -1.4073
 9732TIP3    H229161   1.144   3.815   0.879 -2.4491 -0.9590  1.2002
 9733TIP3   OH229162   5.550   6.444   2.103  0.5743 -0.0796 -0.3732
 9733TIP3    H129163   5.524   6.535   2.086  0.5833 -0.2211 -1.1890
 9733TIP3    H229164   5.565   6.407   2.016 -1.8081 -1.5907 -0.2276
 9734TIP3   OH229165   3.192   1.421   2.470 -0.7029  0.0436 -0.3080
 9734TIP3    H129166   3.183   1.329   2.493 -0.4446  0.5506  2.0679
 9734TIP3    H229167   3.280   1.430   2.435 -0.3860 -0.4428  0.3656
 9735TIP3   OH229168   6.943   4.708   0.078 -0.4990 -0.4687  0.1741
 9735TIP3    H129169   6.877   4.649   0.041 -2.1220  0.0281  2.1071
 9735TIP3    H229170   7.000   4.651   0.130 -2.3559 -0.4230  2.4463
 9736TIP3   OH229171   4.980   0.601   1.653 -0.3537 -0.1338  0.2387
 9736TIP3    H129172   5.018   0.571   1.570 -0.0421  0.4414  0.1687
 9736TIP3    H229173   5.051   0.592   1.716 -0.2124  0.5498  0.1930
 9737TIP3   OH229174   0.224   5.038   3.603 -0.0435  0.4580  0.0567
 9737TIP3    H129175   0.259   4.963   3.555  1.1372  0.6519  0.5717
 9737TIP3    H229176   0.232   5.013   3.695 -0.1005  1.0214  0.2180
 9738TIP3   OH229177   0.419   3.992   3.475  0.4586  0.8473 -0.1890
 9738TIP3    H129178   0.444   4.079   3.444 -0.6294  2.3823  2.8051
 9738TIP3    H229179   0.460   3.984   3.561 -1.7300 -0.3462  0.8443
 9739TIP3   OH229180   5.621   2.211   1.819  0.6650 -0.3518  0.1327
 9739TIP3    H129181   5.683   2.221   1.891  0.0533 -1.0916  0.7849
 9739TIP3    H229182   5.552   2.155   1.855 -1.7547  2.4960  0.3263
 9740TIP3   OH229183   2.338   6.607   1.351 -0.5358  0.0735  0.1604
 9740TIP3    H129184   2.427   6.572   1.356  0.7059  3.0721  2.6240
 9740TIP3    H229185   2.297   6.581   1.434 -0.6928  1.5574  0.5870
 9741TIP3   OH229186   1.771   3.819   1.597 -0.8980 -0.0333 -0.5061
 9741TIP3    H129187   1.797   3.857   1.682 -1.7058 -0.6773  0.0456
 9741TIP3    H229188   1.726   3.890   1.552  0.6294  0.6984 -0.9333
 9742TIP3   OH229189   2.558   6.109   3.694 -0.8497  0.4361 -0.2387
 9742TIP3    H129190   2.470   6.125   3.659 -0.6936  1.4634 -0.1953
 9742TIP3    H229191   2.588   6.031   3.649 -1.5043  0.4877 -0.7837
 9743TIP3   OH229192   7.156   6.594   0.958 -0.4202 -0.2383 -0.2037
 9743TIP3    H129193   7.147   6.505   0.991 -1.7613  0.3694  1.1833
 9743TIP3    H229194   7.068   6.631   0.964 -0.0561  0.9243 -1.5543
 9744TIP3   OH229195   6.704   5.984   1.084  0.7556  0.5701 -0.1563
 9744TIP3    H129196   6.712   5.979   0.989  0.3289 -0.1011 -0.1707
 9744TIP3    H229197   6.784   5.943   1.117  0.6756  0.3417 -0.2389
 9745TIP3   OH229198   2.035   1.043   4.963  0.2562  0.1572  0.1430
 9745TIP3    H129199   2.002   0.993   5.037 -1.3620  0.4387 -0.3507
 9745TIP3    H229200   1.976   1.022   4.891  2.1700 -0.6311 -1.3111
 9746TIP3   OH229201   5.590   4.217   4.799  0.0319 -0.3353 -0.2581
 9746TIP3    H129202   5.636   4.224   4.883 -0.9028  0.9169  0.1793
 9746TIP3    H229203   5.656   4.185   4.738  0.9796 -0.3623  0.7470
 9747TIP3   OH229204   2.274   0.653   0.251 -0.0988  0.4694  0.0302
 9747TIP3    H129205   2.237   0.663   0.339  1.4665  1.1020  0.6473
 9747TIP3    H229206   2.272   0.558   0.236 -0.2665  0.3412  0.7969
 9748TIP3   OH229207   3.439   6.331   0.671  0.2576 -0.0945  0.7042
 9748TIP3    H129208   3.431   6.284   0.754 -0.7137 -1.1204  0.0667
 9748TIP3    H229209   3.363   6.389   0.668  0.3117 -0.0289  0.5451
 9749TIP3   OH229210   6.648   5.552   1.463 -0.0121 -0.2969 -0.1792
 9749TIP3    H129211   6.553   5.565   1.471  0.0850 -0.6783  2.0842
 9749TIP3    H229212   6.677   5.627   1.411 -1.5491 -0.1991 -0.9667
   7.20584   6.79374   5.88354   0.00000   0.00000  -2.40195   0.00000  -2.40195  -3.39687
