Title t= 405.00000 step= 202500
19942
    1ASP      N    1   2.102   2.284   2.881
    1ASP    HT1    2   2.122   2.372   2.829
    1ASP    HT2    3   2.152   2.216   2.820
    1ASP    HT3    4   2.154   2.281   2.972
    1ASP     CA    5   1.957   2.250   2.895
    1ASP     HA    6   1.920   2.306   2.980
    1ASP     CB    7   1.880   2.295   2.767
    1ASP    HB1    8   1.775   2.261   2.773
    1ASP    HB2    9   1.930   2.252   2.678
    1ASP     CG   10   1.877   2.446   2.758
    1ASP    OD1   11   1.845   2.496   2.642
    1ASP    OD2   12   1.920   2.517   2.858
    1ASP      C   13   1.919   2.107   2.935
    1ASP      O   14   1.973   2.008   2.878
    2ALA      N   15   1.830   2.085   3.038
    2ALA     HN   16   1.804   2.162   3.096
    2ALA     CA   17   1.776   1.956   3.075
    2ALA     HA   18   1.855   1.884   3.064
    2ALA     CB   19   1.718   1.950   3.219
    2ALA    HB1   20   1.792   2.001   3.284
    2ALA    HB2   21   1.706   1.851   3.267
    2ALA    HB3   22   1.618   1.999   3.221
    2ALA      C   23   1.665   1.910   2.968
    2ALA      O   24   1.621   1.989   2.884
    3ASP      N   25   1.620   1.779   2.965
    3ASP     HN   26   1.653   1.707   3.025
    3ASP     CA   27   1.501   1.733   2.891
    3ASP     HA   28   1.518   1.767   2.790
    3ASP     CB   29   1.487   1.577   2.889
    3ASP    HB1   30   1.400   1.558   2.822
    3ASP    HB2   31   1.475   1.536   2.992
    3ASP     CG   32   1.605   1.526   2.819
    3ASP    OD1   33   1.599   1.539   2.691
    3ASP    OD2   34   1.711   1.499   2.886
    3ASP      C   35   1.366   1.792   2.928
    3ASP      O   36   1.325   1.813   3.043
    4GLY      N   37   1.284   1.827   2.827
    4GLY     HN   38   1.320   1.823   2.734
    4GLY     CA   39   1.150   1.869   2.851
    4GLY    HA1   40   1.107   1.905   2.758
    4GLY    HA2   41   1.162   1.949   2.922
    4GLY      C   42   1.053   1.770   2.907
    4GLY      O   43   1.084   1.654   2.936
    5PRO      N   44   0.927   1.803   2.929
    5PRO     CD   45   0.871   1.944   2.903
    5PRO    HD1   46   0.848   1.970   2.798
    5PRO    HD2   47   0.924   2.024   2.957
    5PRO     CA   48   0.847   1.721   3.021
    5PRO     HA   49   0.916   1.669   3.085
    5PRO     CB   50   0.765   1.836   3.097
    5PRO    HB1   51   0.845   1.871   3.165
    5PRO    HB2   52   0.682   1.798   3.160
    5PRO     CG   53   0.735   1.939   2.982
    5PRO    HG1   54   0.656   1.894   2.918
    5PRO    HG2   55   0.707   2.038   3.022
    5PRO      C   56   0.762   1.622   2.947
    5PRO      O   57   0.686   1.557   3.013
    6GLY      N   58   0.775   1.608   2.815
    6GLY     HN   59   0.830   1.672   2.763
    6GLY     CA   60   0.711   1.504   2.741
    6GLY    HA1   61   0.750   1.525   2.643
    6GLY    HA2   62   0.605   1.500   2.762
    6GLY      C   63   0.744   1.364   2.781
    6GLY      O   64   0.818   1.334   2.871
    7ASP      N   65   0.685   1.258   2.718
    7ASP     HN   66   0.619   1.285   2.649
    7ASP     CA   67   0.701   1.118   2.749
    7ASP     HA   68   0.699   1.116   2.857
    7ASP     CB   69   0.582   1.035   2.688
    7ASP    HB1   70   0.596   1.012   2.580
    7ASP    HB2   71   0.489   1.095   2.697
    7ASP     CG   72   0.554   0.896   2.752
    7ASP    OD1   73   0.460   0.823   2.716
    7ASP    OD2   74   0.626   0.865   2.849
    7ASP      C   75   0.841   1.062   2.714
    7ASP      O   76   0.893   1.078   2.605
    8PRO      N   77   0.920   1.003   2.810
    8PRO     CD   78   0.907   1.020   2.951
    8PRO    HD1   79   0.813   0.965   2.972
    8PRO    HD2   80   0.895   1.122   2.993
    8PRO     CA   81   1.047   0.941   2.782
    8PRO     HA   82   1.102   0.985   2.699
    8PRO     CB   83   1.134   0.960   2.902
    8PRO    HB1   84   1.187   1.057   2.888
    8PRO    HB2   85   1.214   0.886   2.923
    8PRO     CG   86   1.032   0.956   3.017
    8PRO    HG1   87   1.007   0.851   3.044
    8PRO    HG2   88   1.051   1.013   3.110
    8PRO      C   89   1.016   0.809   2.730
    8PRO      O   90   1.088   0.766   2.644
    9ASP      N   91   0.902   0.747   2.770
    9ASP     HN   92   0.837   0.798   2.825
    9ASP     CA   93   0.873   0.607   2.738
    9ASP     HA   94   0.970   0.560   2.728
    9ASP     CB   95   0.803   0.544   2.858
    9ASP    HB1   96   0.762   0.445   2.829
    9ASP    HB2   97   0.721   0.610   2.897
    9ASP     CG   98   0.900   0.512   2.974
    9ASP    OD1   99   0.856   0.518   3.092
    9ASP    OD2  100   1.016   0.469   2.945
    9ASP      C  101   0.798   0.580   2.616
    9ASP      O  102   0.773   0.460   2.588
   10ALA      N  103   0.760   0.678   2.527
   10ALA     HN  104   0.772   0.777   2.538
   10ALA     CA  105   0.718   0.643   2.396
   10ALA     HA  106   0.643   0.566   2.407
   10ALA     CB  107   0.655   0.772   2.348
   10ALA    HB1  108   0.719   0.863   2.344
   10ALA    HB2  109   0.577   0.798   2.423
   10ALA    HB3  110   0.616   0.757   2.245
   10ALA      C  111   0.824   0.590   2.299
   10ALA      O  112   0.784   0.510   2.210
   11GLY      N  113   0.954   0.624   2.315
   11GLY     HN  114   0.987   0.677   2.392
   11GLY     CA  115   1.061   0.578   2.233
   11GLY    HA1  116   1.073   0.471   2.245
   11GLY    HA2  117   1.144   0.622   2.285
   11GLY      C  118   1.051   0.618   2.082
   11GLY    OT1  119   1.005   0.725   2.048
   11GLY    OT2  120   1.087   0.532   2.003
   12LIT    LIT  121   3.117   5.318   0.315
   13LIT    LIT  122   1.438   3.184   2.561
   14LIT    LIT  123   5.430   3.082   2.782
   15LIT    LIT  124   6.207   1.160   3.386
   16LIT    LIT  125   3.497   4.651   3.590
   17LIT    LIT  126   2.488   1.264   0.795
   18LIT    LIT  127   2.157   0.312   4.916
   19LIT    LIT  128   4.881   4.934   1.961
   20LIT    LIT  129   3.790   1.724   2.655
   21LIT    LIT  130   2.887   0.637   1.592
   22LIT    LIT  131   0.105   4.239   0.798
   23LIT    LIT  132   3.645   3.241   2.223
   24LIT    LIT  133   5.226   4.384   2.093
   25LIT    LIT  134   4.315   2.702   5.025
   26LIT    LIT  135   4.138   0.596   2.601
   27LIT    LIT  136   0.664   1.449   3.270
   28LIT    LIT  137   1.785   0.665   3.283
   29LIT    LIT  138   3.110   3.507   0.646
   30LIT    LIT  139   2.380   3.075   4.096
   31LIT    LIT  140   4.291   1.953   4.316
   32LIT    LIT  141   1.006   0.182   1.211
   33LIT    LIT  142   6.215   2.148   0.336
   34CLA    CLA  143   2.956   3.143   3.533
   35CLA    CLA  144   4.588   4.839   0.667
   36CLA    CLA  145   5.391   1.911   2.009
   37CLA    CLA  146   4.645   4.085   1.752
   38CLA    CLA  147   4.827   2.641   4.051
   39CLA    CLA  148   4.636   5.707   3.881
   40CLA    CLA  149   6.170   4.425   1.094
   41CLA    CLA  150   6.274   4.414   0.185
   42CLA    CLA  151   5.233   3.575   0.655
   43CLA    CLA  152   5.516   1.006   4.605
   44CLA    CLA  153   3.028   3.323   0.255
   45CLA    CLA  154   0.744   5.470   0.334
   46CLA    CLA  155   1.971   0.188   4.985
   47CLA    CLA  156   1.606   0.541   1.161
   48CLA    CLA  157   3.260   4.167   2.918
   49CLA    CLA  158   2.286   1.713   5.169
   50CLA    CLA  159   2.294   1.630   1.252
   51CLA    CLA  160   1.395   3.951   2.420
   52TIP3   OH2  161   3.486   3.807   1.600
   52TIP3    H1  162   3.394   3.833   1.601
   52TIP3    H2  163   3.527   3.858   1.669
   53TIP3   OH2  164   0.162   1.134   1.472
   53TIP3    H1  165   0.241   1.118   1.523
   53TIP3    H2  166   0.121   1.209   1.514
   54TIP3   OH2  167   2.636   0.612   2.364
   54TIP3    H1  168   2.731   0.598   2.370
   54TIP3    H2  169   2.602   0.530   2.329
   55TIP3   OH2  170   4.170   2.390   3.518
   55TIP3    H1  171   4.232   2.462   3.511
   55TIP3    H2  172   4.206   2.321   3.462
   56TIP3   OH2  173   0.239   5.569   0.230
   56TIP3    H1  174   0.174   5.581   0.299
   56TIP3    H2  175   0.276   5.483   0.247
   57TIP3   OH2  176   1.699   3.469   1.422
   57TIP3    H1  177   1.733   3.380   1.416
   57TIP3    H2  178   1.777   3.523   1.438
   58TIP3   OH2  179   1.306   4.338   0.717
   58TIP3    H1  180   1.346   4.384   0.644
   58TIP3    H2  181   1.320   4.245   0.698
   59TIP3   OH2  182   1.954   1.436   4.268
   59TIP3    H1  183   2.018   1.504   4.292
   59TIP3    H2  184   1.983   1.407   4.181
   60TIP3   OH2  185   0.911   5.784   3.222
   60TIP3    H1  186   0.906   5.720   3.292
   60TIP3    H2  187   0.867   5.862   3.257
   61TIP3   OH2  188   2.148   3.588   3.486
   61TIP3    H1  189   2.111   3.527   3.423
   61TIP3    H2  190   2.077   3.649   3.505
   62TIP3   OH2  191   3.428   5.418   1.460
   62TIP3    H1  192   3.464   5.382   1.380
   62TIP3    H2  193   3.489   5.488   1.485
   63TIP3   OH2  194   2.117   3.733   2.537
   63TIP3    H1  195   2.122   3.686   2.454
   63TIP3    H2  196   2.107   3.825   2.512
   64TIP3   OH2  197   6.273   2.428   1.249
   64TIP3    H1  198   6.212   2.462   1.183
   64TIP3    H2  199   6.221   2.421   1.329
   65TIP3   OH2  200   3.240   1.585   3.196
   65TIP3    H1  201   3.237   1.672   3.157
   65TIP3    H2  202   3.162   1.580   3.250
   66TIP3   OH2  203   5.059   5.650   2.688
   66TIP3    H1  204   5.049   5.665   2.594
   66TIP3    H2  205   5.154   5.645   2.701
   67TIP3   OH2  206   3.048   0.390   1.220
   67TIP3    H1  207   3.104   0.381   1.143
   67TIP3    H2  208   3.008   0.304   1.231
   68TIP3   OH2  209   2.671   0.188   3.342
   68TIP3    H1  210   2.648   0.241   3.266
   68TIP3    H2  211   2.757   0.220   3.369
   69TIP3   OH2  212   5.187   4.782   2.552
   69TIP3    H1  213   5.178   4.799   2.646
   69TIP3    H2  214   5.127   4.844   2.510
   70TIP3   OH2  215   0.370   2.456   0.704
   70TIP3    H1  216   0.322   2.495   0.631
   70TIP3    H2  217   0.303   2.443   0.772
   71TIP3   OH2  218   3.172   1.548   4.486
   71TIP3    H1  219   3.163   1.610   4.558
   71TIP3    H2  220   3.110   1.478   4.506
   72TIP3   OH2  221   4.419   4.266   2.161
   72TIP3    H1  222   4.416   4.361   2.170
   72TIP3    H2  223   4.470   4.236   2.236
   73TIP3   OH2  224   6.225   1.366   1.015
   73TIP3    H1  225   6.309   1.330   0.986
   73TIP3    H2  226   6.248   1.430   1.083
   74TIP3   OH2  227   2.917   1.848   1.446
   74TIP3    H1  228   2.883   1.936   1.433
   74TIP3    H2  229   2.871   1.815   1.522
   75TIP3   OH2  230   0.084   0.306   2.330
   75TIP3    H1  231   0.150   0.253   2.374
   75TIP3    H2  232   0.005   0.294   2.382
   76TIP3   OH2  233   0.512   0.492   3.515
   76TIP3    H1  234   0.486   0.427   3.581
   76TIP3    H2  235   0.531   0.441   3.437
   77TIP3   OH2  236   2.585   2.431   3.438
   77TIP3    H1  237   2.493   2.448   3.456
   77TIP3    H2  238   2.591   2.336   3.427
   78TIP3   OH2  239   2.586   0.447   1.065
   78TIP3    H1  240   2.599   0.504   1.142
   78TIP3    H2  241   2.674   0.434   1.030
   79TIP3   OH2  242   4.564   5.168   1.063
   79TIP3    H1  243   4.591   5.183   1.153
   79TIP3    H2  244   4.482   5.217   1.054
   80TIP3   OH2  245   2.563   2.110   2.686
   80TIP3    H1  246   2.516   2.056   2.623
   80TIP3    H2  247   2.594   2.185   2.635
   81TIP3   OH2  248   2.966   1.639   1.650
   81TIP3    H1  249   2.888   1.586   1.668
   81TIP3    H2  250   3.001   1.602   1.569
   82TIP3   OH2  251   5.606   0.749   0.966
   82TIP3    H1  252   5.631   0.817   0.903
   82TIP3    H2  253   5.634   0.667   0.925
   83TIP3   OH2  254   4.888   1.751   2.521
   83TIP3    H1  255   4.799   1.786   2.519
   83TIP3    H2  256   4.883   1.670   2.469
   84TIP3   OH2  257   3.205   3.428   0.797
   84TIP3    H1  258   3.198   3.438   0.892
   84TIP3    H2  259   3.253   3.347   0.785
   85TIP3   OH2  260   2.317   3.490   3.702
   85TIP3    H1  261   2.257   3.537   3.644
   85TIP3    H2  262   2.262   3.423   3.744
   86TIP3   OH2  263   5.375   2.645   1.236
   86TIP3    H1  264   5.401   2.713   1.173
   86TIP3    H2  265   5.457   2.617   1.277
   87TIP3   OH2  266   1.737   5.246   2.496
   87TIP3    H1  267   1.788   5.215   2.420
   87TIP3    H2  268   1.785   5.212   2.571
   88TIP3   OH2  269   3.234   2.506   3.434
   88TIP3    H1  270   3.224   2.419   3.473
   88TIP3    H2  271   3.265   2.561   3.506
   89TIP3   OH2  272   2.317   5.699   4.686
   89TIP3    H1  273   2.316   5.786   4.645
   89TIP3    H2  274   2.371   5.711   4.765
   90TIP3   OH2  275   5.600   2.077   0.192
   90TIP3    H1  276   5.635   2.166   0.190
   90TIP3    H2  277   5.604   2.047   0.101
   91TIP3   OH2  278   6.195   3.120   0.908
   91TIP3    H1  279   6.281   3.140   0.943
   91TIP3    H2  280   6.133   3.152   0.974
   92TIP3   OH2  281   3.955   4.737   1.100
   92TIP3    H1  282   3.937   4.692   1.017
   92TIP3    H2  283   4.021   4.681   1.142
   93TIP3   OH2  284   5.080   2.147   1.739
   93TIP3    H1  285   5.080   2.176   1.830
   93TIP3    H2  286   4.988   2.129   1.720
   94TIP3   OH2  287   4.176   0.256   0.870
   94TIP3    H1  288   4.105   0.194   0.854
   94TIP3    H2  289   4.144   0.339   0.834
   95TIP3   OH2  290   5.966   1.103   2.212
   95TIP3    H1  291   5.927   1.016   2.204
   95TIP3    H2  292   6.030   1.095   2.282
   96TIP3   OH2  293   0.588   0.423   1.145
   96TIP3    H1  294   0.557   0.420   1.054
   96TIP3    H2  295   0.549   0.346   1.186
   97TIP3   OH2  296   2.069   0.596   2.027
   97TIP3    H1  297   2.074   0.523   1.966
   97TIP3    H2  298   2.070   0.674   1.972
   98TIP3   OH2  299   0.084   5.944   4.279
   98TIP3    H1  300   0.011   6.007   4.281
   98TIP3    H2  301   0.161   5.997   4.260
   99TIP3   OH2  302   4.785   4.490   2.537
   99TIP3    H1  303   4.877   4.505   2.516
   99TIP3    H2  304   4.777   4.517   2.629
  100TIP3   OH2  305   2.553   3.147   4.109
  100TIP3    H1  306   2.634   3.096   4.107
  100TIP3    H2  307   2.572   3.223   4.054
  101TIP3   OH2  308   3.875   4.159   1.274
  101TIP3    H1  309   3.967   4.135   1.270
  101TIP3    H2  310   3.855   4.160   1.368
  102TIP3   OH2  311   0.814   5.997   0.706
  102TIP3    H1  312   0.720   5.994   0.691
  102TIP3    H2  313   0.841   5.906   0.712
  103TIP3   OH2  314   3.173   5.287   0.121
  103TIP3    H1  315   3.176   5.205   0.073
  103TIP3    H2  316   3.183   5.355   0.055
  104TIP3   OH2  317   4.370   1.114   2.347
  104TIP3    H1  318   4.348   1.156   2.431
  104TIP3    H2  319   4.466   1.117   2.344
  105TIP3   OH2  320   5.204   5.349   1.469
  105TIP3    H1  321   5.121   5.388   1.440
  105TIP3    H2  322   5.238   5.410   1.534
  106TIP3   OH2  323   0.214   3.175   4.719
  106TIP3    H1  324   0.294   3.155   4.670
  106TIP3    H2  325   0.143   3.152   4.659
  107TIP3   OH2  326   2.323   1.735  -0.008
  107TIP3    H1  327   2.338   1.821   0.031
  107TIP3    H2  328   2.296   1.680   0.066
  108TIP3   OH2  329   2.741   2.436   0.108
  108TIP3    H1  330   2.753   2.450   0.014
  108TIP3    H2  331   2.801   2.365   0.129
  109TIP3   OH2  332   4.068   1.915   1.084
  109TIP3    H1  333   4.007   1.864   1.139
  109TIP3    H2  334   4.026   2.000   1.073
  110TIP3   OH2  335   0.451   0.420   2.806
  110TIP3    H1  336   0.461   0.426   2.901
  110TIP3    H2  337   0.467   0.328   2.786
  111TIP3   OH2  338   3.650   5.758   3.681
  111TIP3    H1  339   3.713   5.753   3.754
  111TIP3    H2  340   3.654   5.672   3.640
  112TIP3   OH2  341   1.770   3.274   3.111
  112TIP3    H1  342   1.735   3.361   3.130
  112TIP3    H2  343   1.701   3.214   3.138
  113TIP3   OH2  344   0.838   4.610   1.376
  113TIP3    H1  345   0.868   4.554   1.304
  113TIP3    H2  346   0.903   4.681   1.381
  114TIP3   OH2  347   0.981   2.563   1.930
  114TIP3    H1  348   1.027   2.538   1.850
  114TIP3    H2  349   1.040   2.625   1.973
  115TIP3   OH2  350   3.037   5.799   1.093
  115TIP3    H1  351   3.059   5.825   1.183
  115TIP3    H2  352   3.120   5.771   1.055
  116TIP3   OH2  353   0.629   2.530   5.101
  116TIP3    H1  354   0.616   2.515   5.195
  116TIP3    H2  355   0.695   2.466   5.076
  117TIP3   OH2  356   3.008   1.431   0.912
  117TIP3    H1  357   3.097   1.454   0.938
  117TIP3    H2  358   2.956   1.510   0.927
  118TIP3   OH2  359   6.205   2.397   0.538
  118TIP3    H1  360   6.236   2.401   0.447
  118TIP3    H2  361   6.119   2.356   0.532
  119TIP3   OH2  362   4.792   4.486   1.470
  119TIP3    H1  363   4.816   4.406   1.516
  119TIP3    H2  364   4.715   4.462   1.418
  120TIP3   OH2  365   0.081   5.021   4.600
  120TIP3    H1  366   0.004   5.009   4.545
  120TIP3    H2  367   0.155   5.003   4.542
  121TIP3   OH2  368   3.402   3.174   4.917
  121TIP3    H1  369   3.350   3.235   4.968
  121TIP3    H2  370   3.342   3.143   4.848
  122TIP3   OH2  371   0.755   2.718   1.798
  122TIP3    H1  372   0.833   2.678   1.837
  122TIP3    H2  373   0.752   2.806   1.834
  123TIP3   OH2  374   3.287   3.958   4.430
  123TIP3    H1  375   3.284   3.882   4.372
  123TIP3    H2  376   3.326   4.027   4.377
  124TIP3   OH2  377   2.266   5.038   3.586
  124TIP3    H1  378   2.326   5.009   3.517
  124TIP3    H2  379   2.268   5.134   3.580
  125TIP3   OH2  380   2.552   1.385   1.542
  125TIP3    H1  381   2.601   1.414   1.465
  125TIP3    H2  382   2.618   1.347   1.600
  126TIP3   OH2  383   3.118   1.836   3.162
  126TIP3    H1  384   3.023   1.842   3.153
  126TIP3    H2  385   3.147   1.926   3.178
  127TIP3   OH2  386   1.078   2.723   3.497
  127TIP3    H1  387   1.076   2.707   3.591
  127TIP3    H2  388   1.014   2.793   3.483
  128TIP3   OH2  389   1.110   4.476   0.184
  128TIP3    H1  390   1.108   4.406   0.119
  128TIP3    H2  391   1.203   4.501   0.189
  129TIP3   OH2  392   4.257   0.787   0.192
  129TIP3    H1  393   4.302   0.713   0.152
  129TIP3    H2  394   4.254   0.766   0.285
  130TIP3   OH2  395   4.925   0.376   2.584
  130TIP3    H1  396   4.918   0.321   2.661
  130TIP3    H2  397   4.921   0.315   2.510
  131TIP3   OH2  398   4.129   4.090   3.457
  131TIP3    H1  399   4.179   4.171   3.468
  131TIP3    H2  400   4.094   4.096   3.368
  132TIP3   OH2  401   5.445   2.801   1.539
  132TIP3    H1  402   5.405   2.729   1.588
  132TIP3    H2  403   5.517   2.759   1.491
  133TIP3   OH2  404   5.609   3.160   1.571
  133TIP3    H1  405   5.649   3.074   1.588
  133TIP3    H2  406   5.555   3.177   1.648
  134TIP3   OH2  407   6.313   4.982   2.349
  134TIP3    H1  408   6.404   5.000   2.375
  134TIP3    H2  409   6.265   4.979   2.431
  135TIP3   OH2  410   3.447   3.955   3.426
  135TIP3    H1  411   3.438   3.924   3.336
  135TIP3    H2  412   3.458   4.049   3.418
  136TIP3   OH2  413   4.236   1.592   2.923
  136TIP3    H1  414   4.242   1.664   2.986
  136TIP3    H2  415   4.273   1.517   2.969
  137TIP3   OH2  416   3.083   1.381   2.155
  137TIP3    H1  417   2.991   1.405   2.159
  137TIP3    H2  418   3.126   1.444   2.214
  138TIP3   OH2  419   1.499   4.206   4.283
  138TIP3    H1  420   1.543   4.288   4.306
  138TIP3    H2  421   1.570   4.145   4.264
  139TIP3   OH2  422   2.253   3.250   2.470
  139TIP3    H1  423   2.197   3.327   2.472
  139TIP3    H2  424   2.287   3.242   2.559
  140TIP3   OH2  425   4.446   4.999   4.099
  140TIP3    H1  426   4.409   5.064   4.039
  140TIP3    H2  427   4.457   5.046   4.182
  141TIP3   OH2  428   1.983   1.602   4.675
  141TIP3    H1  429   1.986   1.581   4.768
  141TIP3    H2  430   1.917   1.542   4.639
  142TIP3   OH2  431   0.882   3.360   1.073
  142TIP3    H1  432   0.880   3.429   1.006
  142TIP3    H2  433   0.801   3.312   1.060
  143TIP3   OH2  434   0.051   0.032   1.466
  143TIP3    H1  435   0.110   0.083   1.521
  143TIP3    H2  436  -0.037   0.059   1.492
  144TIP3   OH2  437   4.352   5.233   1.244
  144TIP3    H1  438   4.306   5.151   1.265
  144TIP3    H2  439   4.301   5.272   1.174
  145TIP3   OH2  440   4.903   5.249   0.993
  145TIP3    H1  441   4.927   5.227   1.084
  145TIP3    H2  442   4.825   5.196   0.976
  146TIP3   OH2  443   5.153   5.420   4.964
  146TIP3    H1  444   5.121   5.468   4.888
  146TIP3    H2  445   5.249   5.426   4.957
  147TIP3   OH2  446   4.394   3.269   3.637
  147TIP3    H1  447   4.471   3.221   3.668
  147TIP3    H2  448   4.420   3.361   3.642
  148TIP3   OH2  449   1.037   1.154   1.430
  148TIP3    H1  450   0.951   1.139   1.469
  148TIP3    H2  451   1.094   1.090   1.472
  149TIP3   OH2  452   5.720   4.038   3.563
  149TIP3    H1  453   5.691   4.021   3.652
  149TIP3    H2  454   5.815   4.050   3.571
  150TIP3   OH2  455   2.324   0.037   3.876
  150TIP3    H1  456   2.291   0.089   3.950
  150TIP3    H2  457   2.402  -0.006   3.910
  151TIP3   OH2  458   2.199   0.371   1.761
  151TIP3    H1  459   2.292   0.362   1.783
  151TIP3    H2  460   2.181   0.465   1.767
  152TIP3   OH2  461   3.644   3.943   3.629
  152TIP3    H1  462   3.657   4.035   3.649
  152TIP3    H2  463   3.569   3.941   3.570
  153TIP3   OH2  464   5.851   5.022   2.932
  153TIP3    H1  465   5.773   5.076   2.943
  153TIP3    H2  466   5.921   5.072   2.974
  154TIP3   OH2  467   1.137   3.228   1.146
  154TIP3    H1  468   1.144   3.211   1.240
  154TIP3    H2  469   1.059   3.282   1.137
  155TIP3   OH2  470   5.273   2.227   4.299
  155TIP3    H1  471   5.342   2.169   4.331
  155TIP3    H2  472   5.303   2.254   4.212
  156TIP3   OH2  473   2.879   1.359   3.319
  156TIP3    H1  474   2.857   1.452   3.320
  156TIP3    H2  475   2.970   1.356   3.349
  157TIP3   OH2  476   0.523   0.413   3.950
  157TIP3    H1  477   0.440   0.461   3.941
  157TIP3    H2  478   0.549   0.428   4.041
  158TIP3   OH2  479   2.324   0.425   1.212
  158TIP3    H1  480   2.259   0.487   1.178
  158TIP3    H2  481   2.363   0.386   1.134
  159TIP3   OH2  482   1.838   5.693   1.045
  159TIP3    H1  483   1.776   5.741   1.099
  159TIP3    H2  484   1.916   5.749   1.043
  160TIP3   OH2  485   5.441   1.324   4.096
  160TIP3    H1  486   5.472   1.235   4.079
  160TIP3    H2  487   5.500   1.357   4.164
  161TIP3   OH2  488   2.060   2.677   3.929
  161TIP3    H1  489   2.045   2.610   3.995
  161TIP3    H2  490   2.155   2.679   3.917
  162TIP3   OH2  491   6.237   3.961   2.579
  162TIP3    H1  492   6.231   4.032   2.516
  162TIP3    H2  493   6.317   3.914   2.555
  163TIP3   OH2  494   4.290   4.496   2.443
  163TIP3    H1  495   4.212   4.524   2.394
  163TIP3    H2  496   4.330   4.578   2.473
  164TIP3   OH2  497   2.777   4.094   3.132
  164TIP3    H1  498   2.687   4.119   3.115
  164TIP3    H2  499   2.816   4.083   3.045
  165TIP3   OH2  500   4.070   2.272   1.197
  165TIP3    H1  501   3.995   2.330   1.193
  165TIP3    H2  502   4.139   2.317   1.148
  166TIP3   OH2  503   6.295   5.069   4.891
  166TIP3    H1  504   6.386   5.060   4.918
  166TIP3    H2  505   6.299   5.078   4.796
  167TIP3   OH2  506   0.245   4.227   3.087
  167TIP3    H1  507   0.309   4.297   3.074
  167TIP3    H2  508   0.246   4.210   3.181
  168TIP3   OH2  509   1.767   3.786   4.764
  168TIP3    H1  510   1.760   3.691   4.756
  168TIP3    H2  511   1.806   3.800   4.850
  169TIP3   OH2  512   4.737   0.533   2.773
  169TIP3    H1  513   4.766   0.576   2.693
  169TIP3    H2  514   4.777   0.446   2.770
  170TIP3   OH2  515   4.135   0.327   4.306
  170TIP3    H1  516   4.204   0.290   4.361
  170TIP3    H2  517   4.067   0.352   4.369
  171TIP3   OH2  518   5.616   3.558   4.419
  171TIP3    H1  519   5.534   3.511   4.404
  171TIP3    H2  520   5.641   3.590   4.332
  172TIP3   OH2  521   2.633   0.404   1.378
  172TIP3    H1  522   2.681   0.465   1.434
  172TIP3    H2  523   2.557   0.453   1.348
  173TIP3   OH2  524   3.713   5.401   0.349
  173TIP3    H1  525   3.757   5.329   0.393
  173TIP3    H2  526   3.761   5.479   0.377
  174TIP3   OH2  527   2.531   4.651   4.030
  174TIP3    H1  528   2.458   4.668   3.970
  174TIP3    H2  529   2.551   4.558   4.017
  175TIP3   OH2  530   1.739   3.006   3.965
  175TIP3    H1  531   1.775   2.946   3.899
  175TIP3    H2  532   1.815   3.056   3.996
  176TIP3   OH2  533   2.320   0.853   0.279
  176TIP3    H1  534   2.226   0.834   0.274
  176TIP3    H2  535   2.356   0.817   0.199
  177TIP3   OH2  536   4.852   3.751   2.597
  177TIP3    H1  537   4.834   3.842   2.575
  177TIP3    H2  538   4.893   3.715   2.518
  178TIP3   OH2  539   2.887   5.558   4.727
  178TIP3    H1  540   2.791   5.553   4.721
  178TIP3    H2  541   2.905   5.545   4.821
  179TIP3   OH2  542   1.768   2.676   1.452
  179TIP3    H1  543   1.770   2.649   1.360
  179TIP3    H2  544   1.732   2.601   1.499
  180TIP3   OH2  545   5.015   0.909   0.766
  180TIP3    H1  546   4.934   0.958   0.751
  180TIP3    H2  547   5.065   0.962   0.828
  181TIP3   OH2  548   5.435   5.736   1.891
  181TIP3    H1  549   5.426   5.654   1.843
  181TIP3    H2  550   5.526   5.737   1.921
  182TIP3   OH2  551   0.005   4.957   3.125
  182TIP3    H1  552  -0.003   5.014   3.048
  182TIP3    H2  553   0.077   4.996   3.176
  183TIP3   OH2  554   5.114   2.555   0.572
  183TIP3    H1  555   5.020   2.543   0.585
  183TIP3    H2  556   5.138   2.624   0.634
  184TIP3   OH2  557   3.953   0.049   4.600
  184TIP3    H1  558   3.886  -0.018   4.612
  184TIP3    H2  559   3.907   0.132   4.607
  185TIP3   OH2  560   0.994   3.850   3.546
  185TIP3    H1  561   0.961   3.851   3.636
  185TIP3    H2  562   1.085   3.820   3.554
  186TIP3   OH2  563   2.695   3.530   0.084
  186TIP3    H1  564   2.653   3.477   0.152
  186TIP3    H2  565   2.738   3.466   0.027
  187TIP3   OH2  566   6.208   0.488   1.291
  187TIP3    H1  567   6.202   0.577   1.326
  187TIP3    H2  568   6.301   0.475   1.274
  188TIP3   OH2  569   4.301   3.996   2.910
  188TIP3    H1  570   4.380   3.986   2.963
  188TIP3    H2  571   4.325   3.963   2.824
  189TIP3   OH2  572   4.880   1.803   5.048
  189TIP3    H1  573   4.911   1.880   5.000
  189TIP3    H2  574   4.795   1.828   5.082
  190TIP3   OH2  575   4.068   3.200   2.578
  190TIP3    H1  576   4.094   3.108   2.569
  190TIP3    H2  577   4.131   3.237   2.639
  191TIP3   OH2  578   2.976   2.659   0.394
  191TIP3    H1  579   2.959   2.579   0.444
  191TIP3    H2  580   3.068   2.678   0.410
  192TIP3   OH2  581   0.993   0.055   1.061
  192TIP3    H1  582   0.927   0.070   0.994
  192TIP3    H2  583   1.035  -0.027   1.036
  193TIP3   OH2  584   5.201   1.120   5.038
  193TIP3    H1  585   5.227   1.130   4.946
  193TIP3    H2  586   5.211   1.027   5.055
  194TIP3   OH2  587   2.055   1.579   3.515
  194TIP3    H1  588   2.042   1.498   3.564
  194TIP3    H2  589   1.976   1.630   3.531
  195TIP3   OH2  590   3.314   1.200   3.138
  195TIP3    H1  591   3.405   1.211   3.165
  195TIP3    H2  592   3.297   1.106   3.147
  196TIP3   OH2  593   5.309   2.970   2.416
  196TIP3    H1  594   5.214   2.985   2.410
  196TIP3    H2  595   5.348   3.053   2.389
  197TIP3   OH2  596   0.797   3.254   2.284
  197TIP3    H1  597   0.837   3.263   2.197
  197TIP3    H2  598   0.842   3.319   2.338
  198TIP3   OH2  599   2.977   2.058   3.041
  198TIP3    H1  600   2.905   2.039   2.981
  198TIP3    H2  601   2.977   2.154   3.049
  199TIP3   OH2  602   0.786   1.957   2.021
  199TIP3    H1  603   0.736   2.011   2.083
  199TIP3    H2  604   0.722   1.895   1.986
  200TIP3   OH2  605   5.742   3.569   0.938
  200TIP3    H1  606   5.649   3.580   0.920
  200TIP3    H2  607   5.779   3.537   0.856
  201TIP3   OH2  608   1.055   0.962   0.077
  201TIP3    H1  609   1.134   0.910   0.059
  201TIP3    H2  610   1.061   0.983   0.170
  202TIP3   OH2  611   2.174   2.896   3.124
  202TIP3    H1  612   2.169   2.981   3.080
  202TIP3    H2  613   2.152   2.833   3.056
  203TIP3   OH2  614   0.557   4.820   4.541
  203TIP3    H1  615   0.586   4.893   4.486
  203TIP3    H2  616   0.629   4.758   4.540
  204TIP3   OH2  617   4.362   1.086   4.751
  204TIP3    H1  618   4.408   1.146   4.810
  204TIP3    H2  619   4.381   1.119   4.663
  205TIP3   OH2  620   5.396   2.372   1.575
  205TIP3    H1  621   5.399   2.277   1.562
  205TIP3    H2  622   5.462   2.406   1.514
  206TIP3   OH2  623   0.148   3.789   3.410
  206TIP3    H1  624   0.206   3.729   3.458
  206TIP3    H2  625   0.098   3.833   3.478
  207TIP3   OH2  626   1.975   4.215   4.013
  207TIP3    H1  627   1.940   4.165   3.940
  207TIP3    H2  628   2.069   4.196   4.012
  208TIP3   OH2  629   4.678   3.164   1.251
  208TIP3    H1  630   4.648   3.190   1.338
  208TIP3    H2  631   4.763   3.124   1.266
  209TIP3   OH2  632   3.999   0.538   2.729
  209TIP3    H1  633   3.944   0.466   2.757
  209TIP3    H2  634   4.028   0.580   2.810
  210TIP3   OH2  635   4.337   0.178   2.472
  210TIP3    H1  636   4.401   0.231   2.520
  210TIP3    H2  637   4.325   0.099   2.525
  211TIP3   OH2  638   4.558   5.323   4.173
  211TIP3    H1  639   4.629   5.374   4.134
  211TIP3    H2  640   4.506   5.294   4.098
  212TIP3   OH2  641   4.490   4.795   1.514
  212TIP3    H1  642   4.501   4.844   1.432
  212TIP3    H2  643   4.451   4.712   1.487
  213TIP3   OH2  644   2.380   4.025   4.807
  213TIP3    H1  645   2.444   3.978   4.861
  213TIP3    H2  646   2.297   4.016   4.854
  214TIP3   OH2  647   1.549   2.637   4.957
  214TIP3    H1  648   1.523   2.581   5.030
  214TIP3    H2  649   1.551   2.578   4.881
  215TIP3   OH2  650   1.358   4.069   0.581
  215TIP3    H1  651   1.326   4.050   0.493
  215TIP3    H2  652   1.443   4.112   0.568
  216TIP3   OH2  653   6.186   5.355   2.903
  216TIP3    H1  654   6.190   5.450   2.892
  216TIP3    H2  655   6.126   5.325   2.835
  217TIP3   OH2  656   2.993   3.921   2.136
  217TIP3    H1  657   2.982   3.994   2.197
  217TIP3    H2  658   3.050   3.955   2.067
  218TIP3   OH2  659   5.910   5.858   0.124
  218TIP3    H1  660   5.961   5.901   0.192
  218TIP3    H2  661   5.822   5.892   0.135
  219TIP3   OH2  662   0.572   5.906   0.466
  219TIP3    H1  663   0.579   5.989   0.418
  219TIP3    H2  664   0.559   5.931   0.557
  220TIP3   OH2  665   1.279   3.412   0.739
  220TIP3    H1  666   1.307   3.386   0.652
  220TIP3    H2  667   1.246   3.501   0.728
  221TIP3   OH2  668   1.682   4.783   2.808
  221TIP3    H1  669   1.699   4.732   2.729
  221TIP3    H2  670   1.755   4.763   2.866
  222TIP3   OH2  671   4.949   2.263   4.922
  222TIP3    H1  672   4.898   2.343   4.927
  222TIP3    H2  673   4.898   2.199   4.972
  223TIP3   OH2  674   2.841   2.352   3.100
  223TIP3    H1  675   2.767   2.373   3.156
  223TIP3    H2  676   2.918   2.363   3.155
  224TIP3   OH2  677   2.583   3.054   0.765
  224TIP3    H1  678   2.555   3.145   0.753
  224TIP3    H2  679   2.660   3.045   0.709
  225TIP3   OH2  680   4.568   4.780   4.910
  225TIP3    H1  681   4.625   4.824   4.973
  225TIP3    H2  682   4.497   4.744   4.963
  226TIP3   OH2  683   1.354   2.990   3.008
  226TIP3    H1  684   1.266   3.010   3.040
  226TIP3    H2  685   1.408   2.984   3.087
  227TIP3   OH2  686   5.963   3.113   1.973
  227TIP3    H1  687   5.943   3.152   1.888
  227TIP3    H2  688   6.022   3.176   2.016
  228TIP3   OH2  689   4.906   2.073   2.397
  228TIP3    H1  690   4.867   2.082   2.483
  228TIP3    H2  691   4.996   2.044   2.414
  229TIP3   OH2  692   1.931   3.012   2.358
  229TIP3    H1  693   1.895   2.982   2.441
  229TIP3    H2  694   1.989   3.085   2.382
  230TIP3   OH2  695   2.971   1.641   3.946
  230TIP3    H1  696   2.915   1.590   4.005
  230TIP3    H2  697   2.992   1.721   3.994
  231TIP3   OH2  698   4.579   5.320   3.005
  231TIP3    H1  699   4.519   5.337   2.933
  231TIP3    H2  700   4.648   5.386   2.995
  232TIP3   OH2  701   6.138   0.560   2.863
  232TIP3    H1  702   6.216   0.584   2.813
  232TIP3    H2  703   6.067   0.561   2.799
  233TIP3   OH2  704   3.165   0.498   4.896
  233TIP3    H1  705   3.224   0.424   4.898
  233TIP3    H2  706   3.146   0.516   4.989
  234TIP3   OH2  707   4.849   0.509   3.890
  234TIP3    H1  708   4.867   0.495   3.797
  234TIP3    H2  709   4.934   0.494   3.933
  235TIP3   OH2  710   5.738   0.520   2.528
  235TIP3    H1  711   5.704   0.449   2.583
  235TIP3    H2  712   5.717   0.493   2.439
  236TIP3   OH2  713   3.047   0.054   3.777
  236TIP3    H1  714   3.048  -0.022   3.718
  236TIP3    H2  715   3.061   0.129   3.719
  237TIP3   OH2  716   2.115   3.869   3.103
  237TIP3    H1  717   2.098   3.805   3.034
  237TIP3    H2  718   2.036   3.867   3.158
  238TIP3   OH2  719   5.526   0.027   0.445
  238TIP3    H1  720   5.449  -0.018   0.481
  238TIP3    H2  721   5.493   0.074   0.368
  239TIP3   OH2  722  -0.017   1.404   4.588
  239TIP3    H1  723   0.031   1.327   4.616
  239TIP3    H2  724   0.008   1.472   4.651
  240TIP3   OH2  725   4.925   3.629   4.070
  240TIP3    H1  726   4.858   3.598   4.132
  240TIP3    H2  727   4.963   3.706   4.112
  241TIP3   OH2  728   4.173   5.524   3.884
  241TIP3    H1  729   4.239   5.574   3.932
  241TIP3    H2  730   4.128   5.589   3.830
  242TIP3   OH2  731   2.438   0.640   4.564
  242TIP3    H1  732   2.428   0.546   4.556
  242TIP3    H2  733   2.514   0.651   4.623
  243TIP3   OH2  734   5.856   5.872   3.777
  243TIP3    H1  735   5.852   5.778   3.761
  243TIP3    H2  736   5.765   5.901   3.771
  244TIP3   OH2  737   0.797   3.733   4.431
  244TIP3    H1  738   0.706   3.758   4.448
  244TIP3    H2  739   0.823   3.683   4.508
  245TIP3   OH2  740   3.704   0.401   2.287
  245TIP3    H1  741   3.775   0.357   2.241
  245TIP3    H2  742   3.748   0.465   2.342
  246TIP3   OH2  743   3.783   3.442   0.120
  246TIP3    H1  744   3.865   3.408   0.157
  246TIP3    H2  745   3.718   3.427   0.188
  247TIP3   OH2  746   0.572   0.226   2.430
  247TIP3    H1  747   0.611   0.299   2.382
  247TIP3    H2  748   0.484   0.218   2.392
  248TIP3   OH2  749   1.670   0.235   2.448
  248TIP3    H1  750   1.592   0.197   2.489
  248TIP3    H2  751   1.676   0.191   2.363
  249TIP3   OH2  752   0.038   2.698   2.629
  249TIP3    H1  753   0.011   2.786   2.601
  249TIP3    H2  754   0.078   2.713   2.715
  250TIP3   OH2  755   3.021   3.792   3.113
  250TIP3    H1  756   2.967   3.720   3.145
  250TIP3    H2  757   3.040   3.845   3.190
  251TIP3   OH2  758   2.173   5.582   1.074
  251TIP3    H1  759   2.140   5.666   1.104
  251TIP3    H2  760   2.267   5.597   1.058
  252TIP3   OH2  761   4.817   3.002   2.267
  252TIP3    H1  762   4.825   3.053   2.186
  252TIP3    H2  763   4.759   2.929   2.243
  253TIP3   OH2  764   0.567   1.044   3.041
  253TIP3    H1  765   0.617   1.026   3.121
  253TIP3    H2  766   0.592   0.975   2.980
  254TIP3   OH2  767   1.875   0.711   1.182
  254TIP3    H1  768   1.875   0.788   1.125
  254TIP3    H2  769   1.795   0.664   1.159
  255TIP3   OH2  770   4.232   1.685   2.464
  255TIP3    H1  771   4.247   1.597   2.429
  255TIP3    H2  772   4.287   1.742   2.411
  256TIP3   OH2  773   2.348   0.905   1.246
  256TIP3    H1  774   2.280   0.843   1.272
  256TIP3    H2  775   2.314   0.947   1.167
  257TIP3   OH2  776   3.952   2.621   1.712
  257TIP3    H1  777   3.879   2.642   1.655
  257TIP3    H2  778   3.953   2.525   1.715
  258TIP3   OH2  779   5.901   6.029   1.000
  258TIP3    H1  780   5.884   5.937   0.981
  258TIP3    H2  781   5.836   6.052   1.066
  259TIP3   OH2  782   4.880   4.222   1.585
  259TIP3    H1  783   4.816   4.192   1.649
  259TIP3    H2  784   4.902   4.143   1.535
  260TIP3   OH2  785   6.338   0.921   1.445
  260TIP3    H1  786   6.368   1.001   1.403
  260TIP3    H2  787   6.370   0.926   1.535
  261TIP3   OH2  788   2.505   1.122   4.443
  261TIP3    H1  789   2.470   1.054   4.500
  261TIP3    H2  790   2.569   1.077   4.387
  262TIP3   OH2  791   4.502   1.297   0.692
  262TIP3    H1  792   4.500   1.376   0.745
  262TIP3    H2  793   4.511   1.226   0.755
  263TIP3   OH2  794   5.871   3.712   3.666
  263TIP3    H1  795   5.960   3.683   3.646
  263TIP3    H2  796   5.824   3.704   3.583
  264TIP3   OH2  797   3.438   1.349   0.679
  264TIP3    H1  798   3.528   1.327   0.705
  264TIP3    H2  799   3.383   1.303   0.743
  265TIP3   OH2  800   3.385   2.809   1.823
  265TIP3    H1  801   3.364   2.755   1.747
  265TIP3    H2  802   3.302   2.852   1.845
  266TIP3   OH2  803   4.971   4.444   4.713
  266TIP3    H1  804   4.932   4.449   4.800
  266TIP3    H2  805   5.002   4.353   4.706
  267TIP3   OH2  806   0.850   4.874   4.530
  267TIP3    H1  807   0.848   4.884   4.626
  267TIP3    H2  808   0.934   4.831   4.513
  268TIP3   OH2  809   1.593   5.185   3.007
  268TIP3    H1  810   1.571   5.180   3.100
  268TIP3    H2  811   1.679   5.143   3.001
  269TIP3   OH2  812   2.844   3.481   1.583
  269TIP3    H1  813   2.921   3.523   1.544
  269TIP3    H2  814   2.771   3.508   1.528
  270TIP3   OH2  815   2.574   4.817   1.782
  270TIP3    H1  816   2.511   4.889   1.778
  270TIP3    H2  817   2.640   4.840   1.716
  271TIP3   OH2  818   0.185   0.610   4.606
  271TIP3    H1  819   0.206   0.558   4.683
  271TIP3    H2  820   0.109   0.567   4.567
  272TIP3   OH2  821   0.286   0.789   3.194
  272TIP3    H1  822   0.341   0.772   3.271
  272TIP3    H2  823   0.338   0.759   3.120
  273TIP3   OH2  824   5.053   4.907   4.313
  273TIP3    H1  825   5.039   4.964   4.390
  273TIP3    H2  826   4.969   4.910   4.267
  274TIP3   OH2  827   0.400   4.926   3.553
  274TIP3    H1  828   0.494   4.911   3.550
  274TIP3    H2  829   0.362   4.843   3.523
  275TIP3   OH2  830   2.370   1.572   0.454
  275TIP3    H1  831   2.360   1.657   0.412
  275TIP3    H2  832   2.336   1.509   0.390
  276TIP3   OH2  833   2.029   2.914   2.082
  276TIP3    H1  834   1.940   2.947   2.076
  276TIP3    H2  835   2.064   2.954   2.162
  277TIP3   OH2  836   2.303   1.435   0.230
  277TIP3    H1  837   2.240   1.469   0.167
  277TIP3    H2  838   2.345   1.362   0.185
  278TIP3   OH2  839   2.640   1.596   3.026
  278TIP3    H1  840   2.724   1.634   2.997
  278TIP3    H2  841   2.619   1.532   2.958
  279TIP3   OH2  842   2.755   1.787   4.905
  279TIP3    H1  843   2.786   1.710   4.857
  279TIP3    H2  844   2.823   1.804   4.970
  280TIP3   OH2  845   2.730   5.311   3.808
  280TIP3    H1  846   2.733   5.265   3.725
  280TIP3    H2  847   2.760   5.400   3.788
  281TIP3   OH2  848   4.428   3.001   1.958
  281TIP3    H1  849   4.384   2.927   1.999
  281TIP3    H2  850   4.506   2.963   1.917
  282TIP3   OH2  851   3.412   5.421   4.447
  282TIP3    H1  852   3.507   5.417   4.438
  282TIP3    H2  853   3.379   5.371   4.372
  283TIP3   OH2  854   3.076   4.780   1.022
  283TIP3    H1  855   3.035   4.800   1.106
  283TIP3    H2  856   3.170   4.792   1.038
  284TIP3   OH2  857   5.236   3.602   4.084
  284TIP3    H1  858   5.152   3.635   4.051
  284TIP3    H2  859   5.216   3.513   4.115
  285TIP3   OH2  860   0.254   2.962   3.763
  285TIP3    H1  861   0.207   2.966   3.846
  285TIP3    H2  862   0.325   2.901   3.778
  286TIP3   OH2  863   0.318   1.560   4.300
  286TIP3    H1  864   0.371   1.603   4.232
  286TIP3    H2  865   0.234   1.543   4.257
  287TIP3   OH2  866   3.154   3.014   1.384
  287TIP3    H1  867   3.108   2.995   1.302
  287TIP3    H2  868   3.222   2.947   1.390
  288TIP3   OH2  869   4.060   0.990   0.128
  288TIP3    H1  870   4.054   0.956   0.039
  288TIP3    H2  871   4.131   0.939   0.168
  289TIP3   OH2  872   2.570   2.363   2.513
  289TIP3    H1  873   2.640   2.372   2.448
  289TIP3    H2  874   2.593   2.427   2.581
  290TIP3   OH2  875   5.025   1.640   0.269
  290TIP3    H1  876   5.034   1.547   0.247
  290TIP3    H2  877   5.088   1.684   0.213
  291TIP3   OH2  878   1.439   1.359   4.056
  291TIP3    H1  879   1.476   1.433   4.105
  291TIP3    H2  880   1.490   1.357   3.975
  292TIP3   OH2  881   1.518   1.788   1.413
  292TIP3    H1  882   1.517   1.873   1.370
  292TIP3    H2  883   1.567   1.732   1.353
  293TIP3   OH2  884  -0.003   4.237   5.119
  293TIP3    H1  885   0.045   4.234   5.037
  293TIP3    H2  886   0.049   4.294   5.176
  294TIP3   OH2  887   1.231   2.332   1.518
  294TIP3    H1  888   1.299   2.266   1.506
  294TIP3    H2  889   1.240   2.389   1.442
  295TIP3   OH2  890   2.747   1.312   1.700
  295TIP3    H1  891   2.812   1.242   1.696
  295TIP3    H2  892   2.762   1.353   1.785
  296TIP3   OH2  893   6.214   5.640   3.813
  296TIP3    H1  894   6.220   5.564   3.870
  296TIP3    H2  895   6.120   5.649   3.794
  297TIP3   OH2  896   1.059   4.087   2.919
  297TIP3    H1  897   1.075   4.011   2.974
  297TIP3    H2  898   1.099   4.064   2.835
  298TIP3   OH2  899   3.191   3.306   3.450
  298TIP3    H1  900   3.269   3.258   3.425
  298TIP3    H2  901   3.127   3.238   3.473
  299TIP3   OH2  902   4.342   4.109   3.194
  299TIP3    H1  903   4.280   4.152   3.135
  299TIP3    H2  904   4.306   4.022   3.207
  300TIP3   OH2  905   3.931   1.721   3.141
  300TIP3    H1  906   3.995   1.786   3.111
  300TIP3    H2  907   3.901   1.754   3.226
  301TIP3   OH2  908   1.227   5.216   0.280
  301TIP3    H1  909   1.282   5.185   0.352
  301TIP3    H2  910   1.148   5.250   0.322
  302TIP3   OH2  911   1.169   0.669   1.617
  302TIP3    H1  912   1.147   0.595   1.674
  302TIP3    H2  913   1.141   0.642   1.530
  303TIP3   OH2  914   2.605   1.712   3.598
  303TIP3    H1  915   2.671   1.645   3.616
  303TIP3    H2  916   2.530   1.687   3.653
  304TIP3   OH2  917   5.175   2.988   4.812
  304TIP3    H1  918   5.105   3.051   4.828
  304TIP3    H2  919   5.221   2.981   4.895
  305TIP3   OH2  920   4.434   5.780   4.378
  305TIP3    H1  921   4.480   5.860   4.353
  305TIP3    H2  922   4.465   5.714   4.316
  306TIP3   OH2  923   1.315   1.374   4.894
  306TIP3    H1  924   1.239   1.399   4.841
  306TIP3    H2  925   1.372   1.328   4.834
  307TIP3   OH2  926   3.499   4.059   1.379
  307TIP3    H1  927   3.576   4.003   1.364
  307TIP3    H2  928   3.508   4.128   1.314
  308TIP3   OH2  929   4.239   1.594   0.826
  308TIP3    H1  930   4.293   1.651   0.770
  308TIP3    H2  931   4.175   1.555   0.766
  309TIP3   OH2  932   1.794   4.730   0.174
  309TIP3    H1  933   1.730   4.672   0.215
  309TIP3    H2  934   1.801   4.805   0.233
  310TIP3   OH2  935   1.283   1.889   4.500
  310TIP3    H1  936   1.354   1.833   4.531
  310TIP3    H2  937   1.305   1.977   4.532
  311TIP3   OH2  938   2.274   1.657   3.107
  311TIP3    H1  939   2.275   1.751   3.126
  311TIP3    H2  940   2.184   1.630   3.126
  312TIP3   OH2  941   2.440   0.335   4.502
  312TIP3    H1  942   2.385   0.260   4.525
  312TIP3    H2  943   2.398   0.373   4.425
  313TIP3   OH2  944   4.121   5.962   1.041
  313TIP3    H1  945   4.131   6.032   1.106
  313TIP3    H2  946   4.210   5.941   1.014
  314TIP3   OH2  947   1.964   3.785   3.537
  314TIP3    H1  948   1.915   3.835   3.472
  314TIP3    H2  949   1.900   3.765   3.605
  315TIP3   OH2  950   5.595   5.129   2.632
  315TIP3    H1  951   5.563   5.047   2.668
  315TIP3    H2  952   5.533   5.151   2.562
  316TIP3   OH2  953   4.155   2.190   3.325
  316TIP3    H1  954   4.060   2.182   3.333
  316TIP3    H2  955   4.167   2.255   3.255
  317TIP3   OH2  956   0.701   0.678   3.229
  317TIP3    H1  957   0.756   0.631   3.165
  317TIP3    H2  958   0.729   0.644   3.314
  318TIP3   OH2  959   1.568   5.096   3.322
  318TIP3    H1  960   1.554   5.159   3.393
  318TIP3    H2  961   1.480   5.066   3.299
  319TIP3   OH2  962   3.628   4.509   4.823
  319TIP3    H1  963   3.586   4.456   4.891
  319TIP3    H2  964   3.661   4.586   4.869
  320TIP3   OH2  965   1.274   3.287   3.949
  320TIP3    H1  966   1.356   3.282   3.900
  320TIP3    H2  967   1.270   3.205   3.998
  321TIP3   OH2  968   5.107   0.515   1.753
  321TIP3    H1  969   5.086   0.590   1.698
  321TIP3    H2  970   5.119   0.552   1.841
  322TIP3   OH2  971   6.016   2.802   0.156
  322TIP3    H1  972   5.954   2.836   0.220
  322TIP3    H2  973   6.066   2.736   0.204
  323TIP3   OH2  974   3.597   1.116   2.243
  323TIP3    H1  975   3.675   1.154   2.283
  323TIP3    H2  976   3.629   1.074   2.163
  324TIP3   OH2  977   4.727   0.721   3.976
  324TIP3    H1  978   4.723   0.632   3.943
  324TIP3    H2  979   4.769   0.771   3.906
  325TIP3   OH2  980   3.546   4.184   2.520
  325TIP3    H1  981   3.454   4.161   2.536
  325TIP3    H2  982   3.550   4.205   2.427
  326TIP3   OH2  983   1.473   1.470   1.939
  326TIP3    H1  984   1.520   1.551   1.916
  326TIP3    H2  985   1.384   1.484   1.904
  327TIP3   OH2  986   3.380   0.032   2.260
  327TIP3    H1  987   3.474   0.042   2.274
  327TIP3    H2  988   3.342   0.036   2.347
  328TIP3   OH2  989   4.442   5.350   0.643
  328TIP3    H1  990   4.509   5.386   0.702
  328TIP3    H2  991   4.476   5.368   0.556
  329TIP3   OH2  992   3.553   5.685   4.045
  329TIP3    H1  993   3.560   5.701   4.139
  329TIP3    H2  994   3.644   5.689   4.013
  330TIP3   OH2  995   3.948   5.480   4.149
  330TIP3    H1  996   3.915   5.505   4.063
  330TIP3    H2  997   4.030   5.433   4.131
  331TIP3   OH2  998   0.038   2.375   2.597
  331TIP3    H1  999   0.089   2.362   2.517
  331TIP3    H2 1000  -0.041   2.420   2.568
  332TIP3   OH2 1001   6.019   3.613   3.262
  332TIP3    H1 1002   6.095   3.653   3.219
  332TIP3    H2 1003   5.990   3.546   3.201
  333TIP3   OH2 1004   1.720   5.380   2.810
  333TIP3    H1 1005   1.676   5.387   2.725
  333TIP3    H2 1006   1.654   5.339   2.867
  334TIP3   OH2 1007   2.426   0.546   3.676
  334TIP3    H1 1008   2.348   0.567   3.624
  334TIP3    H2 1009   2.463   0.632   3.699
  335TIP3   OH2 1010   2.788   4.294   2.398
  335TIP3    H1 1011   2.743   4.277   2.315
  335TIP3    H2 1012   2.822   4.383   2.390
  336TIP3   OH2 1013   2.314   5.314   1.462
  336TIP3    H1 1014   2.275   5.350   1.382
  336TIP3    H2 1015   2.370   5.243   1.431
  337TIP3   OH2 1016   1.795   0.177   3.475
  337TIP3    H1 1017   1.785   0.270   3.498
  337TIP3    H2 1018   1.813   0.134   3.559
  338TIP3   OH2 1019   4.963   1.088   1.799
  338TIP3    H1 1020   4.877   1.075   1.841
  338TIP3    H2 1021   5.016   1.130   1.867
  339TIP3   OH2 1022   1.878   5.471   4.833
  339TIP3    H1 1023   1.909   5.509   4.751
  339TIP3    H2 1024   1.917   5.525   4.901
  340TIP3   OH2 1025   0.064   4.578   0.671
  340TIP3    H1 1026   0.015   4.522   0.611
  340TIP3    H2 1027   0.153   4.578   0.636
  341TIP3   OH2 1028   4.866   2.897   1.139
  341TIP3    H1 1029   4.847   2.915   1.231
  341TIP3    H2 1030   4.958   2.872   1.138
  342TIP3   OH2 1031   5.109   2.061   5.090
  342TIP3    H1 1032   5.091   2.052   4.996
  342TIP3    H2 1033   5.189   2.011   5.104
  343TIP3   OH2 1034   0.658   1.842   0.403
  343TIP3    H1 1035   0.589   1.793   0.358
  343TIP3    H2 1036   0.735   1.831   0.348
  344TIP3   OH2 1037   0.767   3.606   3.183
  344TIP3    H1 1038   0.737   3.515   3.180
  344TIP3    H2 1039   0.823   3.610   3.260
  345TIP3   OH2 1040   0.178   2.438   4.616
  345TIP3    H1 1041   0.243   2.435   4.687
  345TIP3    H2 1042   0.230   2.454   4.537
  346TIP3   OH2 1043   1.986   4.819   4.032
  346TIP3    H1 1044   2.040   4.886   3.989
  346TIP3    H2 1045   1.902   4.823   3.986
  347TIP3   OH2 1046   4.496   0.928   1.446
  347TIP3    H1 1047   4.434   0.937   1.517
  347TIP3    H2 1048   4.581   0.948   1.485
  348TIP3   OH2 1049   5.841   5.929   1.846
  348TIP3    H1 1050   5.917   5.975   1.882
  348TIP3    H2 1051   5.871   5.897   1.761
  349TIP3   OH2 1052   0.193   5.309   1.341
  349TIP3    H1 1053   0.145   5.248   1.397
  349TIP3    H2 1054   0.280   5.315   1.380
  350TIP3   OH2 1055   1.065   3.819   4.355
  350TIP3    H1 1056   0.987   3.807   4.409
  350TIP3    H2 1057   1.133   3.768   4.401
  351TIP3   OH2 1058   3.587   0.253   2.485
  351TIP3    H1 1059   3.638   0.299   2.418
  351TIP3    H2 1060   3.499   0.288   2.477
  352TIP3   OH2 1061   0.871   2.571   0.120
  352TIP3    H1 1062   0.911   2.505   0.176
  352TIP3    H2 1063   0.831   2.522   0.048
  353TIP3   OH2 1064   2.089   2.067   0.045
  353TIP3    H1 1065   2.150   2.025   0.105
  353TIP3    H2 1066   2.012   2.010   0.044
  354TIP3   OH2 1067   4.199   4.296   2.616
  354TIP3    H1 1068   4.241   4.360   2.558
  354TIP3    H2 1069   4.149   4.239   2.557
  355TIP3   OH2 1070   5.546   4.205   4.386
  355TIP3    H1 1071   5.514   4.155   4.461
  355TIP3    H2 1072   5.575   4.139   4.323
  356TIP3   OH2 1073   0.818   0.135   2.440
  356TIP3    H1 1074   0.741   0.192   2.432
  356TIP3    H2 1075   0.790   0.051   2.404
  357TIP3   OH2 1076   4.982   4.174   4.701
  357TIP3    H1 1077   4.967   4.124   4.620
  357TIP3    H2 1078   4.909   4.149   4.758
  358TIP3   OH2 1079   5.385   5.927   3.817
  358TIP3    H1 1080   5.346   6.014   3.805
  358TIP3    H2 1081   5.322   5.867   3.777
  359TIP3   OH2 1082   0.420   5.007   1.147
  359TIP3    H1 1083   0.400   5.027   1.239
  359TIP3    H2 1084   0.442   4.914   1.148
  360TIP3   OH2 1085   5.644   1.723   3.273
  360TIP3    H1 1086   5.665   1.684   3.189
  360TIP3    H2 1087   5.591   1.656   3.318
  361TIP3   OH2 1088   5.767   5.816   1.255
  361TIP3    H1 1089   5.683   5.776   1.277
  361TIP3    H2 1090   5.747   5.909   1.244
  362TIP3   OH2 1091   2.590   3.811   4.814
  362TIP3    H1 1092   2.683   3.816   4.792
  362TIP3    H2 1093   2.585   3.743   4.881
  363TIP3   OH2 1094   5.818   1.657   2.814
  363TIP3    H1 1095   5.817   1.736   2.868
  363TIP3    H2 1096   5.903   1.660   2.769
  364TIP3   OH2 1097   3.847   0.253   2.111
  364TIP3    H1 1098   3.812   0.166   2.092
  364TIP3    H2 1099   3.938   0.237   2.138
  365TIP3   OH2 1100   2.649   2.045   3.068
  365TIP3    H1 1101   2.628   2.007   2.983
  365TIP3    H2 1102   2.636   2.139   3.056
  366TIP3   OH2 1103   2.206  -0.020   5.113
  366TIP3    H1 1104   2.285   0.030   5.133
  366TIP3    H2 1105   2.149   0.043   5.069
  367TIP3   OH2 1106   5.469   0.750   3.812
  367TIP3    H1 1107   5.513   0.753   3.897
  367TIP3    H2 1108   5.425   0.665   3.811
  368TIP3   OH2 1109   0.568   4.824   4.221
  368TIP3    H1 1110   0.621   4.904   4.220
  368TIP3    H2 1111   0.592   4.779   4.140
  369TIP3   OH2 1112   2.155   2.233   1.311
  369TIP3    H1 1113   2.113   2.206   1.392
  369TIP3    H2 1114   2.247   2.245   1.335
  370TIP3   OH2 1115   2.199   5.258   4.057
  370TIP3    H1 1116   2.262   5.328   4.042
  370TIP3    H2 1117   2.251   5.183   4.085
  371TIP3   OH2 1118   5.455   3.173   2.089
  371TIP3    H1 1119   5.546   3.146   2.101
  371TIP3    H2 1120   5.447   3.254   2.139
  372TIP3   OH2 1121   4.355   3.253   1.230
  372TIP3    H1 1122   4.439   3.264   1.274
  372TIP3    H2 1123   4.367   3.292   1.144
  373TIP3   OH2 1124   6.069   4.183   1.729
  373TIP3    H1 1125   6.015   4.104   1.727
  373TIP3    H2 1126   6.155   4.154   1.701
  374TIP3   OH2 1127   1.088   3.511   1.672
  374TIP3    H1 1128   1.108   3.441   1.611
  374TIP3    H2 1129   1.127   3.590   1.633
  375TIP3   OH2 1130   1.204   0.719   4.055
  375TIP3    H1 1131   1.178   0.811   4.060
  375TIP3    H2 1132   1.121   0.671   4.064
  376TIP3   OH2 1133   5.157   0.183   2.465
  376TIP3    H1 1134   5.192   0.094   2.466
  376TIP3    H2 1135   5.192   0.222   2.545
  377TIP3   OH2 1136   1.303   5.209   4.304
  377TIP3    H1 1137   1.242   5.143   4.338
  377TIP3    H2 1138   1.370   5.218   4.372
  378TIP3   OH2 1139   2.529   2.469   3.923
  378TIP3    H1 1140   2.545   2.385   3.966
  378TIP3    H2 1141   2.596   2.527   3.958
  379TIP3   OH2 1142   3.784   0.975   2.911
  379TIP3    H1 1143   3.721   1.032   2.956
  379TIP3    H2 1144   3.830   0.929   2.981
  380TIP3   OH2 1145   0.910   2.102   3.931
  380TIP3    H1 1146   0.873   2.034   3.874
  380TIP3    H2 1147   0.859   2.180   3.910
  381TIP3   OH2 1148   1.659   5.397   4.055
  381TIP3    H1 1149   1.669   5.339   3.979
  381TIP3    H2 1150   1.743   5.392   4.100
  382TIP3   OH2 1151   2.114   1.800   0.215
  382TIP3    H1 1152   2.080   1.720   0.175
  382TIP3    H2 1153   2.041   1.834   0.267
  383TIP3   OH2 1154   0.570   2.478   2.703
  383TIP3    H1 1155   0.504   2.463   2.770
  383TIP3    H2 1156   0.521   2.486   2.622
  384TIP3   OH2 1157   3.624   1.789   2.595
  384TIP3    H1 1158   3.597   1.871   2.635
  384TIP3    H2 1159   3.586   1.791   2.507
  385TIP3   OH2 1160   4.263   2.516   2.350
  385TIP3    H1 1161   4.178   2.546   2.384
  385TIP3    H2 1162   4.248   2.507   2.255
  386TIP3   OH2 1163   3.144   5.300   4.904
  386TIP3    H1 1164   3.094   5.375   4.937
  386TIP3    H2 1165   3.213   5.339   4.850
  387TIP3   OH2 1166   4.755   1.765   2.888
  387TIP3    H1 1167   4.720   1.678   2.869
  387TIP3    H2 1168   4.678   1.821   2.891
  388TIP3   OH2 1169   3.785   2.304   3.865
  388TIP3    H1 1170   3.694   2.326   3.849
  388TIP3    H2 1171   3.819   2.279   3.779
  389TIP3   OH2 1172   0.843   1.034   3.768
  389TIP3    H1 1173   0.908   1.060   3.833
  389TIP3    H2 1174   0.843   0.938   3.771
  390TIP3   OH2 1175   2.821   3.342   3.062
  390TIP3    H1 1176   2.778   3.259   3.082
  390TIP3    H2 1177   2.778   3.406   3.119
  391TIP3   OH2 1178   4.190   0.136   3.485
  391TIP3    H1 1179   4.127   0.205   3.463
  391TIP3    H2 1180   4.272   0.183   3.501
  392TIP3   OH2 1181   3.381   4.371   4.143
  392TIP3    H1 1182   3.355   4.295   4.195
  392TIP3    H2 1183   3.396   4.336   4.055
  393TIP3   OH2 1184   5.112   0.027   0.413
  393TIP3    H1 1185   5.192   0.019   0.465
  393TIP3    H2 1186   5.141   0.012   0.323
  394TIP3   OH2 1187   2.393   1.769   3.811
  394TIP3    H1 1188   2.318   1.823   3.836
  394TIP3    H2 1189   2.457   1.781   3.881
  395TIP3   OH2 1190   3.243   5.039   4.892
  395TIP3    H1 1191   3.187   5.112   4.916
  395TIP3    H2 1192   3.271   5.058   4.802
  396TIP3   OH2 1193   2.441   3.174   1.601
  396TIP3    H1 1194   2.457   3.204   1.690
  396TIP3    H2 1195   2.372   3.231   1.568
  397TIP3   OH2 1196   1.006   5.049   4.162
  397TIP3    H1 1197   0.969   5.096   4.237
  397TIP3    H2 1198   1.034   5.118   4.102
  398TIP3   OH2 1199   4.520   1.517   0.878
  398TIP3    H1 1200   4.462   1.594   0.877
  398TIP3    H2 1201   4.509   1.480   0.965
  399TIP3   OH2 1202   2.184   1.157   4.850
  399TIP3    H1 1203   2.187   1.062   4.861
  399TIP3    H2 1204   2.171   1.170   4.756
  400TIP3   OH2 1205   4.398   4.037   2.330
  400TIP3    H1 1206   4.352   3.962   2.293
  400TIP3    H2 1207   4.479   4.001   2.366
  401TIP3   OH2 1208   1.646   3.942   4.357
  401TIP3    H1 1209   1.598   3.861   4.339
  401TIP3    H2 1210   1.705   3.918   4.429
  402TIP3   OH2 1211   2.023   4.157   5.124
  402TIP3    H1 1212   2.005   4.146   5.218
  402TIP3    H2 1213   2.017   4.068   5.088
  403TIP3   OH2 1214   4.096   1.032   4.302
  403TIP3    H1 1215   4.056   1.098   4.245
  403TIP3    H2 1216   4.189   1.055   4.304
  404TIP3   OH2 1217   2.908   0.673   2.195
  404TIP3    H1 1218   2.904   0.689   2.101
  404TIP3    H2 1219   2.879   0.755   2.235
  405TIP3   OH2 1220   4.200   0.656   1.864
  405TIP3    H1 1221   4.127   0.596   1.878
  405TIP3    H2 1222   4.209   0.659   1.768
  406TIP3   OH2 1223   4.322   3.504   3.948
  406TIP3    H1 1224   4.283   3.591   3.941
  406TIP3    H2 1225   4.362   3.489   3.862
  407TIP3   OH2 1226   5.285   4.936   0.567
  407TIP3    H1 1227   5.300   4.980   0.483
  407TIP3    H2 1228   5.370   4.897   0.588
  408TIP3   OH2 1229   5.423   1.546   0.574
  408TIP3    H1 1230   5.474   1.466   0.590
  408TIP3    H2 1231   5.430   1.595   0.656
  409TIP3   OH2 1232   3.912   0.650   3.640
  409TIP3    H1 1233   3.898   0.571   3.587
  409TIP3    H2 1234   3.825   0.688   3.650
  410TIP3   OH2 1235   5.271   0.812   1.605
  410TIP3    H1 1236   5.274   0.852   1.692
  410TIP3    H2 1237   5.188   0.766   1.602
  411TIP3   OH2 1238   4.994   2.277   3.550
  411TIP3    H1 1239   4.970   2.248   3.637
  411TIP3    H2 1240   5.081   2.315   3.560
  412TIP3   OH2 1241   2.802   5.955   3.564
  412TIP3    H1 1242   2.765   5.951   3.476
  412TIP3    H2 1243   2.750   6.022   3.609
  413TIP3   OH2 1244   5.687   3.922   1.572
  413TIP3    H1 1245   5.733   3.950   1.493
  413TIP3    H2 1246   5.594   3.931   1.549
  414TIP3   OH2 1247   4.024   3.618   3.806
  414TIP3    H1 1248   4.117   3.639   3.791
  414TIP3    H2 1249   3.981   3.704   3.808
  415TIP3   OH2 1250   5.809   2.810   0.359
  415TIP3    H1 1251   5.833   2.736   0.414
  415TIP3    H2 1252   5.724   2.839   0.394
  416TIP3   OH2 1253   4.932   2.837   0.022
  416TIP3    H1 1254   4.933   2.762   0.082
  416TIP3    H2 1255   5.008   2.824  -0.035
  417TIP3   OH2 1256   1.867   0.183   1.031
  417TIP3    H1 1257   1.796   0.126   1.003
  417TIP3    H2 1258   1.900   0.143   1.112
  418TIP3   OH2 1259   0.832   1.502   0.830
  418TIP3    H1 1260   0.816   1.555   0.752
  418TIP3    H2 1261   0.914   1.535   0.865
  419TIP3   OH2 1262   0.344   3.938   2.243
  419TIP3    H1 1263   0.423   3.910   2.290
  419TIP3    H2 1264   0.335   4.031   2.263
  420TIP3   OH2 1265   2.912   1.156   0.827
  420TIP3    H1 1266   2.999   1.135   0.793
  420TIP3    H2 1267   2.927   1.226   0.890
  421TIP3   OH2 1268   0.958   2.570   2.538
  421TIP3    H1 1269   0.905   2.626   2.481
  421TIP3    H2 1270   0.970   2.489   2.487
  422TIP3   OH2 1271   5.278   1.639   2.114
  422TIP3    H1 1272   5.293   1.727   2.081
  422TIP3    H2 1273   5.254   1.650   2.205
  423TIP3   OH2 1274   4.628   4.692   0.940
  423TIP3    H1 1275   4.581   4.748   0.879
  423TIP3    H2 1276   4.628   4.606   0.897
  424TIP3   OH2 1277   4.125   2.953   4.793
  424TIP3    H1 1278   4.059   2.905   4.743
  424TIP3    H2 1279   4.100   3.045   4.783
  425TIP3   OH2 1280   0.558   0.453   0.865
  425TIP3    H1 1281   0.530   0.365   0.840
  425TIP3    H2 1282   0.607   0.485   0.789
  426TIP3   OH2 1283   4.162   4.260   5.048
  426TIP3    H1 1284   4.105   4.294   4.979
  426TIP3    H2 1285   4.105   4.201   5.099
  427TIP3   OH2 1286   5.392   4.020   2.968
  427TIP3    H1 1287   5.330   4.019   3.040
  427TIP3    H2 1288   5.447   3.943   2.982
  428TIP3   OH2 1289   0.690   5.493   2.190
  428TIP3    H1 1290   0.625   5.557   2.218
  428TIP3    H2 1291   0.683   5.422   2.254
  429TIP3   OH2 1292   5.971   4.553   0.745
  429TIP3    H1 1293   6.065   4.564   0.758
  429TIP3    H2 1294   5.944   4.493   0.814
  430TIP3   OH2 1295   3.792   0.536   4.232
  430TIP3    H1 1296   3.805   0.495   4.147
  430TIP3    H2 1297   3.880   0.542   4.269
  431TIP3   OH2 1298   0.761   3.348   4.449
  431TIP3    H1 1299   0.836   3.328   4.392
  431TIP3    H2 1300   0.687   3.306   4.405
  432TIP3   OH2 1301   5.061   4.693   3.807
  432TIP3    H1 1302   4.983   4.639   3.822
  432TIP3    H2 1303   5.102   4.700   3.894
  433TIP3   OH2 1304   5.249   0.365   1.579
  433TIP3    H1 1305   5.207   0.392   1.660
  433TIP3    H2 1306   5.333   0.409   1.579
  434TIP3   OH2 1307   0.163   5.566   2.670
  434TIP3    H1 1308   0.088   5.615   2.636
  434TIP3    H2 1309   0.201   5.623   2.736
  435TIP3   OH2 1310   3.568   1.024   2.733
  435TIP3    H1 1311   3.639   0.998   2.791
  435TIP3    H2 1312   3.601   1.005   2.645
  436TIP3   OH2 1313   3.765   0.157   3.701
  436TIP3    H1 1314   3.709   0.084   3.674
  436TIP3    H2 1315   3.782   0.141   3.794
  437TIP3   OH2 1316   4.212   2.359   3.078
  437TIP3    H1 1317   4.151   2.363   3.005
  437TIP3    H2 1318   4.223   2.450   3.106
  438TIP3   OH2 1319   3.953   2.686   3.720
  438TIP3    H1 1320   4.002   2.764   3.746
  438TIP3    H2 1321   3.956   2.686   3.625
  439TIP3   OH2 1322   6.230   5.922   3.059
  439TIP3    H1 1323   6.246   5.944   3.151
  439TIP3    H2 1324   6.144   5.881   3.059
  440TIP3   OH2 1325   3.484   4.086   5.209
  440TIP3    H1 1326   3.536   4.084   5.129
  440TIP3    H2 1327   3.458   3.995   5.223
  441TIP3   OH2 1328   3.224   0.956   3.601
  441TIP3    H1 1329   3.271   0.934   3.682
  441TIP3    H2 1330   3.140   0.991   3.631
  442TIP3   OH2 1331   4.781   5.946   0.083
  442TIP3    H1 1332   4.745   6.020   0.132
  442TIP3    H2 1333   4.710   5.919   0.025
  443TIP3   OH2 1334   0.561   5.890   4.355
  443TIP3    H1 1335   0.495   5.933   4.409
  443TIP3    H2 1336   0.603   5.828   4.414
  444TIP3   OH2 1337   4.291   3.009   1.075
  444TIP3    H1 1338   4.382   2.984   1.092
  444TIP3    H2 1339   4.267   3.064   1.149
  445TIP3   OH2 1340   3.670   2.050   0.176
  445TIP3    H1 1341   3.716   2.017   0.253
  445TIP3    H2 1342   3.635   2.134   0.202
  446TIP3   OH2 1343   2.105   1.811   4.549
  446TIP3    H1 1344   2.094   1.735   4.605
  446TIP3    H2 1345   2.098   1.776   4.460
  447TIP3   OH2 1346   5.516   4.374   2.428
  447TIP3    H1 1347   5.468   4.351   2.349
  447TIP3    H2 1348   5.467   4.448   2.465
  448TIP3   OH2 1349   1.053   2.387   3.976
  448TIP3    H1 1350   0.962   2.357   3.972
  448TIP3    H2 1351   1.047   2.480   3.998
  449TIP3   OH2 1352   4.814   3.875   1.423
  449TIP3    H1 1353   4.753   3.871   1.349
  449TIP3    H2 1354   4.900   3.886   1.382
  450TIP3   OH2 1355   3.865   1.746   4.875
  450TIP3    H1 1356   3.774   1.716   4.867
  450TIP3    H2 1357   3.868   1.791   4.959
  451TIP3   OH2 1358   0.395   5.178   3.460
  451TIP3    H1 1359   0.392   5.089   3.495
  451TIP3    H2 1360   0.481   5.211   3.485
  452TIP3   OH2 1361   1.792   1.607   1.483
  452TIP3    H1 1362   1.767   1.519   1.512
  452TIP3    H2 1363   1.746   1.620   1.400
  453TIP3   OH2 1364   4.509   2.417   2.821
  453TIP3    H1 1365   4.506   2.324   2.842
  453TIP3    H2 1366   4.430   2.433   2.770
  454TIP3   OH2 1367   5.570   3.448   0.541
  454TIP3    H1 1368   5.631   3.506   0.587
  454TIP3    H2 1369   5.484   3.470   0.576
  455TIP3   OH2 1370   5.524   3.985   3.821
  455TIP3    H1 1371   5.606   3.946   3.853
  455TIP3    H2 1372   5.505   4.055   3.883
  456TIP3   OH2 1373   6.369   3.250   2.979
  456TIP3    H1 1374   6.303   3.306   3.021
  456TIP3    H2 1375   6.333   3.162   2.986
  457TIP3   OH2 1376   5.494   2.981   1.300
  457TIP3    H1 1377   5.554   2.907   1.309
  457TIP3    H2 1378   5.434   2.972   1.374
  458TIP3   OH2 1379   2.127   2.443   2.599
  458TIP3    H1 1380   2.145   2.370   2.541
  458TIP3    H2 1381   2.031   2.449   2.601
  459TIP3   OH2 1382   0.197   3.976   5.038
  459TIP3    H1 1383   0.196   3.886   5.006
  459TIP3    H2 1384   0.106   4.005   5.033
  460TIP3   OH2 1385   0.541   5.043   0.492
  460TIP3    H1 1386   0.565   5.121   0.440
  460TIP3    H2 1387   0.479   5.076   0.556
  461TIP3   OH2 1388   3.571   1.472   4.673
  461TIP3    H1 1389   3.482   1.443   4.695
  461TIP3    H2 1390   3.628   1.406   4.713
  462TIP3   OH2 1391   1.391   3.757   4.954
  462TIP3    H1 1392   1.410   3.841   4.996
  462TIP3    H2 1393   1.423   3.767   4.864
  463TIP3   OH2 1394   3.103   4.097   0.467
  463TIP3    H1 1395   3.088   4.126   0.557
  463TIP3    H2 1396   3.198   4.097   0.457
  464TIP3   OH2 1397   1.573   1.819   3.589
  464TIP3    H1 1398   1.541   1.905   3.559
  464TIP3    H2 1399   1.493   1.770   3.608
  465TIP3   OH2 1400   5.753   5.023   0.157
  465TIP3    H1 1401   5.802   5.084   0.102
  465TIP3    H2 1402   5.812   5.001   0.229
  466TIP3   OH2 1403   6.190   3.256   2.395
  466TIP3    H1 1404   6.204   3.321   2.326
  466TIP3    H2 1405   6.216   3.173   2.355
  467TIP3   OH2 1406   3.081   2.966   4.213
  467TIP3    H1 1407   2.987   2.982   4.214
  467TIP3    H2 1408   3.089   2.871   4.221
  468TIP3   OH2 1409   6.285   4.278   0.827
  468TIP3    H1 1410   6.233   4.237   0.758
  468TIP3    H2 1411   6.221   4.299   0.896
  469TIP3   OH2 1412   1.565   5.816   3.469
  469TIP3    H1 1413   1.609   5.739   3.505
  469TIP3    H2 1414   1.602   5.889   3.517
  470TIP3   OH2 1415   5.391   4.436   1.889
  470TIP3    H1 1416   5.443   4.516   1.883
  470TIP3    H2 1417   5.327   4.444   1.818
  471TIP3   OH2 1418   4.098   1.516   4.889
  471TIP3    H1 1419   4.049   1.473   4.958
  471TIP3    H2 1420   4.044   1.592   4.865
  472TIP3   OH2 1421   3.797   0.536   5.009
  472TIP3    H1 1422   3.881   0.499   5.035
  472TIP3    H2 1423   3.732   0.482   5.053
  473TIP3   OH2 1424   4.875   1.143   0.425
  473TIP3    H1 1425   4.947   1.082   0.405
  473TIP3    H2 1426   4.815   1.134   0.351
  474TIP3   OH2 1427   1.906   4.043   2.831
  474TIP3    H1 1428   1.937   4.081   2.913
  474TIP3    H2 1429   1.966   4.077   2.765
  475TIP3   OH2 1430   1.155   3.849   1.768
  475TIP3    H1 1431   1.065   3.817   1.761
  475TIP3    H2 1432   1.185   3.818   1.854
  476TIP3   OH2 1433   2.605   3.874   1.949
  476TIP3    H1 1434   2.576   3.934   1.880
  476TIP3    H2 1435   2.680   3.828   1.910
  477TIP3   OH2 1436   0.603   5.763   2.356
  477TIP3    H1 1437   0.568   5.835   2.304
  477TIP3    H2 1438   0.635   5.804   2.436
  478TIP3   OH2 1439   3.118   4.237   0.718
  478TIP3    H1 1440   3.122   4.221   0.813
  478TIP3    H2 1441   3.194   4.291   0.699
  479TIP3   OH2 1442   3.195   2.962   3.951
  479TIP3    H1 1443   3.191   3.053   3.920
  479TIP3    H2 1444   3.155   2.964   4.037
  480TIP3   OH2 1445   5.708   0.551   0.751
  480TIP3    H1 1446   5.772   0.484   0.776
  480TIP3    H2 1447   5.760   0.624   0.719
  481TIP3   OH2 1448   0.991   5.092   1.323
  481TIP3    H1 1449   1.053   5.020   1.339
  481TIP3    H2 1450   0.906   5.055   1.347
  482TIP3   OH2 1451   3.211   1.837   2.902
  482TIP3    H1 1452   3.154   1.803   2.970
  482TIP3    H2 1453   3.196   1.781   2.826
  483TIP3   OH2 1454   1.276   1.497   1.271
  483TIP3    H1 1455   1.321   1.442   1.335
  483TIP3    H2 1456   1.184   1.476   1.282
  484TIP3   OH2 1457   5.657   0.296   3.873
  484TIP3    H1 1458   5.745   0.328   3.851
  484TIP3    H2 1459   5.598   0.356   3.827
  485TIP3   OH2 1460   2.099   5.491   1.323
  485TIP3    H1 1461   2.150   5.515   1.245
  485TIP3    H2 1462   2.008   5.497   1.294
  486TIP3   OH2 1463   3.360   4.078   0.416
  486TIP3    H1 1464   3.456   4.071   0.420
  486TIP3    H2 1465   3.343   4.128   0.336
  487TIP3   OH2 1466   1.644   1.936   2.344
  487TIP3    H1 1467   1.625   1.884   2.266
  487TIP3    H2 1468   1.648   1.872   2.415
  488TIP3   OH2 1469   4.054   5.022   0.054
  488TIP3    H1 1470   4.015   5.100   0.015
  488TIP3    H2 1471   3.996   5.000   0.127
  489TIP3   OH2 1472   0.524   5.107   5.080
  489TIP3    H1 1473   0.551   5.159   5.005
  489TIP3    H2 1474   0.581   5.137   5.152
  490TIP3   OH2 1475   0.815   2.996   4.136
  490TIP3    H1 1476   0.879   3.019   4.069
  490TIP3    H2 1477   0.758   3.073   4.142
  491TIP3   OH2 1478   2.410   4.193   2.057
  491TIP3    H1 1479   2.418   4.140   1.978
  491TIP3    H2 1480   2.345   4.147   2.110
  492TIP3   OH2 1481   1.597   4.139   0.875
  492TIP3    H1 1482   1.541   4.066   0.903
  492TIP3    H2 1483   1.604   4.194   0.953
  493TIP3   OH2 1484   2.511   4.202   0.442
  493TIP3    H1 1485   2.445   4.236   0.502
  493TIP3    H2 1486   2.549   4.127   0.488
  494TIP3   OH2 1487   1.063   4.591   1.187
  494TIP3    H1 1488   0.998   4.659   1.170
  494TIP3    H2 1489   1.097   4.568   1.101
  495TIP3   OH2 1490   4.693   4.342   0.056
  495TIP3    H1 1491   4.619   4.370   0.109
  495TIP3    H2 1492   4.756   4.306   0.118
  496TIP3   OH2 1493   1.797   0.604   4.052
  496TIP3    H1 1494   1.782   0.511   4.042
  496TIP3    H2 1495   1.710   0.641   4.068
  497TIP3   OH2 1496   2.258   1.938   3.443
  497TIP3    H1 1497   2.342   1.906   3.412
  497TIP3    H2 1498   2.264   1.933   3.538
  498TIP3   OH2 1499   1.391   4.374   3.684
  498TIP3    H1 1500   1.425   4.298   3.637
  498TIP3    H2 1501   1.404   4.352   3.777
  499TIP3   OH2 1502   1.255   2.388   3.800
  499TIP3    H1 1503   1.312   2.464   3.805
  499TIP3    H2 1504   1.182   2.409   3.859
  500TIP3   OH2 1505   6.292   2.572   0.937
  500TIP3    H1 1506   6.236   2.495   0.940
  500TIP3    H2 1507   6.378   2.540   0.965
  501TIP3   OH2 1508   5.631   4.887   3.526
  501TIP3    H1 1509   5.641   4.870   3.433
  501TIP3    H2 1510   5.710   4.934   3.551
  502TIP3   OH2 1511   3.861   1.865   3.365
  502TIP3    H1 1512   3.767   1.875   3.348
  502TIP3    H2 1513   3.868   1.871   3.461
  503TIP3   OH2 1514   6.220   4.966   4.307
  503TIP3    H1 1515   6.215   4.870   4.310
  503TIP3    H2 1516   6.313   4.984   4.292
  504TIP3   OH2 1517   5.717   5.324   0.818
  504TIP3    H1 1518   5.694   5.283   0.735
  504TIP3    H2 1519   5.692   5.416   0.807
  505TIP3   OH2 1520   0.464   0.147   1.893
  505TIP3    H1 1521   0.506   0.192   1.820
  505TIP3    H2 1522   0.483   0.054   1.879
  506TIP3   OH2 1523   0.024   3.397   4.778
  506TIP3    H1 1524   0.089   3.333   4.752
  506TIP3    H2 1525  -0.035   3.350   4.837
  507TIP3   OH2 1526   3.888   2.574   3.195
  507TIP3    H1 1527   3.961   2.590   3.135
  507TIP3    H2 1528   3.830   2.515   3.147
  508TIP3   OH2 1529   6.074   0.371   0.386
  508TIP3    H1 1530   6.049   0.278   0.390
  508TIP3    H2 1531   5.993   0.416   0.366
  509TIP3   OH2 1532   0.234   5.961   1.398
  509TIP3    H1 1533   0.323   5.926   1.394
  509TIP3    H2 1534   0.189   5.920   1.324
  510TIP3   OH2 1535   3.526   5.606   0.520
  510TIP3    H1 1536   3.486   5.647   0.444
  510TIP3    H2 1537   3.619   5.629   0.514
  511TIP3   OH2 1538   2.162   1.208   4.552
  511TIP3    H1 1539   2.249   1.179   4.528
  511TIP3    H2 1540   2.164   1.303   4.541
  512TIP3   OH2 1541   3.384   2.540   4.324
  512TIP3    H1 1542   3.384   2.475   4.254
  512TIP3    H2 1543   3.477   2.550   4.348
  513TIP3   OH2 1544   2.005   1.013   2.845
  513TIP3    H1 1545   2.016   1.054   2.759
  513TIP3    H2 1546   1.914   0.982   2.846
  514TIP3   OH2 1547   3.345   3.435   3.893
  514TIP3    H1 1548   3.275   3.387   3.848
  514TIP3    H2 1549   3.420   3.376   3.891
  515TIP3   OH2 1550   4.007   3.401   1.977
  515TIP3    H1 1551   4.038   3.316   2.010
  515TIP3    H2 1552   3.966   3.380   1.893
  516TIP3   OH2 1553   2.759   3.141   1.556
  516TIP3    H1 1554   2.702   3.204   1.600
  516TIP3    H2 1555   2.736   3.147   1.464
  517TIP3   OH2 1556   2.953   0.804   1.626
  517TIP3    H1 1557   2.916   0.892   1.628
  517TIP3    H2 1558   3.046   0.817   1.645
  518TIP3   OH2 1559   3.520   5.083   3.863
  518TIP3    H1 1560   3.544   5.160   3.810
  518TIP3    H2 1561   3.600   5.030   3.865
  519TIP3   OH2 1562   5.180   0.734   0.613
  519TIP3    H1 1563   5.145   0.782   0.687
  519TIP3    H2 1564   5.150   0.644   0.625
  520TIP3   OH2 1565   0.995   5.224   0.677
  520TIP3    H1 1566   1.001   5.256   0.586
  520TIP3    H2 1567   0.902   5.213   0.693
  521TIP3   OH2 1568   1.225   3.204   0.877
  521TIP3    H1 1569   1.224   3.281   0.821
  521TIP3    H2 1570   1.189   3.234   0.960
  522TIP3   OH2 1571   5.617   4.481   4.066
  522TIP3    H1 1572   5.686   4.537   4.031
  522TIP3    H2 1573   5.539   4.536   4.066
  523TIP3   OH2 1574   1.533   0.727   4.311
  523TIP3    H1 1575   1.505   0.691   4.227
  523TIP3    H2 1576   1.627   0.741   4.302
  524TIP3   OH2 1577   5.155   3.205   1.365
  524TIP3    H1 1578   5.138   3.133   1.426
  524TIP3    H2 1579   5.115   3.177   1.282
  525TIP3   OH2 1580   0.630   0.422   0.296
  525TIP3    H1 1581   0.565   0.363   0.333
  525TIP3    H2 1582   0.588   0.508   0.298
  526TIP3   OH2 1583   4.108   3.734   5.122
  526TIP3    H1 1584   4.061   3.651   5.117
  526TIP3    H2 1585   4.197   3.713   5.093
  527TIP3   OH2 1586   4.440   2.211   3.022
  527TIP3    H1 1587   4.360   2.258   3.044
  527TIP3    H2 1588   4.510   2.275   3.037
  528TIP3   OH2 1589   3.827   5.607   1.593
  528TIP3    H1 1590   3.876   5.678   1.552
  528TIP3    H2 1591   3.893   5.540   1.612
  529TIP3   OH2 1592   0.635   2.666   0.910
  529TIP3    H1 1593   0.704   2.720   0.950
  529TIP3    H2 1594   0.565   2.727   0.889
  530TIP3   OH2 1595   3.134   3.811   4.738
  530TIP3    H1 1596   3.225   3.823   4.767
  530TIP3    H2 1597   3.115   3.720   4.759
  531TIP3   OH2 1598   3.919   3.184   4.608
  531TIP3    H1 1599   3.885   3.137   4.684
  531TIP3    H2 1600   3.868   3.152   4.534
  532TIP3   OH2 1601   3.994   5.960   2.074
  532TIP3    H1 1602   4.021   5.974   1.983
  532TIP3    H2 1603   3.911   5.912   2.067
  533TIP3   OH2 1604   2.131   3.180   1.307
  533TIP3    H1 1605   2.211   3.128   1.321
  533TIP3    H2 1606   2.101   3.201   1.395
  534TIP3   OH2 1607   0.317   4.657   4.126
  534TIP3    H1 1608   0.411   4.674   4.123
  534TIP3    H2 1609   0.306   4.602   4.203
  535TIP3   OH2 1610   3.970   5.629   4.369
  535TIP3    H1 1611   4.030   5.605   4.440
  535TIP3    H2 1612   3.968   5.551   4.313
  536TIP3   OH2 1613   0.862   2.431   4.745
  536TIP3    H1 1614   0.847   2.369   4.816
  536TIP3    H2 1615   0.808   2.399   4.672
  537TIP3   OH2 1616   5.128   4.364   1.613
  537TIP3    H1 1617   5.035   4.344   1.606
  537TIP3    H2 1618   5.168   4.280   1.639
  538TIP3   OH2 1619   4.180   2.483   4.681
  538TIP3    H1 1620   4.263   2.443   4.656
  538TIP3    H2 1621   4.139   2.509   4.599
  539TIP3   OH2 1622   3.093   0.806   0.434
  539TIP3    H1 1623   3.105   0.778   0.525
  539TIP3    H2 1624   3.103   0.901   0.436
  540TIP3   OH2 1625   4.042   5.750   3.685
  540TIP3    H1 1626   4.010   5.758   3.594
  540TIP3    H2 1627   4.063   5.840   3.710
  541TIP3   OH2 1628   3.946   4.839   2.859
  541TIP3    H1 1629   3.973   4.911   2.801
  541TIP3    H2 1630   4.028   4.798   2.885
  542TIP3   OH2 1631   2.726   1.732   0.922
  542TIP3    H1 1632   2.691   1.803   0.976
  542TIP3    H2 1633   2.816   1.758   0.903
  543TIP3   OH2 1634   3.205   2.093   3.251
  543TIP3    H1 1635   3.127   2.127   3.294
  543TIP3    H2 1636   3.237   2.024   3.309
  544TIP3   OH2 1637   2.302   4.878   5.083
  544TIP3    H1 1638   2.265   4.791   5.095
  544TIP3    H2 1639   2.389   4.862   5.046
  545TIP3   OH2 1640   6.275   5.559   1.073
  545TIP3    H1 1641   6.299   5.604   1.154
  545TIP3    H2 1642   6.345   5.495   1.059
  546TIP3   OH2 1643   1.319   3.995   3.801
  546TIP3    H1 1644   1.258   4.057   3.842
  546TIP3    H2 1645   1.405   4.021   3.834
  547TIP3   OH2 1646   3.709   1.242   3.483
  547TIP3    H1 1647   3.780   1.179   3.470
  547TIP3    H2 1648   3.656   1.203   3.553
  548TIP3   OH2 1649   5.469   0.502   0.166
  548TIP3    H1 1650   5.474   0.464   0.253
  548TIP3    H2 1651   5.483   0.596   0.180
  549TIP3   OH2 1652   4.599   3.840   1.216
  549TIP3    H1 1653   4.547   3.850   1.136
  549TIP3    H2 1654   4.558   3.766   1.262
  550TIP3   OH2 1655   1.437   3.482   0.952
  550TIP3    H1 1656   1.378   3.442   0.889
  550TIP3    H2 1657   1.424   3.434   1.033
  551TIP3   OH2 1658   0.101   2.551   1.609
  551TIP3    H1 1659   0.120   2.632   1.562
  551TIP3    H2 1660   0.155   2.557   1.688
  552TIP3   OH2 1661   0.554   1.023   0.021
  552TIP3    H1 1662   0.605   0.982  -0.049
  552TIP3    H2 1663   0.463   1.019  -0.010
  553TIP3   OH2 1664   5.808   3.206   0.330
  553TIP3    H1 1665   5.793   3.183   0.239
  553TIP3    H2 1666   5.875   3.144   0.360
  554TIP3   OH2 1667   0.815   1.580   0.552
  554TIP3    H1 1668   0.906   1.574   0.523
  554TIP3    H2 1669   0.764   1.549   0.477
  555TIP3   OH2 1670   3.526   4.559   0.075
  555TIP3    H1 1671   3.504   4.636   0.023
  555TIP3    H2 1672   3.480   4.487   0.033
  556TIP3   OH2 1673   0.276   3.889   4.338
  556TIP3    H1 1674   0.328   3.890   4.418
  556TIP3    H2 1675   0.214   3.961   4.349
  557TIP3   OH2 1676   1.269   4.623   4.600
  557TIP3    H1 1677   1.218   4.698   4.627
  557TIP3    H2 1678   1.214   4.578   4.536
  558TIP3   OH2 1679   4.153   3.257   4.134
  558TIP3    H1 1680   4.064   3.230   4.111
  558TIP3    H2 1681   4.208   3.218   4.066
  559TIP3   OH2 1682   4.174   2.572   4.394
  559TIP3    H1 1683   4.267   2.593   4.386
  559TIP3    H2 1684   4.160   2.500   4.333
  560TIP3   OH2 1685   5.076   5.410   3.426
  560TIP3    H1 1686   5.096   5.377   3.514
  560TIP3    H2 1687   5.067   5.331   3.373
  561TIP3   OH2 1688   0.224   1.430   3.942
  561TIP3    H1 1689   0.296   1.370   3.963
  561TIP3    H2 1690   0.211   1.481   4.022
  562TIP3   OH2 1691   0.746   1.235   2.423
  562TIP3    H1 1692   0.797   1.218   2.503
  562TIP3    H2 1693   0.797   1.193   2.353
  563TIP3   OH2 1694   1.172   4.110   1.720
  563TIP3    H1 1695   1.098   4.166   1.742
  563TIP3    H2 1696   1.159   4.032   1.774
  564TIP3   OH2 1697   2.481   2.504   1.672
  564TIP3    H1 1698   2.505   2.541   1.756
  564TIP3    H2 1699   2.425   2.571   1.631
  565TIP3   OH2 1700   0.051   0.736   0.442
  565TIP3    H1 1701  -0.014   0.785   0.392
  565TIP3    H2 1702   0.022   0.645   0.436
  566TIP3   OH2 1703   2.462   3.244   2.099
  566TIP3    H1 1704   2.534   3.303   2.122
  566TIP3    H2 1705   2.480   3.164   2.148
  567TIP3   OH2 1706   1.995   0.253   2.150
  567TIP3    H1 1707   1.991   0.244   2.055
  567TIP3    H2 1708   1.924   0.313   2.172
  568TIP3   OH2 1709   1.517   4.063   3.070
  568TIP3    H1 1710   1.515   4.147   3.115
  568TIP3    H2 1711   1.455   4.008   3.119
  569TIP3   OH2 1712   4.050   0.246   1.873
  569TIP3    H1 1713   4.080   0.202   1.793
  569TIP3    H2 1714   4.027   0.174   1.932
  570TIP3   OH2 1715   0.994   4.832   3.077
  570TIP3    H1 1716   0.996   4.779   2.998
  570TIP3    H2 1717   1.067   4.800   3.130
  571TIP3   OH2 1718   2.735   0.297   1.729
  571TIP3    H1 1719   2.800   0.289   1.659
  571TIP3    H2 1720   2.787   0.321   1.806
  572TIP3   OH2 1721   5.058   4.801   0.673
  572TIP3    H1 1722   5.033   4.849   0.751
  572TIP3    H2 1723   5.115   4.861   0.624
  573TIP3   OH2 1724   1.307   5.894   1.232
  573TIP3    H1 1725   1.328   5.801   1.245
  573TIP3    H2 1726   1.214   5.896   1.213
  574TIP3   OH2 1727   0.620   0.381   4.236
  574TIP3    H1 1728   0.646   0.471   4.220
  574TIP3    H2 1729   0.666   0.356   4.316
  575TIP3   OH2 1730   5.294   3.900   2.731
  575TIP3    H1 1731   5.205   3.884   2.763
  575TIP3    H2 1732   5.348   3.907   2.810
  576TIP3   OH2 1733   1.665   3.074   2.912
  576TIP3    H1 1734   1.598   3.112   2.969
  576TIP3    H2 1735   1.620   3.001   2.869
  577TIP3   OH2 1736   2.416   2.107   0.373
  577TIP3    H1 1737   2.464   2.155   0.306
  577TIP3    H2 1738   2.359   2.172   0.414
  578TIP3   OH2 1739   0.920   1.605   3.976
  578TIP3    H1 1740   0.940   1.690   4.015
  578TIP3    H2 1741   0.830   1.586   4.002
  579TIP3   OH2 1742   2.386   3.965   0.553
  579TIP3    H1 1743   2.325   3.930   0.489
  579TIP3    H2 1744   2.332   4.020   0.611
  580TIP3   OH2 1745   0.723   4.391   4.087
  580TIP3    H1 1746   0.731   4.388   3.992
  580TIP3    H2 1747   0.813   4.386   4.119
  581TIP3   OH2 1748   3.181   5.957   3.280
  581TIP3    H1 1749   3.105   5.911   3.243
  581TIP3    H2 1750   3.185   5.926   3.371
  582TIP3   OH2 1751   5.594   2.986   2.807
  582TIP3    H1 1752   5.674   3.022   2.771
  582TIP3    H2 1753   5.603   2.891   2.795
  583TIP3   OH2 1754   3.199   5.639   5.141
  583TIP3    H1 1755   3.130   5.647   5.206
  583TIP3    H2 1756   3.267   5.587   5.185
  584TIP3   OH2 1757   2.889   1.524   2.473
  584TIP3    H1 1758   2.811   1.556   2.427
  584TIP3    H2 1759   2.855   1.466   2.541
  585TIP3   OH2 1760   3.359   0.314   4.915
  585TIP3    H1 1761   3.438   0.359   4.945
  585TIP3    H2 1762   3.379   0.221   4.927
  586TIP3   OH2 1763   3.456   1.467   1.927
  586TIP3    H1 1764   3.409   1.403   1.980
  586TIP3    H2 1765   3.548   1.449   1.944
  587TIP3   OH2 1766   3.894   2.143   2.316
  587TIP3    H1 1767   3.990   2.142   2.320
  587TIP3    H2 1768   3.874   2.145   2.222
  588TIP3   OH2 1769   4.304   5.065   4.944
  588TIP3    H1 1770   4.274   5.073   5.034
  588TIP3    H2 1771   4.395   5.096   4.946
  589TIP3   OH2 1772   5.140   3.086   4.180
  589TIP3    H1 1773   5.216   3.046   4.138
  589TIP3    H2 1774   5.077   3.015   4.188
  590TIP3   OH2 1775   5.819   1.008   4.226
  590TIP3    H1 1776   5.727   1.008   4.252
  590TIP3    H2 1777   5.850   1.096   4.245
  591TIP3   OH2 1778   3.403   4.469   0.317
  591TIP3    H1 1779   3.410   4.403   0.247
  591TIP3    H2 1780   3.493   4.498   0.332
  592TIP3   OH2 1781   1.003   2.985   1.667
  592TIP3    H1 1782   0.981   2.901   1.709
  592TIP3    H2 1783   0.926   3.007   1.615
  593TIP3   OH2 1784   3.241   3.566   1.833
  593TIP3    H1 1785   3.250   3.616   1.752
  593TIP3    H2 1786   3.147   3.551   1.842
  594TIP3   OH2 1787   2.106   1.664   4.289
  594TIP3    H1 1788   2.192   1.640   4.322
  594TIP3    H2 1789   2.124   1.727   4.220
  595TIP3   OH2 1790   1.603   2.782   2.457
  595TIP3    H1 1791   1.597   2.726   2.534
  595TIP3    H2 1792   1.593   2.721   2.383
  596TIP3   OH2 1793   1.135   3.919   2.255
  596TIP3    H1 1794   1.220   3.933   2.297
  596TIP3    H2 1795   1.096   3.846   2.303
  597TIP3   OH2 1796   5.726   2.949   0.905
  597TIP3    H1 1797   5.708   3.043   0.903
  597TIP3    H2 1798   5.769   2.935   0.989
  598TIP3   OH2 1799   3.631   4.715   2.173
  598TIP3    H1 1800   3.697   4.648   2.156
  598TIP3    H2 1801   3.593   4.734   2.087
  599TIP3   OH2 1802   3.927   2.018   5.187
  599TIP3    H1 1803   3.846   2.041   5.141
  599TIP3    H2 1804   3.925   1.922   5.191
  600TIP3   OH2 1805   3.533   4.251   3.115
  600TIP3    H1 1806   3.452   4.238   3.065
  600TIP3    H2 1807   3.571   4.332   3.079
  601TIP3   OH2 1808   5.262   4.007   3.688
  601TIP3    H1 1809   5.241   4.100   3.673
  601TIP3    H2 1810   5.345   4.008   3.735
  602TIP3   OH2 1811   1.362   4.687   3.121
  602TIP3    H1 1812   1.310   4.610   3.143
  602TIP3    H2 1813   1.402   4.666   3.036
  603TIP3   OH2 1814   3.822   4.969   4.533
  603TIP3    H1 1815   3.744   5.024   4.543
  603TIP3    H2 1816   3.813   4.930   4.446
  604TIP3   OH2 1817   0.519   3.456   1.262
  604TIP3    H1 1818   0.506   3.365   1.289
  604TIP3    H2 1819   0.611   3.474   1.282
  605TIP3   OH2 1820   4.216   0.921   2.513
  605TIP3    H1 1821   4.265   0.890   2.437
  605TIP3    H2 1822   4.245   0.865   2.585
  606TIP3   OH2 1823   0.207   1.984   2.934
  606TIP3    H1 1824   0.298   2.011   2.942
  606TIP3    H2 1825   0.191   1.982   2.839
  607TIP3   OH2 1826   1.337   4.224   4.719
  607TIP3    H1 1827   1.384   4.288   4.773
  607TIP3    H2 1828   1.251   4.216   4.760
  608TIP3   OH2 1829   4.615   3.106   3.127
  608TIP3    H1 1830   4.589   3.014   3.133
  608TIP3    H2 1831   4.659   3.123   3.211
  609TIP3   OH2 1832   1.968   3.576   1.378
  609TIP3    H1 1833   2.037   3.512   1.361
  609TIP3    H2 1834   2.015   3.658   1.394
  610TIP3   OH2 1835   1.628   5.471   4.574
  610TIP3    H1 1836   1.606   5.460   4.666
  610TIP3    H2 1837   1.720   5.498   4.574
  611TIP3   OH2 1838   5.368   0.794   2.253
  611TIP3    H1 1839   5.346   0.801   2.346
  611TIP3    H2 1840   5.301   0.846   2.208
  612TIP3   OH2 1841   0.372   2.970   2.167
  612TIP3    H1 1842   0.338   2.969   2.256
  612TIP3    H2 1843   0.460   3.006   2.176
  613TIP3   OH2 1844   4.137   2.901   0.568
  613TIP3    H1 1845   4.086   2.982   0.564
  613TIP3    H2 1846   4.142   2.871   0.477
  614TIP3   OH2 1847   1.058   4.238   2.538
  614TIP3    H1 1848   0.979   4.193   2.566
  614TIP3    H2 1849   1.129   4.190   2.581
  615TIP3   OH2 1850   2.313   2.534   2.839
  615TIP3    H1 1851   2.367   2.613   2.835
  615TIP3    H2 1852   2.311   2.502   2.749
  616TIP3   OH2 1853   3.586   5.566   1.782
  616TIP3    H1 1854   3.538   5.642   1.814
  616TIP3    H2 1855   3.641   5.600   1.711
  617TIP3   OH2 1856   3.255   0.157   0.537
  617TIP3    H1 1857   3.194   0.205   0.481
  617TIP3    H2 1858   3.324   0.128   0.478
  618TIP3   OH2 1859   1.724   1.901   1.049
  618TIP3    H1 1860   1.766   1.984   1.072
  618TIP3    H2 1861   1.794   1.848   1.012
  619TIP3   OH2 1862   4.271   4.373   4.109
  619TIP3    H1 1863   4.324   4.300   4.140
  619TIP3    H2 1864   4.183   4.356   4.143
  620TIP3   OH2 1865   0.424   4.483   3.120
  620TIP3    H1 1866   0.450   4.562   3.073
  620TIP3    H2 1867   0.329   4.488   3.125
  621TIP3   OH2 1868   2.910   1.564   4.718
  621TIP3    H1 1869   2.816   1.565   4.699
  621TIP3    H2 1870   2.938   1.654   4.703
  622TIP3   OH2 1871   3.141   4.058   2.609
  622TIP3    H1 1872   3.195   4.080   2.685
  622TIP3    H2 1873   3.055   4.095   2.629
  623TIP3   OH2 1874   1.826   2.460   0.905
  623TIP3    H1 1875   1.799   2.368   0.911
  623TIP3    H2 1876   1.919   2.456   0.881
  624TIP3   OH2 1877   5.846   0.055   1.055
  624TIP3    H1 1878   5.826   0.146   1.077
  624TIP3    H2 1879   5.926   0.060   1.002
  625TIP3   OH2 1880   6.276   4.152   2.066
  625TIP3    H1 1881   6.236   4.066   2.051
  625TIP3    H2 1882   6.211   4.201   2.115
  626TIP3   OH2 1883   2.673   5.577   3.475
  626TIP3    H1 1884   2.732   5.545   3.544
  626TIP3    H2 1885   2.635   5.657   3.511
  627TIP3   OH2 1886   5.447   5.763   2.465
  627TIP3    H1 1887   5.378   5.803   2.412
  627TIP3    H2 1888   5.445   5.671   2.442
  628TIP3   OH2 1889   3.879   0.405   3.968
  628TIP3    H1 1890   3.916   0.318   3.955
  628TIP3    H2 1891   3.954   0.462   3.983
  629TIP3   OH2 1892   2.326   3.107   4.758
  629TIP3    H1 1893   2.377   3.146   4.687
  629TIP3    H2 1894   2.236   3.106   4.724
  630TIP3   OH2 1895   2.299   1.912   1.119
  630TIP3    H1 1896   2.324   1.827   1.155
  630TIP3    H2 1897   2.277   1.895   1.028
  631TIP3   OH2 1898   1.549   3.561   2.811
  631TIP3    H1 1899   1.508   3.640   2.776
  631TIP3    H2 1900   1.630   3.552   2.761
  632TIP3   OH2 1901   1.073   1.898   2.094
  632TIP3    H1 1902   1.125   1.926   2.019
  632TIP3    H2 1903   1.017   1.829   2.060
  633TIP3   OH2 1904   2.152   4.834   4.241
  633TIP3    H1 1905   2.089   4.839   4.313
  633TIP3    H2 1906   2.098   4.816   4.164
  634TIP3   OH2 1907   4.053   3.478   0.293
  634TIP3    H1 1908   4.046   3.556   0.348
  634TIP3    H2 1909   4.110   3.505   0.221
  635TIP3   OH2 1910   0.275   1.843   3.503
  635TIP3    H1 1911   0.273   1.865   3.410
  635TIP3    H2 1912   0.212   1.771   3.512
  636TIP3   OH2 1913   4.661   3.599   4.484
  636TIP3    H1 1914   4.743   3.602   4.534
  636TIP3    H2 1915   4.593   3.608   4.551
  637TIP3   OH2 1916   0.400   0.340   4.444
  637TIP3    H1 1917   0.432   0.403   4.380
  637TIP3    H2 1918   0.311   0.370   4.464
  638TIP3   OH2 1919   5.925   4.220   2.720
  638TIP3    H1 1920   5.834   4.235   2.695
  638TIP3    H2 1921   5.935   4.125   2.717
  639TIP3   OH2 1922   1.550   6.037   2.269
  639TIP3    H1 1923   1.564   5.945   2.292
  639TIP3    H2 1924   1.591   6.085   2.341
  640TIP3   OH2 1925   4.993   0.522   2.978
  640TIP3    H1 1926   4.943   0.535   2.898
  640TIP3    H2 1927   4.936   0.554   3.048
  641TIP3   OH2 1928   2.063   3.434   2.569
  641TIP3    H1 1929   2.077   3.528   2.585
  641TIP3    H2 1930   2.039   3.399   2.654
  642TIP3   OH2 1931   4.975   1.975   4.827
  642TIP3    H1 1932   4.899   1.975   4.769
  642TIP3    H2 1933   5.045   1.935   4.776
  643TIP3   OH2 1934   5.471   2.844   4.401
  643TIP3    H1 1935   5.551   2.792   4.393
  643TIP3    H2 1936   5.458   2.853   4.496
  644TIP3   OH2 1937   6.044   3.374   2.762
  644TIP3    H1 1938   6.121   3.431   2.760
  644TIP3    H2 1939   6.008   3.385   2.850
  645TIP3   OH2 1940   3.631   2.216   3.298
  645TIP3    H1 1941   3.583   2.190   3.377
  645TIP3    H2 1942   3.619   2.143   3.238
  646TIP3   OH2 1943   2.432   0.762   0.506
  646TIP3    H1 1944   2.487   0.692   0.470
  646TIP3    H2 1945   2.381   0.793   0.431
  647TIP3   OH2 1946   5.453   0.460   3.678
  647TIP3    H1 1947   5.390   0.497   3.616
  647TIP3    H2 1948   5.399   0.407   3.737
  648TIP3   OH2 1949   0.727   1.784   4.078
  648TIP3    H1 1950   0.674   1.843   4.131
  648TIP3    H2 1951   0.812   1.828   4.070
  649TIP3   OH2 1952   3.575   2.526   4.598
  649TIP3    H1 1953   3.496   2.483   4.565
  649TIP3    H2 1954   3.616   2.461   4.655
  650TIP3   OH2 1955   2.740   1.213   2.250
  650TIP3    H1 1956   2.704   1.256   2.172
  650TIP3    H2 1957   2.835   1.217   2.238
  651TIP3   OH2 1958   4.116   4.581   5.035
  651TIP3    H1 1959   4.087   4.671   5.028
  651TIP3    H2 1960   4.039   4.533   5.068
  652TIP3   OH2 1961   3.688   3.919   0.948
  652TIP3    H1 1962   3.676   3.913   1.043
  652TIP3    H2 1963   3.599   3.931   0.913
  653TIP3   OH2 1964   2.111   3.884   4.101
  653TIP3    H1 1965   2.038   3.896   4.040
  653TIP3    H2 1966   2.158   3.968   4.099
  654TIP3   OH2 1967   2.404   0.216   1.029
  654TIP3    H1 1968   2.444   0.130   1.044
  654TIP3    H2 1969   2.460   0.277   1.077
  655TIP3   OH2 1970   1.809   3.219   1.382
  655TIP3    H1 1971   1.873   3.233   1.452
  655TIP3    H2 1972   1.794   3.124   1.382
  656TIP3   OH2 1973   4.499   1.259   1.112
  656TIP3    H1 1974   4.588   1.246   1.145
  656TIP3    H2 1975   4.493   1.353   1.097
  657TIP3   OH2 1976   6.030   2.152   0.281
  657TIP3    H1 1977   6.016   2.205   0.202
  657TIP3    H2 1978   5.969   2.079   0.272
  658TIP3   OH2 1979   2.566   3.977   0.052
  658TIP3    H1 1980   2.638   4.012  -0.001
  658TIP3    H2 1981   2.506   4.050   0.065
  659TIP3   OH2 1982   2.282   3.592   2.070
  659TIP3    H1 1983   2.289   3.673   2.019
  659TIP3    H2 1984   2.370   3.553   2.066
  660TIP3   OH2 1985   1.661   5.929   2.664
  660TIP3    H1 1986   1.623   6.017   2.663
  660TIP3    H2 1987   1.587   5.871   2.679
  661TIP3   OH2 1988   0.103   5.657   0.016
  661TIP3    H1 1989   0.027   5.632   0.069
  661TIP3    H2 1990   0.176   5.607   0.054
  662TIP3   OH2 1991   4.388   1.033   5.159
  662TIP3    H1 1992   4.369   1.105   5.099
  662TIP3    H2 1993   4.461   1.064   5.212
  663TIP3   OH2 1994   5.352   1.957   3.388
  663TIP3    H1 1995   5.291   1.984   3.319
  663TIP3    H2 1996   5.339   1.863   3.396
  664TIP3   OH2 1997   0.448   4.362   2.536
  664TIP3    H1 1998   0.402   4.393   2.459
  664TIP3    H2 1999   0.500   4.437   2.565
  665TIP3   OH2 2000   5.462   3.156   1.798
  665TIP3    H1 2001   5.408   3.234   1.809
  665TIP3    H2 2002   5.455   3.111   1.882
  666TIP3   OH2 2003   5.278   2.893   3.868
  666TIP3    H1 2004   5.255   2.889   3.961
  666TIP3    H2 2005   5.347   2.960   3.864
  667TIP3   OH2 2006   0.458   2.695   0.478
  667TIP3    H1 2007   0.390   2.628   0.468
  667TIP3    H2 2008   0.488   2.684   0.568
  668TIP3   OH2 2009   4.883   0.891   3.807
  668TIP3    H1 2010   4.842   0.969   3.768
  668TIP3    H2 2011   4.953   0.926   3.862
  669TIP3   OH2 2012   6.220   0.216   4.423
  669TIP3    H1 2013   6.129   0.200   4.447
  669TIP3    H2 2014   6.254   0.131   4.397
  670TIP3   OH2 2015   5.049   3.286   3.827
  670TIP3    H1 2016   5.014   3.197   3.824
  670TIP3    H2 2017   4.972   3.342   3.827
  671TIP3   OH2 2018   4.556   2.073   4.915
  671TIP3    H1 2019   4.477   2.040   4.957
  671TIP3    H2 2020   4.591   2.139   4.975
  672TIP3   OH2 2021   4.236   0.436   5.109
  672TIP3    H1 2022   4.224   0.474   5.196
  672TIP3    H2 2023   4.153   0.391   5.090
  673TIP3   OH2 2024   6.003   3.979   1.080
  673TIP3    H1 2025   5.987   4.052   1.140
  673TIP3    H2 2026   6.023   4.020   0.997
  674TIP3   OH2 2027   1.809   5.024   5.118
  674TIP3    H1 2028   1.770   4.946   5.157
  674TIP3    H2 2029   1.812   5.006   5.025
  675TIP3   OH2 2030   5.106   0.995   3.552
  675TIP3    H1 2031   5.013   1.011   3.571
  675TIP3    H2 2032   5.114   1.009   3.458
  676TIP3   OH2 2033   4.955   0.297   4.728
  676TIP3    H1 2034   5.047   0.323   4.736
  676TIP3    H2 2035   4.918   0.361   4.667
  677TIP3   OH2 2036   2.742   2.583   3.618
  677TIP3    H1 2037   2.828   2.613   3.588
  677TIP3    H2 2038   2.708   2.529   3.547
  678TIP3   OH2 2039   0.056   2.086   2.167
  678TIP3    H1 2040   0.033   2.178   2.155
  678TIP3    H2 2041  -0.029   2.042   2.175
  679TIP3   OH2 2042   1.514   4.779   4.104
  679TIP3    H1 2043   1.521   4.874   4.109
  679TIP3    H2 2044   1.585   4.746   4.159
  680TIP3   OH2 2045   2.737   0.349   3.894
  680TIP3    H1 2046   2.732   0.343   3.989
  680TIP3    H2 2047   2.827   0.375   3.876
  681TIP3   OH2 2048   1.456   1.355   2.582
  681TIP3    H1 2049   1.504   1.410   2.645
  681TIP3    H2 2050   1.494   1.378   2.497
  682TIP3   OH2 2051   2.435   3.439   0.676
  682TIP3    H1 2052   2.398   3.527   0.662
  682TIP3    H2 2053   2.417   3.393   0.594
  683TIP3   OH2 2054   0.560   4.290   4.935
  683TIP3    H1 2055   0.515   4.206   4.951
  683TIP3    H2 2056   0.586   4.320   5.022
  684TIP3   OH2 2057   4.809   2.814   3.778
  684TIP3    H1 2058   4.808   2.774   3.865
  684TIP3    H2 2059   4.832   2.743   3.719
  685TIP3   OH2 2060   2.733   0.148   1.973
  685TIP3    H1 2061   2.813   0.123   1.928
  685TIP3    H2 2062   2.663   0.137   1.909
  686TIP3   OH2 2063   5.688   1.656   0.139
  686TIP3    H1 2064   5.610   1.684   0.186
  686TIP3    H2 2065   5.739   1.608   0.203
  687TIP3   OH2 2066   4.874   4.886   2.841
  687TIP3    H1 2067   4.812   4.928   2.900
  687TIP3    H2 2068   4.921   4.959   2.800
  688TIP3   OH2 2069   5.071   2.980   3.206
  688TIP3    H1 2070   5.071   3.002   3.299
  688TIP3    H2 2071   4.986   2.938   3.191
  689TIP3   OH2 2072   1.167   0.411   1.798
  689TIP3    H1 2073   1.137   0.482   1.856
  689TIP3    H2 2074   1.164   0.333   1.853
  690TIP3   OH2 2075   3.023   3.601   2.731
  690TIP3    H1 2076   2.992   3.632   2.645
  690TIP3    H2 2077   3.010   3.507   2.728
  691TIP3   OH2 2078   3.898   2.548   2.773
  691TIP3    H1 2079   3.970   2.602   2.805
  691TIP3    H2 2080   3.939   2.488   2.711
  692TIP3   OH2 2081   1.870   4.771   3.070
  692TIP3    H1 2082   1.831   4.787   3.156
  692TIP3    H2 2083   1.947   4.828   3.068
  693TIP3   OH2 2084   2.363   1.941   1.393
  693TIP3    H1 2085   2.383   1.997   1.318
  693TIP3    H2 2086   2.290   1.887   1.364
  694TIP3   OH2 2087   0.684   0.142   4.143
  694TIP3    H1 2088   0.607   0.087   4.128
  694TIP3    H2 2089   0.647   0.229   4.159
  695TIP3   OH2 2090   2.539   5.937   3.885
  695TIP3    H1 2091   2.501   5.921   3.971
  695TIP3    H2 2092   2.632   5.917   3.895
  696TIP3   OH2 2093   1.602   2.717   3.905
  696TIP3    H1 2094   1.668   2.768   3.859
  696TIP3    H2 2095   1.637   2.628   3.908
  697TIP3   OH2 2096   5.959   2.713   2.515
  697TIP3    H1 2097   5.984   2.653   2.585
  697TIP3    H2 2098   5.958   2.659   2.436
  698TIP3   OH2 2099   2.007   5.365   2.804
  698TIP3    H1 2100   1.994   5.428   2.733
  698TIP3    H2 2101   1.918   5.346   2.834
  699TIP3   OH2 2102   2.252   5.674   0.237
  699TIP3    H1 2103   2.290   5.592   0.267
  699TIP3    H2 2104   2.321   5.715   0.185
  700TIP3   OH2 2105   3.438   5.402   0.172
  700TIP3    H1 2106   3.505   5.363   0.228
  700TIP3    H2 2107   3.380   5.330   0.150
  701TIP3   OH2 2108   0.460   3.367   4.411
  701TIP3    H1 2109   0.491   3.276   4.410
  701TIP3    H2 2110   0.365   3.359   4.398
  702TIP3   OH2 2111   1.614   0.306   1.959
  702TIP3    H1 2112   1.591   0.369   2.027
  702TIP3    H2 2113   1.550   0.320   1.889
  703TIP3   OH2 2114   1.384   0.027   2.017
  703TIP3    H1 2115   1.354  -0.026   2.090
  703TIP3    H2 2116   1.444  -0.031   1.968
  704TIP3   OH2 2117   2.959   5.356   3.264
  704TIP3    H1 2118   2.985   5.444   3.290
  704TIP3    H2 2119   2.870   5.366   3.231
  705TIP3   OH2 2120   3.892   5.786   2.643
  705TIP3    H1 2121   3.985   5.783   2.622
  705TIP3    H2 2122   3.889   5.781   2.739
  706TIP3   OH2 2123   1.223   4.509   2.532
  706TIP3    H1 2124   1.147   4.453   2.518
  706TIP3    H2 2125   1.276   4.463   2.597
  707TIP3   OH2 2126   3.914   1.307   4.322
  707TIP3    H1 2127   3.917   1.311   4.227
  707TIP3    H2 2128   3.825   1.276   4.341
  708TIP3   OH2 2129   4.665   0.825   2.276
  708TIP3    H1 2130   4.739   0.860   2.227
  708TIP3    H2 2131   4.649   0.739   2.236
  709TIP3   OH2 2132   5.257   3.906   0.723
  709TIP3    H1 2133   5.213   3.823   0.707
  709TIP3    H2 2134   5.270   3.909   0.817
  710TIP3   OH2 2135   4.735   3.511   4.227
  710TIP3    H1 2136   4.733   3.510   4.323
  710TIP3    H2 2137   4.643   3.503   4.201
  711TIP3   OH2 2138   1.960   5.433   3.133
  711TIP3    H1 2139   2.000   5.353   3.168
  711TIP3    H2 2140   1.887   5.450   3.192
  712TIP3   OH2 2141   4.795   3.581   1.848
  712TIP3    H1 2142   4.854   3.517   1.808
  712TIP3    H2 2143   4.772   3.640   1.776
  713TIP3   OH2 2144   0.401   2.019   0.273
  713TIP3    H1 2145   0.484   2.061   0.253
  713TIP3    H2 2146   0.423   1.927   0.286
  714TIP3   OH2 2147   0.219   1.593   0.163
  714TIP3    H1 2148   0.193   1.511   0.205
  714TIP3    H2 2149   0.179   1.590   0.076
  715TIP3   OH2 2150   1.174   5.501   4.389
  715TIP3    H1 2151   1.200   5.428   4.333
  715TIP3    H2 2152   1.239   5.569   4.373
  716TIP3   OH2 2153   2.316   0.728   4.323
  716TIP3    H1 2154   2.384   0.693   4.265
  716TIP3    H2 2155   2.357   0.730   4.410
  717TIP3   OH2 2156   2.493   4.175   2.794
  717TIP3    H1 2157   2.577   4.131   2.785
  717TIP3    H2 2158   2.472   4.206   2.706
  718TIP3   OH2 2159   1.541   1.549   3.311
  718TIP3    H1 2160   1.494   1.493   3.249
  718TIP3    H2 2161   1.627   1.563   3.271
  719TIP3   OH2 2162   1.370   4.513   4.192
  719TIP3    H1 2163   1.347   4.593   4.145
  719TIP3    H2 2164   1.400   4.545   4.278
  720TIP3   OH2 2165   2.288   4.453   3.096
  720TIP3    H1 2166   2.215   4.412   3.049
  720TIP3    H2 2167   2.363   4.439   3.038
  721TIP3   OH2 2168   2.477   5.365   0.602
  721TIP3    H1 2169   2.488   5.434   0.537
  721TIP3    H2 2170   2.401   5.314   0.572
  722TIP3   OH2 2171   5.298   2.257   5.088
  722TIP3    H1 2172   5.212   2.217   5.071
  722TIP3    H2 2173   5.336   2.268   5.001
  723TIP3   OH2 2174   6.047   2.140   2.960
  723TIP3    H1 2175   6.111   2.140   3.031
  723TIP3    H2 2176   6.070   2.217   2.907
  724TIP3   OH2 2177   1.468   3.783   2.684
  724TIP3    H1 2178   1.459   3.825   2.598
  724TIP3    H2 2179   1.440   3.850   2.747
  725TIP3   OH2 2180   5.056   5.493   4.723
  725TIP3    H1 2181   4.982   5.543   4.687
  725TIP3    H2 2182   5.126   5.506   4.659
  726TIP3   OH2 2183   4.169   5.243   4.204
  726TIP3    H1 2184   4.191   5.334   4.221
  726TIP3    H2 2185   4.236   5.213   4.143
  727TIP3   OH2 2186   1.192   5.784   0.487
  727TIP3    H1 2187   1.259   5.809   0.423
  727TIP3    H2 2188   1.122   5.848   0.474
  728TIP3   OH2 2189   5.451   0.575   2.867
  728TIP3    H1 2190   5.366   0.561   2.910
  728TIP3    H2 2191   5.490   0.648   2.915
  729TIP3   OH2 2192   1.627   5.781   0.419
  729TIP3    H1 2193   1.540   5.818   0.409
  729TIP3    H2 2194   1.652   5.800   0.510
  730TIP3   OH2 2195   1.337   4.983   3.229
  730TIP3    H1 2196   1.277   4.919   3.266
  730TIP3    H2 2197   1.390   4.934   3.166
  731TIP3   OH2 2198   4.753   1.851   0.612
  731TIP3    H1 2199   4.689   1.828   0.680
  731TIP3    H2 2200   4.758   1.773   0.557
  732TIP3   OH2 2201   0.763   0.457   4.477
  732TIP3    H1 2202   0.699   0.456   4.548
  732TIP3    H2 2203   0.818   0.533   4.496
  733TIP3   OH2 2204   3.689   3.784   2.812
  733TIP3    H1 2205   3.598   3.810   2.795
  733TIP3    H2 2206   3.693   3.772   2.907
  734TIP3   OH2 2207   1.494   2.876   4.829
  734TIP3    H1 2208   1.504   2.797   4.882
  734TIP3    H2 2209   1.402   2.875   4.802
  735TIP3   OH2 2210   1.828   4.007   1.597
  735TIP3    H1 2211   1.849   4.068   1.527
  735TIP3    H2 2212   1.783   3.935   1.553
  736TIP3   OH2 2213   1.772   2.560   2.008
  736TIP3    H1 2214   1.862   2.591   1.994
  736TIP3    H2 2215   1.717   2.634   1.981
  737TIP3   OH2 2216   5.030   1.224   1.580
  737TIP3    H1 2217   4.987   1.310   1.585
  737TIP3    H2 2218   5.016   1.185   1.666
  738TIP3   OH2 2219   1.148   3.449   4.156
  738TIP3    H1 2220   1.205   3.503   4.211
  738TIP3    H2 2221   1.208   3.402   4.098
  739TIP3   OH2 2222   3.792   3.659   2.574
  739TIP3    H1 2223   3.760   3.711   2.647
  739TIP3    H2 2224   3.842   3.588   2.615
  740TIP3   OH2 2225   5.388   5.061   3.406
  740TIP3    H1 2226   5.441   4.981   3.412
  740TIP3    H2 2227   5.376   5.088   3.496
  741TIP3   OH2 2228   1.295   5.234   2.944
  741TIP3    H1 2229   1.271   5.152   2.901
  741TIP3    H2 2230   1.390   5.231   2.950
  742TIP3   OH2 2231   0.440   4.074   5.070
  742TIP3    H1 2232   0.489   3.994   5.089
  742TIP3    H2 2233   0.348   4.048   5.078
  743TIP3   OH2 2234   2.314   5.442   4.640
  743TIP3    H1 2235   2.296   5.530   4.672
  743TIP3    H2 2236   2.320   5.451   4.545
  744TIP3   OH2 2237   0.067   4.278   1.464
  744TIP3    H1 2238   0.011   4.225   1.521
  744TIP3    H2 2239   0.034   4.260   1.376
  745TIP3   OH2 2240   1.092   3.871   3.071
  745TIP3    H1 2241   1.125   3.783   3.054
  745TIP3    H2 2242   0.998   3.860   3.082
  746TIP3   OH2 2243   1.065   4.672   4.113
  746TIP3    H1 2244   1.155   4.675   4.081
  746TIP3    H2 2245   1.018   4.735   4.059
  747TIP3   OH2 2246   5.726   1.544   1.262
  747TIP3    H1 2247   5.637   1.578   1.269
  747TIP3    H2 2248   5.732   1.511   1.172
  748TIP3   OH2 2249   0.286   5.585   0.696
  748TIP3    H1 2250   0.346   5.616   0.628
  748TIP3    H2 2251   0.202   5.625   0.674
  749TIP3   OH2 2252   3.965   4.473   1.680
  749TIP3    H1 2253   3.986   4.544   1.618
  749TIP3    H2 2254   3.883   4.500   1.721
  750TIP3   OH2 2255   0.914   1.031   0.468
  750TIP3    H1 2256   0.881   1.083   0.541
  750TIP3    H2 2257   0.837   0.989   0.431
  751TIP3   OH2 2258   4.548   5.952   2.952
  751TIP3    H1 2259   4.596   5.870   2.942
  751TIP3    H2 2260   4.607   6.010   3.000
  752TIP3   OH2 2261   2.021   3.314   2.810
  752TIP3    H1 2262   1.926   3.319   2.824
  752TIP3    H2 2263   2.045   3.226   2.836
  753TIP3   OH2 2264   2.888   2.070   1.041
  753TIP3    H1 2265   2.928   1.984   1.026
  753TIP3    H2 2266   2.911   2.092   1.131
  754TIP3   OH2 2267   1.477   0.586   4.062
  754TIP3    H1 2268   1.391   0.616   4.034
  754TIP3    H2 2269   1.475   0.491   4.049
  755TIP3   OH2 2270   1.550   4.994   0.672
  755TIP3    H1 2271   1.628   4.944   0.649
  755TIP3    H2 2272   1.534   4.972   0.764
  756TIP3   OH2 2273   3.107   3.085   2.766
  756TIP3    H1 2274   3.023   3.070   2.810
  756TIP3    H2 2275   3.171   3.039   2.820
  757TIP3   OH2 2276   3.803   1.769   1.291
  757TIP3    H1 2277   3.760   1.727   1.366
  757TIP3    H2 2278   3.822   1.697   1.231
  758TIP3   OH2 2279   3.143   4.813   3.366
  758TIP3    H1 2280   3.163   4.848   3.453
  758TIP3    H2 2281   3.061   4.765   3.378
  759TIP3   OH2 2282   0.573   4.596   2.653
  759TIP3    H1 2283   0.658   4.634   2.634
  759TIP3    H2 2284   0.586   4.548   2.735
  760TIP3   OH2 2285   0.355   0.076   0.270
  760TIP3    H1 2286   0.405   0.027   0.335
  760TIP3    H2 2287   0.317   0.149   0.319
  761TIP3   OH2 2288   0.036   2.164   0.436
  761TIP3    H1 2289   0.116   2.215   0.426
  761TIP3    H2 2290   0.060   2.095   0.499
  762TIP3   OH2 2291   2.643   2.728   4.009
  762TIP3    H1 2292   2.652   2.748   3.916
  762TIP3    H2 2293   2.730   2.742   4.046
  763TIP3   OH2 2294   2.393   2.838   2.616
  763TIP3    H1 2295   2.357   2.925   2.634
  763TIP3    H2 2296   2.316   2.781   2.608
  764TIP3   OH2 2297   6.374   3.262   3.886
  764TIP3    H1 2298   6.301   3.215   3.845
  764TIP3    H2 2299   6.399   3.208   3.961
  765TIP3   OH2 2300   0.508   4.645   0.301
  765TIP3    H1 2301   0.583   4.657   0.360
  765TIP3    H2 2302   0.506   4.726   0.250
  766TIP3   OH2 2303   5.168   2.554   2.348
  766TIP3    H1 2304   5.075   2.567   2.329
  766TIP3    H2 2305   5.200   2.503   2.274
  767TIP3   OH2 2306   1.333   1.976   1.665
  767TIP3    H1 2307   1.423   1.965   1.635
  767TIP3    H2 2308   1.285   2.007   1.588
  768TIP3   OH2 2309   0.774   1.725   2.504
  768TIP3    H1 2310   0.726   1.655   2.459
  768TIP3    H2 2311   0.835   1.758   2.437
  769TIP3   OH2 2312   3.571   3.367   5.206
  769TIP3    H1 2313   3.605   3.281   5.182
  769TIP3    H2 2314   3.476   3.357   5.201
  770TIP3   OH2 2315   0.139   2.485   3.964
  770TIP3    H1 2316   0.137   2.447   3.876
  770TIP3    H2 2317   0.179   2.416   4.018
  771TIP3   OH2 2318   3.336   5.046   0.075
  771TIP3    H1 2319   3.387   5.073  -0.002
  771TIP3    H2 2320   3.389   5.072   0.150
  772TIP3   OH2 2321   5.686   3.513   2.758
  772TIP3    H1 2322   5.649   3.450   2.697
  772TIP3    H2 2323   5.712   3.587   2.703
  773TIP3   OH2 2324   6.180   1.102   2.391
  773TIP3    H1 2325   6.207   1.065   2.307
  773TIP3    H2 2326   6.254   1.084   2.450
  774TIP3   OH2 2327   6.097   3.308   4.630
  774TIP3    H1 2328   6.043   3.332   4.705
  774TIP3    H2 2329   6.035   3.271   4.567
  775TIP3   OH2 2330   1.466   5.048   4.758
  775TIP3    H1 2331   1.483   5.106   4.684
  775TIP3    H2 2332   1.394   5.090   4.805
  776TIP3   OH2 2333   0.802   0.793   0.669
  776TIP3    H1 2334   0.715   0.773   0.704
  776TIP3    H2 2335   0.847   0.837   0.741
  777TIP3   OH2 2336   3.275   0.342   4.638
  777TIP3    H1 2337   3.298   0.338   4.731
  777TIP3    H2 2338   3.252   0.434   4.624
  778TIP3   OH2 2339   4.882   0.353   0.989
  778TIP3    H1 2340   4.957   0.384   1.039
  778TIP3    H2 2341   4.848   0.431   0.946
  779TIP3   OH2 2342   0.781   1.933   4.869
  779TIP3    H1 2343   0.775   1.937   4.965
  779TIP3    H2 2344   0.696   1.901   4.841
  780TIP3   OH2 2345   1.964   0.530   2.860
  780TIP3    H1 2346   2.055   0.534   2.830
  780TIP3    H2 2347   1.927   0.454   2.815
  781TIP3   OH2 2348   2.783   5.490   5.148
  781TIP3    H1 2349   2.745   5.435   5.080
  781TIP3    H2 2350   2.713   5.505   5.211
  782TIP3   OH2 2351   0.869   0.325   1.242
  782TIP3    H1 2352   0.803   0.388   1.215
  782TIP3    H2 2353   0.871   0.333   1.338
  783TIP3   OH2 2354   5.305   0.545   3.435
  783TIP3    H1 2355   5.320   0.541   3.340
  783TIP3    H2 2356   5.345   0.628   3.462
  784TIP3   OH2 2357   4.208   1.335   4.723
  784TIP3    H1 2358   4.288   1.305   4.766
  784TIP3    H2 2359   4.176   1.407   4.779
  785TIP3   OH2 2360   4.888   1.856   1.342
  785TIP3    H1 2361   4.940   1.924   1.299
  785TIP3    H2 2362   4.953   1.793   1.375
  786TIP3   OH2 2363   1.817   4.592   1.629
  786TIP3    H1 2364   1.890   4.554   1.579
  786TIP3    H2 2365   1.855   4.611   1.715
  787TIP3   OH2 2366   3.116   2.014   1.760
  787TIP3    H1 2367   3.101   2.062   1.679
  787TIP3    H2 2368   3.028   2.001   1.796
  788TIP3   OH2 2369   4.981   2.462   3.828
  788TIP3    H1 2370   4.927   2.513   3.888
  788TIP3    H2 2371   5.054   2.431   3.882
  789TIP3   OH2 2372   1.355   4.574   0.235
  789TIP3    H1 2373   1.395   4.658   0.212
  789TIP3    H2 2374   1.395   4.511   0.175
  790TIP3   OH2 2375   4.906   3.237   0.355
  790TIP3    H1 2376   4.890   3.301   0.425
  790TIP3    H2 2377   4.927   3.156   0.401
  791TIP3   OH2 2378   4.037   4.591   1.898
  791TIP3    H1 2379   4.054   4.575   1.805
  791TIP3    H2 2380   4.113   4.553   1.942
  792TIP3   OH2 2381   6.261   0.320   1.567
  792TIP3    H1 2382   6.237   0.382   1.498
  792TIP3    H2 2383   6.290   0.374   1.640
  793TIP3   OH2 2384   1.945   2.717   1.015
  793TIP3    H1 2385   1.862   2.670   1.028
  793TIP3    H2 2386   1.952   2.775   1.091
  794TIP3   OH2 2387   3.709   3.924   1.514
  794TIP3    H1 2388   3.642   3.861   1.541
  794TIP3    H2 2389   3.749   3.885   1.436
  795TIP3   OH2 2390   3.727   1.003   0.957
  795TIP3    H1 2391   3.685   1.079   0.997
  795TIP3    H2 2392   3.814   1.034   0.933
  796TIP3   OH2 2393   4.301   5.369   4.732
  796TIP3    H1 2394   4.332   5.288   4.690
  796TIP3    H2 2395   4.381   5.415   4.756
  797TIP3   OH2 2396   2.766   5.190   4.240
  797TIP3    H1 2397   2.736   5.103   4.266
  797TIP3    H2 2398   2.730   5.249   4.306
  798TIP3   OH2 2399   3.206   1.712   0.004
  798TIP3    H1 2400   3.269   1.663   0.057
  798TIP3    H2 2401   3.179   1.785   0.059
  799TIP3   OH2 2402   5.946   0.904   3.384
  799TIP3    H1 2403   5.996   0.975   3.423
  799TIP3    H2 2404   5.958   0.830   3.444
  800TIP3   OH2 2405   1.324   5.762   4.304
  800TIP3    H1 2406   1.275   5.780   4.224
  800TIP3    H2 2407   1.409   5.802   4.290
  801TIP3   OH2 2408   2.306   2.979   1.237
  801TIP3    H1 2409   2.381   3.009   1.186
  801TIP3    H2 2410   2.285   2.894   1.199
  802TIP3   OH2 2411   1.369   3.337   2.483
  802TIP3    H1 2412   1.278   3.364   2.483
  802TIP3    H2 2413   1.419   3.418   2.472
  803TIP3   OH2 2414   4.797   0.179   3.654
  803TIP3    H1 2415   4.753   0.188   3.738
  803TIP3    H2 2416   4.759   0.248   3.600
  804TIP3   OH2 2417   3.110   2.456   0.088
  804TIP3    H1 2418   3.192   2.495   0.060
  804TIP3    H2 2419   3.062   2.437   0.007
  805TIP3   OH2 2420   3.630   0.487   3.845
  805TIP3    H1 2421   3.720   0.488   3.877
  805TIP3    H2 2422   3.638   0.514   3.753
  806TIP3   OH2 2423   2.484   2.076   1.581
  806TIP3    H1 2424   2.470   2.171   1.577
  806TIP3    H2 2425   2.435   2.041   1.507
  807TIP3   OH2 2426   5.468   1.692   1.302
  807TIP3    H1 2427   5.413   1.682   1.380
  807TIP3    H2 2428   5.498   1.783   1.307
  808TIP3   OH2 2429   2.170   4.510   4.170
  808TIP3    H1 2430   2.217   4.591   4.193
  808TIP3    H2 2431   2.234   4.440   4.185
  809TIP3   OH2 2432   5.737   5.687   2.261
  809TIP3    H1 2433   5.705   5.602   2.291
  809TIP3    H2 2434   5.737   5.680   2.165
  810TIP3   OH2 2435   1.708   5.234   1.681
  810TIP3    H1 2436   1.631   5.278   1.643
  810TIP3    H2 2437   1.763   5.213   1.606
  811TIP3   OH2 2438   3.477   5.331   0.906
  811TIP3    H1 2439   3.561   5.367   0.878
  811TIP3    H2 2440   3.412   5.397   0.881
  812TIP3   OH2 2441   2.232   1.269   4.157
  812TIP3    H1 2442   2.172   1.331   4.116
  812TIP3    H2 2443   2.206   1.184   4.121
  813TIP3   OH2 2444   4.210   3.616   4.497
  813TIP3    H1 2445   4.134   3.559   4.487
  813TIP3    H2 2446   4.176   3.694   4.542
  814TIP3   OH2 2447   5.555   2.787   4.895
  814TIP3    H1 2448   5.611   2.749   4.963
  814TIP3    H2 2449   5.478   2.730   4.894
  815TIP3   OH2 2450   4.023   4.484   2.697
  815TIP3    H1 2451   4.097   4.426   2.681
  815TIP3    H2 2452   3.975   4.442   2.768
  816TIP3   OH2 2453   5.566   5.073   4.089
  816TIP3    H1 2454   5.476   5.098   4.111
  816TIP3    H2 2455   5.621   5.133   4.140
  817TIP3   OH2 2456   3.644   1.716   0.543
  817TIP3    H1 2457   3.564   1.674   0.511
  817TIP3    H2 2458   3.634   1.808   0.516
  818TIP3   OH2 2459   5.163   2.757   0.765
  818TIP3    H1 2460   5.250   2.795   0.752
  818TIP3    H2 2461   5.105   2.832   0.773
  819TIP3   OH2 2462   6.321   0.937   4.266
  819TIP3    H1 2463   6.381   1.005   4.234
  819TIP3    H2 2464   6.280   0.974   4.343
  820TIP3   OH2 2465   0.460   1.654   2.916
  820TIP3    H1 2466   0.414   1.572   2.902
  820TIP3    H2 2467   0.543   1.629   2.958
  821TIP3   OH2 2468   0.131   1.788   0.322
  821TIP3    H1 2469   0.037   1.779   0.305
  821TIP3    H2 2470   0.172   1.726   0.262
  822TIP3   OH2 2471   3.678   0.881   2.089
  822TIP3    H1 2472   3.709   0.844   2.006
  822TIP3    H2 2473   3.592   0.841   2.102
  823TIP3   OH2 2474   2.158   1.687   2.341
  823TIP3    H1 2475   2.112   1.613   2.381
  823TIP3    H2 2476   2.206   1.649   2.268
  824TIP3   OH2 2477   6.022   2.869   2.124
  824TIP3    H1 2478   6.034   2.938   2.060
  824TIP3    H2 2479   5.928   2.852   2.126
  825TIP3   OH2 2480   4.242   5.987   4.378
  825TIP3    H1 2481   4.330   6.023   4.393
  825TIP3    H2 2482   4.244   5.901   4.420
  826TIP3   OH2 2483   1.021   5.319   4.584
  826TIP3    H1 2484   1.038   5.307   4.677
  826TIP3    H2 2485   1.082   5.387   4.556
  827TIP3   OH2 2486   2.252   4.466   2.217
  827TIP3    H1 2487   2.314   4.437   2.150
  827TIP3    H2 2488   2.304   4.472   2.297
  828TIP3   OH2 2489   2.150   4.044   2.667
  828TIP3    H1 2490   2.213   3.997   2.722
  828TIP3    H2 2491   2.204   4.102   2.614
  829TIP3   OH2 2492   0.217   0.964   3.414
  829TIP3    H1 2493   0.225   0.912   3.334
  829TIP3    H2 2494   0.300   1.010   3.421
  830TIP3   OH2 2495   1.935   4.503   3.070
  830TIP3    H1 2496   1.910   4.474   3.158
  830TIP3    H2 2497   1.910   4.596   3.067
  831TIP3   OH2 2498   1.402   2.877   4.493
  831TIP3    H1 2499   1.345   2.888   4.569
  831TIP3    H2 2500   1.352   2.820   4.434
  832TIP3   OH2 2501   4.080   1.076   4.813
  832TIP3    H1 2502   4.014   1.138   4.845
  832TIP3    H2 2503   4.145   1.131   4.769
  833TIP3   OH2 2504   2.011   0.209   4.385
  833TIP3    H1 2505   1.966   0.246   4.461
  833TIP3    H2 2506   2.019   0.282   4.324
  834TIP3   OH2 2507   4.979   3.945   0.287
  834TIP3    H1 2508   5.004   3.907   0.203
  834TIP3    H2 2509   5.038   3.904   0.351
  835TIP3   OH2 2510   1.235   4.969   2.840
  835TIP3    H1 2511   1.258   4.927   2.758
  835TIP3    H2 2512   1.223   4.896   2.901
  836TIP3   OH2 2513   1.692   5.699   4.415
  836TIP3    H1 2514   1.701   5.727   4.506
  836TIP3    H2 2515   1.650   5.614   4.420
  837TIP3   OH2 2516   0.172   5.221   2.150
  837TIP3    H1 2517   0.220   5.303   2.136
  837TIP3    H2 2518   0.103   5.244   2.212
  838TIP3   OH2 2519   0.540   1.816   3.459
  838TIP3    H1 2520   0.542   1.912   3.451
  838TIP3    H2 2521   0.454   1.797   3.496
  839TIP3   OH2 2522   5.685   3.141   2.439
  839TIP3    H1 2523   5.730   3.224   2.456
  839TIP3    H2 2524   5.700   3.124   2.346
  840TIP3   OH2 2525   6.028   3.822   3.971
  840TIP3    H1 2526   6.102   3.841   4.028
  840TIP3    H2 2527   6.025   3.726   3.966
  841TIP3   OH2 2528   3.415   2.445   0.338
  841TIP3    H1 2529   3.380   2.446   0.249
  841TIP3    H2 2530   3.340   2.425   0.393
  842TIP3   OH2 2531   3.254   3.329   1.329
  842TIP3    H1 2532   3.326   3.317   1.390
  842TIP3    H2 2533   3.217   3.241   1.317
  843TIP3   OH2 2534   4.769   0.591   2.484
  843TIP3    H1 2535   4.811   0.676   2.499
  843TIP3    H2 2536   4.835   0.527   2.510
  844TIP3   OH2 2537   3.738   1.730   3.845
  844TIP3    H1 2538   3.823   1.690   3.864
  844TIP3    H2 2539   3.716   1.778   3.925
  845TIP3   OH2 2540   2.239   2.181   4.973
  845TIP3    H1 2541   2.167   2.119   4.956
  845TIP3    H2 2542   2.201   2.245   5.033
  846TIP3   OH2 2543   4.906   5.549   0.627
  846TIP3    H1 2544   4.845   5.475   0.616
  846TIP3    H2 2545   4.933   5.571   0.538
  847TIP3   OH2 2546   3.568   2.886   1.612
  847TIP3    H1 2547   3.628   2.960   1.626
  847TIP3    H2 2548   3.529   2.870   1.698
  848TIP3   OH2 2549   2.307   4.332   4.336
  848TIP3    H1 2550   2.231   4.278   4.355
  848TIP3    H2 2551   2.359   4.330   4.417
  849TIP3   OH2 2552   6.051   0.302   2.948
  849TIP3    H1 2553   6.075   0.388   2.914
  849TIP3    H2 2554   5.988   0.320   3.017
  850TIP3   OH2 2555   2.931   3.654   2.436
  850TIP3    H1 2556   2.903   3.745   2.428
  850TIP3    H2 2557   3.015   3.650   2.388
  851TIP3   OH2 2558   4.074   4.884   3.382
  851TIP3    H1 2559   4.115   4.892   3.296
  851TIP3    H2 2560   4.109   4.957   3.433
  852TIP3   OH2 2561   5.388   2.894   1.029
  852TIP3    H1 2562   5.372   2.988   1.038
  852TIP3    H2 2563   5.466   2.879   1.081
  853TIP3   OH2 2564   0.885   2.065   2.530
  853TIP3    H1 2565   0.925   1.997   2.475
  853TIP3    H2 2566   0.799   2.080   2.491
  854TIP3   OH2 2567   1.876   4.293   2.379
  854TIP3    H1 2568   1.789   4.266   2.350
  854TIP3    H2 2569   1.935   4.260   2.311
  855TIP3   OH2 2570   3.005   5.499   1.871
  855TIP3    H1 2571   3.086   5.528   1.828
  855TIP3    H2 2572   2.982   5.572   1.929
  856TIP3   OH2 2573   1.405   5.537   2.900
  856TIP3    H1 2574   1.424   5.528   2.806
  856TIP3    H2 2575   1.348   5.462   2.920
  857TIP3   OH2 2576   0.622   2.976   3.045
  857TIP3    H1 2577   0.560   2.997   3.115
  857TIP3    H2 2578   0.708   2.989   3.085
  858TIP3   OH2 2579   1.261   5.226   1.692
  858TIP3    H1 2580   1.324   5.155   1.682
  858TIP3    H2 2581   1.185   5.198   1.642
  859TIP3   OH2 2582   0.626   4.813   1.612
  859TIP3    H1 2583   0.538   4.842   1.637
  859TIP3    H2 2584   0.675   4.811   1.694
  860TIP3   OH2 2585   3.106   4.926   3.812
  860TIP3    H1 2586   3.145   4.977   3.883
  860TIP3    H2 2587   3.016   4.959   3.807
  861TIP3   OH2 2588   2.382   0.713   4.854
  861TIP3    H1 2589   2.440   0.639   4.834
  861TIP3    H2 2590   2.441   0.788   4.864
  862TIP3   OH2 2591   2.525   0.183   4.756
  862TIP3    H1 2592   2.509   0.104   4.808
  862TIP3    H2 2593   2.606   0.219   4.792
  863TIP3   OH2 2594   1.838   0.487   2.122
  863TIP3    H1 2595   1.797   0.466   2.038
  863TIP3    H2 2596   1.926   0.518   2.098
  864TIP3   OH2 2597   3.562   2.528   3.523
  864TIP3    H1 2598   3.641   2.582   3.512
  864TIP3    H2 2599   3.516   2.535   3.439
  865TIP3   OH2 2600   1.430   1.397   0.794
  865TIP3    H1 2601   1.434   1.481   0.840
  865TIP3    H2 2602   1.341   1.365   0.809
  866TIP3   OH2 2603   5.012   4.870   1.400
  866TIP3    H1 2604   4.918   4.859   1.385
  866TIP3    H2 2605   5.019   4.941   1.464
  867TIP3   OH2 2606   1.394   5.007   2.440
  867TIP3    H1 2607   1.476   4.968   2.409
  867TIP3    H2 2608   1.359   4.943   2.502
  868TIP3   OH2 2609   1.353   0.869   5.190
  868TIP3    H1 2610   1.374   0.834   5.276
  868TIP3    H2 2611   1.266   0.909   5.201
  869TIP3   OH2 2612   1.856   4.473   4.815
  869TIP3    H1 2613   1.827   4.429   4.895
  869TIP3    H2 2614   1.775   4.493   4.769
  870TIP3   OH2 2615   5.171   5.676   4.515
  870TIP3    H1 2616   5.227   5.740   4.559
  870TIP3    H2 2617   5.111   5.729   4.462
  871TIP3   OH2 2618   4.075   5.098   4.761
  871TIP3    H1 2619   4.042   5.184   4.786
  871TIP3    H2 2620   4.141   5.077   4.828
  872TIP3   OH2 2621   1.390   0.089   1.730
  872TIP3    H1 2622   1.424   0.027   1.794
  872TIP3    H2 2623   1.444   0.167   1.740
  873TIP3   OH2 2624   6.202   3.640   2.425
  873TIP3    H1 2625   6.159   3.555   2.424
  873TIP3    H2 2626   6.133   3.703   2.446
  874TIP3   OH2 2627   4.456   3.600   4.645
  874TIP3    H1 2628   4.439   3.529   4.706
  874TIP3    H2 2629   4.381   3.600   4.586
  875TIP3   OH2 2630   4.145   4.602   0.728
  875TIP3    H1 2631   4.201   4.670   0.767
  875TIP3    H2 2632   4.203   4.555   0.668
  876TIP3   OH2 2633   4.946   5.790   3.980
  876TIP3    H1 2634   4.950   5.874   3.935
  876TIP3    H2 2635   4.852   5.770   3.986
  877TIP3   OH2 2636   0.129   0.169   0.059
  877TIP3    H1 2637   0.037   0.145   0.055
  877TIP3    H2 2638   0.170   0.098   0.108
  878TIP3   OH2 2639   2.925   0.634   0.289
  878TIP3    H1 2640   2.956   0.710   0.337
  878TIP3    H2 2641   2.924   0.563   0.354
  879TIP3   OH2 2642   2.516   5.925   0.335
  879TIP3    H1 2643   2.434   5.959   0.371
  879TIP3    H2 2644   2.583   5.980   0.375
  880TIP3   OH2 2645   2.686   5.261   0.800
  880TIP3    H1 2646   2.639   5.275   0.718
  880TIP3    H2 2647   2.734   5.343   0.814
  881TIP3   OH2 2648   4.876   2.433   3.085
  881TIP3    H1 2649   4.953   2.397   3.130
  881TIP3    H2 2650   4.891   2.413   2.992
  882TIP3   OH2 2651   3.257   3.121   4.674
  882TIP3    H1 2652   3.322   3.132   4.605
  882TIP3    H2 2653   3.187   3.070   4.634
  883TIP3   OH2 2654   1.152   4.151   1.411
  883TIP3    H1 2655   1.205   4.076   1.384
  883TIP3    H2 2656   1.162   4.155   1.506
  884TIP3   OH2 2657   3.279   1.156   3.955
  884TIP3    H1 2658   3.270   1.068   3.918
  884TIP3    H2 2659   3.365   1.186   3.925
  885TIP3   OH2 2660   4.498   2.945   1.278
  885TIP3    H1 2661   4.502   2.872   1.216
  885TIP3    H2 2662   4.562   3.008   1.245
  886TIP3   OH2 2663   4.678   1.732   4.307
  886TIP3    H1 2664   4.728   1.685   4.373
  886TIP3    H2 2665   4.737   1.799   4.275
  887TIP3   OH2 2666   1.739   1.551   4.202
  887TIP3    H1 2667   1.782   1.634   4.180
  887TIP3    H2 2668   1.806   1.501   4.249
  888TIP3   OH2 2669   5.932   1.055   4.659
  888TIP3    H1 2670   5.951   1.023   4.747
  888TIP3    H2 2671   6.000   1.120   4.641
  889TIP3   OH2 2672   3.364   2.814   4.727
  889TIP3    H1 2673   3.327   2.902   4.726
  889TIP3    H2 2674   3.324   2.770   4.652
  890TIP3   OH2 2675   3.496   1.658   0.914
  890TIP3    H1 2676   3.580   1.648   0.870
  890TIP3    H2 2677   3.514   1.635   1.005
  891TIP3   OH2 2678   1.801   1.449   4.569
  891TIP3    H1 2679   1.722   1.451   4.516
  891TIP3    H2 2680   1.781   1.387   4.639
  892TIP3   OH2 2681   0.012   1.027   2.575
  892TIP3    H1 2682  -0.018   1.003   2.663
  892TIP3    H2 2683   0.089   0.973   2.561
  893TIP3   OH2 2684   5.946   4.409   4.128
  893TIP3    H1 2685   5.980   4.332   4.082
  893TIP3    H2 2686   5.872   4.376   4.179
  894TIP3   OH2 2687   3.917   0.891   0.631
  894TIP3    H1 2688   4.000   0.933   0.610
  894TIP3    H2 2689   3.851   0.946   0.590
  895TIP3   OH2 2690   2.248   5.564   1.803
  895TIP3    H1 2691   2.186   5.570   1.730
  895TIP3    H2 2692   2.243   5.650   1.846
  896TIP3   OH2 2693   1.408   5.530   3.826
  896TIP3    H1 2694   1.420   5.435   3.819
  896TIP3    H2 2695   1.395   5.545   3.920
  897TIP3   OH2 2696   0.535   4.722   3.056
  897TIP3    H1 2697   0.482   4.783   3.107
  897TIP3    H2 2698   0.611   4.703   3.111
  898TIP3   OH2 2699   5.010   1.773   2.776
  898TIP3    H1 2700   4.931   1.769   2.831
  898TIP3    H2 2701   4.977   1.782   2.687
  899TIP3   OH2 2702   4.156   1.340   1.032
  899TIP3    H1 2703   4.227   1.275   1.028
  899TIP3    H2 2704   4.202   1.424   1.045
  900TIP3   OH2 2705   5.666   4.803   0.391
  900TIP3    H1 2706   5.616   4.824   0.470
  900TIP3    H2 2707   5.728   4.876   0.382
  901TIP3   OH2 2708   2.618   0.495   5.090
  901TIP3    H1 2709   2.644   0.585   5.109
  901TIP3    H2 2710   2.651   0.444   5.163
  902TIP3   OH2 2711  -0.020   0.460   1.790
  902TIP3    H1 2712   0.054   0.513   1.761
  902TIP3    H2 2713  -0.015   0.462   1.886
  903TIP3   OH2 2714   5.197   4.998   0.294
  903TIP3    H1 2715   5.276   4.992   0.240
  903TIP3    H2 2716   5.134   4.940   0.251
  904TIP3   OH2 2717   3.428   1.367   0.050
  904TIP3    H1 2718   3.508   1.407   0.084
  904TIP3    H2 2719   3.439   1.367  -0.045
  905TIP3   OH2 2720   0.666   5.284   2.380
  905TIP3    H1 2721   0.655   5.251   2.470
  905TIP3    H2 2722   0.727   5.222   2.340
  906TIP3   OH2 2723   5.680   5.770   2.746
  906TIP3    H1 2724   5.690   5.823   2.667
  906TIP3    H2 2725   5.738   5.695   2.731
  907TIP3   OH2 2726   0.579   2.089   0.756
  907TIP3    H1 2727   0.582   2.169   0.704
  907TIP3    H2 2728   0.545   2.116   0.841
  908TIP3   OH2 2729   3.073   2.374   4.032
  908TIP3    H1 2730   3.010   2.350   3.964
  908TIP3    H2 2731   3.113   2.455   4.000
  909TIP3   OH2 2732   6.127   3.955   4.584
  909TIP3    H1 2733   6.054   3.928   4.528
  909TIP3    H2 2734   6.202   3.907   4.550
  910TIP3   OH2 2735   3.923   2.697   4.395
  910TIP3    H1 2736   3.945   2.788   4.372
  910TIP3    H2 2737   4.003   2.648   4.375
  911TIP3   OH2 2738   2.904   1.092   1.725
  911TIP3    H1 2739   2.905   1.068   1.818
  911TIP3    H2 2740   2.975   1.156   1.716
  912TIP3   OH2 2741   1.073   4.003   0.741
  912TIP3    H1 2742   1.142   3.941   0.764
  912TIP3    H2 2743   1.036   4.030   0.824
  913TIP3   OH2 2744   5.211   3.406   2.802
  913TIP3    H1 2745   5.261   3.487   2.808
  913TIP3    H2 2746   5.247   3.350   2.871
  914TIP3   OH2 2747   3.963   5.156   0.772
  914TIP3    H1 2748   3.975   5.133   0.864
  914TIP3    H2 2749   3.868   5.148   0.758
  915TIP3   OH2 2750   5.689   1.523   3.108
  915TIP3    H1 2751   5.784   1.522   3.120
  915TIP3    H2 2752   5.673   1.460   3.037
  916TIP3   OH2 2753   5.470   1.434   2.093
  916TIP3    H1 2754   5.439   1.366   2.152
  916TIP3    H2 2755   5.402   1.502   2.097
  917TIP3   OH2 2756   1.093   4.099   4.455
  917TIP3    H1 2757   1.118   4.161   4.386
  917TIP3    H2 2758   1.049   4.028   4.408
  918TIP3   OH2 2759   5.194   5.292   3.662
  918TIP3    H1 2760   5.200   5.312   3.755
  918TIP3    H2 2761   5.263   5.226   3.648
  919TIP3   OH2 2762   1.292   2.313   4.345
  919TIP3    H1 2763   1.226   2.255   4.384
  919TIP3    H2 2764   1.315   2.269   4.263
  920TIP3   OH2 2765   2.312   5.141   4.635
  920TIP3    H1 2766   2.292   5.235   4.632
  920TIP3    H2 2767   2.230   5.099   4.659
  921TIP3   OH2 2768   5.590   1.074   3.999
  921TIP3    H1 2769   5.542   1.039   3.925
  921TIP3    H2 2770   5.586   1.005   4.065
  922TIP3   OH2 2771   1.727   2.281   2.026
  922TIP3    H1 2772   1.733   2.375   2.009
  922TIP3    H2 2773   1.811   2.259   2.067
  923TIP3   OH2 2774   3.333   5.062   1.259
  923TIP3    H1 2775   3.382   5.015   1.191
  923TIP3    H2 2776   3.276   5.121   1.211
  924TIP3   OH2 2777   1.769   2.704   3.268
  924TIP3    H1 2778   1.818   2.645   3.210
  924TIP3    H2 2779   1.729   2.767   3.208
  925TIP3   OH2 2780   2.362   4.406   0.989
  925TIP3    H1 2781   2.425   4.423   1.059
  925TIP3    H2 2782   2.328   4.319   1.008
  926TIP3   OH2 2783   0.187   2.248   4.102
  926TIP3    H1 2784   0.221   2.197   4.028
  926TIP3    H2 2785   0.190   2.188   4.176
  927TIP3   OH2 2786   2.797   1.514   1.871
  927TIP3    H1 2787   2.749   1.596   1.875
  927TIP3    H2 2788   2.807   1.487   1.963
  928TIP3   OH2 2789   4.035   4.488   0.181
  928TIP3    H1 2790   3.954   4.514   0.224
  928TIP3    H2 2791   4.103   4.541   0.223
  929TIP3   OH2 2792   4.971   5.972   0.283
  929TIP3    H1 2793   4.924   5.986   0.201
  929TIP3    H2 2794   5.062   5.958   0.256
  930TIP3   OH2 2795   2.419   2.908   3.999
  930TIP3    H1 2796   2.346   2.859   3.961
  930TIP3    H2 2797   2.496   2.854   3.980
  931TIP3   OH2 2798   2.217   5.188   2.318
  931TIP3    H1 2799   2.192   5.277   2.345
  931TIP3    H2 2800   2.311   5.183   2.336
  932TIP3   OH2 2801   0.889   4.182   0.917
  932TIP3    H1 2802   0.875   4.272   0.888
  932TIP3    H2 2803   0.936   4.191   1.000
  933TIP3   OH2 2804   4.995   0.045   2.074
  933TIP3    H1 2805   5.079   0.052   2.029
  933TIP3    H2 2806   4.936   0.007   2.009
  934TIP3   OH2 2807   6.300   2.917   4.491
  934TIP3    H1 2808   6.238   2.904   4.419
  934TIP3    H2 2809   6.286   2.842   4.548
  935TIP3   OH2 2810   4.469   1.086   2.679
  935TIP3    H1 2811   4.482   1.177   2.653
  935TIP3    H2 2812   4.503   1.036   2.604
  936TIP3   OH2 2813   2.595   2.623   0.931
  936TIP3    H1 2814   2.512   2.667   0.946
  936TIP3    H2 2815   2.613   2.636   0.837
  937TIP3   OH2 2816   1.843   2.267   2.288
  937TIP3    H1 2817   1.852   2.357   2.320
  937TIP3    H2 2818   1.749   2.256   2.275
  938TIP3   OH2 2819   4.570   3.110  -0.034
  938TIP3    H1 2820   4.649   3.056  -0.043
  938TIP3    H2 2821   4.584   3.160   0.046
  939TIP3   OH2 2822   2.531   0.384   2.208
  939TIP3    H1 2823   2.435   0.387   2.206
  939TIP3    H2 2824   2.555   0.328   2.134
  940TIP3   OH2 2825   2.383   4.819   3.719
  940TIP3    H1 2826   2.422   4.770   3.647
  940TIP3    H2 2827   2.342   4.895   3.676
  941TIP3   OH2 2828   5.077   1.873   1.939
  941TIP3    H1 2829   5.170   1.883   1.959
  941TIP3    H2 2830   5.034   1.941   1.991
  942TIP3   OH2 2831   5.371   4.310   0.863
  942TIP3    H1 2832   5.394   4.402   0.849
  942TIP3    H2 2833   5.447   4.261   0.830
  943TIP3   OH2 2834   2.874   0.951   2.972
  943TIP3    H1 2835   2.873   1.034   2.926
  943TIP3    H2 2836   2.783   0.920   2.969
  944TIP3   OH2 2837   0.270   3.369   0.513
  944TIP3    H1 2838   0.335   3.379   0.443
  944TIP3    H2 2839   0.186   3.377   0.469
  945TIP3   OH2 2840   0.659   5.240   3.556
  945TIP3    H1 2841   0.677   5.290   3.477
  945TIP3    H2 2842   0.724   5.170   3.556
  946TIP3   OH2 2843   3.247   4.638   2.090
  946TIP3    H1 2844   3.284   4.684   2.014
  946TIP3    H2 2845   3.255   4.701   2.162
  947TIP3   OH2 2846   3.289   2.681   2.423
  947TIP3    H1 2847   3.291   2.768   2.463
  947TIP3    H2 2848   3.256   2.624   2.492
  948TIP3   OH2 2849   3.919   5.033   2.377
  948TIP3    H1 2850   3.931   4.943   2.346
  948TIP3    H2 2851   3.946   5.031   2.468
  949TIP3   OH2 2852   5.166   4.270   3.725
  949TIP3    H1 2853   5.197   4.319   3.802
  949TIP3    H2 2854   5.110   4.332   3.678
  950TIP3   OH2 2855   5.327   0.425   4.995
  950TIP3    H1 2856   5.311   0.482   5.070
  950TIP3    H2 2857   5.347   0.339   5.034
  951TIP3   OH2 2858   0.410   0.573   1.910
  951TIP3    H1 2859   0.433   0.587   1.818
  951TIP3    H2 2860   0.488   0.598   1.959
  952TIP3   OH2 2861   2.446   3.766   3.113
  952TIP3    H1 2862   2.414   3.693   3.166
  952TIP3    H2 2863   2.438   3.737   3.023
  953TIP3   OH2 2864   3.904   0.338   1.429
  953TIP3    H1 2865   3.821   0.290   1.436
  953TIP3    H2 2866   3.948   0.299   1.354
  954TIP3   OH2 2867   1.258   4.955   2.219
  954TIP3    H1 2868   1.256   4.860   2.224
  954TIP3    H2 2869   1.305   4.982   2.298
  955TIP3   OH2 2870   5.819   0.081   4.929
  955TIP3    H1 2871   5.757   0.009   4.943
  955TIP3    H2 2872   5.770   0.146   4.878
  956TIP3   OH2 2873   5.055   0.376   1.379
  956TIP3    H1 2874   5.116   0.345   1.446
  956TIP3    H2 2875   4.985   0.311   1.377
  957TIP3   OH2 2876   5.388   2.449   0.811
  957TIP3    H1 2877   5.456   2.475   0.749
  957TIP3    H2 2878   5.306   2.473   0.769
  958TIP3   OH2 2879   0.471   2.579   1.309
  958TIP3    H1 2880   0.449   2.528   1.387
  958TIP3    H2 2881   0.566   2.585   1.310
  959TIP3   OH2 2882   2.165   2.121   3.710
  959TIP3    H1 2883   2.082   2.153   3.673
  959TIP3    H2 2884   2.205   2.199   3.748
  960TIP3   OH2 2885   6.297   2.133   2.687
  960TIP3    H1 2886   6.213   2.172   2.711
  960TIP3    H2 2887   6.351   2.208   2.660
  961TIP3   OH2 2888   1.348   1.636   0.597
  961TIP3    H1 2889   1.367   1.630   0.503
  961TIP3    H2 2890   1.418   1.584   0.638
  962TIP3   OH2 2891   1.562   2.429   4.772
  962TIP3    H1 2892   1.571   2.352   4.829
  962TIP3    H2 2893   1.624   2.413   4.701
  963TIP3   OH2 2894   4.411   0.668   1.028
  963TIP3    H1 2895   4.362   0.706   1.101
  963TIP3    H2 2896   4.386   0.576   1.029
  964TIP3   OH2 2897   0.810   3.088   0.731
  964TIP3    H1 2898   0.889   3.051   0.770
  964TIP3    H2 2899   0.776   3.019   0.675
  965TIP3   OH2 2900   0.350   1.482   0.912
  965TIP3    H1 2901   0.311   1.513   0.993
  965TIP3    H2 2902   0.379   1.561   0.867
  966TIP3   OH2 2903   0.158   5.282   3.471
  966TIP3    H1 2904   0.141   5.327   3.554
  966TIP3    H2 2905   0.248   5.250   3.479
  967TIP3   OH2 2906   5.178   2.738   3.127
  967TIP3    H1 2907   5.131   2.821   3.123
  967TIP3    H2 2908   5.199   2.719   3.036
  968TIP3   OH2 2909   0.327   2.285   4.928
  968TIP3    H1 2910   0.242   2.295   4.972
  968TIP3    H2 2911   0.365   2.373   4.928
  969TIP3   OH2 2912   4.709   0.312   1.421
  969TIP3    H1 2913   4.718   0.293   1.328
  969TIP3    H2 2914   4.762   0.246   1.465
  970TIP3   OH2 2915   5.751   4.965   3.917
  970TIP3    H1 2916   5.677   5.003   3.966
  970TIP3    H2 2917   5.826   5.019   3.941
  971TIP3   OH2 2918   5.302   3.738   1.788
  971TIP3    H1 2919   5.288   3.667   1.851
  971TIP3    H2 2920   5.225   3.794   1.798
  972TIP3   OH2 2921   1.007   3.824   4.107
  972TIP3    H1 2922   1.048   3.822   4.193
  972TIP3    H2 2923   0.917   3.793   4.122
  973TIP3   OH2 2924   2.826   0.982   2.534
  973TIP3    H1 2925   2.912   1.006   2.568
  973TIP3    H2 2926   2.765   1.044   2.574
  974TIP3   OH2 2927   4.676   0.585   0.106
  974TIP3    H1 2928   4.634   0.656   0.155
  974TIP3    H2 2929   4.769   0.591   0.131
  975TIP3   OH2 2930   5.182   5.733   2.060
  975TIP3    H1 2931   5.132   5.809   2.031
  975TIP3    H2 2932   5.268   5.745   2.019
  976TIP3   OH2 2933   6.091   0.140   2.485
  976TIP3    H1 2934   6.133   0.148   2.399
  976TIP3    H2 2935   6.163   0.126   2.546
  977TIP3   OH2 2936   3.357   0.650   2.479
  977TIP3    H1 2937   3.279   0.697   2.450
  977TIP3    H2 2938   3.343   0.639   2.573
  978TIP3   OH2 2939   0.936   3.196   3.865
  978TIP3    H1 2940   0.930   3.290   3.878
  978TIP3    H2 2941   0.993   3.186   3.788
  979TIP3   OH2 2942   4.157   1.851   3.175
  979TIP3    H1 2943   4.168   1.882   3.265
  979TIP3    H2 2944   4.225   1.897   3.125
  980TIP3   OH2 2945   4.468   0.187   1.510
  980TIP3    H1 2946   4.549   0.238   1.511
  980TIP3    H2 2947   4.464   0.149   1.423
  981TIP3   OH2 2948   4.844   0.548   5.148
  981TIP3    H1 2949   4.927   0.502   5.159
  981TIP3    H2 2950   4.838   0.606   5.224
  982TIP3   OH2 2951   5.781   2.175   4.469
  982TIP3    H1 2952   5.827   2.212   4.544
  982TIP3    H2 2953   5.796   2.081   4.474
  983TIP3   OH2 2954   1.219   1.166   1.935
  983TIP3    H1 2955   1.168   1.221   1.995
  983TIP3    H2 2956   1.256   1.098   1.992
  984TIP3   OH2 2957   1.310   2.940   1.666
  984TIP3    H1 2958   1.325   2.953   1.759
  984TIP3    H2 2959   1.235   2.996   1.646
  985TIP3   OH2 2960   0.745   4.994   1.439
  985TIP3    H1 2961   0.701   4.919   1.479
  985TIP3    H2 2962   0.741   5.063   1.505
  986TIP3   OH2 2963   1.927   5.508   4.569
  986TIP3    H1 2964   1.969   5.591   4.593
  986TIP3    H2 2965   1.947   5.497   4.476
  987TIP3   OH2 2966   2.089   1.326   0.740
  987TIP3    H1 2967   2.182   1.318   0.759
  987TIP3    H2 2968   2.049   1.353   0.822
  988TIP3   OH2 2969   3.194   4.663   1.673
  988TIP3    H1 2970   3.147   4.709   1.603
  988TIP3    H2 2971   3.195   4.572   1.645
  989TIP3   OH2 2972   3.508   1.359   2.922
  989TIP3    H1 2973   3.509   1.264   2.932
  989TIP3    H2 2974   3.548   1.374   2.837
  990TIP3   OH2 2975   2.065   5.900   0.179
  990TIP3    H1 2976   2.094   5.809   0.180
  990TIP3    H2 2977   2.029   5.913   0.091
  991TIP3   OH2 2978   2.318   4.867   0.173
  991TIP3    H1 2979   2.266   4.876   0.094
  991TIP3    H2 2980   2.382   4.798   0.152
  992TIP3   OH2 2981   5.572   4.243   1.527
  992TIP3    H1 2982   5.587   4.230   1.621
  992TIP3    H2 2983   5.658   4.266   1.492
  993TIP3   OH2 2984   1.096   4.414   1.882
  993TIP3    H1 2985   1.165   4.421   1.949
  993TIP3    H2 2986   1.082   4.505   1.854
  994TIP3   OH2 2987   3.582   4.375   2.080
  994TIP3    H1 2988   3.631   4.348   2.003
  994TIP3    H2 2989   3.526   4.447   2.049
  995TIP3   OH2 2990   6.099   1.739   3.004
  995TIP3    H1 2991   6.169   1.788   2.960
  995TIP3    H2 2992   6.025   1.799   3.006
  996TIP3   OH2 2993   4.107   4.604   4.312
  996TIP3    H1 2994   4.125   4.514   4.284
  996TIP3    H2 2995   4.132   4.658   4.237
  997TIP3   OH2 2996   3.776   1.752   2.279
  997TIP3    H1 2997   3.791   1.672   2.230
  997TIP3    H2 2998   3.798   1.822   2.218
  998TIP3   OH2 2999   2.961   3.988   2.951
  998TIP3    H1 3000   3.046   4.028   2.930
  998TIP3    H2 3001   2.982   3.915   3.009
  999TIP3   OH2 3002   6.352   4.391   3.130
  999TIP3    H1 3003   6.433   4.418   3.087
  999TIP3    H2 3004   6.283   4.416   3.068
 1000TIP3   OH2 3005   2.167   4.335   1.435
 1000TIP3    H1 3006   2.232   4.389   1.389
 1000TIP3    H2 3007   2.084   4.381   1.421
 1001TIP3   OH2 3008   6.084   3.549   4.004
 1001TIP3    H1 3009   6.171   3.538   4.043
 1001TIP3    H2 3010   6.027   3.566   4.079
 1002TIP3   OH2 3011   3.307   4.177   2.257
 1002TIP3    H1 3012   3.403   4.178   2.258
 1002TIP3    H2 3013   3.284   4.089   2.286
 1003TIP3   OH2 3014   5.401   3.803   5.031
 1003TIP3    H1 3015   5.333   3.760   4.979
 1003TIP3    H2 3016   5.395   3.895   5.007
 1004TIP3   OH2 3017   0.519   1.332   4.372
 1004TIP3    H1 3018   0.485   1.412   4.411
 1004TIP3    H2 3019   0.477   1.261   4.421
 1005TIP3   OH2 3020   0.473   5.086   3.859
 1005TIP3    H1 3021   0.420   5.147   3.807
 1005TIP3    H2 3022   0.413   5.015   3.882
 1006TIP3   OH2 3023   3.847   3.121   3.311
 1006TIP3    H1 3024   3.855   3.215   3.325
 1006TIP3    H2 3025   3.883   3.082   3.391
 1007TIP3   OH2 3026   4.796   3.348   0.980
 1007TIP3    H1 3027   4.725   3.361   1.042
 1007TIP3    H2 3028   4.849   3.278   1.019
 1008TIP3   OH2 3029   2.248   4.291   1.717
 1008TIP3    H1 3030   2.171   4.288   1.660
 1008TIP3    H2 3031   2.252   4.383   1.744
 1009TIP3   OH2 3032   5.513   4.929   2.999
 1009TIP3    H1 3033   5.564   4.974   3.066
 1009TIP3    H2 3034   5.517   4.837   3.023
 1010TIP3   OH2 3035   4.523   3.882   4.975
 1010TIP3    H1 3036   4.560   3.898   5.062
 1010TIP3    H2 3037   4.443   3.935   4.973
 1011TIP3   OH2 3038   5.787   0.245   4.689
 1011TIP3    H1 3039   5.840   0.313   4.648
 1011TIP3    H2 3040   5.757   0.285   4.771
 1012TIP3   OH2 3041   4.394   5.090   0.690
 1012TIP3    H1 3042   4.404   5.182   0.668
 1012TIP3    H2 3043   4.481   5.052   0.677
 1013TIP3   OH2 3044   5.097   3.329   2.232
 1013TIP3    H1 3045   5.030   3.369   2.287
 1013TIP3    H2 3046   5.058   3.324   2.145
 1014TIP3   OH2 3047   4.480   4.378   3.623
 1014TIP3    H1 3048   4.458   4.305   3.681
 1014TIP3    H2 3049   4.484   4.339   3.535
 1015TIP3   OH2 3050   3.322   5.348   4.695
 1015TIP3    H1 3051   3.361   5.262   4.710
 1015TIP3    H2 3052   3.352   5.373   4.608
 1016TIP3   OH2 3053   2.226   0.203   2.762
 1016TIP3    H1 3054   2.237   0.209   2.668
 1016TIP3    H2 3055   2.144   0.156   2.774
 1017TIP3   OH2 3056   0.369   2.828   1.222
 1017TIP3    H1 3057   0.390   2.751   1.274
 1017TIP3    H2 3058   0.448   2.882   1.227
 1018TIP3   OH2 3059   0.753   0.550   3.830
 1018TIP3    H1 3060   0.801   0.482   3.878
 1018TIP3    H2 3061   0.661   0.528   3.843
 1019TIP3   OH2 3062   1.971   0.615   4.694
 1019TIP3    H1 3063   1.911   0.689   4.700
 1019TIP3    H2 3064   1.933   0.558   4.627
 1020TIP3   OH2 3065   3.640   3.310   4.640
 1020TIP3    H1 3066   3.567   3.357   4.680
 1020TIP3    H2 3067   3.642   3.226   4.685
 1021TIP3   OH2 3068   4.867   2.557   0.677
 1021TIP3    H1 3069   4.819   2.631   0.716
 1021TIP3    H2 3070   4.800   2.490   0.665
 1022TIP3   OH2 3071   5.704   4.386   4.719
 1022TIP3    H1 3072   5.683   4.479   4.708
 1022TIP3    H2 3073   5.789   4.375   4.676
 1023TIP3   OH2 3074   2.992   2.661   3.491
 1023TIP3    H1 3075   2.977   2.751   3.461
 1023TIP3    H2 3076   3.085   2.646   3.477
 1024TIP3   OH2 3077   0.283   4.575   4.753
 1024TIP3    H1 3078   0.215   4.632   4.718
 1024TIP3    H2 3079   0.307   4.518   4.680
 1025TIP3   OH2 3080   0.049   3.606   3.226
 1025TIP3    H1 3081   0.081   3.665   3.294
 1025TIP3    H2 3082  -0.009   3.661   3.172
 1026TIP3   OH2 3083   3.678   0.175   1.472
 1026TIP3    H1 3084   3.613   0.192   1.404
 1026TIP3    H2 3085   3.664   0.083   1.496
 1027TIP3   OH2 3086   3.088   0.445   2.566
 1027TIP3    H1 3087   3.115   0.397   2.487
 1027TIP3    H2 3088   2.994   0.432   2.571
 1028TIP3   OH2 3089   0.003   1.195   3.927
 1028TIP3    H1 3090  -0.041   1.193   4.011
 1028TIP3    H2 3091   0.081   1.248   3.942
 1029TIP3   OH2 3092   3.756   0.668   4.615
 1029TIP3    H1 3093   3.803   0.667   4.531
 1029TIP3    H2 3094   3.825   0.671   4.681
 1030TIP3   OH2 3095   4.739   0.255   3.927
 1030TIP3    H1 3096   4.658   0.254   3.977
 1030TIP3    H2 3097   4.780   0.339   3.949
 1031TIP3   OH2 3098   0.141   4.708   1.725
 1031TIP3    H1 3099   0.127   4.674   1.814
 1031TIP3    H2 3100   0.184   4.636   1.679
 1032TIP3   OH2 3101   0.259   1.868   3.866
 1032TIP3    H1 3102   0.175   1.842   3.826
 1032TIP3    H2 3103   0.323   1.809   3.827
 1033TIP3   OH2 3104   0.601   3.795   2.120
 1033TIP3    H1 3105   0.546   3.863   2.081
 1033TIP3    H2 3106   0.674   3.842   2.159
 1034TIP3   OH2 3107   5.964   4.656   2.105
 1034TIP3    H1 3108   6.022   4.603   2.160
 1034TIP3    H2 3109   5.877   4.619   2.117
 1035TIP3   OH2 3110   1.124   4.873   1.361
 1035TIP3    H1 3111   1.130   4.815   1.437
 1035TIP3    H2 3112   1.099   4.816   1.289
 1036TIP3   OH2 3113   3.378   0.916   0.223
 1036TIP3    H1 3114   3.366   0.987   0.287
 1036TIP3    H2 3115   3.423   0.958   0.150
 1037TIP3   OH2 3116   1.745   4.725   4.240
 1037TIP3    H1 3117   1.777   4.729   4.330
 1037TIP3    H2 3118   1.816   4.682   4.192
 1038TIP3   OH2 3119   1.816   4.897   1.642
 1038TIP3    H1 3120   1.773   4.816   1.613
 1038TIP3    H2 3121   1.806   4.957   1.568
 1039TIP3   OH2 3122   2.810   0.743   1.908
 1039TIP3    H1 3123   2.904   0.749   1.892
 1039TIP3    H2 3124   2.771   0.804   1.845
 1040TIP3   OH2 3125   4.586   0.857   0.963
 1040TIP3    H1 3126   4.590   0.889   1.053
 1040TIP3    H2 3127   4.510   0.798   0.961
 1041TIP3   OH2 3128   5.739   5.490   4.345
 1041TIP3    H1 3129   5.833   5.490   4.365
 1041TIP3    H2 3130   5.725   5.572   4.298
 1042TIP3   OH2 3131   1.398   3.332   1.216
 1042TIP3    H1 3132   1.327   3.273   1.190
 1042TIP3    H2 3133   1.407   3.319   1.310
 1043TIP3   OH2 3134   3.449   0.788   1.942
 1043TIP3    H1 3135   3.391   0.838   1.885
 1043TIP3    H2 3136   3.513   0.748   1.882
 1044TIP3   OH2 3137   5.888   1.757   0.920
 1044TIP3    H1 3138   5.901   1.736   0.827
 1044TIP3    H2 3139   5.822   1.694   0.950
 1045TIP3   OH2 3140   2.549   1.898   2.456
 1045TIP3    H1 3141   2.596   1.823   2.492
 1045TIP3    H2 3142   2.457   1.877   2.470
 1046TIP3   OH2 3143   6.344   0.626   4.272
 1046TIP3    H1 3144   6.253   0.653   4.282
 1046TIP3    H2 3145   6.395   0.701   4.304
 1047TIP3   OH2 3146   4.224   4.848   2.138
 1047TIP3    H1 3147   4.189   4.844   2.227
 1047TIP3    H2 3148   4.152   4.820   2.082
 1048TIP3   OH2 3149   5.254   4.626   0.562
 1048TIP3    H1 3150   5.176   4.677   0.583
 1048TIP3    H2 3151   5.231   4.536   0.585
 1049TIP3   OH2 3152   4.902   4.680   3.179
 1049TIP3    H1 3153   4.901   4.607   3.116
 1049TIP3    H2 3154   4.968   4.655   3.244
 1050TIP3   OH2 3155   1.485   5.263   3.837
 1050TIP3    H1 3156   1.454   5.214   3.913
 1050TIP3    H2 3157   1.450   5.216   3.762
 1051TIP3   OH2 3158   0.713   2.595   3.104
 1051TIP3    H1 3159   0.628   2.629   3.076
 1051TIP3    H2 3160   0.719   2.509   3.063
 1052TIP3   OH2 3161   1.858   1.479   0.874
 1052TIP3    H1 3162   1.789   1.456   0.937
 1052TIP3    H2 3163   1.872   1.573   0.888
 1053TIP3   OH2 3164   3.259   5.743   0.041
 1053TIP3    H1 3165   3.299   5.824   0.011
 1053TIP3    H2 3166   3.173   5.770   0.073
 1054TIP3   OH2 3167   3.685   5.769   2.191
 1054TIP3    H1 3168   3.680   5.690   2.244
 1054TIP3    H2 3169   3.717   5.739   2.106
 1055TIP3   OH2 3170   0.104   5.024   4.296
 1055TIP3    H1 3171   0.197   5.001   4.293
 1055TIP3    H2 3172   0.103   5.118   4.278
 1056TIP3   OH2 3173   5.791   5.253   0.346
 1056TIP3    H1 3174   5.711   5.270   0.296
 1056TIP3    H2 3175   5.788   5.160   0.367
 1057TIP3   OH2 3176   4.624   5.182   4.675
 1057TIP3    H1 3177   4.680   5.219   4.607
 1057TIP3    H2 3178   4.597   5.097   4.641
 1058TIP3   OH2 3179   5.984   3.776   0.205
 1058TIP3    H1 3180   6.007   3.712   0.271
 1058TIP3    H2 3181   5.964   3.856   0.254
 1059TIP3   OH2 3182   0.976   1.410   1.356
 1059TIP3    H1 3183   0.988   1.467   1.432
 1059TIP3    H2 3184   0.998   1.322   1.388
 1060TIP3   OH2 3185   5.728   1.888   4.471
 1060TIP3    H1 3186   5.807   1.880   4.418
 1060TIP3    H2 3187   5.683   1.804   4.459
 1061TIP3   OH2 3188   4.803   0.714   1.553
 1061TIP3    H1 3189   4.896   0.704   1.531
 1061TIP3    H2 3190   4.792   0.808   1.568
 1062TIP3   OH2 3191   1.079   2.650   4.043
 1062TIP3    H1 3192   1.158   2.629   4.092
 1062TIP3    H2 3193   1.045   2.730   4.084
 1063TIP3   OH2 3194   2.833   2.295   0.888
 1063TIP3    H1 3195   2.848   2.208   0.925
 1063TIP3    H2 3196   2.875   2.291   0.802
 1064TIP3   OH2 3197   3.530   1.854   2.342
 1064TIP3    H1 3198   3.610   1.813   2.311
 1064TIP3    H2 3199   3.466   1.838   2.273
 1065TIP3   OH2 3200   0.254   1.145   1.797
 1065TIP3    H1 3201   0.327   1.093   1.762
 1065TIP3    H2 3202   0.293   1.226   1.827
 1066TIP3   OH2 3203   2.745   4.658   1.221
 1066TIP3    H1 3204   2.730   4.752   1.221
 1066TIP3    H2 3205   2.696   4.626   1.296
 1067TIP3   OH2 3206   4.744   1.902   3.626
 1067TIP3    H1 3207   4.698   1.919   3.708
 1067TIP3    H2 3208   4.692   1.834   3.583
 1068TIP3   OH2 3209   0.311   0.331   2.030
 1068TIP3    H1 3210   0.369   0.259   2.004
 1068TIP3    H2 3211   0.345   0.407   1.982
 1069TIP3   OH2 3212   3.041   5.901   2.286
 1069TIP3    H1 3213   2.980   5.922   2.356
 1069TIP3    H2 3214   2.993   5.919   2.205
 1070TIP3   OH2 3215   0.653   3.867   3.672
 1070TIP3    H1 3216   0.687   3.821   3.749
 1070TIP3    H2 3217   0.573   3.910   3.703
 1071TIP3   OH2 3218   2.140   5.839   2.698
 1071TIP3    H1 3219   2.212   5.778   2.683
 1071TIP3    H2 3220   2.075   5.789   2.747
 1072TIP3   OH2 3221   3.380   1.460   3.764
 1072TIP3    H1 3222   3.429   1.434   3.842
 1072TIP3    H2 3223   3.334   1.381   3.736
 1073TIP3   OH2 3224   5.082   4.662   4.088
 1073TIP3    H1 3225   5.127   4.718   4.151
 1073TIP3    H2 3226   5.008   4.625   4.136
 1074TIP3   OH2 3227   0.847   4.411   1.176
 1074TIP3    H1 3228   0.914   4.343   1.179
 1074TIP3    H2 3229   0.839   4.433   1.084
 1075TIP3   OH2 3230   2.428   2.743   1.855
 1075TIP3    H1 3231   2.342   2.770   1.824
 1075TIP3    H2 3232   2.489   2.779   1.791
 1076TIP3   OH2 3233   0.636   4.217   3.872
 1076TIP3    H1 3234   0.598   4.304   3.882
 1076TIP3    H2 3235   0.580   4.174   3.807
 1077TIP3   OH2 3236   1.019   0.314   5.141
 1077TIP3    H1 3237   1.054   0.230   5.168
 1077TIP3    H2 3238   1.013   0.365   5.221
 1078TIP3   OH2 3239   1.664   1.361   3.713
 1078TIP3    H1 3240   1.654   1.436   3.772
 1078TIP3    H2 3241   1.575   1.335   3.691
 1079TIP3   OH2 3242   6.199   3.824   0.589
 1079TIP3    H1 3243   6.185   3.737   0.552
 1079TIP3    H2 3244   6.294   3.830   0.601
 1080TIP3   OH2 3245   5.236   5.022   2.934
 1080TIP3    H1 3246   5.191   4.947   2.973
 1080TIP3    H2 3247   5.329   5.002   2.946
 1081TIP3   OH2 3248   3.811   4.002   0.142
 1081TIP3    H1 3249   3.864   3.928   0.171
 1081TIP3    H2 3250   3.816   4.064   0.214
 1082TIP3   OH2 3251   0.500   3.605   3.319
 1082TIP3    H1 3252   0.560   3.552   3.372
 1082TIP3    H2 3253   0.413   3.571   3.340
 1083TIP3   OH2 3254   1.490   1.560   1.565
 1083TIP3    H1 3255   1.568   1.563   1.621
 1083TIP3    H2 3256   1.492   1.642   1.516
 1084TIP3   OH2 3257   5.350   4.843   4.156
 1084TIP3    H1 3258   5.358   4.793   4.236
 1084TIP3    H2 3259   5.322   4.930   4.184
 1085TIP3   OH2 3260   0.015   2.872   0.161
 1085TIP3    H1 3261   0.018   2.920   0.077
 1085TIP3    H2 3262   0.041   2.938   0.226
 1086TIP3   OH2 3263   4.222   0.793   2.106
 1086TIP3    H1 3264   4.143   0.843   2.124
 1086TIP3    H2 3265   4.196   0.730   2.039
 1087TIP3   OH2 3266   3.484   4.228   3.907
 1087TIP3    H1 3267   3.502   4.181   3.825
 1087TIP3    H2 3268   3.570   4.242   3.946
 1088TIP3   OH2 3269   3.489   0.086   4.872
 1088TIP3    H1 3270   3.527   0.025   4.934
 1088TIP3    H2 3271   3.448   0.031   4.805
 1089TIP3   OH2 3272   2.340   1.342   2.457
 1089TIP3    H1 3273   2.400   1.267   2.452
 1089TIP3    H2 3274   2.303   1.350   2.369
 1090TIP3   OH2 3275   0.471   1.054   1.426
 1090TIP3    H1 3276   0.454   0.991   1.356
 1090TIP3    H2 3277   0.462   1.139   1.385
 1091TIP3   OH2 3278   3.881   0.883   4.814
 1091TIP3    H1 3279   3.803   0.930   4.785
 1091TIP3    H2 3280   3.953   0.944   4.797
 1092TIP3   OH2 3281   4.449   5.099   2.721
 1092TIP3    H1 3282   4.474   5.152   2.796
 1092TIP3    H2 3283   4.355   5.114   2.712
 1093TIP3   OH2 3284   4.718   0.225   1.164
 1093TIP3    H1 3285   4.763   0.290   1.111
 1093TIP3    H2 3286   4.761   0.142   1.144
 1094TIP3   OH2 3287   0.593   1.218   2.143
 1094TIP3    H1 3288   0.535   1.145   2.119
 1094TIP3    H2 3289   0.662   1.177   2.195
 1095TIP3   OH2 3290   3.884   1.469   3.014
 1095TIP3    H1 3291   3.898   1.397   3.075
 1095TIP3    H2 3292   3.879   1.547   3.069
 1096TIP3   OH2 3293   0.454   5.732   2.863
 1096TIP3    H1 3294   0.447   5.771   2.776
 1096TIP3    H2 3295   0.545   5.702   2.869
 1097TIP3   OH2 3296   5.884   4.722   4.769
 1097TIP3    H1 3297   5.873   4.677   4.685
 1097TIP3    H2 3298   5.878   4.815   4.747
 1098TIP3   OH2 3299   1.174   5.851   2.988
 1098TIP3    H1 3300   1.138   5.806   2.911
 1098TIP3    H2 3301   1.193   5.780   3.050
 1099TIP3   OH2 3302   0.774   0.202   3.650
 1099TIP3    H1 3303   0.771   0.158   3.566
 1099TIP3    H2 3304   0.851   0.260   3.644
 1100TIP3   OH2 3305   1.546   0.061   0.679
 1100TIP3    H1 3306   1.593   0.142   0.696
 1100TIP3    H2 3307   1.613  -0.007   0.683
 1101TIP3   OH2 3308   1.552   4.062   1.285
 1101TIP3    H1 3309   1.599   4.111   1.352
 1101TIP3    H2 3310   1.568   4.111   1.204
 1102TIP3   OH2 3311   6.180   1.979   0.446
 1102TIP3    H1 3312   6.135   1.901   0.415
 1102TIP3    H2 3313   6.164   1.980   0.541
 1103TIP3   OH2 3314   2.084   3.431   1.981
 1103TIP3    H1 3315   2.145   3.370   1.939
 1103TIP3    H2 3316   2.141   3.497   2.021
 1104TIP3   OH2 3317   6.017   5.751   3.096
 1104TIP3    H1 3318   5.971   5.667   3.099
 1104TIP3    H2 3319   5.948   5.815   3.079
 1105TIP3   OH2 3320   5.811   1.731   2.395
 1105TIP3    H1 3321   5.800   1.772   2.309
 1105TIP3    H2 3322   5.842   1.643   2.376
 1106TIP3   OH2 3323   1.053   0.394   3.256
 1106TIP3    H1 3324   0.997   0.417   3.182
 1106TIP3    H2 3325   1.142   0.418   3.228
 1107TIP3   OH2 3326   6.102   0.296   5.083
 1107TIP3    H1 3327   6.127   0.273   4.993
 1107TIP3    H2 3328   6.182   0.283   5.134
 1108TIP3   OH2 3329   5.045   3.798   2.790
 1108TIP3    H1 3330   4.997   3.848   2.857
 1108TIP3    H2 3331   4.977   3.762   2.734
 1109TIP3   OH2 3332   2.451   0.987   2.659
 1109TIP3    H1 3333   2.492   1.037   2.588
 1109TIP3    H2 3334   2.458   0.895   2.631
 1110TIP3   OH2 3335   4.355   1.860   1.053
 1110TIP3    H1 3336   4.391   1.902   1.132
 1110TIP3    H2 3337   4.263   1.886   1.052
 1111TIP3   OH2 3338   5.979   3.215   4.135
 1111TIP3    H1 3339   5.899   3.268   4.127
 1111TIP3    H2 3340   6.006   3.198   4.045
 1112TIP3   OH2 3341   2.697   4.609   2.618
 1112TIP3    H1 3342   2.791   4.591   2.616
 1112TIP3    H2 3343   2.685   4.671   2.690
 1113TIP3   OH2 3344   1.928   4.242   3.349
 1113TIP3    H1 3345   2.013   4.205   3.374
 1113TIP3    H2 3346   1.926   4.328   3.391
 1114TIP3   OH2 3347   5.342   4.189   4.066
 1114TIP3    H1 3348   5.281   4.260   4.044
 1114TIP3    H2 3349   5.428   4.227   4.054
 1115TIP3   OH2 3350   3.049   2.441   1.225
 1115TIP3    H1 3351   2.995   2.511   1.262
 1115TIP3    H2 3352   3.076   2.476   1.140
 1116TIP3   OH2 3353   2.630   0.951   1.814
 1116TIP3    H1 3354   2.596   1.012   1.749
 1116TIP3    H2 3355   2.551   0.913   1.854
 1117TIP3   OH2 3356   3.633   3.603   0.396
 1117TIP3    H1 3357   3.627   3.511   0.369
 1117TIP3    H2 3358   3.593   3.605   0.483
 1118TIP3   OH2 3359   1.687   1.083   3.435
 1118TIP3    H1 3360   1.768   1.134   3.436
 1118TIP3    H2 3361   1.703   1.011   3.495
 1119TIP3   OH2 3362   2.289   1.925   3.120
 1119TIP3    H1 3363   2.211   1.932   3.066
 1119TIP3    H2 3364   2.352   1.984   3.080
 1120TIP3   OH2 3365   5.983   3.145   3.849
 1120TIP3    H1 3366   5.975   3.231   3.808
 1120TIP3    H2 3367   6.055   3.103   3.803
 1121TIP3   OH2 3368   2.380   3.829   1.038
 1121TIP3    H1 3369   2.296   3.858   1.073
 1121TIP3    H2 3370   2.358   3.764   0.972
 1122TIP3   OH2 3371   2.623   2.081   4.356
 1122TIP3    H1 3372   2.637   2.098   4.263
 1122TIP3    H2 3373   2.531   2.103   4.371
 1123TIP3   OH2 3374   2.652   2.577   3.203
 1123TIP3    H1 3375   2.657   2.521   3.280
 1123TIP3    H2 3376   2.562   2.609   3.202
 1124TIP3   OH2 3377   2.865   2.238   1.264
 1124TIP3    H1 3378   2.938   2.294   1.237
 1124TIP3    H2 3379   2.866   2.241   1.360
 1125TIP3   OH2 3380   1.373   5.896   0.335
 1125TIP3    H1 3381   1.440   5.965   0.343
 1125TIP3    H2 3382   1.364   5.882   0.241
 1126TIP3   OH2 3383   4.445   0.508   0.459
 1126TIP3    H1 3384   4.485   0.523   0.545
 1126TIP3    H2 3385   4.399   0.425   0.468
 1127TIP3   OH2 3386   5.460   2.591   4.205
 1127TIP3    H1 3387   5.534   2.626   4.254
 1127TIP3    H2 3388   5.409   2.544   4.271
 1128TIP3   OH2 3389   3.994   5.229   4.455
 1128TIP3    H1 3390   3.961   5.148   4.494
 1128TIP3    H2 3391   4.036   5.201   4.373
 1129TIP3   OH2 3392   0.130   2.118   4.811
 1129TIP3    H1 3393   0.212   2.124   4.762
 1129TIP3    H2 3394   0.128   2.197   4.865
 1130TIP3   OH2 3395   0.088   3.955   4.078
 1130TIP3    H1 3396   0.101   3.996   4.164
 1130TIP3    H2 3397  -0.004   3.970   4.059
 1131TIP3   OH2 3398   3.070   2.041   0.346
 1131TIP3    H1 3399   3.123   1.970   0.310
 1131TIP3    H2 3400   3.011   1.998   0.408
 1132TIP3   OH2 3401   3.277   5.965   2.169
 1132TIP3    H1 3402   3.338   5.920   2.227
 1132TIP3    H2 3403   3.192   5.956   2.211
 1133TIP3   OH2 3404   2.503   4.313   1.637
 1133TIP3    H1 3405   2.490   4.408   1.641
 1133TIP3    H2 3406   2.416   4.276   1.650
 1134TIP3   OH2 3407   2.695   3.935   2.220
 1134TIP3    H1 3408   2.684   3.906   2.129
 1134TIP3    H2 3409   2.787   3.919   2.239
 1135TIP3   OH2 3410   3.696   1.363   1.594
 1135TIP3    H1 3411   3.676   1.271   1.611
 1135TIP3    H2 3412   3.790   1.365   1.577
 1136TIP3   OH2 3413   1.819   3.941   4.544
 1136TIP3    H1 3414   1.803   3.890   4.623
 1136TIP3    H2 3415   1.868   4.018   4.575
 1137TIP3   OH2 3416   1.512   3.339   0.076
 1137TIP3    H1 3417   1.512   3.244   0.073
 1137TIP3    H2 3418   1.536   3.366  -0.013
 1138TIP3   OH2 3419   4.556   4.626   2.461
 1138TIP3    H1 3420   4.589   4.715   2.469
 1138TIP3    H2 3421   4.627   4.571   2.493
 1139TIP3   OH2 3422   4.421   0.686   3.985
 1139TIP3    H1 3423   4.516   0.674   3.987
 1139TIP3    H2 3424   4.394   0.676   4.076
 1140TIP3   OH2 3425   4.244   5.493   4.268
 1140TIP3    H1 3426   4.311   5.534   4.213
 1140TIP3    H2 3427   4.254   5.536   4.353
 1141TIP3   OH2 3428   5.678   0.888   3.696
 1141TIP3    H1 3429   5.609   0.853   3.752
 1141TIP3    H2 3430   5.686   0.825   3.624
 1142TIP3   OH2 3431   5.559   4.826   3.778
 1142TIP3    H1 3432   5.633   4.870   3.819
 1142TIP3    H2 3433   5.576   4.833   3.684
 1143TIP3   OH2 3434   4.679   3.634   2.366
 1143TIP3    H1 3435   4.771   3.614   2.383
 1143TIP3    H2 3436   4.649   3.563   2.311
 1144TIP3   OH2 3437   0.624   3.681   0.186
 1144TIP3    H1 3438   0.541   3.715   0.218
 1144TIP3    H2 3439   0.668   3.648   0.265
 1145TIP3   OH2 3440   2.906   4.618   1.553
 1145TIP3    H1 3441   2.858   4.543   1.519
 1145TIP3    H2 3442   2.992   4.612   1.512
 1146TIP3   OH2 3443   5.677   5.621   3.967
 1146TIP3    H1 3444   5.716   5.643   4.052
 1146TIP3    H2 3445   5.600   5.569   3.990
 1147TIP3   OH2 3446   2.245   0.071   3.087
 1147TIP3    H1 3447   2.331   0.058   3.127
 1147TIP3    H2 3448   2.228  -0.010   3.040
 1148TIP3   OH2 3449   0.556   1.670   4.801
 1148TIP3    H1 3450   0.636   1.617   4.792
 1148TIP3    H2 3451   0.531   1.659   4.892
 1149TIP3   OH2 3452   3.279   5.986   3.002
 1149TIP3    H1 3453   3.237   5.997   3.087
 1149TIP3    H2 3454   3.207   5.974   2.940
 1150TIP3   OH2 3455   2.632   2.840   2.020
 1150TIP3    H1 3456   2.693   2.773   2.050
 1150TIP3    H2 3457   2.561   2.792   1.979
 1151TIP3   OH2 3458   1.509   1.759   3.905
 1151TIP3    H1 3459   1.557   1.692   3.857
 1151TIP3    H2 3460   1.429   1.715   3.934
 1152TIP3   OH2 3461   6.162   1.418   5.158
 1152TIP3    H1 3462   6.146   1.512   5.151
 1152TIP3    H2 3463   6.163   1.386   5.068
 1153TIP3   OH2 3464   0.375   3.134   2.800
 1153TIP3    H1 3465   0.282   3.141   2.778
 1153TIP3    H2 3466   0.419   3.190   2.737
 1154TIP3   OH2 3467   2.091   5.492   2.051
 1154TIP3    H1 3468   2.133   5.465   1.969
 1154TIP3    H2 3469   2.083   5.587   2.044
 1155TIP3   OH2 3470   1.328   0.556   3.694
 1155TIP3    H1 3471   1.274   0.561   3.615
 1155TIP3    H2 3472   1.275   0.598   3.762
 1156TIP3   OH2 3473   3.261   0.507   3.628
 1156TIP3    H1 3474   3.265   0.426   3.578
 1156TIP3    H2 3475   3.290   0.483   3.716
 1157TIP3   OH2 3476   0.034   3.033   1.248
 1157TIP3    H1 3477   0.020   2.969   1.178
 1157TIP3    H2 3478   0.105   3.088   1.215
 1158TIP3   OH2 3479   0.908   3.323   3.357
 1158TIP3    H1 3480   0.974   3.393   3.360
 1158TIP3    H2 3481   0.871   3.329   3.268
 1159TIP3   OH2 3482   0.459   0.156   1.184
 1159TIP3    H1 3483   0.457   0.075   1.236
 1159TIP3    H2 3484   0.471   0.126   1.094
 1160TIP3   OH2 3485   2.787   1.537   3.643
 1160TIP3    H1 3486   2.843   1.560   3.717
 1160TIP3    H2 3487   2.848   1.523   3.571
 1161TIP3   OH2 3488   1.345   1.745   0.234
 1161TIP3    H1 3489   1.414   1.800   0.270
 1161TIP3    H2 3490   1.392   1.668   0.200
 1162TIP3   OH2 3491   1.701   5.465   2.355
 1162TIP3    H1 3492   1.691   5.387   2.409
 1162TIP3    H2 3493   1.755   5.437   2.281
 1163TIP3   OH2 3494   3.687   0.183   3.276
 1163TIP3    H1 3495   3.620   0.236   3.320
 1163TIP3    H2 3496   3.641   0.105   3.247
 1164TIP3   OH2 3497   5.651   2.354   0.816
 1164TIP3    H1 3498   5.559   2.363   0.844
 1164TIP3    H2 3499   5.656   2.405   0.734
 1165TIP3   OH2 3500   4.171   1.752   2.714
 1165TIP3    H1 3501   4.189   1.668   2.757
 1165TIP3    H2 3502   4.174   1.731   2.620
 1166TIP3   OH2 3503   5.518   3.118   3.334
 1166TIP3    H1 3504   5.550   3.039   3.378
 1166TIP3    H2 3505   5.434   3.136   3.376
 1167TIP3   OH2 3506   3.049   3.084   3.248
 1167TIP3    H1 3507   3.022   3.106   3.337
 1167TIP3    H2 3508   2.990   3.135   3.192
 1168TIP3   OH2 3509   0.896   0.627   1.810
 1168TIP3    H1 3510   0.922   0.644   1.900
 1168TIP3    H2 3511   0.867   0.536   1.810
 1169TIP3   OH2 3512   0.389   5.962   2.663
 1169TIP3    H1 3513   0.481   5.955   2.638
 1169TIP3    H2 3514   0.341   5.924   2.590
 1170TIP3   OH2 3515   2.108   5.984   2.029
 1170TIP3    H1 3516   2.088   6.073   2.058
 1170TIP3    H2 3517   2.162   5.947   2.099
 1171TIP3   OH2 3518   1.711   3.157   1.689
 1171TIP3    H1 3519   1.779   3.204   1.737
 1171TIP3    H2 3520   1.632   3.166   1.742
 1172TIP3   OH2 3521   5.609   1.858   2.945
 1172TIP3    H1 3522   5.552   1.798   2.993
 1172TIP3    H2 3523   5.559   1.939   2.937
 1173TIP3   OH2 3524   1.261   2.279   3.397
 1173TIP3    H1 3525   1.201   2.346   3.430
 1173TIP3    H2 3526   1.206   2.202   3.383
 1174TIP3   OH2 3527   5.632   0.203   0.194
 1174TIP3    H1 3528   5.537   0.210   0.194
 1174TIP3    H2 3529   5.650   0.118   0.154
 1175TIP3   OH2 3530   4.587   5.094   4.970
 1175TIP3    H1 3531   4.618   5.150   4.899
 1175TIP3    H2 3532   4.662   5.040   4.993
 1176TIP3   OH2 3533   0.137   0.613   4.023
 1176TIP3    H1 3534   0.093   0.674   3.964
 1176TIP3    H2 3535   0.078   0.603   4.097
 1177TIP3   OH2 3536   5.630   3.839   2.631
 1177TIP3    H1 3537   5.644   3.793   2.548
 1177TIP3    H2 3538   5.537   3.829   2.649
 1178TIP3   OH2 3539   3.143   5.609   0.644
 1178TIP3    H1 3540   3.081   5.682   0.640
 1178TIP3    H2 3541   3.216   5.642   0.697
 1179TIP3   OH2 3542   0.752   3.065   1.563
 1179TIP3    H1 3543   0.723   2.983   1.522
 1179TIP3    H2 3544   0.672   3.103   1.600
 1180TIP3   OH2 3545   3.270   2.212   5.180
 1180TIP3    H1 3546   3.235   2.123   5.181
 1180TIP3    H2 3547   3.286   2.230   5.087
 1181TIP3   OH2 3548   5.983   1.431   3.417
 1181TIP3    H1 3549   5.902   1.384   3.437
 1181TIP3    H2 3550   5.972   1.460   3.326
 1182TIP3   OH2 3551   4.648   1.943   1.494
 1182TIP3    H1 3552   4.704   1.879   1.449
 1182TIP3    H2 3553   4.691   1.958   1.578
 1183TIP3   OH2 3554   3.750   0.197   0.635
 1183TIP3    H1 3555   3.700   0.166   0.711
 1183TIP3    H2 3556   3.708   0.281   0.612
 1184TIP3   OH2 3557   5.714   4.504   2.113
 1184TIP3    H1 3558   5.661   4.476   2.038
 1184TIP3    H2 3559   5.755   4.424   2.146
 1185TIP3   OH2 3560   2.099   4.967   1.468
 1185TIP3    H1 3561   2.031   5.034   1.480
 1185TIP3    H2 3562   2.093   4.944   1.375
 1186TIP3   OH2 3563   4.184   0.663   3.588
 1186TIP3    H1 3564   4.090   0.651   3.600
 1186TIP3    H2 3565   4.224   0.592   3.637
 1187TIP3   OH2 3566   3.315   0.218   1.193
 1187TIP3    H1 3567   3.269   0.253   1.117
 1187TIP3    H2 3568   3.292   0.125   1.194
 1188TIP3   OH2 3569   5.270   0.899   0.991
 1188TIP3    H1 3570   5.208   0.830   1.014
 1188TIP3    H2 3571   5.273   0.956   1.068
 1189TIP3   OH2 3572   4.068   2.207   0.845
 1189TIP3    H1 3573   4.006   2.255   0.899
 1189TIP3    H2 3574   4.146   2.199   0.899
 1190TIP3   OH2 3575   4.760   0.683   1.111
 1190TIP3    H1 3576   4.695   0.644   1.170
 1190TIP3    H2 3577   4.761   0.776   1.135
 1191TIP3   OH2 3578   2.613   3.347   0.277
 1191TIP3    H1 3579   2.575   3.274   0.228
 1191TIP3    H2 3580   2.542   3.377   0.334
 1192TIP3   OH2 3581   3.971   0.898   2.134
 1192TIP3    H1 3582   3.890   0.905   2.082
 1192TIP3    H2 3583   3.943   0.915   2.224
 1193TIP3   OH2 3584   6.062   3.060   0.360
 1193TIP3    H1 3585   6.142   3.079   0.311
 1193TIP3    H2 3586   6.079   2.975   0.401
 1194TIP3   OH2 3587   1.170   0.351   0.450
 1194TIP3    H1 3588   1.251   0.306   0.472
 1194TIP3    H2 3589   1.106   0.281   0.436
 1195TIP3   OH2 3590   0.230   0.402   0.323
 1195TIP3    H1 3591   0.165   0.411   0.254
 1195TIP3    H2 3592   0.255   0.491   0.346
 1196TIP3   OH2 3593   4.397   0.381   4.386
 1196TIP3    H1 3594   4.437   0.299   4.415
 1196TIP3    H2 3595   4.469   0.444   4.387
 1197TIP3   OH2 3596   3.257   5.108   2.252
 1197TIP3    H1 3597   3.265   5.140   2.342
 1197TIP3    H2 3598   3.330   5.150   2.206
 1198TIP3   OH2 3599   1.949   2.107   3.497
 1198TIP3    H1 3600   1.949   2.034   3.436
 1198TIP3    H2 3601   1.887   2.170   3.458
 1199TIP3   OH2 3602   0.528   2.385   4.016
 1199TIP3    H1 3603   0.485   2.369   3.932
 1199TIP3    H2 3604   0.470   2.344   4.080
 1200TIP3   OH2 3605   5.326   5.380   0.630
 1200TIP3    H1 3606   5.233   5.359   0.637
 1200TIP3    H2 3607   5.340   5.447   0.697
 1201TIP3   OH2 3608   4.224   1.598   4.567
 1201TIP3    H1 3609   4.152   1.564   4.620
 1201TIP3    H2 3610   4.264   1.665   4.622
 1202TIP3   OH2 3611   5.918   3.830   4.468
 1202TIP3    H1 3612   5.901   3.792   4.382
 1202TIP3    H2 3613   5.836   3.819   4.516
 1203TIP3   OH2 3614   4.708   0.060   4.242
 1203TIP3    H1 3615   4.694   0.149   4.209
 1203TIP3    H2 3616   4.629   0.012   4.215
 1204TIP3   OH2 3617   3.880   3.876   3.766
 1204TIP3    H1 3618   3.821   3.906   3.697
 1204TIP3    H2 3619   3.824   3.868   3.843
 1205TIP3   OH2 3620   4.547   4.571   0.226
 1205TIP3    H1 3621   4.507   4.641   0.278
 1205TIP3    H2 3622   4.555   4.609   0.138
 1206TIP3   OH2 3623   3.842   0.055   3.458
 1206TIP3    H1 3624   3.879   0.110   3.527
 1206TIP3    H2 3625   3.814   0.116   3.390
 1207TIP3   OH2 3626   0.376   1.096   3.778
 1207TIP3    H1 3627   0.390   1.002   3.768
 1207TIP3    H2 3628   0.291   1.113   3.738
 1208TIP3   OH2 3629   4.873   3.995   2.440
 1208TIP3    H1 3630   4.866   4.075   2.389
 1208TIP3    H2 3631   4.947   3.948   2.401
 1209TIP3   OH2 3632   1.665   5.603   1.503
 1209TIP3    H1 3633   1.601   5.586   1.572
 1209TIP3    H2 3634   1.616   5.591   1.421
 1210TIP3   OH2 3635   1.425   2.545   0.406
 1210TIP3    H1 3636   1.434   2.561   0.499
 1210TIP3    H2 3637   1.449   2.453   0.395
 1211TIP3   OH2 3638   0.778   5.512   0.030
 1211TIP3    H1 3639   0.855   5.568   0.041
 1211TIP3    H2 3640   0.768   5.468   0.115
 1212TIP3   OH2 3641   2.055   2.110   1.051
 1212TIP3    H1 3642   2.078   2.018   1.045
 1212TIP3    H2 3643   2.110   2.144   1.122
 1213TIP3   OH2 3644   0.178   3.870   2.936
 1213TIP3    H1 3645   0.187   3.964   2.919
 1213TIP3    H2 3646   0.151   3.865   3.028
 1214TIP3   OH2 3647   2.340   3.668   1.701
 1214TIP3    H1 3648   2.329   3.723   1.623
 1214TIP3    H2 3649   2.430   3.686   1.730
 1215TIP3   OH2 3650   0.933   5.781   5.120
 1215TIP3    H1 3651   0.977   5.845   5.064
 1215TIP3    H2 3652   0.999   5.757   5.185
 1216TIP3   OH2 3653   3.704   1.350   0.798
 1216TIP3    H1 3654   3.770   1.286   0.773
 1216TIP3    H2 3655   3.737   1.433   0.762
 1217TIP3   OH2 3656   6.207   5.879   4.041
 1217TIP3    H1 3657   6.234   5.901   3.952
 1217TIP3    H2 3658   6.258   5.802   4.064
 1218TIP3   OH2 3659   0.988   2.945   0.873
 1218TIP3    H1 3660   1.001   2.851   0.861
 1218TIP3    H2 3661   0.963   2.955   0.965
 1219TIP3   OH2 3662   0.964   4.143   0.509
 1219TIP3    H1 3663   1.016   4.094   0.573
 1219TIP3    H2 3664   0.910   4.076   0.466
 1220TIP3   OH2 3665   5.598   4.568   1.125
 1220TIP3    H1 3666   5.654   4.632   1.080
 1220TIP3    H2 3667   5.509   4.600   1.111
 1221TIP3   OH2 3668   5.746   2.519   1.194
 1221TIP3    H1 3669   5.755   2.424   1.198
 1221TIP3    H2 3670   5.831   2.550   1.162
 1222TIP3   OH2 3671   5.735   5.287   3.770
 1222TIP3    H1 3672   5.758   5.251   3.856
 1222TIP3    H2 3673   5.654   5.335   3.784
 1223TIP3   OH2 3674   0.195   5.535   2.393
 1223TIP3    H1 3675   0.200   5.548   2.488
 1223TIP3    H2 3676   0.146   5.454   2.382
 1224TIP3   OH2 3677   2.093   4.810   3.719
 1224TIP3    H1 3678   2.103   4.905   3.715
 1224TIP3    H2 3679   2.179   4.775   3.698
 1225TIP3   OH2 3680   5.783   0.777   1.559
 1225TIP3    H1 3681   5.812   0.692   1.527
 1225TIP3    H2 3682   5.861   0.814   1.600
 1226TIP3   OH2 3683   1.017   5.861   3.996
 1226TIP3    H1 3684   0.924   5.874   4.012
 1226TIP3    H2 3685   1.027   5.867   3.901
 1227TIP3   OH2 3686   0.337   4.700   4.442
 1227TIP3    H1 3687   0.421   4.715   4.487
 1227TIP3    H2 3688   0.304   4.787   4.422
 1228TIP3   OH2 3689   1.524   2.238   3.887
 1228TIP3    H1 3690   1.505   2.164   3.829
 1228TIP3    H2 3691   1.595   2.285   3.845
 1229TIP3   OH2 3692   2.589   1.731   1.265
 1229TIP3    H1 3693   2.499   1.701   1.254
 1229TIP3    H2 3694   2.593   1.813   1.215
 1230TIP3   OH2 3695   0.144   2.336   2.832
 1230TIP3    H1 3696   0.097   2.404   2.880
 1230TIP3    H2 3697   0.124   2.353   2.740
 1231TIP3   OH2 3698   6.047   0.540   4.003
 1231TIP3    H1 3699   6.130   0.581   3.976
 1231TIP3    H2 3700   5.997   0.531   3.922
 1232TIP3   OH2 3701   0.416   5.964   1.678
 1232TIP3    H1 3702   0.403   6.015   1.598
 1232TIP3    H2 3703   0.329   5.962   1.719
 1233TIP3   OH2 3704   2.783   0.828   0.964
 1233TIP3    H1 3705   2.759   0.829   1.056
 1233TIP3    H2 3706   2.858   0.887   0.958
 1234TIP3   OH2 3707   6.003   1.757   0.047
 1234TIP3    H1 3708   5.959   1.796   0.122
 1234TIP3    H2 3709   5.934   1.708   0.001
 1235TIP3   OH2 3710   5.413   4.091   4.994
 1235TIP3    H1 3711   5.363   4.141   4.928
 1235TIP3    H2 3712   5.415   4.148   5.071
 1236TIP3   OH2 3713   4.968   3.767   4.340
 1236TIP3    H1 3714   4.985   3.837   4.403
 1236TIP3    H2 3715   4.943   3.692   4.394
 1237TIP3   OH2 3716   3.167   5.388   1.426
 1237TIP3    H1 3717   3.142   5.399   1.517
 1237TIP3    H2 3718   3.261   5.407   1.424
 1238TIP3   OH2 3719   0.588   0.665   4.183
 1238TIP3    H1 3720   0.541   0.666   4.266
 1238TIP3    H2 3721   0.660   0.726   4.195
 1239TIP3   OH2 3722   0.480   3.211   1.371
 1239TIP3    H1 3723   0.490   3.249   1.459
 1239TIP3    H2 3724   0.412   3.145   1.381
 1240TIP3   OH2 3725   5.971   1.881   3.719
 1240TIP3    H1 3726   6.045   1.821   3.714
 1240TIP3    H2 3727   5.914   1.855   3.647
 1241TIP3   OH2 3728   6.214   4.422   1.803
 1241TIP3    H1 3729   6.170   4.338   1.790
 1241TIP3    H2 3730   6.294   4.400   1.849
 1242TIP3   OH2 3731   1.087   2.235   2.573
 1242TIP3    H1 3732   1.023   2.176   2.534
 1242TIP3    H2 3733   1.166   2.225   2.520
 1243TIP3   OH2 3734   3.093   2.699   4.267
 1243TIP3    H1 3735   3.131   2.677   4.352
 1243TIP3    H2 3736   3.130   2.634   4.207
 1244TIP3   OH2 3737   0.206   2.670   2.136
 1244TIP3    H1 3738   0.253   2.700   2.214
 1244TIP3    H2 3739   0.117   2.650   2.168
 1245TIP3   OH2 3740   1.296   3.846   0.029
 1245TIP3    H1 3741   1.364   3.853  -0.038
 1245TIP3    H2 3742   1.323   3.771   0.082
 1246TIP3   OH2 3743   5.781   0.048   3.621
 1246TIP3    H1 3744   5.817   0.070   3.707
 1246TIP3    H2 3745   5.787  -0.047   3.616
 1247TIP3   OH2 3746   1.196   0.222   3.557
 1247TIP3    H1 3747   1.272   0.171   3.583
 1247TIP3    H2 3748   1.224   0.267   3.477
 1248TIP3   OH2 3749   2.658   0.174   2.503
 1248TIP3    H1 3750   2.636   0.119   2.428
 1248TIP3    H2 3751   2.734   0.131   2.543
 1249TIP3   OH2 3752   4.501   0.383   0.054
 1249TIP3    H1 3753   4.434   0.438   0.014
 1249TIP3    H2 3754   4.573   0.443   0.072
 1250TIP3   OH2 3755   0.570   3.571   2.659
 1250TIP3    H1 3756   0.592   3.607   2.573
 1250TIP3    H2 3757   0.552   3.648   2.713
 1251TIP3   OH2 3758   2.702   1.010   1.533
 1251TIP3    H1 3759   2.689   1.083   1.473
 1251TIP3    H2 3760   2.744   1.050   1.610
 1252TIP3   OH2 3761   5.292   0.275   0.931
 1252TIP3    H1 3762   5.279   0.195   0.982
 1252TIP3    H2 3763   5.246   0.343   0.980
 1253TIP3   OH2 3764   0.184   0.238   1.081
 1253TIP3    H1 3765   0.254   0.176   1.061
 1253TIP3    H2 3766   0.177   0.292   1.003
 1254TIP3   OH2 3767   1.844   0.530   1.411
 1254TIP3    H1 3768   1.781   0.567   1.349
 1254TIP3    H2 3769   1.899   0.472   1.358
 1255TIP3   OH2 3770   3.168   4.787   4.770
 1255TIP3    H1 3771   3.227   4.714   4.749
 1255TIP3    H2 3772   3.208   4.828   4.847
 1256TIP3   OH2 3773   0.175   0.597   1.668
 1256TIP3    H1 3774   0.157   0.619   1.576
 1256TIP3    H2 3775   0.266   0.624   1.681
 1257TIP3   OH2 3776   5.097   5.660   1.653
 1257TIP3    H1 3777   5.121   5.600   1.723
 1257TIP3    H2 3778   5.026   5.615   1.606
 1258TIP3   OH2 3779   2.445   1.377   3.892
 1258TIP3    H1 3780   2.458   1.331   3.809
 1258TIP3    H2 3781   2.412   1.463   3.866
 1259TIP3   OH2 3782   5.014   0.824   1.790
 1259TIP3    H1 3783   5.100   0.843   1.827
 1259TIP3    H2 3784   4.980   0.910   1.765
 1260TIP3   OH2 3785   4.317   3.431   3.422
 1260TIP3    H1 3786   4.330   3.362   3.488
 1260TIP3    H2 3787   4.349   3.393   3.341
 1261TIP3   OH2 3788   3.440   2.111   2.403
 1261TIP3    H1 3789   3.465   2.019   2.399
 1261TIP3    H2 3790   3.472   2.149   2.322
 1262TIP3   OH2 3791   4.886   1.534   3.153
 1262TIP3    H1 3792   4.933   1.526   3.070
 1262TIP3    H2 3793   4.884   1.628   3.171
 1263TIP3   OH2 3794   4.091   0.259   3.830
 1263TIP3    H1 3795   4.120   0.172   3.802
 1263TIP3    H2 3796   4.169   0.314   3.823
 1264TIP3   OH2 3797   4.186   0.787   3.907
 1264TIP3    H1 3798   4.160   0.713   3.852
 1264TIP3    H2 3799   4.281   0.779   3.914
 1265TIP3   OH2 3800   2.055   5.019   0.788
 1265TIP3    H1 3801   2.016   5.092   0.740
 1265TIP3    H2 3802   2.141   5.052   0.816
 1266TIP3   OH2 3803   1.075   3.088   4.878
 1266TIP3    H1 3804   1.128   3.121   4.805
 1266TIP3    H2 3805   1.134   3.032   4.928
 1267TIP3   OH2 3806   2.398   4.178   4.579
 1267TIP3    H1 3807   2.402   4.117   4.652
 1267TIP3    H2 3808   2.439   4.133   4.506
 1268TIP3   OH2 3809   1.171   1.475   4.455
 1268TIP3    H1 3810   1.240   1.539   4.473
 1268TIP3    H2 3811   1.126   1.508   4.377
 1269TIP3   OH2 3812   5.329   2.198   2.091
 1269TIP3    H1 3813   5.368   2.111   2.089
 1269TIP3    H2 3814   5.360   2.240   2.010
 1270TIP3   OH2 3815   3.371   2.193   3.658
 1270TIP3    H1 3816   3.425   2.145   3.595
 1270TIP3    H2 3817   3.302   2.233   3.604
 1271TIP3   OH2 3818   0.887   0.520   5.010
 1271TIP3    H1 3819   0.806   0.488   4.969
 1271TIP3    H2 3820   0.922   0.444   5.056
 1272TIP3   OH2 3821   1.518   5.418   4.277
 1272TIP3    H1 3822   1.571   5.417   4.198
 1272TIP3    H2 3823   1.546   5.341   4.327
 1273TIP3   OH2 3824   3.151   4.461   0.407
 1273TIP3    H1 3825   3.240   4.475   0.374
 1273TIP3    H2 3826   3.163   4.415   0.490
 1274TIP3   OH2 3827   1.290   2.017   1.963
 1274TIP3    H1 3828   1.272   2.018   1.870
 1274TIP3    H2 3829   1.378   2.056   1.971
 1275TIP3   OH2 3830   1.857   0.695   3.105
 1275TIP3    H1 3831   1.818   0.734   3.027
 1275TIP3    H2 3832   1.917   0.628   3.071
 1276TIP3   OH2 3833   0.285   3.024   1.421
 1276TIP3    H1 3834   0.241   2.990   1.500
 1276TIP3    H2 3835   0.271   2.956   1.355
 1277TIP3   OH2 3836   6.234   0.609   4.793
 1277TIP3    H1 3837   6.257   0.561   4.872
 1277TIP3    H2 3838   6.212   0.541   4.729
 1278TIP3   OH2 3839   3.319   0.072   0.781
 1278TIP3    H1 3840   3.297   0.078   0.688
 1278TIP3    H2 3841   3.267   0.140   0.823
 1279TIP3   OH2 3842   3.285   0.547   1.485
 1279TIP3    H1 3843   3.338   0.540   1.406
 1279TIP3    H2 3844   3.343   0.515   1.555
 1280TIP3   OH2 3845   0.323   4.867   3.930
 1280TIP3    H1 3846   0.325   4.798   3.996
 1280TIP3    H2 3847   0.236   4.860   3.890
 1281TIP3   OH2 3848   4.309   5.106   4.562
 1281TIP3    H1 3849   4.375   5.059   4.613
 1281TIP3    H2 3850   4.226   5.066   4.588
 1282TIP3   OH2 3851   5.362   3.508   1.279
 1282TIP3    H1 3852   5.389   3.422   1.311
 1282TIP3    H2 3853   5.368   3.565   1.356
 1283TIP3   OH2 3854   2.705   3.227   4.453
 1283TIP3    H1 3855   2.727   3.315   4.424
 1283TIP3    H2 3856   2.694   3.235   4.548
 1284TIP3   OH2 3857   2.753   3.724   5.150
 1284TIP3    H1 3858   2.802   3.783   5.093
 1284TIP3    H2 3859   2.796   3.639   5.139
 1285TIP3   OH2 3860   6.170   2.848   0.525
 1285TIP3    H1 3861   6.190   2.771   0.578
 1285TIP3    H2 3862   6.228   2.916   0.559
 1286TIP3   OH2 3863   5.687   0.749   2.665
 1286TIP3    H1 3864   5.690   0.664   2.622
 1286TIP3    H2 3865   5.752   0.802   2.618
 1287TIP3   OH2 3866   1.548   1.475   4.436
 1287TIP3    H1 3867   1.612   1.505   4.370
 1287TIP3    H2 3868   1.510   1.555   4.471
 1288TIP3   OH2 3869   4.904   4.482   3.905
 1288TIP3    H1 3870   4.852   4.490   3.985
 1288TIP3    H2 3871   4.868   4.406   3.860
 1289TIP3   OH2 3872   4.500   1.193   4.532
 1289TIP3    H1 3873   4.563   1.146   4.587
 1289TIP3    H2 3874   4.522   1.286   4.545
 1290TIP3   OH2 3875   1.575   2.307   0.206
 1290TIP3    H1 3876   1.579   2.401   0.187
 1290TIP3    H2 3877   1.482   2.285   0.201
 1291TIP3   OH2 3878   5.626   0.288   4.931
 1291TIP3    H1 3879   5.567   0.249   4.996
 1291TIP3    H2 3880   5.708   0.302   4.979
 1292TIP3   OH2 3881   3.693   5.152   2.711
 1292TIP3    H1 3882   3.749   5.078   2.688
 1292TIP3    H2 3883   3.605   5.114   2.716
 1293TIP3   OH2 3884   4.213   3.188   1.884
 1293TIP3    H1 3885   4.267   3.109   1.878
 1293TIP3    H2 3886   4.248   3.235   1.960
 1294TIP3   OH2 3887   1.101   5.162   2.292
 1294TIP3    H1 3888   1.007   5.144   2.297
 1294TIP3    H2 3889   1.135   5.093   2.234
 1295TIP3   OH2 3890   4.082   4.843   1.714
 1295TIP3    H1 3891   4.089   4.749   1.731
 1295TIP3    H2 3892   3.989   4.863   1.730
 1296TIP3   OH2 3893   1.932   4.727   1.085
 1296TIP3    H1 3894   1.929   4.799   1.148
 1296TIP3    H2 3895   2.013   4.740   1.037
 1297TIP3   OH2 3896   4.505   1.333   4.149
 1297TIP3    H1 3897   4.591   1.354   4.113
 1297TIP3    H2 3898   4.490   1.401   4.214
 1298TIP3   OH2 3899   3.737   5.650   4.526
 1298TIP3    H1 3900   3.779   5.573   4.564
 1298TIP3    H2 3901   3.801   5.684   4.464
 1299TIP3   OH2 3902   1.472   3.038   0.411
 1299TIP3    H1 3903   1.551   3.087   0.433
 1299TIP3    H2 3904   1.504   2.962   0.361
 1300TIP3   OH2 3905   4.533   0.567   2.980
 1300TIP3    H1 3906   4.592   0.549   2.907
 1300TIP3    H2 3907   4.447   0.538   2.948
 1301TIP3   OH2 3908   1.474   2.954   2.171
 1301TIP3    H1 3909   1.459   2.897   2.246
 1301TIP3    H2 3910   1.543   3.014   2.199
 1302TIP3   OH2 3911   3.106   4.464   4.987
 1302TIP3    H1 3912   3.025   4.514   4.986
 1302TIP3    H2 3913   3.154   4.495   5.064
 1303TIP3   OH2 3914   4.413   4.854   0.414
 1303TIP3    H1 3915   4.482   4.818   0.470
 1303TIP3    H2 3916   4.370   4.920   0.468
 1304TIP3   OH2 3917   1.153   3.466   2.423
 1304TIP3    H1 3918   1.157   3.467   2.327
 1304TIP3    H2 3919   1.171   3.557   2.449
 1305TIP3   OH2 3920   2.195   1.683   2.787
 1305TIP3    H1 3921   2.103   1.656   2.796
 1305TIP3    H2 3922   2.232   1.672   2.875
 1306TIP3   OH2 3923   6.224   0.412   0.627
 1306TIP3    H1 3924   6.208   0.345   0.694
 1306TIP3    H2 3925   6.161   0.392   0.558
 1307TIP3   OH2 3926   5.129   1.060   3.273
 1307TIP3    H1 3927   5.062   1.128   3.281
 1307TIP3    H2 3928   5.186   1.091   3.203
 1308TIP3   OH2 3929   5.264   4.801   3.206
 1308TIP3    H1 3930   5.270   4.896   3.191
 1308TIP3    H2 3931   5.337   4.764   3.157
 1309TIP3   OH2 3932   3.618   5.060   4.131
 1309TIP3    H1 3933   3.573   5.076   4.048
 1309TIP3    H2 3934   3.553   5.081   4.198
 1310TIP3   OH2 3935   6.161   0.690   0.697
 1310TIP3    H1 3936   6.193   0.600   0.704
 1310TIP3    H2 3937   6.066   0.682   0.706
 1311TIP3   OH2 3938   0.820   2.442   0.829
 1311TIP3    H1 3939   0.777   2.521   0.862
 1311TIP3    H2 3940   0.801   2.442   0.735
 1312TIP3   OH2 3941   0.070   2.487   3.532
 1312TIP3    H1 3942   0.146   2.461   3.585
 1312TIP3    H2 3943   0.007   2.521   3.595
 1313TIP3   OH2 3944   5.625   0.146   2.917
 1313TIP3    H1 3945   5.644   0.163   3.009
 1313TIP3    H2 3946   5.550   0.087   2.919
 1314TIP3   OH2 3947   4.029   2.208   0.195
 1314TIP3    H1 3948   3.976   2.279   0.159
 1314TIP3    H2 3949   4.105   2.203   0.138
 1315TIP3   OH2 3950   1.571   2.563   0.971
 1315TIP3    H1 3951   1.517   2.597   0.899
 1315TIP3    H2 3952   1.642   2.516   0.927
 1316TIP3   OH2 3953   1.238   1.217   4.177
 1316TIP3    H1 3954   1.313   1.221   4.237
 1316TIP3    H2 3955   1.278   1.204   4.091
 1317TIP3   OH2 3956   1.263   2.709   2.824
 1317TIP3    H1 3957   1.228   2.793   2.792
 1317TIP3    H2 3958   1.260   2.652   2.748
 1318TIP3   OH2 3959   0.324   4.932   1.408
 1318TIP3    H1 3960   0.302   4.838   1.405
 1318TIP3    H2 3961   0.273   4.966   1.482
 1319TIP3   OH2 3962   4.658   3.064   4.172
 1319TIP3    H1 3963   4.704   3.147   4.158
 1319TIP3    H2 3964   4.722   2.997   4.150
 1320TIP3   OH2 3965   2.323   2.693   3.580
 1320TIP3    H1 3966   2.271   2.722   3.505
 1320TIP3    H2 3967   2.343   2.601   3.561
 1321TIP3   OH2 3968   0.513   3.319   2.200
 1321TIP3    H1 3969   0.576   3.260   2.240
 1321TIP3    H2 3970   0.438   3.319   2.260
 1322TIP3   OH2 3971   3.968   2.553   1.996
 1322TIP3    H1 3972   3.885   2.551   2.043
 1322TIP3    H2 3973   3.950   2.610   1.921
 1323TIP3   OH2 3974   3.601   2.091   2.672
 1323TIP3    H1 3975   3.551   2.113   2.751
 1323TIP3    H2 3976   3.555   2.137   2.601
 1324TIP3   OH2 3977   5.461   3.672   4.759
 1324TIP3    H1 3978   5.413   3.590   4.770
 1324TIP3    H2 3979   5.526   3.671   4.829
 1325TIP3   OH2 3980   0.926   4.685   0.109
 1325TIP3    H1 3981   0.889   4.750   0.169
 1325TIP3    H2 3982   0.854   4.623   0.095
 1326TIP3   OH2 3983   6.260   3.678   0.124
 1326TIP3    H1 3984   6.184   3.732   0.143
 1326TIP3    H2 3985   6.301   3.718   0.047
 1327TIP3   OH2 3986   5.067   0.878   2.196
 1327TIP3    H1 3987   5.010   0.836   2.131
 1327TIP3    H2 3988   5.078   0.811   2.264
 1328TIP3   OH2 3989   3.028   3.100   4.535
 1328TIP3    H1 3990   2.973   3.085   4.458
 1328TIP3    H2 3991   3.066   3.186   4.522
 1329TIP3   OH2 3992   5.760   0.821   5.090
 1329TIP3    H1 3993   5.733   0.774   5.011
 1329TIP3    H2 3994   5.797   0.753   5.146
 1330TIP3   OH2 3995   3.805   0.785   4.014
 1330TIP3    H1 3996   3.870   0.750   3.954
 1330TIP3    H2 3997   3.844   0.775   4.101
 1331TIP3   OH2 3998   5.863   3.981   2.153
 1331TIP3    H1 3999   5.795   3.937   2.102
 1331TIP3    H2 4000   5.827   3.985   2.242
 1332TIP3   OH2 4001   0.497   1.631   4.112
 1332TIP3    H1 4002   0.499   1.536   4.105
 1332TIP3    H2 4003   0.578   1.660   4.071
 1333TIP3   OH2 4004   2.032   1.498   2.487
 1333TIP3    H1 4005   1.937   1.486   2.496
 1333TIP3    H2 4006   2.060   1.525   2.575
 1334TIP3   OH2 4007   0.834   4.658   2.090
 1334TIP3    H1 4008   0.881   4.728   2.134
 1334TIP3    H2 4009   0.863   4.578   2.133
 1335TIP3   OH2 4010   2.731   4.056   2.790
 1335TIP3    H1 4011   2.793   4.107   2.739
 1335TIP3    H2 4012   2.785   4.014   2.857
 1336TIP3   OH2 4013   4.301   2.275   0.118
 1336TIP3    H1 4014   4.367   2.290   0.050
 1336TIP3    H2 4015   4.308   2.352   0.175
 1337TIP3   OH2 4016   5.101   5.079   0.749
 1337TIP3    H1 4017   5.192   5.089   0.778
 1337TIP3    H2 4018   5.104   5.094   0.655
 1338TIP3   OH2 4019   1.703   4.946   4.853
 1338TIP3    H1 4020   1.685   4.862   4.812
 1338TIP3    H2 4021   1.632   5.003   4.823
 1339TIP3   OH2 4022   1.504   3.423   3.443
 1339TIP3    H1 4023   1.490   3.476   3.521
 1339TIP3    H2 4024   1.597   3.432   3.424
 1340TIP3   OH2 4025   5.572   5.552   1.440
 1340TIP3    H1 4026   5.544   5.603   1.364
 1340TIP3    H2 4027   5.633   5.487   1.404
 1341TIP3   OH2 4028   4.736   1.508   2.785
 1341TIP3    H1 4029   4.734   1.414   2.805
 1341TIP3    H2 4030   4.827   1.525   2.761
 1342TIP3   OH2 4031   0.810   5.702   0.722
 1342TIP3    H1 4032   0.881   5.640   0.708
 1342TIP3    H2 4033   0.783   5.728   0.633
 1343TIP3   OH2 4034   0.052   4.502   4.962
 1343TIP3    H1 4035  -0.031   4.494   5.010
 1343TIP3    H2 4036   0.067   4.596   4.955
 1344TIP3   OH2 4037   4.340   5.015   0.059
 1344TIP3    H1 4038   4.356   4.930   0.019
 1344TIP3    H2 4039   4.245   5.023   0.062
 1345TIP3   OH2 4040   0.878   0.579   1.035
 1345TIP3    H1 4041   0.905   0.659   1.080
 1345TIP3    H2 4042   0.957   0.526   1.030
 1346TIP3   OH2 4043   0.117   3.095   1.816
 1346TIP3    H1 4044   0.038   3.082   1.869
 1346TIP3    H2 4045   0.084   3.108   1.727
 1347TIP3   OH2 4046   6.221   4.309   4.733
 1347TIP3    H1 4047   6.307   4.350   4.741
 1347TIP3    H2 4048   6.240   4.217   4.714
 1348TIP3   OH2 4049   1.096   5.794   1.585
 1348TIP3    H1 4050   1.079   5.700   1.591
 1348TIP3    H2 4051   1.183   5.805   1.623
 1349TIP3   OH2 4052   1.370   3.167   5.008
 1349TIP3    H1 4053   1.382   3.251   5.052
 1349TIP3    H2 4054   1.450   3.154   4.958
 1350TIP3   OH2 4055   3.546   3.380   0.242
 1350TIP3    H1 4056   3.539   3.396   0.148
 1350TIP3    H2 4057   3.470   3.325   0.263
 1351TIP3   OH2 4058   0.212   2.062   0.079
 1351TIP3    H1 4059   0.190   1.996   0.013
 1351TIP3    H2 4060   0.280   2.020   0.132
 1352TIP3   OH2 4061   5.041   4.551   2.457
 1352TIP3    H1 4062   5.063   4.463   2.487
 1352TIP3    H2 4063   5.109   4.607   2.495
 1353TIP3   OH2 4064   4.685   0.357   3.460
 1353TIP3    H1 4065   4.738   0.332   3.385
 1353TIP3    H2 4066   4.676   0.452   3.453
 1354TIP3   OH2 4067   5.513   2.740   3.925
 1354TIP3    H1 4068   5.432   2.783   3.898
 1354TIP3    H2 4069   5.489   2.688   4.001
 1355TIP3   OH2 4070   5.249   0.139   4.885
 1355TIP3    H1 4071   5.208   0.209   4.834
 1355TIP3    H2 4072   5.264   0.069   4.822
 1356TIP3   OH2 4073   5.856   5.395   2.222
 1356TIP3    H1 4074   5.897   5.315   2.254
 1356TIP3    H2 4075   5.924   5.462   2.228
 1357TIP3   OH2 4076   4.620   1.954   0.357
 1357TIP3    H1 4077   4.634   1.965   0.451
 1357TIP3    H2 4078   4.702   1.985   0.317
 1358TIP3   OH2 4079   4.458   5.137   4.342
 1358TIP3    H1 4080   4.481   5.225   4.312
 1358TIP3    H2 4081   4.399   5.152   4.417
 1359TIP3   OH2 4082   1.200   3.593   1.298
 1359TIP3    H1 4083   1.215   3.533   1.371
 1359TIP3    H2 4084   1.111   3.624   1.310
 1360TIP3   OH2 4085   6.294   3.162   0.186
 1360TIP3    H1 4086   6.275   3.254   0.168
 1360TIP3    H2 4087   6.310   3.123   0.100
 1361TIP3   OH2 4088   0.130   2.085   1.911
 1361TIP3    H1 4089   0.209   2.131   1.884
 1361TIP3    H2 4090   0.134   2.083   2.006
 1362TIP3   OH2 4091   2.382   0.315   3.107
 1362TIP3    H1 4092   2.332   0.238   3.081
 1362TIP3    H2 4093   2.474   0.288   3.099
 1363TIP3   OH2 4094   3.576   0.842   0.743
 1363TIP3    H1 4095   3.642   0.906   0.771
 1363TIP3    H2 4096   3.537   0.881   0.665
 1364TIP3   OH2 4097   2.798   0.660   3.387
 1364TIP3    H1 4098   2.827   0.596   3.452
 1364TIP3    H2 4099   2.801   0.744   3.432
 1365TIP3   OH2 4100   2.536   5.219   4.046
 1365TIP3    H1 4101   2.593   5.247   4.117
 1365TIP3    H2 4102   2.568   5.132   4.021
 1366TIP3   OH2 4103   5.082   4.019   3.427
 1366TIP3    H1 4104   5.000   4.065   3.409
 1366TIP3    H2 4105   5.078   3.997   3.520
 1367TIP3   OH2 4106   3.636   3.001   1.178
 1367TIP3    H1 4107   3.629   2.916   1.222
 1367TIP3    H2 4108   3.636   3.064   1.250
 1368TIP3   OH2 4109   2.454   3.800   2.298
 1368TIP3    H1 4110   2.547   3.776   2.299
 1368TIP3    H2 4111   2.454   3.896   2.299
 1369TIP3   OH2 4112   1.657   2.211   3.468
 1369TIP3    H1 4113   1.580   2.158   3.492
 1369TIP3    H2 4114   1.639   2.297   3.506
 1370TIP3   OH2 4115   3.820   2.394   4.118
 1370TIP3    H1 4116   3.777   2.479   4.108
 1370TIP3    H2 4117   3.826   2.360   4.029
 1371TIP3   OH2 4118   6.146   3.090   2.924
 1371TIP3    H1 4119   6.127   2.997   2.915
 1371TIP3    H2 4120   6.072   3.134   2.882
 1372TIP3   OH2 4121   2.258   5.176   2.805
 1372TIP3    H1 4122   2.164   5.193   2.812
 1372TIP3    H2 4123   2.288   5.235   2.736
 1373TIP3   OH2 4124   6.322   0.701   3.373
 1373TIP3    H1 4125   6.392   0.651   3.330
 1373TIP3    H2 4126   6.244   0.683   3.320
 1374TIP3   OH2 4127   1.024   5.512   3.748
 1374TIP3    H1 4128   1.087   5.511   3.675
 1374TIP3    H2 4129   1.012   5.419   3.770
 1375TIP3   OH2 4130   1.438   2.654   0.680
 1375TIP3    H1 4131   1.443   2.744   0.648
 1375TIP3    H2 4132   1.360   2.652   0.735
 1376TIP3   OH2 4133   0.157   1.947   2.660
 1376TIP3    H1 4134   0.089   2.011   2.679
 1376TIP3    H2 4135   0.127   1.901   2.582
 1377TIP3   OH2 4136   6.075   0.263   1.165
 1377TIP3    H1 4137   6.144   0.208   1.200
 1377TIP3    H2 4138   6.085   0.347   1.210
 1378TIP3   OH2 4139   2.507   5.349   3.421
 1378TIP3    H1 4140   2.545   5.437   3.433
 1378TIP3    H2 4141   2.491   5.343   3.327
 1379TIP3   OH2 4142   0.977   3.240   1.508
 1379TIP3    H1 4143   1.045   3.207   1.567
 1379TIP3    H2 4144   0.895   3.209   1.545
 1380TIP3   OH2 4145   6.333   5.489   1.437
 1380TIP3    H1 4146   6.362   5.406   1.398
 1380TIP3    H2 4147   6.301   5.465   1.524
 1381TIP3   OH2 4148   1.512   2.468   4.328
 1381TIP3    H1 4149   1.560   2.462   4.410
 1381TIP3    H2 4150   1.436   2.411   4.341
 1382TIP3   OH2 4151   5.888   5.760   0.912
 1382TIP3    H1 4152   5.848   5.714   0.986
 1382TIP3    H2 4153   5.910   5.690   0.850
 1383TIP3   OH2 4154   4.021   5.854   4.591
 1383TIP3    H1 4155   3.959   5.829   4.523
 1383TIP3    H2 4156   3.980   5.928   4.635
 1384TIP3   OH2 4157   1.599   2.600   2.650
 1384TIP3    H1 4158   1.683   2.554   2.652
 1384TIP3    H2 4159   1.534   2.530   2.644
 1385TIP3   OH2 4160   6.178   2.917   1.550
 1385TIP3    H1 4161   6.112   2.949   1.489
 1385TIP3    H2 4162   6.249   2.981   1.545
 1386TIP3   OH2 4163   5.319   2.544   5.015
 1386TIP3    H1 4164   5.414   2.534   5.021
 1386TIP3    H2 4165   5.284   2.479   5.076
 1387TIP3   OH2 4166   2.675   1.221   1.309
 1387TIP3    H1 4167   2.738   1.184   1.248
 1387TIP3    H2 4168   2.716   1.301   1.342
 1388TIP3   OH2 4169   0.859   1.586   3.717
 1388TIP3    H1 4170   0.900   1.585   3.804
 1388TIP3    H2 4171   0.882   1.502   3.679
 1389TIP3   OH2 4172   6.226   0.407   3.824
 1389TIP3    H1 4173   6.242   0.389   3.917
 1389TIP3    H2 4174   6.294   0.359   3.778
 1390TIP3   OH2 4175   3.638   3.019   4.824
 1390TIP3    H1 4176   3.572   3.035   4.892
 1390TIP3    H2 4177   3.711   3.076   4.848
 1391TIP3   OH2 4178   1.783   5.185   3.894
 1391TIP3    H1 4179   1.817   5.101   3.864
 1391TIP3    H2 4180   1.841   5.211   3.965
 1392TIP3   OH2 4181   4.532   0.459   0.809
 1392TIP3    H1 4182   4.496   0.457   0.898
 1392TIP3    H2 4183   4.624   0.480   0.821
 1393TIP3   OH2 4184   1.078   5.766   3.739
 1393TIP3    H1 4185   1.063   5.671   3.742
 1393TIP3    H2 4186   1.014   5.798   3.675
 1394TIP3   OH2 4187   0.545   5.377   2.715
 1394TIP3    H1 4188   0.580   5.450   2.663
 1394TIP3    H2 4189   0.621   5.343   2.762
 1395TIP3   OH2 4190   2.265   5.402   2.939
 1395TIP3    H1 4191   2.176   5.401   2.902
 1395TIP3    H2 4192   2.299   5.315   2.922
 1396TIP3   OH2 4193   6.267   5.754   2.063
 1396TIP3    H1 4194   6.204   5.746   1.991
 1396TIP3    H2 4195   6.351   5.729   2.025
 1397TIP3   OH2 4196   4.751   5.053   3.012
 1397TIP3    H1 4197   4.777   5.145   3.013
 1397TIP3    H2 4198   4.659   5.055   2.986
 1398TIP3   OH2 4199   0.233   2.292   1.195
 1398TIP3    H1 4200   0.324   2.266   1.204
 1398TIP3    H2 4201   0.208   2.325   1.281
 1399TIP3   OH2 4202   3.250   4.351   1.334
 1399TIP3    H1 4203   3.181   4.409   1.301
 1399TIP3    H2 4204   3.250   4.277   1.274
 1400TIP3   OH2 4205   6.236   2.122   4.085
 1400TIP3    H1 4206   6.199   2.132   4.172
 1400TIP3    H2 4207   6.247   2.211   4.052
 1401TIP3   OH2 4208   6.181   2.204   3.213
 1401TIP3    H1 4209   6.264   2.223   3.169
 1401TIP3    H2 4210   6.199   2.125   3.264
 1402TIP3   OH2 4211   6.248   0.403   2.512
 1402TIP3    H1 4212   6.164   0.429   2.549
 1402TIP3    H2 4213   6.301   0.483   2.514
 1403TIP3   OH2 4214   0.950   5.497   1.012
 1403TIP3    H1 4215   0.963   5.426   1.075
 1403TIP3    H2 4216   1.038   5.529   0.992
 1404TIP3   OH2 4217   4.602   2.277   0.220
 1404TIP3    H1 4218   4.677   2.221   0.244
 1404TIP3    H2 4219   4.595   2.266   0.125
 1405TIP3   OH2 4220   5.503   5.327   5.073
 1405TIP3    H1 4221   5.473   5.243   5.040
 1405TIP3    H2 4222   5.543   5.369   4.997
 1406TIP3   OH2 4223   6.027   4.858   4.082
 1406TIP3    H1 4224   6.001   4.927   4.021
 1406TIP3    H2 4225   6.031   4.901   4.167
 1407TIP3   OH2 4226   3.603   0.676   1.717
 1407TIP3    H1 4227   3.630   0.720   1.636
 1407TIP3    H2 4228   3.583   0.587   1.690
 1408TIP3   OH2 4229   0.294   2.545   1.840
 1408TIP3    H1 4230   0.324   2.602   1.911
 1408TIP3    H2 4231   0.269   2.464   1.884
 1409TIP3   OH2 4232   0.371   4.435   4.509
 1409TIP3    H1 4233   0.464   4.413   4.500
 1409TIP3    H2 4234   0.365   4.525   4.478
 1410TIP3   OH2 4235   5.166   2.693   4.077
 1410TIP3    H1 4236   5.071   2.694   4.083
 1410TIP3    H2 4237   5.195   2.766   4.132
 1411TIP3   OH2 4238   0.664   3.854   3.403
 1411TIP3    H1 4239   0.618   3.772   3.386
 1411TIP3    H2 4240   0.649   3.872   3.496
 1412TIP3   OH2 4241   4.330   5.013   3.596
 1412TIP3    H1 4242   4.338   4.929   3.642
 1412TIP3    H2 4243   4.420   5.041   3.581
 1413TIP3   OH2 4244   4.635   2.729   0.507
 1413TIP3    H1 4245   4.588   2.786   0.567
 1413TIP3    H2 4246   4.632   2.642   0.547
 1414TIP3   OH2 4247   4.063   3.421   0.994
 1414TIP3    H1 4248   4.114   3.362   0.938
 1414TIP3    H2 4249   4.023   3.364   1.059
 1415TIP3   OH2 4250   4.518   0.044   2.730
 1415TIP3    H1 4251   4.549   0.111   2.792
 1415TIP3    H2 4252   4.424   0.039   2.745
 1416TIP3   OH2 4253   3.939   2.000   1.388
 1416TIP3    H1 4254   3.918   2.033   1.301
 1416TIP3    H2 4255   3.888   1.919   1.396
 1417TIP3   OH2 4256   2.228   2.397   3.958
 1417TIP3    H1 4257   2.282   2.475   3.968
 1417TIP3    H2 4258   2.289   2.324   3.967
 1418TIP3   OH2 4259   3.306   1.803   1.698
 1418TIP3    H1 4260   3.255   1.884   1.711
 1418TIP3    H2 4261   3.322   1.800   1.603
 1419TIP3   OH2 4262   1.051   5.523   2.171
 1419TIP3    H1 4263   1.112   5.587   2.134
 1419TIP3    H2 4264   1.054   5.449   2.110
 1420TIP3   OH2 4265   1.052   2.178   4.484
 1420TIP3    H1 4266   0.999   2.204   4.409
 1420TIP3    H2 4267   0.991   2.130   4.541
 1421TIP3   OH2 4268   4.314   4.264   2.904
 1421TIP3    H1 4269   4.295   4.170   2.910
 1421TIP3    H2 4270   4.285   4.289   2.817
 1422TIP3   OH2 4271   6.054   5.468   4.419
 1422TIP3    H1 4272   6.069   5.405   4.490
 1422TIP3    H2 4273   6.120   5.445   4.353
 1423TIP3   OH2 4274   2.285   4.675   2.461
 1423TIP3    H1 4275   2.253   4.756   2.422
 1423TIP3    H2 4276   2.370   4.660   2.420
 1424TIP3   OH2 4277   4.124   2.743   0.796
 1424TIP3    H1 4278   4.151   2.802   0.725
 1424TIP3    H2 4279   4.140   2.655   0.763
 1425TIP3   OH2 4280   2.643   1.775   1.767
 1425TIP3    H1 4281   2.641   1.794   1.673
 1425TIP3    H2 4282   2.588   1.843   1.805
 1426TIP3   OH2 4283   4.263   3.592   1.487
 1426TIP3    H1 4284   4.227   3.680   1.485
 1426TIP3    H2 4285   4.358   3.605   1.480
 1427TIP3   OH2 4286   3.623   5.477   2.598
 1427TIP3    H1 4287   3.707   5.512   2.629
 1427TIP3    H2 4288   3.557   5.522   2.652
 1428TIP3   OH2 4289   3.892   3.164   2.809
 1428TIP3    H1 4290   3.888   3.134   2.900
 1428TIP3    H2 4291   3.942   3.246   2.814
 1429TIP3   OH2 4292   6.312   4.812   0.582
 1429TIP3    H1 4293   6.392   4.848   0.543
 1429TIP3    H2 4294   6.340   4.730   0.621
 1430TIP3   OH2 4295   3.133   2.629   4.534
 1430TIP3    H1 4296   3.077   2.552   4.527
 1430TIP3    H2 4297   3.097   2.679   4.607
 1431TIP3   OH2 4298   1.887   4.331   1.923
 1431TIP3    H1 4299   1.944   4.307   1.851
 1431TIP3    H2 4300   1.921   4.283   1.999
 1432TIP3   OH2 4301   6.022   5.971   0.349
 1432TIP3    H1 4302   5.978   5.906   0.404
 1432TIP3    H2 4303   6.094   6.004   0.404
 1433TIP3   OH2 4304   3.092   2.627   1.021
 1433TIP3    H1 4305   3.056   2.655   0.937
 1433TIP3    H2 4306   3.150   2.699   1.047
 1434TIP3   OH2 4307   5.003   1.510   4.164
 1434TIP3    H1 4308   5.039   1.581   4.217
 1434TIP3    H2 4309   5.072   1.488   4.102
 1435TIP3   OH2 4310   0.660   3.930   1.515
 1435TIP3    H1 4311   0.674   3.988   1.590
 1435TIP3    H2 4312   0.570   3.898   1.526
 1436TIP3   OH2 4313   5.516   3.345   0.075
 1436TIP3    H1 4314   5.555   3.412   0.131
 1436TIP3    H2 4315   5.498   3.390  -0.007
 1437TIP3   OH2 4316   6.009   2.824   4.703
 1437TIP3    H1 4317   6.012   2.794   4.612
 1437TIP3    H2 4318   5.924   2.867   4.711
 1438TIP3   OH2 4319   1.096   0.848   1.809
 1438TIP3    H1 4320   1.099   0.798   1.891
 1438TIP3    H2 4321   1.093   0.780   1.741
 1439TIP3   OH2 4322   0.180   1.361   2.027
 1439TIP3    H1 4323   0.186   1.326   2.116
 1439TIP3    H2 4324   0.270   1.367   1.997
 1440TIP3   OH2 4325   0.742   3.569   0.444
 1440TIP3    H1 4326   0.699   3.625   0.509
 1440TIP3    H2 4327   0.720   3.480   0.471
 1441TIP3   OH2 4328   0.112   1.739   4.547
 1441TIP3    H1 4329   0.207   1.749   4.548
 1441TIP3    H2 4330   0.085   1.779   4.464
 1442TIP3   OH2 4331   3.848   0.082   3.984
 1442TIP3    H1 4332   3.895   0.100   4.066
 1442TIP3    H2 4333   3.854  -0.013   3.974
 1443TIP3   OH2 4334   3.151   3.661   5.000
 1443TIP3    H1 4335   3.233   3.706   4.979
 1443TIP3    H2 4336   3.140   3.597   4.930
 1444TIP3   OH2 4337   5.999   3.072   1.347
 1444TIP3    H1 4338   6.008   2.980   1.321
 1444TIP3    H2 4339   5.907   3.092   1.332
 1445TIP3   OH2 4340   5.582   2.899   3.511
 1445TIP3    H1 4341   5.504   2.878   3.563
 1445TIP3    H2 4342   5.635   2.954   3.568
 1446TIP3   OH2 4343   5.208   3.777   1.403
 1446TIP3    H1 4344   5.144   3.839   1.437
 1446TIP3    H2 4345   5.168   3.742   1.324
 1447TIP3   OH2 4346   3.946   1.048   2.702
 1447TIP3    H1 4347   3.892   1.018   2.775
 1447TIP3    H2 4348   3.938   1.144   2.704
 1448TIP3   OH2 4349   2.850   4.242   3.554
 1448TIP3    H1 4350   2.850   4.270   3.463
 1448TIP3    H2 4351   2.760   4.212   3.570
 1449TIP3   OH2 4352   4.801   0.811   3.235
 1449TIP3    H1 4353   4.768   0.898   3.214
 1449TIP3    H2 4354   4.805   0.809   3.331
 1450TIP3   OH2 4355   2.630   4.977   4.378
 1450TIP3    H1 4356   2.547   4.929   4.378
 1450TIP3    H2 4357   2.686   4.928   4.438
 1451TIP3   OH2 4358   3.346   3.937   1.080
 1451TIP3    H1 4359   3.282   3.940   1.151
 1451TIP3    H2 4360   3.431   3.942   1.124
 1452TIP3   OH2 4361   4.723   1.463   2.462
 1452TIP3    H1 4362   4.800   1.436   2.512
 1452TIP3    H2 4363   4.757   1.486   2.375
 1453TIP3   OH2 4364   0.323   5.857   0.282
 1453TIP3    H1 4365   0.294   5.771   0.313
 1453TIP3    H2 4366   0.403   5.838   0.233
 1454TIP3   OH2 4367   4.949   3.543   5.055
 1454TIP3    H1 4368   4.862   3.509   5.038
 1454TIP3    H2 4369   5.008   3.470   5.034
 1455TIP3   OH2 4370   5.291   3.176   0.994
 1455TIP3    H1 4371   5.277   3.190   0.900
 1455TIP3    H2 4372   5.355   3.243   1.018
 1456TIP3   OH2 4373   4.885   3.304   4.717
 1456TIP3    H1 4374   4.830   3.379   4.739
 1456TIP3    H2 4375   4.961   3.342   4.673
 1457TIP3   OH2 4376   4.234   2.492   2.052
 1457TIP3    H1 4377   4.230   2.400   2.026
 1457TIP3    H2 4378   4.143   2.523   2.043
 1458TIP3   OH2 4379   4.159   5.272   1.595
 1458TIP3    H1 4380   4.143   5.212   1.522
 1458TIP3    H2 4381   4.239   5.238   1.636
 1459TIP3   OH2 4382   1.798   5.584   2.963
 1459TIP3    H1 4383   1.776   5.525   2.890
 1459TIP3    H2 4384   1.868   5.539   3.009
 1460TIP3   OH2 4385   3.955   4.503   3.498
 1460TIP3    H1 4386   3.943   4.572   3.564
 1460TIP3    H2 4387   3.941   4.548   3.415
 1461TIP3   OH2 4388   0.467   1.703   0.817
 1461TIP3    H1 4389   0.531   1.773   0.806
 1461TIP3    H2 4390   0.382   1.746   0.815
 1462TIP3   OH2 4391   2.290   3.251   4.120
 1462TIP3    H1 4392   2.290   3.285   4.210
 1462TIP3    H2 4393   2.228   3.308   4.073
 1463TIP3   OH2 4394   5.761   4.386   0.502
 1463TIP3    H1 4395   5.830   4.345   0.451
 1463TIP3    H2 4396   5.792   4.474   0.520
 1464TIP3   OH2 4397   5.329   2.393   3.373
 1464TIP3    H1 4398   5.292   2.379   3.460
 1464TIP3    H2 4399   5.419   2.360   3.380
 1465TIP3   OH2 4400   3.122   3.931   3.744
 1465TIP3    H1 4401   3.117   4.016   3.700
 1465TIP3    H2 4402   3.051   3.880   3.704
 1466TIP3   OH2 4403   0.962   5.229   1.085
 1466TIP3    H1 4404   0.964   5.154   1.025
 1466TIP3    H2 4405   0.970   5.190   1.172
 1467TIP3   OH2 4406   1.673   2.495   3.465
 1467TIP3    H1 4407   1.581   2.472   3.454
 1467TIP3    H2 4408   1.690   2.559   3.396
 1468TIP3   OH2 4409   4.318   0.624   4.257
 1468TIP3    H1 4410   4.307   0.703   4.310
 1468TIP3    H2 4411   4.306   0.552   4.319
 1469TIP3   OH2 4412   3.868   5.480   0.912
 1469TIP3    H1 4413   3.879   5.574   0.931
 1469TIP3    H2 4414   3.796   5.477   0.848
 1470TIP3   OH2 4415   5.791   0.734   3.159
 1470TIP3    H1 4416   5.855   0.778   3.215
 1470TIP3    H2 4417   5.843   0.681   3.100
 1471TIP3   OH2 4418   6.092   0.885   4.057
 1471TIP3    H1 4419   6.024   0.820   4.040
 1471TIP3    H2 4420   6.056   0.939   4.127
 1472TIP3   OH2 4421   3.684   5.396   4.296
 1472TIP3    H1 4422   3.773   5.430   4.280
 1472TIP3    H2 4423   3.644   5.393   4.209
 1473TIP3   OH2 4424   0.390   3.088   1.778
 1473TIP3    H1 4425   0.298   3.101   1.798
 1473TIP3    H2 4426   0.390   3.033   1.700
 1474TIP3   OH2 4427   5.621   0.505   1.406
 1474TIP3    H1 4428   5.586   0.535   1.323
 1474TIP3    H2 4429   5.716   0.508   1.395
 1475TIP3   OH2 4430   3.325   5.462   3.450
 1475TIP3    H1 4431   3.269   5.530   3.413
 1475TIP3    H2 4432   3.264   5.398   3.487
 1476TIP3   OH2 4433   2.735   2.282   2.290
 1476TIP3    H1 4434   2.720   2.346   2.221
 1476TIP3    H2 4435   2.827   2.257   2.281
 1477TIP3   OH2 4436   0.859   4.007   2.241
 1477TIP3    H1 4437   0.865   3.946   2.314
 1477TIP3    H2 4438   0.933   4.067   2.252
 1478TIP3   OH2 4439   1.939   1.865   3.772
 1478TIP3    H1 4440   1.855   1.910   3.761
 1478TIP3    H2 4441   1.967   1.843   3.684
 1479TIP3   OH2 4442   4.396   5.668   5.062
 1479TIP3    H1 4443   4.468   5.701   5.009
 1479TIP3    H2 4444   4.436   5.641   5.144
 1480TIP3   OH2 4445   4.471   1.922   4.251
 1480TIP3    H1 4446   4.532   1.853   4.276
 1480TIP3    H2 4447   4.526   1.994   4.220
 1481TIP3   OH2 4448   1.384   4.936   1.267
 1481TIP3    H1 4449   1.401   5.017   1.315
 1481TIP3    H2 4450   1.294   4.913   1.291
 1482TIP3   OH2 4451   1.883   5.328   0.391
 1482TIP3    H1 4452   1.846   5.394   0.450
 1482TIP3    H2 4453   1.848   5.351   0.305
 1483TIP3   OH2 4454   2.629   1.139   0.826
 1483TIP3    H1 4455   2.720   1.164   0.841
 1483TIP3    H2 4456   2.635   1.059   0.774
 1484TIP3   OH2 4457   5.217   1.882   4.184
 1484TIP3    H1 4458   5.212   1.972   4.151
 1484TIP3    H2 4459   5.131   1.866   4.222
 1485TIP3   OH2 4460   4.903   3.773   1.033
 1485TIP3    H1 4461   4.924   3.754   1.124
 1485TIP3    H2 4462   4.967   3.723   0.982
 1486TIP3   OH2 4463   6.246   0.987   4.508
 1486TIP3    H1 4464   6.314   1.009   4.572
 1486TIP3    H2 4465   6.219   0.899   4.532
 1487TIP3   OH2 4466   1.760   0.979   2.695
 1487TIP3    H1 4467   1.756   0.991   2.600
 1487TIP3    H2 4468   1.746   1.067   2.731
 1488TIP3   OH2 4469   0.211   5.747   1.970
 1488TIP3    H1 4470   0.149   5.769   1.901
 1488TIP3    H2 4471   0.262   5.827   1.983
 1489TIP3   OH2 4472   2.180   5.013   3.906
 1489TIP3    H1 4473   2.203   5.083   3.845
 1489TIP3    H2 4474   2.247   5.018   3.974
 1490TIP3   OH2 4475   3.329   4.454   0.664
 1490TIP3    H1 4476   3.414   4.436   0.624
 1490TIP3    H2 4477   3.344   4.530   0.719
 1491TIP3   OH2 4478   5.960   1.395   0.906
 1491TIP3    H1 4479   6.046   1.406   0.947
 1491TIP3    H2 4480   5.980   1.358   0.819
 1492TIP3   OH2 4481   2.392   1.324   3.612
 1492TIP3    H1 4482   2.387   1.398   3.552
 1492TIP3    H2 4483   2.387   1.247   3.555
 1493TIP3   OH2 4484   1.349   1.721   1.130
 1493TIP3    H1 4485   1.293   1.796   1.151
 1493TIP3    H2 4486   1.302   1.646   1.165
 1494TIP3   OH2 4487   4.466   1.460   5.120
 1494TIP3    H1 4488   4.424   1.520   5.182
 1494TIP3    H2 4489   4.559   1.481   5.127
 1495TIP3   OH2 4490   0.385   1.052   0.839
 1495TIP3    H1 4491   0.326   1.110   0.792
 1495TIP3    H2 4492   0.329   0.979   0.867
 1496TIP3   OH2 4493   0.746   5.107   0.739
 1496TIP3    H1 4494   0.706   5.175   0.793
 1496TIP3    H2 4495   0.706   5.119   0.653
 1497TIP3   OH2 4496   0.036   3.094   1.522
 1497TIP3    H1 4497   0.078   3.180   1.521
 1497TIP3    H2 4498   0.042   3.063   1.432
 1498TIP3   OH2 4499   2.162   3.880   0.389
 1498TIP3    H1 4500   2.079   3.837   0.373
 1498TIP3    H2 4501   2.193   3.904   0.302
 1499TIP3   OH2 4502   2.940   0.345   1.937
 1499TIP3    H1 4503   3.022   0.387   1.964
 1499TIP3    H2 4504   2.924   0.279   2.005
 1500TIP3   OH2 4505   2.250   5.369   0.405
 1500TIP3    H1 4506   2.256   5.284   0.447
 1500TIP3    H2 4507   2.204   5.353   0.323
 1501TIP3   OH2 4508   0.257   3.243   3.073
 1501TIP3    H1 4509   0.307   3.309   3.025
 1501TIP3    H2 4510   0.168   3.251   3.038
 1502TIP3   OH2 4511   5.258   4.622   3.591
 1502TIP3    H1 4512   5.227   4.634   3.681
 1502TIP3    H2 4513   5.342   4.577   3.601
 1503TIP3   OH2 4514   1.265   1.533   3.893
 1503TIP3    H1 4515   1.288   1.457   3.947
 1503TIP3    H2 4516   1.298   1.511   3.806
 1504TIP3   OH2 4517   5.112   3.064   0.782
 1504TIP3    H1 4518   5.023   3.084   0.755
 1504TIP3    H2 4519   5.167   3.097   0.711
 1505TIP3   OH2 4520   3.334   1.243   5.054
 1505TIP3    H1 4521   3.277   1.170   5.078
 1505TIP3    H2 4522   3.355   1.228   4.961
 1506TIP3   OH2 4523   1.289   3.952   3.510
 1506TIP3    H1 4524   1.256   4.001   3.586
 1506TIP3    H2 4525   1.381   3.937   3.530
 1507TIP3   OH2 4526   5.160   1.150   0.302
 1507TIP3    H1 4527   5.151   1.058   0.327
 1507TIP3    H2 4528   5.168   1.196   0.386
 1508TIP3   OH2 4529   1.290   2.808   1.097
 1508TIP3    H1 4530   1.311   2.862   1.020
 1508TIP3    H2 4531   1.375   2.785   1.134
 1509TIP3   OH2 4532   0.930   1.719   1.992
 1509TIP3    H1 4533   0.878   1.796   2.014
 1509TIP3    H2 4534   0.880   1.646   2.027
 1510TIP3   OH2 4535   5.401   5.356   1.892
 1510TIP3    H1 4536   5.395   5.262   1.907
 1510TIP3    H2 4537   5.484   5.382   1.932
 1511TIP3   OH2 4538   2.801   3.111   1.282
 1511TIP3    H1 4539   2.844   3.027   1.266
 1511TIP3    H2 4540   2.730   3.114   1.217
 1512TIP3   OH2 4541   3.308   1.567   0.204
 1512TIP3    H1 4542   3.324   1.494   0.143
 1512TIP3    H2 4543   3.252   1.529   0.272
 1513TIP3   OH2 4544   4.531   1.316   3.414
 1513TIP3    H1 4545   4.494   1.398   3.448
 1513TIP3    H2 4546   4.625   1.323   3.433
 1514TIP3   OH2 4547   0.059   3.744   2.540
 1514TIP3    H1 4548   0.130   3.685   2.517
 1514TIP3    H2 4549  -0.021   3.698   2.512
 1515TIP3   OH2 4550   3.835   2.050   4.825
 1515TIP3    H1 4551   3.771   2.035   4.894
 1515TIP3    H2 4552   3.820   1.979   4.763
 1516TIP3   OH2 4553   5.662   3.493   0.264
 1516TIP3    H1 4554   5.677   3.580   0.302
 1516TIP3    H2 4555   5.651   3.436   0.340
 1517TIP3   OH2 4556   6.001   4.362   0.324
 1517TIP3    H1 4557   5.983   4.439   0.378
 1517TIP3    H2 4558   6.058   4.395   0.255
 1518TIP3   OH2 4559   1.381   2.333   1.967
 1518TIP3    H1 4560   1.291   2.300   1.962
 1518TIP3    H2 4561   1.436   2.257   1.951
 1519TIP3   OH2 4562   0.367   3.018   3.488
 1519TIP3    H1 4563   0.374   3.037   3.582
 1519TIP3    H2 4564   0.326   3.095   3.450
 1520TIP3   OH2 4565   0.670   2.791   0.005
 1520TIP3    H1 4566   0.667   2.697   0.020
 1520TIP3    H2 4567   0.693   2.828   0.090
 1521TIP3   OH2 4568   4.838   4.137   3.430
 1521TIP3    H1 4569   4.771   4.099   3.487
 1521TIP3    H2 4570   4.796   4.214   3.392
 1522TIP3   OH2 4571   5.389   5.169   1.581
 1522TIP3    H1 4572   5.311   5.220   1.562
 1522TIP3    H2 4573   5.429   5.152   1.496
 1523TIP3   OH2 4574   0.069   2.661   0.388
 1523TIP3    H1 4575   0.000   2.674   0.454
 1523TIP3    H2 4576   0.022   2.661   0.304
 1524TIP3   OH2 4577   5.108   4.316   2.908
 1524TIP3    H1 4578   5.058   4.249   2.862
 1524TIP3    H2 4579   5.043   4.361   2.962
 1525TIP3   OH2 4580   4.017   4.587   4.644
 1525TIP3    H1 4581   4.064   4.670   4.647
 1525TIP3    H2 4582   3.989   4.578   4.553
 1526TIP3   OH2 4583   1.635   2.456   2.977
 1526TIP3    H1 4584   1.554   2.505   2.982
 1526TIP3    H2 4585   1.648   2.441   2.883
 1527TIP3   OH2 4586   5.855   2.569   2.982
 1527TIP3    H1 4587   5.773   2.584   3.029
 1527TIP3    H2 4588   5.862   2.643   2.922
 1528TIP3   OH2 4589   2.552   4.065   0.921
 1528TIP3    H1 4590   2.550   3.977   0.882
 1528TIP3    H2 4591   2.529   4.051   1.013
 1529TIP3   OH2 4592   3.512   0.733   4.528
 1529TIP3    H1 4593   3.594   0.716   4.574
 1529TIP3    H2 4594   3.459   0.782   4.591
 1530TIP3   OH2 4595   2.025   5.516   3.655
 1530TIP3    H1 4596   1.932   5.494   3.644
 1530TIP3    H2 4597   2.038   5.594   3.601
 1531TIP3   OH2 4598   3.609   5.321   5.013
 1531TIP3    H1 4599   3.671   5.274   4.958
 1531TIP3    H2 4600   3.580   5.257   5.078
 1532TIP3   OH2 4601   2.987   4.939   1.255
 1532TIP3    H1 4602   2.899   4.933   1.290
 1532TIP3    H2 4603   3.026   5.014   1.299
 1533TIP3   OH2 4604   1.561   3.023   4.174
 1533TIP3    H1 4605   1.623   3.008   4.103
 1533TIP3    H2 4606   1.555   2.938   4.218
 1534TIP3   OH2 4607   0.763   3.121   4.612
 1534TIP3    H1 4608   0.759   3.200   4.559
 1534TIP3    H2 4609   0.741   3.050   4.552
 1535TIP3   OH2 4610   2.089   5.378   1.604
 1535TIP3    H1 4611   2.172   5.376   1.557
 1535TIP3    H2 4612   2.084   5.293   1.648
 1536TIP3   OH2 4613   1.634   3.808   1.558
 1536TIP3    H1 4614   1.558   3.859   1.588
 1536TIP3    H2 4615   1.604   3.764   1.479
 1537TIP3   OH2 4616   5.384   5.837   4.608
 1537TIP3    H1 4617   5.432   5.756   4.627
 1537TIP3    H2 4618   5.448   5.894   4.566
 1538TIP3   OH2 4619   2.647   5.477   4.248
 1538TIP3    H1 4620   2.693   5.547   4.202
 1538TIP3    H2 4621   2.706   5.452   4.319
 1539TIP3   OH2 4622   5.228   5.869   2.356
 1539TIP3    H1 4623   5.184   5.895   2.275
 1539TIP3    H2 4624   5.157   5.863   2.421
 1540TIP3   OH2 4625   5.627   3.338   3.039
 1540TIP3    H1 4626   5.610   3.360   3.131
 1540TIP3    H2 4627   5.720   3.318   3.036
 1541TIP3   OH2 4628   0.810   2.351   1.951
 1541TIP3    H1 4629   0.747   2.355   1.879
 1541TIP3    H2 4630   0.877   2.416   1.928
 1542TIP3   OH2 4631   1.370   1.822   2.557
 1542TIP3    H1 4632   1.449   1.780   2.524
 1542TIP3    H2 4633   1.339   1.877   2.484
 1543TIP3   OH2 4634   1.181   3.378   4.517
 1543TIP3    H1 4635   1.218   3.290   4.524
 1543TIP3    H2 4636   1.087   3.364   4.505
 1544TIP3   OH2 4637   5.117   0.171   3.049
 1544TIP3    H1 4638   5.122   0.089   3.001
 1544TIP3    H2 4639   5.028   0.172   3.085
 1545TIP3   OH2 4640   1.150   2.371   4.648
 1545TIP3    H1 4641   1.061   2.400   4.667
 1545TIP3    H2 4642   1.139   2.304   4.580
 1546TIP3   OH2 4643   0.963   1.022   4.950
 1546TIP3    H1 4644   0.928   0.935   4.932
 1546TIP3    H2 4645   1.018   1.042   4.874
 1547TIP3   OH2 4646   5.461   2.432   0.345
 1547TIP3    H1 4647   5.456   2.525   0.365
 1547TIP3    H2 4648   5.443   2.389   0.429
 1548TIP3   OH2 4649   2.237   4.141   4.048
 1548TIP3    H1 4650   2.280   4.223   4.024
 1548TIP3    H2 4651   2.293   4.103   4.115
 1549TIP3   OH2 4652   0.912   3.041   2.597
 1549TIP3    H1 4653   0.902   3.129   2.558
 1549TIP3    H2 4654   0.858   3.044   2.676
 1550TIP3   OH2 4655   3.350   4.061   4.941
 1550TIP3    H1 4656   3.367   3.971   4.911
 1550TIP3    H2 4657   3.437   4.101   4.945
 1551TIP3   OH2 4658   0.399   4.849   4.841
 1551TIP3    H1 4659   0.360   4.763   4.827
 1551TIP3    H2 4660   0.493   4.836   4.827
 1552TIP3   OH2 4661   5.177   3.754   3.313
 1552TIP3    H1 4662   5.143   3.843   3.318
 1552TIP3    H2 4663   5.100   3.698   3.318
 1553TIP3   OH2 4664   2.291   3.172   0.763
 1553TIP3    H1 4665   2.308   3.260   0.732
 1553TIP3    H2 4666   2.224   3.138   0.705
 1554TIP3   OH2 4667   4.609   1.707   2.500
 1554TIP3    H1 4668   4.617   1.613   2.488
 1554TIP3    H2 4669   4.554   1.716   2.578
 1555TIP3   OH2 4670   5.963   4.651   3.511
 1555TIP3    H1 4671   5.968   4.632   3.418
 1555TIP3    H2 4672   6.014   4.731   3.523
 1556TIP3   OH2 4673   3.253   0.667   0.640
 1556TIP3    H1 4674   3.283   0.758   0.646
 1556TIP3    H2 4675   3.296   0.632   0.562
 1557TIP3   OH2 4676   5.393   1.936   2.333
 1557TIP3    H1 4677   5.487   1.939   2.317
 1557TIP3    H2 4678   5.354   1.920   2.247
 1558TIP3   OH2 4679   1.175   0.266   1.230
 1558TIP3    H1 4680   1.207   0.348   1.193
 1558TIP3    H2 4681   1.211   0.263   1.318
 1559TIP3   OH2 4682   2.079   4.638   0.177
 1559TIP3    H1 4683   1.987   4.664   0.171
 1559TIP3    H2 4684   2.127   4.721   0.186
 1560TIP3   OH2 4685   3.630   0.376   1.989
 1560TIP3    H1 4686   3.694   0.374   2.060
 1560TIP3    H2 4687   3.683   0.373   1.909
 1561TIP3   OH2 4688   3.928   1.745   5.163
 1561TIP3    H1 4689   3.867   1.721   5.233
 1561TIP3    H2 4690   3.982   1.667   5.152
 1562TIP3   OH2 4691   1.737   4.228   0.077
 1562TIP3    H1 4692   1.748   4.219   0.172
 1562TIP3    H2 4693   1.787   4.306   0.054
 1563TIP3   OH2 4694   5.669   1.814   1.581
 1563TIP3    H1 4695   5.715   1.876   1.638
 1563TIP3    H2 4696   5.627   1.753   1.641
 1564TIP3   OH2 4697   2.298   2.547   0.642
 1564TIP3    H1 4698   2.308   2.540   0.737
 1564TIP3    H2 4699   2.218   2.598   0.630
 1565TIP3   OH2 4700   5.925   4.976   3.239
 1565TIP3    H1 4701   5.972   5.034   3.180
 1565TIP3    H2 4702   5.987   4.905   3.257
 1566TIP3   OH2 4703   0.776   1.511   2.096
 1566TIP3    H1 4704   0.724   1.436   2.068
 1566TIP3    H2 4705   0.760   1.517   2.190
 1567TIP3   OH2 4706   0.069   0.144   4.811
 1567TIP3    H1 4707   0.077   0.092   4.891
 1567TIP3    H2 4708   0.068   0.080   4.740
 1568TIP3   OH2 4709   2.524   0.726   0.904
 1568TIP3    H1 4710   2.515   0.719   0.999
 1568TIP3    H2 4711   2.613   0.757   0.891
 1569TIP3   OH2 4712   1.760   3.376   2.855
 1569TIP3    H1 4713   1.673   3.341   2.833
 1569TIP3    H2 4714   1.777   3.342   2.943
 1570TIP3   OH2 4715   2.799   0.701   4.604
 1570TIP3    H1 4716   2.817   0.773   4.665
 1570TIP3    H2 4717   2.858   0.631   4.633
 1571TIP3   OH2 4718   3.676   1.020   4.455
 1571TIP3    H1 4719   3.680   1.022   4.551
 1571TIP3    H2 4720   3.597   0.970   4.435
 1572TIP3   OH2 4721   4.132   5.849   2.504
 1572TIP3    H1 4722   4.214   5.868   2.549
 1572TIP3    H2 4723   4.144   5.882   2.415
 1573TIP3   OH2 4724   4.372   3.552   2.929
 1573TIP3    H1 4725   4.293   3.601   2.907
 1573TIP3    H2 4726   4.435   3.618   2.954
 1574TIP3   OH2 4727   0.530   2.939   4.884
 1574TIP3    H1 4728   0.589   2.988   4.941
 1574TIP3    H2 4729   0.443   2.956   4.918
 1575TIP3   OH2 4730   2.032   4.913   2.735
 1575TIP3    H1 4731   2.049   4.941   2.825
 1575TIP3    H2 4732   1.942   4.939   2.718
 1576TIP3   OH2 4733   1.147   1.956   4.910
 1576TIP3    H1 4734   1.217   1.901   4.874
 1576TIP3    H2 4735   1.113   2.004   4.834
 1577TIP3   OH2 4736   5.486   0.424   1.147
 1577TIP3    H1 4737   5.429   0.349   1.160
 1577TIP3    H2 4738   5.430   0.491   1.109
 1578TIP3   OH2 4739   3.323   2.137   1.907
 1578TIP3    H1 4740   3.242   2.107   1.866
 1578TIP3    H2 4741   3.355   2.062   1.956
 1579TIP3   OH2 4742   0.699   3.226   2.614
 1579TIP3    H1 4743   0.609   3.236   2.583
 1579TIP3    H2 4744   0.749   3.288   2.562
 1580TIP3   OH2 4745   3.014   0.747   1.166
 1580TIP3    H1 4746   3.049   0.718   1.251
 1580TIP3    H2 4747   3.080   0.719   1.103
 1581TIP3   OH2 4748   1.020   3.566   2.007
 1581TIP3    H1 4749   1.102   3.615   1.998
 1581TIP3    H2 4750   0.975   3.581   1.923
 1582TIP3   OH2 4751   2.728   0.089   4.154
 1582TIP3    H1 4752   2.822   0.091   4.134
 1582TIP3    H2 4753   2.719   0.019   4.218
 1583TIP3   OH2 4754   5.683   5.375   2.741
 1583TIP3    H1 4755   5.632   5.294   2.740
 1583TIP3    H2 4756   5.637   5.434   2.681
 1584TIP3   OH2 4757   4.651   1.930   4.670
 1584TIP3    H1 4758   4.579   1.932   4.607
 1584TIP3    H2 4759   4.623   1.990   4.739
 1585TIP3   OH2 4760   4.942   4.857   0.259
 1585TIP3    H1 4761   4.884   4.933   0.272
 1585TIP3    H2 4762   4.945   4.814   0.344
 1586TIP3   OH2 4763   2.340   3.504   0.126
 1586TIP3    H1 4764   2.376   3.582   0.084
 1586TIP3    H2 4765   2.375   3.431   0.074
 1587TIP3   OH2 4766   2.807   1.341   3.888
 1587TIP3    H1 4767   2.889   1.362   3.933
 1587TIP3    H2 4768   2.743   1.402   3.926
 1588TIP3   OH2 4769   1.377   1.137   3.534
 1588TIP3    H1 4770   1.424   1.053   3.533
 1588TIP3    H2 4771   1.423   1.191   3.471
 1589TIP3   OH2 4772   5.354   1.699   4.372
 1589TIP3    H1 4773   5.292   1.750   4.319
 1589TIP3    H2 4774   5.310   1.615   4.385
 1590TIP3   OH2 4775   1.380   3.396   5.152
 1590TIP3    H1 4776   1.332   3.399   5.235
 1590TIP3    H2 4777   1.468   3.428   5.174
 1591TIP3   OH2 4778   0.780   2.543   1.378
 1591TIP3    H1 4779   0.850   2.477   1.375
 1591TIP3    H2 4780   0.827   2.626   1.385
 1592TIP3   OH2 4781   4.511   4.527   2.161
 1592TIP3    H1 4782   4.597   4.486   2.154
 1592TIP3    H2 4783   4.510   4.565   2.249
 1593TIP3   OH2 4784   3.913   1.204   3.117
 1593TIP3    H1 4785   3.950   1.128   3.073
 1593TIP3    H2 4786   3.878   1.170   3.200
 1594TIP3   OH2 4787   0.172   4.005   2.602
 1594TIP3    H1 4788   0.133   4.038   2.684
 1594TIP3    H2 4789   0.156   3.911   2.604
 1595TIP3   OH2 4790   1.228   3.564   3.572
 1595TIP3    H1 4791   1.262   3.625   3.638
 1595TIP3    H2 4792   1.222   3.480   3.618
 1596TIP3   OH2 4793   0.466   3.257   5.017
 1596TIP3    H1 4794   0.395   3.197   4.995
 1596TIP3    H2 4795   0.462   3.325   4.949
 1597TIP3   OH2 4796   1.376   0.015   1.432
 1597TIP3    H1 4797   1.394   0.017   1.338
 1597TIP3    H2 4798   1.335   0.100   1.450
 1598TIP3   OH2 4799   4.560   3.096   0.677
 1598TIP3    H1 4800   4.486   3.157   0.674
 1598TIP3    H2 4801   4.522   3.015   0.712
 1599TIP3   OH2 4802   5.174   1.414   0.198
 1599TIP3    H1 4803   5.163   1.322   0.221
 1599TIP3    H2 4804   5.268   1.425   0.187
 1600TIP3   OH2 4805   2.284   1.166   2.803
 1600TIP3    H1 4806   2.346   1.121   2.744
 1600TIP3    H2 4807   2.209   1.188   2.747
 1601TIP3   OH2 4808   5.067   0.435   4.084
 1601TIP3    H1 4809   5.019   0.370   4.135
 1601TIP3    H2 4810   5.144   0.455   4.138
 1602TIP3   OH2 4811   1.456   0.109   1.189
 1602TIP3    H1 4812   1.506   0.175   1.236
 1602TIP3    H2 4813   1.393   0.159   1.137
 1603TIP3   OH2 4814   0.525   3.737   4.481
 1603TIP3    H1 4815   0.474   3.711   4.558
 1603TIP3    H2 4816   0.545   3.829   4.496
 1604TIP3   OH2 4817   2.107   5.526   0.616
 1604TIP3    H1 4818   2.151   5.449   0.580
 1604TIP3    H2 4819   2.068   5.496   0.698
 1605TIP3   OH2 4820   2.134   5.368   0.131
 1605TIP3    H1 4821   2.146   5.444   0.074
 1605TIP3    H2 4822   2.049   5.383   0.172
 1606TIP3   OH2 4823   1.503   5.530   0.721
 1606TIP3    H1 4824   1.426   5.535   0.664
 1606TIP3    H2 4825   1.540   5.444   0.703
 1607TIP3   OH2 4826   2.591   3.555   4.949
 1607TIP3    H1 4827   2.561   3.486   4.890
 1607TIP3    H2 4828   2.647   3.510   5.012
 1608TIP3   OH2 4829   3.513   0.676   0.506
 1608TIP3    H1 4830   3.550   0.609   0.563
 1608TIP3    H2 4831   3.556   0.664   0.422
 1609TIP3   OH2 4832   4.479   1.307   4.857
 1609TIP3    H1 4833   4.561   1.297   4.809
 1609TIP3    H2 4834   4.505   1.337   4.944
 1610TIP3   OH2 4835   0.065   5.783   1.766
 1610TIP3    H1 4836   0.043   5.867   1.726
 1610TIP3    H2 4837   0.122   5.740   1.702
 1611TIP3   OH2 4838   6.120   5.845   1.665
 1611TIP3    H1 4839   6.106   5.915   1.728
 1611TIP3    H2 4840   6.196   5.874   1.614
 1612TIP3   OH2 4841   0.364   4.493   2.267
 1612TIP3    H1 4842   0.439   4.490   2.207
 1612TIP3    H2 4843   0.292   4.527   2.213
 1613TIP3   OH2 4844   0.434   4.436   3.405
 1613TIP3    H1 4845   0.497   4.475   3.465
 1613TIP3    H2 4846   0.488   4.391   3.340
 1614TIP3   OH2 4847   5.677   3.257   4.680
 1614TIP3    H1 4848   5.677   3.229   4.589
 1614TIP3    H2 4849   5.586   3.248   4.708
 1615TIP3   OH2 4850   6.045   5.479   0.045
 1615TIP3    H1 4851   6.086   5.491  -0.041
 1615TIP3    H2 4852   6.089   5.402   0.081
 1616TIP3   OH2 4853   0.335   1.847   4.131
 1616TIP3    H1 4854   0.382   1.764   4.133
 1616TIP3    H2 4855   0.316   1.863   4.039
 1617TIP3   OH2 4856   1.282   0.765   4.912
 1617TIP3    H1 4857   1.349   0.817   4.868
 1617TIP3    H2 4858   1.292   0.787   5.005
 1618TIP3   OH2 4859   2.408   0.111   4.263
 1618TIP3    H1 4860   2.451   0.082   4.183
 1618TIP3    H2 4861   2.472   0.094   4.332
 1619TIP3   OH2 4862   3.572   4.163   2.248
 1619TIP3    H1 4863   3.660   4.152   2.282
 1619TIP3    H2 4864   3.579   4.237   2.188
 1620TIP3   OH2 4865   6.238   4.799   2.629
 1620TIP3    H1 4866   6.150   4.766   2.612
 1620TIP3    H2 4867   6.290   4.720   2.647
 1621TIP3   OH2 4868   3.005   0.580   1.420
 1621TIP3    H1 4869   2.990   0.514   1.352
 1621TIP3    H2 4870   3.099   0.574   1.438
 1622TIP3   OH2 4871   5.671   0.570   0.467
 1622TIP3    H1 4872   5.579   0.579   0.488
 1622TIP3    H2 4873   5.697   0.487   0.507
 1623TIP3   OH2 4874   4.197   3.280   4.627
 1623TIP3    H1 4875   4.232   3.312   4.543
 1623TIP3    H2 4876   4.111   3.243   4.604
 1624TIP3   OH2 4877   0.670   3.213   0.969
 1624TIP3    H1 4878   0.721   3.199   0.890
 1624TIP3    H2 4879   0.581   3.229   0.938
 1625TIP3   OH2 4880   1.348   2.189   0.732
 1625TIP3    H1 4881   1.257   2.217   0.716
 1625TIP3    H2 4882   1.349   2.164   0.824
 1626TIP3   OH2 4883   3.139   1.700   5.020
 1626TIP3    H1 4884   3.127   1.662   5.107
 1626TIP3    H2 4885   3.176   1.630   4.967
 1627TIP3   OH2 4886   1.280   0.607   3.393
 1627TIP3    H1 4887   1.205   0.627   3.339
 1627TIP3    H2 4888   1.286   0.511   3.393
 1628TIP3   OH2 4889   3.600   0.070   1.111
 1628TIP3    H1 4890   3.532   0.021   1.156
 1628TIP3    H2 4891   3.592   0.044   1.019
 1629TIP3   OH2 4892   0.834   0.296   1.754
 1629TIP3    H1 4893   0.820   0.298   1.849
 1629TIP3    H2 4894   0.907   0.235   1.742
 1630TIP3   OH2 4895   3.153   5.138   1.901
 1630TIP3    H1 4896   3.074   5.186   1.877
 1630TIP3    H2 4897   3.120   5.061   1.948
 1631TIP3   OH2 4898   3.957   5.740   2.904
 1631TIP3    H1 4899   3.925   5.714   2.990
 1631TIP3    H2 4900   4.023   5.807   2.921
 1632TIP3   OH2 4901   4.088   0.588   4.090
 1632TIP3    H1 4902   4.130   0.660   4.044
 1632TIP3    H2 4903   4.146   0.569   4.164
 1633TIP3   OH2 4904   5.641   5.300   3.427
 1633TIP3    H1 4905   5.585   5.329   3.355
 1633TIP3    H2 4906   5.591   5.229   3.468
 1634TIP3   OH2 4907   6.255   2.194   1.828
 1634TIP3    H1 4908   6.346   2.176   1.806
 1634TIP3    H2 4909   6.239   2.144   1.908
 1635TIP3   OH2 4910   4.346   5.700   3.964
 1635TIP3    H1 4911   4.433   5.676   3.932
 1635TIP3    H2 4912   4.339   5.794   3.945
 1636TIP3   OH2 4913   2.747   4.582   2.984
 1636TIP3    H1 4914   2.752   4.639   2.908
 1636TIP3    H2 4915   2.838   4.559   3.004
 1637TIP3   OH2 4916   3.367   0.606   3.924
 1637TIP3    H1 4917   3.336   0.615   4.014
 1637TIP3    H2 4918   3.447   0.552   3.932
 1638TIP3   OH2 4919   4.645   3.794   4.748
 1638TIP3    H1 4920   4.600   3.823   4.827
 1638TIP3    H2 4921   4.583   3.736   4.704
 1639TIP3   OH2 4922   4.848   2.973   2.877
 1639TIP3    H1 4923   4.817   2.883   2.871
 1639TIP3    H2 4924   4.840   3.008   2.789
 1640TIP3   OH2 4925   4.828   2.400   4.655
 1640TIP3    H1 4926   4.922   2.390   4.671
 1640TIP3    H2 4927   4.818   2.376   4.563
 1641TIP3   OH2 4928   1.319   4.351   1.224
 1641TIP3    H1 4929   1.253   4.415   1.196
 1641TIP3    H2 4930   1.271   4.292   1.283
 1642TIP3   OH2 4931   5.688   3.725   0.382
 1642TIP3    H1 4932   5.596   3.729   0.409
 1642TIP3    H2 4933   5.718   3.816   0.384
 1643TIP3   OH2 4934   1.629   2.031   4.647
 1643TIP3    H1 4935   1.591   1.993   4.568
 1643TIP3    H2 4936   1.690   1.965   4.678
 1644TIP3   OH2 4937   2.996   4.905   2.857
 1644TIP3    H1 4938   2.996   4.945   2.944
 1644TIP3    H2 4939   3.074   4.850   2.856
 1645TIP3   OH2 4940   5.822   4.346   3.153
 1645TIP3    H1 4941   5.883   4.402   3.202
 1645TIP3    H2 4942   5.877   4.301   3.089
 1646TIP3   OH2 4943   5.629   3.821   1.104
 1646TIP3    H1 4944   5.620   3.731   1.074
 1646TIP3    H2 4945   5.601   3.874   1.029
 1647TIP3   OH2 4946   3.533   1.360   4.000
 1647TIP3    H1 4947   3.508   1.417   4.072
 1647TIP3    H2 4948   3.620   1.390   3.974
 1648TIP3   OH2 4949   4.102   5.333   0.496
 1648TIP3    H1 4950   4.148   5.311   0.576
 1648TIP3    H2 4951   4.158   5.299   0.426
 1649TIP3   OH2 4952   0.063   3.433   2.527
 1649TIP3    H1 4953  -0.018   3.426   2.475
 1649TIP3    H2 4954   0.033   3.458   2.614
 1650TIP3   OH2 4955   3.205   2.157   0.844
 1650TIP3    H1 4956   3.149   2.117   0.911
 1650TIP3    H2 4957   3.247   2.231   0.888
 1651TIP3   OH2 4958   1.795   2.752   2.926
 1651TIP3    H1 4959   1.809   2.659   2.907
 1651TIP3    H2 4960   1.702   2.766   2.910
 1652TIP3   OH2 4961   2.784   5.684   0.906
 1652TIP3    H1 4962   2.824   5.657   0.989
 1652TIP3    H2 4963   2.794   5.779   0.904
 1653TIP3   OH2 4964   5.474   1.381   5.114
 1653TIP3    H1 4965   5.435   1.468   5.106
 1653TIP3    H2 4966   5.568   1.397   5.113
 1654TIP3   OH2 4967   5.137   1.774   0.062
 1654TIP3    H1 4968   5.201   1.845   0.056
 1654TIP3    H2 4969   5.066   1.801   0.004
 1655TIP3   OH2 4970   3.646   0.718   3.606
 1655TIP3    H1 4971   3.615   0.776   3.676
 1655TIP3    H2 4972   3.566   0.691   3.561
 1656TIP3   OH2 4973   4.185   2.856   5.071
 1656TIP3    H1 4974   4.155   2.931   5.122
 1656TIP3    H2 4975   4.154   2.873   4.982
 1657TIP3   OH2 4976   3.990   0.495   1.945
 1657TIP3    H1 4977   4.009   0.510   2.038
 1657TIP3    H2 4978   4.016   0.404   1.930
 1658TIP3   OH2 4979   4.166   4.469   3.073
 1658TIP3    H1 4980   4.198   4.393   3.024
 1658TIP3    H2 4981   4.198   4.455   3.162
 1659TIP3   OH2 4982   3.285   5.616   1.837
 1659TIP3    H1 4983   3.282   5.583   1.927
 1659TIP3    H2 4984   3.280   5.537   1.782
 1660TIP3   OH2 4985   3.715   3.946   1.224
 1660TIP3    H1 4986   3.783   3.880   1.212
 1660TIP3    H2 4987   3.760   4.030   1.211
 1661TIP3   OH2 4988   1.482   2.247   1.423
 1661TIP3    H1 4989   1.533   2.231   1.344
 1661TIP3    H2 4990   1.482   2.163   1.470
 1662TIP3   OH2 4991   2.247   2.352   4.252
 1662TIP3    H1 4992   2.324   2.388   4.295
 1662TIP3    H2 4993   2.277   2.329   4.164
 1663TIP3   OH2 4994   0.885   4.810   0.750
 1663TIP3    H1 4995   0.853   4.806   0.840
 1663TIP3    H2 4996   0.807   4.798   0.696
 1664TIP3   OH2 4997   1.159   4.501   3.180
 1664TIP3    H1 4998   1.158   4.456   3.264
 1664TIP3    H2 4999   1.081   4.469   3.135
 1665TIP3   OH2 5000   2.771   3.898   0.241
 1665TIP3    H1 5001   2.692   3.911   0.189
 1665TIP3    H2 5002   2.753   3.818   0.291
 1666TIP3   OH2 5003   5.098   2.603   3.373
 1666TIP3    H1 5004   5.091   2.631   3.281
 1666TIP3    H2 5005   5.179   2.552   3.375
 1667TIP3   OH2 5006   5.531   3.799   3.040
 1667TIP3    H1 5007   5.620   3.790   3.008
 1667TIP3    H2 5008   5.536   3.775   3.133
 1668TIP3   OH2 5009   3.547   0.950   0.487
 1668TIP3    H1 5010   3.534   0.857   0.472
 1668TIP3    H2 5011   3.635   0.968   0.455
 1669TIP3   OH2 5012   0.331   5.940   4.839
 1669TIP3    H1 5013   0.370   5.906   4.920
 1669TIP3    H2 5014   0.308   5.862   4.789
 1670TIP3   OH2 5015   2.102   0.412   3.821
 1670TIP3    H1 5016   2.156   0.387   3.747
 1670TIP3    H2 5017   2.013   0.415   3.786
 1671TIP3   OH2 5018   1.881   4.647   3.625
 1671TIP3    H1 5019   1.892   4.580   3.693
 1671TIP3    H2 5020   1.953   4.708   3.640
 1672TIP3   OH2 5021   0.764   2.658   4.166
 1672TIP3    H1 5022   0.743   2.744   4.204
 1672TIP3    H2 5023   0.775   2.675   4.072
 1673TIP3   OH2 5024   1.192   3.967   4.822
 1673TIP3    H1 5025   1.192   3.872   4.812
 1673TIP3    H2 5026   1.171   4.000   4.735
 1674TIP3   OH2 5027   3.259   5.648   4.645
 1674TIP3    H1 5028   3.246   5.557   4.673
 1674TIP3    H2 5029   3.241   5.647   4.551
 1675TIP3   OH2 5030   5.854   0.401   5.042
 1675TIP3    H1 5031   5.856   0.471   4.977
 1675TIP3    H2 5032   5.945   0.386   5.065
 1676TIP3   OH2 5033   2.047   3.715   0.695
 1676TIP3    H1 5034   1.977   3.753   0.641
 1676TIP3    H2 5035   2.004   3.643   0.742
 1677TIP3   OH2 5036   4.630   3.496   3.219
 1677TIP3    H1 5037   4.652   3.458   3.304
 1677TIP3    H2 5038   4.546   3.456   3.197
 1678TIP3   OH2 5039   1.786   5.048   2.734
 1678TIP3    H1 5040   1.716   4.983   2.745
 1678TIP3    H2 5041   1.805   5.078   2.822
 1679TIP3   OH2 5042   4.293   1.296   1.383
 1679TIP3    H1 5043   4.222   1.354   1.357
 1679TIP3    H2 5044   4.371   1.335   1.343
 1680TIP3   OH2 5045   4.845   2.994   1.413
 1680TIP3    H1 5046   4.930   2.967   1.448
 1680TIP3    H2 5047   4.807   3.047   1.481
 1681TIP3   OH2 5048   2.648   5.486   1.122
 1681TIP3    H1 5049   2.733   5.515   1.154
 1681TIP3    H2 5050   2.596   5.566   1.118
 1682TIP3   OH2 5051   5.335   2.932   0.504
 1682TIP3    H1 5052   5.356   2.938   0.597
 1682TIP3    H2 5053   5.316   3.022   0.477
 1683TIP3   OH2 5054   1.567   2.491   1.517
 1683TIP3    H1 5055   1.486   2.542   1.512
 1683TIP3    H2 5056   1.538   2.400   1.509
 1684TIP3   OH2 5057   3.466   2.958   0.092
 1684TIP3    H1 5058   3.486   3.051   0.088
 1684TIP3    H2 5059   3.382   2.950   0.047
 1685TIP3   OH2 5060   5.525   5.632   3.737
 1685TIP3    H1 5061   5.603   5.630   3.792
 1685TIP3    H2 5062   5.529   5.717   3.693
 1686TIP3   OH2 5063   1.320   0.463   5.194
 1686TIP3    H1 5064   1.320   0.545   5.244
 1686TIP3    H2 5065   1.340   0.490   5.104
 1687TIP3   OH2 5066   3.713   4.690   0.220
 1687TIP3    H1 5067   3.658   4.761   0.252
 1687TIP3    H2 5068   3.679   4.673   0.132
 1688TIP3   OH2 5069   5.643   4.819   2.493
 1688TIP3    H1 5070   5.706   4.840   2.562
 1688TIP3    H2 5071   5.559   4.812   2.539
 1689TIP3   OH2 5072   5.790   1.148   2.743
 1689TIP3    H1 5073   5.849   1.126   2.671
 1689TIP3    H2 5074   5.789   1.070   2.799
 1690TIP3   OH2 5075   6.137   1.630   4.587
 1690TIP3    H1 5076   6.230   1.642   4.569
 1690TIP3    H2 5077   6.128   1.653   4.680
 1691TIP3   OH2 5078   2.859   2.958   4.708
 1691TIP3    H1 5079   2.915   3.024   4.667
 1691TIP3    H2 5080   2.771   2.977   4.674
 1692TIP3   OH2 5081   2.439   5.695   1.072
 1692TIP3    H1 5082   2.435   5.759   1.144
 1692TIP3    H2 5083   2.440   5.749   0.993
 1693TIP3   OH2 5084   1.785   3.730   1.780
 1693TIP3    H1 5085   1.746   3.752   1.695
 1693TIP3    H2 5086   1.866   3.684   1.758
 1694TIP3   OH2 5087   4.400   2.924   2.488
 1694TIP3    H1 5088   4.327   2.966   2.442
 1694TIP3    H2 5089   4.453   2.998   2.519
 1695TIP3   OH2 5090   4.798   0.426   2.120
 1695TIP3    H1 5091   4.886   0.395   2.141
 1695TIP3    H2 5092   4.788   0.408   2.027
 1696TIP3   OH2 5093   3.635   2.912   2.542
 1696TIP3    H1 5094   3.640   2.818   2.526
 1696TIP3    H2 5095   3.569   2.921   2.611
 1697TIP3   OH2 5096   1.577   2.046   1.587
 1697TIP3    H1 5097   1.613   1.960   1.609
 1697TIP3    H2 5098   1.606   2.103   1.658
 1698TIP3   OH2 5099   4.016   4.280   4.205
 1698TIP3    H1 5100   4.020   4.185   4.197
 1698TIP3    H2 5101   3.931   4.298   4.244
 1699TIP3   OH2 5102   0.411   3.953   1.955
 1699TIP3    H1 5103   0.344   3.979   2.018
 1699TIP3    H2 5104   0.478   4.020   1.962
 1700TIP3   OH2 5105   3.273   0.377   3.292
 1700TIP3    H1 5106   3.178   0.378   3.306
 1700TIP3    H2 5107   3.283   0.397   3.199
 1701TIP3   OH2 5108   1.695   1.202   0.388
 1701TIP3    H1 5109   1.628   1.192   0.456
 1701TIP3    H2 5110   1.777   1.210   0.437
 1702TIP3   OH2 5111   3.811   4.704   4.027
 1702TIP3    H1 5112   3.900   4.722   4.057
 1702TIP3    H2 5113   3.757   4.713   4.105
 1703TIP3   OH2 5114   1.598   5.229   0.228
 1703TIP3    H1 5115   1.604   5.310   0.280
 1703TIP3    H2 5116   1.645   5.249   0.147
 1704TIP3   OH2 5117   1.867   5.436   0.132
 1704TIP3    H1 5118   1.886   5.383   0.054
 1704TIP3    H2 5119   1.812   5.508   0.100
 1705TIP3   OH2 5120   1.335   3.032   1.927
 1705TIP3    H1 5121   1.270   3.100   1.947
 1705TIP3    H2 5122   1.362   2.999   2.013
 1706TIP3   OH2 5123   4.968   5.762   3.263
 1706TIP3    H1 5124   4.889   5.814   3.244
 1706TIP3    H2 5125   5.019   5.766   3.183
 1707TIP3   OH2 5126   6.371   3.390   0.402
 1707TIP3    H1 5127   6.315   3.399   0.325
 1707TIP3    H2 5128   6.321   3.334   0.462
 1708TIP3   OH2 5129   5.851   0.209   0.680
 1708TIP3    H1 5130   5.903   0.129   0.686
 1708TIP3    H2 5131   5.877   0.260   0.757
 1709TIP3   OH2 5132   1.056   3.317   0.254
 1709TIP3    H1 5133   1.010   3.259   0.315
 1709TIP3    H2 5134   1.136   3.270   0.231
 1710TIP3   OH2 5135   1.062   0.284   2.519
 1710TIP3    H1 5136   0.969   0.273   2.501
 1710TIP3    H2 5137   1.093   0.197   2.545
 1711TIP3   OH2 5138   2.414   0.065   3.339
 1711TIP3    H1 5139   2.399   0.008   3.414
 1711TIP3    H2 5140   2.505   0.093   3.349
 1712TIP3   OH2 5141   4.446   5.984   0.713
 1712TIP3    H1 5142   4.457   5.921   0.642
 1712TIP3    H2 5143   4.419   5.932   0.788
 1713TIP3   OH2 5144   3.756   3.779   2.138
 1713TIP3    H1 5145   3.834   3.831   2.122
 1713TIP3    H2 5146   3.707   3.782   2.056
 1714TIP3   OH2 5147   6.240   1.632   3.753
 1714TIP3    H1 5148   6.320   1.581   3.736
 1714TIP3    H2 5149   6.169   1.572   3.732
 1715TIP3   OH2 5150   0.829   5.092   2.277
 1715TIP3    H1 5151   0.822   5.027   2.347
 1715TIP3    H2 5152   0.837   5.040   2.197
 1716TIP3   OH2 5153   5.506   0.535   4.759
 1716TIP3    H1 5154   5.487   0.493   4.844
 1716TIP3    H2 5155   5.493   0.465   4.695
 1717TIP3   OH2 5156   1.561   4.294   1.105
 1717TIP3    H1 5157   1.478   4.313   1.148
 1717TIP3    H2 5158   1.599   4.380   1.085
 1718TIP3   OH2 5159   2.415   0.448   0.835
 1718TIP3    H1 5160   2.464   0.530   0.840
 1718TIP3    H2 5161   2.429   0.406   0.920
 1719TIP3   OH2 5162   4.444   1.665   1.540
 1719TIP3    H1 5163   4.417   1.612   1.615
 1719TIP3    H2 5164   4.501   1.732   1.577
 1720TIP3   OH2 5165   2.340   5.045   4.125
 1720TIP3    H1 5166   2.354   4.953   4.147
 1720TIP3    H2 5167   2.417   5.090   4.159
 1721TIP3   OH2 5168   5.263   3.433   1.738
 1721TIP3    H1 5169   5.221   3.387   1.665
 1721TIP3    H2 5170   5.339   3.475   1.700
 1722TIP3   OH2 5171   0.049   5.315   4.680
 1722TIP3    H1 5172   0.021   5.355   4.598
 1722TIP3    H2 5173   0.049   5.221   4.661
 1723TIP3   OH2 5174   1.333   2.076   0.462
 1723TIP3    H1 5175   1.355   2.136   0.532
 1723TIP3    H2 5176   1.269   2.016   0.500
 1724TIP3   OH2 5177   3.406   1.500   1.631
 1724TIP3    H1 5178   3.486   1.481   1.582
 1724TIP3    H2 5179   3.433   1.500   1.723
 1725TIP3   OH2 5180   1.974   3.013   4.149
 1725TIP3    H1 5181   2.045   3.051   4.096
 1725TIP3    H2 5182   1.982   2.919   4.137
 1726TIP3   OH2 5183   1.950   5.998   0.786
 1726TIP3    H1 5184   2.002   5.921   0.764
 1726TIP3    H2 5185   1.954   6.052   0.707
 1727TIP3   OH2 5186   1.394   0.215   0.492
 1727TIP3    H1 5187   1.443   0.159   0.552
 1727TIP3    H2 5188   1.460   0.263   0.444
 1728TIP3   OH2 5189   0.364   5.588   4.234
 1728TIP3    H1 5190   0.439   5.620   4.183
 1728TIP3    H2 5191   0.401   5.570   4.320
 1729TIP3   OH2 5192   3.862   3.918   1.838
 1729TIP3    H1 5193   3.854   3.861   1.762
 1729TIP3    H2 5194   3.782   3.970   1.837
 1730TIP3   OH2 5195   1.676   3.145   2.227
 1730TIP3    H1 5196   1.722   3.097   2.296
 1730TIP3    H2 5197   1.740   3.209   2.196
 1731TIP3   OH2 5198   1.901   1.035   3.676
 1731TIP3    H1 5199   1.860   1.114   3.710
 1731TIP3    H2 5200   1.855   0.963   3.719
 1732TIP3   OH2 5201   0.474   4.293   1.561
 1732TIP3    H1 5202   0.531   4.365   1.587
 1732TIP3    H2 5203   0.521   4.214   1.591
 1733TIP3   OH2 5204   1.874   5.265   0.937
 1733TIP3    H1 5205   1.966   5.286   0.922
 1733TIP3    H2 5206   1.826   5.336   0.895
 1734TIP3   OH2 5207   1.262   2.501   3.193
 1734TIP3    H1 5208   1.315   2.421   3.193
 1734TIP3    H2 5209   1.173   2.471   3.172
 1735TIP3   OH2 5210   0.230   5.125   3.238
 1735TIP3    H1 5211   0.272   5.168   3.313
 1735TIP3    H2 5212   0.210   5.195   3.177
 1736TIP3   OH2 5213   5.056   0.317   0.368
 1736TIP3    H1 5214   4.975   0.310   0.318
 1736TIP3    H2 5215   5.088   0.227   0.374
 1737TIP3   OH2 5216   1.578   0.519   3.552
 1737TIP3    H1 5217   1.485   0.502   3.568
 1737TIP3    H2 5218   1.606   0.571   3.627
 1738TIP3   OH2 5219   4.128   3.914   2.609
 1738TIP3    H1 5220   4.115   3.999   2.566
 1738TIP3    H2 5221   4.064   3.914   2.680
 1739TIP3   OH2 5222   0.111   4.848   1.145
 1739TIP3    H1 5223   0.184   4.909   1.155
 1739TIP3    H2 5224   0.054   4.867   1.219
 1740TIP3   OH2 5225   4.505   2.752   1.095
 1740TIP3    H1 5226   4.453   2.673   1.098
 1740TIP3    H2 5227   4.596   2.721   1.087
 1741TIP3   OH2 5228   3.637   5.647   2.940
 1741TIP3    H1 5229   3.640   5.726   2.885
 1741TIP3    H2 5230   3.563   5.661   2.999
 1742TIP3   OH2 5231   2.432   0.801   3.077
 1742TIP3    H1 5232   2.501   0.791   3.011
 1742TIP3    H2 5233   2.358   0.838   3.029
 1743TIP3   OH2 5234   5.878   5.860   3.365
 1743TIP3    H1 5235   5.971   5.854   3.344
 1743TIP3    H2 5236   5.856   5.952   3.350
 1744TIP3   OH2 5237   3.372   5.755   2.663
 1744TIP3    H1 5238   3.388   5.796   2.578
 1744TIP3    H2 5239   3.445   5.784   2.717
 1745TIP3   OH2 5240   1.702   4.963   0.285
 1745TIP3    H1 5241   1.685   4.953   0.379
 1745TIP3    H2 5242   1.702   5.058   0.271
 1746TIP3   OH2 5243   4.415   4.817   4.460
 1746TIP3    H1 5244   4.334   4.868   4.460
 1746TIP3    H2 5245   4.420   4.779   4.548
 1747TIP3   OH2 5246   1.376   2.222   4.102
 1747TIP3    H1 5247   1.297   2.179   4.068
 1747TIP3    H2 5248   1.430   2.236   4.024
 1748TIP3   OH2 5249   1.458   0.310   4.030
 1748TIP3    H1 5250   1.423   0.313   3.941
 1748TIP3    H2 5251   1.538   0.258   4.023
 1749TIP3   OH2 5252   1.746   5.288   5.225
 1749TIP3    H1 5253   1.727   5.357   5.161
 1749TIP3    H2 5254   1.780   5.216   5.173
 1750TIP3   OH2 5255   1.988   3.248   1.592
 1750TIP3    H1 5256   1.958   3.257   1.682
 1750TIP3    H2 5257   2.076   3.287   1.592
 1751TIP3   OH2 5258   0.192   1.676   2.066
 1751TIP3    H1 5259   0.236   1.595   2.042
 1751TIP3    H2 5260   0.161   1.712   1.983
 1752TIP3   OH2 5261   1.362   0.325   3.372
 1752TIP3    H1 5262   1.373   0.364   3.286
 1752TIP3    H2 5263   1.442   0.273   3.386
 1753TIP3   OH2 5264   2.511   3.711  -0.002
 1753TIP3    H1 5265   2.582   3.654   0.028
 1753TIP3    H2 5266   2.543   3.800   0.015
 1754TIP3   OH2 5267   1.795   5.395   3.529
 1754TIP3    H1 5268   1.715   5.434   3.564
 1754TIP3    H2 5269   1.808   5.438   3.444
 1755TIP3   OH2 5270   0.792   4.096   4.327
 1755TIP3    H1 5271   0.770   4.070   4.238
 1755TIP3    H2 5272   0.787   4.016   4.378
 1756TIP3   OH2 5273   3.542   0.749   2.317
 1756TIP3    H1 5274   3.495   0.745   2.400
 1756TIP3    H2 5275   3.511   0.673   2.267
 1757TIP3   OH2 5276   5.194   2.496   2.853
 1757TIP3    H1 5277   5.165   2.451   2.773
 1757TIP3    H2 5278   5.217   2.425   2.913
 1758TIP3   OH2 5279   0.349   4.696   2.509
 1758TIP3    H1 5280   0.434   4.686   2.552
 1758TIP3    H2 5281   0.344   4.621   2.449
 1759TIP3   OH2 5282   5.833   4.653   4.023
 1759TIP3    H1 5283   5.877   4.722   4.072
 1759TIP3    H2 5284   5.880   4.573   4.047
 1760TIP3   OH2 5285   6.107   5.490   3.508
 1760TIP3    H1 5286   6.034   5.549   3.527
 1760TIP3    H2 5287   6.184   5.547   3.505
 1761TIP3   OH2 5288   0.774   3.847   4.777
 1761TIP3    H1 5289   0.791   3.754   4.796
 1761TIP3    H2 5290   0.858   3.890   4.794
 1762TIP3   OH2 5291   0.676   4.472   2.886
 1762TIP3    H1 5292   0.697   4.379   2.884
 1762TIP3    H2 5293   0.623   4.483   2.966
 1763TIP3   OH2 5294   0.373   5.646   4.806
 1763TIP3    H1 5295   0.289   5.687   4.828
 1763TIP3    H2 5296   0.349   5.565   4.762
 1764TIP3   OH2 5297   4.532   3.203   1.519
 1764TIP3    H1 5298   4.566   3.283   1.560
 1764TIP3    H2 5299   4.451   3.184   1.567
 1765TIP3   OH2 5300   4.296   5.101   1.752
 1765TIP3    H1 5301   4.218   5.046   1.745
 1765TIP3    H2 5302   4.286   5.147   1.835
 1766TIP3   OH2 5303   2.756   4.363   1.749
 1766TIP3    H1 5304   2.686   4.352   1.686
 1766TIP3    H2 5305   2.745   4.453   1.782
 1767TIP3   OH2 5306   3.324   3.366   3.083
 1767TIP3    H1 5307   3.250   3.329   3.034
 1767TIP3    H2 5308   3.393   3.301   3.076
 1768TIP3   OH2 5309   2.075   1.625   0.692
 1768TIP3    H1 5310   2.082   1.537   0.729
 1768TIP3    H2 5311   2.164   1.660   0.697
 1769TIP3   OH2 5312   2.868   3.451   3.418
 1769TIP3    H1 5313   2.911   3.366   3.412
 1769TIP3    H2 5314   2.776   3.431   3.435
 1770TIP3   OH2 5315   3.620   1.977   3.125
 1770TIP3    H1 5316   3.563   1.979   3.048
 1770TIP3    H2 5317   3.586   1.904   3.177
 1771TIP3   OH2 5318   0.197   5.356  -0.017
 1771TIP3    H1 5319   0.197   5.368   0.078
 1771TIP3    H2 5320   0.143   5.277  -0.031
 1772TIP3   OH2 5321   6.003   0.079   1.833
 1772TIP3    H1 5322   6.059   0.071   1.756
 1772TIP3    H2 5323   6.033   0.159   1.876
 1773TIP3   OH2 5324   0.126   4.163   2.858
 1773TIP3    H1 5325   0.033   4.181   2.870
 1773TIP3    H2 5326   0.167   4.195   2.938
 1774TIP3   OH2 5327   5.759   2.936   4.737
 1774TIP3    H1 5328   5.748   2.848   4.701
 1774TIP3    H2 5329   5.677   2.954   4.783
 1775TIP3   OH2 5330   6.319   2.746   3.808
 1775TIP3    H1 5331   6.323   2.651   3.796
 1775TIP3    H2 5332   6.327   2.782   3.719
 1776TIP3   OH2 5333   3.890   4.363   0.458
 1776TIP3    H1 5334   3.920   4.273   0.441
 1776TIP3    H2 5335   3.795   4.358   0.453
 1777TIP3   OH2 5336   1.997   5.978   0.452
 1777TIP3    H1 5337   2.004   5.883   0.455
 1777TIP3    H2 5338   2.013   6.001   0.361
 1778TIP3   OH2 5339   5.206   3.232   1.945
 1778TIP3    H1 5340   5.268   3.243   2.016
 1778TIP3    H2 5341   5.223   3.306   1.886
 1779TIP3   OH2 5342   1.628   2.897   1.651
 1779TIP3    H1 5343   1.652   2.882   1.742
 1779TIP3    H2 5344   1.666   2.983   1.631
 1780TIP3   OH2 5345   4.309   0.592   0.723
 1780TIP3    H1 5346   4.371   0.535   0.767
 1780TIP3    H2 5347   4.342   0.680   0.739
 1781TIP3   OH2 5348   4.244   3.188   1.604
 1781TIP3    H1 5349   4.163   3.160   1.562
 1781TIP3    H2 5350   4.233   3.164   1.696
 1782TIP3   OH2 5351   2.445   0.397   0.327
 1782TIP3    H1 5352   2.359   0.429   0.303
 1782TIP3    H2 5353   2.445   0.305   0.302
 1783TIP3   OH2 5354   5.035   1.017   1.409
 1783TIP3    H1 5355   5.040   1.083   1.477
 1783TIP3    H2 5356   5.099   0.950   1.435
 1784TIP3   OH2 5357   0.456   2.732   1.972
 1784TIP3    H1 5358   0.409   2.779   2.042
 1784TIP3    H2 5359   0.537   2.783   1.960
 1785TIP3   OH2 5360   4.090   0.903   1.203
 1785TIP3    H1 5361   4.176   0.931   1.236
 1785TIP3    H2 5362   4.109   0.858   1.121
 1786TIP3   OH2 5363   2.356   1.114   5.159
 1786TIP3    H1 5364   2.351   1.209   5.152
 1786TIP3    H2 5365   2.442   1.097   5.198
 1787TIP3   OH2 5366   5.323   0.457   4.209
 1787TIP3    H1 5367   5.366   0.522   4.154
 1787TIP3    H2 5368   5.376   0.378   4.199
 1788TIP3   OH2 5369   3.948   3.936   3.106
 1788TIP3    H1 5370   3.919   3.846   3.094
 1788TIP3    H2 5371   3.868   3.985   3.125
 1789TIP3   OH2 5372   2.972   5.143   2.269
 1789TIP3    H1 5373   3.040   5.077   2.257
 1789TIP3    H2 5374   2.940   5.130   2.358
 1790TIP3   OH2 5375   0.616   4.130   2.018
 1790TIP3    H1 5376   0.700   4.149   1.976
 1790TIP3    H2 5377   0.612   4.191   2.092
 1791TIP3   OH2 5378   0.540   1.985   3.888
 1791TIP3    H1 5379   0.467   1.956   3.834
 1791TIP3    H2 5380   0.618   1.964   3.837
 1792TIP3   OH2 5381   4.555   5.069   1.613
 1792TIP3    H1 5382   4.467   5.098   1.638
 1792TIP3    H2 5383   4.545   4.976   1.592
 1793TIP3   OH2 5384   1.905   4.786   4.684
 1793TIP3    H1 5385   1.821   4.740   4.690
 1793TIP3    H2 5386   1.930   4.801   4.775
 1794TIP3   OH2 5387   3.978   4.627   3.766
 1794TIP3    H1 5388   3.921   4.622   3.842
 1794TIP3    H2 5389   4.054   4.574   3.789
 1795TIP3   OH2 5390   4.250   0.482   2.492
 1795TIP3    H1 5391   4.282   0.498   2.403
 1795TIP3    H2 5392   4.303   0.409   2.524
 1796TIP3   OH2 5393   3.086   4.987   2.551
 1796TIP3    H1 5394   3.178   5.005   2.569
 1796TIP3    H2 5395   3.084   4.894   2.526
 1797TIP3   OH2 5396   1.021   1.340   2.053
 1797TIP3    H1 5397   0.934   1.364   2.084
 1797TIP3    H2 5398   1.065   1.423   2.038
 1798TIP3   OH2 5399   3.918   5.744   4.096
 1798TIP3    H1 5400   3.933   5.701   4.180
 1798TIP3    H2 5401   3.974   5.822   4.099
 1799TIP3   OH2 5402   3.421   1.040   4.868
 1799TIP3    H1 5403   3.328   1.033   4.846
 1799TIP3    H2 5404   3.437   0.967   4.928
 1800TIP3   OH2 5405   3.078   4.376   2.793
 1800TIP3    H1 5406   3.067   4.432   2.869
 1800TIP3    H2 5407   3.136   4.306   2.823
 1801TIP3   OH2 5408   3.483   4.132   4.294
 1801TIP3    H1 5409   3.490   4.084   4.212
 1801TIP3    H2 5410   3.548   4.202   4.287
 1802TIP3   OH2 5411   0.175   0.749   1.957
 1802TIP3    H1 5412   0.145   0.790   1.876
 1802TIP3    H2 5413   0.241   0.686   1.929
 1803TIP3   OH2 5414   0.234   0.590   3.644
 1803TIP3    H1 5415   0.258   0.584   3.551
 1803TIP3    H2 5416   0.175   0.666   3.648
 1804TIP3   OH2 5417   4.885   1.207   3.670
 1804TIP3    H1 5418   4.926   1.294   3.670
 1804TIP3    H2 5419   4.792   1.224   3.689
 1805TIP3   OH2 5420   5.469   4.436   4.302
 1805TIP3    H1 5421   5.502   4.353   4.337
 1805TIP3    H2 5422   5.505   4.442   4.214
 1806TIP3   OH2 5423   1.204   2.137   3.879
 1806TIP3    H1 5424   1.111   2.125   3.898
 1806TIP3    H2 5425   1.213   2.229   3.856
 1807TIP3   OH2 5426   4.698   2.238   5.140
 1807TIP3    H1 5427   4.621   2.294   5.148
 1807TIP3    H2 5428   4.748   2.253   5.221
 1808TIP3   OH2 5429   0.456   6.016   1.120
 1808TIP3    H1 5430   0.457   5.970   1.204
 1808TIP3    H2 5431   0.542   5.997   1.082
 1809TIP3   OH2 5432   1.395   1.590   4.662
 1809TIP3    H1 5433   1.318   1.549   4.703
 1809TIP3    H2 5434   1.467   1.566   4.720
 1810TIP3   OH2 5435   2.564   1.672   0.615
 1810TIP3    H1 5436   2.633   1.710   0.560
 1810TIP3    H2 5437   2.504   1.630   0.553
 1811TIP3   OH2 5438   0.050   0.392   3.431
 1811TIP3    H1 5439   0.101   0.328   3.481
 1811TIP3    H2 5440   0.062   0.474   3.478
 1812TIP3   OH2 5441   4.244   3.135   3.895
 1812TIP3    H1 5442   4.282   3.208   3.845
 1812TIP3    H2 5443   4.318   3.077   3.913
 1813TIP3   OH2 5444   4.973   0.883   5.004
 1813TIP3    H1 5445   5.068   0.873   4.999
 1813TIP3    H2 5446   4.940   0.833   4.929
 1814TIP3   OH2 5447   3.611   1.985   0.481
 1814TIP3    H1 5448   3.635   2.066   0.526
 1814TIP3    H2 5449   3.525   2.001   0.445
 1815TIP3   OH2 5450   2.955   5.814   4.406
 1815TIP3    H1 5451   3.015   5.743   4.429
 1815TIP3    H2 5452   3.007   5.894   4.416
 1816TIP3   OH2 5453   6.353   1.409   2.606
 1816TIP3    H1 5454   6.349   1.458   2.688
 1816TIP3    H2 5455   6.284   1.343   2.613
 1817TIP3   OH2 5456   3.582   2.656   2.415
 1817TIP3    H1 5457   3.489   2.637   2.426
 1817TIP3    H2 5458   3.625   2.570   2.426
 1818TIP3   OH2 5459   4.283   4.521   1.988
 1818TIP3    H1 5460   4.329   4.466   1.925
 1818TIP3    H2 5461   4.353   4.565   2.036
 1819TIP3   OH2 5462   2.282   3.060   2.700
 1819TIP3    H1 5463   2.193   3.027   2.705
 1819TIP3    H2 5464   2.275   3.151   2.729
 1820TIP3   OH2 5465   5.646   3.165   5.166
 1820TIP3    H1 5466   5.691   3.145   5.084
 1820TIP3    H2 5467   5.553   3.162   5.144
 1821TIP3   OH2 5468   3.736   1.646   0.794
 1821TIP3    H1 5469   3.816   1.691   0.821
 1821TIP3    H2 5470   3.732   1.658   0.700
 1822TIP3   OH2 5471   3.430   0.958   1.493
 1822TIP3    H1 5472   3.393   1.046   1.498
 1822TIP3    H2 5473   3.443   0.943   1.399
 1823TIP3   OH2 5474   3.229   2.698   4.004
 1823TIP3    H1 5475   3.309   2.651   3.979
 1823TIP3    H2 5476   3.234   2.781   3.957
 1824TIP3   OH2 5477   0.535   2.102   1.481
 1824TIP3    H1 5478   0.552   2.195   1.493
 1824TIP3    H2 5479   0.622   2.063   1.471
 1825TIP3   OH2 5480   1.510   5.282   5.069
 1825TIP3    H1 5481   1.572   5.218   5.104
 1825TIP3    H2 5482   1.503   5.349   5.137
 1826TIP3   OH2 5483   3.272   5.050   3.984
 1826TIP3    H1 5484   3.364   5.070   3.964
 1826TIP3    H2 5485   3.236   5.134   4.015
 1827TIP3   OH2 5486   5.947   2.319   0.667
 1827TIP3    H1 5487   5.996   2.307   0.749
 1827TIP3    H2 5488   5.881   2.250   0.669
 1828TIP3   OH2 5489   0.253   3.432   3.266
 1828TIP3    H1 5490   0.178   3.491   3.256
 1828TIP3    H2 5491   0.244   3.369   3.194
 1829TIP3   OH2 5492   4.531   0.057   3.662
 1829TIP3    H1 5493   4.590   0.023   3.594
 1829TIP3    H2 5494   4.578   0.040   3.744
 1830TIP3   OH2 5495   3.928   5.379   3.104
 1830TIP3    H1 5496   3.863   5.341   3.045
 1830TIP3    H2 5497   4.005   5.391   3.050
 1831TIP3   OH2 5498   4.899   0.203   4.453
 1831TIP3    H1 5499   4.942   0.233   4.373
 1831TIP3    H2 5500   4.901   0.279   4.512
 1832TIP3   OH2 5501   0.594   2.290   4.292
 1832TIP3    H1 5502   0.673   2.325   4.252
 1832TIP3    H2 5503   0.591   2.198   4.264
 1833TIP3   OH2 5504   1.620   4.986   0.028
 1833TIP3    H1 5505   1.566   5.065   0.028
 1833TIP3    H2 5506   1.639   4.970   0.120
 1834TIP3   OH2 5507   0.290   4.184   3.358
 1834TIP3    H1 5508   0.348   4.258   3.375
 1834TIP3    H2 5509   0.245   4.169   3.441
 1835TIP3   OH2 5510   3.585   3.454   2.821
 1835TIP3    H1 5511   3.644   3.471   2.894
 1835TIP3    H2 5512   3.503   3.497   2.845
 1836TIP3   OH2 5513   5.146   3.337   5.026
 1836TIP3    H1 5514   5.107   3.254   4.998
 1836TIP3    H2 5515   5.192   3.316   5.107
 1837TIP3   OH2 5516   3.706   3.348   3.213
 1837TIP3    H1 5517   3.659   3.279   3.166
 1837TIP3    H2 5518   3.754   3.395   3.145
 1838TIP3   OH2 5519   5.819   4.690   1.391
 1838TIP3    H1 5520   5.860   4.768   1.429
 1838TIP3    H2 5521   5.871   4.671   1.313
 1839TIP3   OH2 5522   1.070   4.916   0.039
 1839TIP3    H1 5523   1.002   4.852   0.062
 1839TIP3    H2 5524   1.102   4.948   0.123
 1840TIP3   OH2 5525   3.585   2.118   1.463
 1840TIP3    H1 5526   3.521   2.174   1.507
 1840TIP3    H2 5527   3.670   2.155   1.488
 1841TIP3   OH2 5528   2.020   2.667   1.975
 1841TIP3    H1 5529   2.086   2.611   2.016
 1841TIP3    H2 5530   2.035   2.754   2.013
 1842TIP3   OH2 5531   4.036   4.676   1.485
 1842TIP3    H1 5532   4.113   4.731   1.469
 1842TIP3    H2 5533   4.034   4.615   1.411
 1843TIP3   OH2 5534   6.261   3.440   1.693
 1843TIP3    H1 5535   6.321   3.424   1.621
 1843TIP3    H2 5536   6.178   3.462   1.651
 1844TIP3   OH2 5537   2.486   1.175   4.070
 1844TIP3    H1 5538   2.499   1.239   4.000
 1844TIP3    H2 5539   2.408   1.206   4.115
 1845TIP3   OH2 5540   0.570   3.950   2.977
 1845TIP3    H1 5541   0.517   3.915   3.048
 1845TIP3    H2 5542   0.578   3.878   2.915
 1846TIP3   OH2 5543   5.029   2.091   4.368
 1846TIP3    H1 5544   5.040   2.057   4.456
 1846TIP3    H2 5545   5.101   2.153   4.357
 1847TIP3   OH2 5546   1.081   2.671   3.774
 1847TIP3    H1 5547   1.177   2.668   3.781
 1847TIP3    H2 5548   1.050   2.670   3.864
 1848TIP3   OH2 5549   0.010   5.802   2.547
 1848TIP3    H1 5550   0.011   5.884   2.596
 1848TIP3    H2 5551   0.017   5.828   2.455
 1849TIP3   OH2 5552   2.489   0.028   4.533
 1849TIP3    H1 5553   2.503   0.084   4.609
 1849TIP3    H2 5554   2.395   0.029   4.518
 1850TIP3   OH2 5555   2.600   3.495   3.186
 1850TIP3    H1 5556   2.525   3.513   3.244
 1850TIP3    H2 5557   2.563   3.497   3.098
 1851TIP3   OH2 5558   5.344   5.671   0.750
 1851TIP3    H1 5559   5.332   5.753   0.704
 1851TIP3    H2 5560   5.324   5.691   0.841
 1852TIP3   OH2 5561   4.294   0.180   4.744
 1852TIP3    H1 5562   4.351   0.191   4.820
 1852TIP3    H2 5563   4.254   0.266   4.731
 1853TIP3   OH2 5564   3.373   2.406   1.941
 1853TIP3    H1 5565   3.374   2.312   1.921
 1853TIP3    H2 5566   3.282   2.432   1.927
 1854TIP3   OH2 5567   0.481   2.829   4.313
 1854TIP3    H1 5568   0.390   2.858   4.324
 1854TIP3    H2 5569   0.479   2.775   4.235
 1855TIP3   OH2 5570   6.165   5.266   3.733
 1855TIP3    H1 5571   6.157   5.356   3.700
 1855TIP3    H2 5572   6.129   5.212   3.662
 1856TIP3   OH2 5573   5.298   2.265   2.337
 1856TIP3    H1 5574   5.323   2.357   2.335
 1856TIP3    H2 5575   5.325   2.231   2.252
 1857TIP3   OH2 5576   3.051   4.558   2.998
 1857TIP3    H1 5577   3.070   4.596   2.913
 1857TIP3    H2 5578   3.091   4.618   3.061
 1858TIP3   OH2 5579   4.471   3.550   3.673
 1858TIP3    H1 5580   4.499   3.597   3.594
 1858TIP3    H2 5581   4.522   3.590   3.744
 1859TIP3   OH2 5582   0.630   4.220   2.268
 1859TIP3    H1 5583   0.677   4.136   2.272
 1859TIP3    H2 5584   0.547   4.203   2.312
 1860TIP3   OH2 5585   4.298   1.341   3.032
 1860TIP3    H1 5586   4.345   1.261   3.007
 1860TIP3    H2 5587   4.262   1.321   3.119
 1861TIP3   OH2 5588   1.844   0.400   3.700
 1861TIP3    H1 5589   1.790   0.475   3.674
 1861TIP3    H2 5590   1.784   0.345   3.751
 1862TIP3   OH2 5591   2.358   1.023   3.582
 1862TIP3    H1 5592   2.442   0.987   3.610
 1862TIP3    H2 5593   2.299   0.948   3.576
 1863TIP3   OH2 5594   3.865   3.316   5.072
 1863TIP3    H1 5595   3.839   3.320   5.164
 1863TIP3    H2 5596   3.959   3.337   5.073
 1864TIP3   OH2 5597   0.355   3.456   1.760
 1864TIP3    H1 5598   0.357   3.552   1.767
 1864TIP3    H2 5599   0.397   3.426   1.840
 1865TIP3   OH2 5600   1.649   5.078   3.654
 1865TIP3    H1 5601   1.727   5.043   3.697
 1865TIP3    H2 5602   1.632   5.161   3.700
 1866TIP3   OH2 5603   5.929   2.557   3.783
 1866TIP3    H1 5604   5.914   2.491   3.851
 1866TIP3    H2 5605   5.967   2.508   3.710
 1867TIP3   OH2 5606   1.883   3.326   1.825
 1867TIP3    H1 5607   1.938   3.344   1.901
 1867TIP3    H2 5608   1.812   3.391   1.832
 1868TIP3   OH2 5609   3.069   1.336   3.970
 1868TIP3    H1 5610   3.098   1.405   4.030
 1868TIP3    H2 5611   3.130   1.264   3.986
 1869TIP3   OH2 5612   5.183   1.307   0.541
 1869TIP3    H1 5613   5.089   1.323   0.550
 1869TIP3    H2 5614   5.218   1.325   0.629
 1870TIP3   OH2 5615   4.289   0.872   3.460
 1870TIP3    H1 5616   4.232   0.807   3.501
 1870TIP3    H2 5617   4.274   0.952   3.510
 1871TIP3   OH2 5618   2.356   0.892   1.942
 1871TIP3    H1 5619   2.263   0.869   1.951
 1871TIP3    H2 5620   2.403   0.818   1.980
 1872TIP3   OH2 5621   6.090   0.697   4.426
 1872TIP3    H1 5622   6.024   0.764   4.444
 1872TIP3    H2 5623   6.041   0.626   4.383
 1873TIP3   OH2 5624   3.217   3.974   0.001
 1873TIP3    H1 5625   3.147   3.959   0.066
 1873TIP3    H2 5626   3.170   4.000  -0.078
 1874TIP3   OH2 5627   2.197   1.075   1.090
 1874TIP3    H1 5628   2.107   1.044   1.096
 1874TIP3    H2 5629   2.204   1.142   1.159
 1875TIP3   OH2 5630   3.966   1.220   4.073
 1875TIP3    H1 5631   4.013   1.213   3.990
 1875TIP3    H2 5632   3.881   1.178   4.056
 1876TIP3   OH2 5633   2.697   5.969   1.191
 1876TIP3    H1 5634   2.744   5.958   1.109
 1876TIP3    H2 5635   2.751   5.926   1.257
 1877TIP3   OH2 5636   4.202   1.419   3.757
 1877TIP3    H1 5637   4.199   1.336   3.709
 1877TIP3    H2 5638   4.119   1.461   3.736
 1878TIP3   OH2 5639   4.437   0.415   4.910
 1878TIP3    H1 5640   4.360   0.410   4.967
 1878TIP3    H2 5641   4.495   0.477   4.955
 1879TIP3   OH2 5642   2.051   4.938   2.229
 1879TIP3    H1 5643   1.985   4.870   2.245
 1879TIP3    H2 5644   2.085   4.959   2.316
 1880TIP3   OH2 5645   4.207   4.872   3.150
 1880TIP3    H1 5646   4.212   4.812   3.076
 1880TIP3    H2 5647   4.208   4.959   3.110
 1881TIP3   OH2 5648   5.821   5.250   4.874
 1881TIP3    H1 5649   5.835   5.322   4.934
 1881TIP3    H2 5650   5.813   5.291   4.788
 1882TIP3   OH2 5651   5.250   5.329   2.211
 1882TIP3    H1 5652   5.170   5.302   2.257
 1882TIP3    H2 5653   5.266   5.259   2.147
 1883TIP3   OH2 5654   1.681   4.206   4.016
 1883TIP3    H1 5655   1.596   4.202   4.061
 1883TIP3    H2 5656   1.686   4.295   3.983
 1884TIP3   OH2 5657   0.269   2.494   0.466
 1884TIP3    H1 5658   0.202   2.541   0.417
 1884TIP3    H2 5659   0.288   2.416   0.413
 1885TIP3   OH2 5660   2.960   1.026   1.994
 1885TIP3    H1 5661   2.903   1.040   2.069
 1885TIP3    H2 5662   3.001   0.941   2.010
 1886TIP3   OH2 5663   5.217   5.350   3.954
 1886TIP3    H1 5664   5.123   5.343   3.942
 1886TIP3    H2 5665   5.229   5.438   3.990
 1887TIP3   OH2 5666   5.925   2.715   4.192
 1887TIP3    H1 5667   5.888   2.803   4.198
 1887TIP3    H2 5668   5.959   2.709   4.103
 1888TIP3   OH2 5669   6.191   5.547   2.479
 1888TIP3    H1 5670   6.118   5.526   2.538
 1888TIP3    H2 5671   6.216   5.637   2.501
 1889TIP3   OH2 5672   1.456   1.290   1.144
 1889TIP3    H1 5673   1.370   1.328   1.126
 1889TIP3    H2 5674   1.463   1.292   1.240
 1890TIP3   OH2 5675   1.840   4.919   3.795
 1890TIP3    H1 5676   1.919   4.898   3.744
 1890TIP3    H2 5677   1.800   4.834   3.814
 1891TIP3   OH2 5678   2.469   1.723   4.902
 1891TIP3    H1 5679   2.561   1.742   4.923
 1891TIP3    H2 5680   2.435   1.682   4.981
 1892TIP3   OH2 5681   5.751   1.834   3.530
 1892TIP3    H1 5682   5.762   1.766   3.463
 1892TIP3    H2 5683   5.701   1.903   3.486
 1893TIP3   OH2 5684   4.940   2.349   0.872
 1893TIP3    H1 5685   4.934   2.407   0.796
 1893TIP3    H2 5686   4.862   2.371   0.924
 1894TIP3   OH2 5687   1.602   4.210   2.625
 1894TIP3    H1 5688   1.612   4.141   2.690
 1894TIP3    H2 5689   1.554   4.168   2.553
 1895TIP3   OH2 5690   0.905   0.621   0.459
 1895TIP3    H1 5691   0.908   0.659   0.372
 1895TIP3    H2 5692   0.863   0.688   0.513
 1896TIP3   OH2 5693   3.865   3.571   0.764
 1896TIP3    H1 5694   3.889   3.500   0.705
 1896TIP3    H2 5695   3.773   3.556   0.785
 1897TIP3   OH2 5696   3.646   2.785   4.652
 1897TIP3    H1 5697   3.590   2.708   4.650
 1897TIP3    H2 5698   3.593   2.852   4.696
 1898TIP3   OH2 5699   2.776   3.888   3.355
 1898TIP3    H1 5700   2.788   3.949   3.283
 1898TIP3    H2 5701   2.766   3.803   3.313
 1899TIP3   OH2 5702   0.565   1.850   2.220
 1899TIP3    H1 5703   0.525   1.780   2.272
 1899TIP3    H2 5704   0.575   1.812   2.133
 1900TIP3   OH2 5705   2.985   1.812   4.664
 1900TIP3    H1 5706   3.021   1.867   4.733
 1900TIP3    H2 5707   2.934   1.873   4.610
 1901TIP3   OH2 5708   3.987   3.448   4.458
 1901TIP3    H1 5709   3.989   3.445   4.362
 1901TIP3    H2 5710   3.951   3.364   4.484
 1902TIP3   OH2 5711   5.328   2.929   2.055
 1902TIP3    H1 5712   5.348   3.019   2.081
 1902TIP3    H2 5713   5.351   2.877   2.132
 1903TIP3   OH2 5714   6.282   2.624   0.654
 1903TIP3    H1 5715   6.238   2.540   0.643
 1903TIP3    H2 5716   6.313   2.623   0.745
 1904TIP3   OH2 5717   2.990   2.191   0.662
 1904TIP3    H1 5718   3.046   2.185   0.740
 1904TIP3    H2 5719   2.999   2.106   0.620
 1905TIP3   OH2 5720   5.756   2.381   2.510
 1905TIP3    H1 5721   5.802   2.408   2.590
 1905TIP3    H2 5722   5.664   2.397   2.529
 1906TIP3   OH2 5723   6.092   4.863   0.400
 1906TIP3    H1 5724   6.146   4.890   0.326
 1906TIP3    H2 5725   6.155   4.838   0.468
 1907TIP3   OH2 5726   5.749   2.556   2.189
 1907TIP3    H1 5727   5.678   2.498   2.217
 1907TIP3    H2 5728   5.722   2.588   2.103
 1908TIP3   OH2 5729   2.435   4.594   1.724
 1908TIP3    H1 5730   2.369   4.570   1.789
 1908TIP3    H2 5731   2.484   4.665   1.765
 1909TIP3   OH2 5732   6.201   4.777   3.886
 1909TIP3    H1 5733   6.156   4.792   3.968
 1909TIP3    H2 5734   6.277   4.835   3.889
 1910TIP3   OH2 5735   1.827   3.398   2.434
 1910TIP3    H1 5736   1.914   3.388   2.474
 1910TIP3    H2 5737   1.845   3.404   2.340
 1911TIP3   OH2 5738   5.883   1.354   1.648
 1911TIP3    H1 5739   5.840   1.375   1.731
 1911TIP3    H2 5740   5.855   1.423   1.588
 1912TIP3   OH2 5741   5.810   3.680   1.305
 1912TIP3    H1 5742   5.749   3.752   1.288
 1912TIP3    H2 5743   5.886   3.700   1.250
 1913TIP3   OH2 5744   3.794   3.083   1.652
 1913TIP3    H1 5745   3.882   3.057   1.624
 1913TIP3    H2 5746   3.807   3.165   1.698
 1914TIP3   OH2 5747   3.922   5.307   4.913
 1914TIP3    H1 5748   3.957   5.365   4.980
 1914TIP3    H2 5749   3.894   5.365   4.843
 1915TIP3   OH2 5750   0.128   3.818   0.644
 1915TIP3    H1 5751   0.169   3.846   0.561
 1915TIP3    H2 5752   0.197   3.770   0.689
 1916TIP3   OH2 5753   5.257   2.834   5.090
 1916TIP3    H1 5754   5.290   2.757   5.138
 1916TIP3    H2 5755   5.187   2.868   5.146
 1917TIP3   OH2 5756   3.806   5.914   4.351
 1917TIP3    H1 5757   3.720   5.872   4.353
 1917TIP3    H2 5758   3.834   5.905   4.260
 1918TIP3   OH2 5759   5.826   1.766   5.056
 1918TIP3    H1 5760   5.829   1.835   5.121
 1918TIP3    H2 5761   5.770   1.801   4.986
 1919TIP3   OH2 5762   0.668   3.953   4.544
 1919TIP3    H1 5763   0.660   4.049   4.545
 1919TIP3    H2 5764   0.701   3.931   4.631
 1920TIP3   OH2 5765   4.830   0.462   4.537
 1920TIP3    H1 5766   4.866   0.545   4.568
 1920TIP3    H2 5767   4.738   0.465   4.562
 1921TIP3   OH2 5768   6.180   1.675   2.445
 1921TIP3    H1 5769   6.215   1.653   2.359
 1921TIP3    H2 5770   6.215   1.762   2.463
 1922TIP3   OH2 5771   4.394   3.268   2.391
 1922TIP3    H1 5772   4.379   3.323   2.467
 1922TIP3    H2 5773   4.483   3.233   2.403
 1923TIP3   OH2 5774   4.101  -0.034   4.808
 1923TIP3    H1 5775   4.178   0.018   4.786
 1923TIP3    H2 5776   4.031   0.002   4.754
 1924TIP3   OH2 5777   3.671   4.155   2.781
 1924TIP3    H1 5778   3.648   4.190   2.694
 1924TIP3    H2 5779   3.645   4.224   2.842
 1925TIP3   OH2 5780   1.918   5.859   1.367
 1925TIP3    H1 5781   1.907   5.788   1.431
 1925TIP3    H2 5782   1.977   5.920   1.409
 1926TIP3   OH2 5783   3.503   2.888   5.135
 1926TIP3    H1 5784   3.463   2.830   5.071
 1926TIP3    H2 5785   3.464   2.862   5.219
 1927TIP3   OH2 5786   5.945   5.700   4.593
 1927TIP3    H1 5787   5.977   5.683   4.681
 1927TIP3    H2 5788   5.969   5.623   4.543
 1928TIP3   OH2 5789   2.273   2.996   5.026
 1928TIP3    H1 5790   2.189   3.000   5.070
 1928TIP3    H2 5791   2.256   3.029   4.937
 1929TIP3   OH2 5792   4.034   2.989   4.251
 1929TIP3    H1 5793   3.978   3.057   4.288
 1929TIP3    H2 5794   4.121   3.009   4.284
 1930TIP3   OH2 5795   1.189   1.979   1.442
 1930TIP3    H1 5796   1.191   1.985   1.347
 1930TIP3    H2 5797   1.096   1.971   1.464
 1931TIP3   OH2 5798   5.397   5.735   0.180
 1931TIP3    H1 5799   5.364   5.672   0.245
 1931TIP3    H2 5800   5.319   5.782   0.151
 1932TIP3   OH2 5801   5.585   2.543   0.627
 1932TIP3    H1 5802   5.552   2.572   0.542
 1932TIP3    H2 5803   5.569   2.617   0.686
 1933TIP3   OH2 5804   4.739   2.605   1.119
 1933TIP3    H1 5805   4.771   2.643   1.201
 1933TIP3    H2 5806   4.814   2.611   1.059
 1934TIP3   OH2 5807   4.681   4.779   3.955
 1934TIP3    H1 5808   4.619   4.760   3.885
 1934TIP3    H2 5809   4.742   4.842   3.917
 1935TIP3   OH2 5810   3.224   1.828   2.607
 1935TIP3    H1 5811   3.259   1.872   2.530
 1935TIP3    H2 5812   3.242   1.736   2.593
 1936TIP3   OH2 5813   4.722   4.669   2.750
 1936TIP3    H1 5814   4.801   4.722   2.761
 1936TIP3    H2 5815   4.697   4.645   2.839
 1937TIP3   OH2 5816   5.538   5.187   0.657
 1937TIP3    H1 5817   5.458   5.229   0.690
 1937TIP3    H2 5818   5.534   5.200   0.562
 1938TIP3   OH2 5819   2.645   4.575   4.435
 1938TIP3    H1 5820   2.607   4.514   4.498
 1938TIP3    H2 5821   2.713   4.524   4.390
 1939TIP3   OH2 5822   4.937   2.387   1.964
 1939TIP3    H1 5823   4.930   2.383   2.059
 1939TIP3    H2 5824   4.869   2.328   1.932
 1940TIP3   OH2 5825   6.040   1.138   3.502
 1940TIP3    H1 5826   6.073   1.134   3.591
 1940TIP3    H2 5827   5.976   1.209   3.503
 1941TIP3   OH2 5828   2.482   4.070   1.202
 1941TIP3    H1 5829   2.404   4.123   1.187
 1941TIP3    H2 5830   2.495   4.072   1.297
 1942TIP3   OH2 5831   5.331   5.720   4.990
 1942TIP3    H1 5832   5.270   5.736   4.917
 1942TIP3    H2 5833   5.351   5.808   5.023
 1943TIP3   OH2 5834   0.031   3.117   2.272
 1943TIP3    H1 5835   0.071   3.032   2.255
 1943TIP3    H2 5836   0.068   3.175   2.205
 1944TIP3   OH2 5837   1.259   4.787   2.596
 1944TIP3    H1 5838   1.267   4.693   2.585
 1944TIP3    H2 5839   1.167   4.806   2.579
 1945TIP3   OH2 5840   2.090   3.797   1.497
 1945TIP3    H1 5841   2.080   3.751   1.580
 1945TIP3    H2 5842   2.119   3.884   1.522
 1946TIP3   OH2 5843   2.622   0.847   2.882
 1946TIP3    H1 5844   2.578   0.900   2.816
 1946TIP3    H2 5845   2.679   0.788   2.832
 1947TIP3   OH2 5846   6.235   3.397   3.176
 1947TIP3    H1 5847   6.297   3.464   3.204
 1947TIP3    H2 5848   6.239   3.330   3.244
 1948TIP3   OH2 5849   2.068   2.730   2.930
 1948TIP3    H1 5850   1.973   2.736   2.922
 1948TIP3    H2 5851   2.093   2.664   2.865
 1949TIP3   OH2 5852   3.540   4.518   1.615
 1949TIP3    H1 5853   3.574   4.431   1.596
 1949TIP3    H2 5854   3.449   4.503   1.643
 1950TIP3   OH2 5855   3.395   0.282   1.882
 1950TIP3    H1 5856   3.389   0.189   1.906
 1950TIP3    H2 5857   3.481   0.309   1.912
 1951TIP3   OH2 5858   1.901   4.076   0.805
 1951TIP3    H1 5859   1.932   4.036   0.724
 1951TIP3    H2 5860   1.815   4.037   0.821
 1952TIP3   OH2 5861   3.873   3.030   0.937
 1952TIP3    H1 5862   3.939   3.078   0.889
 1952TIP3    H2 5863   3.843   3.090   1.005
 1953TIP3   OH2 5864   3.211   1.708   1.154
 1953TIP3    H1 5865   3.274   1.637   1.150
 1953TIP3    H2 5866   3.259   1.785   1.121
 1954TIP3   OH2 5867   0.041   0.838   0.699
 1954TIP3    H1 5868  -0.042   0.791   0.708
 1954TIP3    H2 5869   0.100   0.776   0.656
 1955TIP3   OH2 5870   3.764   5.811   0.828
 1955TIP3    H1 5871   3.790   5.903   0.831
 1955TIP3    H2 5872   3.822   5.771   0.763
 1956TIP3   OH2 5873   1.330   2.905   0.624
 1956TIP3    H1 5874   1.237   2.882   0.619
 1956TIP3    H2 5875   1.345   2.961   0.547
 1957TIP3   OH2 5876   5.369   4.228   2.193
 1957TIP3    H1 5877   5.422   4.202   2.118
 1957TIP3    H2 5878   5.396   4.168   2.263
 1958TIP3   OH2 5879   4.966   5.952   2.258
 1958TIP3    H1 5880   4.960   6.036   2.212
 1958TIP3    H2 5881   4.937   5.887   2.194
 1959TIP3   OH2 5882   5.962   2.913   3.548
 1959TIP3    H1 5883   5.906   2.947   3.619
 1959TIP3    H2 5884   5.900   2.879   3.484
 1960TIP3   OH2 5885   1.023   1.722   1.219
 1960TIP3    H1 5886   1.010   1.677   1.303
 1960TIP3    H2 5887   0.966   1.799   1.224
 1961TIP3   OH2 5888   0.735   4.997   4.104
 1961TIP3    H1 5889   0.743   4.923   4.044
 1961TIP3    H2 5890   0.825   5.021   4.124
 1962TIP3   OH2 5891   0.500   3.179   3.719
 1962TIP3    H1 5892   0.424   3.156   3.771
 1962TIP3    H2 5893   0.468   3.243   3.655
 1963TIP3   OH2 5894   3.725   2.426   5.030
 1963TIP3    H1 5895   3.811   2.425   5.072
 1963TIP3    H2 5896   3.712   2.516   5.002
 1964TIP3   OH2 5897   5.310   0.630   1.143
 1964TIP3    H1 5898   5.363   0.674   1.210
 1964TIP3    H2 5899   5.221   0.662   1.158
 1965TIP3   OH2 5900   2.345   1.113   0.845
 1965TIP3    H1 5901   2.312   1.116   0.935
 1965TIP3    H2 5902   2.336   1.021   0.819
 1966TIP3   OH2 5903   4.507   3.987   3.581
 1966TIP3    H1 5904   4.466   4.023   3.660
 1966TIP3    H2 5905   4.553   3.909   3.612
 1967TIP3   OH2 5906   5.070   0.598   2.287
 1967TIP3    H1 5907   5.001   0.532   2.278
 1967TIP3    H2 5908   5.152   0.548   2.283
 1968TIP3   OH2 5909   5.145   2.667   1.416
 1968TIP3    H1 5910   5.142   2.600   1.483
 1968TIP3    H2 5911   5.212   2.637   1.355
 1969TIP3   OH2 5912   5.566   2.113   3.910
 1969TIP3    H1 5913   5.627   2.042   3.929
 1969TIP3    H2 5914   5.596   2.150   3.827
 1970TIP3   OH2 5915   5.818   3.039   2.662
 1970TIP3    H1 5916   5.775   3.035   2.576
 1970TIP3    H2 5917   5.880   3.111   2.654
 1971TIP3   OH2 5918   3.297   5.032   3.080
 1971TIP3    H1 5919   3.364   5.029   3.011
 1971TIP3    H2 5920   3.285   5.125   3.098
 1972TIP3   OH2 5921   4.147   1.894   3.860
 1972TIP3    H1 5922   4.209   1.854   3.921
 1972TIP3    H2 5923   4.201   1.925   3.788
 1973TIP3   OH2 5924   1.904   0.682   1.627
 1973TIP3    H1 5925   1.896   0.778   1.629
 1973TIP3    H2 5926   1.899   0.660   1.534
 1974TIP3   OH2 5927   0.570   3.123   4.338
 1974TIP3    H1 5928   0.569   3.029   4.320
 1974TIP3    H2 5929   0.547   3.164   4.254
 1975TIP3   OH2 5930   3.663   5.186   1.531
 1975TIP3    H1 5931   3.627   5.215   1.446
 1975TIP3    H2 5932   3.590   5.197   1.592
 1976TIP3   OH2 5933   1.567   0.118   3.061
 1976TIP3    H1 5934   1.499   0.166   3.013
 1976TIP3    H2 5935   1.568   0.032   3.020
 1977TIP3   OH2 5936   2.645   3.041   2.777
 1977TIP3    H1 5937   2.634   2.963   2.723
 1977TIP3    H2 5938   2.684   3.106   2.719
 1978TIP3   OH2 5939   2.070   3.680   1.756
 1978TIP3    H1 5940   2.165   3.683   1.752
 1978TIP3    H2 5941   2.051   3.617   1.825
 1979TIP3   OH2 5942   5.961   4.186   3.950
 1979TIP3    H1 5943   5.914   4.255   3.903
 1979TIP3    H2 5944   5.974   4.118   3.884
 1980TIP3   OH2 5945   1.406   3.459   4.658
 1980TIP3    H1 5946   1.334   3.449   4.596
 1980TIP3    H2 5947   1.363   3.483   4.740
 1981TIP3   OH2 5948   4.605   3.453   2.165
 1981TIP3    H1 5949   4.613   3.363   2.135
 1981TIP3    H2 5950   4.511   3.467   2.175
 1982TIP3   OH2 5951   3.520   1.037   0.020
 1982TIP3    H1 5952   3.498   1.068  -0.067
 1982TIP3    H2 5953   3.584   1.101   0.053
 1983TIP3   OH2 5954   2.331   5.142   0.059
 1983TIP3    H1 5955   2.366   5.086   0.128
 1983TIP3    H2 5956   2.255   5.095   0.026
 1984TIP3   OH2 5957   6.047   4.949   1.576
 1984TIP3    H1 5958   6.006   4.895   1.644
 1984TIP3    H2 5959   6.141   4.939   1.592
 1985TIP3   OH2 5960   0.464   5.651   3.579
 1985TIP3    H1 5961   0.553   5.618   3.595
 1985TIP3    H2 5962   0.440   5.615   3.494
 1986TIP3   OH2 5963   5.266   1.466   4.496
 1986TIP3    H1 5964   5.331   1.447   4.563
 1986TIP3    H2 5965   5.267   1.389   4.439
 1987TIP3   OH2 5966   1.261   2.809   2.388
 1987TIP3    H1 5967   1.300   2.721   2.392
 1987TIP3    H2 5968   1.202   2.804   2.312
 1988TIP3   OH2 5969   1.310   1.042   3.960
 1988TIP3    H1 5970   1.304   0.974   3.893
 1988TIP3    H2 5971   1.343   0.996   4.037
 1989TIP3   OH2 5972   4.050   0.950   3.042
 1989TIP3    H1 5973   4.118   0.992   2.990
 1989TIP3    H2 5974   4.091   0.932   3.126
 1990TIP3   OH2 5975   2.357   1.602   2.165
 1990TIP3    H1 5976   2.374   1.696   2.152
 1990TIP3    H2 5977   2.323   1.572   2.081
 1991TIP3   OH2 5978   3.662   2.646   4.364
 1991TIP3    H1 5979   3.643   2.665   4.456
 1991TIP3    H2 5980   3.758   2.647   4.359
 1992TIP3   OH2 5981   4.848   3.482   3.846
 1992TIP3    H1 5982   4.821   3.525   3.764
 1992TIP3    H2 5983   4.863   3.554   3.907
 1993TIP3   OH2 5984   4.821   4.162   4.918
 1993TIP3    H1 5985   4.875   4.233   4.953
 1993TIP3    H2 5986   4.742   4.206   4.885
 1994TIP3   OH2 5987   4.804   1.434   3.454
 1994TIP3    H1 5988   4.828   1.420   3.362
 1994TIP3    H2 5989   4.879   1.481   3.491
 1995TIP3   OH2 5990   0.916   3.318   2.045
 1995TIP3    H1 5991   0.908   3.289   1.954
 1995TIP3    H2 5992   0.973   3.395   2.041
 1996TIP3   OH2 5993   3.831   2.343   2.979
 1996TIP3    H1 5994   3.844   2.422   2.925
 1996TIP3    H2 5995   3.750   2.360   3.026
 1997TIP3   OH2 5996   5.569   0.458   2.041
 1997TIP3    H1 5997   5.580   0.374   2.086
 1997TIP3    H2 5998   5.479   0.484   2.058
 1998TIP3   OH2 5999   6.265   5.929   2.787
 1998TIP3    H1 6000   6.342   5.878   2.813
 1998TIP3    H2 6001   6.220   5.949   2.870
 1999TIP3   OH2 6002   5.771   3.745   2.378
 1999TIP3    H1 6003   5.785   3.694   2.298
 1999TIP3    H2 6004   5.856   3.785   2.396
 2000TIP3   OH2 6005   4.725   5.802   4.397
 2000TIP3    H1 6006   4.710   5.769   4.308
 2000TIP3    H2 6007   4.758   5.891   4.384
 2001TIP3   OH2 6008   2.288   2.924   2.270
 2001TIP3    H1 6009   2.264   2.925   2.363
 2001TIP3    H2 6010   2.370   2.972   2.265
 2002TIP3   OH2 6011   5.978   0.347   3.211
 2002TIP3    H1 6012   5.903   0.289   3.222
 2002TIP3    H2 6013   6.043   0.314   3.273
 2003TIP3   OH2 6014   5.289   2.969   2.708
 2003TIP3    H1 6015   5.318   2.928   2.627
 2003TIP3    H2 6016   5.230   2.905   2.748
 2004TIP3   OH2 6017   2.566   0.745   2.063
 2004TIP3    H1 6018   2.562   0.739   2.159
 2004TIP3    H2 6019   2.659   0.735   2.043
 2005TIP3   OH2 6020   0.890   5.588   3.417
 2005TIP3    H1 6021   0.809   5.548   3.385
 2005TIP3    H2 6022   0.958   5.524   3.398
 2006TIP3   OH2 6023   2.811   3.635   3.232
 2006TIP3    H1 6024   2.849   3.581   3.301
 2006TIP3    H2 6025   2.727   3.594   3.213
 2007TIP3   OH2 6026   1.779   1.840   4.762
 2007TIP3    H1 6027   1.766   1.851   4.856
 2007TIP3    H2 6028   1.834   1.763   4.753
 2008TIP3   OH2 6029   5.709   5.744   0.562
 2008TIP3    H1 6030   5.752   5.664   0.533
 2008TIP3    H2 6031   5.781   5.803   0.583
 2009TIP3   OH2 6032   5.022   2.514   4.293
 2009TIP3    H1 6033   4.984   2.544   4.211
 2009TIP3    H2 6034   5.076   2.587   4.323
 2010TIP3   OH2 6035   6.099   2.077   5.162
 2010TIP3    H1 6036   6.023   2.019   5.157
 2010TIP3    H2 6037   6.087   2.140   5.091
 2011TIP3   OH2 6038   3.689   2.776   3.803
 2011TIP3    H1 6039   3.637   2.697   3.817
 2011TIP3    H2 6040   3.769   2.746   3.761
 2012TIP3   OH2 6041   1.439   2.399   3.569
 2012TIP3    H1 6042   1.388   2.363   3.642
 2012TIP3    H2 6043   1.378   2.399   3.495
 2013TIP3   OH2 6044   2.635   4.979   2.187
 2013TIP3    H1 6045   2.575   4.982   2.112
 2013TIP3    H2 6046   2.607   5.052   2.242
 2014TIP3   OH2 6047   2.110   4.964   3.012
 2014TIP3    H1 6048   2.140   5.007   3.092
 2014TIP3    H2 6049   2.141   4.874   3.020
 2015TIP3   OH2 6050   2.197   0.862   2.959
 2015TIP3    H1 6051   2.156   0.924   2.899
 2015TIP3    H2 6052   2.217   0.785   2.905
 2016TIP3   OH2 6053   0.976   0.755   1.221
 2016TIP3    H1 6054   0.886   0.770   1.250
 2016TIP3    H2 6055   1.018   0.841   1.223
 2017TIP3   OH2 6056   2.892   2.133   1.537
 2017TIP3    H1 6057   2.894   2.059   1.598
 2017TIP3    H2 6058   2.827   2.192   1.573
 2018TIP3   OH2 6059   4.594   5.694   2.184
 2018TIP3    H1 6060   4.540   5.772   2.194
 2018TIP3    H2 6061   4.569   5.639   2.259
 2019TIP3   OH2 6062   2.903   5.844   0.666
 2019TIP3    H1 6063   2.889   5.920   0.724
 2019TIP3    H2 6064   2.901   5.881   0.578
 2020TIP3   OH2 6065   4.257   3.724   1.866
 2020TIP3    H1 6066   4.229   3.642   1.825
 2020TIP3    H2 6067   4.176   3.775   1.874
 2021TIP3   OH2 6068   1.195   5.623   0.983
 2021TIP3    H1 6069   1.236   5.540   0.956
 2021TIP3    H2 6070   1.206   5.681   0.908
 2022TIP3   OH2 6071   0.277   0.601   0.728
 2022TIP3    H1 6072   0.234   0.515   0.726
 2022TIP3    H2 6073   0.364   0.585   0.689
 2023TIP3   OH2 6074   1.096   2.700   1.694
 2023TIP3    H1 6075   1.167   2.757   1.663
 2023TIP3    H2 6076   1.138   2.616   1.711
 2024TIP3   OH2 6077   6.252   5.887   4.894
 2024TIP3    H1 6078   6.217   5.976   4.902
 2024TIP3    H2 6079   6.186   5.832   4.936
 2025TIP3   OH2 6080   3.718   5.316   2.933
 2025TIP3    H1 6081   3.639   5.366   2.910
 2025TIP3    H2 6082   3.720   5.244   2.870
 2026TIP3   OH2 6083   2.277   5.880   1.821
 2026TIP3    H1 6084   2.201   5.921   1.863
 2026TIP3    H2 6085   2.349   5.942   1.835
 2027TIP3   OH2 6086   0.453   2.261   0.916
 2027TIP3    H1 6087   0.360   2.247   0.933
 2027TIP3    H2 6088   0.457   2.343   0.867
 2028TIP3   OH2 6089   2.838   2.627   1.279
 2028TIP3    H1 6090   2.814   2.547   1.231
 2028TIP3    H2 6091   2.754   2.663   1.308
 2029TIP3   OH2 6092   2.997   5.219   1.292
 2029TIP3    H1 6093   2.907   5.243   1.315
 2029TIP3    H2 6094   3.051   5.289   1.329
 2030TIP3   OH2 6095   2.996   0.411   3.838
 2030TIP3    H1 6096   3.061   0.372   3.779
 2030TIP3    H2 6097   3.044   0.424   3.920
 2031TIP3   OH2 6098   1.097   4.388   0.537
 2031TIP3    H1 6099   1.037   4.315   0.552
 2031TIP3    H2 6100   1.169   4.372   0.598
 2032TIP3   OH2 6101   2.233   2.490   2.017
 2032TIP3    H1 6102   2.258   2.399   2.034
 2032TIP3    H2 6103   2.284   2.541   2.081
 2033TIP3   OH2 6104   3.920   3.847   2.382
 2033TIP3    H1 6105   4.000   3.871   2.428
 2033TIP3    H2 6106   3.859   3.822   2.451
 2034TIP3   OH2 6107   4.635   3.708   0.928
 2034TIP3    H1 6108   4.592   3.791   0.949
 2034TIP3    H2 6109   4.719   3.711   0.974
 2035TIP3   OH2 6110   2.329   3.047   0.989
 2035TIP3    H1 6111   2.343   3.095   0.908
 2035TIP3    H2 6112   2.244   3.078   1.021
 2036TIP3   OH2 6113   3.273   5.890   4.995
 2036TIP3    H1 6114   3.236   5.822   5.051
 2036TIP3    H2 6115   3.225   5.882   4.912
 2037TIP3   OH2 6116   2.399   2.263   3.759
 2037TIP3    H1 6117   2.452   2.328   3.806
 2037TIP3    H2 6118   2.452   2.183   3.761
 2038TIP3   OH2 6119   0.663   2.316   2.977
 2038TIP3    H1 6120   0.693   2.310   2.886
 2038TIP3    H2 6121   0.573   2.345   2.971
 2039TIP3   OH2 6122   1.688   3.275   1.125
 2039TIP3    H1 6123   1.598   3.308   1.124
 2039TIP3    H2 6124   1.718   3.288   1.215
 2040TIP3   OH2 6125   0.409   3.298   0.279
 2040TIP3    H1 6126   0.499   3.266   0.269
 2040TIP3    H2 6127   0.389   3.339   0.195
 2041TIP3   OH2 6128   3.557   5.083   2.172
 2041TIP3    H1 6129   3.495   5.134   2.120
 2041TIP3    H2 6130   3.586   5.143   2.241
 2042TIP3   OH2 6131   5.857   1.943   1.276
 2042TIP3    H1 6132   5.927   1.996   1.314
 2042TIP3    H2 6133   5.850   1.974   1.186
 2043TIP3   OH2 6134   3.736   0.079   1.856
 2043TIP3    H1 6135   3.755   0.170   1.836
 2043TIP3    H2 6136   3.818   0.045   1.893
 2044TIP3   OH2 6137   3.079   4.562   0.092
 2044TIP3    H1 6138   3.118   4.646   0.116
 2044TIP3    H2 6139   3.148   4.498   0.108
 2045TIP3   OH2 6140   4.911   1.651   1.972
 2045TIP3    H1 6141   4.986   1.710   1.973
 2045TIP3    H2 6142   4.862   1.676   1.894
 2046TIP3   OH2 6143   5.225   1.888   3.834
 2046TIP3    H1 6144   5.244   1.944   3.759
 2046TIP3    H2 6145   5.129   1.892   3.843
 2047TIP3   OH2 6146   2.941   1.848   3.468
 2047TIP3    H1 6147   2.878   1.813   3.405
 2047TIP3    H2 6148   3.022   1.801   3.449
 2048TIP3   OH2 6149   4.364   4.146   3.757
 2048TIP3    H1 6150   4.311   4.136   3.678
 2048TIP3    H2 6151   4.300   4.167   3.826
 2049TIP3   OH2 6152   1.955   1.262   1.128
 2049TIP3    H1 6153   1.977   1.340   1.078
 2049TIP3    H2 6154   1.877   1.226   1.085
 2050TIP3   OH2 6155   5.640   5.416   2.069
 2050TIP3    H1 6156   5.693   5.462   2.004
 2050TIP3    H2 6157   5.703   5.373   2.126
 2051TIP3   OH2 6158   5.846   5.239   4.203
 2051TIP3    H1 6159   5.761   5.262   4.241
 2051TIP3    H2 6160   5.874   5.318   4.156
 2052TIP3   OH2 6161   2.536   3.350   1.833
 2052TIP3    H1 6162   2.595   3.278   1.856
 2052TIP3    H2 6163   2.487   3.368   1.913
 2053TIP3   OH2 6164   5.237   0.329   4.434
 2053TIP3    H1 6165   5.306   0.355   4.495
 2053TIP3    H2 6166   5.260   0.373   4.352
 2054TIP3   OH2 6167   5.100   2.245   1.065
 2054TIP3    H1 6168   5.044   2.314   1.028
 2054TIP3    H2 6169   5.103   2.263   1.158
 2055TIP3   OH2 6170   5.235   3.760   0.287
 2055TIP3    H1 6171   5.225   3.671   0.322
 2055TIP3    H2 6172   5.290   3.805   0.352
 2056TIP3   OH2 6173   3.964   3.111   0.516
 2056TIP3    H1 6174   3.870   3.096   0.528
 2056TIP3    H2 6175   3.974   3.135   0.424
 2057TIP3   OH2 6176   4.950   2.239   0.077
 2057TIP3    H1 6177   4.926   2.317   0.028
 2057TIP3    H2 6178   4.909   2.251   0.163
 2058TIP3   OH2 6179   4.466   5.168   2.261
 2058TIP3    H1 6180   4.432   5.253   2.233
 2058TIP3    H2 6181   4.403   5.138   2.326
 2059TIP3   OH2 6182   4.742   1.971   3.256
 2059TIP3    H1 6183   4.681   1.905   3.287
 2059TIP3    H2 6184   4.802   1.924   3.199
 2060TIP3   OH2 6185   1.567   1.604   0.127
 2060TIP3    H1 6186   1.622   1.681   0.143
 2060TIP3    H2 6187   1.610   1.533   0.176
 2061TIP3   OH2 6188   5.410   2.393   1.902
 2061TIP3    H1 6189   5.458   2.475   1.903
 2061TIP3    H2 6190   5.388   2.379   1.810
 2062TIP3   OH2 6191   3.393   4.981   2.547
 2062TIP3    H1 6192   3.425   4.938   2.627
 2062TIP3    H2 6193   3.454   4.954   2.479
 2063TIP3   OH2 6194   2.480   4.817   0.862
 2063TIP3    H1 6195   2.520   4.774   0.938
 2063TIP3    H2 6196   2.528   4.781   0.787
 2064TIP3   OH2 6197   2.508   4.662   0.099
 2064TIP3    H1 6198   2.536   4.604   0.028
 2064TIP3    H2 6199   2.496   4.605   0.174
 2065TIP3   OH2 6200   2.678   5.865   1.907
 2065TIP3    H1 6201   2.602   5.810   1.893
 2065TIP3    H2 6202   2.651   5.951   1.875
 2066TIP3   OH2 6203   5.029   0.591   0.128
 2066TIP3    H1 6204   5.107   0.540   0.149
 2066TIP3    H2 6205   5.041   0.618   0.037
 2067TIP3   OH2 6206   2.448   1.865   2.114
 2067TIP3    H1 6207   2.487   1.873   2.027
 2067TIP3    H2 6208   2.521   1.876   2.175
 2068TIP3   OH2 6209   4.149   2.800   1.752
 2068TIP3    H1 6210   4.228   2.745   1.748
 2068TIP3    H2 6211   4.078   2.740   1.730
 2069TIP3   OH2 6212   3.934   0.663   0.091
 2069TIP3    H1 6213   3.871   0.732   0.070
 2069TIP3    H2 6214   3.934   0.658   0.186
 2070TIP3   OH2 6215   2.791   5.803   2.929
 2070TIP3    H1 6216   2.739   5.828   2.854
 2070TIP3    H2 6217   2.729   5.760   2.989
 2071TIP3   OH2 6218   1.244   3.383   1.483
 2071TIP3    H1 6219   1.325   3.415   1.523
 2071TIP3    H2 6220   1.245   3.289   1.498
 2072TIP3   OH2 6221   0.876   4.496   3.834
 2072TIP3    H1 6222   0.946   4.452   3.785
 2072TIP3    H2 6223   0.796   4.474   3.788
 2073TIP3   OH2 6224   6.070   1.088   1.309
 2073TIP3    H1 6225   6.041   1.085   1.400
 2073TIP3    H2 6226   6.063   1.180   1.285
 2074TIP3   OH2 6227   5.692   0.810   3.999
 2074TIP3    H1 6228   5.761   0.876   3.991
 2074TIP3    H2 6229   5.718   0.758   4.075
 2075TIP3   OH2 6230   0.272   4.172   2.380
 2075TIP3    H1 6231   0.193   4.226   2.370
 2075TIP3    H2 6232   0.252   4.115   2.455
 2076TIP3   OH2 6233   1.142   1.974   1.124
 2076TIP3    H1 6234   1.058   1.959   1.168
 2076TIP3    H2 6235   1.144   2.068   1.106
 2077TIP3   OH2 6236   4.013   1.334   2.089
 2077TIP3    H1 6237   4.086   1.275   2.071
 2077TIP3    H2 6238   3.983   1.362   2.002
 2078TIP3   OH2 6239   2.583   1.718   2.764
 2078TIP3    H1 6240   2.538   1.636   2.744
 2078TIP3    H2 6241   2.514   1.776   2.795
 2079TIP3   OH2 6242   5.822   5.240   2.501
 2079TIP3    H1 6243   5.774   5.181   2.443
 2079TIP3    H2 6244   5.788   5.220   2.589
 2080TIP3   OH2 6245   3.968   2.994   1.902
 2080TIP3    H1 6246   4.018   2.932   1.849
 2080TIP3    H2 6247   3.880   2.992   1.865
 2081TIP3   OH2 6248   2.411   1.325   4.889
 2081TIP3    H1 6249   2.456   1.310   4.806
 2081TIP3    H2 6250   2.322   1.293   4.875
 2082TIP3   OH2 6251   5.073   3.113   3.467
 2082TIP3    H1 6252   5.004   3.110   3.533
 2082TIP3    H2 6253   5.146   3.158   3.510
 2083TIP3   OH2 6254   1.973   5.137   3.555
 2083TIP3    H1 6255   1.920   5.207   3.594
 2083TIP3    H2 6256   2.063   5.164   3.572
 2084TIP3   OH2 6257   0.935   0.062   1.350
 2084TIP3    H1 6258   0.926   0.054   1.445
 2084TIP3    H2 6259   0.922  -0.026   1.316
 2085TIP3   OH2 6260   0.325   1.908   1.496
 2085TIP3    H1 6261   0.381   1.984   1.515
 2085TIP3    H2 6262   0.335   1.894   1.402
 2086TIP3   OH2 6263   0.106   5.674   4.228
 2086TIP3    H1 6264   0.094   5.769   4.222
 2086TIP3    H2 6265   0.201   5.662   4.220
 2087TIP3   OH2 6266   0.938   1.666   4.813
 2087TIP3    H1 6267   0.910   1.758   4.810
 2087TIP3    H2 6268   0.907   1.634   4.897
 2088TIP3   OH2 6269   1.734   4.827   2.086
 2088TIP3    H1 6270   1.785   4.755   2.050
 2088TIP3    H2 6271   1.726   4.890   2.013
 2089TIP3   OH2 6272   0.125   5.757   4.791
 2089TIP3    H1 6273   0.061   5.814   4.833
 2089TIP3    H2 6274   0.106   5.765   4.697
 2090TIP3   OH2 6275   2.652   3.871   0.552
 2090TIP3    H1 6276   2.660   3.860   0.457
 2090TIP3    H2 6277   2.566   3.913   0.563
 2091TIP3   OH2 6278   1.361   4.182   4.027
 2091TIP3    H1 6279   1.357   4.168   4.121
 2091TIP3    H2 6280   1.278   4.225   4.005
 2092TIP3   OH2 6281   0.058   4.388   2.355
 2092TIP3    H1 6282   0.064   4.478   2.387
 2092TIP3    H2 6283   0.088   4.392   2.264
 2093TIP3   OH2 6284   3.012   2.191   2.295
 2093TIP3    H1 6285   2.997   2.102   2.265
 2093TIP3    H2 6286   3.048   2.182   2.383
 2094TIP3   OH2 6287   1.788   3.369   4.206
 2094TIP3    H1 6288   1.777   3.464   4.210
 2094TIP3    H2 6289   1.700   3.333   4.212
 2095TIP3   OH2 6290   2.683   5.864   4.966
 2095TIP3    H1 6291   2.742   5.927   4.924
 2095TIP3    H2 6292   2.723   5.847   5.051
 2096TIP3   OH2 6293   0.215   4.868   0.189
 2096TIP3    H1 6294   0.157   4.792   0.178
 2096TIP3    H2 6295   0.226   4.875   0.284
 2097TIP3   OH2 6296   1.676   3.367   0.693
 2097TIP3    H1 6297   1.669   3.359   0.598
 2097TIP3    H2 6298   1.629   3.291   0.727
 2098TIP3   OH2 6299   2.470   3.427   4.721
 2098TIP3    H1 6300   2.385   3.437   4.765
 2098TIP3    H2 6301   2.447   3.400   4.632
 2099TIP3   OH2 6302   4.802   2.718   2.913
 2099TIP3    H1 6303   4.780   2.658   2.842
 2099TIP3    H2 6304   4.848   2.664   2.977
 2100TIP3   OH2 6305   2.159   0.623   1.723
 2100TIP3    H1 6306   2.076   0.665   1.700
 2100TIP3    H2 6307   2.226   0.679   1.683
 2101TIP3   OH2 6308   5.844   5.002   4.743
 2101TIP3    H1 6309   5.803   5.077   4.786
 2101TIP3    H2 6310   5.919   5.039   4.697
 2102TIP3   OH2 6311   2.182   1.967   2.091
 2102TIP3    H1 6312   2.125   1.914   2.145
 2102TIP3    H2 6313   2.266   1.922   2.093
 2103TIP3   OH2 6314   2.770   0.917   3.471
 2103TIP3    H1 6315   2.784   0.941   3.563
 2103TIP3    H2 6316   2.810   0.988   3.422
 2104TIP3   OH2 6317   4.172   0.020   3.227
 2104TIP3    H1 6318   4.181   0.069   3.309
 2104TIP3    H2 6319   4.166  -0.071   3.255
 2105TIP3   OH2 6320   6.186   4.676   2.324
 2105TIP3    H1 6321   6.116   4.679   2.389
 2105TIP3    H2 6322   6.226   4.763   2.328
 2106TIP3   OH2 6323   3.405   3.312   1.783
 2106TIP3    H1 6324   3.372   3.240   1.838
 2106TIP3    H2 6325   3.345   3.384   1.801
 2107TIP3   OH2 6326   6.162   5.360   2.090
 2107TIP3    H1 6327   6.127   5.298   2.154
 2107TIP3    H2 6328   6.149   5.446   2.130
 2108TIP3   OH2 6329   4.098   1.772   1.625
 2108TIP3    H1 6330   4.070   1.708   1.559
 2108TIP3    H2 6331   4.030   1.770   1.691
 2109TIP3   OH2 6332   0.922   6.010   1.986
 2109TIP3    H1 6333   0.925   6.003   1.890
 2109TIP3    H2 6334   0.852   5.950   2.012
 2110TIP3   OH2 6335   4.858   3.307   0.057
 2110TIP3    H1 6336   4.867   3.274   0.146
 2110TIP3    H2 6337   4.905   3.243   0.003
 2111TIP3   OH2 6338   4.365   5.826   0.919
 2111TIP3    H1 6339   4.337   5.740   0.888
 2111TIP3    H2 6340   4.439   5.809   0.977
 2112TIP3   OH2 6341   5.518   2.462   2.296
 2112TIP3    H1 6342   5.460   2.530   2.264
 2112TIP3    H2 6343   5.505   2.462   2.391
 2113TIP3   OH2 6344   3.400   3.462   4.655
 2113TIP3    H1 6345   3.372   3.458   4.747
 2113TIP3    H2 6346   3.325   3.429   4.606
 2114TIP3   OH2 6347   3.594   1.072   3.662
 2114TIP3    H1 6348   3.579   1.008   3.732
 2114TIP3    H2 6349   3.547   1.036   3.587
 2115TIP3   OH2 6350   4.968   3.735   2.329
 2115TIP3    H1 6351   5.040   3.794   2.307
 2115TIP3    H2 6352   4.913   3.735   2.251
 2116TIP3   OH2 6353   2.610   5.332   3.140
 2116TIP3    H1 6354   2.666   5.292   3.073
 2116TIP3    H2 6355   2.550   5.262   3.165
 2117TIP3   OH2 6356   0.572   0.912   4.377
 2117TIP3    H1 6357   0.499   0.972   4.359
 2117TIP3    H2 6358   0.570   0.900   4.472
 2118TIP3   OH2 6359   0.884   0.347   0.394
 2118TIP3    H1 6360   0.921   0.425   0.435
 2118TIP3    H2 6361   0.818   0.382   0.333
 2119TIP3   OH2 6362   2.941   5.846   3.237
 2119TIP3    H1 6363   2.866   5.901   3.212
 2119TIP3    H2 6364   2.902   5.770   3.279
 2120TIP3   OH2 6365   1.352   3.593   0.150
 2120TIP3    H1 6366   1.408   3.528   0.107
 2120TIP3    H2 6367   1.389   3.601   0.238
 2121TIP3   OH2 6368   3.297   2.401   4.688
 2121TIP3    H1 6369   3.225   2.460   4.668
 2121TIP3    H2 6370   3.291   2.333   4.620
 2122TIP3   OH2 6371   1.487   0.950   1.579
 2122TIP3    H1 6372   1.478   0.879   1.642
 2122TIP3    H2 6373   1.508   0.906   1.496
 2123TIP3   OH2 6374   4.139   3.171   0.876
 2123TIP3    H1 6375   4.160   3.160   0.783
 2123TIP3    H2 6376   4.199   3.112   0.921
 2124TIP3   OH2 6377   4.481   2.839   5.022
 2124TIP3    H1 6378   4.464   2.931   5.043
 2124TIP3    H2 6379   4.576   2.830   5.031
 2125TIP3   OH2 6380   3.811   1.929   2.060
 2125TIP3    H1 6381   3.802   1.975   1.977
 2125TIP3    H2 6382   3.904   1.936   2.082
 2126TIP3   OH2 6383   5.127   0.671   4.366
 2126TIP3    H1 6384   5.134   0.647   4.458
 2126TIP3    H2 6385   5.197   0.622   4.323
 2127TIP3   OH2 6386   1.691   0.852   4.791
 2127TIP3    H1 6387   1.710   0.891   4.876
 2127TIP3    H2 6388   1.747   0.898   4.730
 2128TIP3   OH2 6389   0.609   4.306   3.204
 2128TIP3    H1 6390   0.529   4.357   3.191
 2128TIP3    H2 6391   0.642   4.290   3.116
 2129TIP3   OH2 6392   6.141   0.889   0.502
 2129TIP3    H1 6393   6.192   0.966   0.528
 2129TIP3    H2 6394   6.172   0.819   0.559
 2130TIP3   OH2 6395   0.628   1.309   3.138
 2130TIP3    H1 6396   0.637   1.369   3.065
 2130TIP3    H2 6397   0.616   1.223   3.098
 2131TIP3   OH2 6398   3.254   5.293   4.126
 2131TIP3    H1 6399   3.175   5.301   4.179
 2131TIP3    H2 6400   3.258   5.375   4.077
 2132TIP3   OH2 6401   2.883   2.753   3.118
 2132TIP3    H1 6402   2.806   2.698   3.135
 2132TIP3    H2 6403   2.916   2.722   3.034
 2133TIP3   OH2 6404   4.904   2.319   2.254
 2133TIP3    H1 6405   4.877   2.251   2.316
 2133TIP3    H2 6406   4.881   2.401   2.298
 2134TIP3   OH2 6407   2.624   1.455   0.792
 2134TIP3    H1 6408   2.599   1.500   0.872
 2134TIP3    H2 6409   2.641   1.526   0.729
 2135TIP3   OH2 6410   1.414   3.642   0.419
 2135TIP3    H1 6411   1.451   3.729   0.401
 2135TIP3    H2 6412   1.436   3.626   0.511
 2136TIP3   OH2 6413   4.145   1.515   4.190
 2136TIP3    H1 6414   4.075   1.537   4.251
 2136TIP3    H2 6415   4.164   1.423   4.207
 2137TIP3   OH2 6416   0.865   4.411   2.211
 2137TIP3    H1 6417   0.927   4.338   2.218
 2137TIP3    H2 6418   0.779   4.370   2.214
 2138TIP3   OH2 6419   0.748   4.228   3.590
 2138TIP3    H1 6420   0.807   4.160   3.624
 2138TIP3    H2 6421   0.680   4.180   3.544
 2139TIP3   OH2 6422   2.256   4.609   5.090
 2139TIP3    H1 6423   2.173   4.562   5.088
 2139TIP3    H2 6424   2.308   4.572   5.019
 2140TIP3   OH2 6425   4.124   3.383   1.387
 2140TIP3    H1 6426   4.175   3.308   1.417
 2140TIP3    H2 6427   4.170   3.459   1.422
 2141TIP3   OH2 6428   5.032   1.230   3.987
 2141TIP3    H1 6429   4.956   1.277   3.954
 2141TIP3    H2 6430   5.098   1.297   4.002
 2142TIP3   OH2 6431   5.812   1.430   4.887
 2142TIP3    H1 6432   5.774   1.344   4.868
 2142TIP3    H2 6433   5.825   1.470   4.802
 2143TIP3   OH2 6434   1.709   5.847   0.174
 2143TIP3    H1 6435   1.726   5.771   0.230
 2143TIP3    H2 6436   1.732   5.922   0.227
 2144TIP3   OH2 6437   1.330   5.795   2.407
 2144TIP3    H1 6438   1.262   5.739   2.444
 2144TIP3    H2 6439   1.287   5.838   2.332
 2145TIP3   OH2 6440   0.582   5.894   3.572
 2145TIP3    H1 6441   0.541   5.969   3.616
 2145TIP3    H2 6442   0.519   5.823   3.582
 2146TIP3   OH2 6443   0.856   0.841   4.688
 2146TIP3    H1 6444   0.901   0.829   4.604
 2146TIP3    H2 6445   0.918   0.806   4.753
 2147TIP3   OH2 6446   2.500   4.053   2.395
 2147TIP3    H1 6447   2.563   4.101   2.342
 2147TIP3    H2 6448   2.548   4.030   2.475
 2148TIP3   OH2 6449   2.645   3.277   2.598
 2148TIP3    H1 6450   2.698   3.223   2.539
 2148TIP3    H2 6451   2.581   3.318   2.540
 2149TIP3   OH2 6452   0.283   4.770   2.911
 2149TIP3    H1 6453   0.291   4.865   2.913
 2149TIP3    H2 6454   0.362   4.738   2.954
 2150TIP3   OH2 6455   3.439   5.853   4.675
 2150TIP3    H1 6456   3.473   5.803   4.749
 2150TIP3    H2 6457   3.353   5.814   4.658
 2151TIP3   OH2 6458   5.090   2.288   4.687
 2151TIP3    H1 6459   5.148   2.216   4.664
 2151TIP3    H2 6460   5.051   2.262   4.770
 2152TIP3   OH2 6461   4.182   5.811   3.330
 2152TIP3    H1 6462   4.219   5.738   3.279
 2152TIP3    H2 6463   4.094   5.782   3.353
 2153TIP3   OH2 6464   1.807   5.749   3.675
 2153TIP3    H1 6465   1.900   5.769   3.690
 2153TIP3    H2 6466   1.760   5.805   3.738
 2154TIP3   OH2 6467   2.433   4.610   3.268
 2154TIP3    H1 6468   2.378   4.551   3.217
 2154TIP3    H2 6469   2.389   4.617   3.353
 2155TIP3   OH2 6470   3.780   0.394   3.528
 2155TIP3    H1 6471   3.687   0.394   3.508
 2155TIP3    H2 6472   3.790   0.326   3.595
 2156TIP3   OH2 6473   3.964   1.317   1.535
 2156TIP3    H1 6474   4.049   1.275   1.550
 2156TIP3    H2 6475   3.973   1.362   1.451
 2157TIP3   OH2 6476   5.206   4.974   3.933
 2157TIP3    H1 6477   5.200   4.963   4.028
 2157TIP3    H2 6478   5.280   4.918   3.908
 2158TIP3   OH2 6479   1.610   3.710   1.307
 2158TIP3    H1 6480   1.625   3.628   1.353
 2158TIP3    H2 6481   1.562   3.685   1.228
 2159TIP3   OH2 6482   2.323   3.388   3.008
 2159TIP3    H1 6483   2.392   3.439   2.965
 2159TIP3    H2 6484   2.331   3.409   3.101
 2160TIP3   OH2 6485   5.391   0.746   2.669
 2160TIP3    H1 6486   5.401   0.675   2.733
 2160TIP3    H2 6487   5.481   0.773   2.650
 2161TIP3   OH2 6488   6.014   5.258   1.383
 2161TIP3    H1 6489   6.058   5.232   1.301
 2161TIP3    H2 6490   5.981   5.346   1.365
 2162TIP3   OH2 6491   3.279   4.523   2.329
 2162TIP3    H1 6492   3.279   4.552   2.238
 2162TIP3    H2 6493   3.372   4.521   2.353
 2163TIP3   OH2 6494   3.550   4.252   1.164
 2163TIP3    H1 6495   3.550   4.258   1.069
 2163TIP3    H2 6496   3.592   4.332   1.194
 2164TIP3   OH2 6497   4.529   3.662   1.479
 2164TIP3    H1 6498   4.537   3.601   1.552
 2164TIP3    H2 6499   4.506   3.745   1.520
 2165TIP3   OH2 6500   1.897   3.892   4.995
 2165TIP3    H1 6501   1.847   3.867   5.073
 2165TIP3    H2 6502   1.862   3.977   4.971
 2166TIP3   OH2 6503   3.582   0.189   3.993
 2166TIP3    H1 6504   3.623   0.242   3.924
 2166TIP3    H2 6505   3.645   0.119   4.011
 2167TIP3   OH2 6506   0.538   4.094   3.453
 2167TIP3    H1 6507   0.468   4.122   3.394
 2167TIP3    H2 6508   0.589   4.032   3.401
 2168TIP3   OH2 6509   0.828   4.164   4.876
 2168TIP3    H1 6510   0.876   4.178   4.957
 2168TIP3    H2 6511   0.751   4.221   4.884
 2169TIP3   OH2 6512   2.910   3.822   3.620
 2169TIP3    H1 6513   2.962   3.750   3.584
 2169TIP3    H2 6514   2.900   3.882   3.546
 2170TIP3   OH2 6515   3.812   2.290   4.510
 2170TIP3    H1 6516   3.879   2.247   4.563
 2170TIP3    H2 6517   3.810   2.380   4.543
 2171TIP3   OH2 6518   0.966   3.276   4.296
 2171TIP3    H1 6519   1.022   3.319   4.232
 2171TIP3    H2 6520   1.006   3.189   4.308
 2172TIP3   OH2 6521   0.293   1.076   0.238
 2172TIP3    H1 6522   0.376   1.033   0.255
 2172TIP3    H2 6523   0.245   1.068   0.321
 2173TIP3   OH2 6524   5.841   2.058   3.875
 2173TIP3    H1 6525   5.838   2.051   3.970
 2173TIP3    H2 6526   5.905   1.991   3.848
 2174TIP3   OH2 6527   2.884   1.033   1.264
 2174TIP3    H1 6528   2.957   1.067   1.316
 2174TIP3    H2 6529   2.923   1.014   1.179
 2175TIP3   OH2 6530   3.858   2.058   2.940
 2175TIP3    H1 6531   3.788   2.061   3.005
 2175TIP3    H2 6532   3.883   2.149   2.928
 2176TIP3   OH2 6533   4.013   0.722   2.501
 2176TIP3    H1 6534   4.044   0.811   2.484
 2176TIP3    H2 6535   3.929   0.717   2.455
 2177TIP3   OH2 6536   3.512   2.047   3.486
 2177TIP3    H1 6537   3.454   1.972   3.479
 2177TIP3    H2 6538   3.560   2.034   3.568
 2178TIP3   OH2 6539   4.875   5.753   2.103
 2178TIP3    H1 6540   4.781   5.750   2.121
 2178TIP3    H2 6541   4.902   5.661   2.100
 2179TIP3   OH2 6542   5.867   3.690   4.824
 2179TIP3    H1 6543   5.891   3.779   4.799
 2179TIP3    H2 6544   5.874   3.640   4.742
 2180TIP3   OH2 6545   4.111   2.644   0.122
 2180TIP3    H1 6546   4.070   2.725   0.092
 2180TIP3    H2 6547   4.045   2.577   0.105
 2181TIP3   OH2 6548   5.082   1.657   1.459
 2181TIP3    H1 6549   5.051   1.590   1.521
 2181TIP3    H2 6550   5.167   1.684   1.494
 2182TIP3   OH2 6551   6.303   2.965   2.569
 2182TIP3    H1 6552   6.237   2.957   2.501
 2182TIP3    H2 6553   6.295   3.055   2.601
 2183TIP3   OH2 6554   3.376   5.221   2.022
 2183TIP3    H1 6555   3.295   5.194   1.978
 2183TIP3    H2 6556   3.374   5.316   2.023
 2184TIP3   OH2 6557   0.813   0.583   3.471
 2184TIP3    H1 6558   0.728   0.571   3.512
 2184TIP3    H2 6559   0.867   0.512   3.505
 2185TIP3   OH2 6560   3.941   1.099   3.411
 2185TIP3    H1 6561   3.941   1.006   3.386
 2185TIP3    H2 6562   3.989   1.101   3.494
 2186TIP3   OH2 6563   3.673   1.479   1.068
 2186TIP3    H1 6564   3.649   1.421   0.995
 2186TIP3    H2 6565   3.759   1.513   1.043
 2187TIP3   OH2 6566   0.283   5.292   0.235
 2187TIP3    H1 6567   0.242   5.254   0.313
 2187TIP3    H2 6568   0.375   5.269   0.244
 2188TIP3   OH2 6569   2.122   4.762   1.706
 2188TIP3    H1 6570   2.184   4.789   1.639
 2188TIP3    H2 6571   2.079   4.843   1.735
 2189TIP3   OH2 6572   0.939   5.798   0.968
 2189TIP3    H1 6573   0.888   5.779   0.890
 2189TIP3    H2 6574   0.946   5.714   1.014
 2190TIP3   OH2 6575   5.709   3.997   0.106
 2190TIP3    H1 6576   5.682   4.083   0.072
 2190TIP3    H2 6577   5.658   3.987   0.187
 2191TIP3   OH2 6578   1.526   3.927   5.193
 2191TIP3    H1 6579   1.594   3.975   5.240
 2191TIP3    H2 6580   1.482   3.994   5.140
 2192TIP3   OH2 6581   0.672   2.815   2.668
 2192TIP3    H1 6582   0.742   2.803   2.732
 2192TIP3    H2 6583   0.717   2.825   2.584
 2193TIP3   OH2 6584   6.082   0.023   4.817
 2193TIP3    H1 6585   5.989   0.017   4.839
 2193TIP3    H2 6586   6.127  -0.016   4.892
 2194TIP3   OH2 6587   4.085   1.520   0.055
 2194TIP3    H1 6588   4.051   1.545  -0.031
 2194TIP3    H2 6589   4.068   1.595   0.111
 2195TIP3   OH2 6590   1.322   2.139   5.035
 2195TIP3    H1 6591   1.303   2.223   4.994
 2195TIP3    H2 6592   1.267   2.076   4.989
 2196TIP3   OH2 6593   1.385   2.699   1.540
 2196TIP3    H1 6594   1.437   2.741   1.471
 2196TIP3    H2 6595   1.358   2.771   1.597
 2197TIP3   OH2 6596   4.903   5.999   0.757
 2197TIP3    H1 6597   4.938   6.031   0.673
 2197TIP3    H2 6598   4.938   5.910   0.765
 2198TIP3   OH2 6599   5.265   0.044   4.134
 2198TIP3    H1 6600   5.256  -0.037   4.184
 2198TIP3    H2 6601   5.308   0.017   4.052
 2199TIP3   OH2 6602   0.433   4.599   0.001
 2199TIP3    H1 6603   0.490   4.640   0.067
 2199TIP3    H2 6604   0.471   4.625  -0.083
 2200TIP3   OH2 6605   4.581   3.563   5.096
 2200TIP3    H1 6606   4.574   3.647   5.141
 2200TIP3    H2 6607   4.639   3.511   5.151
 2201TIP3   OH2 6608   1.286   5.804   3.468
 2201TIP3    H1 6609   1.249   5.737   3.525
 2201TIP3    H2 6610   1.376   5.814   3.498
 2202TIP3   OH2 6611   2.855   0.112   5.077
 2202TIP3    H1 6612   2.886   0.043   5.135
 2202TIP3    H2 6613   2.846   0.069   4.991
 2203TIP3   OH2 6614   3.072   0.407   4.110
 2203TIP3    H1 6615   3.001   0.454   4.153
 2203TIP3    H2 6616   3.150   0.458   4.131
 2204TIP3   OH2 6617   2.640   1.615   4.701
 2204TIP3    H1 6618   2.573   1.668   4.745
 2204TIP3    H2 6619   2.593   1.536   4.674
 2205TIP3   OH2 6620   2.023   4.462   5.088
 2205TIP3    H1 6621   1.931   4.483   5.106
 2205TIP3    H2 6622   2.022   4.369   5.066
 2206TIP3   OH2 6623   4.130   3.873   3.647
 2206TIP3    H1 6624   4.126   3.929   3.569
 2206TIP3    H2 6625   4.051   3.895   3.696
 2207TIP3   OH2 6626   0.175   5.364   3.767
 2207TIP3    H1 6627   0.261   5.367   3.725
 2207TIP3    H2 6628   0.191   5.389   3.858
 2208TIP3   OH2 6629   5.450   1.237   1.832
 2208TIP3    H1 6630   5.520   1.276   1.884
 2208TIP3    H2 6631   5.474   1.144   1.827
 2209TIP3   OH2 6632   5.878   3.145   4.875
 2209TIP3    H1 6633   5.865   3.061   4.830
 2209TIP3    H2 6634   5.817   3.205   4.832
 2210TIP3   OH2 6635   0.814   2.862   1.101
 2210TIP3    H1 6636   0.738   2.895   1.147
 2210TIP3    H2 6637   0.887   2.876   1.161
 2211TIP3   OH2 6638   3.503   3.028   4.052
 2211TIP3    H1 6639   3.493   2.970   4.127
 2211TIP3    H2 6640   3.481   2.974   3.976
 2212TIP3   OH2 6641   3.507   1.960   4.296
 2212TIP3    H1 6642   3.425   1.999   4.325
 2212TIP3    H2 6643   3.570   2.032   4.297
 2213TIP3   OH2 6644   2.415   1.357   0.956
 2213TIP3    H1 6645   2.428   1.451   0.968
 2213TIP3    H2 6646   2.378   1.328   1.040
 2214TIP3   OH2 6647   3.897   1.380   3.674
 2214TIP3    H1 6648   3.902   1.291   3.708
 2214TIP3    H2 6649   3.849   1.373   3.592
 2215TIP3   OH2 6650   1.426   5.492   2.625
 2215TIP3    H1 6651   1.385   5.549   2.560
 2215TIP3    H2 6652   1.424   5.405   2.586
 2216TIP3   OH2 6653   1.659   1.456   1.056
 2216TIP3    H1 6654   1.606   1.509   0.995
 2216TIP3    H2 6655   1.603   1.382   1.076
 2217TIP3   OH2 6656   5.362   2.469   3.092
 2217TIP3    H1 6657   5.378   2.431   3.178
 2217TIP3    H2 6658   5.297   2.538   3.108
 2218TIP3   OH2 6659   3.140   2.012   0.047
 2218TIP3    H1 6660   3.235   2.009   0.051
 2218TIP3    H2 6661   3.121   2.045  -0.041
 2219TIP3   OH2 6662   6.155   4.859   3.564
 2219TIP3    H1 6663   6.242   4.900   3.568
 2219TIP3    H2 6664   6.137   4.835   3.655
 2220TIP3   OH2 6665   4.052   3.752   4.742
 2220TIP3    H1 6666   4.064   3.658   4.758
 2220TIP3    H2 6667   3.962   3.769   4.769
 2221TIP3   OH2 6668   1.483   0.734   2.976
 2221TIP3    H1 6669   1.440   0.698   2.898
 2221TIP3    H2 6670   1.569   0.762   2.945
 2222TIP3   OH2 6671   2.979   0.122   4.076
 2222TIP3    H1 6672   3.002   0.211   4.102
 2222TIP3    H2 6673   2.994   0.120   3.981
 2223TIP3   OH2 6674   2.772   5.011   1.881
 2223TIP3    H1 6675   2.737   5.074   1.818
 2223TIP3    H2 6676   2.696   4.987   1.934
 2224TIP3   OH2 6677   1.047   5.965   1.171
 2224TIP3    H1 6678   0.969   5.977   1.225
 2224TIP3    H2 6679   1.021   5.903   1.103
 2225TIP3   OH2 6680   4.829   1.070   3.444
 2225TIP3    H1 6681   4.830   1.118   3.526
 2225TIP3    H2 6682   4.869   1.129   3.381
 2226TIP3   OH2 6683   4.512   2.809   0.764
 2226TIP3    H1 6684   4.461   2.762   0.830
 2226TIP3    H2 6685   4.597   2.824   0.805
 2227TIP3   OH2 6686   2.254   4.207   1.127
 2227TIP3    H1 6687   2.225   4.288   1.170
 2227TIP3    H2 6688   2.199   4.200   1.049
 2228TIP3   OH2 6689   4.079   0.184   3.043
 2228TIP3    H1 6690   3.989   0.158   3.023
 2228TIP3    H2 6691   4.106   0.125   3.114
 2229TIP3   OH2 6692   3.366   4.373   1.837
 2229TIP3    H1 6693   3.276   4.399   1.857
 2229TIP3    H2 6694   3.370   4.280   1.860
 2230TIP3   OH2 6695   6.334   4.904   1.386
 2230TIP3    H1 6696   6.376   4.871   1.465
 2230TIP3    H2 6697   6.323   4.997   1.401
 2231TIP3   OH2 6698   4.992   1.763   4.541
 2231TIP3    H1 6699   5.054   1.774   4.613
 2231TIP3    H2 6700   4.974   1.669   4.538
 2232TIP3   OH2 6701   3.674   2.443   1.779
 2232TIP3    H1 6702   3.674   2.525   1.730
 2232TIP3    H2 6703   3.582   2.428   1.801
 2233TIP3   OH2 6704   1.857   4.313   4.457
 2233TIP3    H1 6705   1.821   4.268   4.381
 2233TIP3    H2 6706   1.934   4.359   4.424
 2234TIP3   OH2 6707   0.116   3.210   2.704
 2234TIP3    H1 6708   0.116   3.289   2.650
 2234TIP3    H2 6709   0.072   3.237   2.785
 2235TIP3   OH2 6710   1.979   2.411   1.834
 2235TIP3    H1 6711   1.950   2.480   1.893
 2235TIP3    H2 6712   2.051   2.368   1.880
 2236TIP3   OH2 6713   0.218   4.457   1.585
 2236TIP3    H1 6714   0.306   4.419   1.585
 2236TIP3    H2 6715   0.162   4.386   1.555
 2237TIP3   OH2 6716   3.349   3.076   2.410
 2237TIP3    H1 6717   3.391   3.072   2.496
 2237TIP3    H2 6718   3.256   3.088   2.429
 2238TIP3   OH2 6719   2.931   4.882   4.324
 2238TIP3    H1 6720   2.894   4.835   4.249
 2238TIP3    H2 6721   2.860   4.887   4.388
 2239TIP3   OH2 6722   2.976   1.379   0.219
 2239TIP3    H1 6723   2.894   1.331   0.218
 2239TIP3    H2 6724   3.043   1.314   0.195
 2240TIP3   OH2 6725   0.752   0.108   0.512
 2240TIP3    H1 6726   0.803   0.178   0.471
 2240TIP3    H2 6727   0.743   0.042   0.444
 2241TIP3   OH2 6728   1.236   4.943   0.803
 2241TIP3    H1 6729   1.169   4.881   0.772
 2241TIP3    H2 6730   1.312   4.888   0.820
 2242TIP3   OH2 6731   6.315   4.386   4.059
 2242TIP3    H1 6732   6.286   4.298   4.082
 2242TIP3    H2 6733   6.410   4.378   4.045
 2243TIP3   OH2 6734   4.359   5.958   5.081
 2243TIP3    H1 6735   4.388   5.915   5.162
 2243TIP3    H2 6736   4.412   5.919   5.012
 2244TIP3   OH2 6737   6.266   5.417   3.978
 2244TIP3    H1 6738   6.250   5.347   3.914
 2244TIP3    H2 6739   6.351   5.394   4.017
 2245TIP3   OH2 6740   1.543   2.374   0.658
 2245TIP3    H1 6741   1.472   2.313   0.680
 2245TIP3    H2 6742   1.502   2.460   0.659
 2246TIP3   OH2 6743   0.500   2.705   2.965
 2246TIP3    H1 6744   0.521   2.791   3.002
 2246TIP3    H2 6745   0.480   2.723   2.873
 2247TIP3   OH2 6746   1.299   0.541   1.164
 2247TIP3    H1 6747   1.391   0.534   1.188
 2247TIP3    H2 6748   1.294   0.621   1.112
 2248TIP3   OH2 6749   3.630   4.618   0.621
 2248TIP3    H1 6750   3.625   4.620   0.716
 2248TIP3    H2 6751   3.658   4.706   0.596
 2249TIP3   OH2 6752   0.862   5.467   4.201
 2249TIP3    H1 6753   0.865   5.528   4.275
 2249TIP3    H2 6754   0.910   5.512   4.131
 2250TIP3   OH2 6755   1.105   3.679   4.751
 2250TIP3    H1 6756   1.134   3.619   4.819
 2250TIP3    H2 6757   1.029   3.637   4.711
 2251TIP3   OH2 6758   5.269   2.073   0.643
 2251TIP3    H1 6759   5.199   2.008   0.645
 2251TIP3    H2 6760   5.302   2.076   0.733
 2252TIP3   OH2 6761   6.200   0.271   4.813
 2252TIP3    H1 6762   6.165   0.186   4.786
 2252TIP3    H2 6763   6.295   0.260   4.811
 2253TIP3   OH2 6764   1.330   0.032   3.242
 2253TIP3    H1 6765   1.294   0.087   3.172
 2253TIP3    H2 6766   1.425   0.037   3.230
 2254TIP3   OH2 6767   2.412   4.727   2.085
 2254TIP3    H1 6768   2.477   4.729   2.156
 2254TIP3    H2 6769   2.407   4.635   2.060
 2255TIP3   OH2 6770   3.271   0.595   4.212
 2255TIP3    H1 6771   3.365   0.601   4.229
 2255TIP3    H2 6772   3.232   0.579   4.298
 2256TIP3   OH2 6773   5.795   3.716   3.408
 2256TIP3    H1 6774   5.873   3.722   3.354
 2256TIP3    H2 6775   5.725   3.753   3.354
 2257TIP3   OH2 6776   0.334   3.692   0.758
 2257TIP3    H1 6777   0.428   3.686   0.741
 2257TIP3    H2 6778   0.328   3.738   0.841
 2258TIP3   OH2 6779   2.305   3.155   3.705
 2258TIP3    H1 6780   2.394   3.162   3.671
 2258TIP3    H2 6781   2.259   3.099   3.643
 2259TIP3   OH2 6782   2.763   3.404   5.082
 2259TIP3    H1 6783   2.737   3.396   5.174
 2259TIP3    H2 6784   2.845   3.355   5.076
 2260TIP3   OH2 6785   0.182   2.239   2.409
 2260TIP3    H1 6786   0.127   2.168   2.377
 2260TIP3    H2 6787   0.252   2.246   2.344
 2261TIP3   OH2 6788   0.747   5.070   0.133
 2261TIP3    H1 6789   0.778   4.997   0.187
 2261TIP3    H2 6790   0.790   5.057   0.049
 2262TIP3   OH2 6791   5.281   3.861   4.622
 2262TIP3    H1 6792   5.304   3.815   4.702
 2262TIP3    H2 6793   5.314   3.806   4.551
 2263TIP3   OH2 6794   3.119   2.535   2.625
 2263TIP3    H1 6795   3.075   2.456   2.655
 2263TIP3    H2 6796   3.204   2.534   2.670
 2264TIP3   OH2 6797   4.777   2.730   5.138
 2264TIP3    H1 6798   4.811   2.666   5.076
 2264TIP3    H2 6799   4.773   2.682   5.221
 2265TIP3   OH2 6800   5.356   3.271   0.699
 2265TIP3    H1 6801   5.306   3.352   0.690
 2265TIP3    H2 6802   5.384   3.250   0.610
 2266TIP3   OH2 6803   2.959   5.122   0.756
 2266TIP3    H1 6804   2.950   5.030   0.731
 2266TIP3    H2 6805   2.877   5.162   0.729
 2267TIP3   OH2 6806   5.400   4.701   0.337
 2267TIP3    H1 6807   5.353   4.672   0.415
 2267TIP3    H2 6808   5.487   4.723   0.368
 2268TIP3   OH2 6809   3.967   4.118   0.878
 2268TIP3    H1 6810   3.983   4.030   0.913
 2268TIP3    H2 6811   3.895   4.152   0.931
 2269TIP3   OH2 6812   5.335   2.902   4.162
 2269TIP3    H1 6813   5.414   2.954   4.149
 2269TIP3    H2 6814   5.350   2.857   4.245
 2270TIP3   OH2 6815   3.752   1.991   0.760
 2270TIP3    H1 6816   3.785   1.915   0.711
 2270TIP3    H2 6817   3.657   1.982   0.757
 2271TIP3   OH2 6818   0.072   0.882   0.112
 2271TIP3    H1 6819   0.117   0.836   0.183
 2271TIP3    H2 6820   0.003   0.822   0.084
 2272TIP3   OH2 6821   2.618   2.567   0.330
 2272TIP3    H1 6822   2.650   2.538   0.244
 2272TIP3    H2 6823   2.617   2.488   0.383
 2273TIP3   OH2 6824   3.425   1.783   5.063
 2273TIP3    H1 6825   3.420   1.828   5.148
 2273TIP3    H2 6826   3.380   1.700   5.077
 2274TIP3   OH2 6827   0.011   2.518   3.013
 2274TIP3    H1 6828   0.009   2.508   3.108
 2274TIP3    H2 6829   0.069   2.593   2.998
 2275TIP3   OH2 6830   1.517   2.537   0.039
 2275TIP3    H1 6831   1.527   2.513  -0.054
 2275TIP3    H2 6832   1.568   2.618   0.048
 2276TIP3   OH2 6833   4.658   4.466   0.736
 2276TIP3    H1 6834   4.691   4.541   0.687
 2276TIP3    H2 6835   4.684   4.390   0.684
 2277TIP3   OH2 6836   0.675   1.634   1.053
 2277TIP3    H1 6837   0.757   1.641   1.005
 2277TIP3    H2 6838   0.615   1.693   1.006
 2278TIP3   OH2 6839   1.217   1.210   4.519
 2278TIP3    H1 6840   1.160   1.157   4.463
 2278TIP3    H2 6841   1.177   1.297   4.519
 2279TIP3   OH2 6842   1.097   2.239   1.913
 2279TIP3    H1 6843   1.004   2.218   1.910
 2279TIP3    H2 6844   1.138   2.164   1.955
 2280TIP3   OH2 6845   1.714   4.822   0.537
 2280TIP3    H1 6846   1.809   4.819   0.542
 2280TIP3    H2 6847   1.686   4.731   0.553
 2281TIP3   OH2 6848   0.516   2.624   1.673
 2281TIP3    H1 6849   0.473   2.593   1.753
 2281TIP3    H2 6850   0.601   2.657   1.704
 2282TIP3   OH2 6851   0.163   1.910   0.558
 2282TIP3    H1 6852   0.154   1.885   0.466
 2282TIP3    H2 6853   0.256   1.931   0.568
 2283TIP3   OH2 6854   2.635   2.799   3.742
 2283TIP3    H1 6855   2.659   2.718   3.697
 2283TIP3    H2 6856   2.592   2.852   3.675
 2284TIP3   OH2 6857   1.262   2.634   0.889
 2284TIP3    H1 6858   1.185   2.577   0.886
 2284TIP3    H2 6859   1.250   2.687   0.968
 2285TIP3   OH2 6860   4.459   5.474   0.156
 2285TIP3    H1 6861   4.552   5.456   0.146
 2285TIP3    H2 6862   4.419   5.438   0.076
 2286TIP3   OH2 6863   5.833   3.974   2.985
 2286TIP3    H1 6864   5.921   3.941   3.000
 2286TIP3    H2 6865   5.792   3.974   3.072
 2287TIP3   OH2 6866   3.161   3.952   1.282
 2287TIP3    H1 6867   3.072   3.943   1.317
 2287TIP3    H2 6868   3.214   3.979   1.358
 2288TIP3   OH2 6869   0.888   0.777   3.893
 2288TIP3    H1 6870   0.841   0.697   3.870
 2288TIP3    H2 6871   0.846   0.807   3.973
 2289TIP3   OH2 6872   3.516   5.122   0.260
 2289TIP3    H1 6873   3.553   5.040   0.291
 2289TIP3    H2 6874   3.478   5.163   0.337
 2290TIP3   OH2 6875   5.309   5.526   0.360
 2290TIP3    H1 6876   5.329   5.510   0.453
 2290TIP3    H2 6877   5.214   5.522   0.355
 2291TIP3   OH2 6878   0.139   1.185   4.658
 2291TIP3    H1 6879   0.209   1.120   4.662
 2291TIP3    H2 6880   0.131   1.217   4.747
 2292TIP3   OH2 6881   2.601   2.562   2.747
 2292TIP3    H1 6882   2.545   2.610   2.809
 2292TIP3    H2 6883   2.648   2.500   2.802
 2293TIP3   OH2 6884   3.638   3.248   4.165
 2293TIP3    H1 6885   3.607   3.258   4.255
 2293TIP3    H2 6886   3.572   3.191   4.124
 2294TIP3   OH2 6887   0.675   3.337   3.110
 2294TIP3    H1 6888   0.659   3.258   3.161
 2294TIP3    H2 6889   0.591   3.356   3.068
 2295TIP3   OH2 6890   3.989   5.550   4.789
 2295TIP3    H1 6891   3.980   5.509   4.703
 2295TIP3    H2 6892   4.066   5.607   4.781
 2296TIP3   OH2 6893   3.856   4.122   4.797
 2296TIP3    H1 6894   3.919   4.071   4.847
 2296TIP3    H2 6895   3.898   4.136   4.712
 2297TIP3   OH2 6896   2.320   5.718   1.521
 2297TIP3    H1 6897   2.269   5.782   1.570
 2297TIP3    H2 6898   2.255   5.665   1.476
 2298TIP3   OH2 6899   4.588   3.175   2.129
 2298TIP3    H1 6900   4.674   3.158   2.089
 2298TIP3    H2 6901   4.530   3.111   2.087
 2299TIP3   OH2 6902   2.622   3.668   4.220
 2299TIP3    H1 6903   2.676   3.735   4.177
 2299TIP3    H2 6904   2.575   3.625   4.149
 2300TIP3   OH2 6905   4.444   2.500   4.591
 2300TIP3    H1 6906   4.484   2.494   4.678
 2300TIP3    H2 6907   4.431   2.594   4.577
 2301TIP3   OH2 6908   4.035   5.001   4.101
 2301TIP3    H1 6909   4.092   5.061   4.149
 2301TIP3    H2 6910   3.977   5.059   4.051
 2302TIP3   OH2 6911   5.828   1.553   4.623
 2302TIP3    H1 6912   5.899   1.542   4.559
 2302TIP3    H2 6913   5.749   1.563   4.569
 2303TIP3   OH2 6914   2.780   2.384   2.839
 2303TIP3    H1 6915   2.833   2.318   2.794
 2303TIP3    H2 6916   2.803   2.373   2.931
 2304TIP3   OH2 6917   6.219   1.485   2.859
 2304TIP3    H1 6918   6.274   1.502   2.936
 2304TIP3    H2 6919   6.183   1.571   2.836
 2305TIP3   OH2 6920   0.938   1.294   1.071
 2305TIP3    H1 6921   0.947   1.336   1.156
 2305TIP3    H2 6922   0.856   1.244   1.078
 2306TIP3   OH2 6923   2.995   2.608   1.540
 2306TIP3    H1 6924   2.967   2.683   1.592
 2306TIP3    H2 6925   2.974   2.633   1.449
 2307TIP3   OH2 6926   3.911   2.846   0.342
 2307TIP3    H1 6927   3.992   2.826   0.295
 2307TIP3    H2 6928   3.865   2.908   0.286
 2308TIP3   OH2 6929   5.430   5.536   1.685
 2308TIP3    H1 6930   5.464   5.526   1.596
 2308TIP3    H2 6931   5.423   5.446   1.718
 2309TIP3   OH2 6932   1.797   2.651   4.152
 2309TIP3    H1 6933   1.879   2.609   4.129
 2309TIP3    H2 6934   1.765   2.689   4.070
 2310TIP3   OH2 6935   2.530   1.378   4.604
 2310TIP3    H1 6936   2.461   1.393   4.540
 2310TIP3    H2 6937   2.551   1.285   4.595
 2311TIP3   OH2 6938   0.129   1.413   1.511
 2311TIP3    H1 6939   0.122   1.450   1.599
 2311TIP3    H2 6940   0.142   1.489   1.454
 2312TIP3   OH2 6941   5.594   3.512   3.586
 2312TIP3    H1 6942   5.515   3.503   3.533
 2312TIP3    H2 6943   5.600   3.605   3.604
 2313TIP3   OH2 6944   3.102   5.405   2.175
 2313TIP3    H1 6945   3.044   5.458   2.229
 2313TIP3    H2 6946   3.093   5.316   2.210
 2314TIP3   OH2 6947   5.290   5.750   1.484
 2314TIP3    H1 6948   5.355   5.794   1.538
 2314TIP3    H2 6949   5.223   5.720   1.546
 2315TIP3   OH2 6950   1.675   2.838   5.118
 2315TIP3    H1 6951   1.639   2.766   5.169
 2315TIP3    H2 6952   1.612   2.851   5.047
 2316TIP3   OH2 6953   6.131   0.601   5.161
 2316TIP3    H1 6954   6.186   0.584   5.237
 2316TIP3    H2 6955   6.192   0.605   5.088
 2317TIP3   OH2 6956   3.393   1.961   0.059
 2317TIP3    H1 6957   3.407   1.960  -0.036
 2317TIP3    H2 6958   3.471   2.003   0.095
 2318TIP3   OH2 6959   5.503  -0.042   2.442
 2318TIP3    H1 6960   5.502   0.035   2.499
 2318TIP3    H2 6961   5.569  -0.021   2.375
 2319TIP3   OH2 6962   2.193   3.153   2.995
 2319TIP3    H1 6963   2.255   3.225   2.986
 2319TIP3    H2 6964   2.137   3.179   3.068
 2320TIP3   OH2 6965   6.077   0.793   2.428
 2320TIP3    H1 6966   6.021   0.826   2.357
 2320TIP3    H2 6967   6.162   0.836   2.413
 2321TIP3   OH2 6968   1.497   0.144   3.597
 2321TIP3    H1 6969   1.459   0.057   3.608
 2321TIP3    H2 6970   1.556   0.135   3.523
 2322TIP3   OH2 6971   4.425   2.789   4.499
 2322TIP3    H1 6972   4.423   2.874   4.454
 2322TIP3    H2 6973   4.513   2.783   4.535
 2323TIP3   OH2 6974   2.817   0.388   2.594
 2323TIP3    H1 6975   2.758   0.369   2.521
 2323TIP3    H2 6976   2.767   0.367   2.672
 2324TIP3   OH2 6977   4.339   1.973   4.512
 2324TIP3    H1 6978   4.315   1.906   4.576
 2324TIP3    H2 6979   4.399   2.031   4.559
 2325TIP3   OH2 6980   4.807   2.648   1.391
 2325TIP3    H1 6981   4.787   2.585   1.459
 2325TIP3    H2 6982   4.893   2.683   1.415
 2326TIP3   OH2 6983   3.108   4.498   3.451
 2326TIP3    H1 6984   3.048   4.431   3.483
 2326TIP3    H2 6985   3.102   4.568   3.517
 2327TIP3   OH2 6986   2.070   4.406   2.595
 2327TIP3    H1 6987   2.008   4.417   2.522
 2327TIP3    H2 6988   2.021   4.436   2.672
 2328TIP3   OH2 6989   1.616   0.782   2.075
 2328TIP3    H1 6990   1.703   0.756   2.103
 2328TIP3    H2 6991   1.561   0.705   2.093
 2329TIP3   OH2 6992   5.673   2.002   2.341
 2329TIP3    H1 6993   5.708   2.090   2.329
 2329TIP3    H2 6994   5.649   1.999   2.434
 2330TIP3   OH2 6995   6.173   0.048   2.926
 2330TIP3    H1 6996   6.158   0.061   3.020
 2330TIP3    H2 6997   6.152   0.132   2.886
 2331TIP3   OH2 6998   2.057   0.428   2.589
 2331TIP3    H1 6999   2.014   0.463   2.512
 2331TIP3    H2 7000   2.000   0.357   2.619
 2332TIP3   OH2 7001   3.846   2.217   1.511
 2332TIP3    H1 7002   3.909   2.156   1.473
 2332TIP3    H2 7003   3.864   2.301   1.467
 2333TIP3   OH2 7004   4.235   2.059   2.286
 2333TIP3    H1 7005   4.311   2.019   2.245
 2333TIP3    H2 7006   4.265   2.082   2.374
 2334TIP3   OH2 7007   1.177   1.189   0.538
 2334TIP3    H1 7008   1.168   1.121   0.605
 2334TIP3    H2 7009   1.252   1.162   0.486
 2335TIP3   OH2 7010   4.333   2.531   1.111
 2335TIP3    H1 7011   4.352   2.460   1.173
 2335TIP3    H2 7012   4.243   2.557   1.132
 2336TIP3   OH2 7013   1.654   5.841   1.202
 2336TIP3    H1 7014   1.600   5.920   1.201
 2336TIP3    H2 7015   1.733   5.867   1.250
 2337TIP3   OH2 7016   3.994   2.232   4.972
 2337TIP3    H1 7017   4.061   2.196   5.030
 2337TIP3    H2 7018   3.954   2.155   4.931
 2338TIP3   OH2 7019   0.256   0.691   1.424
 2338TIP3    H1 7020   0.333   0.697   1.368
 2338TIP3    H2 7021   0.207   0.771   1.406
 2339TIP3   OH2 7022   3.007   4.429   1.234
 2339TIP3    H1 7023   2.965   4.375   1.167
 2339TIP3    H2 7024   2.941   4.494   1.257
 2340TIP3   OH2 7025   2.729   0.625   3.131
 2340TIP3    H1 7026   2.759   0.656   3.217
 2340TIP3    H2 7027   2.792   0.661   3.069
 2341TIP3   OH2 7028   0.658   4.195   2.878
 2341TIP3    H1 7029   0.628   4.108   2.905
 2341TIP3    H2 7030   0.643   4.196   2.783
 2342TIP3   OH2 7031   4.765   5.934   3.229
 2342TIP3    H1 7032   4.707   5.936   3.306
 2342TIP3    H2 7033   4.742   6.012   3.179
 2343TIP3   OH2 7034   0.784   2.156   1.030
 2343TIP3    H1 7035   0.773   2.246   0.998
 2343TIP3    H2 7036   0.823   2.109   0.956
 2344TIP3   OH2 7037   2.039   5.706   0.412
 2344TIP3    H1 7038   2.097   5.692   0.338
 2344TIP3    H2 7039   2.063   5.638   0.475
 2345TIP3   OH2 7040   4.253   3.840   3.224
 2345TIP3    H1 7041   4.261   3.789   3.305
 2345TIP3    H2 7042   4.159   3.850   3.211
 2346TIP3   OH2 7043   0.093   1.266   3.013
 2346TIP3    H1 7044   0.035   1.196   2.985
 2346TIP3    H2 7045   0.171   1.221   3.047
 2347TIP3   OH2 7046   0.298   0.954   2.555
 2347TIP3    H1 7047   0.351   0.895   2.609
 2347TIP3    H2 7048   0.343   0.954   2.470
 2348TIP3   OH2 7049   6.317   2.536   3.294
 2348TIP3    H1 7050   6.345   2.526   3.385
 2348TIP3    H2 7051   6.222   2.541   3.298
 2349TIP3   OH2 7052   5.331   4.226   0.395
 2349TIP3    H1 7053   5.382   4.305   0.414
 2349TIP3    H2 7054   5.281   4.210   0.474
 2350TIP3   OH2 7055   3.744   2.656   2.139
 2350TIP3    H1 7056   3.746   2.719   2.211
 2350TIP3    H2 7057   3.677   2.593   2.164
 2351TIP3   OH2 7058   0.406   5.589   1.824
 2351TIP3    H1 7059   0.495   5.561   1.844
 2351TIP3    H2 7060   0.375   5.629   1.906
 2352TIP3   OH2 7061   6.112   3.637   3.593
 2352TIP3    H1 7062   6.177   3.707   3.588
 2352TIP3    H2 7063   6.086   3.622   3.502
 2353TIP3   OH2 7064   1.727   1.846   5.032
 2353TIP3    H1 7065   1.693   1.912   5.093
 2353TIP3    H2 7066   1.809   1.817   5.072
 2354TIP3   OH2 7067   5.983   5.912   2.163
 2354TIP3    H1 7068   5.951   5.891   2.250
 2354TIP3    H2 7069   6.049   5.845   2.145
 2355TIP3   OH2 7070   4.600   5.333   2.522
 2355TIP3    H1 7071   4.676   5.372   2.566
 2355TIP3    H2 7072   4.561   5.275   2.588
 2356TIP3   OH2 7073   4.294   2.552   0.455
 2356TIP3    H1 7074   4.331   2.588   0.375
 2356TIP3    H2 7075   4.261   2.629   0.503
 2357TIP3   OH2 7076   0.049   3.605   5.175
 2357TIP3    H1 7077  -0.038   3.605   5.135
 2357TIP3    H2 7078   0.107   3.637   5.107
 2358TIP3   OH2 7079   0.057   3.524   1.083
 2358TIP3    H1 7080  -0.016   3.562   1.132
 2358TIP3    H2 7081   0.068   3.583   1.009
 2359TIP3   OH2 7082   2.195   0.968   4.232
 2359TIP3    H1 7083   2.255   0.897   4.256
 2359TIP3    H2 7084   2.139   0.980   4.308
 2360TIP3   OH2 7085   5.887   2.238   4.702
 2360TIP3    H1 7086   5.845   2.224   4.787
 2360TIP3    H2 7087   5.976   2.205   4.713
 2361TIP3   OH2 7088   6.120   2.896   2.383
 2361TIP3    H1 7089   6.071   2.832   2.435
 2361TIP3    H2 7090   6.082   2.892   2.296
 2362TIP3   OH2 7091   1.501   5.933   1.665
 2362TIP3    H1 7092   1.529   6.005   1.722
 2362TIP3    H2 7093   1.416   5.908   1.699
 2363TIP3   OH2 7094   0.089   1.564   4.147
 2363TIP3    H1 7095   0.038   1.633   4.105
 2363TIP3    H2 7096   0.024   1.508   4.189
 2364TIP3   OH2 7097   4.602   0.611   2.142
 2364TIP3    H1 7098   4.690   0.575   2.156
 2364TIP3    H2 7099   4.580   0.587   2.052
 2365TIP3   OH2 7100   5.889   2.708   4.967
 2365TIP3    H1 7101   5.869   2.616   4.949
 2365TIP3    H2 7102   5.898   2.748   4.881
 2366TIP3   OH2 7103   5.308   0.055   3.565
 2366TIP3    H1 7104   5.264   0.099   3.637
 2366TIP3    H2 7105   5.394   0.097   3.561
 2367TIP3   OH2 7106   1.007   0.220   2.878
 2367TIP3    H1 7107   1.013   0.314   2.898
 2367TIP3    H2 7108   0.949   0.215   2.802
 2368TIP3   OH2 7109   0.773   1.111   4.682
 2368TIP3    H1 7110   0.809   1.024   4.700
 2368TIP3    H2 7111   0.838   1.153   4.626
 2369TIP3   OH2 7112   6.251   2.479   3.725
 2369TIP3    H1 7113   6.203   2.461   3.806
 2369TIP3    H2 7114   6.187   2.520   3.667
 2370TIP3   OH2 7115   0.345   2.554   3.165
 2370TIP3    H1 7116   0.387   2.615   3.104
 2370TIP3    H2 7117   0.315   2.609   3.238
 2371TIP3   OH2 7118   1.999   1.237   2.348
 2371TIP3    H1 7119   1.905   1.226   2.362
 2371TIP3    H2 7120   2.020   1.323   2.384
 2372TIP3   OH2 7121   1.387   0.849   3.499
 2372TIP3    H1 7122   1.371   0.908   3.426
 2372TIP3    H2 7123   1.346   0.766   3.472
 2373TIP3   OH2 7124   2.033   2.949   2.737
 2373TIP3    H1 7125   2.066   2.907   2.817
 2373TIP3    H2 7126   1.971   2.886   2.701
 2374TIP3   OH2 7127   1.282   5.630   1.246
 2374TIP3    H1 7128   1.237   5.633   1.162
 2374TIP3    H2 7129   1.232   5.567   1.298
 2375TIP3   OH2 7130   4.516   0.825   2.751
 2375TIP3    H1 7131   4.442   0.885   2.743
 2375TIP3    H2 7132   4.573   0.847   2.677
 2376TIP3   OH2 7133   3.568   1.253   3.247
 2376TIP3    H1 7134   3.614   1.263   3.331
 2376TIP3    H2 7135   3.561   1.342   3.213
 2377TIP3   OH2 7136   5.987   4.769   4.500
 2377TIP3    H1 7137   5.938   4.841   4.461
 2377TIP3    H2 7138   5.933   4.692   4.487
 2378TIP3   OH2 7139   3.416   0.656   3.461
 2378TIP3    H1 7140   3.357   0.612   3.522
 2378TIP3    H2 7141   3.373   0.648   3.376
 2379TIP3   OH2 7142   3.725   0.728   0.951
 2379TIP3    H1 7143   3.725   0.823   0.958
 2379TIP3    H2 7144   3.768   0.710   0.867
 2380TIP3   OH2 7145   1.271   4.601   4.872
 2380TIP3    H1 7146   1.195   4.543   4.871
 2380TIP3    H2 7147   1.282   4.627   4.781
 2381TIP3   OH2 7148   4.881   2.939   0.393
 2381TIP3    H1 7149   4.821   2.875   0.431
 2381TIP3    H2 7150   4.950   2.886   0.352
 2382TIP3   OH2 7151   6.261   5.255   0.978
 2382TIP3    H1 7152   6.221   5.187   1.033
 2382TIP3    H2 7153   6.345   5.217   0.951
 2383TIP3   OH2 7154   5.972   4.732   2.485
 2383TIP3    H1 7155   5.912   4.657   2.479
 2383TIP3    H2 7156   5.950   4.773   2.569
 2384TIP3   OH2 7157   4.092   1.947   2.074
 2384TIP3    H1 7158   4.129   1.962   2.161
 2384TIP3    H2 7159   4.168   1.931   2.019
 2385TIP3   OH2 7160   4.861   0.295   4.989
 2385TIP3    H1 7161   4.849   0.313   4.895
 2385TIP3    H2 7162   4.840   0.378   5.032
 2386TIP3   OH2 7163   1.629   0.493   2.740
 2386TIP3    H1 7164   1.573   0.461   2.810
 2386TIP3    H2 7165   1.577   0.559   2.695
 2387TIP3   OH2 7166   4.627   1.433   4.627
 2387TIP3    H1 7167   4.719   1.440   4.602
 2387TIP3    H2 7168   4.612   1.509   4.684
 2388TIP3   OH2 7169   0.024   1.609   4.782
 2388TIP3    H1 7170   0.068   1.669   4.722
 2388TIP3    H2 7171  -0.012   1.665   4.850
 2389TIP3   OH2 7172   1.850   0.349   4.172
 2389TIP3    H1 7173   1.925   0.408   4.159
 2389TIP3    H2 7174   1.862   0.280   4.107
 2390TIP3   OH2 7175   5.461   0.457   0.683
 2390TIP3    H1 7176   5.403   0.496   0.749
 2390TIP3    H2 7177   5.548   0.487   0.708
 2391TIP3   OH2 7178   0.641   2.907   0.476
 2391TIP3    H1 7179   0.597   2.836   0.429
 2391TIP3    H2 7180   0.569   2.965   0.505
 2392TIP3   OH2 7181   1.832   0.118   1.826
 2392TIP3    H1 7182   1.879   0.164   1.757
 2392TIP3    H2 7183   1.772   0.183   1.863
 2393TIP3   OH2 7184   3.381   1.000   4.386
 2393TIP3    H1 7185   3.366   1.089   4.353
 2393TIP3    H2 7186   3.317   0.989   4.457
 2394TIP3   OH2 7187   0.959   2.942   4.355
 2394TIP3    H1 7188   0.921   2.961   4.270
 2394TIP3    H2 7189   0.885   2.908   4.407
 2395TIP3   OH2 7190   1.743   3.047   0.378
 2395TIP3    H1 7191   1.788   2.986   0.437
 2395TIP3    H2 7192   1.712   2.992   0.305
 2396TIP3   OH2 7193   1.842   1.707   3.540
 2396TIP3    H1 7194   1.828   1.761   3.462
 2396TIP3    H2 7195   1.754   1.685   3.570
 2397TIP3   OH2 7196   1.798   0.922   1.678
 2397TIP3    H1 7197   1.785   0.968   1.761
 2397TIP3    H2 7198   1.745   0.971   1.615
 2398TIP3   OH2 7199   2.365   2.085   2.884
 2398TIP3    H1 7200   2.447   2.102   2.838
 2398TIP3    H2 7201   2.306   2.051   2.816
 2399TIP3   OH2 7202   5.945   5.417   5.072
 2399TIP3    H1 7203   6.020   5.357   5.074
 2399TIP3    H2 7204   5.925   5.433   5.164
 2400TIP3   OH2 7205   3.687   0.511   1.132
 2400TIP3    H1 7206   3.777   0.477   1.134
 2400TIP3    H2 7207   3.690   0.584   1.070
 2401TIP3   OH2 7208   3.100   2.298   3.547
 2401TIP3    H1 7209   3.040   2.241   3.499
 2401TIP3    H2 7210   3.043   2.358   3.595
 2402TIP3   OH2 7211   6.078   3.778   1.274
 2402TIP3    H1 7212   6.122   3.693   1.275
 2402TIP3    H2 7213   6.116   3.824   1.200
 2403TIP3   OH2 7214   3.616   5.278   3.708
 2403TIP3    H1 7215   3.617   5.218   3.633
 2403TIP3    H2 7216   3.677   5.348   3.683
 2404TIP3   OH2 7217   2.644   0.767   5.188
 2404TIP3    H1 7218   2.665   0.811   5.106
 2404TIP3    H2 7219   2.593   0.831   5.238
 2405TIP3   OH2 7220   1.611   5.682   4.041
 2405TIP3    H1 7221   1.692   5.731   4.055
 2405TIP3    H2 7222   1.639   5.591   4.035
 2406TIP3   OH2 7223   3.511   3.548   3.117
 2406TIP3    H1 7224   3.535   3.461   3.149
 2406TIP3    H2 7225   3.416   3.547   3.111
 2407TIP3   OH2 7226   3.062   0.695   3.660
 2407TIP3    H1 7227   3.141   0.647   3.635
 2407TIP3    H2 7228   3.094   0.770   3.711
 2408TIP3   OH2 7229   4.912   4.880   1.778
 2408TIP3    H1 7230   4.969   4.927   1.717
 2408TIP3    H2 7231   4.864   4.818   1.723
 2409TIP3   OH2 7232   4.799   3.923   2.177
 2409TIP3    H1 7233   4.836   3.878   2.101
 2409TIP3    H2 7234   4.721   3.871   2.200
 2410TIP3   OH2 7235   1.318  -0.005   4.444
 2410TIP3    H1 7236   1.401  -0.041   4.476
 2410TIP3    H2 7237   1.342   0.078   4.403
 2411TIP3   OH2 7238   0.337   0.143   2.254
 2411TIP3    H1 7239   0.319   0.063   2.205
 2411TIP3    H2 7240   0.311   0.214   2.194
 2412TIP3   OH2 7241   2.888   2.910   0.389
 2412TIP3    H1 7242   2.874   2.819   0.414
 2412TIP3    H2 7243   2.853   2.961   0.463
 2413TIP3   OH2 7244   1.604   5.732   2.341
 2413TIP3    H1 7245   1.616   5.639   2.361
 2413TIP3    H2 7246   1.512   5.749   2.362
 2414TIP3   OH2 7247   4.561   5.635   1.906
 2414TIP3    H1 7248   4.532   5.669   1.990
 2414TIP3    H2 7249   4.481   5.621   1.856
 2415TIP3   OH2 7250   1.858   3.823   0.190
 2415TIP3    H1 7251   1.922   3.752   0.192
 2415TIP3    H2 7252   1.883   3.875   0.114
 2416TIP3   OH2 7253   3.445   2.043   2.886
 2416TIP3    H1 7254   3.394   1.962   2.890
 2416TIP3    H2 7255   3.385   2.110   2.918
 2417TIP3   OH2 7256   1.480   0.196   4.675
 2417TIP3    H1 7257   1.499   0.134   4.604
 2417TIP3    H2 7258   1.523   0.159   4.752
 2418TIP3   OH2 7259   3.972   1.310   0.632
 2418TIP3    H1 7260   4.063   1.322   0.605
 2418TIP3    H2 7261   3.923   1.375   0.580
 2419TIP3   OH2 7262   1.576   5.856   3.837
 2419TIP3    H1 7263   1.587   5.785   3.900
 2419TIP3    H2 7264   1.486   5.885   3.849
 2420TIP3   OH2 7265   0.892   4.874   0.306
 2420TIP3    H1 7266   0.908   4.827   0.388
 2420TIP3    H2 7267   0.970   4.927   0.293
 2421TIP3   OH2 7268   3.242   4.124   4.013
 2421TIP3    H1 7269   3.193   4.086   3.940
 2421TIP3    H2 7270   3.321   4.161   3.971
 2422TIP3   OH2 7271   5.755   5.245   1.724
 2422TIP3    H1 7272   5.754   5.241   1.628
 2422TIP3    H2 7273   5.749   5.154   1.752
 2423TIP3   OH2 7274   4.156   2.303   0.457
 2423TIP3    H1 7275   4.120   2.253   0.384
 2423TIP3    H2 7276   4.214   2.367   0.416
 2424TIP3   OH2 7277   6.320   4.904   1.677
 2424TIP3    H1 7278   6.330   4.957   1.756
 2424TIP3    H2 7279   6.387   4.836   1.685
 2425TIP3   OH2 7280   6.279   0.519   0.315
 2425TIP3    H1 7281   6.217   0.463   0.361
 2425TIP3    H2 7282   6.225   0.568   0.253
 2426TIP3   OH2 7283   4.365   5.876   2.659
 2426TIP3    H1 7284   4.397   5.966   2.660
 2426TIP3    H2 7285   4.331   5.860   2.747
 2427TIP3   OH2 7286   2.663   3.360   0.797
 2427TIP3    H1 7287   2.597   3.397   0.738
 2427TIP3    H2 7288   2.622   3.362   0.883
 2428TIP3   OH2 7289   3.072   2.913   1.788
 2428TIP3    H1 7290   2.990   2.910   1.738
 2428TIP3    H2 7291   3.075   3.001   1.825
 2429TIP3   OH2 7292   6.306   4.666   1.985
 2429TIP3    H1 7293   6.250   4.706   1.919
 2429TIP3    H2 7294   6.315   4.733   2.053
 2430TIP3   OH2 7295   1.182   2.549   1.323
 2430TIP3    H1 7296   1.216   2.629   1.365
 2430TIP3    H2 7297   1.252   2.522   1.263
 2431TIP3   OH2 7298   0.819   0.788   5.132
 2431TIP3    H1 7299   0.822   0.772   5.226
 2431TIP3    H2 7300   0.877   0.722   5.094
 2432TIP3   OH2 7301   2.136   1.603   1.702
 2432TIP3    H1 7302   2.172   1.691   1.691
 2432TIP3    H2 7303   2.196   1.546   1.655
 2433TIP3   OH2 7304   5.085   5.355   0.760
 2433TIP3    H1 7305   5.029   5.411   0.707
 2433TIP3    H2 7306   5.025   5.291   0.799
 2434TIP3   OH2 7307   1.574   3.857   0.347
 2434TIP3    H1 7308   1.637   3.800   0.303
 2434TIP3    H2 7309   1.558   3.928   0.284
 2435TIP3   OH2 7310   0.689   5.671   2.982
 2435TIP3    H1 7311   0.717   5.698   3.070
 2435TIP3    H2 7312   0.744   5.595   2.962
 2436TIP3   OH2 7313   4.029   1.534   1.317
 2436TIP3    H1 7314   4.103   1.590   1.342
 2436TIP3    H2 7315   4.026   1.541   1.221
 2437TIP3   OH2 7316   0.143   1.056   0.484
 2437TIP3    H1 7317   0.134   0.967   0.517
 2437TIP3    H2 7318   0.203   1.099   0.545
 2438TIP3   OH2 7319   0.084   5.860   2.281
 2438TIP3    H1 7320   0.080   5.955   2.271
 2438TIP3    H2 7321   0.022   5.826   2.216
 2439TIP3   OH2 7322   0.975   3.901   4.971
 2439TIP3    H1 7323   1.032   3.859   5.035
 2439TIP3    H2 7324   1.034   3.939   4.906
 2440TIP3   OH2 7325   3.218   3.152   3.748
 2440TIP3    H1 7326   3.138   3.117   3.710
 2440TIP3    H2 7327   3.263   3.193   3.675
 2441TIP3   OH2 7328   2.047   3.202   4.671
 2441TIP3    H1 7329   1.966   3.152   4.668
 2441TIP3    H2 7330   2.073   3.211   4.580
 2442TIP3   OH2 7331   0.481   5.364   4.951
 2442TIP3    H1 7332   0.453   5.412   4.874
 2442TIP3    H2 7333   0.576   5.357   4.942
 2443TIP3   OH2 7334   2.040   2.977   1.606
 2443TIP3    H1 7335   2.001   2.932   1.531
 2443TIP3    H2 7336   1.989   3.057   1.616
 2444TIP3   OH2 7337   5.467   2.413   2.566
 2444TIP3    H1 7338   5.384   2.366   2.572
 2444TIP3    H2 7339   5.464   2.477   2.637
 2445TIP3   OH2 7340   1.379   4.371   2.717
 2445TIP3    H1 7341   1.359   4.287   2.758
 2445TIP3    H2 7342   1.452   4.353   2.658
 2446TIP3   OH2 7343   6.007   0.874   0.268
 2446TIP3    H1 7344   5.929   0.846   0.316
 2446TIP3    H2 7345   6.075   0.879   0.335
 2447TIP3   OH2 7346   2.516   0.862   2.337
 2447TIP3    H1 7347   2.430   0.819   2.333
 2447TIP3    H2 7348   2.576   0.793   2.363
 2448TIP3   OH2 7349   1.162   1.263   2.723
 2448TIP3    H1 7350   1.250   1.263   2.762
 2448TIP3    H2 7351   1.102   1.271   2.797
 2449TIP3   OH2 7352   4.154   0.454   3.122
 2449TIP3    H1 7353   4.137   0.406   3.203
 2449TIP3    H2 7354   4.138   0.389   3.053
 2450TIP3   OH2 7355   4.281   0.740   0.464
 2450TIP3    H1 7356   4.252   0.731   0.555
 2450TIP3    H2 7357   4.327   0.658   0.445
 2451TIP3   OH2 7358   3.775   4.818   1.454
 2451TIP3    H1 7359   3.856   4.774   1.428
 2451TIP3    H2 7360   3.782   4.826   1.549
 2452TIP3   OH2 7361   4.724   2.704   4.408
 2452TIP3    H1 7362   4.644   2.725   4.359
 2452TIP3    H2 7363   4.752   2.620   4.373
 2453TIP3   OH2 7364   4.749   4.817   1.255
 2453TIP3    H1 7365   4.657   4.844   1.258
 2453TIP3    H2 7366   4.764   4.793   1.164
 2454TIP3   OH2 7367   3.120   4.412   1.601
 2454TIP3    H1 7368   3.037   4.377   1.569
 2454TIP3    H2 7369   3.185   4.383   1.537
 2455TIP3   OH2 7370   2.174   1.922   4.184
 2455TIP3    H1 7371   2.172   1.908   4.090
 2455TIP3    H2 7372   2.093   1.970   4.203
 2456TIP3   OH2 7373   3.848   2.686   0.556
 2456TIP3    H1 7374   3.888   2.736   0.485
 2456TIP3    H2 7375   3.755   2.682   0.534
 2457TIP3   OH2 7376   6.366   1.892   3.777
 2457TIP3    H1 7377   6.332   1.814   3.734
 2457TIP3    H2 7378   6.336   1.965   3.723
 2458TIP3   OH2 7379   1.654   2.795   0.028
 2458TIP3    H1 7380   1.740   2.828   0.055
 2458TIP3    H2 7381   1.652   2.808  -0.067
 2459TIP3   OH2 7382   5.065   5.347   2.669
 2459TIP3    H1 7383   4.998   5.405   2.634
 2459TIP3    H2 7384   5.144   5.400   2.672
 2460TIP3   OH2 7385   3.168   2.206   1.120
 2460TIP3    H1 7386   3.168   2.200   1.216
 2460TIP3    H2 7387   3.209   2.290   1.101
 2461TIP3   OH2 7388   0.874   4.415   3.427
 2461TIP3    H1 7389   0.843   4.344   3.482
 2461TIP3    H2 7390   0.930   4.372   3.362
 2462TIP3   OH2 7391   0.422   1.351   4.795
 2462TIP3    H1 7392   0.327   1.348   4.788
 2462TIP3    H2 7393   0.440   1.335   4.888
 2463TIP3   OH2 7394   5.553   0.138   4.319
 2463TIP3    H1 7395   5.563   0.128   4.414
 2463TIP3    H2 7396   5.504   0.061   4.291
 2464TIP3   OH2 7397   4.261   5.392   3.384
 2464TIP3    H1 7398   4.191   5.345   3.429
 2464TIP3    H2 7399   4.310   5.324   3.338
 2465TIP3   OH2 7400   4.929   5.599   4.270
 2465TIP3    H1 7401   4.948   5.689   4.246
 2465TIP3    H2 7402   4.892   5.560   4.190
 2466TIP3   OH2 7403   2.930   2.480   5.081
 2466TIP3    H1 7404   3.015   2.475   5.124
 2466TIP3    H2 7405   2.893   2.563   5.110
 2467TIP3   OH2 7406   1.363   5.479   3.337
 2467TIP3    H1 7407   1.450   5.516   3.332
 2467TIP3    H2 7408   1.322   5.501   3.253
 2468TIP3   OH2 7409   3.816   4.314   1.930
 2468TIP3    H1 7410   3.807   4.237   1.873
 2468TIP3    H2 7411   3.900   4.351   1.906
 2469TIP3   OH2 7412   4.044   0.237   1.214
 2469TIP3    H1 7413   3.992   0.164   1.181
 2469TIP3    H2 7414   4.124   0.236   1.161
 2470TIP3   OH2 7415   2.243   4.424   0.194
 2470TIP3    H1 7416   2.308   4.470   0.247
 2470TIP3    H2 7417   2.166   4.480   0.197
 2471TIP3   OH2 7418   5.417   5.695   3.131
 2471TIP3    H1 7419   5.465   5.732   3.205
 2471TIP3    H2 7420   5.337   5.661   3.170
 2472TIP3   OH2 7421   3.735   2.703   4.939
 2472TIP3    H1 7422   3.696   2.779   4.981
 2472TIP3    H2 7423   3.779   2.738   4.862
 2473TIP3   OH2 7424   5.200   0.394   4.762
 2473TIP3    H1 7425   5.221   0.418   4.853
 2473TIP3    H2 7426   5.267   0.437   4.710
 2474TIP3   OH2 7427   1.161   5.412   0.093
 2474TIP3    H1 7428   1.137   5.352   0.023
 2474TIP3    H2 7429   1.176   5.356   0.169
 2475TIP3   OH2 7430   1.793   1.316   4.841
 2475TIP3    H1 7431   1.780   1.351   4.930
 2475TIP3    H2 7432   1.887   1.299   4.836
 2476TIP3   OH2 7433   1.710   4.127   3.459
 2476TIP3    H1 7434   1.783   4.170   3.413
 2476TIP3    H2 7435   1.729   4.140   3.552
 2477TIP3   OH2 7436   0.928   4.100   5.142
 2477TIP3    H1 7437   0.916   4.021   5.088
 2477TIP3    H2 7438   0.864   4.091   5.212
 2478TIP3   OH2 7439   2.132   0.799   3.230
 2478TIP3    H1 7440   2.143   0.707   3.254
 2478TIP3    H2 7441   2.185   0.809   3.151
 2479TIP3   OH2 7442   5.965   0.610   1.829
 2479TIP3    H1 7443   6.014   0.617   1.911
 2479TIP3    H2 7444   6.023   0.649   1.764
 2480TIP3   OH2 7445   1.724   1.030   1.936
 2480TIP3    H1 7446   1.680   1.111   1.963
 2480TIP3    H2 7447   1.674   0.960   1.979
 2481TIP3   OH2 7448   4.901   4.197   2.767
 2481TIP3    H1 7449   4.901   4.109   2.804
 2481TIP3    H2 7450   4.809   4.216   2.749
 2482TIP3   OH2 7451   1.948   4.530   0.465
 2482TIP3    H1 7452   1.988   4.616   0.467
 2482TIP3    H2 7453   2.021   4.470   0.449
 2483TIP3   OH2 7454   5.425   2.429   0.000
 2483TIP3    H1 7455   5.454   2.338  -0.013
 2483TIP3    H2 7456   5.332   2.421   0.022
 2484TIP3   OH2 7457   3.866   0.312   2.830
 2484TIP3    H1 7458   3.789   0.272   2.789
 2484TIP3    H2 7459   3.926   0.240   2.846
 2485TIP3   OH2 7460   4.529   5.533   2.375
 2485TIP3    H1 7461   4.558   5.447   2.407
 2485TIP3    H2 7462   4.532   5.590   2.452
 2486TIP3   OH2 7463   2.393   5.309   1.167
 2486TIP3    H1 7464   2.450   5.248   1.213
 2486TIP3    H2 7465   2.451   5.382   1.143
 2487TIP3   OH2 7466   4.688   3.275   2.532
 2487TIP3    H1 7467   4.686   3.352   2.589
 2487TIP3    H2 7468   4.735   3.209   2.583
 2488TIP3   OH2 7469   3.446   5.487   3.701
 2488TIP3    H1 7470   3.489   5.402   3.705
 2488TIP3    H2 7471   3.429   5.501   3.607
 2489TIP3   OH2 7472   3.179   2.295   0.312
 2489TIP3    H1 7473   3.152   2.203   0.305
 2489TIP3    H2 7474   3.144   2.336   0.233
 2490TIP3   OH2 7475   2.590   0.710   1.168
 2490TIP3    H1 7476   2.653   0.710   1.240
 2490TIP3    H2 7477   2.520   0.768   1.197
 2491TIP3   OH2 7478   0.412   2.567   1.057
 2491TIP3    H1 7479   0.499   2.586   1.022
 2491TIP3    H2 7480   0.425   2.563   1.152
 2492TIP3   OH2 7481   4.837   1.965   1.738
 2492TIP3    H1 7482   4.819   1.997   1.826
 2492TIP3    H2 7483   4.905   1.898   1.750
 2493TIP3   OH2 7484   5.485   4.432   0.501
 2493TIP3    H1 7485   5.485   4.525   0.523
 2493TIP3    H2 7486   5.577   4.405   0.509
 2494TIP3   OH2 7487   0.860   6.004   2.282
 2494TIP3    H1 7488   0.907   5.923   2.301
 2494TIP3    H2 7489   0.882   6.023   2.191
 2495TIP3   OH2 7490   5.642   0.770   2.199
 2495TIP3    H1 7491   5.678   0.812   2.277
 2495TIP3    H2 7492   5.547   0.783   2.206
 2496TIP3   OH2 7493   1.518   2.078   2.662
 2496TIP3    H1 7494   1.560   2.039   2.739
 2496TIP3    H2 7495   1.460   2.009   2.629
 2497TIP3   OH2 7496   4.690   2.720   2.145
 2497TIP3    H1 7497   4.630   2.708   2.219
 2497TIP3    H2 7498   4.643   2.683   2.070
 2498TIP3   OH2 7499   1.523   1.061   5.096
 2498TIP3    H1 7500   1.459   0.998   5.129
 2498TIP3    H2 7501   1.593   1.061   5.162
 2499TIP3   OH2 7502   3.262   2.890   2.894
 2499TIP3    H1 7503   3.332   2.903   2.958
 2499TIP3    H2 7504   3.236   2.799   2.904
 2500TIP3   OH2 7505   1.959   2.426   3.463
 2500TIP3    H1 7506   2.004   2.475   3.532
 2500TIP3    H2 7507   1.867   2.452   3.471
 2501TIP3   OH2 7508   5.044   3.564   0.934
 2501TIP3    H1 7509   5.085   3.557   0.848
 2501TIP3    H2 7510   4.976   3.496   0.934
 2502TIP3   OH2 7511   5.794   1.366   2.561
 2502TIP3    H1 7512   5.790   1.328   2.649
 2502TIP3    H2 7513   5.716   1.421   2.555
 2503TIP3   OH2 7514   0.443   2.577   2.423
 2503TIP3    H1 7515   0.388   2.545   2.352
 2503TIP3    H2 7516   0.518   2.517   2.425
 2504TIP3   OH2 7517   0.357   4.557   5.019
 2504TIP3    H1 7518   0.278   4.547   5.073
 2504TIP3    H2 7519   0.325   4.553   4.929
 2505TIP3   OH2 7520   4.885   4.182   2.177
 2505TIP3    H1 7521   4.808   4.235   2.157
 2505TIP3    H2 7522   4.850   4.101   2.214
 2506TIP3   OH2 7523   2.201   2.236   3.408
 2506TIP3    H1 7524   2.240   2.148   3.416
 2506TIP3    H2 7525   2.112   2.226   3.441
 2507TIP3   OH2 7526   0.346   2.756   3.339
 2507TIP3    H1 7527   0.380   2.839   3.372
 2507TIP3    H2 7528   0.251   2.765   3.344
 2508TIP3   OH2 7529   3.102   5.892   4.745
 2508TIP3    H1 7530   3.118   5.802   4.717
 2508TIP3    H2 7531   3.019   5.888   4.793
 2509TIP3   OH2 7532   0.420   3.949   4.106
 2509TIP3    H1 7533   0.440   3.869   4.057
 2509TIP3    H2 7534   0.358   3.921   4.174
 2510TIP3   OH2 7535   2.598   2.298   4.776
 2510TIP3    H1 7536   2.534   2.347   4.724
 2510TIP3    H2 7537   2.566   2.304   4.866
 2511TIP3   OH2 7538   4.419   3.341   0.951
 2511TIP3    H1 7539   4.386   3.346   0.861
 2511TIP3    H2 7540   4.417   3.431   0.982
 2512TIP3   OH2 7541   6.018   2.032   2.343
 2512TIP3    H1 7542   5.964   2.110   2.356
 2512TIP3    H2 7543   5.956   1.959   2.343
 2513TIP3   OH2 7544   2.712   3.666   0.366
 2513TIP3    H1 7545   2.784   3.604   0.352
 2513TIP3    H2 7546   2.633   3.612   0.362
 2514TIP3   OH2 7547   6.292   1.004   1.130
 2514TIP3    H1 7548   6.244   1.031   1.208
 2514TIP3    H2 7549   6.232   1.022   1.058
 2515TIP3   OH2 7550   5.032   1.416   4.848
 2515TIP3    H1 7551   5.119   1.389   4.818
 2515TIP3    H2 7552   5.047   1.453   4.935
 2516TIP3   OH2 7553   0.615   5.780   4.751
 2516TIP3    H1 7554   0.532   5.742   4.780
 2516TIP3    H2 7555   0.681   5.736   4.805
 2517TIP3   OH2 7556   3.626   2.439   3.159
 2517TIP3    H1 7557   3.534   2.463   3.154
 2517TIP3    H2 7558   3.633   2.387   3.239
 2518TIP3   OH2 7559   6.019   4.860   0.802
 2518TIP3    H1 7560   6.034   4.776   0.846
 2518TIP3    H2 7561   6.107   4.898   0.793
 2519TIP3   OH2 7562   0.222   5.977   3.612
 2519TIP3    H1 7563   0.196   5.886   3.628
 2519TIP3    H2 7564   0.245   6.011   3.698
 2520TIP3   OH2 7565   5.554   4.398   3.101
 2520TIP3    H1 7566   5.641   4.377   3.135
 2520TIP3    H2 7567   5.494   4.352   3.160
 2521TIP3   OH2 7568   5.736   5.177   1.370
 2521TIP3    H1 7569   5.688   5.241   1.317
 2521TIP3    H2 7570   5.828   5.204   1.362
 2522TIP3   OH2 7571   0.577   0.777   0.858
 2522TIP3    H1 7572   0.580   0.693   0.904
 2522TIP3    H2 7573   0.491   0.813   0.878
 2523TIP3   OH2 7574   4.729   4.667   4.703
 2523TIP3    H1 7575   4.797   4.721   4.743
 2523TIP3    H2 7576   4.649   4.692   4.748
 2524TIP3   OH2 7577   4.511   1.509   4.373
 2524TIP3    H1 7578   4.530   1.601   4.388
 2524TIP3    H2 7579   4.527   1.467   4.458
 2525TIP3   OH2 7580   4.766   5.224   1.664
 2525TIP3    H1 7581   4.676   5.192   1.671
 2525TIP3    H2 7582   4.769   5.298   1.725
 2526TIP3   OH2 7583   2.507   4.202   3.151
 2526TIP3    H1 7584   2.516   4.275   3.090
 2526TIP3    H2 7585   2.415   4.177   3.146
 2527TIP3   OH2 7586   4.861   4.190   0.277
 2527TIP3    H1 7587   4.908   4.256   0.328
 2527TIP3    H2 7588   4.915   4.112   0.283
 2528TIP3   OH2 7589   5.348   0.814   3.551
 2528TIP3    H1 7590   5.377   0.816   3.643
 2528TIP3    H2 7591   5.256   0.839   3.555
 2529TIP3   OH2 7592   1.075   3.603   0.028
 2529TIP3    H1 7593   0.987   3.584   0.062
 2529TIP3    H2 7594   1.134   3.577   0.099
 2530TIP3   OH2 7595   0.409   3.744   2.810
 2530TIP3    H1 7596   0.325   3.748   2.855
 2530TIP3    H2 7597   0.471   3.717   2.877
 2531TIP3   OH2 7598   0.226   0.014   1.818
 2531TIP3    H1 7599   0.207   0.069   1.742
 2531TIP3    H2 7600   0.273   0.071   1.879
 2532TIP3   OH2 7601   4.497   0.245   3.213
 2532TIP3    H1 7602   4.469   0.193   3.289
 2532TIP3    H2 7603   4.446   0.326   3.220
 2533TIP3   OH2 7604   5.569   2.282   3.336
 2533TIP3    H1 7605   5.657   2.307   3.365
 2533TIP3    H2 7606   5.574   2.186   3.326
 2534TIP3   OH2 7607   5.806   1.484   0.626
 2534TIP3    H1 7608   5.771   1.397   0.648
 2534TIP3    H2 7609   5.900   1.476   0.639
 2535TIP3   OH2 7610   3.296   0.461   0.458
 2535TIP3    H1 7611   3.359   0.390   0.447
 2535TIP3    H2 7612   3.273   0.487   0.369
 2536TIP3   OH2 7613   0.486   3.157   3.244
 2536TIP3    H1 7614   0.480   3.196   3.331
 2536TIP3    H2 7615   0.420   3.204   3.193
 2537TIP3   OH2 7616   2.202   1.469   4.570
 2537TIP3    H1 7617   2.133   1.528   4.599
 2537TIP3    H2 7618   2.274   1.527   4.543
 2538TIP3   OH2 7619   1.131   2.461   5.116
 2538TIP3    H1 7620   1.207   2.448   5.061
 2538TIP3    H2 7621   1.148   2.544   5.162
 2539TIP3   OH2 7622   0.438   2.067   3.587
 2539TIP3    H1 7623   0.380   1.990   3.585
 2539TIP3    H2 7624   0.384   2.138   3.553
 2540TIP3   OH2 7625   0.848   3.422   2.914
 2540TIP3    H1 7626   0.796   3.391   2.988
 2540TIP3    H2 7627   0.826   3.361   2.843
 2541TIP3   OH2 7628   2.691   0.753   4.342
 2541TIP3    H1 7629   2.712   0.741   4.434
 2541TIP3    H2 7630   2.641   0.674   4.319
 2542TIP3   OH2 7631   5.984   1.111   0.086
 2542TIP3    H1 7632   5.965   1.188   0.140
 2542TIP3    H2 7633   6.003   1.042   0.150
 2543TIP3   OH2 7634   4.840   3.173   0.769
 2543TIP3    H1 7635   4.801   3.244   0.820
 2543TIP3    H2 7636   4.767   3.113   0.751
 2544TIP3   OH2 7637   5.026   0.993   1.126
 2544TIP3    H1 7638   5.108   1.042   1.130
 2544TIP3    H2 7639   4.974   1.026   1.199
 2545TIP3   OH2 7640   0.559   4.661   3.980
 2545TIP3    H1 7641   0.585   4.739   3.930
 2545TIP3    H2 7642   0.595   4.588   3.930
 2546TIP3   OH2 7643   6.011   3.194   1.085
 2546TIP3    H1 7644   5.971   3.281   1.092
 2546TIP3    H2 7645   5.993   3.152   1.169
 2547TIP3   OH2 7646   4.794   5.378   4.808
 2547TIP3    H1 7647   4.847   5.403   4.732
 2547TIP3    H2 7648   4.728   5.319   4.772
 2548TIP3   OH2 7649   2.511   4.910   1.437
 2548TIP3    H1 7650   2.454   4.905   1.514
 2548TIP3    H2 7651   2.598   4.888   1.470
 2549TIP3   OH2 7652   3.693   2.344   4.779
 2549TIP3    H1 7653   3.705   2.270   4.720
 2549TIP3    H2 7654   3.749   2.324   4.854
 2550TIP3   OH2 7655   0.805   0.122   3.388
 2550TIP3    H1 7656   0.847   0.142   3.304
 2550TIP3    H2 7657   0.861   0.056   3.428
 2551TIP3   OH2 7658  -0.044   2.664   4.653
 2551TIP3    H1 7659  -0.009   2.713   4.727
 2551TIP3    H2 7660   0.025   2.601   4.632
 2552TIP3   OH2 7661   2.700   3.642   2.589
 2552TIP3    H1 7662   2.778   3.630   2.535
 2552TIP3    H2 7663   2.726   3.610   2.676
 2553TIP3   OH2 7664   5.682   2.487   2.755
 2553TIP3    H1 7665   5.672   2.580   2.773
 2553TIP3    H2 7666   5.648   2.443   2.833
 2554TIP3   OH2 7667   0.986   5.804   2.537
 2554TIP3    H1 7668   0.954   5.766   2.456
 2554TIP3    H2 7669   0.915   5.791   2.600
 2555TIP3   OH2 7670   1.639   3.654   0.058
 2555TIP3    H1 7671   1.664   3.641   0.150
 2555TIP3    H2 7672   1.722   3.652   0.010
 2556TIP3   OH2 7673   5.472   5.757   1.272
 2556TIP3    H1 7674   5.379   5.738   1.281
 2556TIP3    H2 7675   5.495   5.806   1.352
 2557TIP3   OH2 7676   5.390   5.777   4.044
 2557TIP3    H1 7677   5.442   5.838   4.096
 2557TIP3    H2 7678   5.382   5.819   3.958
 2558TIP3   OH2 7679   4.877   2.585   2.339
 2558TIP3    H1 7680   4.846   2.635   2.414
 2558TIP3    H2 7681   4.839   2.629   2.263
 2559TIP3   OH2 7682   1.051   0.016   4.352
 2559TIP3    H1 7683   1.138  -0.012   4.379
 2559TIP3    H2 7684   1.026   0.082   4.417
 2560TIP3   OH2 7685   1.590   1.801   4.458
 2560TIP3    H1 7686   1.575   1.832   4.369
 2560TIP3    H2 7687   1.671   1.750   4.453
 2561TIP3   OH2 7688   4.380   1.122   4.295
 2561TIP3    H1 7689   4.408   1.194   4.239
 2561TIP3    H2 7690   4.416   1.144   4.381
 2562TIP3   OH2 7691   3.161   3.459   3.690
 2562TIP3    H1 7692   3.140   3.543   3.649
 2562TIP3    H2 7693   3.179   3.400   3.616
 2563TIP3   OH2 7694   5.303   1.207   2.153
 2563TIP3    H1 7695   5.247   1.214   2.076
 2563TIP3    H2 7696   5.243   1.194   2.227
 2564TIP3   OH2 7697   5.493   4.662   1.650
 2564TIP3    H1 7698   5.582   4.630   1.662
 2564TIP3    H2 7699   5.498   4.717   1.572
 2565TIP3   OH2 7700   1.259   4.984   3.933
 2565TIP3    H1 7701   1.322   5.023   3.993
 2565TIP3    H2 7702   1.264   4.890   3.952
 2566TIP3   OH2 7703   3.518   3.937   4.086
 2566TIP3    H1 7704   3.460   3.888   4.028
 2566TIP3    H2 7705   3.603   3.895   4.077
 2567TIP3   OH2 7706   3.113   0.752   2.409
 2567TIP3    H1 7707   3.084   0.699   2.335
 2567TIP3    H2 7708   3.042   0.746   2.473
 2568TIP3   OH2 7709   3.540   5.446   3.245
 2568TIP3    H1 7710   3.557   5.538   3.265
 2568TIP3    H2 7711   3.473   5.420   3.309
 2569TIP3   OH2 7712   1.772   0.714   2.398
 2569TIP3    H1 7713   1.807   0.634   2.357
 2569TIP3    H2 7714   1.679   0.695   2.412
 2570TIP3   OH2 7715   0.883   3.793   1.732
 2570TIP3    H1 7716   0.826   3.743   1.792
 2570TIP3    H2 7717   0.823   3.828   1.667
 2571TIP3   OH2 7718   6.257   4.268   3.381
 2571TIP3    H1 7719   6.190   4.324   3.419
 2571TIP3    H2 7720   6.277   4.308   3.296
 2572TIP3   OH2 7721   5.284   5.950   4.846
 2572TIP3    H1 7722   5.354   6.010   4.873
 2572TIP3    H2 7723   5.320   5.905   4.769
 2573TIP3   OH2 7724   4.847   2.333   4.382
 2573TIP3    H1 7725   4.888   2.247   4.369
 2573TIP3    H2 7726   4.916   2.396   4.360
 2574TIP3   OH2 7727   5.813   2.063   4.153
 2574TIP3    H1 7728   5.766   2.144   4.174
 2574TIP3    H2 7729   5.873   2.050   4.226
 2575TIP3   OH2 7730   4.703   5.964   4.091
 2575TIP3    H1 7731   4.620   5.993   4.128
 2575TIP3    H2 7732   4.679   5.910   4.015
 2576TIP3   OH2 7733   1.984   4.130   4.652
 2576TIP3    H1 7734   1.952   4.214   4.619
 2576TIP3    H2 7735   2.052   4.153   4.716
 2577TIP3   OH2 7736   3.314   4.272   3.627
 2577TIP3    H1 7737   3.242   4.210   3.609
 2577TIP3    H2 7738   3.387   4.239   3.576
 2578TIP3   OH2 7739   0.831   1.212   0.687
 2578TIP3    H1 7740   0.737   1.208   0.702
 2578TIP3    H2 7741   0.853   1.305   0.695
 2579TIP3   OH2 7742   4.270   2.287   2.481
 2579TIP3    H1 7743   4.286   2.364   2.427
 2579TIP3    H2 7744   4.357   2.254   2.503
 2580TIP3   OH2 7745   3.034   3.733   3.983
 2580TIP3    H1 7746   3.098   3.670   4.016
 2580TIP3    H2 7747   3.080   3.782   3.915
 2581TIP3   OH2 7748   0.910   4.770   1.055
 2581TIP3    H1 7749   0.827   4.775   1.102
 2581TIP3    H2 7750   0.918   4.854   1.011
 2582TIP3   OH2 7751   0.213   2.136   0.912
 2582TIP3    H1 7752   0.209   2.068   0.978
 2582TIP3    H2 7753   0.143   2.114   0.850
 2583TIP3   OH2 7754   2.018   5.772   4.989
 2583TIP3    H1 7755   2.103   5.739   5.018
 2583TIP3    H2 7756   2.039   5.840   4.925
 2584TIP3   OH2 7757   4.406   0.285   3.498
 2584TIP3    H1 7758   4.390   0.376   3.474
 2584TIP3    H2 7759   4.500   0.281   3.515
 2585TIP3   OH2 7760   2.542   1.408   2.840
 2585TIP3    H1 7761   2.507   1.319   2.845
 2585TIP3    H2 7762   2.480   1.455   2.784
 2586TIP3   OH2 7763   4.598   3.492   1.277
 2586TIP3    H1 7764   4.537   3.517   1.208
 2586TIP3    H2 7765   4.567   3.539   1.354
 2587TIP3   OH2 7766   0.167   0.214   1.626
 2587TIP3    H1 7767   0.201   0.264   1.552
 2587TIP3    H2 7768   0.128   0.280   1.684
 2588TIP3   OH2 7769   4.383   0.849   0.767
 2588TIP3    H1 7770   4.379   0.925   0.824
 2588TIP3    H2 7771   4.467   0.858   0.720
 2589TIP3   OH2 7772   6.137   2.887   4.293
 2589TIP3    H1 7773   6.157   2.798   4.265
 2589TIP3    H2 7774   6.042   2.896   4.280
 2590TIP3   OH2 7775   6.128   0.202   2.184
 2590TIP3    H1 7776   6.141   0.254   2.104
 2590TIP3    H2 7777   6.112   0.113   2.153
 2591TIP3   OH2 7778   6.001   5.594   1.615
 2591TIP3    H1 7779   6.040   5.677   1.587
 2591TIP3    H2 7780   5.908   5.615   1.629
 2592TIP3   OH2 7781   5.166   4.243   1.980
 2592TIP3    H1 7782   5.084   4.193   1.975
 2592TIP3    H2 7783   5.206   4.230   1.894
 2593TIP3   OH2 7784   3.181   0.339   0.994
 2593TIP3    H1 7785   3.244   0.375   0.933
 2593TIP3    H2 7786   3.109   0.307   0.938
 2594TIP3   OH2 7787   2.456   4.475   3.741
 2594TIP3    H1 7788   2.494   4.516   3.663
 2594TIP3    H2 7789   2.532   4.448   3.793
 2595TIP3   OH2 7790   1.674   3.580   4.475
 2595TIP3    H1 7791   1.767   3.592   4.457
 2595TIP3    H2 7792   1.668   3.576   4.571
 2596TIP3   OH2 7793   0.679   4.055   4.077
 2596TIP3    H1 7794   0.664   4.098   3.993
 2596TIP3    H2 7795   0.591   4.036   4.111
 2597TIP3   OH2 7796   0.375   1.353   3.324
 2597TIP3    H1 7797   0.394   1.264   3.352
 2597TIP3    H2 7798   0.321   1.343   3.245
 2598TIP3   OH2 7799   5.587   0.695   1.730
 2598TIP3    H1 7800   5.522   0.630   1.704
 2598TIP3    H2 7801   5.636   0.713   1.650
 2599TIP3   OH2 7802   1.124   0.370   4.849
 2599TIP3    H1 7803   1.087   0.344   4.934
 2599TIP3    H2 7804   1.049   0.377   4.791
 2600TIP3   OH2 7805   3.294   1.808   3.656
 2600TIP3    H1 7806   3.374   1.776   3.699
 2600TIP3    H2 7807   3.229   1.740   3.672
 2601TIP3   OH2 7808   0.308   0.778   0.941
 2601TIP3    H1 7809   0.219   0.779   0.978
 2601TIP3    H2 7810   0.304   0.712   0.872
 2602TIP3   OH2 7811   1.921   3.008   3.368
 2602TIP3    H1 7812   1.862   3.033   3.440
 2602TIP3    H2 7813   1.867   2.954   3.311
 2603TIP3   OH2 7814   6.184   3.541   1.250
 2603TIP3    H1 7815   6.227   3.463   1.284
 2603TIP3    H2 7816   6.101   3.510   1.213
 2604TIP3   OH2 7817   2.953   2.240   4.798
 2604TIP3    H1 7818   2.933   2.221   4.706
 2604TIP3    H2 7819   2.875   2.284   4.831
 2605TIP3   OH2 7820   0.422   3.684   4.006
 2605TIP3    H1 7821   0.424   3.641   4.091
 2605TIP3    H2 7822   0.514   3.695   3.982
 2606TIP3   OH2 7823   2.454   2.444   4.592
 2606TIP3    H1 7824   2.380   2.383   4.594
 2606TIP3    H2 7825   2.414   2.530   4.576
 2607TIP3   OH2 7826   2.114   0.786   1.358
 2607TIP3    H1 7827   2.028   0.761   1.326
 2607TIP3    H2 7828   2.104   0.877   1.387
 2608TIP3   OH2 7829   3.812   2.092   1.132
 2608TIP3    H1 7830   3.823   2.183   1.107
 2608TIP3    H2 7831   3.726   2.068   1.098
 2609TIP3   OH2 7832   5.088   5.094   2.279
 2609TIP3    H1 7833   5.171   5.053   2.254
 2609TIP3    H2 7834   5.052   5.037   2.347
 2610TIP3   OH2 7835   1.911   2.517   3.131
 2610TIP3    H1 7836   1.927   2.539   3.039
 2610TIP3    H2 7837   1.841   2.452   3.128
 2611TIP3   OH2 7838   2.145   2.449   1.579
 2611TIP3    H1 7839   2.137   2.537   1.544
 2611TIP3    H2 7840   2.097   2.453   1.662
 2612TIP3   OH2 7841   6.031   5.521   1.281
 2612TIP3    H1 7842   6.110   5.539   1.231
 2612TIP3    H2 7843   6.031   5.587   1.351
 2613TIP3   OH2 7844   3.241   2.875   2.603
 2613TIP3    H1 7845   3.181   2.949   2.611
 2613TIP3    H2 7846   3.261   2.850   2.694
 2614TIP3   OH2 7847   4.760   2.487   2.743
 2614TIP3    H1 7848   4.824   2.417   2.759
 2614TIP3    H2 7849   4.680   2.456   2.786
 2615TIP3   OH2 7850   2.952   2.623   2.889
 2615TIP3    H1 7851   2.888   2.552   2.888
 2615TIP3    H2 7852   2.967   2.643   2.797
 2616TIP3   OH2 7853   1.113   1.688   2.528
 2616TIP3    H1 7854   1.205   1.704   2.549
 2616TIP3    H2 7855   1.106   1.593   2.519
 2617TIP3   OH2 7856   0.220   1.234   2.260
 2617TIP3    H1 7857   0.252   1.283   2.336
 2617TIP3    H2 7858   0.257   1.147   2.271
 2618TIP3   OH2 7859   1.962   4.011   2.476
 2618TIP3    H1 7860   1.914   4.094   2.468
 2618TIP3    H2 7861   2.021   4.023   2.549
 2619TIP3   OH2 7862   4.072   0.552   1.117
 2619TIP3    H1 7863   4.021   0.616   1.068
 2619TIP3    H2 7864   4.021   0.471   1.112
 2620TIP3   OH2 7865   2.162   4.061   1.468
 2620TIP3    H1 7866   2.194   4.151   1.461
 2620TIP3    H2 7867   2.094   4.055   1.400
 2621TIP3   OH2 7868   0.448   5.821   5.062
 2621TIP3    H1 7869   0.532   5.834   5.106
 2621TIP3    H2 7870   0.444   5.727   5.046
 2622TIP3   OH2 7871   4.764   2.410   1.523
 2622TIP3    H1 7872   4.712   2.362   1.458
 2622TIP3    H2 7873   4.731   2.380   1.607
 2623TIP3   OH2 7874   5.477   5.534   2.271
 2623TIP3    H1 7875   5.507   5.513   2.182
 2623TIP3    H2 7876   5.389   5.496   2.276
 2624TIP3   OH2 7877   3.536   5.897   5.044
 2624TIP3    H1 7878   3.441   5.904   5.039
 2624TIP3    H2 7879   3.556   5.807   5.021
 2625TIP3   OH2 7880   1.508   4.379   4.916
 2625TIP3    H1 7881   1.451   4.386   4.993
 2625TIP3    H2 7882   1.591   4.346   4.951
 2626TIP3   OH2 7883   0.549   2.027   4.169
 2626TIP3    H1 7884   0.573   2.024   4.077
 2626TIP3    H2 7885   0.476   1.966   4.177
 2627TIP3   OH2 7886   4.341   4.578   1.436
 2627TIP3    H1 7887   4.257   4.532   1.428
 2627TIP3    H2 7888   4.406   4.515   1.406
 2628TIP3   OH2 7889   3.900   2.135   3.367
 2628TIP3    H1 7890   3.894   2.043   3.340
 2628TIP3    H2 7891   3.814   2.172   3.345
 2629TIP3   OH2 7892   2.921   2.937   0.952
 2629TIP3    H1 7893   2.990   2.932   0.886
 2629TIP3    H2 7894   2.878   3.021   0.935
 2630TIP3   OH2 7895   4.855   1.395   2.031
 2630TIP3    H1 7896   4.892   1.472   1.987
 2630TIP3    H2 7897   4.847   1.329   1.963
 2631TIP3   OH2 7898   3.907   0.437   0.941
 2631TIP3    H1 7899   3.974   0.445   0.874
 2631TIP3    H2 7900   3.838   0.385   0.900
 2632TIP3   OH2 7901   1.904   1.007   4.203
 2632TIP3    H1 7902   1.900   1.076   4.269
 2632TIP3    H2 7903   1.965   1.040   4.137
 2633TIP3   OH2 7904   6.182   1.050   5.206
 2633TIP3    H1 7905   6.115   1.110   5.238
 2633TIP3    H2 7906   6.187   1.068   5.112
 2634TIP3   OH2 7907   4.701   5.928   1.315
 2634TIP3    H1 7908   4.628   5.871   1.293
 2634TIP3    H2 7909   4.680   5.962   1.402
 2635TIP3   OH2 7910   3.443   1.004   3.441
 2635TIP3    H1 7911   3.366   0.958   3.476
 2635TIP3    H2 7912   3.455   0.966   3.354
 2636TIP3   OH2 7913   1.713   4.720   3.938
 2636TIP3    H1 7914   1.639   4.713   3.998
 2636TIP3    H2 7915   1.703   4.644   3.880
 2637TIP3   OH2 7916   3.919   5.330   2.606
 2637TIP3    H1 7917   3.920   5.409   2.659
 2637TIP3    H2 7918   3.835   5.288   2.628
 2638TIP3   OH2 7919   5.715   1.955   2.078
 2638TIP3    H1 7920   5.630   1.923   2.048
 2638TIP3    H2 7921   5.709   1.956   2.173
 2639TIP3   OH2 7922   2.704   5.598   3.173
 2639TIP3    H1 7923   2.679   5.523   3.119
 2639TIP3    H2 7924   2.683   5.571   3.263
 2640TIP3   OH2 7925   2.872   4.230   4.393
 2640TIP3    H1 7926   2.812   4.156   4.381
 2640TIP3    H2 7927   2.898   4.224   4.485
 2641TIP3   OH2 7928   2.773   2.442   4.106
 2641TIP3    H1 7929   2.787   2.536   4.113
 2641TIP3    H2 7930   2.858   2.403   4.124
 2642TIP3   OH2 7931   0.705   6.010   1.024
 2642TIP3    H1 7932   0.650   5.954   0.969
 2642TIP3    H2 7933   0.793   6.000   0.988
 2643TIP3   OH2 7934   4.615   5.035   3.588
 2643TIP3    H1 7935   4.662   5.103   3.540
 2643TIP3    H2 7936   4.684   4.986   3.634
 2644TIP3   OH2 7937   1.175   3.313   3.672
 2644TIP3    H1 7938   1.195   3.309   3.766
 2644TIP3    H2 7939   1.178   3.221   3.643
 2645TIP3   OH2 7940   1.121   0.582   1.367
 2645TIP3    H1 7941   1.057   0.633   1.317
 2645TIP3    H2 7942   1.188   0.558   1.302
 2646TIP3   OH2 7943   3.685   4.196   3.727
 2646TIP3    H1 7944   3.743   4.185   3.652
 2646TIP3    H2 7945   3.744   4.205   3.802
 2647TIP3   OH2 7946   3.101   1.854   4.086
 2647TIP3    H1 7947   3.194   1.830   4.081
 2647TIP3    H2 7948   3.101   1.949   4.073
 2648TIP3   OH2 7949   6.011   0.725   3.585
 2648TIP3    H1 7950   6.080   0.710   3.650
 2648TIP3    H2 7951   5.937   0.673   3.617
 2649TIP3   OH2 7952   3.586   1.092   1.675
 2649TIP3    H1 7953   3.493   1.114   1.682
 2649TIP3    H2 7954   3.588   1.013   1.620
 2650TIP3   OH2 7955   1.285   5.841   1.799
 2650TIP3    H1 7956   1.301   5.909   1.864
 2650TIP3    H2 7957   1.194   5.816   1.811
 2651TIP3   OH2 7958   4.286   5.862   2.908
 2651TIP3    H1 7959   4.372   5.902   2.923
 2651TIP3    H2 7960   4.224   5.928   2.937
 2652TIP3   OH2 7961   5.891   5.655   4.882
 2652TIP3    H1 7962   5.935   5.580   4.922
 2652TIP3    H2 7963   5.798   5.641   4.900
 2653TIP3   OH2 7964   6.106   1.677   1.497
 2653TIP3    H1 7965   6.170   1.610   1.472
 2653TIP3    H2 7966   6.021   1.634   1.488
 2654TIP3   OH2 7967   4.031   5.283   3.773
 2654TIP3    H1 7968   4.010   5.234   3.853
 2654TIP3    H2 7969   4.085   5.356   3.804
 2655TIP3   OH2 7970   4.784   3.466   0.476
 2655TIP3    H1 7971   4.696   3.440   0.503
 2655TIP3    H2 7972   4.771   3.525   0.402
 2656TIP3   OH2 7973   1.193   0.032   2.920
 2656TIP3    H1 7974   1.215  -0.004   2.834
 2656TIP3    H2 7975   1.119   0.090   2.904
 2657TIP3   OH2 7976   2.421   3.401   1.375
 2657TIP3    H1 7977   2.349   3.443   1.327
 2657TIP3    H2 7978   2.499   3.448   1.346
 2658TIP3   OH2 7979   5.211   4.259   5.126
 2658TIP3    H1 7980   5.153   4.335   5.132
 2658TIP3    H2 7981   5.163   4.197   5.071
 2659TIP3   OH2 7982   4.836   3.273   4.150
 2659TIP3    H1 7983   4.926   3.293   4.175
 2659TIP3    H2 7984   4.798   3.357   4.127
 2660TIP3   OH2 7985   3.405   4.949   3.313
 2660TIP3    H1 7986   3.381   5.001   3.236
 2660TIP3    H2 7987   3.323   4.940   3.362
 2661TIP3   OH2 7988   1.791   5.579   0.559
 2661TIP3    H1 7989   1.783   5.573   0.654
 2661TIP3    H2 7990   1.759   5.667   0.538
 2662TIP3   OH2 7991   4.799   5.082   0.347
 2662TIP3    H1 7992   4.711   5.076   0.310
 2662TIP3    H2 7993   4.795   5.030   0.427
 2663TIP3   OH2 7994   0.102   5.606   3.087
 2663TIP3    H1 7995   0.040   5.597   3.015
 2663TIP3    H2 7996   0.062   5.556   3.159
 2664TIP3   OH2 7997   2.391   2.635   4.175
 2664TIP3    H1 7998   2.454   2.706   4.162
 2664TIP3    H2 7999   2.439   2.568   4.224
 2665TIP3   OH2 8000   5.035   0.707   1.149
 2665TIP3    H1 8001   4.952   0.674   1.114
 2665TIP3    H2 8002   5.022   0.801   1.157
 2666TIP3   OH2 8003   5.727   1.354   1.900
 2666TIP3    H1 8004   5.754   1.263   1.908
 2666TIP3    H2 8005   5.759   1.396   1.980
 2667TIP3   OH2 8006   4.168   5.818   2.232
 2667TIP3    H1 8007   4.110   5.856   2.166
 2667TIP3    H2 8008   4.196   5.735   2.194
 2668TIP3   OH2 8009   2.428   2.980   0.556
 2668TIP3    H1 8010   2.465   2.897   0.527
 2668TIP3    H2 8011   2.468   2.995   0.641
 2669TIP3   OH2 8012   4.014   3.213   0.263
 2669TIP3    H1 8013   4.009   3.308   0.267
 2669TIP3    H2 8014   4.104   3.194   0.238
 2670TIP3   OH2 8015   0.922   5.613   4.443
 2670TIP3    H1 8016   0.929   5.706   4.462
 2670TIP3    H2 8017   1.012   5.582   4.439
 2671TIP3   OH2 8018   4.310   0.023   5.117
 2671TIP3    H1 8019   4.336  -0.014   5.032
 2671TIP3    H2 8020   4.393   0.041   5.162
 2672TIP3   OH2 8021   4.149   5.048   0.597
 2672TIP3    H1 8022   4.242   5.053   0.619
 2672TIP3    H2 8023   4.105   5.090   0.671
 2673TIP3   OH2 8024   6.009   3.571   1.601
 2673TIP3    H1 8025   5.921   3.607   1.594
 2673TIP3    H2 8026   6.011   3.500   1.537
 2674TIP3   OH2 8027   1.799   2.368   4.241
 2674TIP3    H1 8028   1.714   2.345   4.277
 2674TIP3    H2 8029   1.791   2.461   4.219
 2675TIP3   OH2 8030   4.332   2.304   1.272
 2675TIP3    H1 8031   4.310   2.292   1.364
 2675TIP3    H2 8032   4.277   2.240   1.226
 2676TIP3   OH2 8033   5.083   1.229   2.324
 2676TIP3    H1 8034   5.073   1.312   2.371
 2676TIP3    H2 8035   5.041   1.164   2.382
 2677TIP3   OH2 8036   1.507   2.908   1.391
 2677TIP3    H1 8037   1.575   2.881   1.453
 2677TIP3    H2 8038   1.509   2.842   1.322
 2678TIP3   OH2 8039   2.509   5.643   1.890
 2678TIP3    H1 8040   2.438   5.614   1.833
 2678TIP3    H2 8041   2.530   5.567   1.944
 2679TIP3   OH2 8042   4.012   5.574   0.476
 2679TIP3    H1 8043   4.080   5.597   0.412
 2679TIP3    H2 8044   4.033   5.485   0.503
 2680TIP3   OH2 8045   6.013   2.204   2.652
 2680TIP3    H1 8046   5.938   2.244   2.608
 2680TIP3    H2 8047   5.983   2.117   2.678
 2681TIP3   OH2 8048   1.393   4.232   1.626
 2681TIP3    H1 8049   1.307   4.229   1.668
 2681TIP3    H2 8050   1.413   4.141   1.606
 2682TIP3   OH2 8051   0.828   2.726   0.447
 2682TIP3    H1 8052   0.763   2.789   0.477
 2682TIP3    H2 8053   0.842   2.747   0.355
 2683TIP3   OH2 8054   4.886   2.538   4.987
 2683TIP3    H1 8055   4.940   2.529   5.066
 2683TIP3    H2 8056   4.942   2.586   4.926
 2684TIP3   OH2 8057   4.248   0.693   2.726
 2684TIP3    H1 8058   4.190   0.726   2.795
 2684TIP3    H2 8059   4.330   0.673   2.771
 2685TIP3   OH2 8060   2.074   1.464   3.023
 2685TIP3    H1 8061   2.019   1.411   3.080
 2685TIP3    H2 8062   2.164   1.434   3.040
 2686TIP3   OH2 8063   1.567   0.633   5.142
 2686TIP3    H1 8064   1.604   0.570   5.204
 2686TIP3    H2 8065   1.503   0.683   5.193
 2687TIP3   OH2 8066   5.536   3.348   4.108
 2687TIP3    H1 8067   5.501   3.405   4.177
 2687TIP3    H2 8068   5.464   3.337   4.047
 2688TIP3   OH2 8069   3.404   2.332   2.847
 2688TIP3    H1 8070   3.464   2.333   2.921
 2688TIP3    H2 8071   3.322   2.298   2.883
 2689TIP3   OH2 8072   4.654   1.731   3.361
 2689TIP3    H1 8073   4.630   1.697   3.447
 2689TIP3    H2 8074   4.628   1.662   3.300
 2690TIP3   OH2 8075   5.106   5.161   0.482
 2690TIP3    H1 8076   5.061   5.227   0.430
 2690TIP3    H2 8077   5.141   5.099   0.417
 2691TIP3   OH2 8078   2.478   3.579   4.008
 2691TIP3    H1 8079   2.481   3.493   3.967
 2691TIP3    H2 8080   2.499   3.640   3.937
 2692TIP3   OH2 8081   3.766   2.134   4.219
 2692TIP3    H1 8082   3.828   2.111   4.289
 2692TIP3    H2 8083   3.796   2.220   4.188
 2693TIP3   OH2 8084   1.536   1.946   0.302
 2693TIP3    H1 8085   1.522   2.012   0.234
 2693TIP3    H2 8086   1.498   1.984   0.381
 2694TIP3   OH2 8087   4.136   3.375   0.023
 2694TIP3    H1 8088   4.188   3.320   0.081
 2694TIP3    H2 8089   4.110   3.317  -0.049
 2695TIP3   OH2 8090   5.163   1.766   4.778
 2695TIP3    H1 8091   5.247   1.740   4.741
 2695TIP3    H2 8092   5.155   1.716   4.859
 2696TIP3   OH2 8093   0.906   3.799   2.698
 2696TIP3    H1 8094   0.870   3.779   2.785
 2696TIP3    H2 8095   0.993   3.761   2.699
 2697TIP3   OH2 8096   0.661   4.811   0.914
 2697TIP3    H1 8097   0.587   4.814   0.855
 2697TIP3    H2 8098   0.622   4.801   1.001
 2698TIP3   OH2 8099   1.739   3.343   0.442
 2698TIP3    H1 8100   1.756   3.395   0.363
 2698TIP3    H2 8101   1.762   3.254   0.418
 2699TIP3   OH2 8102   1.397   1.696   2.224
 2699TIP3    H1 8103   1.481   1.661   2.255
 2699TIP3    H2 8104   1.374   1.639   2.150
 2700TIP3   OH2 8105   4.296   3.723   3.465
 2700TIP3    H1 8106   4.280   3.629   3.465
 2700TIP3    H2 8107   4.230   3.759   3.525
 2701TIP3   OH2 8108   5.749   4.040   3.272
 2701TIP3    H1 8109   5.754   4.136   3.271
 2701TIP3    H2 8110   5.722   4.019   3.362
 2702TIP3   OH2 8111   3.150   5.675   2.422
 2702TIP3    H1 8112   3.084   5.617   2.384
 2702TIP3    H2 8113   3.158   5.747   2.359
 2703TIP3   OH2 8114   0.156   4.525   2.970
 2703TIP3    H1 8115   0.136   4.483   2.886
 2703TIP3    H2 8116   0.176   4.615   2.947
 2704TIP3   OH2 8117   2.767   1.528   5.136
 2704TIP3    H1 8118   2.731   1.616   5.149
 2704TIP3    H2 8119   2.690   1.472   5.129
 2705TIP3   OH2 8120   1.787   1.830   0.494
 2705TIP3    H1 8121   1.697   1.861   0.502
 2705TIP3    H2 8122   1.782   1.737   0.515
 2706TIP3   OH2 8123   6.315   3.535   2.760
 2706TIP3    H1 8124   6.385   3.504   2.818
 2706TIP3    H2 8125   6.339   3.625   2.739
 2707TIP3   OH2 8126   4.761   4.933   5.060
 2707TIP3    H1 8127   4.824   4.865   5.036
 2707TIP3    H2 8128   4.813   4.999   5.106
 2708TIP3   OH2 8129   5.943   3.204   3.414
 2708TIP3    H1 8130   5.908   3.116   3.424
 2708TIP3    H2 8131   5.905   3.254   3.485
 2709TIP3   OH2 8132   1.481   0.997   4.192
 2709TIP3    H1 8133   1.482   1.061   4.264
 2709TIP3    H2 8134   1.489   0.912   4.236
 2710TIP3   OH2 8135   0.562   5.233   4.068
 2710TIP3    H1 8136   0.603   5.163   4.119
 2710TIP3    H2 8137   0.520   5.188   3.995
 2711TIP3   OH2 8138   1.020   3.368   4.790
 2711TIP3    H1 8139   1.028   3.416   4.873
 2711TIP3    H2 8140   1.040   3.278   4.813
 2712TIP3   OH2 8141   1.396   1.027   4.839
 2712TIP3    H1 8142   1.438   1.079   4.771
 2712TIP3    H2 8143   1.455   1.034   4.914
 2713TIP3   OH2 8144   5.323   0.937   2.857
 2713TIP3    H1 8145   5.342   0.863   2.799
 2713TIP3    H2 8146   5.371   0.918   2.937
 2714TIP3   OH2 8147   1.805   2.242   0.342
 2714TIP3    H1 8148   1.767   2.279   0.422
 2714TIP3    H2 8149   1.732   2.237   0.281
 2715TIP3   OH2 8150   3.040   5.251   4.569
 2715TIP3    H1 8151   3.013   5.160   4.582
 2715TIP3    H2 8152   3.111   5.265   4.631
 2716TIP3   OH2 8153   2.651   1.168   5.044
 2716TIP3    H1 8154   2.611   1.159   5.131
 2716TIP3    H2 8155   2.608   1.245   5.006
 2717TIP3   OH2 8156   2.923   2.402   3.781
 2717TIP3    H1 8157   2.881   2.317   3.775
 2717TIP3    H2 8158   2.854   2.465   3.760
 2718TIP3   OH2 8159   1.999   1.222   1.571
 2718TIP3    H1 8160   2.032   1.312   1.579
 2718TIP3    H2 8161   1.904   1.232   1.573
 2719TIP3   OH2 8162   5.697   4.968   1.529
 2719TIP3    H1 8163   5.634   4.905   1.493
 2719TIP3    H2 8164   5.689   5.045   1.473
 2720TIP3   OH2 8165   5.320   5.564   1.145
 2720TIP3    H1 8166   5.304   5.472   1.168
 2720TIP3    H2 8167   5.269   5.579   1.066
 2721TIP3   OH2 8168   3.848   4.654   4.355
 2721TIP3    H1 8169   3.851   4.747   4.334
 2721TIP3    H2 8170   3.932   4.620   4.323
 2722TIP3   OH2 8171   4.562   1.693   3.637
 2722TIP3    H1 8172   4.556   1.612   3.686
 2722TIP3    H2 8173   4.471   1.721   3.625
 2723TIP3   OH2 8174   2.708   2.310   1.638
 2723TIP3    H1 8175   2.642   2.340   1.700
 2723TIP3    H2 8176   2.676   2.339   1.553
 2724TIP3   OH2 8177   2.485   2.957   1.446
 2724TIP3    H1 8178   2.415   2.977   1.384
 2724TIP3    H2 8179   2.473   3.019   1.517
 2725TIP3   OH2 8180   4.301   3.319   2.109
 2725TIP3    H1 8181   4.221   3.372   2.115
 2725TIP3    H2 8182   4.338   3.323   2.197
 2726TIP3   OH2 8183   3.430   3.175   3.552
 2726TIP3    H1 8184   3.509   3.122   3.548
 2726TIP3    H2 8185   3.460   3.262   3.579
 2727TIP3   OH2 8186   0.622   0.459   4.736
 2727TIP3    H1 8187   0.540   0.464   4.785
 2727TIP3    H2 8188   0.669   0.386   4.776
 2728TIP3   OH2 8189   1.350   5.603   0.206
 2728TIP3    H1 8190   1.424   5.630   0.151
 2728TIP3    H2 8191   1.300   5.544   0.149
 2729TIP3   OH2 8192   6.311   4.133   0.309
 2729TIP3    H1 8193   6.323   4.227   0.296
 2729TIP3    H2 8194   6.283   4.101   0.223
 2730TIP3   OH2 8195   3.815   3.566   2.325
 2730TIP3    H1 8196   3.830   3.592   2.416
 2730TIP3    H2 8197   3.801   3.649   2.279
 2731TIP3   OH2 8198   3.793   4.354   4.363
 2731TIP3    H1 8199   3.787   4.449   4.350
 2731TIP3    H2 8200   3.749   4.338   4.447
 2732TIP3   OH2 8201   3.924   0.984   2.390
 2732TIP3    H1 8202   3.880   1.067   2.369
 2732TIP3    H2 8203   3.937   0.987   2.484
 2733TIP3   OH2 8204   2.007   4.814   0.431
 2733TIP3    H1 8205   2.018   4.899   0.388
 2733TIP3    H2 8206   2.061   4.820   0.510
 2734TIP3   OH2 8207   1.333   2.556   4.123
 2734TIP3    H1 8208   1.400   2.574   4.190
 2734TIP3    H2 8209   1.319   2.462   4.128
 2735TIP3   OH2 8210   0.245   5.350   5.087
 2735TIP3    H1 8211   0.184   5.409   5.042
 2735TIP3    H2 8212   0.324   5.352   5.034
 2736TIP3   OH2 8213   3.925   1.702   0.223
 2736TIP3    H1 8214   3.881   1.773   0.270
 2736TIP3    H2 8215   3.856   1.663   0.169
 2737TIP3   OH2 8216   1.235   3.044   3.617
 2737TIP3    H1 8217   1.252   2.994   3.697
 2737TIP3    H2 8218   1.322   3.068   3.585
 2738TIP3   OH2 8219   0.736   5.290   4.874
 2738TIP3    H1 8220   0.831   5.296   4.879
 2738TIP3    H2 8221   0.719   5.245   4.791
 2739TIP3   OH2 8222   3.478   3.147   3.044
 2739TIP3    H1 8223   3.526   3.082   3.095
 2739TIP3    H2 8224   3.518   3.143   2.957
 2740TIP3   OH2 8225   5.025   2.045   2.744
 2740TIP3    H1 8226   5.075   1.981   2.796
 2740TIP3    H2 8227   5.079   2.060   2.666
 2741TIP3   OH2 8228   4.354   3.042   3.423
 2741TIP3    H1 8229   4.323   3.131   3.413
 2741TIP3    H2 8230   4.449   3.051   3.437
 2742TIP3   OH2 8231   2.513   5.777   3.618
 2742TIP3    H1 8232   2.509   5.830   3.698
 2742TIP3    H2 8233   2.436   5.721   3.623
 2743TIP3   OH2 8234   4.746   1.587   1.234
 2743TIP3    H1 8235   4.822   1.529   1.240
 2743TIP3    H2 8236   4.763   1.642   1.158
 2744TIP3   OH2 8237   3.108   0.280   2.301
 2744TIP3    H1 8238   3.130   0.195   2.340
 2744TIP3    H2 8239   3.013   0.275   2.286
 2745TIP3   OH2 8240   1.127   5.400   1.883
 2745TIP3    H1 8241   1.149   5.430   1.795
 2745TIP3    H2 8242   1.145   5.306   1.882
 2746TIP3   OH2 8243   2.775   2.691   0.612
 2746TIP3    H1 8244   2.684   2.721   0.608
 2746TIP3    H2 8245   2.791   2.650   0.527
 2747TIP3   OH2 8246   1.377   0.220   4.312
 2747TIP3    H1 8247   1.406   0.256   4.396
 2747TIP3    H2 8248   1.436   0.259   4.248
 2748TIP3   OH2 8249   4.818   5.854   3.683
 2748TIP3    H1 8250   4.854   5.929   3.731
 2748TIP3    H2 8251   4.781   5.798   3.751
 2749TIP3   OH2 8252   3.185   1.299   2.444
 2749TIP3    H1 8253   3.133   1.245   2.384
 2749TIP3    H2 8254   3.152   1.277   2.531
 2750TIP3   OH2 8255   5.745   1.215   1.319
 2750TIP3    H1 8256   5.652   1.234   1.329
 2750TIP3    H2 8257   5.788   1.299   1.336
 2751TIP3   OH2 8258   1.047   2.257   3.105
 2751TIP3    H1 8259   1.050   2.257   3.009
 2751TIP3    H2 8260   1.103   2.185   3.131
 2752TIP3   OH2 8261   2.126   0.118   2.337
 2752TIP3    H1 8262   2.095   0.154   2.420
 2752TIP3    H2 8263   2.062   0.148   2.272
 2753TIP3   OH2 8264   4.964   5.457   1.412
 2753TIP3    H1 8265   4.943   5.540   1.369
 2753TIP3    H2 8266   4.916   5.461   1.495
 2754TIP3   OH2 8267   3.260   0.654   0.252
 2754TIP3    H1 8268   3.182   0.701   0.284
 2754TIP3    H2 8269   3.333   0.710   0.276
 2755TIP3   OH2 8270   0.681   1.513   1.289
 2755TIP3    H1 8271   0.680   1.562   1.207
 2755TIP3    H2 8272   0.771   1.484   1.300
 2756TIP3   OH2 8273   0.038   3.929   3.623
 2756TIP3    H1 8274   0.087   4.008   3.602
 2756TIP3    H2 8275   0.085   3.892   3.698
 2757TIP3   OH2 8276   1.908   5.215   1.485
 2757TIP3    H1 8277   1.891   5.251   1.398
 2757TIP3    H2 8278   1.960   5.282   1.529
 2758TIP3   OH2 8279   4.132   4.222   2.201
 2758TIP3    H1 8280   4.097   4.152   2.145
 2758TIP3    H2 8281   4.227   4.213   2.195
 2759TIP3   OH2 8282   2.420   4.724   2.875
 2759TIP3    H1 8283   2.463   4.789   2.819
 2759TIP3    H2 8284   2.348   4.690   2.822
 2760TIP3   OH2 8285   5.381   3.207   2.929
 2760TIP3    H1 8286   5.305   3.226   2.984
 2760TIP3    H2 8287   5.452   3.257   2.969
 2761TIP3   OH2 8288   2.557   2.013   3.676
 2761TIP3    H1 8289   2.597   1.933   3.710
 2761TIP3    H2 8290   2.539   1.994   3.584
 2762TIP3   OH2 8291   6.175   2.813   2.854
 2762TIP3    H1 8292   6.234   2.787   2.924
 2762TIP3    H2 8293   6.230   2.814   2.776
 2763TIP3   OH2 8294   2.390   1.553   2.634
 2763TIP3    H1 8295   2.387   1.478   2.574
 2763TIP3    H2 8296   2.300   1.584   2.639
 2764TIP3   OH2 8297   6.101   4.904   4.961
 2764TIP3    H1 8298   6.041   4.951   5.018
 2764TIP3    H2 8299   6.162   4.970   4.929
 2765TIP3   OH2 8300   1.420   2.649   3.053
 2765TIP3    H1 8301   1.363   2.586   3.098
 2765TIP3    H2 8302   1.360   2.701   3.000
 2766TIP3   OH2 8303   3.436   2.453   4.911
 2766TIP3    H1 8304   3.514   2.474   4.860
 2766TIP3    H2 8305   3.373   2.421   4.846
 2767TIP3   OH2 8306   5.006   1.539   3.605
 2767TIP3    H1 8307   5.018   1.602   3.534
 2767TIP3    H2 8308   5.085   1.549   3.659
 2768TIP3   OH2 8309   0.097   0.779   2.218
 2768TIP3    H1 8310   0.113   0.708   2.280
 2768TIP3    H2 8311   0.147   0.755   2.140
 2769TIP3   OH2 8312   4.456   5.813   4.833
 2769TIP3    H1 8313   4.486   5.900   4.805
 2769TIP3    H2 8314   4.505   5.752   4.779
 2770TIP3   OH2 8315   6.314   4.615   1.288
 2770TIP3    H1 8316   6.268   4.616   1.372
 2770TIP3    H2 8317   6.268   4.550   1.236
 2771TIP3   OH2 8318   5.337   5.244   0.885
 2771TIP3    H1 8319   5.267   5.296   0.845
 2771TIP3    H2 8320   5.292   5.189   0.950
 2772TIP3   OH2 8321   1.770   1.479   3.129
 2772TIP3    H1 8322   1.746   1.477   3.037
 2772TIP3    H2 8323   1.794   1.388   3.150
 2773TIP3   OH2 8324   6.132   5.226   0.152
 2773TIP3    H1 8325   6.206   5.179   0.190
 2773TIP3    H2 8326   6.096   5.167   0.086
 2774TIP3   OH2 8327   3.682   1.978   1.805
 2774TIP3    H1 8328   3.701   2.063   1.765
 2774TIP3    H2 8329   3.611   1.996   1.866
 2775TIP3   OH2 8330   2.824   3.297   0.017
 2775TIP3    H1 8331   2.788   3.227   0.071
 2775TIP3    H2 8332   2.909   3.317   0.058
 2776TIP3   OH2 8333   4.946   1.723   3.398
 2776TIP3    H1 8334   4.947   1.808   3.441
 2776TIP3    H2 8335   4.853   1.703   3.388
 2777TIP3   OH2 8336   0.442   2.730   0.197
 2777TIP3    H1 8337   0.450   2.822   0.223
 2777TIP3    H2 8338   0.380   2.693   0.259
 2778TIP3   OH2 8339   3.311   5.231   5.136
 2778TIP3    H1 8340   3.244   5.258   5.073
 2778TIP3    H2 8341   3.325   5.138   5.118
 2779TIP3   OH2 8342   2.531   0.796   3.526
 2779TIP3    H1 8343   2.506   0.729   3.462
 2779TIP3    H2 8344   2.597   0.848   3.481
 2780TIP3   OH2 8345   3.831   4.916   4.271
 2780TIP3    H1 8346   3.757   4.953   4.223
 2780TIP3    H2 8347   3.907   4.935   4.216
 2781TIP3   OH2 8348   3.751   3.844   0.464
 2781TIP3    H1 8349   3.707   3.767   0.431
 2781TIP3    H2 8350   3.707   3.863   0.547
 2782TIP3   OH2 8351   3.584   5.238   2.382
 2782TIP3    H1 8352   3.620   5.232   2.470
 2782TIP3    H2 8353   3.521   5.310   2.386
 2783TIP3   OH2 8354   0.743   0.948   1.029
 2783TIP3    H1 8355   0.834   0.954   0.999
 2783TIP3    H2 8356   0.711   0.866   0.990
 2784TIP3   OH2 8357   0.874   3.608   3.438
 2784TIP3    H1 8358   0.958   3.587   3.478
 2784TIP3    H2 8359   0.866   3.702   3.446
 2785TIP3   OH2 8360   0.629   0.760   4.907
 2785TIP3    H1 8361   0.701   0.780   4.847
 2785TIP3    H2 8362   0.671   0.749   4.992
 2786TIP3   OH2 8363   6.285   2.674   1.813
 2786TIP3    H1 8364   6.373   2.711   1.815
 2786TIP3    H2 8365   6.283   2.620   1.734
 2787TIP3   OH2 8366   2.519   2.126   2.302
 2787TIP3    H1 8367   2.597   2.181   2.302
 2787TIP3    H2 8368   2.539   2.055   2.364
 2788TIP3   OH2 8369   1.989   2.064   2.452
 2788TIP3    H1 8370   1.947   2.136   2.405
 2788TIP3    H2 8371   1.999   1.995   2.386
 2789TIP3   OH2 8372   0.629   4.573   3.529
 2789TIP3    H1 8373   0.649   4.666   3.540
 2789TIP3    H2 8374   0.684   4.544   3.457
 2790TIP3   OH2 8375   4.739   4.704   1.641
 2790TIP3    H1 8376   4.644   4.700   1.645
 2790TIP3    H2 8377   4.763   4.640   1.575
 2791TIP3   OH2 8378   4.928   1.324   4.349
 2791TIP3    H1 8379   5.020   1.297   4.356
 2791TIP3    H2 8380   4.926   1.379   4.270
 2792TIP3   OH2 8381   5.319   5.491   2.631
 2792TIP3    H1 8382   5.379   5.459   2.565
 2792TIP3    H2 8383   5.375   5.528   2.700
 2793TIP3   OH2 8384   6.105   4.609   4.983
 2793TIP3    H1 8385   6.070   4.697   4.975
 2793TIP3    H2 8386   6.097   4.572   4.895
 2794TIP3   OH2 8387   3.161   0.175   1.519
 2794TIP3    H1 8388   3.212   0.100   1.488
 2794TIP3    H2 8389   3.211   0.251   1.488
 2795TIP3   OH2 8390   0.647   5.873   3.887
 2795TIP3    H1 8391   0.660   5.956   3.841
 2795TIP3    H2 8392   0.705   5.811   3.842
 2796TIP3   OH2 8393   3.953   0.364   4.511
 2796TIP3    H1 8394   3.881   0.310   4.544
 2796TIP3    H2 8395   3.910   0.438   4.469
 2797TIP3   OH2 8396   6.305   2.549   5.123
 2797TIP3    H1 8397   6.365   2.619   5.094
 2797TIP3    H2 8398   6.221   2.593   5.133
 2798TIP3   OH2 8399   0.350   1.483   2.670
 2798TIP3    H1 8400   0.326   1.508   2.581
 2798TIP3    H2 8401   0.327   1.390   2.675
 2799TIP3   OH2 8402   4.789   4.924   4.198
 2799TIP3    H1 8403   4.730   4.870   4.146
 2799TIP3    H2 8404   4.736   4.949   4.275
 2800TIP3   OH2 8405   1.754   0.428   4.683
 2800TIP3    H1 8406   1.682   0.480   4.646
 2800TIP3    H2 8407   1.774   0.472   4.765
 2801TIP3   OH2 8408   4.179   5.420   2.994
 2801TIP3    H1 8409   4.226   5.495   3.033
 2801TIP3    H2 8410   4.174   5.441   2.901
 2802TIP3   OH2 8411   4.150   2.532   3.881
 2802TIP3    H1 8412   4.151   2.437   3.874
 2802TIP3    H2 8413   4.073   2.559   3.830
 2803TIP3   OH2 8414   4.243   4.665   0.284
 2803TIP3    H1 8415   4.292   4.716   0.349
 2803TIP3    H2 8416   4.301   4.661   0.208
 2804TIP3   OH2 8417   1.841   0.937   1.012
 2804TIP3    H1 8418   1.867   0.997   0.942
 2804TIP3    H2 8419   1.764   0.979   1.052
 2805TIP3   OH2 8420   5.245   0.422   2.988
 2805TIP3    H1 8421   5.232   0.327   2.991
 2805TIP3    H2 8422   5.157   0.458   2.985
 2806TIP3   OH2 8423   2.861   5.905   1.437
 2806TIP3    H1 8424   2.930   5.857   1.391
 2806TIP3    H2 8425   2.820   5.841   1.494
 2807TIP3   OH2 8426   0.028   4.207   1.186
 2807TIP3    H1 8427   0.112   4.238   1.153
 2807TIP3    H2 8428  -0.035   4.274   1.159
 2808TIP3   OH2 8429   2.249   3.862   3.459
 2808TIP3    H1 8430   2.215   3.874   3.548
 2808TIP3    H2 8431   2.233   3.770   3.440
 2809TIP3   OH2 8432   5.070   2.121   2.082
 2809TIP3    H1 8433   5.031   2.188   2.138
 2809TIP3    H2 8434   5.162   2.146   2.074
 2810TIP3   OH2 8435   5.454   5.166   3.675
 2810TIP3    H1 8436   5.479   5.251   3.712
 2810TIP3    H2 8437   5.520   5.105   3.708
 2811TIP3   OH2 8438   1.417   4.778   1.492
 2811TIP3    H1 8439   1.391   4.687   1.483
 2811TIP3    H2 8440   1.408   4.815   1.404
 2812TIP3   OH2 8441   5.881   3.962   1.780
 2812TIP3    H1 8442   5.804   3.958   1.723
 2812TIP3    H2 8443   5.940   3.896   1.745
 2813TIP3   OH2 8444   2.537   5.571   0.387
 2813TIP3    H1 8445   2.496   5.654   0.362
 2813TIP3    H2 8446   2.594   5.594   0.461
 2814TIP3   OH2 8447   2.911   4.259   1.948
 2814TIP3    H1 8448   2.965   4.333   1.922
 2814TIP3    H2 8449   2.834   4.265   1.891
 2815TIP3   OH2 8450   3.404   5.741   3.090
 2815TIP3    H1 8451   3.389   5.835   3.087
 2815TIP3    H2 8452   3.432   5.724   3.180
 2816TIP3   OH2 8453   4.425   2.599   3.255
 2816TIP3    H1 8454   4.460   2.551   3.330
 2816TIP3    H2 8455   4.343   2.637   3.287
 2817TIP3   OH2 8456   6.044   4.121   0.846
 2817TIP3    H1 8457   6.007   4.083   0.766
 2817TIP3    H2 8458   5.994   4.201   0.860
 2818TIP3   OH2 8459   2.486   2.023   1.869
 2818TIP3    H1 8460   2.469   2.038   1.776
 2818TIP3    H2 8461   2.430   2.086   1.915
 2819TIP3   OH2 8462   3.474   0.920   4.125
 2819TIP3    H1 8463   3.486   0.830   4.154
 2819TIP3    H2 8464   3.468   0.971   4.206
 2820TIP3   OH2 8465   3.986   1.908   3.619
 2820TIP3    H1 8466   4.005   1.906   3.713
 2820TIP3    H2 8467   3.983   2.001   3.597
 2821TIP3   OH2 8468   4.570   5.650   3.199
 2821TIP3    H1 8469   4.633   5.579   3.194
 2821TIP3    H2 8470   4.616   5.719   3.248
 2822TIP3   OH2 8471   1.667   0.485   0.141
 2822TIP3    H1 8472   1.593   0.465   0.084
 2822TIP3    H2 8473   1.653   0.430   0.218
 2823TIP3   OH2 8474   2.301   4.256   2.536
 2823TIP3    H1 8475   2.380   4.297   2.502
 2823TIP3    H2 8476   2.248   4.328   2.569
 2824TIP3   OH2 8477   5.583   5.285   1.116
 2824TIP3    H1 8478   5.503   5.281   1.064
 2824TIP3    H2 8479   5.593   5.377   1.138
 2825TIP3   OH2 8480   5.266   2.617   3.804
 2825TIP3    H1 8481   5.240   2.577   3.887
 2825TIP3    H2 8482   5.257   2.711   3.819
 2826TIP3   OH2 8483   0.116   0.489   1.255
 2826TIP3    H1 8484   0.163   0.407   1.264
 2826TIP3    H2 8485   0.165   0.552   1.308
 2827TIP3   OH2 8486   2.470   0.702   1.457
 2827TIP3    H1 8487   2.423   0.750   1.526
 2827TIP3    H2 8488   2.420   0.721   1.377
 2828TIP3   OH2 8489   5.551   2.942   3.114
 2828TIP3    H1 8490   5.538   3.025   3.160
 2828TIP3    H2 8491   5.500   2.878   3.164
 2829TIP3   OH2 8492   4.408   4.918   4.734
 2829TIP3    H1 8493   4.471   4.871   4.789
 2829TIP3    H2 8494   4.327   4.919   4.785
 2830TIP3   OH2 8495   4.472   3.979   4.462
 2830TIP3    H1 8496   4.377   3.978   4.477
 2830TIP3    H2 8497   4.509   4.019   4.541
 2831TIP3   OH2 8498   4.444   2.178   0.782
 2831TIP3    H1 8499   4.538   2.165   0.797
 2831TIP3    H2 8500   4.438   2.206   0.691
 2832TIP3   OH2 8501   5.079   3.806   3.708
 2832TIP3    H1 8502   5.157   3.861   3.707
 2832TIP3    H2 8503   5.006   3.867   3.722
 2833TIP3   OH2 8504   6.286   2.943   3.171
 2833TIP3    H1 8505   6.279   3.017   3.232
 2833TIP3    H2 8506   6.197   2.907   3.168
 2834TIP3   OH2 8507   0.939   0.071   1.638
 2834TIP3    H1 8508   1.027   0.038   1.658
 2834TIP3    H2 8509   0.881   0.018   1.691
 2835TIP3   OH2 8510   2.553   5.583   1.389
 2835TIP3    H1 8511   2.579   5.652   1.328
 2835TIP3    H2 8512   2.464   5.607   1.416
 2836TIP3   OH2 8513   3.784   5.355   1.136
 2836TIP3    H1 8514   3.754   5.443   1.158
 2836TIP3    H2 8515   3.849   5.368   1.067
 2837TIP3   OH2 8516   3.785   1.299   4.728
 2837TIP3    H1 8517   3.854   1.341   4.678
 2837TIP3    H2 8518   3.827   1.275   4.811
 2838TIP3   OH2 8519   2.789   0.038   4.793
 2838TIP3    H1 8520   2.825   0.082   4.716
 2838TIP3    H2 8521   2.755  -0.044   4.759
 2839TIP3   OH2 8522   1.975   4.046   3.764
 2839TIP3    H1 8523   1.916   3.974   3.788
 2839TIP3    H2 8524   2.062   4.007   3.768
 2840TIP3   OH2 8525   6.047   3.714   1.857
 2840TIP3    H1 8526   6.001   3.649   1.910
 2840TIP3    H2 8527   6.084   3.664   1.785
 2841TIP3   OH2 8528   6.003   3.062   0.684
 2841TIP3    H1 8529   6.064   2.990   0.671
 2841TIP3    H2 8530   5.986   3.063   0.778
 2842TIP3   OH2 8531   5.115   3.442   4.607
 2842TIP3    H1 8532   5.190   3.453   4.665
 2842TIP3    H2 8533   5.149   3.394   4.532
 2843TIP3   OH2 8534   0.587   1.086   5.034
 2843TIP3    H1 8535   0.581   1.038   4.951
 2843TIP3    H2 8536   0.681   1.097   5.049
 2844TIP3   OH2 8537   1.435   1.995   3.797
 2844TIP3    H1 8538   1.370   2.043   3.848
 2844TIP3    H2 8539   1.443   1.910   3.841
 2845TIP3   OH2 8540   0.039   1.490   3.323
 2845TIP3    H1 8541   0.014   1.496   3.231
 2845TIP3    H2 8542   0.074   1.576   3.344
 2846TIP3   OH2 8543   0.391   3.832   1.543
 2846TIP3    H1 8544   0.305   3.871   1.524
 2846TIP3    H2 8545   0.420   3.799   1.458
 2847TIP3   OH2 8546   4.074   1.569   0.590
 2847TIP3    H1 8547   4.025   1.528   0.519
 2847TIP3    H2 8548   4.054   1.662   0.583
 2848TIP3   OH2 8549   1.902   0.628   5.115
 2848TIP3    H1 8550   1.935   0.555   5.167
 2848TIP3    H2 8551   1.832   0.590   5.061
 2849TIP3   OH2 8552   4.324   0.121   4.207
 2849TIP3    H1 8553   4.240   0.168   4.207
 2849TIP3    H2 8554   4.383   0.179   4.159
 2850TIP3   OH2 8555   5.018   3.160   1.075
 2850TIP3    H1 8556   5.105   3.146   1.039
 2850TIP3    H2 8557   4.970   3.079   1.056
 2851TIP3   OH2 8558   4.386   0.384   1.038
 2851TIP3    H1 8559   4.312   0.332   1.008
 2851TIP3    H2 8560   4.382   0.379   1.134
 2852TIP3   OH2 8561   0.858   2.670   5.030
 2852TIP3    H1 8562   0.800   2.622   5.089
 2852TIP3    H2 8563   0.804   2.684   4.951
 2853TIP3   OH2 8564   1.280   2.556   2.586
 2853TIP3    H1 8565   1.353   2.532   2.529
 2853TIP3    H2 8566   1.208   2.574   2.525
 2854TIP3   OH2 8567   5.343   2.329   0.560
 2854TIP3    H1 8568   5.253   2.359   0.570
 2854TIP3    H2 8569   5.339   2.235   0.573
 2855TIP3   OH2 8570   4.208   2.770   3.361
 2855TIP3    H1 8571   4.116   2.755   3.383
 2855TIP3    H2 8572   4.226   2.859   3.393
 2856TIP3   OH2 8573   4.695   3.474   4.836
 2856TIP3    H1 8574   4.663   3.542   4.894
 2856TIP3    H2 8575   4.617   3.442   4.790
 2857TIP3   OH2 8576   2.138   3.421   0.960
 2857TIP3    H1 8577   2.056   3.469   0.977
 2857TIP3    H2 8578   2.120   3.369   0.881
 2858TIP3   OH2 8579   6.249   3.052   1.971
 2858TIP3    H1 8580   6.173   3.011   1.929
 2858TIP3    H2 8581   6.290   2.982   2.022
 2859TIP3   OH2 8582   0.153   3.600   0.291
 2859TIP3    H1 8583   0.112   3.520   0.323
 2859TIP3    H2 8584   0.088   3.640   0.234
 2860TIP3   OH2 8585   0.391   2.014   4.784
 2860TIP3    H1 8586   0.398   1.920   4.799
 2860TIP3    H2 8587   0.424   2.054   4.864
 2861TIP3   OH2 8588   0.415   0.827   3.760
 2861TIP3    H1 8589   0.366   0.764   3.707
 2861TIP3    H2 8590   0.432   0.781   3.842
 2862TIP3   OH2 8591   4.832   3.138   1.643
 2862TIP3    H1 8592   4.824   3.233   1.634
 2862TIP3    H2 8593   4.900   3.126   1.710
 2863TIP3   OH2 8594   6.000   2.411   3.566
 2863TIP3    H1 8595   5.987   2.316   3.574
 2863TIP3    H2 8596   6.025   2.423   3.475
 2864TIP3   OH2 8597   5.553   3.766   3.611
 2864TIP3    H1 8598   5.536   3.792   3.520
 2864TIP3    H2 8599   5.513   3.835   3.664
 2865TIP3   OH2 8600   5.798   4.426   5.061
 2865TIP3    H1 8601   5.760   4.388   4.982
 2865TIP3    H2 8602   5.876   4.373   5.078
 2866TIP3   OH2 8603   1.216   4.853   5.021
 2866TIP3    H1 8604   1.261   4.809   4.948
 2866TIP3    H2 8605   1.167   4.784   5.064
 2867TIP3   OH2 8606   1.582   2.156   4.314
 2867TIP3    H1 8607   1.527   2.185   4.242
 2867TIP3    H2 8608   1.584   2.060   4.306
 2868TIP3   OH2 8609   5.523   1.009   4.279
 2868TIP3    H1 8610   5.503   1.017   4.373
 2868TIP3    H2 8611   5.452   0.955   4.244
 2869TIP3   OH2 8612   6.165   3.601   5.036
 2869TIP3    H1 8613   6.110   3.560   4.969
 2869TIP3    H2 8614   6.105   3.621   5.108
 2870TIP3   OH2 8615   1.305   5.028   0.534
 2870TIP3    H1 8616   1.270   5.051   0.620
 2870TIP3    H2 8617   1.392   4.993   0.552
 2871TIP3   OH2 8618   2.632   1.828   0.226
 2871TIP3    H1 8619   2.607   1.750   0.276
 2871TIP3    H2 8620   2.549   1.861   0.190
 2872TIP3   OH2 8621   0.768   3.644   4.167
 2872TIP3    H1 8622   0.699   3.582   4.191
 2872TIP3    H2 8623   0.804   3.674   4.251
 2873TIP3   OH2 8624   5.991   4.588   3.224
 2873TIP3    H1 8625   6.063   4.649   3.235
 2873TIP3    H2 8626   5.935   4.628   3.158
 2874TIP3   OH2 8627   1.474   2.437   5.137
 2874TIP3    H1 8628   1.419   2.421   5.213
 2874TIP3    H2 8629   1.510   2.352   5.114
 2875TIP3   OH2 8630   2.542   2.425   4.308
 2875TIP3    H1 8631   2.630   2.395   4.283
 2875TIP3    H2 8632   2.542   2.422   4.404
 2876TIP3   OH2 8633   0.049   1.795   1.862
 2876TIP3    H1 8634  -0.034   1.770   1.822
 2876TIP3    H2 8635   0.035   1.886   1.889
 2877TIP3   OH2 8636   2.179   5.297   3.628
 2877TIP3    H1 8637   2.249   5.339   3.679
 2877TIP3    H2 8638   2.106   5.359   3.632
 2878TIP3   OH2 8639   0.314   4.576   0.551
 2878TIP3    H1 8640   0.373   4.537   0.616
 2878TIP3    H2 8641   0.355   4.554   0.467
 2879TIP3   OH2 8642   2.402   2.317   1.425
 2879TIP3    H1 8643   2.493   2.341   1.404
 2879TIP3    H2 8644   2.368   2.391   1.475
 2880TIP3   OH2 8645   1.478   3.632   1.798
 2880TIP3    H1 8646   1.478   3.576   1.720
 2880TIP3    H2 8647   1.532   3.707   1.773
 2881TIP3   OH2 8648   1.651   4.482   1.425
 2881TIP3    H1 8649   1.710   4.526   1.486
 2881TIP3    H2 8650   1.661   4.530   1.343
 2882TIP3   OH2 8651   1.176   5.216   2.559
 2882TIP3    H1 8652   1.270   5.233   2.550
 2882TIP3    H2 8653   1.145   5.204   2.469
 2883TIP3   OH2 8654   1.254   3.666   3.020
 2883TIP3    H1 8655   1.310   3.648   3.095
 2883TIP3    H2 8656   1.228   3.580   2.988
 2884TIP3   OH2 8657   2.051   2.967   0.292
 2884TIP3    H1 8658   2.016   3.039   0.239
 2884TIP3    H2 8659   2.052   2.892   0.232
 2885TIP3   OH2 8660   3.651   5.659   0.093
 2885TIP3    H1 8661   3.662   5.618   0.179
 2885TIP3    H2 8662   3.654   5.586   0.031
 2886TIP3   OH2 8663   3.491   4.902   1.091
 2886TIP3    H1 8664   3.586   4.906   1.097
 2886TIP3    H2 8665   3.468   4.971   1.029
 2887TIP3   OH2 8666   2.741   0.268   0.864
 2887TIP3    H1 8667   2.678   0.260   0.793
 2887TIP3    H2 8668   2.727   0.189   0.917
 2888TIP3   OH2 8669   3.039   4.643   4.089
 2888TIP3    H1 8670   3.072   4.626   4.177
 2888TIP3    H2 8671   3.066   4.567   4.038
 2889TIP3   OH2 8672   4.844   3.654   3.602
 2889TIP3    H1 8673   4.921   3.690   3.646
 2889TIP3    H2 8674   4.777   3.722   3.612
 2890TIP3   OH2 8675   1.459   5.248   2.505
 2890TIP3    H1 8676   1.441   5.154   2.499
 2890TIP3    H2 8677   1.554   5.253   2.516
 2891TIP3   OH2 8678   2.720   0.401   4.179
 2891TIP3    H1 8679   2.744   0.310   4.192
 2891TIP3    H2 8680   2.718   0.438   4.268
 2892TIP3   OH2 8681   0.112   1.539   3.029
 2892TIP3    H1 8682   0.159   1.567   2.951
 2892TIP3    H2 8683   0.126   1.444   3.032
 2893TIP3   OH2 8684   2.034   2.901   0.840
 2893TIP3    H1 8685   2.004   2.828   0.895
 2893TIP3    H2 8686   2.029   2.978   0.897
 2894TIP3   OH2 8687   4.827   3.039   2.623
 2894TIP3    H1 8688   4.905   3.059   2.571
 2894TIP3    H2 8689   4.805   2.949   2.599
 2895TIP3   OH2 8690   4.596   0.885   3.449
 2895TIP3    H1 8691   4.677   0.934   3.461
 2895TIP3    H2 8692   4.534   0.951   3.417
 2896TIP3   OH2 8693   5.722   0.921   2.908
 2896TIP3    H1 8694   5.749   0.856   2.973
 2896TIP3    H2 8695   5.698   0.869   2.831
 2897TIP3   OH2 8696   4.224   5.106   2.373
 2897TIP3    H1 8697   4.234   5.058   2.291
 2897TIP3    H2 8698   4.151   5.166   2.356
 2898TIP3   OH2 8699   1.223   5.220   3.600
 2898TIP3    H1 8700   1.174   5.223   3.682
 2898TIP3    H2 8701   1.232   5.126   3.581
 2899TIP3   OH2 8702   1.981   3.393   0.617
 2899TIP3    H1 8703   2.013   3.304   0.602
 2899TIP3    H2 8704   1.894   3.394   0.576
 2900TIP3   OH2 8705   2.664   2.394   1.381
 2900TIP3    H1 8706   2.690   2.376   1.291
 2900TIP3    H2 8707   2.644   2.487   1.383
 2901TIP3   OH2 8708   3.057   0.012   3.027
 2901TIP3    H1 8709   3.014  -0.046   3.091
 2901TIP3    H2 8710   3.151  -0.006   3.039
 2902TIP3   OH2 8711   5.360   3.091   5.062
 2902TIP3    H1 8712   5.302   3.111   5.136
 2902TIP3    H2 8713   5.373   2.996   5.067
 2903TIP3   OH2 8714   2.875   3.509   1.030
 2903TIP3    H1 8715   2.939   3.442   1.054
 2903TIP3    H2 8716   2.796   3.486   1.078
 2904TIP3   OH2 8717   4.568   0.451   4.645
 2904TIP3    H1 8718   4.494   0.480   4.699
 2904TIP3    H2 8719   4.573   0.357   4.661
 2905TIP3   OH2 8720   2.834   3.789   4.749
 2905TIP3    H1 8721   2.921   3.817   4.777
 2905TIP3    H2 8722   2.847   3.752   4.662
 2906TIP3   OH2 8723   0.300   0.754   0.355
 2906TIP3    H1 8724   0.359   0.734   0.428
 2906TIP3    H2 8725   0.213   0.752   0.393
 2907TIP3   OH2 8726   6.039   5.323   0.829
 2907TIP3    H1 8727   5.964   5.338   0.887
 2907TIP3    H2 8728   6.112   5.304   0.889
 2908TIP3   OH2 8729   6.211   0.459   4.561
 2908TIP3    H1 8730   6.190   0.532   4.503
 2908TIP3    H2 8731   6.223   0.384   4.503
 2909TIP3   OH2 8732   2.894   2.218   0.214
 2909TIP3    H1 8733   2.872   2.280   0.284
 2909TIP3    H2 8734   2.946   2.150   0.258
 2910TIP3   OH2 8735   0.357   4.381   0.326
 2910TIP3    H1 8736   0.272   4.370   0.284
 2910TIP3    H2 8737   0.389   4.465   0.294
 2911TIP3   OH2 8738   2.248   3.965   3.759
 2911TIP3    H1 8739   2.292   3.903   3.816
 2911TIP3    H2 8740   2.302   4.044   3.763
 2912TIP3   OH2 8741   4.425   1.952   2.132
 2912TIP3    H1 8742   4.493   1.912   2.186
 2912TIP3    H2 8743   4.429   1.904   2.049
 2913TIP3   OH2 8744   5.524   0.915   3.358
 2913TIP3    H1 8745   5.459   0.944   3.422
 2913TIP3    H2 8746   5.533   0.821   3.373
 2914TIP3   OH2 8747   5.437   5.881   3.447
 2914TIP3    H1 8748   5.343   5.876   3.429
 2914TIP3    H2 8749   5.466   5.959   3.399
 2915TIP3   OH2 8750   5.362   0.768   4.800
 2915TIP3    H1 8751   5.433   0.710   4.772
 2915TIP3    H2 8752   5.391   0.855   4.774
 2916TIP3   OH2 8753   3.380   2.519   0.078
 2916TIP3    H1 8754   3.408   2.442   0.028
 2916TIP3    H2 8755   3.450   2.583   0.064
 2917TIP3   OH2 8756   2.839   4.441   0.152
 2917TIP3    H1 8757   2.846   4.351   0.120
 2917TIP3    H2 8758   2.924   4.481   0.131
 2918TIP3   OH2 8759   1.062   5.965   4.981
 2918TIP3    H1 8760   1.052   5.984   4.888
 2918TIP3    H2 8761   1.054   6.050   5.024
 2919TIP3   OH2 8762   1.406   1.110   3.071
 2919TIP3    H1 8763   1.405   1.126   2.976
 2919TIP3    H2 8764   1.496   1.082   3.089
 2920TIP3   OH2 8765   2.668   3.582   1.789
 2920TIP3    H1 8766   2.601   3.515   1.783
 2920TIP3    H2 8767   2.736   3.554   1.728
 2921TIP3   OH2 8768   1.852   5.105   2.997
 2921TIP3    H1 8769   1.937   5.063   2.994
 2921TIP3    H2 8770   1.847   5.144   3.084
 2922TIP3   OH2 8771   1.556   3.125   3.198
 2922TIP3    H1 8772   1.521   3.148   3.284
 2922TIP3    H2 8773   1.551   3.030   3.195
 2923TIP3   OH2 8774   2.905   0.610   4.220
 2923TIP3    H1 8775   2.915   0.687   4.275
 2923TIP3    H2 8776   2.817   0.617   4.184
 2924TIP3   OH2 8777   2.166   0.868   5.196
 2924TIP3    H1 8778   2.119   0.860   5.112
 2924TIP3    H2 8779   2.210   0.952   5.191
 2925TIP3   OH2 8780   4.214   1.952   1.454
 2925TIP3    H1 8781   4.180   1.902   1.527
 2925TIP3    H2 8782   4.139   2.001   1.420
 2926TIP3   OH2 8783   3.666   5.462   0.725
 2926TIP3    H1 8784   3.660   5.369   0.704
 2926TIP3    H2 8785   3.632   5.507   0.648
 2927TIP3   OH2 8786   1.046   0.878   4.493
 2927TIP3    H1 8787   1.128   0.829   4.481
 2927TIP3    H2 8788   1.068   0.946   4.557
 2928TIP3   OH2 8789   2.163   4.164   0.293
 2928TIP3    H1 8790   2.220   4.102   0.247
 2928TIP3    H2 8791   2.156   4.239   0.234
 2929TIP3   OH2 8792   2.164   3.020   3.924
 2929TIP3    H1 8793   2.079   3.005   3.883
 2929TIP3    H2 8794   2.226   3.023   3.852
 2930TIP3   OH2 8795   1.342   0.910   1.185
 2930TIP3    H1 8796   1.279   0.977   1.212
 2930TIP3    H2 8797   1.288   0.837   1.155
 2931TIP3   OH2 8798   3.166   2.126   4.099
 2931TIP3    H1 8799   3.139   2.117   4.191
 2931TIP3    H2 8800   3.123   2.206   4.069
 2932TIP3   OH2 8801   0.065   1.880   4.935
 2932TIP3    H1 8802   0.092   1.962   4.894
 2932TIP3    H2 8803   0.144   1.826   4.934
 2933TIP3   OH2 8804   4.846   0.617   4.219
 2933TIP3    H1 8805   4.797   0.667   4.153
 2933TIP3    H2 8806   4.928   0.593   4.175
 2934TIP3   OH2 8807   3.087   1.415   4.839
 2934TIP3    H1 8808   3.021   1.452   4.781
 2934TIP3    H2 8809   3.045   1.411   4.925
 2935TIP3   OH2 8810   5.788   2.563  -0.004
 2935TIP3    H1 8811   5.844   2.536   0.069
 2935TIP3    H2 8812   5.849   2.590  -0.073
 2936TIP3   OH2 8813   2.256   0.219   4.778
 2936TIP3    H1 8814   2.252   0.189   4.687
 2936TIP3    H2 8815   2.344   0.256   4.787
 2937TIP3   OH2 8816   3.541   0.676   4.256
 2937TIP3    H1 8817   3.633   0.651   4.249
 2937TIP3    H2 8818   3.527   0.693   4.349
 2938TIP3   OH2 8819   0.214   0.819   2.834
 2938TIP3    H1 8820   0.300   0.817   2.791
 2938TIP3    H2 8821   0.163   0.752   2.789
 2939TIP3   OH2 8822   3.120   0.535   5.162
 2939TIP3    H1 8823   3.041   0.580   5.193
 2939TIP3    H2 8824   3.192   0.586   5.197
 2940TIP3   OH2 8825   0.659   4.869   3.487
 2940TIP3    H1 8826   0.679   4.843   3.397
 2940TIP3    H2 8827   0.730   4.929   3.511
 2941TIP3   OH2 8828   2.381   3.842   1.462
 2941TIP3    H1 8829   2.376   3.816   1.370
 2941TIP3    H2 8830   2.308   3.903   1.473
 2942TIP3   OH2 8831   4.368   3.853   0.650
 2942TIP3    H1 8832   4.350   3.840   0.557
 2942TIP3    H2 8833   4.378   3.765   0.685
 2943TIP3   OH2 8834   0.662   3.218   0.186
 2943TIP3    H1 8835   0.742   3.217   0.239
 2943TIP3    H2 8836   0.692   3.241   0.098
 2944TIP3   OH2 8837   0.396   1.757   4.483
 2944TIP3    H1 8838   0.431   1.687   4.538
 2944TIP3    H2 8839   0.363   1.712   4.405
 2945TIP3   OH2 8840   0.167   3.345   1.570
 2945TIP3    H1 8841   0.191   3.375   1.483
 2945TIP3    H2 8842   0.211   3.405   1.630
 2946TIP3   OH2 8843   1.180   4.528   0.909
 2946TIP3    H1 8844   1.242   4.475   0.859
 2946TIP3    H2 8845   1.155   4.598   0.849
 2947TIP3   OH2 8846   0.831   4.624   4.705
 2947TIP3    H1 8847   0.871   4.616   4.618
 2947TIP3    H2 8848   0.742   4.588   4.693
 2948TIP3   OH2 8849   5.895   3.946   4.750
 2948TIP3    H1 8850   5.972   3.958   4.695
 2948TIP3    H2 8851   5.821   3.972   4.694
 2949TIP3   OH2 8852   6.167   1.872   4.849
 2949TIP3    H1 8853   6.117   1.797   4.882
 2949TIP3    H2 8854   6.248   1.870   4.900
 2950TIP3   OH2 8855   2.346   1.837   0.367
 2950TIP3    H1 8856   2.375   1.928   0.374
 2950TIP3    H2 8857   2.267   1.841   0.313
 2951TIP3   OH2 8858   1.212   2.997   5.136
 2951TIP3    H1 8859   1.119   3.018   5.127
 2951TIP3    H2 8860   1.257   3.070   5.095
 2952TIP3   OH2 8861   4.715   3.419   3.459
 2952TIP3    H1 8862   4.725   3.335   3.503
 2952TIP3    H2 8863   4.720   3.483   3.530
 2953TIP3   OH2 8864   1.197   4.340   3.418
 2953TIP3    H1 8865   1.175   4.261   3.368
 2953TIP3    H2 8866   1.286   4.325   3.450
 2954TIP3   OH2 8867   5.220   2.392   3.643
 2954TIP3    H1 8868   5.301   2.350   3.673
 2954TIP3    H2 8869   5.219   2.476   3.688
 2955TIP3   OH2 8870   0.238   0.419   3.871
 2955TIP3    H1 8871   0.221   0.484   3.939
 2955TIP3    H2 8872   0.236   0.468   3.789
 2956TIP3   OH2 8873   4.002   3.813   0.165
 2956TIP3    H1 8874   3.988   3.746   0.098
 2956TIP3    H2 8875   4.097   3.811   0.181
 2957TIP3   OH2 8876   0.273   1.251   0.696
 2957TIP3    H1 8877   0.232   1.329   0.734
 2957TIP3    H2 8878   0.275   1.269   0.601
 2958TIP3   OH2 8879   1.331   2.717   3.372
 2958TIP3    H1 8880   1.262   2.730   3.437
 2958TIP3    H2 8881   1.298   2.648   3.315
 2959TIP3   OH2 8882   0.823   0.805   0.259
 2959TIP3    H1 8883   0.910   0.845   0.251
 2959TIP3    H2 8884   0.762   0.877   0.242
 2960TIP3   OH2 8885   3.975   2.670   3.451
 2960TIP3    H1 8886   3.997   2.583   3.484
 2960TIP3    H2 8887   3.930   2.653   3.368
 2961TIP3   OH2 8888   5.392   1.337   3.598
 2961TIP3    H1 8889   5.478   1.381   3.598
 2961TIP3    H2 8890   5.410   1.251   3.560
 2962TIP3   OH2 8891   2.755   4.848   1.536
 2962TIP3    H1 8892   2.819   4.777   1.546
 2962TIP3    H2 8893   2.809   4.928   1.535
 2963TIP3   OH2 8894   6.221   0.047   3.208
 2963TIP3    H1 8895   6.210   0.105   3.283
 2963TIP3    H2 8896   6.272  -0.027   3.243
 2964TIP3   OH2 8897   0.834   5.835   1.337
 2964TIP3    H1 8898   0.814   5.751   1.297
 2964TIP3    H2 8899   0.886   5.814   1.415
 2965TIP3   OH2 8900   5.545   1.091   5.074
 2965TIP3    H1 8901   5.501   1.028   5.130
 2965TIP3    H2 8902   5.512   1.176   5.103
 2966TIP3   OH2 8903   2.447   0.374   3.883
 2966TIP3    H1 8904   2.446   0.451   3.827
 2966TIP3    H2 8905   2.539   0.358   3.901
 2967TIP3   OH2 8906   0.203   5.046   4.954
 2967TIP3    H1 8907   0.263   5.100   5.005
 2967TIP3    H2 8908   0.259   4.996   4.895
 2968TIP3   OH2 8909   2.422   2.840   3.296
 2968TIP3    H1 8910   2.349   2.885   3.252
 2968TIP3    H2 8911   2.409   2.748   3.273
 2969TIP3   OH2 8912   5.417   0.385   0.394
 2969TIP3    H1 8913   5.377   0.447   0.455
 2969TIP3    H2 8914   5.485   0.341   0.445
 2970TIP3   OH2 8915   5.130   5.803   1.261
 2970TIP3    H1 8916   5.171   5.740   1.201
 2970TIP3    H2 8917   5.166   5.780   1.347
 2971TIP3   OH2 8918   1.642   4.742   1.808
 2971TIP3    H1 8919   1.580   4.678   1.773
 2971TIP3    H2 8920   1.718   4.691   1.836
 2972TIP3   OH2 8921   1.776   2.559   1.204
 2972TIP3    H1 8922   1.716   2.533   1.135
 2972TIP3    H2 8923   1.845   2.492   1.203
 2973TIP3   OH2 8924   5.586   1.727   1.836
 2973TIP3    H1 8925   5.517   1.790   1.856
 2973TIP3    H2 8926   5.617   1.697   1.922
 2974TIP3   OH2 8927   2.225   2.166   2.654
 2974TIP3    H1 8928   2.206   2.103   2.585
 2974TIP3    H2 8929   2.286   2.228   2.614
 2975TIP3   OH2 8930   5.429   1.121   0.151
 2975TIP3    H1 8931   5.407   1.125   0.058
 2975TIP3    H2 8932   5.348   1.097   0.195
 2976TIP3   OH2 8933   3.588   0.023   0.832
 2976TIP3    H1 8934   3.496   0.051   0.834
 2976TIP3    H2 8935   3.586  -0.063   0.790
 2977TIP3   OH2 8936   4.142   4.351   0.971
 2977TIP3    H1 8937   4.076   4.375   0.906
 2977TIP3    H2 8938   4.222   4.395   0.941
 2978TIP3   OH2 8939  -0.021   4.874   0.896
 2978TIP3    H1 8940   0.021   4.861   0.981
 2978TIP3    H2 8941  -0.064   4.791   0.878
 2979TIP3   OH2 8942   3.134   4.727   1.390
 2979TIP3    H1 8943   3.080   4.797   1.354
 2979TIP3    H2 8944   3.197   4.707   1.321
 2980TIP3   OH2 8945   0.001   3.502   3.756
 2980TIP3    H1 8946   0.007   3.580   3.811
 2980TIP3    H2 8947  -0.052   3.441   3.807
 2981TIP3   OH2 8948   1.911   0.906   0.147
 2981TIP3    H1 8949   1.968   0.885   0.073
 2981TIP3    H2 8950   1.850   0.832   0.152
 2982TIP3   OH2 8951   5.919   4.335   2.180
 2982TIP3    H1 8952   5.933   4.280   2.257
 2982TIP3    H2 8953   6.000   4.384   2.170
 2983TIP3   OH2 8954   3.518   4.215   3.426
 2983TIP3    H1 8955   3.492   4.236   3.336
 2983TIP3    H2 8956   3.603   4.258   3.437
 2984TIP3   OH2 8957   2.441   5.111   3.159
 2984TIP3    H1 8958   2.470   5.026   3.126
 2984TIP3    H2 8959   2.349   5.117   3.134
 2985TIP3   OH2 8960   4.628   5.572   3.596
 2985TIP3    H1 8961   4.549   5.518   3.600
 2985TIP3    H2 8962   4.627   5.621   3.678
 2986TIP3   OH2 8963   3.589   2.262   2.219
 2986TIP3    H1 8964   3.682   2.274   2.201
 2986TIP3    H2 8965   3.557   2.349   2.241
 2987TIP3   OH2 8966   5.627   5.462   2.485
 2987TIP3    H1 8967   5.567   5.473   2.411
 2987TIP3    H2 8968   5.673   5.380   2.468
 2988TIP3   OH2 8969   5.757   0.823   0.391
 2988TIP3    H1 8970   5.716   0.742   0.422
 2988TIP3    H2 8971   5.690   0.890   0.402
 2989TIP3   OH2 8972   3.919   4.590   0.883
 2989TIP3    H1 8973   3.992   4.609   0.824
 2989TIP3    H2 8974   3.876   4.514   0.845
 2990TIP3   OH2 8975   6.364   5.452   1.886
 2990TIP3    H1 8976   6.352   5.544   1.865
 2990TIP3    H2 8977   6.314   5.439   1.967
 2991TIP3   OH2 8978   1.150   2.884   1.319
 2991TIP3    H1 8979   1.189   2.887   1.232
 2991TIP3    H2 8980   1.205   2.940   1.373
 2992TIP3   OH2 8981   1.362   0.628   1.966
 2992TIP3    H1 8982   1.424   0.570   2.009
 2992TIP3    H2 8983   1.276   0.600   1.999
 2993TIP3   OH2 8984   0.069   4.172   4.290
 2993TIP3    H1 8985   0.111   4.194   4.373
 2993TIP3    H2 8986  -0.020   4.207   4.299
 2994TIP3   OH2 8987   1.844   4.492   0.946
 2994TIP3    H1 8988   1.918   4.464   0.892
 2994TIP3    H2 8989   1.882   4.552   1.011
 2995TIP3   OH2 8990   5.386   1.721   1.042
 2995TIP3    H1 8991   5.425   1.662   1.107
 2995TIP3    H2 8992   5.367   1.801   1.090
 2996TIP3   OH2 8993   6.163   3.330   1.956
 2996TIP3    H1 8994   6.229   3.372   1.900
 2996TIP3    H2 8995   6.192   3.239   1.962
 2997TIP3   OH2 8996   0.768   3.944   1.271
 2997TIP3    H1 8997   0.697   3.941   1.207
 2997TIP3    H2 8998   0.723   3.949   1.356
 2998TIP3   OH2 8999   6.120   2.424   2.889
 2998TIP3    H1 9000   6.054   2.454   2.951
 2998TIP3    H2 9001   6.203   2.453   2.925
 2999TIP3   OH2 9002   5.955   4.951   2.266
 2999TIP3    H1 9003   5.895   4.948   2.191
 2999TIP3    H2 9004   5.970   4.859   2.287
 3000TIP3   OH2 9005   2.183   4.723   3.117
 3000TIP3    H1 9006   2.165   4.629   3.124
 3000TIP3    H2 9007   2.276   4.731   3.139
 3001TIP3   OH2 9008   3.684   1.211   0.159
 3001TIP3    H1 9009   3.692   1.306   0.170
 3001TIP3    H2 9010   3.774   1.179   0.158
 3002TIP3   OH2 9011   3.803   4.433   1.228
 3002TIP3    H1 9012   3.892   4.459   1.250
 3002TIP3    H2 9013   3.806   4.337   1.224
 3003TIP3   OH2 9014   5.765   1.311   4.001
 3003TIP3    H1 9015   5.716   1.229   3.994
 3003TIP3    H2 9016   5.725   1.368   3.935
 3004TIP3   OH2 9017   4.824   0.420   1.840
 3004TIP3    H1 9018   4.777   0.503   1.846
 3004TIP3    H2 9019   4.913   0.445   1.813
 3005TIP3   OH2 9020   4.600   0.922   4.876
 3005TIP3    H1 9021   4.544   0.956   4.946
 3005TIP3    H2 9022   4.626   0.835   4.905
 3006TIP3   OH2 9023   5.009   4.049   1.002
 3006TIP3    H1 9024   5.091   4.013   0.968
 3006TIP3    H2 9025   4.953   3.972   1.014
 3007TIP3   OH2 9026   3.364   4.048   0.787
 3007TIP3    H1 9027   3.329   4.016   0.871
 3007TIP3    H2 9028   3.360   4.143   0.794
 3008TIP3   OH2 9029   1.516   3.183   3.870
 3008TIP3    H1 9030   1.475   3.101   3.841
 3008TIP3    H2 9031   1.583   3.155   3.933
 3009TIP3   OH2 9032   3.187   5.990   3.873
 3009TIP3    H1 9033   3.104   5.941   3.874
 3009TIP3    H2 9034   3.254   5.924   3.857
 3010TIP3   OH2 9035   0.642   2.011   1.752
 3010TIP3    H1 9036   0.620   1.924   1.786
 3010TIP3    H2 9037   0.584   2.024   1.677
 3011TIP3   OH2 9038   5.655   3.956   4.928
 3011TIP3    H1 9039   5.572   4.004   4.930
 3011TIP3    H2 9040   5.705   4.000   4.859
 3012TIP3   OH2 9041   0.658   1.727   1.596
 3012TIP3    H1 9042   0.737   1.727   1.542
 3012TIP3    H2 9043   0.585   1.723   1.534
 3013TIP3   OH2 9044   0.152   3.116   5.197
 3013TIP3    H1 9045   0.190   3.183   5.254
 3013TIP3    H2 9046   0.117   3.164   5.122
 3014TIP3   OH2 9047   0.671   1.867   4.499
 3014TIP3    H1 9048   0.718   1.787   4.477
 3014TIP3    H2 9049   0.580   1.848   4.478
 3015TIP3   OH2 9050   6.149   2.159   4.803
 3015TIP3    H1 9051   6.221   2.173   4.742
 3015TIP3    H2 9052   6.137   2.064   4.806
 3016TIP3   OH2 9053   4.304   2.229   0.996
 3016TIP3    H1 9054   4.329   2.186   0.915
 3016TIP3    H2 9055   4.386   2.236   1.046
 3017TIP3   OH2 9056   1.324   5.338   2.263
 3017TIP3    H1 9057   1.243   5.290   2.281
 3017TIP3    H2 9058   1.385   5.310   2.331
 3018TIP3   OH2 9059   2.296   5.948   3.061
 3018TIP3    H1 9060   2.298   5.853   3.055
 3018TIP3    H2 9061   2.228   5.967   3.124
 3019TIP3   OH2 9062   6.114   3.612   4.582
 3019TIP3    H1 9063   6.118   3.534   4.636
 3019TIP3    H2 9064   6.020   3.629   4.571
 3020TIP3   OH2 9065   6.286   3.336   5.213
 3020TIP3    H1 9066   6.229   3.302   5.144
 3020TIP3    H2 9067   6.299   3.428   5.191
 3021TIP3   OH2 9068   2.722   3.218   4.778
 3021TIP3    H1 9069   2.736   3.172   4.861
 3021TIP3    H2 9070   2.706   3.309   4.802
 3022TIP3   OH2 9071   4.118   1.090   3.614
 3022TIP3    H1 9072   4.089   1.079   3.704
 3022TIP3    H2 9073   4.207   1.125   3.622
 3023TIP3   OH2 9074   5.422   3.285   1.375
 3023TIP3    H1 9075   5.470   3.228   1.435
 3023TIP3    H2 9076   5.340   3.238   1.358
 3024TIP3   OH2 9077   0.585   4.346   4.309
 3024TIP3    H1 9078   0.499   4.355   4.268
 3024TIP3    H2 9079   0.644   4.322   4.237
 3025TIP3   OH2 9080   2.279   5.604   3.650
 3025TIP3    H1 9081   2.276   5.648   3.735
 3025TIP3    H2 9082   2.200   5.550   3.648
 3026TIP3   OH2 9083   5.638   4.277   0.041
 3026TIP3    H1 9084   5.575   4.254  -0.027
 3026TIP3    H2 9085   5.610   4.363   0.073
 3027TIP3   OH2 9086   3.357   1.523   5.053
 3027TIP3    H1 9087   3.452   1.526   5.047
 3027TIP3    H2 9088   3.336   1.430   5.063
 3028TIP3   OH2 9089   2.344   3.000   4.280
 3028TIP3    H1 9090   2.405   2.939   4.321
 3028TIP3    H2 9091   2.264   2.992   4.331
 3029TIP3   OH2 9092   1.761   1.233   2.794
 3029TIP3    H1 9093   1.848   1.272   2.804
 3029TIP3    H2 9094   1.701   1.301   2.825
 3030TIP3   OH2 9095   5.952   5.585   0.679
 3030TIP3    H1 9096   5.994   5.512   0.725
 3030TIP3    H2 9097   5.913   5.545   0.601
 3031TIP3   OH2 9098   0.240   5.054   2.872
 3031TIP3    H1 9099   0.147   5.070   2.886
 3031TIP3    H2 9100   0.278   5.140   2.859
 3032TIP3   OH2 9101   4.055   0.087   1.646
 3032TIP3    H1 9102   4.082   0.068   1.556
 3032TIP3    H2 9103   3.997   0.014   1.669
 3033TIP3   OH2 9104   1.698   0.593   4.927
 3033TIP3    H1 9105   1.688   0.674   4.877
 3033TIP3    H2 9106   1.645   0.606   5.005
 3034TIP3   OH2 9107   5.255   5.000   4.697
 3034TIP3    H1 9108   5.260   4.962   4.785
 3034TIP3    H2 9109   5.190   4.946   4.652
 3035TIP3   OH2 9110   5.237   0.034   4.466
 3035TIP3    H1 9111   5.300   0.022   4.537
 3035TIP3    H2 9112   5.236   0.128   4.451
 3036TIP3   OH2 9113   5.898   0.532   1.451
 3036TIP3    H1 9114   5.987   0.546   1.419
 3036TIP3    H2 9115   5.904   0.453   1.504
 3037TIP3   OH2 9116   2.352   2.459   0.148
 3037TIP3    H1 9117   2.279   2.399   0.131
 3037TIP3    H2 9118   2.314   2.528   0.201
 3038TIP3   OH2 9119   1.386   3.140   1.461
 3038TIP3    H1 9120   1.373   3.151   1.555
 3038TIP3    H2 9121   1.431   3.056   1.452
 3039TIP3   OH2 9122   6.163   0.609   2.016
 3039TIP3    H1 9123   6.256   0.630   2.018
 3039TIP3    H2 9124   6.142   0.582   2.106
 3040TIP3   OH2 9125   3.139   0.687   0.896
 3040TIP3    H1 9126   3.122   0.743   0.820
 3040TIP3    H2 9127   3.080   0.612   0.885
 3041TIP3   OH2 9128   5.552   1.102   3.006
 3041TIP3    H1 9129   5.579   1.029   2.951
 3041TIP3    H2 9130   5.621   1.108   3.073
 3042TIP3   OH2 9131   0.975   4.763   2.549
 3042TIP3    H1 9132   0.976   4.668   2.538
 3042TIP3    H2 9133   0.887   4.789   2.521
 3043TIP3   OH2 9134   3.979   5.178   2.131
 3043TIP3    H1 9135   3.921   5.128   2.189
 3043TIP3    H2 9136   4.030   5.233   2.190
 3044TIP3   OH2 9137   1.049   2.173   0.194
 3044TIP3    H1 9138   1.072   2.090   0.235
 3044TIP3    H2 9139   1.069   2.161   0.102
 3045TIP3   OH2 9140   3.664   3.161   2.393
 3045TIP3    H1 9141   3.678   3.227   2.461
 3045TIP3    H2 9142   3.658   3.079   2.441
 3046TIP3   OH2 9143   0.497   1.524   4.584
 3046TIP3    H1 9144   0.468   1.440   4.621
 3046TIP3    H2 9145   0.524   1.576   4.659
 3047TIP3   OH2 9146   1.952   2.231   4.674
 3047TIP3    H1 9147   2.018   2.181   4.627
 3047TIP3    H2 9148   1.947   2.190   4.760
 3048TIP3   OH2 9149   4.350   1.080   0.949
 3048TIP3    H1 9150   4.439   1.112   0.942
 3048TIP3    H2 9151   4.346   1.035   1.033
 3049TIP3   OH2 9152   2.563   3.195   3.626
 3049TIP3    H1 9153   2.650   3.229   3.645
 3049TIP3    H2 9154   2.580   3.113   3.579
 3050TIP3   OH2 9155   0.631   0.380   3.086
 3050TIP3    H1 9156   0.713   0.428   3.073
 3050TIP3    H2 9157   0.626   0.365   3.180
 3051TIP3   OH2 9158   4.365   5.236   3.962
 3051TIP3    H1 9159   4.313   5.304   3.919
 3051TIP3    H2 9160   4.438   5.220   3.902
 3052TIP3   OH2 9161   1.374   5.476   2.032
 3052TIP3    H1 9162   1.352   5.432   2.114
 3052TIP3    H2 9163   1.402   5.406   1.974
 3053TIP3   OH2 9164   1.899   0.072   1.292
 3053TIP3    H1 9165   1.823   0.090   1.347
 3053TIP3    H2 9166   1.896  -0.022   1.276
 3054TIP3   OH2 9167   2.807   4.152   0.171
 3054TIP3    H1 9168   2.814   4.192   0.258
 3054TIP3    H2 9169   2.793   4.059   0.188
 3055TIP3   OH2 9170   0.378   0.033   1.551
 3055TIP3    H1 9171   0.300   0.088   1.542
 3055TIP3    H2 9172   0.449   0.095   1.568
 3056TIP3   OH2 9173   2.421   2.271   2.082
 3056TIP3    H1 9174   2.439   2.194   2.137
 3056TIP3    H2 9175   2.501   2.323   2.086
 3057TIP3   OH2 9176   1.965   4.191   3.032
 3057TIP3    H1 9177   1.995   4.273   2.992
 3057TIP3    H2 9178   1.948   4.214   3.123
 3058TIP3   OH2 9179   3.008   1.839   2.237
 3058TIP3    H1 9180   3.097   1.822   2.268
 3058TIP3    H2 9181   3.005   1.801   2.150
 3059TIP3   OH2 9182   2.302   5.133   0.542
 3059TIP3    H1 9183   2.296   5.061   0.480
 3059TIP3    H2 9184   2.253   5.103   0.619
 3060TIP3   OH2 9185   5.642   1.807   4.862
 3060TIP3    H1 9186   5.585   1.735   4.888
 3060TIP3    H2 9187   5.589   1.859   4.801
 3061TIP3   OH2 9188   4.012   5.598   1.305
 3061TIP3    H1 9189   4.056   5.591   1.221
 3061TIP3    H2 9190   4.027   5.513   1.347
 3062TIP3   OH2 9191   1.872   1.677   2.110
 3062TIP3    H1 9192   1.796   1.644   2.159
 3062TIP3    H2 9193   1.915   1.598   2.077
 3063TIP3   OH2 9194   4.616   3.900   2.401
 3063TIP3    H1 9195   4.707   3.931   2.399
 3063TIP3    H2 9196   4.624   3.805   2.402
 3064TIP3   OH2 9197   2.789   3.043   0.175
 3064TIP3    H1 9198   2.832   3.028   0.259
 3064TIP3    H2 9199   2.846   3.002   0.111
 3065TIP3   OH2 9200   0.404   4.175   4.714
 3065TIP3    H1 9201   0.485   4.193   4.762
 3065TIP3    H2 9202   0.432   4.161   4.624
 3066TIP3   OH2 9203   0.119   5.577   5.003
 3066TIP3    H1 9204   0.116   5.627   4.921
 3066TIP3    H2 9205   0.139   5.643   5.070
 3067TIP3   OH2 9206   5.538   4.471   3.652
 3067TIP3    H1 9207   5.601   4.417   3.701
 3067TIP3    H2 9208   5.576   4.559   3.654
 3068TIP3   OH2 9209   1.659   0.486   1.615
 3068TIP3    H1 9210   1.725   0.495   1.546
 3068TIP3    H2 9211   1.628   0.576   1.630
 3069TIP3   OH2 9212   1.661   4.194   2.227
 3069TIP3    H1 9213   1.677   4.260   2.159
 3069TIP3    H2 9214   1.566   4.198   2.241
 3070TIP3   OH2 9215   5.832   0.255   4.296
 3070TIP3    H1 9216   5.761   0.191   4.293
 3070TIP3    H2 9217   5.792   0.333   4.334
 3071TIP3   OH2 9218   0.449   5.372   3.716
 3071TIP3    H1 9219   0.513   5.396   3.784
 3071TIP3    H2 9220   0.503   5.349   3.641
 3072TIP3   OH2 9221   4.406   1.086   0.159
 3072TIP3    H1 9222   4.395   1.067   0.066
 3072TIP3    H2 9223   4.405   1.182   0.164
 3073TIP3   OH2 9224   2.013   1.915   3.312
 3073TIP3    H1 9225   2.003   1.831   3.266
 3073TIP3    H2 9226   2.107   1.923   3.327
 3074TIP3   OH2 9227   0.442   3.969   3.808
 3074TIP3    H1 9228   0.384   3.989   3.882
 3074TIP3    H2 9229   0.387   3.983   3.731
 3075TIP3   OH2 9230   2.299   3.396   4.353
 3075TIP3    H1 9231   2.313   3.488   4.373
 3075TIP3    H2 9232   2.217   3.374   4.398
 3076TIP3   OH2 9233   3.899   2.548   0.806
 3076TIP3    H1 9234   3.876   2.582   0.720
 3076TIP3    H2 9235   3.995   2.540   0.803
 3077TIP3   OH2 9236   3.967   3.819   0.882
 3077TIP3    H1 9237   3.963   3.735   0.837
 3077TIP3    H2 9238   3.877   3.838   0.906
 3078TIP3   OH2 9239   0.875   4.194   1.914
 3078TIP3    H1 9240   0.905   4.106   1.939
 3078TIP3    H2 9241   0.951   4.250   1.930
 3079TIP3   OH2 9242   3.012   0.366   3.361
 3079TIP3    H1 9243   2.996   0.423   3.286
 3079TIP3    H2 9244   2.932   0.371   3.413
 3080TIP3   OH2 9245   4.004   1.412   4.576
 3080TIP3    H1 9246   3.981   1.386   4.487
 3080TIP3    H2 9247   4.083   1.361   4.596
 3081TIP3   OH2 9248   2.618   4.055   3.557
 3081TIP3    H1 9249   2.566   3.985   3.596
 3081TIP3    H2 9250   2.672   4.011   3.491
 3082TIP3   OH2 9251   1.567   1.640   4.882
 3082TIP3    H1 9252   1.661   1.656   4.883
 3082TIP3    H2 9253   1.543   1.631   4.974
 3083TIP3   OH2 9254   5.276   3.753   4.372
 3083TIP3    H1 9255   5.184   3.764   4.348
 3083TIP3    H2 9256   5.324   3.806   4.308
 3084TIP3   OH2 9257   2.214   4.337   2.853
 3084TIP3    H1 9258   2.234   4.414   2.801
 3084TIP3    H2 9259   2.239   4.263   2.797
 3085TIP3   OH2 9260   0.981   4.078   3.368
 3085TIP3    H1 9261   0.979   4.012   3.437
 3085TIP3    H2 9262   0.933   4.038   3.295
 3086TIP3   OH2 9263   5.574   4.012   0.908
 3086TIP3    H1 9264   5.508   4.056   0.962
 3086TIP3    H2 9265   5.620   4.084   0.864
 3087TIP3   OH2 9266   3.158   3.296   2.175
 3087TIP3    H1 9267   3.169   3.316   2.268
 3087TIP3    H2 9268   3.153   3.200   2.172
 3088TIP3   OH2 9269   4.339   5.604   1.205
 3088TIP3    H1 9270   4.281   5.560   1.144
 3088TIP3    H2 9271   4.402   5.537   1.232
 3089TIP3   OH2 9272   2.307   5.676   3.924
 3089TIP3    H1 9273   2.336   5.740   3.988
 3089TIP3    H2 9274   2.358   5.597   3.944
 3090TIP3   OH2 9275   5.669   5.852   0.270
 3090TIP3    H1 9276   5.612   5.788   0.229
 3090TIP3    H2 9277   5.680   5.821   0.360
 3091TIP3   OH2 9278   0.414   2.538   4.931
 3091TIP3    H1 9279   0.469   2.556   4.854
 3091TIP3    H2 9280   0.476   2.539   5.005
 3092TIP3   OH2 9281   4.502   4.193   3.404
 3092TIP3    H1 9282   4.436   4.166   3.340
 3092TIP3    H2 9283   4.528   4.111   3.447
 3093TIP3   OH2 9284   2.795   1.374   4.509
 3093TIP3    H1 9285   2.708   1.375   4.550
 3093TIP3    H2 9286   2.780   1.339   4.421
 3094TIP3   OH2 9287   3.574   5.758   4.300
 3094TIP3    H1 9288   3.486   5.791   4.317
 3094TIP3    H2 9289   3.597   5.709   4.379
 3095TIP3   OH2 9290   4.388   4.282   1.845
 3095TIP3    H1 9291   4.471   4.256   1.804
 3095TIP3    H2 9292   4.388   4.237   1.930
 3096TIP3   OH2 9293   6.287   1.176   0.690
 3096TIP3    H1 9294   6.326   1.224   0.763
 3096TIP3    H2 9295   6.297   1.084   0.714
 3097TIP3   OH2 9296   3.616   4.324   4.609
 3097TIP3    H1 9297   3.622   4.374   4.690
 3097TIP3    H2 9298   3.594   4.389   4.543
 3098TIP3   OH2 9299   6.007   0.505   4.268
 3098TIP3    H1 9300   5.973   0.416   4.256
 3098TIP3    H2 9301   6.005   0.543   4.180
 3099TIP3   OH2 9302  -0.023   2.258   4.637
 3099TIP3    H1 9303   0.036   2.333   4.624
 3099TIP3    H2 9304   0.032   2.191   4.677
 3100TIP3   OH2 9305   3.237   3.664   2.445
 3100TIP3    H1 9306   3.328   3.653   2.471
 3100TIP3    H2 9307   3.234   3.751   2.405
 3101TIP3   OH2 9308   3.285   5.876   4.334
 3101TIP3    H1 9309   3.237   5.817   4.276
 3101TIP3    H2 9310   3.221   5.942   4.359
 3102TIP3   OH2 9311   0.440   1.335   1.902
 3102TIP3    H1 9312   0.483   1.416   1.878
 3102TIP3    H2 9313   0.495   1.298   1.971
 3103TIP3   OH2 9314   5.469   5.400   3.243
 3103TIP3    H1 9315   5.394   5.441   3.286
 3103TIP3    H2 9316   5.451   5.408   3.150
 3104TIP3   OH2 9317   4.626   4.909   2.606
 3104TIP3    H1 9318   4.655   4.841   2.668
 3104TIP3    H2 9319   4.564   4.961   2.656
 3105TIP3   OH2 9320   2.183   0.514   3.534
 3105TIP3    H1 9321   2.111   0.515   3.472
 3105TIP3    H2 9322   2.248   0.456   3.494
 3106TIP3   OH2 9323   0.900   0.476   0.783
 3106TIP3    H1 9324   0.868   0.527   0.857
 3106TIP3    H2 9325   0.958   0.536   0.736
 3107TIP3   OH2 9326   3.161   2.441   1.671
 3107TIP3    H1 9327   3.100   2.470   1.603
 3107TIP3    H2 9328   3.105   2.426   1.747
 3108TIP3   OH2 9329   5.123   5.946   2.674
 3108TIP3    H1 9330   5.099   5.925   2.764
 3108TIP3    H2 9331   5.064   6.016   2.648
 3109TIP3   OH2 9332   3.897   3.214   4.057
 3109TIP3    H1 9333   3.897   3.154   3.982
 3109TIP3    H2 9334   3.804   3.224   4.079
 3110TIP3   OH2 9335   0.578   5.780   0.875
 3110TIP3    H1 9336   0.511   5.770   0.942
 3110TIP3    H2 9337   0.608   5.690   0.857
 3111TIP3   OH2 9338   4.240   5.582   2.053
 3111TIP3    H1 9339   4.235   5.660   1.998
 3111TIP3    H2 9340   4.198   5.514   2.001
 3112TIP3   OH2 9341   4.481   0.830   4.603
 3112TIP3    H1 9342   4.466   0.753   4.658
 3112TIP3    H2 9343   4.463   0.904   4.662
 3113TIP3   OH2 9344   4.210   5.565   2.554
 3113TIP3    H1 9345   4.168   5.648   2.532
 3113TIP3    H2 9346   4.256   5.539   2.474
 3114TIP3   OH2 9347   5.020   5.867   4.264
 3114TIP3    H1 9348   4.969   5.900   4.190
 3114TIP3    H2 9349   5.109   5.898   4.247
 3115TIP3   OH2 9350   4.200   0.811   4.454
 3115TIP3    H1 9351   4.264   0.828   4.522
 3115TIP3    H2 9352   4.175   0.898   4.422
 3116TIP3   OH2 9353   0.944   4.951   2.077
 3116TIP3    H1 9354   1.007   4.969   2.007
 3116TIP3    H2 9355   0.994   4.903   2.143
 3117TIP3   OH2 9356   5.929   2.849   1.067
 3117TIP3    H1 9357   5.966   2.837   0.980
 3117TIP3    H2 9358   6.004   2.846   1.126
 3118TIP3   OH2 9359   2.592   4.382   1.142
 3118TIP3    H1 9360   2.655   4.320   1.177
 3118TIP3    H2 9361   2.627   4.406   1.056
 3119TIP3   OH2 9362   1.769   3.925   1.214
 3119TIP3    H1 9363   1.739   3.838   1.189
 3119TIP3    H2 9364   1.692   3.967   1.253
 3120TIP3   OH2 9365   1.245   3.163   2.221
 3120TIP3    H1 9366   1.331   3.138   2.253
 3120TIP3    H2 9367   1.256   3.252   2.188
 3121TIP3   OH2 9368   5.589   0.778   0.133
 3121TIP3    H1 9369   5.632   0.836   0.070
 3121TIP3    H2 9370   5.660   0.743   0.187
 3122TIP3   OH2 9371   0.308   3.794   1.019
 3122TIP3    H1 9372   0.224   3.801   1.064
 3122TIP3    H2 9373   0.369   3.844   1.073
 3123TIP3   OH2 9374   2.843   1.423   2.711
 3123TIP3    H1 9375   2.752   1.417   2.741
 3123TIP3    H2 9376   2.893   1.374   2.775
 3124TIP3   OH2 9377   4.450   0.514   1.867
 3124TIP3    H1 9378   4.369   0.565   1.874
 3124TIP3    H2 9379   4.420   0.423   1.858
 3125TIP3   OH2 9380   1.357   4.472   1.498
 3125TIP3    H1 9381   1.439   4.483   1.450
 3125TIP3    H2 9382   1.365   4.385   1.539
 3126TIP3   OH2 9383   1.106   2.925   2.751
 3126TIP3    H1 9384   1.039   2.869   2.792
 3126TIP3    H2 9385   1.061   2.965   2.677
 3127TIP3   OH2 9386   4.007   2.575   2.425
 3127TIP3    H1 9387   3.980   2.666   2.415
 3127TIP3    H2 9388   3.928   2.529   2.453
 3128TIP3   OH2 9389   1.706   2.013   3.764
 3128TIP3    H1 9390   1.624   1.970   3.790
 3128TIP3    H2 9391   1.702   2.015   3.669
 3129TIP3   OH2 9392   2.822   0.934   4.776
 3129TIP3    H1 9393   2.835   0.979   4.692
 3129TIP3    H2 9394   2.873   0.985   4.839
 3130TIP3   OH2 9395   0.497   3.577   4.254
 3130TIP3    H1 9396   0.487   3.511   4.323
 3130TIP3    H2 9397   0.503   3.660   4.301
 3131TIP3   OH2 9398   0.306   2.827   1.642
 3131TIP3    H1 9399   0.391   2.784   1.629
 3131TIP3    H2 9400   0.274   2.791   1.725
 3132TIP3   OH2 9401   6.287   1.331   2.247
 3132TIP3    H1 9402   6.375   1.298   2.228
 3132TIP3    H2 9403   6.247   1.263   2.300
 3133TIP3   OH2 9404   0.180   1.114   4.135
 3133TIP3    H1 9405   0.223   1.100   4.051
 3133TIP3    H2 9406   0.250   1.143   4.194
 3134TIP3   OH2 9407   4.381   3.804   2.132
 3134TIP3    H1 9408   4.316   3.757   2.080
 3134TIP3    H2 9409   4.410   3.876   2.075
 3135TIP3   OH2 9410   1.358   0.937   0.492
 3135TIP3    H1 9411   1.412   0.863   0.465
 3135TIP3    H2 9412   1.420   1.005   0.515
 3136TIP3   OH2 9413   1.273   0.107   4.909
 3136TIP3    H1 9414   1.346   0.072   4.858
 3136TIP3    H2 9415   1.311   0.182   4.955
 3137TIP3   OH2 9416   1.794   4.713   2.561
 3137TIP3    H1 9417   1.882   4.708   2.523
 3137TIP3    H2 9418   1.763   4.622   2.560
 3138TIP3   OH2 9419   2.383   1.438   3.365
 3138TIP3    H1 9420   2.407   1.422   3.273
 3138TIP3    H2 9421   2.296   1.398   3.374
 3139TIP3   OH2 9422   4.644   1.793   2.247
 3139TIP3    H1 9423   4.642   1.783   2.342
 3139TIP3    H2 9424   4.737   1.801   2.226
 3140TIP3   OH2 9425   1.064   1.841   3.759
 3140TIP3    H1 9426   1.083   1.749   3.740
 3140TIP3    H2 9427   1.058   1.845   3.855
 3141TIP3   OH2 9428   0.125   4.769   5.065
 3141TIP3    H1 9429   0.158   4.841   5.011
 3141TIP3    H2 9430   0.204   4.728   5.101
 3142TIP3   OH2 9431   1.184   0.591   3.092
 3142TIP3    H1 9432   1.143   0.661   3.143
 3142TIP3    H2 9433   1.117   0.565   3.029
 3143TIP3   OH2 9434   1.446   4.420   2.367
 3143TIP3    H1 9435   1.389   4.478   2.417
 3143TIP3    H2 9436   1.490   4.479   2.305
 3144TIP3   OH2 9437   2.966   4.487   2.589
 3144TIP3    H1 9438   3.016   4.473   2.669
 3144TIP3    H2 9439   3.004   4.425   2.526
 3145TIP3   OH2 9440   5.598   5.614   0.798
 3145TIP3    H1 9441   5.506   5.606   0.774
 3145TIP3    H2 9442   5.638   5.663   0.725
 3146TIP3   OH2 9443   1.051   5.369   0.453
 3146TIP3    H1 9444   1.068   5.452   0.497
 3146TIP3    H2 9445   0.972   5.385   0.401
 3147TIP3   OH2 9446   5.964   4.584   0.480
 3147TIP3    H1 9447   5.960   4.593   0.575
 3147TIP3    H2 9448   6.014   4.660   0.450
 3148TIP3   OH2 9449   6.184   5.923   3.376
 3148TIP3    H1 9450   6.151   5.936   3.465
 3148TIP3    H2 9451   6.259   5.865   3.385
 3149TIP3   OH2 9452   1.163   2.247   1.082
 3149TIP3    H1 9453   1.228   2.315   1.095
 3149TIP3    H2 9454   1.143   2.250   0.988
 3150TIP3   OH2 9455   3.067   4.308   3.135
 3150TIP3    H1 9456   3.059   4.395   3.097
 3150TIP3    H2 9457   3.094   4.253   3.062
 3151TIP3   OH2 9458   2.445   5.828   1.306
 3151TIP3    H1 9459   2.476   5.919   1.303
 3151TIP3    H2 9460   2.399   5.821   1.390
 3152TIP3   OH2 9461   4.424   2.760   0.022
 3152TIP3    H1 9462   4.373   2.837  -0.003
 3152TIP3    H2 9463   4.509   2.774  -0.020
 3153TIP3   OH2 9464   5.561   5.914   2.249
 3153TIP3    H1 9465   5.485   5.917   2.307
 3153TIP3    H2 9466   5.611   5.838   2.279
 3154TIP3   OH2 9467   2.327   2.823   0.101
 3154TIP3    H1 9468   2.285   2.773   0.171
 3154TIP3    H2 9469   2.420   2.820   0.122
 3155TIP3   OH2 9470   4.264   5.256   0.984
 3155TIP3    H1 9471   4.220   5.171   0.992
 3155TIP3    H2 9472   4.220   5.299   0.910
 3156TIP3   OH2 9473   3.161   3.421   2.443
 3156TIP3    H1 9474   3.206   3.371   2.512
 3156TIP3    H2 9475   3.183   3.512   2.461
 3157TIP3   OH2 9476   5.898   5.598   2.628
 3157TIP3    H1 9477   5.864   5.519   2.587
 3157TIP3    H2 9478   5.904   5.575   2.721
 3158TIP3   OH2 9479   4.871   1.056   2.214
 3158TIP3    H1 9480   4.946   0.997   2.216
 3158TIP3    H2 9481   4.907   1.141   2.189
 3159TIP3   OH2 9482   4.768   3.727   3.282
 3159TIP3    H1 9483   4.858   3.704   3.308
 3159TIP3    H2 9484   4.731   3.645   3.250
 3160TIP3   OH2 9485   2.607   5.618   2.250
 3160TIP3    H1 9486   2.544   5.688   2.235
 3160TIP3    H2 9487   2.557   5.538   2.232
 3161TIP3   OH2 9488   3.597   3.515   0.857
 3161TIP3    H1 9489   3.549   3.591   0.889
 3161TIP3    H2 9490   3.572   3.444   0.916
 3162TIP3   OH2 9491   1.737   1.600   0.643
 3162TIP3    H1 9492   1.774   1.545   0.712
 3162TIP3    H2 9493   1.683   1.664   0.690
 3163TIP3   OH2 9494   4.812   5.518   3.274
 3163TIP3    H1 9495   4.879   5.585   3.266
 3163TIP3    H2 9496   4.844   5.446   3.220
 3164TIP3   OH2 9497   3.590   6.036   2.266
 3164TIP3    H1 9498   3.614   6.041   2.359
 3164TIP3    H2 9499   3.631   5.955   2.235
 3165TIP3   OH2 9500   0.941   3.454   3.983
 3165TIP3    H1 9501   1.030   3.439   4.015
 3165TIP3    H2 9502   0.897   3.499   4.055
 3166TIP3   OH2 9503   0.622   2.813   1.487
 3166TIP3    H1 9504   0.564   2.741   1.511
 3166TIP3    H2 9505   0.710   2.775   1.492
 3167TIP3   OH2 9506   5.711   1.263   0.136
 3167TIP3    H1 9507   5.641   1.197   0.142
 3167TIP3    H2 9508   5.690   1.312   0.057
 3168TIP3   OH2 9509   5.217   1.427   3.993
 3168TIP3    H1 9510   5.298   1.388   4.025
 3168TIP3    H2 9511   5.238   1.459   3.905
 3169TIP3   OH2 9512   6.264   2.369   0.275
 3169TIP3    H1 9513   6.320   2.348   0.200
 3169TIP3    H2 9514   6.252   2.464   0.269
 3170TIP3   OH2 9515   4.379   4.621   4.663
 3170TIP3    H1 9516   4.290   4.648   4.640
 3170TIP3    H2 9517   4.393   4.540   4.613
 3171TIP3   OH2 9518   6.234   1.211   3.205
 3171TIP3    H1 9519   6.309   1.258   3.168
 3171TIP3    H2 9520   6.192   1.169   3.130
 3172TIP3   OH2 9521   0.635   4.069   0.920
 3172TIP3    H1 9522   0.646   4.049   0.827
 3172TIP3    H2 9523   0.723   4.093   0.950
 3173TIP3   OH2 9524   0.172   0.134   2.800
 3173TIP3    H1 9525   0.152   0.226   2.820
 3173TIP3    H2 9526   0.259   0.119   2.838
 3174TIP3   OH2 9527   4.588   3.313   3.938
 3174TIP3    H1 9528   4.620   3.403   3.931
 3174TIP3    H2 9529   4.667   3.259   3.933
 3175TIP3   OH2 9530   3.908   4.576   3.019
 3175TIP3    H1 9531   3.899   4.658   3.068
 3175TIP3    H2 9532   3.999   4.550   3.031
 3176TIP3   OH2 9533   2.209   1.120   0.101
 3176TIP3    H1 9534   2.245   1.097   0.187
 3176TIP3    H2 9535   2.138   1.181   0.120
 3177TIP3   OH2 9536   0.808   1.984   1.499
 3177TIP3    H1 9537   0.808   1.938   1.583
 3177TIP3    H2 9538   0.874   2.052   1.508
 3178TIP3   OH2 9539   2.078   1.154   2.616
 3178TIP3    H1 9540   1.988   1.158   2.585
 3178TIP3    H2 9541   2.130   1.182   2.541
 3179TIP3   OH2 9542   4.091   4.488   1.229
 3179TIP3    H1 9543   4.102   4.459   1.138
 3179TIP3    H2 9544   4.114   4.412   1.281
 3180TIP3   OH2 9545   3.575   3.881   2.359
 3180TIP3    H1 9546   3.651   3.832   2.328
 3180TIP3    H2 9547   3.576   3.961   2.307
 3181TIP3   OH2 9548   3.955   4.806   2.056
 3181TIP3    H1 9549   3.945   4.723   2.008
 3181TIP3    H2 9550   3.870   4.849   2.048
 3182TIP3   OH2 9551   0.979   4.506   4.482
 3182TIP3    H1 9552   0.984   4.419   4.521
 3182TIP3    H2 9553   0.941   4.491   4.395
 3183TIP3   OH2 9554   3.929   0.580   1.566
 3183TIP3    H1 9555   3.840   0.615   1.560
 3183TIP3    H2 9556   3.930   0.505   1.508
 3184TIP3   OH2 9557   1.590   5.844   4.922
 3184TIP3    H1 9558   1.667   5.797   4.955
 3184TIP3    H2 9559   1.537   5.861   5.000
 3185TIP3   OH2 9560   1.510   4.976   0.971
 3185TIP3    H1 9561   1.490   4.898   1.023
 3185TIP3    H2 9562   1.605   4.978   0.965
 3186TIP3   OH2 9563   3.374   4.710   0.817
 3186TIP3    H1 9564   3.468   4.702   0.831
 3186TIP3    H2 9565   3.345   4.770   0.886
 3187TIP3   OH2 9566   4.646   1.946   3.881
 3187TIP3    H1 9567   4.654   1.996   3.962
 3187TIP3    H2 9568   4.605   1.864   3.908
 3188TIP3   OH2 9569   1.865   3.870   0.584
 3188TIP3    H1 9570   1.781   3.850   0.542
 3188TIP3    H2 9571   1.896   3.948   0.538
 3189TIP3   OH2 9572   1.549   4.684   5.064
 3189TIP3    H1 9573   1.500   4.683   4.982
 3189TIP3    H2 9574   1.485   4.661   5.131
 3190TIP3   OH2 9575   4.609   1.696   3.997
 3190TIP3    H1 9576   4.681   1.648   3.957
 3190TIP3    H2 9577   4.591   1.650   4.078
 3191TIP3   OH2 9578   5.246   5.315   1.188
 3191TIP3    H1 9579   5.265   5.303   1.281
 3191TIP3    H2 9580   5.206   5.232   1.160
 3192TIP3   OH2 9581   2.601   2.349   0.515
 3192TIP3    H1 9582   2.517   2.330   0.475
 3192TIP3    H2 9583   2.594   2.314   0.604
 3193TIP3   OH2 9584   5.360   0.126   0.254
 3193TIP3    H1 9585   5.324   0.122   0.165
 3193TIP3    H2 9586   5.331   0.210   0.288
 3194TIP3   OH2 9587   3.462   4.783   3.722
 3194TIP3    H1 9588   3.451   4.875   3.697
 3194TIP3    H2 9589   3.420   4.777   3.808
 3195TIP3   OH2 9590   6.286   4.009   4.996
 3195TIP3    H1 9591   6.194   3.984   4.985
 3195TIP3    H2 9592   6.283   4.087   5.052
 3196TIP3   OH2 9593   0.628   3.431   3.547
 3196TIP3    H1 9594   0.691   3.502   3.557
 3196TIP3    H2 9595   0.561   3.449   3.612
 3197TIP3   OH2 9596   4.272   2.020   0.554
 3197TIP3    H1 9597   4.283   2.024   0.459
 3197TIP3    H2 9598   4.221   2.098   0.576
 3198TIP3   OH2 9599   2.075   5.839   1.110
 3198TIP3    H1 9600   2.136   5.903   1.072
 3198TIP3    H2 9601   2.022   5.891   1.170
 3199TIP3   OH2 9602   4.180   3.589   0.615
 3199TIP3    H1 9603   4.108   3.530   0.637
 3199TIP3    H2 9604   4.140   3.656   0.558
 3200TIP3   OH2 9605   2.633   2.852   1.681
 3200TIP3    H1 9606   2.582   2.904   1.619
 3200TIP3    H2 9607   2.724   2.869   1.656
 3201TIP3   OH2 9608   1.351   5.555   0.467
 3201TIP3    H1 9609   1.337   5.546   0.373
 3201TIP3    H2 9610   1.312   5.639   0.490
 3202TIP3   OH2 9611   5.695   0.949   2.408
 3202TIP3    H1 9612   5.776   0.999   2.416
 3202TIP3    H2 9613   5.626   1.016   2.412
 3203TIP3   OH2 9614   1.535   5.745   0.882
 3203TIP3    H1 9615   1.461   5.730   0.942
 3203TIP3    H2 9616   1.518   5.685   0.809
 3204TIP3   OH2 9617   4.701   2.748   3.452
 3204TIP3    H1 9618   4.682   2.660   3.422
 3204TIP3    H2 9619   4.775   2.737   3.513
 3205TIP3   OH2 9620   6.090   0.629   3.179
 3205TIP3    H1 9621   6.128   0.617   3.091
 3205TIP3    H2 9622   6.070   0.541   3.208
 3206TIP3   OH2 9623   5.920   3.461   1.902
 3206TIP3    H1 9624   6.006   3.418   1.900
 3206TIP3    H2 9625   5.874   3.425   1.826
 3207TIP3   OH2 9626   2.449   4.512   4.911
 3207TIP3    H1 9627   2.381   4.529   4.847
 3207TIP3    H2 9628   2.480   4.424   4.892
 3208TIP3   OH2 9629   5.815   4.565   4.465
 3208TIP3    H1 9630   5.801   4.480   4.424
 3208TIP3    H2 9631   5.730   4.608   4.463
 3209TIP3   OH2 9632   5.589   4.678   4.414
 3209TIP3    H1 9633   5.599   4.743   4.343
 3209TIP3    H2 9634   5.515   4.624   4.385
 3210TIP3   OH2 9635   1.214   5.537   3.563
 3210TIP3    H1 9636   1.281   5.547   3.630
 3210TIP3    H2 9637   1.262   5.500   3.488
 3211TIP3   OH2 9638   0.255   0.273   3.070
 3211TIP3    H1 9639   0.304   0.350   3.099
 3211TIP3    H2 9640   0.167   0.307   3.051
 3212TIP3   OH2 9641   5.489   4.965   0.821
 3212TIP3    H1 9642   5.535   5.044   0.793
 3212TIP3    H2 9643   5.516   4.952   0.912
 3213TIP3   OH2 9644   4.692   2.931   1.796
 3213TIP3    H1 9645   4.739   2.987   1.734
 3213TIP3    H2 9646   4.675   2.850   1.747
 3214TIP3   OH2 9647   5.504   1.492   3.357
 3214TIP3    H1 9648   5.524   1.439   3.434
 3214TIP3    H2 9649   5.537   1.440   3.283
 3215TIP3   OH2 9650   0.947   4.258   3.136
 3215TIP3    H1 9651   0.960   4.193   3.067
 3215TIP3    H2 9652   0.911   4.208   3.209
 3216TIP3   OH2 9653   3.739   3.572   4.744
 3216TIP3    H1 9654   3.740   3.658   4.702
 3216TIP3    H2 9655   3.768   3.512   4.675
 3217TIP3   OH2 9656   0.833   2.513   2.777
 3217TIP3    H1 9657   0.871   2.516   2.690
 3217TIP3    H2 9658   0.739   2.510   2.762
 3218TIP3   OH2 9659   5.144   4.063   3.091
 3218TIP3    H1 9660   5.092   4.065   3.171
 3218TIP3    H2 9661   5.140   4.152   3.057
 3219TIP3   OH2 9662   5.275   5.453   0.057
 3219TIP3    H1 9663   5.331   5.378   0.036
 3219TIP3    H2 9664   5.319   5.496   0.130
 3220TIP3   OH2 9665   5.722   4.317   1.136
 3220TIP3    H1 9666   5.664   4.256   1.180
 3220TIP3    H2 9667   5.674   4.400   1.134
 3221TIP3   OH2 9668   0.768   3.301   5.090
 3221TIP3    H1 9669   0.674   3.318   5.082
 3221TIP3    H2 9670   0.781   3.217   5.045
 3222TIP3   OH2 9671   6.225  -0.030   4.119
 3222TIP3    H1 9672   6.269  -0.051   4.201
 3222TIP3    H2 9673   6.295  -0.029   4.054
 3223TIP3   OH2 9674   5.972   1.944   4.348
 3223TIP3    H1 9675   6.058   1.924   4.312
 3223TIP3    H2 9676   5.984   1.940   4.443
 3224TIP3   OH2 9677   5.770   3.962   1.308
 3224TIP3    H1 9678   5.710   3.938   1.237
 3224TIP3    H2 9679   5.838   4.013   1.264
 3225TIP3   OH2 9680   0.703   5.814   1.889
 3225TIP3    H1 9681   0.697   5.718   1.891
 3225TIP3    H2 9682   0.683   5.838   1.799
 3226TIP3   OH2 9683   5.980   1.548   3.674
 3226TIP3    H1 9684   5.889   1.520   3.680
 3226TIP3    H2 9685   6.013   1.508   3.594
 3227TIP3   OH2 9686   0.059   2.313   5.030
 3227TIP3    H1 9687   0.018   2.399   5.039
 3227TIP3    H2 9688   0.045   2.270   5.114
 3228TIP3   OH2 9689   5.201   5.528   3.001
 3228TIP3    H1 9690   5.211   5.440   3.037
 3228TIP3    H2 9691   5.283   5.545   2.955
 3229TIP3   OH2 9692   2.328   5.348   2.602
 3229TIP3    H1 9693   2.299   5.425   2.552
 3229TIP3    H2 9694   2.423   5.360   2.611
 3230TIP3   OH2 9695   4.979   1.970   3.516
 3230TIP3    H1 9696   4.996   2.061   3.538
 3230TIP3    H2 9697   4.892   1.952   3.554
 3231TIP3   OH2 9698   3.687   4.891   3.197
 3231TIP3    H1 9699   3.603   4.918   3.235
 3231TIP3    H2 9700   3.749   4.958   3.227
 3232TIP3   OH2 9701   4.924   1.837   2.228
 3232TIP3    H1 9702   5.006   1.818   2.273
 3232TIP3    H2 9703   4.877   1.896   2.287
 3233TIP3   OH2 9704   5.764   1.193   4.462
 3233TIP3    H1 9705   5.699   1.136   4.503
 3233TIP3    H2 9706   5.848   1.162   4.495
 3234TIP3   OH2 9707   2.353   5.451   4.371
 3234TIP3    H1 9708   2.268   5.408   4.364
 3234TIP3    H2 9709   2.417   5.380   4.365
 3235TIP3   OH2 9710   1.762   4.870   3.295
 3235TIP3    H1 9711   1.692   4.807   3.313
 3235TIP3    H2 9712   1.720   4.956   3.306
 3236TIP3   OH2 9713   2.129   2.736   4.266
 3236TIP3    H1 9714   2.065   2.665   4.269
 3236TIP3    H2 9715   2.214   2.692   4.258
 3237TIP3   OH2 9716   3.123   1.620   3.470
 3237TIP3    H1 9717   3.132   1.535   3.428
 3237TIP3    H2 9718   3.138   1.603   3.563
 3238TIP3   OH2 9719   3.433   3.579   1.438
 3238TIP3    H1 9720   3.459   3.662   1.478
 3238TIP3    H2 9721   3.505   3.557   1.379
 3239TIP3   OH2 9722   3.884   1.894   4.203
 3239TIP3    H1 9723   3.867   1.983   4.173
 3239TIP3    H2 9724   3.817   1.841   4.159
 3240TIP3   OH2 9725   5.040   1.587   1.188
 3240TIP3    H1 9726   5.059   1.630   1.272
 3240TIP3    H2 9727   5.071   1.650   1.122
 3241TIP3   OH2 9728   0.703   5.940   3.321
 3241TIP3    H1 9729   0.650   6.013   3.288
 3241TIP3    H2 9730   0.671   5.927   3.411
 3242TIP3   OH2 9731   4.386   4.478   0.923
 3242TIP3    H1 9732   4.462   4.454   0.977
 3242TIP3    H2 9733   4.412   4.456   0.834
 3243TIP3   OH2 9734   6.361   3.291   3.555
 3243TIP3    H1 9735   6.368   3.379   3.593
 3243TIP3    H2 9736   6.312   3.241   3.619
 3244TIP3   OH2 9737   0.463   3.991   1.153
 3244TIP3    H1 9738   0.513   4.019   1.076
 3244TIP3    H2 9739   0.414   4.069   1.179
 3245TIP3   OH2 9740   3.387   5.651   0.271
 3245TIP3    H1 9741   3.376   5.705   0.193
 3245TIP3    H2 9742   3.407   5.564   0.237
 3246TIP3   OH2 9743   3.445   4.493   3.705
 3246TIP3    H1 9744   3.398   4.411   3.687
 3246TIP3    H2 9745   3.506   4.471   3.774
 3247TIP3   OH2 9746   2.096   3.101   0.564
 3247TIP3    H1 9747   2.071   3.013   0.591
 3247TIP3    H2 9748   2.062   3.109   0.475
 3248TIP3   OH2 9749   1.398   0.660   2.706
 3248TIP3    H1 9750   1.399   0.724   2.635
 3248TIP3    H2 9751   1.344   0.589   2.673
 3249TIP3   OH2 9752   3.884   4.090   0.395
 3249TIP3    H1 9753   3.970   4.055   0.370
 3249TIP3    H2 9754   3.857   4.038   0.470
 3250TIP3   OH2 9755   6.147   5.689   0.431
 3250TIP3    H1 9756   6.062   5.645   0.437
 3250TIP3    H2 9757   6.136   5.768   0.483
 3251TIP3   OH2 9758   2.757   5.380   0.526
 3251TIP3    H1 9759   2.685   5.412   0.581
 3251TIP3    H2 9760   2.834   5.427   0.557
 3252TIP3   OH2 9761   5.228   0.593   1.984
 3252TIP3    H1 9762   5.237   0.662   2.049
 3252TIP3    H2 9763   5.279   0.520   2.019
 3253TIP3   OH2 9764   0.006   0.506   0.981
 3253TIP3    H1 9765  -0.002   0.464   1.067
 3253TIP3    H2 9766   0.047   0.590   1.000
 3254TIP3   OH2 9767   5.248   5.255   3.069
 3254TIP3    H1 9768   5.226   5.182   3.012
 3254TIP3    H2 9769   5.250   5.218   3.157
 3255TIP3   OH2 9770   2.883   5.607   1.199
 3255TIP3    H1 9771   2.906   5.596   1.291
 3255TIP3    H2 9772   2.938   5.680   1.169
 3256TIP3   OH2 9773   2.883   5.450   0.783
 3256TIP3    H1 9774   2.892   5.543   0.803
 3256TIP3    H2 9775   2.930   5.405   0.853
 3257TIP3   OH2 9776   2.309   5.864   4.924
 3257TIP3    H1 9777   2.350   5.951   4.924
 3257TIP3    H2 9778   2.370   5.809   4.973
 3258TIP3   OH2 9779   1.068   4.368   3.681
 3258TIP3    H1 9780   1.164   4.370   3.683
 3258TIP3    H2 9781   1.046   4.387   3.589
 3259TIP3   OH2 9782   4.769   2.134   0.585
 3259TIP3    H1 9783   4.791   2.045   0.613
 3259TIP3    H2 9784   4.735   2.176   0.664
 3260TIP3   OH2 9785   6.358   5.332   2.384
 3260TIP3    H1 9786   6.395   5.284   2.458
 3260TIP3    H2 9787   6.291   5.388   2.422
 3261TIP3   OH2 9788   0.574   4.566   2.089
 3261TIP3    H1 9789   0.598   4.514   2.013
 3261TIP3    H2 9790   0.655   4.612   2.113
 3262TIP3   OH2 9791   4.617   4.989   4.496
 3262TIP3    H1 9792   4.571   4.910   4.467
 3262TIP3    H2 9793   4.573   5.060   4.450
 3263TIP3   OH2 9794   2.252   0.386   2.212
 3263TIP3    H1 9795   2.178   0.416   2.159
 3263TIP3    H2 9796   2.219   0.307   2.256
 3264TIP3   OH2 9797   1.050   4.754   4.379
 3264TIP3    H1 9798   1.046   4.659   4.392
 3264TIP3    H2 9799   1.043   4.766   4.284
 3265TIP3   OH2 9800   3.704   4.921   2.921
 3265TIP3    H1 9801   3.785   4.872   2.906
 3265TIP3    H2 9802   3.692   4.920   3.016
 3266TIP3   OH2 9803   4.916   2.206   3.805
 3266TIP3    H1 9804   4.921   2.301   3.804
 3266TIP3    H2 9805   4.928   2.182   3.897
 3267TIP3   OH2 9806   4.616   4.292   2.714
 3267TIP3    H1 9807   4.553   4.340   2.769
 3267TIP3    H2 9808   4.580   4.299   2.626
 3268TIP3   OH2 9809   0.212   2.866   4.337
 3268TIP3    H1 9810   0.170   2.808   4.274
 3268TIP3    H2 9811   0.141   2.917   4.375
 3269TIP3   OH2 9812   3.806   1.572   4.551
 3269TIP3    H1 9813   3.724   1.528   4.574
 3269TIP3    H2 9814   3.872   1.502   4.553
 3270TIP3   OH2 9815   6.202   3.446   2.204
 3270TIP3    H1 9816   6.185   3.402   2.121
 3270TIP3    H2 9817   6.272   3.509   2.183
 3271TIP3   OH2 9818   1.653   0.870   3.597
 3271TIP3    H1 9819   1.558   0.866   3.583
 3271TIP3    H2 9820   1.669   0.813   3.672
 3272TIP3   OH2 9821   1.035   4.692   2.859
 3272TIP3    H1 9822   1.101   4.705   2.791
 3272TIP3    H2 9823   1.034   4.597   2.873
 3273TIP3   OH2 9824   0.101  -0.009   3.967
 3273TIP3    H1 9825   0.132  -0.001   3.877
 3273TIP3    H2 9826   0.133   0.070   4.011
 3274TIP3   OH2 9827   3.594   5.417   3.986
 3274TIP3    H1 9828   3.566   5.504   3.958
 3274TIP3    H2 9829   3.569   5.359   3.915
 3275TIP3   OH2 9830   4.576   4.677   3.392
 3275TIP3    H1 9831   4.581   4.767   3.360
 3275TIP3    H2 9832   4.482   4.661   3.403
 3276TIP3   OH2 9833   3.710   5.132   1.019
 3276TIP3    H1 9834   3.771   5.064   1.050
 3276TIP3    H2 9835   3.740   5.212   1.061
 3277TIP3   OH2 9836   2.239   0.444   2.892
 3277TIP3    H1 9837   2.257   0.368   2.836
 3277TIP3    H2 9838   2.292   0.428   2.970
 3278TIP3   OH2 9839   3.007   0.054   0.051
 3278TIP3    H1 9840   3.037   0.077   0.138
 3278TIP3    H2 9841   2.957  -0.027   0.063
 3279TIP3   OH2 9842   2.640   4.698   4.793
 3279TIP3    H1 9843   2.555   4.661   4.814
 3279TIP3    H2 9844   2.691   4.623   4.762
 3280TIP3   OH2 9845   4.725   5.436   1.866
 3280TIP3    H1 9846   4.654   5.501   1.864
 3280TIP3    H2 9847   4.762   5.445   1.954
 3281TIP3   OH2 9848   3.976   3.694   1.675
 3281TIP3    H1 9849   3.882   3.681   1.687
 3281TIP3    H2 9850   4.015   3.611   1.703
 3282TIP3   OH2 9851   2.058   2.697   1.464
 3282TIP3    H1 9852   1.965   2.672   1.463
 3282TIP3    H2 9853   2.070   2.746   1.383
 3283TIP3   OH2 9854   4.116   5.443   0.119
 3283TIP3    H1 9855   4.149   5.530   0.142
 3283TIP3    H2 9856   4.154   5.385   0.185
 3284TIP3   OH2 9857   5.655   3.675   4.981
 3284TIP3    H1 9858   5.738   3.695   4.937
 3284TIP3    H2 9859   5.609   3.759   4.984
 3285TIP3   OH2 9860   4.440   3.616   2.528
 3285TIP3    H1 9861   4.534   3.597   2.525
 3285TIP3    H2 9862   4.412   3.614   2.437
 3286TIP3   OH2 9863   2.694   0.338   2.850
 3286TIP3    H1 9864   2.762   0.309   2.911
 3286TIP3    H2 9865   2.620   0.281   2.868
 3287TIP3   OH2 9866   4.391   3.063   2.746
 3287TIP3    H1 9867   4.479   3.094   2.767
 3287TIP3    H2 9868   4.360   3.020   2.825
 3288TIP3   OH2 9869   5.354   3.974   4.240
 3288TIP3    H1 9870   5.399   4.037   4.184
 3288TIP3    H2 9871   5.295   4.028   4.294
 3289TIP3   OH2 9872   2.267   1.228   0.432
 3289TIP3    H1 9873   2.263   1.297   0.366
 3289TIP3    H2 9874   2.177   1.222   0.465
 3290TIP3   OH2 9875   5.791   0.485   2.242
 3290TIP3    H1 9876   5.808   0.401   2.200
 3290TIP3    H2 9877   5.716   0.522   2.194
 3291TIP3   OH2 9878   5.962   5.926   2.670
 3291TIP3    H1 9879   5.880   5.954   2.630
 3291TIP3    H2 9880   6.010   5.882   2.599
 3292TIP3   OH2 9881   4.846   5.528   2.794
 3292TIP3    H1 9882   4.832   5.481   2.712
 3292TIP3    H2 9883   4.922   5.583   2.777
 3293TIP3   OH2 9884   1.674   3.528   3.106
 3293TIP3    H1 9885   1.672   3.540   3.011
 3293TIP3    H2 9886   1.723   3.604   3.139
 3294TIP3   OH2 9887   5.913   2.792   2.823
 3294TIP3    H1 9888   6.006   2.793   2.844
 3294TIP3    H2 9889   5.906   2.838   2.740
 3295TIP3   OH2 9890   3.283   0.525   1.793
 3295TIP3    H1 9891   3.304   0.433   1.806
 3295TIP3    H2 9892   3.326   0.570   1.865
 3296TIP3   OH2 9893   2.209   0.026   0.426
 3296TIP3    H1 9894   2.296  -0.013   0.432
 3296TIP3    H2 9895   2.170  -0.013   0.348
 3297TIP3   OH2 9896   3.910   1.815   2.775
 3297TIP3    H1 9897   3.900   1.895   2.827
 3297TIP3    H2 9898   4.005   1.800   2.771
 3298TIP3   OH2 9899   3.695   4.386   3.346
 3298TIP3    H1 9900   3.787   4.391   3.370
 3298TIP3    H2 9901   3.689   4.434   3.263
 3299TIP3   OH2 9902   4.852   5.531   1.654
 3299TIP3    H1 9903   4.792   5.603   1.630
 3299TIP3    H2 9904   4.827   5.509   1.744
 3300TIP3   OH2 9905   2.482   0.884   4.091
 3300TIP3    H1 9906   2.460   0.977   4.094
 3300TIP3    H2 9907   2.403   0.839   4.123
 3301TIP3   OH2 9908   4.721   5.871   1.805
 3301TIP3    H1 9909   4.631   5.883   1.772
 3301TIP3    H2 9910   4.718   5.788   1.852
 3302TIP3   OH2 9911   5.634   1.631   4.398
 3302TIP3    H1 9912   5.661   1.552   4.351
 3302TIP3    H2 9913   5.539   1.627   4.400
 3303TIP3   OH2 9914   4.959   1.898   3.869
 3303TIP3    H1 9915   4.873   1.907   3.828
 3303TIP3    H2 9916   4.955   1.956   3.945
 3304TIP3   OH2 9917   4.860   5.679   1.309
 3304TIP3    H1 9918   4.830   5.700   1.220
 3304TIP3    H2 9919   4.788   5.707   1.366
 3305TIP3   OH2 9920   1.757   0.470   3.337
 3305TIP3    H1 9921   1.764   0.382   3.299
 3305TIP3    H2 9922   1.679   0.466   3.392
 3306TIP3   OH2 9923   4.547   3.260   0.207
 3306TIP3    H1 9924   4.591   3.344   0.219
 3306TIP3    H2 9925   4.587   3.203   0.273
 3307TIP3   OH2 9926   3.684   2.628   4.099
 3307TIP3    H1 9927   3.667   2.625   4.193
 3307TIP3    H2 9928   3.741   2.704   4.087
 3308TIP3   OH2 9929   0.169   5.220   0.487
 3308TIP3    H1 9930   0.234   5.249   0.550
 3308TIP3    H2 9931   0.085   5.247   0.524
 3309TIP3   OH2 9932   4.964   2.635   0.966
 3309TIP3    H1 9933   4.972   2.670   0.877
 3309TIP3    H2 9934   5.051   2.645   1.004
 3310TIP3   OH2 9935   4.866   0.141   0.163
 3310TIP3    H1 9936   4.807   0.153   0.238
 3310TIP3    H2 9937   4.828   0.194   0.093
 3311TIP3   OH2 9938   0.002   2.990   0.655
 3311TIP3    H1 9939   0.007   3.031   0.741
 3311TIP3    H2 9940   0.087   2.948   0.644
 3312TIP3   OH2 9941   5.895   0.783   0.723
 3312TIP3    H1 9942   5.913   0.831   0.643
 3312TIP3    H2 9943   5.833   0.838   0.771
 3313TIP3   OH2 9944   4.501   3.051   4.694
 3313TIP3    H1 9945   4.496   2.955   4.693
 3313TIP3    H2 9946   4.472   3.077   4.606
 3314TIP3   OH2 9947   5.266   4.071  -0.017
 3314TIP3    H1 9948   5.210   3.993  -0.013
 3314TIP3    H2 9949   5.233   4.128   0.052
 3315TIP3   OH2 9950   5.205   1.107   2.656
 3315TIP3    H1 9951   5.254   1.159   2.593
 3315TIP3    H2 9952   5.270   1.083   2.723
 3316TIP3   OH2 9953   2.440   4.459   1.996
 3316TIP3    H1 9954   2.520   4.477   1.947
 3316TIP3    H2 9955   2.447   4.367   2.022
 3317TIP3   OH2 9956   4.479   2.285   0.498
 3317TIP3    H1 9957   4.429   2.209   0.468
 3317TIP3    H2 9958   4.533   2.309   0.423
 3318TIP3   OH2 9959   1.903   1.751   0.899
 3318TIP3    H1 9960   1.955   1.745   0.819
 3318TIP3    H2 9961   1.965   1.733   0.970
 3319TIP3   OH2 9962   2.183   4.532   1.814
 3319TIP3    H1 9963   2.164   4.601   1.750
 3319TIP3    H2 9964   2.152   4.568   1.897
 3320TIP3   OH2 9965   0.274   3.419   4.141
 3320TIP3    H1 9966   0.226   3.403   4.222
 3320TIP3    H2 9967   0.343   3.480   4.165
 3321TIP3   OH2 9968   1.303   5.147   0.992
 3321TIP3    H1 9969   1.382   5.093   0.997
 3321TIP3    H2 9970   1.245   5.100   0.932
 3322TIP3   OH2 9971   3.325   3.210   0.316
 3322TIP3    H1 9972   3.309   3.115   0.316
 3322TIP3    H2 9973   3.240   3.248   0.295
 3323TIP3   OH2 9974   0.166   2.836   2.375
 3323TIP3    H1 9975   0.128   2.868   2.457
 3323TIP3    H2 9976   0.260   2.852   2.384
 3324TIP3   OH2 9977   0.795   3.073   4.898
 3324TIP3    H1 9978   0.890   3.061   4.902
 3324TIP3    H2 9979   0.777   3.093   4.806
 3325TIP3   OH2 9980   4.412   4.357   0.380
 3325TIP3    H1 9981   4.439   4.433   0.327
 3325TIP3    H2 9982   4.344   4.314   0.328
 3326TIP3   OH2 9983   0.048   5.143   3.811
 3326TIP3    H1 9984   0.100   5.223   3.800
 3326TIP3    H2 9985  -0.043   5.173   3.810
 3327TIP3   OH2 9986   2.936   0.277   3.026
 3327TIP3    H1 9987   2.969   0.335   2.957
 3327TIP3    H2 9988   2.992   0.199   3.021
 3328TIP3   OH2 9989   0.151   3.106   0.339
 3328TIP3    H1 9990   0.083   3.142   0.282
 3328TIP3    H2 9991   0.195   3.184   0.375
 3329TIP3   OH2 9992   3.710   4.514   3.850
 3329TIP3    H1 9993   3.694   4.450   3.919
 3329TIP3    H2 9994   3.750   4.589   3.895
 3330TIP3   OH2 9995   4.451   4.032   1.989
 3330TIP3    H1 9996   4.463   4.099   2.056
 3330TIP3    H2 9997   4.520   4.049   1.925
 3331TIP3   OH2 9998   1.404   3.504   3.193
 3331TIP3    H1 9999   1.493   3.504   3.157
 3331TIP3    H210000   1.416   3.490   3.287
 3332TIP3   OH210001   2.597   3.785   1.238
 3332TIP3    H110002   2.666   3.783   1.171
 3332TIP3    H210003   2.516   3.796   1.188
 3333TIP3   OH210004   4.003   4.839   5.081
 3333TIP3    H110005   3.950   4.815   5.157
 3333TIP3    H210006   3.948   4.899   5.031
 3334TIP3   OH210007   0.959   0.134   3.114
 3334TIP3    H110008   1.050   0.131   3.143
 3334TIP3    H210009   0.964   0.160   3.022
 3335TIP3   OH210010   4.807   0.754   4.509
 3335TIP3    H110011   4.856   0.717   4.436
 3335TIP3    H210012   4.749   0.819   4.470
 3336TIP3   OH210013   4.327   1.837   4.756
 3336TIP3    H110014   4.297   1.916   4.802
 3336TIP3    H210015   4.356   1.778   4.826
 3337TIP3   OH210016   5.607   5.563   1.124
 3337TIP3    H110017   5.526   5.607   1.151
 3337TIP3    H210018   5.620   5.590   1.033
 3338TIP3   OH210019   5.833   2.221   2.305
 3338TIP3    H110020   5.785   2.288   2.354
 3338TIP3    H210021   5.898   2.270   2.255
 3339TIP3   OH210022   3.058   5.570   4.474
 3339TIP3    H110023   2.990   5.568   4.541
 3339TIP3    H210024   3.096   5.482   4.477
 3340TIP3   OH210025   1.165   2.471   0.533
 3340TIP3    H110026   1.189   2.542   0.473
 3340TIP3    H210027   1.094   2.425   0.489
 3341TIP3   OH210028   3.095   2.923   0.675
 3341TIP3    H110029   3.167   2.953   0.730
 3341TIP3    H210030   3.096   2.983   0.600
 3342TIP3   OH210031   0.487   0.158   2.710
 3342TIP3    H110032   0.450   0.180   2.624
 3342TIP3    H210033   0.483   0.063   2.714
 3343TIP3   OH210034   2.626   1.851   1.502
 3343TIP3    H110035   2.590   1.940   1.496
 3343TIP3    H210036   2.618   1.817   1.413
 3344TIP3   OH210037   2.963   3.608   0.156
 3344TIP3    H110038   2.992   3.532   0.206
 3344TIP3    H210039   2.878   3.583   0.121
 3345TIP3   OH210040   4.986   5.721   2.438
 3345TIP3    H110041   4.942   5.785   2.382
 3345TIP3    H210042   5.054   5.683   2.383
 3346TIP3   OH210043   6.133   1.713   5.130
 3346TIP3    H110044   6.115   1.718   5.224
 3346TIP3    H210045   6.051   1.738   5.088
 3347TIP3   OH210046   1.793   0.783   4.336
 3347TIP3    H110047   1.880   0.769   4.372
 3347TIP3    H210048   1.800   0.863   4.285
 3348TIP3   OH210049   5.673   4.009   4.243
 3348TIP3    H110050   5.661   4.043   4.155
 3348TIP3    H210051   5.663   3.914   4.234
 3349TIP3   OH210052   5.467   0.191   0.718
 3349TIP3    H110053   5.420   0.230   0.792
 3349TIP3    H210054   5.493   0.266   0.664
 3350TIP3   OH210055   3.087   3.289   4.873
 3350TIP3    H110056   3.093   3.201   4.834
 3350TIP3    H210057   3.044   3.275   4.957
 3351TIP3   OH210058   2.040   2.877   1.221
 3351TIP3    H110059   2.094   2.949   1.190
 3351TIP3    H210060   1.976   2.918   1.279
 3352TIP3   OH210061   2.127   2.740   3.358
 3352TIP3    H110062   2.119   2.651   3.325
 3352TIP3    H210063   2.105   2.795   3.283
 3353TIP3   OH210064   3.787   4.387   0.749
 3353TIP3    H110065   3.795   4.303   0.703
 3353TIP3    H210066   3.818   4.452   0.686
 3354TIP3   OH210067   3.701   2.614   1.523
 3354TIP3    H110068   3.666   2.562   1.451
 3354TIP3    H210069   3.664   2.701   1.510
 3355TIP3   OH210070   4.023   5.459   1.704
 3355TIP3    H110071   4.031   5.427   1.794
 3355TIP3    H210072   4.038   5.382   1.649
 3356TIP3   OH210073   4.538   2.607   4.165
 3356TIP3    H110074   4.472   2.643   4.106
 3356TIP3    H210075   4.620   2.615   4.117
 3357TIP3   OH210076   4.049   3.486   4.752
 3357TIP3    H110077   4.124   3.428   4.742
 3357TIP3    H210078   4.000   3.477   4.670
 3358TIP3   OH210079   4.719   4.853   2.064
 3358TIP3    H110080   4.720   4.883   2.155
 3358TIP3    H210081   4.633   4.879   2.031
 3359TIP3   OH210082   1.541   2.835   2.823
 3359TIP3    H110083   1.448   2.835   2.843
 3359TIP3    H210084   1.550   2.776   2.748
 3360TIP3   OH210085   3.848   5.611   3.878
 3360TIP3    H110086   3.904   5.634   3.805
 3360TIP3    H210087   3.876   5.669   3.949
 3361TIP3   OH210088   1.527   3.543   3.741
 3361TIP3    H110089   1.524   3.481   3.814
 3361TIP3    H210090   1.460   3.609   3.762
 3362TIP3   OH210091   3.974   1.743   0.849
 3362TIP3    H110092   4.032   1.768   0.778
 3362TIP3    H210093   3.994   1.804   0.920
 3363TIP3   OH210094   0.247   5.054   1.921
 3363TIP3    H110095   0.342   5.047   1.917
 3363TIP3    H210096   0.229   5.091   2.007
 3364TIP3   OH210097   3.474   3.438   3.625
 3364TIP3    H110098   3.422   3.406   3.698
 3364TIP3    H210099   3.482   3.532   3.640
 3365TIP3   OH210100   3.430   2.609   3.267
 3365TIP3    H110101   3.349   2.560   3.250
 3365TIP3    H210102   3.407   2.669   3.338
 3366TIP3   OH210103   0.392   4.710   1.006
 3366TIP3    H110104   0.395   4.641   1.072
 3366TIP3    H210105   0.300   4.716   0.982
 3367TIP3   OH210106   0.671   5.338   0.599
 3367TIP3    H110107   0.702   5.394   0.670
 3367TIP3    H210108   0.698   5.383   0.519
 3368TIP3   OH210109   4.800   3.810   1.681
 3368TIP3    H110110   4.815   3.830   1.589
 3368TIP3    H210111   4.751   3.884   1.715
 3369TIP3   OH210112   4.272   0.777   5.094
 3369TIP3    H110113   4.313   0.845   5.148
 3369TIP3    H210114   4.272   0.814   5.006
 3370TIP3   OH210115   0.649   5.678   4.495
 3370TIP3    H110116   0.632   5.705   4.585
 3370TIP3    H210117   0.740   5.650   4.495
 3371TIP3   OH210118   1.972   2.532   4.642
 3371TIP3    H110119   1.949   2.604   4.583
 3371TIP3    H210120   1.939   2.453   4.599
 3372TIP3   OH210121   0.575   3.601   2.360
 3372TIP3    H110122   0.666   3.574   2.377
 3372TIP3    H210123   0.581   3.661   2.286
 3373TIP3   OH210124   2.912   5.728   2.021
 3373TIP3    H110125   2.979   5.783   1.981
 3373TIP3    H210126   2.829   5.762   1.987
 3374TIP3   OH210127   4.226   0.761   3.217
 3374TIP3    H110128   4.260   0.807   3.294
 3374TIP3    H210129   4.300   0.761   3.155
 3375TIP3   OH210130   5.172   4.268   0.154
 3375TIP3    H110131   5.242   4.256   0.218
 3375TIP3    H210132   5.102   4.311   0.203
 3376TIP3   OH210133   0.122   3.165   0.856
 3376TIP3    H110134   0.151   3.257   0.850
 3376TIP3    H210135   0.203   3.116   0.871
 3377TIP3   OH210136   3.715   4.061   3.200
 3377TIP3    H110137   3.635   4.100   3.164
 3377TIP3    H210138   3.684   3.991   3.257
 3378TIP3   OH210139   5.444   3.087   0.022
 3378TIP3    H110140   5.497   3.153   0.068
 3378TIP3    H210141   5.366   3.135  -0.005
 3379TIP3   OH210142   3.298   0.705   4.788
 3379TIP3    H110143   3.382   0.706   4.834
 3379TIP3    H210144   3.244   0.644   4.838
 3380TIP3   OH210145   0.195   4.225   4.524
 3380TIP3    H110146   0.207   4.203   4.616
 3380TIP3    H210147   0.229   4.314   4.516
 3381TIP3   OH210148   2.329   3.954   2.863
 3381TIP3    H110149   2.418   3.991   2.860
 3381TIP3    H210150   2.302   3.964   2.954
 3382TIP3   OH210151   2.597   1.941   0.755
 3382TIP3    H110152   2.575   1.850   0.776
 3382TIP3    H210153   2.613   1.940   0.661
 3383TIP3   OH210154   4.608   4.070   3.885
 3383TIP3    H110155   4.521   4.111   3.879
 3383TIP3    H210156   4.651   4.117   3.956
 3384TIP3   OH210157   0.698   3.729   1.050
 3384TIP3    H110158   0.650   3.672   0.990
 3384TIP3    H210159   0.694   3.816   1.009
 3385TIP3   OH210160   1.504   4.639   4.416
 3385TIP3    H110161   1.510   4.735   4.410
 3385TIP3    H210162   1.464   4.623   4.502
 3386TIP3   OH210163   1.502   5.781   2.985
 3386TIP3    H110164   1.495   5.846   2.914
 3386TIP3    H210165   1.458   5.704   2.950
 3387TIP3   OH210166   3.128   3.505   1.489
 3387TIP3    H110167   3.112   3.423   1.535
 3387TIP3    H210168   3.208   3.488   1.438
 3388TIP3   OH210169   2.713   3.850   3.844
 3388TIP3    H110170   2.795   3.825   3.802
 3388TIP3    H210171   2.644   3.813   3.788
 3389TIP3   OH210172   1.507   3.843   4.698
 3389TIP3    H110173   1.597   3.812   4.706
 3389TIP3    H210174   1.501   3.876   4.609
 3390TIP3   OH210175   1.810   3.041   2.601
 3390TIP3    H110176   1.831   2.949   2.618
 3390TIP3    H210177   1.830   3.086   2.683
 3391TIP3   OH210178   3.081   5.123   1.000
 3391TIP3    H110179   3.032   5.082   1.071
 3391TIP3    H210180   3.040   5.090   0.920
 3392TIP3   OH210181   0.047   5.851   0.850
 3392TIP3    H110182   0.008   5.937   0.864
 3392TIP3    H210183  -0.027   5.795   0.825
 3393TIP3   OH210184   5.401   1.633   5.119
 3393TIP3    H110185   5.482   1.683   5.124
 3393TIP3    H210186   5.354   1.655   5.200
 3394TIP3   OH210187   1.302   3.566   4.357
 3394TIP3    H110188   1.296   3.628   4.429
 3394TIP3    H210189   1.251   3.491   4.385
 3395TIP3   OH210190   2.614   2.165   3.324
 3395TIP3    H110191   2.592   2.084   3.370
 3395TIP3    H210192   2.643   2.136   3.237
 3396TIP3   OH210193   0.628   2.248   2.159
 3396TIP3    H110194   0.653   2.290   2.077
 3396TIP3    H210195   0.710   2.209   2.191
 3397TIP3   OH210196   4.922   3.366   3.143
 3397TIP3    H110197   4.966   3.445   3.112
 3397TIP3    H210198   4.831   3.376   3.114
 3398TIP3   OH210199   2.590   4.617   5.158
 3398TIP3    H110200   2.583   4.534   5.207
 3398TIP3    H210201   2.550   4.599   5.074
 3399TIP3   OH210202   3.089   3.689   1.206
 3399TIP3    H110203   3.137   3.768   1.231
 3399TIP3    H210204   3.052   3.656   1.288
 3400TIP3   OH210205   4.731   2.326   1.091
 3400TIP3    H110206   4.693   2.284   1.168
 3400TIP3    H210207   4.741   2.418   1.117
 3401TIP3   OH210208   4.656   5.670   0.572
 3401TIP3    H110209   4.739   5.655   0.617
 3401TIP3    H210210   4.679   5.720   0.494
 3402TIP3   OH210211   0.637   1.461   0.329
 3402TIP3    H110212   0.580   1.537   0.323
 3402TIP3    H210213   0.608   1.416   0.408
 3403TIP3   OH210214   5.894   3.426   0.650
 3403TIP3    H110215   5.986   3.410   0.673
 3403TIP3    H210216   5.857   3.338   0.636
 3404TIP3   OH210217   2.783   1.942   4.533
 3404TIP3    H110218   2.749   1.952   4.622
 3404TIP3    H210219   2.717   1.984   4.477
 3405TIP3   OH210220   2.071   0.944   0.586
 3405TIP3    H110221   2.138   0.943   0.654
 3405TIP3    H210222   2.098   0.875   0.524
 3406TIP3   OH210223   5.087   2.026   1.247
 3406TIP3    H110224   5.066   2.119   1.248
 3406TIP3    H210225   5.182   2.023   1.248
 3407TIP3   OH210226   4.395   5.730   0.569
 3407TIP3    H110227   4.487   5.705   0.560
 3407TIP3    H210228   4.361   5.669   0.635
 3408TIP3   OH210229   4.591   3.838   0.346
 3408TIP3    H110230   4.648   3.804   0.415
 3408TIP3    H210231   4.503   3.828   0.381
 3409TIP3   OH210232   0.464   1.339   5.062
 3409TIP3    H110233   0.400   1.334   5.133
 3409TIP3    H210234   0.510   1.255   5.064
 3410TIP3   OH210235   1.181   3.738   2.482
 3410TIP3    H110236   1.178   3.722   2.576
 3410TIP3    H210237   1.244   3.810   2.472
 3411TIP3   OH210238   5.977   1.523   3.127
 3411TIP3    H110239   5.992   1.447   3.070
 3411TIP3    H210240   6.018   1.596   3.081
 3412TIP3   OH210241   0.513   0.447   1.478
 3412TIP3    H110242   0.607   0.426   1.473
 3412TIP3    H210243   0.505   0.530   1.431
 3413TIP3   OH210244   3.594   2.233   5.176
 3413TIP3    H110245   3.542   2.269   5.248
 3413TIP3    H210246   3.622   2.309   5.126
 3414TIP3   OH210247   1.385   3.154   2.739
 3414TIP3    H110248   1.327   3.090   2.781
 3414TIP3    H210249   1.400   3.220   2.807
 3415TIP3   OH210250   3.513   4.585   1.919
 3415TIP3    H110251   3.487   4.507   1.868
 3415TIP3    H210252   3.461   4.656   1.881
 3416TIP3   OH210253   3.352   2.917   3.692
 3416TIP3    H110254   3.300   2.941   3.769
 3416TIP3    H210255   3.362   2.999   3.643
 3417TIP3   OH210256   4.332   2.330   4.094
 3417TIP3    H110257   4.379   2.350   4.175
 3417TIP3    H210258   4.394   2.353   4.025
 3418TIP3   OH210259   4.469   4.923   1.982
 3418TIP3    H110260   4.463   4.949   1.890
 3418TIP3    H210261   4.382   4.888   2.003
 3419TIP3   OH210262   5.329   4.701   2.894
 3419TIP3    H110263   5.314   4.613   2.860
 3419TIP3    H210264   5.245   4.728   2.931
 3420TIP3   OH210265   4.280   2.893   1.436
 3420TIP3    H110266   4.294   2.966   1.496
 3420TIP3    H210267   4.330   2.917   1.358
 3421TIP3   OH210268   6.199   4.080   4.055
 3421TIP3    H110269   6.113   4.116   4.033
 3421TIP3    H210270   6.203   4.083   4.150
 3422TIP3   OH210271   0.618   4.126   1.715
 3422TIP3    H110272   0.690   4.181   1.746
 3422TIP3    H210273   0.553   4.130   1.785
 3423TIP3   OH210274   0.679   5.548   1.908
 3423TIP3    H110275   0.624   5.471   1.925
 3423TIP3    H210276   0.743   5.547   1.980
 3424TIP3   OH210277   5.559   4.743   0.642
 3424TIP3    H110278   5.524   4.813   0.697
 3424TIP3    H210279   5.572   4.670   0.702
 3425TIP3   OH210280   5.199   2.550   4.648
 3425TIP3    H110281   5.154   2.467   4.662
 3425TIP3    H210282   5.181   2.601   4.727
 3426TIP3   OH210283   0.325   4.756   2.041
 3426TIP3    H110284   0.245   4.708   2.021
 3426TIP3    H210285   0.392   4.687   2.052
 3427TIP3   OH210286   5.345   2.612   1.690
 3427TIP3    H110287   5.383   2.528   1.664
 3427TIP3    H210288   5.253   2.592   1.710
 3428TIP3   OH210289   3.863   5.153   3.957
 3428TIP3    H110290   3.787   5.193   4.000
 3428TIP3    H210291   3.828   5.073   3.916
 3429TIP3   OH210292   3.121   5.936   2.623
 3429TIP3    H110293   3.199   5.970   2.666
 3429TIP3    H210294   3.148   5.851   2.589
 3430TIP3   OH210295   6.342   4.740   2.935
 3430TIP3    H110296   6.345   4.795   3.013
 3430TIP3    H210297   6.420   4.764   2.886
 3431TIP3   OH210298   3.571   2.209   4.379
 3431TIP3    H110299   3.573   2.235   4.287
 3431TIP3    H210300   3.661   2.219   4.409
 3432TIP3   OH210301   1.849   2.662   4.893
 3432TIP3    H110302   1.890   2.577   4.877
 3432TIP3    H210303   1.761   2.641   4.924
 3433TIP3   OH210304   1.952   5.834   4.343
 3433TIP3    H110305   1.924   5.757   4.392
 3433TIP3    H210306   2.042   5.851   4.373
 3434TIP3   OH210307   1.851   5.947   1.937
 3434TIP3    H110308   1.818   5.857   1.944
 3434TIP3    H210309   1.939   5.942   1.973
 3435TIP3   OH210310   1.173   5.296   4.064
 3435TIP3    H110311   1.218   5.252   4.137
 3435TIP3    H210312   1.221   5.378   4.052
 3436TIP3   OH210313   1.296   5.643   4.778
 3436TIP3    H110314   1.350   5.710   4.736
 3436TIP3    H210315   1.328   5.640   4.868
 3437TIP3   OH210316   5.325   1.922   2.870
 3437TIP3    H110317   5.339   1.902   2.778
 3437TIP3    H210318   5.348   1.841   2.916
 3438TIP3   OH210319   3.217   0.933   2.184
 3438TIP3    H110320   3.209   0.879   2.263
 3438TIP3    H210321   3.288   0.891   2.134
 3439TIP3   OH210322   3.385   1.005   0.947
 3439TIP3    H110323   3.397   0.917   0.982
 3439TIP3    H210324   3.449   1.012   0.877
 3440TIP3   OH210325   2.050   5.772   3.534
 3440TIP3    H110326   1.975   5.787   3.476
 3440TIP3    H210327   2.096   5.856   3.536
 3441TIP3   OH210328   5.561   2.645   2.011
 3441TIP3    H110329   5.503   2.674   2.082
 3441TIP3    H210330   5.569   2.721   1.954
 3442TIP3   OH210331   0.324   0.272   1.408
 3442TIP3    H110332   0.384   0.339   1.440
 3442TIP3    H210333   0.367   0.236   1.330
 3443TIP3   OH210334   6.024   5.164   0.612
 3443TIP3    H110335   6.016   5.223   0.687
 3443TIP3    H210336   6.092   5.102   0.637
 3444TIP3   OH210337   3.538   1.650   3.643
 3444TIP3    H110338   3.593   1.654   3.721
 3444TIP3    H210339   3.479   1.576   3.659
 3445TIP3   OH210340   3.210   0.873   4.593
 3445TIP3    H110341   3.256   0.825   4.662
 3445TIP3    H210342   3.163   0.943   4.640
 3446TIP3   OH210343   4.248   5.124   2.057
 3446TIP3    H110344   4.194   5.046   2.045
 3446TIP3    H210345   4.329   5.091   2.096
 3447TIP3   OH210346   3.303   5.759   1.002
 3447TIP3    H110347   3.346   5.795   1.080
 3447TIP3    H210348   3.360   5.783   0.930
 3448TIP3   OH210349   1.284   1.914   2.325
 3448TIP3    H110350   1.215   1.949   2.268
 3448TIP3    H210351   1.317   1.838   2.277
 3449TIP3   OH210352   0.509   1.013   1.720
 3449TIP3    H110353   0.602   0.999   1.739
 3449TIP3    H210354   0.506   1.029   1.625
 3450TIP3   OH210355   1.640   4.439   4.300
 3450TIP3    H110356   1.732   4.463   4.288
 3450TIP3    H210357   1.601   4.516   4.343
 3451TIP3   OH210358   4.695   4.390   3.378
 3451TIP3    H110359   4.626   4.326   3.363
 3451TIP3    H210360   4.659   4.473   3.346
 3452TIP3   OH210361   4.449   2.913   0.261
 3452TIP3    H110362   4.520   2.955   0.310
 3452TIP3    H210363   4.494   2.862   0.194
 3453TIP3   OH210364   1.198   1.996   3.583
 3453TIP3    H110365   1.147   1.923   3.618
 3453TIP3    H210366   1.229   2.043   3.660
 3454TIP3   OH210367   2.989   2.630   2.410
 3454TIP3    H110368   3.015   2.595   2.496
 3454TIP3    H210369   3.071   2.660   2.372
 3455TIP3   OH210370   4.486   1.590   0.490
 3455TIP3    H110371   4.558   1.643   0.454
 3455TIP3    H210372   4.447   1.645   0.558
 3456TIP3   OH210373   6.070   5.121   3.535
 3456TIP3    H110374   6.092   5.029   3.545
 3456TIP3    H210375   5.975   5.125   3.552
 3457TIP3   OH210376   6.076   2.007   3.437
 3457TIP3    H110377   6.171   2.009   3.429
 3457TIP3    H210378   6.049   1.927   3.391
 3458TIP3   OH210379   2.744   1.494   1.322
 3458TIP3    H110380   2.838   1.510   1.308
 3458TIP3    H210381   2.701   1.561   1.269
 3459TIP3   OH210382   4.051   0.479   0.709
 3459TIP3    H110383   4.051   0.413   0.640
 3459TIP3    H210384   4.137   0.520   0.702
 3460TIP3   OH210385   0.949   0.544   4.181
 3460TIP3    H110386   1.028   0.509   4.222
 3460TIP3    H210387   0.906   0.595   4.251
 3461TIP3   OH210388   4.935   4.706   5.049
 3461TIP3    H110389   4.987   4.667   5.120
 3461TIP3    H210390   4.844   4.694   5.076
 3462TIP3   OH210391   1.695   2.347   4.542
 3462TIP3    H110392   1.644   2.281   4.497
 3462TIP3    H210393   1.774   2.301   4.572
 3463TIP3   OH210394   1.960   5.387   4.029
 3463TIP3    H110395   2.044   5.340   4.024
 3463TIP3    H210396   1.984   5.479   4.022
 3464TIP3   OH210397   5.308   4.473   4.661
 3464TIP3    H110398   5.236   4.467   4.598
 3464TIP3    H210399   5.358   4.549   4.632
 3465TIP3   OH210400   6.153   2.956   5.144
 3465TIP3    H110401   6.157   2.983   5.052
 3465TIP3    H210402   6.078   3.005   5.180
 3466TIP3   OH210403   4.658   1.188   2.287
 3466TIP3    H110404   4.721   1.118   2.270
 3466TIP3    H210405   4.712   1.266   2.297
 3467TIP3   OH210406   4.301   5.582   0.791
 3467TIP3    H110407   4.388   5.554   0.818
 3467TIP3    H210408   4.254   5.500   0.771
 3468TIP3   OH210409   4.045   2.345   2.617
 3468TIP3    H110410   3.970   2.288   2.608
 3468TIP3    H210411   4.105   2.318   2.547
 3469TIP3   OH210412   2.044   2.848   4.849
 3469TIP3    H110413   2.131   2.814   4.833
 3469TIP3    H210414   1.989   2.770   4.863
 3470TIP3   OH210415   3.941   2.493   1.440
 3470TIP3    H110416   4.002   2.562   1.414
 3470TIP3    H210417   3.856   2.536   1.441
 3471TIP3   OH210418   5.682   5.744   4.269
 3471TIP3    H110419   5.642   5.818   4.224
 3471TIP3    H210420   5.750   5.783   4.323
 3472TIP3   OH210421   5.097   3.563   1.548
 3472TIP3    H110422   5.117   3.628   1.480
 3472TIP3    H210423   5.154   3.586   1.621
 3473TIP3   OH210424   5.655   1.549   3.873
 3473TIP3    H110425   5.560   1.551   3.868
 3473TIP3    H210426   5.678   1.627   3.923
 3474TIP3   OH210427   2.365   1.963   4.708
 3474TIP3    H110428   2.430   1.971   4.778
 3474TIP3    H210429   2.416   1.966   4.627
 3475TIP3   OH210430   5.792   4.467   2.500
 3475TIP3    H110431   5.796   4.375   2.472
 3475TIP3    H210432   5.699   4.489   2.497
 3476TIP3   OH210433   2.730   2.445   1.091
 3476TIP3    H110434   2.780   2.373   1.051
 3476TIP3    H210435   2.702   2.498   1.016
 3477TIP3   OH210436   1.451   4.609   2.879
 3477TIP3    H110437   1.449   4.526   2.830
 3477TIP3    H210438   1.521   4.660   2.838
 3478TIP3   OH210439   1.693   5.073   4.268
 3478TIP3    H110440   1.770   5.084   4.211
 3478TIP3    H210441   1.729   5.070   4.356
 3479TIP3   OH210442   1.446   1.227   4.368
 3479TIP3    H110443   1.378   1.235   4.435
 3479TIP3    H210444   1.496   1.308   4.375
 3480TIP3   OH210445   0.071   2.291   0.041
 3480TIP3    H110446   0.023   2.288  -0.042
 3480TIP3    H210447   0.141   2.227   0.031
 3481TIP3   OH210448   5.844   5.726   5.196
 3481TIP3    H110449   5.799   5.757   5.118
 3481TIP3    H210450   5.935   5.752   5.184
 3482TIP3   OH210451   0.692   4.607   4.392
 3482TIP3    H110452   0.698   4.517   4.361
 3482TIP3    H210453   0.615   4.642   4.347
 3483TIP3   OH210454   4.305   5.601   3.190
 3483TIP3    H110455   4.400   5.605   3.173
 3483TIP3    H210456   4.294   5.528   3.250
 3484TIP3   OH210457   1.629   4.166   0.603
 3484TIP3    H110458   1.686   4.241   0.587
 3484TIP3    H210459   1.618   4.164   0.698
 3485TIP3   OH210460   0.821   3.954   3.165
 3485TIP3    H110461   0.761   3.968   3.091
 3485TIP3    H210462   0.773   3.895   3.223
 3486TIP3   OH210463   3.961   0.199   0.265
 3486TIP3    H110464   4.019   0.196   0.188
 3486TIP3    H210465   3.903   0.274   0.248
 3487TIP3   OH210466   3.411   5.128   4.316
 3487TIP3    H110467   3.335   5.084   4.356
 3487TIP3    H210468   3.373   5.186   4.250
 3488TIP3   OH210469   1.283   2.329   2.874
 3488TIP3    H110470   1.281   2.408   2.926
 3488TIP3    H210471   1.196   2.323   2.835
 3489TIP3   OH210472   1.675   3.597   0.872
 3489TIP3    H110473   1.678   3.545   0.792
 3489TIP3    H210474   1.606   3.557   0.925
 3490TIP3   OH210475   4.815   3.040   2.016
 3490TIP3    H110476   4.767   3.002   1.943
 3490TIP3    H210477   4.891   3.082   1.975
 3491TIP3   OH210478   1.002   1.872   4.034
 3491TIP3    H110479   1.033   1.847   4.122
 3491TIP3    H210480   0.979   1.964   4.042
 3492TIP3   OH210481   6.110   1.258   4.622
 3492TIP3    H110482   6.050   1.312   4.571
 3492TIP3    H210483   6.197   1.291   4.600
 3493TIP3   OH210484   2.976   4.944   2.047
 3493TIP3    H110485   2.931   4.981   2.122
 3493TIP3    H210486   2.916   4.956   1.974
 3494TIP3   OH210487   1.193   0.942   1.548
 3494TIP3    H110488   1.156   0.855   1.563
 3494TIP3    H210489   1.284   0.934   1.578
 3495TIP3   OH210490   0.002   0.224   5.137
 3495TIP3    H110491   0.065   0.153   5.124
 3495TIP3    H210492  -0.043   0.203   5.219
 3496TIP3   OH210493  -0.042   0.165   1.222
 3496TIP3    H110494  -0.002   0.112   1.291
 3496TIP3    H210495   0.031   0.205   1.176
 3497TIP3   OH210496   1.651   1.626   2.291
 3497TIP3    H110497   1.674   1.651   2.380
 3497TIP3    H210498   1.606   1.541   2.301
 3498TIP3   OH210499   3.715   4.406   2.928
 3498TIP3    H110500   3.790   4.454   2.963
 3498TIP3    H210501   3.684   4.460   2.855
 3499TIP3   OH210502   2.407   2.379   0.890
 3499TIP3    H110503   2.472   2.434   0.931
 3499TIP3    H210504   2.457   2.312   0.844
 3500TIP3   OH210505   3.211   1.217   0.176
 3500TIP3    H110506   3.168   1.228   0.091
 3500TIP3    H210507   3.298   1.255   0.164
 3501TIP3   OH210508   2.361   5.939   4.522
 3501TIP3    H110509   2.378   5.876   4.452
 3501TIP3    H210510   2.281   5.984   4.495
 3502TIP3   OH210511   1.344   3.919   2.893
 3502TIP3    H110512   1.416   3.965   2.939
 3502TIP3    H210513   1.306   3.862   2.960
 3503TIP3   OH210514   1.317   4.106   1.976
 3503TIP3    H110515   1.375   4.035   2.003
 3503TIP3    H210516   1.374   4.166   1.928
 3504TIP3   OH210517   5.696   2.158   3.621
 3504TIP3    H110518   5.752   2.095   3.668
 3504TIP3    H210519   5.747   2.181   3.543
 3505TIP3   OH210520   0.261   1.242   2.541
 3505TIP3    H110521   0.295   1.152   2.542
 3505TIP3    H210522   0.166   1.232   2.540
 3506TIP3   OH210523   0.899   5.443   2.431
 3506TIP3    H110524   0.937   5.427   2.345
 3506TIP3    H210525   0.843   5.367   2.447
 3507TIP3   OH210526   4.236   5.649   0.333
 3507TIP3    H110527   4.328   5.621   0.337
 3507TIP3    H210528   4.229   5.717   0.400
 3508TIP3   OH210529   5.275   2.043   0.110
 3508TIP3    H110530   5.368   2.034   0.128
 3508TIP3    H210531   5.234   2.054   0.195
 3509TIP3   OH210532   4.873   5.265   2.300
 3509TIP3    H110533   4.940   5.215   2.254
 3509TIP3    H210534   4.808   5.200   2.326
 3510TIP3   OH210535   4.079   3.691   1.249
 3510TIP3    H110536   4.136   3.615   1.251
 3510TIP3    H210537   4.128   3.757   1.199
 3511TIP3   OH210538   5.502   3.867   2.105
 3511TIP3    H110539   5.471   3.777   2.112
 3511TIP3    H210540   5.523   3.877   2.012
 3512TIP3   OH210541   3.929   1.652   4.317
 3512TIP3    H110542   3.888   1.734   4.287
 3512TIP3    H210543   3.865   1.614   4.377
 3513TIP3   OH210544   0.828   2.626   4.542
 3513TIP3    H110545   0.789   2.544   4.511
 3513TIP3    H210546   0.817   2.623   4.637
 3514TIP3   OH210547   6.206   1.183   1.689
 3514TIP3    H110548   6.178   1.216   1.775
 3514TIP3    H210549   6.124   1.177   1.639
 3515TIP3   OH210550   5.807   1.162   0.432
 3515TIP3    H110551   5.751   1.106   0.378
 3515TIP3    H210552   5.750   1.188   0.505
 3516TIP3   OH210553   0.454   1.081   3.400
 3516TIP3    H110554   0.528   1.069   3.341
 3516TIP3    H210555   0.493   1.089   3.487
 3517TIP3   OH210556   0.185   2.440   0.963
 3517TIP3    H110557   0.249   2.505   0.993
 3517TIP3    H210558   0.195   2.366   1.024
 3518TIP3   OH210559   4.137   5.933   0.375
 3518TIP3    H110560   4.175   5.983   0.446
 3518TIP3    H210561   4.059   5.982   0.350
 3519TIP3   OH210562   3.340   1.816   0.559
 3519TIP3    H110563   3.348   1.722   0.543
 3519TIP3    H210564   3.312   1.853   0.475
 3520TIP3   OH210565   1.080   5.531   1.601
 3520TIP3    H110566   1.079   5.469   1.528
 3520TIP3    H210567   0.989   5.532   1.632
 3521TIP3   OH210568   2.524   1.683   3.231
 3521TIP3    H110569   2.433   1.659   3.211
 3521TIP3    H210570   2.575   1.648   3.159
 3522TIP3   OH210571   4.927   5.113   5.166
 3522TIP3    H110572   4.963   5.153   5.245
 3522TIP3    H210573   5.002   5.105   5.107
 3523TIP3   OH210574   4.695   1.551   0.655
 3523TIP3    H110575   4.681   1.575   0.746
 3523TIP3    H210576   4.613   1.511   0.627
 3524TIP3   OH210577   2.419   4.902   3.395
 3524TIP3    H110578   2.388   4.812   3.407
 3524TIP3    H210579   2.456   4.903   3.307
 3525TIP3   OH210580   2.920   1.940   0.542
 3525TIP3    H110581   2.957   1.858   0.573
 3525TIP3    H210582   2.826   1.927   0.543
 3526TIP3   OH210583   2.874   4.172   4.979
 3526TIP3    H110584   2.968   4.189   4.986
 3526TIP3    H210585   2.838   4.207   5.061
 3527TIP3   OH210586   3.193   2.557   3.003
 3527TIP3    H110587   3.106   2.580   2.970
 3527TIP3    H210588   3.253   2.587   2.935
 3528TIP3   OH210589   3.534   1.962   1.231
 3528TIP3    H110590   3.617   1.938   1.271
 3528TIP3    H210591   3.499   2.032   1.286
 3529TIP3   OH210592   5.866   1.906   0.253
 3529TIP3    H110593   5.781   1.940   0.225
 3529TIP3    H210594   5.844   1.838   0.317
 3530TIP3   OH210595   3.818   5.402   3.355
 3530TIP3    H110596   3.883   5.394   3.284
 3530TIP3    H210597   3.735   5.376   3.315
 3531TIP3   OH210598   5.095   2.545   1.800
 3531TIP3    H110599   5.076   2.635   1.826
 3531TIP3    H210600   5.024   2.494   1.839
 3532TIP3   OH210601   3.989   3.488   4.173
 3532TIP3    H110602   3.929   3.468   4.100
 3532TIP3    H210603   4.067   3.522   4.131
 3533TIP3   OH210604   1.541   5.593   3.160
 3533TIP3    H110605   1.518   5.553   3.076
 3533TIP3    H210606   1.504   5.681   3.157
 3534TIP3   OH210607   3.994   5.295   1.311
 3534TIP3    H110608   3.978   5.227   1.376
 3534TIP3    H210609   3.910   5.340   1.303
 3535TIP3   OH210610   3.426   5.240   0.505
 3535TIP3    H110611   3.354   5.301   0.521
 3535TIP3    H210612   3.389   5.154   0.528
 3536TIP3   OH210613   4.769   5.085   0.024
 3536TIP3    H110614   4.739   5.044  -0.057
 3536TIP3    H210615   4.857   5.116   0.004
 3537TIP3   OH210616   3.348   4.587   4.691
 3537TIP3    H110617   3.290   4.511   4.687
 3537TIP3    H210618   3.430   4.552   4.725
 3538TIP3   OH210619   3.289   1.818   0.276
 3538TIP3    H110620   3.281   1.723   0.276
 3538TIP3    H210621   3.343   1.838   0.199
 3539TIP3   OH210622   0.463   1.736   0.233
 3539TIP3    H110623   0.387   1.679   0.223
 3539TIP3    H210624   0.473   1.778   0.148
 3540TIP3   OH210625   2.820   3.408   2.769
 3540TIP3    H110626   2.753   3.364   2.717
 3540TIP3    H210627   2.793   3.394   2.860
 3541TIP3   OH210628   1.929   4.533   2.794
 3541TIP3    H110629   1.989   4.606   2.778
 3541TIP3    H210630   1.939   4.514   2.887
 3542TIP3   OH210631   5.003   5.647   3.583
 3542TIP3    H110632   4.920   5.696   3.590
 3542TIP3    H210633   4.989   5.585   3.511
 3543TIP3   OH210634   2.543   3.022   2.239
 3543TIP3    H110635   2.570   2.985   2.155
 3543TIP3    H210636   2.619   3.008   2.297
 3544TIP3   OH210637   4.579   5.249   3.812
 3544TIP3    H110638   4.667   5.276   3.788
 3544TIP3    H210639   4.528   5.256   3.730
 3545TIP3   OH210640   3.503   1.498   3.170
 3545TIP3    H110641   3.413   1.529   3.176
 3545TIP3    H210642   3.515   1.475   3.078
 3546TIP3   OH210643   5.530   0.217   2.161
 3546TIP3    H110644   5.478   0.143   2.131
 3546TIP3    H210645   5.610   0.178   2.197
 3547TIP3   OH210646   3.962   2.024   4.444
 3547TIP3    H110647   3.893   1.999   4.505
 3547TIP3    H210648   3.951   1.965   4.369
 3548TIP3   OH210649   0.791   5.744   0.425
 3548TIP3    H110650   0.782   5.652   0.400
 3548TIP3    H210651   0.701   5.774   0.440
 3549TIP3   OH210652   1.476   3.331   2.932
 3549TIP3    H110653   1.469   3.409   2.877
 3549TIP3    H210654   1.471   3.363   3.022
 3550TIP3   OH210655   0.971   0.378   3.556
 3550TIP3    H110656   1.041   0.331   3.601
 3550TIP3    H210657   0.997   0.376   3.464
 3551TIP3   OH210658   0.097   1.474   0.792
 3551TIP3    H110659   0.049   1.505   0.716
 3551TIP3    H210660   0.152   1.549   0.818
 3552TIP3   OH210661   0.781   1.996   3.695
 3552TIP3    H110662   0.873   1.998   3.669
 3552TIP3    H210663   0.734   1.999   3.611
 3553TIP3   OH210664   3.912   3.053   3.054
 3553TIP3    H110665   3.900   3.078   3.146
 3553TIP3    H210666   3.871   2.967   3.047
 3554TIP3   OH210667   5.137   3.335   4.094
 3554TIP3    H110668   5.138   3.315   4.000
 3554TIP3    H210669   5.136   3.249   4.136
 3555TIP3   OH210670   5.133   3.226   0.194
 3555TIP3    H110671   5.064   3.239   0.259
 3555TIP3    H210672   5.215   3.241   0.242
 3556TIP3   OH210673   2.170   0.883   4.786
 3556TIP3    H110674   2.088   0.868   4.832
 3556TIP3    H210675   2.226   0.811   4.814
 3557TIP3   OH210676   1.448   5.005   1.673
 3557TIP3    H110677   1.438   4.928   1.618
 3557TIP3    H210678   1.456   4.971   1.762
 3558TIP3   OH210679   2.848   4.460   4.276
 3558TIP3    H110680   2.926   4.449   4.222
 3558TIP3    H210681   2.841   4.377   4.325
 3559TIP3   OH210682   2.106   2.084   4.482
 3559TIP3    H110683   2.096   2.007   4.537
 3559TIP3    H210684   2.093   2.051   4.393
 3560TIP3   OH210685   4.101   2.490   4.999
 3560TIP3    H110686   4.189   2.504   4.966
 3560TIP3    H210687   4.076   2.403   4.966
 3561TIP3   OH210688   2.981   1.362   5.079
 3561TIP3    H110689   2.913   1.426   5.101
 3561TIP3    H210690   3.018   1.337   5.164
 3562TIP3   OH210691   1.329   0.382   2.440
 3562TIP3    H110692   1.363   0.341   2.361
 3562TIP3    H210693   1.239   0.350   2.446
 3563TIP3   OH210694   2.266   5.930   0.478
 3563TIP3    H110695   2.190   5.987   0.488
 3563TIP3    H210696   2.233   5.842   0.495
 3564TIP3   OH210697   5.941   0.820   2.193
 3564TIP3    H110698   5.931   0.835   2.099
 3564TIP3    H210699   5.916   0.728   2.205
 3565TIP3   OH210700   1.418   1.292   5.131
 3565TIP3    H110701   1.430   1.200   5.109
 3565TIP3    H210702   1.365   1.327   5.060
 3566TIP3   OH210703   0.267   3.353   2.361
 3566TIP3    H110704   0.215   3.300   2.300
 3566TIP3    H210705   0.209   3.365   2.437
 3567TIP3   OH210706   4.489   3.835   4.007
 3567TIP3    H110707   4.534   3.918   3.991
 3567TIP3    H210708   4.501   3.820   4.101
 3568TIP3   OH210709   4.196   1.782   4.343
 3568TIP3    H110710   4.137   1.735   4.284
 3568TIP3    H210711   4.195   1.730   4.423
 3569TIP3   OH210712   1.632   2.788   0.331
 3569TIP3    H110713   1.716   2.744   0.330
 3569TIP3    H210714   1.567   2.718   0.337
 3570TIP3   OH210715   3.946   4.243   2.879
 3570TIP3    H110716   3.916   4.169   2.827
 3570TIP3    H210717   3.869   4.271   2.929
 3571TIP3   OH210718   6.127   1.423   4.876
 3571TIP3    H110719   6.102   1.381   4.794
 3571TIP3    H210720   6.078   1.505   4.877
 3572TIP3   OH210721   3.248   1.902   3.416
 3572TIP3    H110722   3.267   1.886   3.508
 3572TIP3    H210723   3.210   1.820   3.384
 3573TIP3   OH210724   0.884   0.363   2.024
 3573TIP3    H110725   0.846   0.415   2.095
 3573TIP3    H210726   0.966   0.408   2.002
 3574TIP3   OH210727   1.258   3.429   2.161
 3574TIP3    H110728   1.346   3.396   2.176
 3574TIP3    H210729   1.270   3.510   2.112
 3575TIP3   OH210730   0.721   5.543   3.670
 3575TIP3    H110731   0.800   5.505   3.709
 3575TIP3    H210732   0.705   5.491   3.591
 3576TIP3   OH210733   1.410   1.866   4.801
 3576TIP3    H110734   1.433   1.775   4.785
 3576TIP3    H210735   1.490   1.915   4.779
 3577TIP3   OH210736   1.194   2.464   1.739
 3577TIP3    H110737   1.180   2.389   1.797
 3577TIP3    H210738   1.227   2.425   1.658
 3578TIP3   OH210739   1.745   1.334   1.597
 3578TIP3    H110740   1.659   1.295   1.613
 3578TIP3    H210741   1.778   1.356   1.684
 3579TIP3   OH210742   2.437   5.002   1.988
 3579TIP3    H110743   2.352   5.044   1.995
 3579TIP3    H210744   2.425   4.917   2.031
 3580TIP3   OH210745   5.087   0.686   3.698
 3580TIP3    H110746   5.130   0.659   3.779
 3580TIP3    H210747   5.025   0.754   3.725
 3581TIP3   OH210748   5.467   1.275   2.793
 3581TIP3    H110749   5.530   1.346   2.805
 3581TIP3    H210750   5.509   1.199   2.833
 3582TIP3   OH210751   6.312   5.712   1.294
 3582TIP3    H110752   6.339   5.649   1.361
 3582TIP3    H210753   6.228   5.747   1.327
 3583TIP3   OH210754   4.919   1.485   4.557
 3583TIP3    H110755   4.905   1.434   4.478
 3583TIP3    H210756   4.982   1.435   4.608
 3584TIP3   OH210757   1.035   3.828   3.822
 3584TIP3    H110758   1.067   3.829   3.912
 3584TIP3    H210759   0.966   3.895   3.820
 3585TIP3   OH210760   5.269   1.538   3.734
 3585TIP3    H110761   5.334   1.588   3.783
 3585TIP3    H210762   5.320   1.471   3.687
 3586TIP3   OH210763   1.985   0.286   1.563
 3586TIP3    H110764   2.053   0.303   1.628
 3586TIP3    H210765   2.015   0.330   1.484
 3587TIP3   OH210766   0.505   3.563   0.979
 3587TIP3    H110767   0.440   3.624   1.013
 3587TIP3    H210768   0.526   3.506   1.053
 3588TIP3   OH210769   5.318   4.430   2.795
 3588TIP3    H110770   5.387   4.365   2.811
 3588TIP3    H210771   5.237   4.384   2.817
 3589TIP3   OH210772   4.132   0.416   4.717
 3589TIP3    H110773   4.086   0.390   4.637
 3589TIP3    H210774   4.089   0.497   4.744
 3590TIP3   OH210775   0.645   4.876   3.842
 3590TIP3    H110776   0.574   4.940   3.836
 3590TIP3    H210777   0.723   4.924   3.814
 3591TIP3   OH210778   4.902   0.748   4.763
 3591TIP3    H110779   4.861   0.767   4.679
 3591TIP3    H210780   4.852   0.674   4.798
 3592TIP3   OH210781   0.417   2.022   2.516
 3592TIP3    H110782   0.333   1.999   2.477
 3592TIP3    H210783   0.446   1.943   2.560
 3593TIP3   OH210784   2.835   1.884   3.712
 3593TIP3    H110785   2.773   1.812   3.715
 3593TIP3    H210786   2.895   1.860   3.641
 3594TIP3   OH210787   4.576   0.609   3.458
 3594TIP3    H110788   4.495   0.581   3.416
 3594TIP3    H210789   4.588   0.700   3.430
 3595TIP3   OH210790   4.889   3.395   2.386
 3595TIP3    H110791   4.801   3.364   2.405
 3595TIP3    H210792   4.928   3.413   2.472
 3596TIP3   OH210793   4.470   2.007   2.475
 3596TIP3    H110794   4.553   2.039   2.511
 3596TIP3    H210795   4.444   1.938   2.536
 3597TIP3   OH210796   6.114   2.350   4.996
 3597TIP3    H110797   6.195   2.393   5.023
 3597TIP3    H210798   6.141   2.284   4.933
 3598TIP3   OH210799   4.557   4.603   3.743
 3598TIP3    H110800   4.546   4.515   3.709
 3598TIP3    H210801   4.638   4.635   3.702
 3599TIP3   OH210802   1.263   3.758   4.526
 3599TIP3    H110803   1.216   3.747   4.608
 3599TIP3    H210804   1.293   3.849   4.528
 3600TIP3   OH210805   5.067   5.249   1.828
 3600TIP3    H110806   5.066   5.344   1.842
 3600TIP3    H210807   5.157   5.223   1.847
 3601TIP3   OH210808   4.746   1.049   0.151
 3601TIP3    H110809   4.724   1.103   0.075
 3601TIP3    H210810   4.663   1.010   0.178
 3602TIP3   OH210811   2.087   5.129   1.752
 3602TIP3    H110812   2.087   5.150   1.845
 3602TIP3    H210813   2.009   5.075   1.740
 3603TIP3   OH210814   1.505   4.856   3.574
 3603TIP3    H110815   1.555   4.937   3.581
 3603TIP3    H210816   1.535   4.815   3.493
 3604TIP3   OH210817   3.042   1.050   2.699
 3604TIP3    H110818   3.136   1.051   2.716
 3604TIP3    H210819   3.004   1.108   2.765
 3605TIP3   OH210820   2.148   3.335   3.845
 3605TIP3    H110821   2.091   3.301   3.914
 3605TIP3    H210822   2.181   3.256   3.801
 3606TIP3   OH210823   3.949   1.470   5.121
 3606TIP3    H110824   4.002   1.455   5.199
 3606TIP3    H210825   3.860   1.480   5.155
 3607TIP3   OH210826   4.169   4.304   1.411
 3607TIP3    H110827   4.139   4.247   1.483
 3607TIP3    H210828   4.230   4.249   1.361
 3608TIP3   OH210829   5.214   4.804   4.930
 3608TIP3    H110830   5.134   4.764   4.965
 3608TIP3    H210831   5.275   4.805   5.003
 3609TIP3   OH210832   1.937   4.132   1.324
 3609TIP3    H110833   1.899   4.069   1.262
 3609TIP3    H210834   1.864   4.188   1.348
 3610TIP3   OH210835   1.616   5.927   4.269
 3610TIP3    H110836   1.633   5.839   4.303
 3610TIP3    H210837   1.693   5.947   4.215
 3611TIP3   OH210838   4.376   1.171   3.595
 3611TIP3    H110839   4.450   1.225   3.566
 3611TIP3    H210840   4.404   1.133   3.678
 3612TIP3   OH210841   3.778   5.693   0.465
 3612TIP3    H110842   3.789   5.788   0.455
 3612TIP3    H210843   3.867   5.658   0.460
 3613TIP3   OH210844   0.856   4.950   4.801
 3613TIP3    H110845   0.819   5.028   4.760
 3613TIP3    H210846   0.885   4.981   4.888
 3614TIP3   OH210847   5.060   3.434   1.221
 3614TIP3    H110848   5.051   3.395   1.134
 3614TIP3    H210849   5.096   3.363   1.275
 3615TIP3   OH210850   4.408   5.244   3.220
 3615TIP3    H110851   4.436   5.286   3.139
 3615TIP3    H210852   4.489   5.231   3.270
 3616TIP3   OH210853   5.692   2.580   1.652
 3616TIP3    H110854   5.741   2.645   1.703
 3616TIP3    H210855   5.700   2.499   1.701
 3617TIP3   OH210856   3.156   1.094   0.438
 3617TIP3    H110857   3.077   1.135   0.473
 3617TIP3    H210858   3.174   1.142   0.357
 3618TIP3   OH210859   5.455   4.706   4.641
 3618TIP3    H110860   5.516   4.710   4.567
 3618TIP3    H210861   5.505   4.741   4.715
 3619TIP3   OH210862   4.325   1.504   1.727
 3619TIP3    H110863   4.299   1.526   1.816
 3619TIP3    H210864   4.277   1.423   1.708
 3620TIP3   OH210865   1.503   1.984   1.238
 3620TIP3    H110866   1.561   2.053   1.270
 3620TIP3    H210867   1.544   1.955   1.156
 3621TIP3   OH210868   1.029   4.765   2.243
 3621TIP3    H110869   1.041   4.766   2.338
 3621TIP3    H210870   1.075   4.687   2.213
 3622TIP3   OH210871   1.353   0.274   2.186
 3622TIP3    H110872   1.388   0.189   2.160
 3622TIP3    H210873   1.275   0.285   2.133
 3623TIP3   OH210874   5.883   0.969   3.866
 3623TIP3    H110875   5.959   0.980   3.809
 3623TIP3    H210876   5.810   0.952   3.805
 3624TIP3   OH210877   5.953   2.181   1.450
 3624TIP3    H110878   5.992   2.258   1.490
 3624TIP3    H210879   5.983   2.183   1.359
 3625TIP3   OH210880   6.206   4.145   0.582
 3625TIP3    H110881   6.159   4.066   0.609
 3625TIP3    H210882   6.240   4.124   0.496
 3626TIP3   OH210883   2.427   5.327   4.851
 3626TIP3    H110884   2.451   5.236   4.834
 3626TIP3    H210885   2.382   5.356   4.772
 3627TIP3   OH210886   5.205   3.278   4.419
 3627TIP3    H110887   5.275   3.218   4.444
 3627TIP3    H210888   5.132   3.221   4.395
 3628TIP3   OH210889   3.541   5.720   3.321
 3628TIP3    H110890   3.477   5.741   3.390
 3628TIP3    H210891   3.609   5.787   3.331
 3629TIP3   OH210892   4.881   5.884   4.705
 3629TIP3    H110893   4.915   5.926   4.626
 3629TIP3    H210894   4.918   5.933   4.778
 3630TIP3   OH210895   0.670   1.356   3.446
 3630TIP3    H110896   0.638   1.270   3.473
 3630TIP3    H210897   0.753   1.367   3.493
 3631TIP3   OH210898   0.793   3.049   3.264
 3631TIP3    H110899   0.739   3.061   3.343
 3631TIP3    H210900   0.874   3.012   3.297
 3632TIP3   OH210901   3.080   0.128   4.341
 3632TIP3    H110902   3.067   0.119   4.247
 3632TIP3    H210903   3.142   0.200   4.350
 3633TIP3   OH210904   5.533   4.373   4.955
 3633TIP3    H110905   5.567   4.399   4.869
 3633TIP3    H210906   5.441   4.398   4.952
 3634TIP3   OH210907   5.234   2.045   4.574
 3634TIP3    H110908   5.253   1.960   4.615
 3634TIP3    H210909   5.315   2.069   4.529
 3635TIP3   OH210910   0.992   5.881   4.489
 3635TIP3    H110911   1.071   5.847   4.448
 3635TIP3    H210912   0.964   5.952   4.431
 3636TIP3   OH210913   2.131   1.470   1.002
 3636TIP3    H110914   2.088   1.554   1.021
 3636TIP3    H210915   2.176   1.448   1.084
 3637TIP3   OH210916   2.276   1.401   5.146
 3637TIP3    H110917   2.262   1.495   5.151
 3637TIP3    H210918   2.317   1.387   5.061
 3638TIP3   OH210919   0.386   4.877   1.759
 3638TIP3    H110920   0.293   4.853   1.759
 3638TIP3    H210921   0.412   4.872   1.851
 3639TIP3   OH210922   2.361   2.736   4.535
 3639TIP3    H110923   2.281   2.781   4.509
 3639TIP3    H210924   2.426   2.806   4.545
 3640TIP3   OH210925   3.993   1.670   3.930
 3640TIP3    H110926   4.058   1.620   3.979
 3640TIP3    H210927   4.035   1.754   3.912
 3641TIP3   OH210928   1.771   2.259   1.663
 3641TIP3    H110929   1.842   2.294   1.717
 3641TIP3    H210930   1.724   2.337   1.633
 3642TIP3   OH210931   0.313   5.764   0.966
 3642TIP3    H110932   0.271   5.836   1.013
 3642TIP3    H210933   0.255   5.745   0.893
 3643TIP3   OH210934   0.330   0.245   0.721
 3643TIP3    H110935   0.285   0.161   0.733
 3643TIP3    H210936   0.282   0.288   0.650
 3644TIP3   OH210937   0.595   3.660   2.985
 3644TIP3    H110938   0.686   3.672   2.960
 3644TIP3    H210939   0.596   3.651   3.080
 3645TIP3   OH210940   2.317   3.703   0.609
 3645TIP3    H110941   2.241   3.726   0.662
 3645TIP3    H210942   2.384   3.766   0.635
 3646TIP3   OH210943   3.697   1.633   1.492
 3646TIP3    H110944   3.636   1.658   1.562
 3646TIP3    H210945   3.725   1.545   1.516
 3647TIP3   OH210946   5.949   1.948   1.910
 3647TIP3    H110947   5.867   1.930   1.956
 3647TIP3    H210948   5.924   2.000   1.834
 3648TIP3   OH210949   0.191   2.047   4.272
 3648TIP3    H110950   0.238   1.977   4.228
 3648TIP3    H210951   0.237   2.057   4.356
 3649TIP3   OH210952   0.080   1.296   1.220
 3649TIP3    H110953   0.080   1.254   1.306
 3649TIP3    H210954   0.161   1.266   1.179
 3650TIP3   OH210955   3.122   4.286   0.195
 3650TIP3    H110956   3.107   4.343   0.270
 3650TIP3    H210957   3.194   4.230   0.221
 3651TIP3   OH210958   5.183   1.247   1.898
 3651TIP3    H110959   5.164   1.338   1.874
 3651TIP3    H210960   5.278   1.238   1.885
 3652TIP3   OH210961   1.250   0.248   3.067
 3652TIP3    H110962   1.242   0.185   2.995
 3652TIP3    H210963   1.192   0.320   3.042
 3653TIP3   OH210964   1.988   1.773   5.133
 3653TIP3    H110965   2.072   1.728   5.142
 3653TIP3    H210966   2.007   1.864   5.157
 3654TIP3   OH210967   2.895   4.764   3.425
 3654TIP3    H110968   2.855   4.737   3.508
 3654TIP3    H210969   2.844   4.717   3.358
 3655TIP3   OH210970   4.586   5.746   4.624
 3655TIP3    H110971   4.669   5.763   4.580
 3655TIP3    H210972   4.520   5.759   4.556
 3656TIP3   OH210973   6.213   5.285   5.073
 3656TIP3    H110974   6.203   5.203   5.023
 3656TIP3    H210975   6.308   5.294   5.084
 3657TIP3   OH210976   0.181   2.950   3.075
 3657TIP3    H110977   0.101   2.967   3.125
 3657TIP3    H210978   0.224   3.035   3.070
 3658TIP3   OH210979   0.797   1.697   3.481
 3658TIP3    H110980   0.800   1.659   3.569
 3658TIP3    H210981   0.704   1.718   3.467
 3659TIP3   OH210982   1.711   0.633   0.479
 3659TIP3    H110983   1.663   0.659   0.400
 3659TIP3    H210984   1.698   0.539   0.485
 3660TIP3   OH210985   5.565   4.950   1.092
 3660TIP3    H110986   5.603   5.037   1.083
 3660TIP3    H210987   5.641   4.892   1.102
 3661TIP3   OH210988   6.306   1.300   3.482
 3661TIP3    H110989   6.353   1.341   3.409
 3661TIP3    H210990   6.303   1.367   3.550
 3662TIP3   OH210991   5.244   4.225   4.770
 3662TIP3    H110992   5.249   4.317   4.742
 3662TIP3    H210993   5.162   4.193   4.732
 3663TIP3   OH210994   0.002   3.572   4.090
 3663TIP3    H110995   0.072   3.507   4.094
 3663TIP3    H210996   0.017   3.628   4.166
 3664TIP3   OH210997   0.795   2.223   3.231
 3664TIP3    H110998   0.742   2.278   3.173
 3664TIP3    H210999   0.886   2.243   3.207
 3665TIP3   OH211000   4.718   4.998   0.942
 3665TIP3    H111001   4.674   4.951   0.872
 3665TIP3    H211002   4.653   5.059   0.976
 3666TIP3   OH211003   2.264   5.529   2.413
 3666TIP3    H111004   2.296   5.491   2.331
 3666TIP3    H211005   2.250   5.622   2.393
 3667TIP3   OH211006   3.234   2.186   2.977
 3667TIP3    H111007   3.232   2.177   3.072
 3667TIP3    H211008   3.171   2.121   2.946
 3668TIP3   OH211009   0.138   3.291   2.110
 3668TIP3    H111010   0.220   3.312   2.065
 3668TIP3    H211011   0.086   3.371   2.103
 3669TIP3   OH211012   4.512   4.943   1.276
 3669TIP3    H111013   4.439   4.933   1.214
 3669TIP3    H211014   4.544   5.032   1.261
 3670TIP3   OH211015   1.858   2.622   0.405
 3670TIP3    H111016   1.890   2.622   0.495
 3670TIP3    H211017   1.892   2.541   0.367
 3671TIP3   OH211018   2.174   5.629   3.115
 3671TIP3    H111019   2.084   5.600   3.127
 3671TIP3    H211020   2.216   5.557   3.067
 3672TIP3   OH211021   2.585   5.335   0.233
 3672TIP3    H111022   2.565   5.390   0.309
 3672TIP3    H211023   2.582   5.245   0.268
 3673TIP3   OH211024   4.196   0.990   2.785
 3673TIP3    H111025   4.113   1.003   2.738
 3673TIP3    H211026   4.256   1.053   2.746
 3674TIP3   OH211027   4.515   0.111   1.932
 3674TIP3    H111028   4.448   0.159   1.882
 3674TIP3    H211029   4.490   0.124   2.024
 3675TIP3   OH211030   5.841   1.721   0.469
 3675TIP3    H111031   5.933   1.698   0.470
 3675TIP3    H211032   5.796   1.647   0.509
 3676TIP3   OH211033   3.629   0.156   2.768
 3676TIP3    H111034   3.604   0.188   2.682
 3676TIP3    H211035   3.550   0.111   2.800
 3677TIP3   OH211036   2.315   0.081   0.037
 3677TIP3    H111037   2.302   0.027   0.114
 3677TIP3    H211038   2.410   0.083   0.025
 3678TIP3   OH211039   1.539   5.698   0.046
 3678TIP3    H111040   1.584   5.690  -0.038
 3678TIP3    H211041   1.600   5.748   0.101
 3679TIP3   OH211042   5.697   0.467   4.428
 3679TIP3    H111043   5.775   0.478   4.483
 3679TIP3    H211044   5.669   0.556   4.406
 3680TIP3   OH211045   0.923   3.783   0.399
 3680TIP3    H111046   1.005   3.756   0.359
 3680TIP3    H211047   0.876   3.701   0.416
 3681TIP3   OH211048   0.526   2.375   1.561
 3681TIP3    H111049   0.606   2.348   1.607
 3681TIP3    H211050   0.509   2.464   1.591
 3682TIP3   OH211051   3.308   1.536   2.584
 3682TIP3    H111052   3.311   1.458   2.639
 3682TIP3    H211053   3.395   1.540   2.544
 3683TIP3   OH211054   4.002   5.767   0.689
 3683TIP3    H111055   4.064   5.752   0.761
 3683TIP3    H211056   4.039   5.720   0.615
 3684TIP3   OH211057   4.075   2.106   4.673
 3684TIP3    H111058   3.995   2.095   4.723
 3684TIP3    H211059   4.055   2.069   4.587
 3685TIP3   OH211060   1.162   0.197   1.969
 3685TIP3    H111061   1.092   0.172   2.029
 3685TIP3    H211062   1.230   0.130   1.982
 3686TIP3   OH211063   2.561   2.937   3.515
 3686TIP3    H111064   2.640   2.908   3.470
 3686TIP3    H211065   2.489   2.912   3.457
 3687TIP3   OH211066   3.609   0.981   2.472
 3687TIP3    H111067   3.591   0.896   2.433
 3687TIP3    H211068   3.615   1.041   2.398
 3688TIP3   OH211069   4.464   0.097   2.224
 3688TIP3    H111070   4.413   0.114   2.304
 3688TIP3    H211071   4.524   0.171   2.218
 3689TIP3   OH211072   3.779   5.671   4.912
 3689TIP3    H111073   3.756   5.738   4.847
 3689TIP3    H211074   3.848   5.620   4.870
 3690TIP3   OH211075   2.703   3.289   2.245
 3690TIP3    H111076   2.627   3.324   2.291
 3690TIP3    H211077   2.778   3.316   2.299
 3691TIP3   OH211078   4.622   1.458   1.863
 3691TIP3    H111079   4.637   1.443   1.956
 3691TIP3    H211080   4.527   1.463   1.854
 3692TIP3   OH211081   0.015   0.156   2.570
 3692TIP3    H111082   0.063   0.146   2.652
 3692TIP3    H211083  -0.032   0.239   2.580
 3693TIP3   OH211084   5.300   4.930   2.179
 3693TIP3    H111085   5.350   5.002   2.142
 3693TIP3    H211086   5.365   4.867   2.209
 3694TIP3   OH211087   6.048   3.407   3.766
 3694TIP3    H111088   6.065   3.447   3.851
 3694TIP3    H211089   6.101   3.457   3.704
 3695TIP3   OH211090   0.423   3.841   3.198
 3695TIP3    H111091   0.459   3.776   3.258
 3695TIP3    H211092   0.357   3.888   3.250
 3696TIP3   OH211093   0.028   5.029   3.513
 3696TIP3    H111094   0.060   5.109   3.471
 3696TIP3    H211095   0.054   5.038   3.605
 3697TIP3   OH211096   5.486   3.387   3.291
 3697TIP3    H111097   5.575   3.417   3.306
 3697TIP3    H211098   5.492   3.291   3.292
 3698TIP3   OH211099   0.304   5.830   2.436
 3698TIP3    H111100   0.229   5.839   2.378
 3698TIP3    H211101   0.345   5.748   2.409
 3699TIP3   OH211102   2.509   5.166   2.329
 3699TIP3    H111103   2.558   5.248   2.327
 3699TIP3    H211104   2.516   5.135   2.420
 3700TIP3   OH211105   4.378   1.769   0.665
 3700TIP3    H111106   4.445   1.797   0.727
 3700TIP3    H211107   4.324   1.847   0.652
 3701TIP3   OH211108   1.602   0.729   3.287
 3701TIP3    H111109   1.556   0.811   3.268
 3701TIP3    H211110   1.554   0.692   3.361
 3702TIP3   OH211111   5.041   3.847   1.824
 3702TIP3    H111112   5.016   3.928   1.869
 3702TIP3    H211113   4.961   3.816   1.781
 3703TIP3   OH211114   2.929   5.349   0.299
 3703TIP3    H111115   2.861   5.322   0.361
 3703TIP3    H211116   2.890   5.422   0.252
 3704TIP3   OH211117   3.723   4.304   4.043
 3704TIP3    H111118   3.756   4.367   4.107
 3704TIP3    H211119   3.796   4.242   4.031
 3705TIP3   OH211120   0.412   1.094   4.664
 3705TIP3    H111121   0.453   1.166   4.712
 3705TIP3    H211122   0.471   1.019   4.678
 3706TIP3   OH211123   0.438   4.902   2.257
 3706TIP3    H111124   0.412   4.904   2.349
 3706TIP3    H211125   0.370   4.849   2.215
 3707TIP3   OH211126   5.472   5.182   4.673
 3707TIP3    H111127   5.528   5.160   4.599
 3707TIP3    H211128   5.385   5.150   4.648
 3708TIP3   OH211129   0.135   1.313   0.236
 3708TIP3    H111130   0.195   1.326   0.310
 3708TIP3    H211131   0.168   1.234   0.192
 3709TIP3   OH211132   2.781   5.854   4.188
 3709TIP3    H111133   2.828   5.828   4.267
 3709TIP3    H211134   2.698   5.888   4.220
 3710TIP3   OH211135   2.679   4.573   1.918
 3710TIP3    H111136   2.770   4.567   1.948
 3710TIP3    H211137   2.670   4.663   1.886
 3711TIP3   OH211138   2.718   4.765   4.178
 3711TIP3    H111139   2.682   4.697   4.235
 3711TIP3    H211140   2.655   4.771   4.106
 3712TIP3   OH211141   6.010   0.547   2.583
 3712TIP3    H111142   6.044   0.619   2.530
 3712TIP3    H211143   5.917   0.541   2.558
 3713TIP3   OH211144   2.999   0.253   0.785
 3713TIP3    H111145   3.003   0.162   0.756
 3713TIP3    H211146   2.913   0.260   0.827
 3714TIP3   OH211147   4.179   4.367   3.489
 3714TIP3    H111148   4.258   4.410   3.456
 3714TIP3    H211149   4.113   4.436   3.489
 3715TIP3   OH211150   1.161   4.792   3.332
 3715TIP3    H111151   1.188   4.726   3.267
 3715TIP3    H211152   1.090   4.750   3.380
 3716TIP3   OH211153   3.674   1.060   4.740
 3716TIP3    H111154   3.588   1.070   4.780
 3716TIP3    H211155   3.706   1.150   4.728
 3717TIP3   OH211156   3.587   0.656   0.217
 3717TIP3    H111157   3.568   0.738   0.171
 3717TIP3    H211158   3.598   0.591   0.148
 3718TIP3   OH211159   4.996   0.957   2.956
 3718TIP3    H111160   5.068   0.903   2.988
 3718TIP3    H211161   4.931   0.957   3.027
 3719TIP3   OH211162   5.347   2.060   3.651
 3719TIP3    H111163   5.407   2.134   3.665
 3719TIP3    H211164   5.317   2.070   3.561
 3720TIP3   OH211165   3.363   5.780   3.849
 3720TIP3    H111166   3.418   5.796   3.926
 3720TIP3    H211167   3.394   5.696   3.815
 3721TIP3   OH211168   5.144   5.489   1.854
 3721TIP3    H111169   5.111   5.533   1.932
 3721TIP3    H211170   5.239   5.497   1.861
 3722TIP3   OH211171   1.962   3.911   1.913
 3722TIP3    H111172   2.002   3.980   1.862
 3722TIP3    H211173   1.957   3.836   1.853
 3723TIP3   OH211174   1.858   1.813   4.102
 3723TIP3    H111175   1.896   1.857   4.026
 3723TIP3    H211176   1.876   1.872   4.175
 3724TIP3   OH211177   4.918   1.372   0.610
 3724TIP3    H111178   4.860   1.448   0.614
 3724TIP3    H211179   4.871   1.309   0.555
 3725TIP3   OH211180   5.132   1.649   0.544
 3725TIP3    H111181   5.227   1.636   0.555
 3725TIP3    H211182   5.107   1.584   0.479
 3726TIP3   OH211183   5.178   5.807   0.933
 3726TIP3    H111184   5.109   5.827   0.996
 3726TIP3    H211185   5.133   5.806   0.848
 3727TIP3   OH211186   5.491   4.009   2.345
 3727TIP3    H111187   5.574   4.007   2.394
 3727TIP3    H211188   5.513   3.969   2.261
 3728TIP3   OH211189   5.291   1.409   2.978
 3728TIP3    H111190   5.272   1.333   3.034
 3728TIP3    H211191   5.328   1.371   2.899
 3729TIP3   OH211192   3.441   3.285   1.506
 3729TIP3    H111193   3.435   3.380   1.506
 3729TIP3    H211194   3.400   3.258   1.588
 3730TIP3   OH211195   3.722   0.200   4.630
 3730TIP3    H111196   3.669   0.225   4.706
 3730TIP3    H211197   3.660   0.159   4.570
 3731TIP3   OH211198   2.413   5.312   3.782
 3731TIP3    H111199   2.485   5.279   3.835
 3731TIP3    H211200   2.456   5.345   3.702
 3732TIP3   OH211201   0.640   2.067   0.174
 3732TIP3    H111202   0.610   2.125   0.104
 3732TIP3    H211203   0.659   1.984   0.131
 3733TIP3   OH211204   3.385   3.667   0.969
 3733TIP3    H111205   3.319   3.599   0.980
 3733TIP3    H211206   3.344   3.746   1.004
 3734TIP3   OH211207   4.348   4.775   1.088
 3734TIP3    H111208   4.429   4.724   1.093
 3734TIP3    H211209   4.321   4.768   0.996
 3735TIP3   OH211210   3.090   3.321   2.901
 3735TIP3    H111211   3.017   3.343   2.958
 3735TIP3    H211212   3.067   3.235   2.865
 3736TIP3   OH211213   0.750   5.572   4.864
 3736TIP3    H111214   0.760   5.477   4.859
 3736TIP3    H211215   0.837   5.607   4.846
 3737TIP3   OH211216   6.032   4.282   5.057
 3737TIP3    H111217   6.086   4.304   4.981
 3737TIP3    H211218   6.094   4.272   5.129
 3738TIP3   OH211219   0.951   2.127   5.061
 3738TIP3    H111220   0.876   2.080   5.100
 3738TIP3    H211221   1.007   2.057   5.027
 3739TIP3   OH211222   3.833   1.846   4.627
 3739TIP3    H111223   3.794   1.766   4.592
 3739TIP3    H211224   3.890   1.816   4.698
 3740TIP3   OH211225   2.416   1.039   3.229
 3740TIP3    H111226   2.426   0.946   3.208
 3740TIP3    H211227   2.498   1.062   3.273
 3741TIP3   OH211228   4.466   5.347   3.581
 3741TIP3    H111229   4.399   5.381   3.522
 3741TIP3    H211230   4.534   5.314   3.524
 3742TIP3   OH211231   3.278   2.568   0.740
 3742TIP3    H111232   3.207   2.633   0.741
 3742TIP3    H211233   3.247   2.501   0.679
 3743TIP3   OH211234   5.408   1.705   3.890
 3743TIP3    H111235   5.358   1.780   3.859
 3743TIP3    H211236   5.448   1.735   3.972
 3744TIP3   OH211237   0.648   2.495   3.427
 3744TIP3    H111238   0.690   2.580   3.421
 3744TIP3    H211239   0.713   2.433   3.393
 3745TIP3   OH211240   4.478   3.749   3.093
 3745TIP3    H111241   4.409   3.794   3.141
 3745TIP3    H211242   4.534   3.710   3.160
 3746TIP3   OH211243   3.000   2.727   4.771
 3746TIP3    H111244   2.961   2.811   4.749
 3746TIP3    H211245   2.925   2.668   4.780
 3747TIP3   OH211246   2.247   3.388   1.584
 3747TIP3    H111247   2.272   3.444   1.658
 3747TIP3    H211248   2.319   3.399   1.521
 3748TIP3   OH211249   0.464   2.100   3.208
 3748TIP3    H111250   0.559   2.095   3.198
 3748TIP3    H211251   0.449   2.185   3.249
 3749TIP3   OH211252   3.141   4.151   5.082
 3749TIP3    H111253   3.215   4.138   5.022
 3749TIP3    H211254   3.154   4.085   5.150
 3750TIP3   OH211255   0.443   5.152   4.653
 3750TIP3    H111256   0.446   5.125   4.561
 3750TIP3    H211257   0.426   5.071   4.701
 3751TIP3   OH211258   0.427   3.935   2.629
 3751TIP3    H111259   0.424   3.879   2.707
 3751TIP3    H211260   0.336   3.950   2.607
 3752TIP3   OH211261   1.233   4.037   2.661
 3752TIP3    H111262   1.284   4.003   2.734
 3752TIP3    H211263   1.279   4.008   2.583
 3753TIP3   OH211264   5.410   3.231   4.777
 3753TIP3    H111265   5.347   3.302   4.782
 3753TIP3    H211266   5.415   3.196   4.866
 3754TIP3   OH211267   2.510   3.808   3.526
 3754TIP3    H111268   2.423   3.824   3.489
 3754TIP3    H211269   2.569   3.824   3.452
 3755TIP3   OH211270   2.914   1.087   3.300
 3755TIP3    H111271   2.982   1.076   3.233
 3755TIP3    H211272   2.887   1.178   3.293
 3756TIP3   OH211273   1.164   4.928   1.806
 3756TIP3    H111274   1.128   4.988   1.741
 3756TIP3    H211275   1.254   4.912   1.776
 3757TIP3   OH211276   5.350   4.155   1.380
 3757TIP3    H111277   5.427   4.191   1.424
 3757TIP3    H211278   5.297   4.232   1.358
 3758TIP3   OH211279   4.838   3.935   0.561
 3758TIP3    H111280   4.864   3.955   0.471
 3758TIP3    H211281   4.884   3.853   0.581
 3759TIP3   OH211282   4.844   0.253   2.855
 3759TIP3    H111283   4.762   0.233   2.899
 3759TIP3    H211284   4.906   0.272   2.925
 3760TIP3   OH211285   0.427   2.661   3.569
 3760TIP3    H111286   0.467   2.585   3.527
 3760TIP3    H211287   0.420   2.726   3.499
 3761TIP3   OH211288   5.773   4.978   1.799
 3761TIP3    H111289   5.742   4.961   1.710
 3761TIP3    H211290   5.825   4.901   1.822
 3762TIP3   OH211291   2.398   0.919   4.588
 3762TIP3    H111292   2.339   0.914   4.663
 3762TIP3    H211293   2.419   0.828   4.568
 3763TIP3   OH211294   4.561   0.447   3.739
 3763TIP3    H111295   4.634   0.391   3.766
 3763TIP3    H211296   4.602   0.525   3.704
 3764TIP3   OH211297   2.177   0.488   4.824
 3764TIP3    H111298   2.247   0.549   4.847
 3764TIP3    H211299   2.114   0.541   4.775
 3765TIP3   OH211300   0.663   0.188   2.077
 3765TIP3    H111301   0.598   0.177   2.008
 3765TIP3    H211302   0.730   0.243   2.038
 3766TIP3   OH211303   4.913   1.166   4.972
 3766TIP3    H111304   5.004   1.195   4.966
 3766TIP3    H211305   4.918   1.077   5.007
 3767TIP3   OH211306   2.093   5.897   3.992
 3767TIP3    H111307   2.122   5.974   4.040
 3767TIP3    H211308   2.123   5.911   3.902
 3768TIP3   OH211309   4.350   2.576   3.602
 3768TIP3    H111310   4.317   2.634   3.671
 3768TIP3    H211311   4.418   2.524   3.644
 3769TIP3   OH211312   2.757   3.468   4.341
 3769TIP3    H111313   2.694   3.526   4.298
 3769TIP3    H211314   2.785   3.408   4.272
 3770TIP3   OH211315   1.126   3.216   1.751
 3770TIP3    H111316   1.082   3.301   1.760
 3770TIP3    H211317   1.055   3.152   1.746
 3771TIP3   OH211318   5.477   0.367   4.545
 3771TIP3    H111319   5.510   0.279   4.563
 3771TIP3    H211320   5.548   0.410   4.496
 3772TIP3   OH211321   5.467   3.396   1.008
 3772TIP3    H111322   5.451   3.423   1.099
 3772TIP3    H211323   5.457   3.477   0.958
 3773TIP3   OH211324   1.636   0.304   0.389
 3773TIP3    H111325   1.649   0.231   0.329
 3773TIP3    H211326   1.719   0.313   0.435
 3774TIP3   OH211327   6.236   2.591   2.065
 3774TIP3    H111328   6.246   2.622   1.975
 3774TIP3    H211329   6.227   2.671   2.117
 3775TIP3   OH211330   4.609   0.316   2.270
 3775TIP3    H111331   4.660   0.382   2.223
 3775TIP3    H211332   4.668   0.287   2.340
 3776TIP3   OH211333   5.792   3.410   4.107
 3776TIP3    H111334   5.803   3.442   4.017
 3776TIP3    H211335   5.701   3.380   4.111
 3777TIP3   OH211336   5.984   4.202   1.257
 3777TIP3    H111337   5.904   4.255   1.251
 3777TIP3    H211338   6.055   4.264   1.240
 3778TIP3   OH211339   3.925   2.749   4.083
 3778TIP3    H111340   3.967   2.778   4.164
 3778TIP3    H211341   3.979   2.676   4.052
 3779TIP3   OH211342   0.362   4.952   4.331
 3779TIP3    H111343   0.422   5.027   4.325
 3779TIP3    H211344   0.409   4.881   4.288
 3780TIP3   OH211345   0.611   5.475   3.933
 3780TIP3    H111346   0.680   5.523   3.980
 3780TIP3    H211347   0.613   5.387   3.970
 3781TIP3   OH211348   0.596   4.942   2.829
 3781TIP3    H111349   0.606   4.972   2.920
 3781TIP3    H211350   0.639   4.857   2.827
 3782TIP3   OH211351   3.426   5.875   1.464
 3782TIP3    H111352   3.459   5.888   1.375
 3782TIP3    H211353   3.463   5.791   1.491
 3783TIP3   OH211354   4.276   0.102   2.815
 3783TIP3    H111355   4.268   0.008   2.796
 3783TIP3    H211356   4.209   0.118   2.882
 3784TIP3   OH211357   1.236   4.938   4.353
 3784TIP3    H111358   1.189   4.961   4.273
 3784TIP3    H211359   1.191   4.861   4.387
 3785TIP3   OH211360   2.191   4.519   3.652
 3785TIP3    H111361   2.265   4.463   3.676
 3785TIP3    H211362   2.114   4.462   3.660
 3786TIP3   OH211363   2.687   1.182   3.061
 3786TIP3    H111364   2.607   1.233   3.074
 3786TIP3    H211365   2.683   1.114   3.128
 3787TIP3   OH211366   0.279   3.410   0.777
 3787TIP3    H111367   0.282   3.505   0.787
 3787TIP3    H211368   0.299   3.394   0.685
 3788TIP3   OH211369   1.550   2.121   1.899
 3788TIP3    H111370   1.602   2.192   1.935
 3788TIP3    H211371   1.608   2.045   1.900
 3789TIP3   OH211372   4.129   3.719   2.911
 3789TIP3    H111373   4.161   3.713   2.821
 3789TIP3    H211374   4.162   3.802   2.944
 3790TIP3   OH211375   3.839   1.130   3.762
 3790TIP3    H111376   3.858   1.053   3.815
 3790TIP3    H211377   3.750   1.116   3.730
 3791TIP3   OH211378   1.041   1.085   3.962
 3791TIP3    H111379   1.135   1.095   3.944
 3791TIP3    H211380   1.036   1.009   4.021
 3792TIP3   OH211381   3.247   4.075   1.510
 3792TIP3    H111382   3.334   4.056   1.476
 3792TIP3    H211383   3.253   4.166   1.542
 3793TIP3   OH211384   2.587   5.759   4.745
 3793TIP3    H111385   2.607   5.782   4.836
 3793TIP3    H211386   2.582   5.842   4.699
 3794TIP3   OH211387   3.694   5.103   0.747
 3794TIP3    H111388   3.616   5.141   0.706
 3794TIP3    H211389   3.676   5.108   0.841
 3795TIP3   OH211390   3.014   0.851   0.706
 3795TIP3    H111391   3.005   0.927   0.764
 3795TIP3    H211392   2.924   0.825   0.687
 3796TIP3   OH211393   0.550   1.020   0.615
 3796TIP3    H111394   0.537   0.947   0.555
 3796TIP3    H211395   0.547   0.981   0.703
 3797TIP3   OH211396   2.396   4.881   4.678
 3797TIP3    H111397   2.448   4.871   4.598
 3797TIP3    H211398   2.371   4.973   4.679
 3798TIP3   OH211399   0.826   3.555   2.232
 3798TIP3    H111400   0.898   3.569   2.171
 3798TIP3    H211401   0.782   3.476   2.200
 3799TIP3   OH211402   2.385   2.576   3.151
 3799TIP3    H111403   2.308   2.550   3.202
 3799TIP3    H211404   2.350   2.596   3.064
 3800TIP3   OH211405   6.134   3.984   3.726
 3800TIP3    H111406   6.216   3.960   3.683
 3800TIP3    H211407   6.129   3.927   3.803
 3801TIP3   OH211408   5.223   4.418   3.955
 3801TIP3    H111409   5.135   4.452   3.966
 3801TIP3    H211410   5.280   4.495   3.961
 3802TIP3   OH211411   5.764   4.756   1.029
 3802TIP3    H111412   5.848   4.745   1.075
 3802TIP3    H211413   5.785   4.813   0.955
 3803TIP3   OH211414   0.435   1.012   2.018
 3803TIP3    H111415   0.477   1.024   1.934
 3803TIP3    H211416   0.345   1.043   2.005
 3804TIP3   OH211417   4.103   5.924   5.021
 3804TIP3    H111418   4.199   5.930   5.022
 3804TIP3    H211419   4.084   5.832   5.038
 3805TIP3   OH211420   3.079   1.219   1.314
 3805TIP3    H111421   3.150   1.187   1.259
 3805TIP3    H211422   3.076   1.313   1.296
 3806TIP3   OH211423   1.414   5.944   3.250
 3806TIP3    H111424   1.332   5.897   3.269
 3806TIP3    H211425   1.482   5.892   3.294
 3807TIP3   OH211426   0.116   0.550   2.792
 3807TIP3    H111427   0.207   0.524   2.787
 3807TIP3    H211428   0.074   0.481   2.844
 3808TIP3   OH211429   4.001   5.625   2.348
 3808TIP3    H111430   4.048   5.708   2.343
 3808TIP3    H211431   3.911   5.649   2.370
 3809TIP3   OH211432   1.809   1.929   2.644
 3809TIP3    H111433   1.863   1.976   2.580
 3809TIP3    H211434   1.868   1.914   2.718
 3810TIP3   OH211435   3.285   5.430   2.708
 3810TIP3    H111436   3.284   5.521   2.736
 3810TIP3    H211437   3.332   5.384   2.777
 3811TIP3   OH211438   3.871   1.014   5.110
 3811TIP3    H111439   3.870   0.927   5.070
 3811TIP3    H211440   3.784   1.022   5.149
 3812TIP3   OH211441   1.975   1.110   2.110
 3812TIP3    H111442   1.903   1.050   2.089
 3812TIP3    H211443   1.966   1.127   2.204
 3813TIP3   OH211444   5.912   5.073   5.072
 3813TIP3    H111445   5.906   5.120   5.155
 3813TIP3    H211446   5.865   5.128   5.010
 3814TIP3   OH211447   0.462   2.064   5.054
 3814TIP3    H111448   0.410   2.143   5.038
 3814TIP3    H211449   0.523   2.089   5.123
 3815TIP3   OH211450   1.557   0.767   0.949
 3815TIP3    H111451   1.635   0.741   0.900
 3815TIP3    H211452   1.553   0.705   1.022
 3816TIP3   OH211453   3.453   2.822   3.084
 3816TIP3    H111454   3.445   2.745   3.141
 3816TIP3    H211455   3.446   2.897   3.144
 3817TIP3   OH211456   0.114   4.603   1.020
 3817TIP3    H111457   0.099   4.673   1.084
 3817TIP3    H211458   0.031   4.554   1.018
 3818TIP3   OH211459   0.742   2.221   2.714
 3818TIP3    H111460   0.786   2.155   2.661
 3818TIP3    H211461   0.712   2.286   2.650
 3819TIP3   OH211462   2.774   4.800   2.317
 3819TIP3    H111463   2.767   4.850   2.398
 3819TIP3    H211464   2.710   4.840   2.259
 3820TIP3   OH211465   0.642   4.404   1.854
 3820TIP3    H111466   0.720   4.355   1.878
 3820TIP3    H211467   0.662   4.441   1.768
 3821TIP3   OH211468   6.237   1.933   2.495
 3821TIP3    H111469   6.164   1.960   2.439
 3821TIP3    H211470   6.245   2.002   2.560
 3822TIP3   OH211471   5.284   4.148   1.733
 3822TIP3    H111472   5.376   4.166   1.750
 3822TIP3    H211473   5.284   4.077   1.668
 3823TIP3   OH211474   3.833   5.531   2.771
 3823TIP3    H111475   3.888   5.608   2.788
 3823TIP3    H211476   3.767   5.534   2.839
 3824TIP3   OH211477   4.546   4.877   2.911
 3824TIP3    H111478   4.486   4.836   2.849
 3824TIP3    H211479   4.592   4.803   2.951
 3825TIP3   OH211480   3.997   1.426   1.821
 3825TIP3    H111481   4.015   1.367   1.748
 3825TIP3    H211482   4.073   1.483   1.827
 3826TIP3   OH211483   2.811   0.740   0.064
 3826TIP3    H111484   2.824   0.691  -0.017
 3826TIP3    H211485   2.848   0.684   0.132
 3827TIP3   OH211486   1.775   5.693   5.082
 3827TIP3    H111487   1.847   5.744   5.046
 3827TIP3    H211488   1.761   5.730   5.169
 3828TIP3   OH211489   1.941   1.286   3.201
 3828TIP3    H111490   1.922   1.259   3.291
 3828TIP3    H211491   1.975   1.206   3.159
 3829TIP3   OH211492   2.188   0.458   0.289
 3829TIP3    H111493   2.110   0.416   0.254
 3829TIP3    H211494   2.161   0.492   0.375
 3830TIP3   OH211495   2.105   4.663   2.071
 3830TIP3    H111496   2.164   4.615   2.129
 3830TIP3    H211497   2.139   4.753   2.071
 3831TIP3   OH211498   4.030   3.747   0.436
 3831TIP3    H111499   3.951   3.761   0.486
 3831TIP3    H211500   4.022   3.805   0.360
 3832TIP3   OH211501   5.980   1.490   2.380
 3832TIP3    H111502   5.931   1.457   2.455
 3832TIP3    H211503   6.043   1.552   2.418
 3833TIP3   OH211504   1.870   2.791   2.596
 3833TIP3    H111505   1.884   2.706   2.639
 3833TIP3    H211506   1.810   2.772   2.524
 3834TIP3   OH211507   5.977   4.240   2.420
 3834TIP3    H111508   6.029   4.177   2.370
 3834TIP3    H211509   6.030   4.259   2.498
 3835TIP3   OH211510   4.214   5.476   4.997
 3835TIP3    H111511   4.220   5.436   4.909
 3835TIP3    H211512   4.294   5.528   5.005
 3836TIP3   OH211513   0.277   2.249   0.340
 3836TIP3    H111514   0.250   2.246   0.249
 3836TIP3    H211515   0.327   2.169   0.354
 3837TIP3   OH211516   3.207   5.939   1.670
 3837TIP3    H111517   3.248   6.014   1.712
 3837TIP3    H211518   3.264   5.920   1.595
 3838TIP3   OH211519   2.785   1.605   3.346
 3838TIP3    H111520   2.790   1.674   3.280
 3838TIP3    H211521   2.692   1.581   3.348
 3839TIP3   OH211522   0.425   1.627   0.538
 3839TIP3    H111523   0.476   1.651   0.616
 3839TIP3    H211524   0.397   1.710   0.500
 3840TIP3   OH211525   3.259   3.131   1.922
 3840TIP3    H111526   3.166   3.153   1.920
 3840TIP3    H211527   3.267   3.067   1.993
 3841TIP3   OH211528   5.241   0.383   0.167
 3841TIP3    H111529   5.221   0.379   0.261
 3841TIP3    H211530   5.331   0.415   0.163
 3842TIP3   OH211531   1.673   4.214   1.465
 3842TIP3    H111532   1.676   4.309   1.452
 3842TIP3    H211533   1.662   4.204   1.560
 3843TIP3   OH211534   0.743   4.780   3.230
 3843TIP3    H111535   0.838   4.775   3.233
 3843TIP3    H211536   0.724   4.861   3.183
 3844TIP3   OH211537   1.202   5.760   2.135
 3844TIP3    H111538   1.157   5.768   2.050
 3844TIP3    H211539   1.294   5.777   2.115
 3845TIP3   OH211540   0.070   1.171   0.924
 3845TIP3    H111541   0.038   1.147   1.011
 3845TIP3    H211542   0.165   1.181   0.935
 3846TIP3   OH211543   1.418   2.128   3.013
 3846TIP3    H111544   1.491   2.087   2.967
 3846TIP3    H211545   1.382   2.191   2.951
 3847TIP3   OH211546   1.289   0.859   3.764
 3847TIP3    H111547   1.324   0.839   3.677
 3847TIP3    H211548   1.203   0.819   3.766
 3848TIP3   OH211549   1.571   4.487   3.998
 3848TIP3    H111550   1.619   4.491   4.080
 3848TIP3    H211551   1.488   4.445   4.020
 3849TIP3   OH211552   2.244   4.132   3.098
 3849TIP3    H111553   2.187   4.055   3.094
 3849TIP3    H211554   2.204   4.194   3.037
 3850TIP3   OH211555   3.132   1.272   4.428
 3850TIP3    H111556   3.105   1.212   4.358
 3850TIP3    H211557   3.191   1.334   4.385
 3851TIP3   OH211558   1.781   1.034   4.966
 3851TIP3    H111559   1.821   1.108   4.920
 3851TIP3    H211560   1.708   1.072   5.014
 3852TIP3   OH211561   5.697   3.795   0.708
 3852TIP3    H111562   5.679   3.797   0.614
 3852TIP3    H211563   5.767   3.859   0.720
 3853TIP3   OH211564   2.672   1.007   4.253
 3853TIP3    H111565   2.704   0.929   4.300
 3853TIP3    H211566   2.617   0.972   4.183
 3854TIP3   OH211567   4.108   4.156   3.065
 3854TIP3    H111568   4.104   4.068   3.027
 3854TIP3    H211569   4.067   4.213   2.999
 3855TIP3   OH211570   2.793   0.586   3.682
 3855TIP3    H111571   2.765   0.571   3.772
 3855TIP3    H211572   2.889   0.588   3.687
 3856TIP3   OH211573   1.256   5.926   4.092
 3856TIP3    H111574   1.272   6.013   4.129
 3856TIP3    H211575   1.161   5.921   4.081
 3857TIP3   OH211576   3.926   3.955   2.820
 3857TIP3    H111577   3.838   3.933   2.788
 3857TIP3    H211578   3.922   3.938   2.914
 3858TIP3   OH211579   1.173   0.419   4.326
 3858TIP3    H111580   1.158   0.346   4.386
 3858TIP3    H211581   1.245   0.390   4.270
 3859TIP3   OH211582   3.904   4.826   3.581
 3859TIP3    H111583   3.939   4.865   3.502
 3859TIP3    H211584   3.981   4.795   3.629
 3860TIP3   OH211585   2.311   0.490   2.518
 3860TIP3    H111586   2.223   0.478   2.553
 3860TIP3    H211587   2.341   0.402   2.497
 3861TIP3   OH211588   2.210   3.408   4.812
 3861TIP3    H111589   2.146   3.347   4.775
 3861TIP3    H211590   2.176   3.495   4.789
 3862TIP3   OH211591   2.611   1.336   2.025
 3862TIP3    H111592   2.570   1.261   1.982
 3862TIP3    H211593   2.553   1.410   2.005
 3863TIP3   OH211594   3.043   1.766   4.350
 3863TIP3    H111595   3.106   1.808   4.407
 3863TIP3    H211596   3.067   1.795   4.262
 3864TIP3   OH211597   0.563   3.900   2.407
 3864TIP3    H111598   0.544   3.930   2.496
 3864TIP3    H211599   0.630   3.833   2.418
 3865TIP3   OH211600   2.102   5.793   0.688
 3865TIP3    H111601   2.082   5.703   0.660
 3865TIP3    H211602   2.186   5.786   0.734
 3866TIP3   OH211603   2.002   0.124   2.585
 3866TIP3    H111604   2.020   0.046   2.638
 3866TIP3    H211605   1.934   0.171   2.633
 3867TIP3   OH211606   5.397   2.084   1.500
 3867TIP3    H111607   5.360   2.026   1.567
 3867TIP3    H211608   5.458   2.028   1.452
 3868TIP3   OH211609   0.214   4.126   3.886
 3868TIP3    H111610   0.166   4.097   3.963
 3868TIP3    H211611   0.166   4.203   3.855
 3869TIP3   OH211612   5.791   4.384   1.431
 3869TIP3    H111613   5.769   4.456   1.373
 3869TIP3    H211614   5.862   4.418   1.486
 3870TIP3   OH211615   5.141   3.661   3.051
 3870TIP3    H111616   5.175   3.648   3.140
 3870TIP3    H211617   5.171   3.748   3.026
 3871TIP3   OH211618   0.722   1.208   4.154
 3871TIP3    H111619   0.753   1.256   4.077
 3871TIP3    H211620   0.733   1.269   4.227
 3872TIP3   OH211621   4.666   4.024   0.143
 3872TIP3    H111622   4.601   3.979   0.197
 3872TIP3    H211623   4.717   4.076   0.205
 3873TIP3   OH211624   5.614   1.198   4.842
 3873TIP3    H111625   5.562   1.164   4.915
 3873TIP3    H211626   5.625   1.123   4.783
 3874TIP3   OH211627   0.828   3.129   0.383
 3874TIP3    H111628   0.762   3.061   0.396
 3874TIP3    H211629   0.805   3.196   0.448
 3875TIP3   OH211630   5.698   2.651   4.353
 3875TIP3    H111631   5.759   2.669   4.281
 3875TIP3    H211632   5.744   2.587   4.408
 3876TIP3   OH211633   4.940   3.529   2.890
 3876TIP3    H111634   4.968   3.531   2.798
 3876TIP3    H211635   5.005   3.583   2.936
 3877TIP3   OH211636   5.557   4.786   4.879
 3877TIP3    H111637   5.637   4.799   4.931
 3877TIP3    H211638   5.507   4.721   4.928
 3878TIP3   OH211639   4.954   1.413   2.652
 3878TIP3    H111640   4.992   1.390   2.737
 3878TIP3    H211641   5.029   1.424   2.594
 3879TIP3   OH211642   2.794   3.818   1.725
 3879TIP3    H111643   2.738   3.832   1.649
 3879TIP3    H211644   2.770   3.732   1.757
 3880TIP3   OH211645   2.264   4.628   0.838
 3880TIP3    H111646   2.328   4.698   0.826
 3880TIP3    H211647   2.307   4.566   0.897
 3881TIP3   OH211648   3.091   3.615   4.348
 3881TIP3    H111649   3.142   3.680   4.299
 3881TIP3    H211650   3.074   3.546   4.284
 3882TIP3   OH211651   6.017   2.584   2.274
 3882TIP3    H111652   6.073   2.600   2.198
 3882TIP3    H211653   5.933   2.559   2.237
 3883TIP3   OH211654   2.937   4.632   1.908
 3883TIP3    H111655   2.989   4.693   1.960
 3883TIP3    H211656   2.944   4.664   1.819
 3884TIP3   OH211657   1.382   1.789   3.321
 3884TIP3    H111658   1.435   1.717   3.356
 3884TIP3    H211659   1.363   1.762   3.231
 3885TIP3   OH211660   5.362   2.453   4.442
 3885TIP3    H111661   5.300   2.401   4.391
 3885TIP3    H211662   5.317   2.470   4.525
 3886TIP3   OH211663   5.677   2.315   4.241
 3886TIP3    H111664   5.690   2.292   4.333
 3886TIP3    H211665   5.746   2.378   4.221
 3887TIP3   OH211666   0.929   3.707   1.308
 3887TIP3    H111667   0.868   3.781   1.317
 3887TIP3    H211668   0.872   3.630   1.309
 3888TIP3   OH211669   1.523   3.843   3.574
 3888TIP3    H111670   1.606   3.803   3.546
 3888TIP3    H211671   1.541   3.876   3.662
 3889TIP3   OH211672   0.740   0.274   4.919
 3889TIP3    H111673   0.728   0.184   4.890
 3889TIP3    H211674   0.728   0.271   5.014
 3890TIP3   OH211675   3.651   4.825   4.961
 3890TIP3    H111676   3.666   4.917   4.939
 3890TIP3    H211677   3.713   4.805   5.030
 3891TIP3   OH211678   5.733   1.754   4.048
 3891TIP3    H111679   5.824   1.735   4.024
 3891TIP3    H211680   5.739   1.794   4.135
 3892TIP3   OH211681   3.831   4.548   2.209
 3892TIP3    H111682   3.924   4.528   2.214
 3892TIP3    H211683   3.789   4.465   2.185
 3893TIP3   OH211684   6.368   5.916   0.206
 3893TIP3    H111685   6.293   5.903   0.148
 3893TIP3    H211686   6.427   5.842   0.186
 3894TIP3   OH211687   6.045   5.333   4.662
 3894TIP3    H111688   6.090   5.375   4.735
 3894TIP3    H211689   6.075   5.242   4.665
 3895TIP3   OH211690   6.094   1.687   3.380
 3895TIP3    H111691   6.082   1.686   3.285
 3895TIP3    H211692   6.076   1.598   3.408
 3896TIP3   OH211693   3.646   3.349   0.589
 3896TIP3    H111694   3.657   3.417   0.656
 3896TIP3    H211695   3.701   3.277   0.618
 3897TIP3   OH211696   5.820   2.012   1.009
 3897TIP3    H111697   5.856   1.936   0.963
 3897TIP3    H211698   5.735   2.027   0.967
 3898TIP3   OH211699   0.098   1.477   3.675
 3898TIP3    H111700   0.157   1.472   3.750
 3898TIP3    H211701   0.152   1.511   3.604
 3899TIP3   OH211702   2.919   2.743   4.000
 3899TIP3    H111703   3.006   2.710   4.021
 3899TIP3    H211704   2.932   2.800   3.924
 3900TIP3   OH211705   4.477   1.625   0.105
 3900TIP3    H111706   4.429   1.692   0.154
 3900TIP3    H211707   4.546   1.597   0.165
 3901TIP3   OH211708   2.329   3.533   3.231
 3901TIP3    H111709   2.358   3.469   3.296
 3901TIP3    H211710   2.237   3.548   3.252
 3902TIP3   OH211711   0.128   5.879   1.172
 3902TIP3    H111712   0.064   5.824   1.216
 3902TIP3    H211713   0.083   5.910   1.093
 3903TIP3   OH211714   3.099   4.101   3.559
 3903TIP3    H111715   3.012   4.134   3.541
 3903TIP3    H211716   3.128   4.063   3.475
 3904TIP3   OH211717   0.516   0.132   3.053
 3904TIP3    H111718   0.435   0.182   3.060
 3904TIP3    H211719   0.584   0.198   3.045
 3905TIP3   OH211720   0.492   2.663   4.101
 3905TIP3    H111721   0.485   2.729   4.032
 3905TIP3    H211722   0.521   2.584   4.057
 3906TIP3   OH211723   4.888   1.225   3.220
 3906TIP3    H111724   4.893   1.307   3.172
 3906TIP3    H211725   4.817   1.176   3.177
 3907TIP3   OH211726   1.607   2.780   1.951
 3907TIP3    H111727   1.573   2.848   2.009
 3907TIP3    H211728   1.531   2.728   1.926
 3908TIP3   OH211729   5.749   3.050   3.919
 3908TIP3    H111730   5.837   3.086   3.911
 3908TIP3    H211731   5.762   2.961   3.950
 3909TIP3   OH211732   3.546   2.371   3.766
 3909TIP3    H111733   3.563   2.418   3.684
 3909TIP3    H211734   3.479   2.306   3.743
 3910TIP3   OH211735   2.228   0.244   4.013
 3910TIP3    H111736   2.301   0.286   3.968
 3910TIP3    H211737   2.150   0.278   3.970
 3911TIP3   OH211738   4.740   0.163   2.495
 3911TIP3    H111739   4.800   0.091   2.515
 3911TIP3    H211740   4.656   0.136   2.531
 3912TIP3   OH211741   0.018   0.179   3.710
 3912TIP3    H111742   0.113   0.183   3.709
 3912TIP3    H211743  -0.003   0.097   3.665
 3913TIP3   OH211744   5.729   5.973   2.513
 3913TIP3    H111745   5.668   5.947   2.444
 3913TIP3    H211746   5.689   6.051   2.552
 3914TIP3   OH211747   4.604   2.308   1.713
 3914TIP3    H111748   4.566   2.323   1.800
 3914TIP3    H211749   4.580   2.218   1.692
 3915TIP3   OH211750   5.807   2.916   3.079
 3915TIP3    H111751   5.809   2.908   2.984
 3915TIP3    H211752   5.715   2.907   3.102
 3916TIP3   OH211753   5.852   1.575   1.493
 3916TIP3    H111754   5.797   1.572   1.415
 3916TIP3    H211755   5.809   1.640   1.549
 3917TIP3   OH211756   5.121   0.411   1.118
 3917TIP3    H111757   5.096   0.390   1.208
 3917TIP3    H211758   5.149   0.503   1.121
 3918TIP3   OH211759   5.470   1.281   0.451
 3918TIP3    H111760   5.380   1.306   0.474
 3918TIP3    H211761   5.490   1.332   0.373
 3919TIP3   OH211762   0.756   5.181   1.645
 3919TIP3    H111763   0.756   5.277   1.649
 3919TIP3    H211764   0.669   5.156   1.676
 3920TIP3   OH211765   5.902   0.498   4.600
 3920TIP3    H111766   5.994   0.480   4.620
 3920TIP3    H211767   5.886   0.585   4.636
 3921TIP3   OH211768   4.933   1.852   4.286
 3921TIP3    H111769   4.941   1.947   4.293
 3921TIP3    H211770   4.957   1.820   4.373
 3922TIP3   OH211771   2.585   0.263   0.646
 3922TIP3    H111772   2.505   0.231   0.687
 3922TIP3    H211773   2.562   0.350   0.613
 3923TIP3   OH211774   1.605   5.449   0.418
 3923TIP3    H111775   1.522   5.486   0.449
 3923TIP3    H211776   1.673   5.505   0.454
 3924TIP3   OH211777   4.141   5.351   1.956
 3924TIP3    H111778   4.075   5.372   2.022
 3924TIP3    H211779   4.189   5.277   1.993
 3925TIP3   OH211780   4.405   1.745   3.128
 3925TIP3    H111781   4.474   1.688   3.163
 3925TIP3    H211782   4.330   1.729   3.185
 3926TIP3   OH211783   2.549   0.140   0.245
 3926TIP3    H111784   2.596   0.113   0.166
 3926TIP3    H211785   2.496   0.063   0.268
 3927TIP3   OH211786   2.154   4.104   3.373
 3927TIP3    H111787   2.196   4.131   3.291
 3927TIP3    H211788   2.193   4.018   3.392
 3928TIP3   OH211789   4.519   1.456   1.354
 3928TIP3    H111790   4.593   1.502   1.313
 3928TIP3    H211791   4.495   1.511   1.428
 3929TIP3   OH211792   3.640   4.677   0.880
 3929TIP3    H111793   3.736   4.681   0.871
 3929TIP3    H211794   3.626   4.649   0.971
 3930TIP3   OH211795   1.124   0.570   0.621
 3930TIP3    H111796   1.056   0.599   0.560
 3930TIP3    H211797   1.167   0.497   0.576
 3931TIP3   OH211798   5.982   3.645   0.442
 3931TIP3    H111799   5.992   3.576   0.507
 3931TIP3    H211800   5.895   3.682   0.459
 3932TIP3   OH211801   1.947   5.234   1.185
 3932TIP3    H111802   1.939   5.327   1.206
 3932TIP3    H211803   1.907   5.225   1.099
 3933TIP3   OH211804   1.418   4.654   1.034
 3933TIP3    H111805   1.464   4.672   0.952
 3933TIP3    H211806   1.342   4.602   1.008
 3934TIP3   OH211807   3.727   3.625   1.702
 3934TIP3    H111808   3.663   3.685   1.663
 3934TIP3    H211809   3.681   3.587   1.777
 3935TIP3   OH211810   3.527   4.346   0.886
 3935TIP3    H111811   3.608   4.331   0.838
 3935TIP3    H211812   3.545   4.423   0.941
 3936TIP3   OH211813   1.985   3.088   5.128
 3936TIP3    H111814   1.916   3.153   5.115
 3936TIP3    H211815   1.948   3.006   5.094
 3937TIP3   OH211816   3.617   1.490   0.213
 3937TIP3    H111817   3.637   1.549   0.141
 3937TIP3    H211818   3.555   1.538   0.268
 3938TIP3   OH211819   2.975   4.036   1.738
 3938TIP3    H111820   2.901   3.976   1.730
 3938TIP3    H211821   2.946   4.103   1.800
 3939TIP3   OH211822   4.720   3.019   5.190
 3939TIP3    H111823   4.757   2.932   5.176
 3939TIP3    H211824   4.691   3.048   5.104
 3940TIP3   OH211825   5.528   1.393   4.592
 3940TIP3    H111826   5.551   1.327   4.658
 3940TIP3    H211827   5.578   1.367   4.514
 3941TIP3   OH211828   2.053   4.506   4.628
 3941TIP3    H111829   1.981   4.490   4.689
 3941TIP3    H211830   2.122   4.446   4.656
 3942TIP3   OH211831   2.646   1.934   1.080
 3942TIP3    H111832   2.724   1.984   1.056
 3942TIP3    H211833   2.574   1.997   1.075
 3943TIP3   OH211834   4.731   1.044   1.967
 3943TIP3    H111835   4.753   0.989   2.042
 3943TIP3    H211836   4.643   1.015   1.942
 3944TIP3   OH211837   2.222   4.314   4.739
 3944TIP3    H111838   2.266   4.249   4.685
 3944TIP3    H211839   2.259   4.302   4.826
 3945TIP3   OH211840   2.992   5.001   1.605
 3945TIP3    H111841   3.011   5.076   1.661
 3945TIP3    H211842   3.078   4.960   1.591
 3946TIP3   OH211843   3.058   1.592   2.793
 3946TIP3    H111844   3.131   1.531   2.782
 3946TIP3    H211845   2.986   1.553   2.743
 3947TIP3   OH211846   1.441   0.366   2.881
 3947TIP3    H111847   1.351   0.376   2.851
 3947TIP3    H211848   1.435   0.375   2.977
 3948TIP3   OH211849   0.415   1.363   1.533
 3948TIP3    H111850   0.434   1.450   1.499
 3948TIP3    H211851   0.328   1.342   1.499
 3949TIP3   OH211852   3.928   5.724   3.399
 3949TIP3    H111853   3.911   5.698   3.308
 3949TIP3    H211854   3.895   5.651   3.451
 3950TIP3   OH211855   2.062   0.054   3.804
 3950TIP3    H111856   2.133  -0.003   3.835
 3950TIP3    H211857   2.102   0.105   3.733
 3951TIP3   OH211858   3.628   4.195   0.344
 3951TIP3    H111859   3.627   4.288   0.368
 3951TIP3    H211860   3.714   4.164   0.372
 3952TIP3   OH211861   3.654   0.315   0.945
 3952TIP3    H111862   3.622   0.233   0.982
 3952TIP3    H211863   3.644   0.379   1.015
 3953TIP3   OH211864   1.757   5.820   1.662
 3953TIP3    H111865   1.723   5.748   1.609
 3953TIP3    H211866   1.684   5.882   1.667
 3954TIP3   OH211867   4.661   4.282   4.094
 3954TIP3    H111868   4.677   4.376   4.095
 3954TIP3    H211869   4.589   4.269   4.156
 3955TIP3   OH211870   5.373   6.023   2.591
 3955TIP3    H111871   5.414   5.949   2.547
 3955TIP3    H211872   5.292   5.987   2.627
 3956TIP3   OH211873   5.119   2.785   2.852
 3956TIP3    H111874   5.030   2.810   2.830
 3956TIP3    H211875   5.132   2.701   2.808
 3957TIP3   OH211876   2.409   3.584   2.617
 3957TIP3    H111877   2.481   3.643   2.595
 3957TIP3    H211878   2.335   3.615   2.565
 3958TIP3   OH211879   2.683   0.606   2.747
 3958TIP3    H111880   2.679   0.519   2.786
 3958TIP3    H211881   2.610   0.607   2.685
 3959TIP3   OH211882   5.652   0.272   0.510
 3959TIP3    H111883   5.612   0.186   0.501
 3959TIP3    H211884   5.721   0.259   0.575
 3960TIP3   OH211885   1.766   0.166   0.145
 3960TIP3    H111886   1.676   0.156   0.111
 3960TIP3    H211887   1.817   0.104   0.093
 3961TIP3   OH211888   2.248   4.670   4.770
 3961TIP3    H111889   2.184   4.629   4.712
 3961TIP3    H211890   2.292   4.736   4.716
 3962TIP3   OH211891   1.886   4.598   1.913
 3962TIP3    H111892   1.963   4.629   1.961
 3962TIP3    H211893   1.897   4.502   1.910
 3963TIP3   OH211894   5.431   0.682   4.090
 3963TIP3    H111895   5.406   0.759   4.142
 3963TIP3    H211896   5.527   0.679   4.096
 3964TIP3   OH211897   0.175   4.275   0.612
 3964TIP3    H111898   0.147   4.361   0.583
 3964TIP3    H211899   0.260   4.261   0.569
 3965TIP3   OH211900   4.620   3.440   1.650
 3965TIP3    H111901   4.710   3.416   1.670
 3965TIP3    H211902   4.582   3.462   1.735
 3966TIP3   OH211903   0.065   3.557   2.083
 3966TIP3    H111904   0.145   3.577   2.034
 3966TIP3    H211905   0.037   3.641   2.119
 3967TIP3   OH211906   5.772   3.620   3.036
 3967TIP3    H111907   5.865   3.643   3.031
 3967TIP3    H211908   5.753   3.576   2.954
 3968TIP3   OH211909   0.723   3.978   0.402
 3968TIP3    H111910   0.799   3.922   0.383
 3968TIP3    H211911   0.697   4.014   0.318
 3969TIP3   OH211912   5.711   1.087   3.267
 3969TIP3    H111913   5.631   1.047   3.300
 3969TIP3    H211914   5.769   1.013   3.248
 3970TIP3   OH211915   5.431   1.801   4.648
 3970TIP3    H111916   5.460   1.725   4.699
 3970TIP3    H211917   5.412   1.765   4.561
 3971TIP3   OH211918   4.404   2.680   1.727
 3971TIP3    H111919   4.448   2.747   1.676
 3971TIP3    H211920   4.452   2.599   1.708
 3972TIP3   OH211921   2.923   2.285   1.818
 3972TIP3    H111922   2.867   2.218   1.857
 3972TIP3    H211923   2.876   2.313   1.740
 3973TIP3   OH211924   5.781   5.532   3.136
 3973TIP3    H111925   5.733   5.604   3.177
 3973TIP3    H211926   5.771   5.459   3.197
 3974TIP3   OH211927   2.682   0.484   4.438
 3974TIP3    H111928   2.627   0.423   4.485
 3974TIP3    H211929   2.756   0.500   4.496
 3975TIP3   OH211930   0.075   3.965   2.317
 3975TIP3    H111931   0.163   3.967   2.278
 3975TIP3    H211932   0.037   3.884   2.284
 3976TIP3   OH211933   4.726   2.069   1.957
 3976TIP3    H111934   4.717   2.027   2.042
 3976TIP3    H211935   4.635   2.082   1.927
 3977TIP3   OH211936   5.088   1.478   2.412
 3977TIP3    H111937   5.065   1.520   2.330
 3977TIP3    H211938   5.157   1.533   2.449
 3978TIP3   OH211939   5.952   4.491   2.742
 3978TIP3    H111940   5.933   4.487   2.648
 3978TIP3    H211941   5.956   4.400   2.770
 3979TIP3   OH211942   1.910   0.917   4.624
 3979TIP3    H111943   1.953   0.853   4.567
 3979TIP3    H211944   1.878   0.985   4.563
 3980TIP3   OH211945   2.593   2.797   0.181
 3980TIP3    H111946   2.589   2.716   0.232
 3980TIP3    H211947   2.682   2.830   0.196
 3981TIP3   OH211948   4.387   4.129   5.044
 3981TIP3    H111949   4.306   4.175   5.025
 3981TIP3    H211950   4.379   4.102   5.136
 3982TIP3   OH211951   3.189   2.111   2.551
 3982TIP3    H111952   3.268   2.127   2.499
 3982TIP3    H211953   3.199   2.021   2.581
 3983TIP3   OH211954   2.012   5.534   4.302
 3983TIP3    H111955   1.991   5.608   4.244
 3983TIP3    H211956   2.080   5.486   4.255
 3984TIP3   OH211957   1.176   1.591   2.041
 3984TIP3    H111958   1.138   1.675   2.065
 3984TIP3    H211959   1.178   1.591   1.946
 3985TIP3   OH211960   5.736   3.385   1.392
 3985TIP3    H111961   5.695   3.471   1.381
 3985TIP3    H211962   5.673   3.334   1.442
 3986TIP3   OH211963   0.260   4.947   2.589
 3986TIP3    H111964   0.249   4.964   2.683
 3986TIP3    H211965   0.315   4.869   2.586
 3987TIP3   OH211966   4.542   4.943   3.227
 3987TIP3    H111967   4.452   4.964   3.201
 3987TIP3    H211968   4.588   4.929   3.145
 3988TIP3   OH211969   2.955   5.867   3.815
 3988TIP3    H111970   2.911   5.931   3.871
 3988TIP3    H211971   2.893   5.850   3.744
 3989TIP3   OH211972   3.877   0.873   4.305
 3989TIP3    H111973   3.949   0.936   4.295
 3989TIP3    H211974   3.808   0.923   4.348
 3990TIP3   OH211975   1.480   3.463   1.597
 3990TIP3    H111976   1.563   3.449   1.550
 3990TIP3    H211977   1.466   3.382   1.646
 3991TIP3   OH211978   2.603   4.502   3.512
 3991TIP3    H111979   2.567   4.414   3.496
 3991TIP3    H211980   2.615   4.539   3.425
 3992TIP3   OH211981   4.797   5.640   1.014
 3992TIP3    H111982   4.876   5.590   1.032
 3992TIP3    H211983   4.829   5.729   0.998
 3993TIP3   OH211984   6.034   4.028   3.333
 3993TIP3    H111985   5.939   4.032   3.344
 3993TIP3    H211986   6.069   4.077   3.407
 3994TIP3   OH211987   5.418   2.759   2.269
 3994TIP3    H111988   5.488   2.744   2.333
 3994TIP3    H211989   5.341   2.780   2.322
 3995TIP3   OH211990   0.764   3.177   3.532
 3995TIP3    H111991   0.695   3.229   3.572
 3995TIP3    H211992   0.828   3.241   3.501
 3996TIP3   OH211993   3.478   1.926   0.769
 3996TIP3    H111994   3.479   1.859   0.838
 3996TIP3    H211995   3.427   1.887   0.699
 3997TIP3   OH211996   2.088   1.554   0.096
 3997TIP3    H111997   2.057   1.463   0.092
 3997TIP3    H211998   2.077   1.587   0.007
 3998TIP3   OH211999   6.199   5.637   2.850
 3998TIP3    H112000   6.207   5.726   2.816
 3998TIP3    H212001   6.119   5.638   2.903
 3999TIP3   OH212002   5.282   4.073   2.522
 3999TIP3    H112003   5.363   4.034   2.490
 3999TIP3    H212004   5.267   4.031   2.607
 4000TIP3   OH212005   3.578   2.714   1.200
 4000TIP3    H112006   3.571   2.633   1.250
 4000TIP3    H212007   3.657   2.703   1.147
 4001TIP3   OH212008   0.448   5.473   4.492
 4001TIP3    H112009   0.402   5.467   4.575
 4001TIP3    H212010   0.524   5.528   4.510
 4002TIP3   OH212011   2.082   4.259   0.930
 4002TIP3    H112012   2.023   4.211   0.871
 4002TIP3    H212013   2.107   4.337   0.881
 4003TIP3   OH212014   0.174   3.360   4.381
 4003TIP3    H112015   0.132   3.299   4.442
 4003TIP3    H212016   0.142   3.446   4.408
 4004TIP3   OH212017   1.114   4.285   4.980
 4004TIP3    H112018   1.064   4.362   4.953
 4004TIP3    H212019   1.058   4.241   5.044
 4005TIP3   OH212020   1.067   1.042   1.184
 4005TIP3    H112021   1.074   1.079   1.272
 4005TIP3    H212022   1.017   1.106   1.134
 4006TIP3   OH212023   4.644   3.082   0.398
 4006TIP3    H112024   4.626   3.088   0.492
 4006TIP3    H212025   4.738   3.064   0.393
 4007TIP3   OH212026   1.641   0.416   4.367
 4007TIP3    H112027   1.685   0.409   4.282
 4007TIP3    H212028   1.576   0.485   4.354
 4008TIP3   OH212029   5.303   5.091   1.831
 4008TIP3    H112030   5.300   4.996   1.818
 4008TIP3    H212031   5.330   5.126   1.746
 4009TIP3   OH212032   2.892   2.950   4.987
 4009TIP3    H112033   2.895   2.892   4.912
 4009TIP3    H212034   2.798   2.970   4.998
 4010TIP3   OH212035   6.203   4.235   2.850
 4010TIP3    H112036   6.193   4.317   2.898
 4010TIP3    H212037   6.127   4.231   2.792
 4011TIP3   OH212038   5.789   4.833   5.002
 4011TIP3    H112039   5.831   4.782   4.933
 4011TIP3    H212040   5.849   4.906   5.018
 4012TIP3   OH212041   2.207   3.298   0.291
 4012TIP3    H112042   2.139   3.245   0.250
 4012TIP3    H212043   2.221   3.370   0.230
 4013TIP3   OH212044   3.316   0.656   3.183
 4013TIP3    H112045   3.231   0.695   3.160
 4013TIP3    H212046   3.345   0.613   3.103
 4014TIP3   OH212047   5.864   0.857   4.463
 4014TIP3    H112048   5.853   0.909   4.383
 4014TIP3    H212049   5.878   0.922   4.532
 4015TIP3   OH212050   3.971   2.132   0.599
 4015TIP3    H112051   3.908   2.067   0.630
 4015TIP3    H212052   4.006   2.172   0.678
 4016TIP3   OH212053   6.262   2.622   4.289
 4016TIP3    H112054   6.298   2.537   4.261
 4016TIP3    H212055   6.323   2.686   4.251
 4017TIP3   OH212056   4.941   3.680   0.557
 4017TIP3    H112057   4.893   3.599   0.538
 4017TIP3    H212058   5.025   3.651   0.591
 4018TIP3   OH212059   5.752   2.140   4.960
 4018TIP3    H112060   5.786   2.112   5.045
 4018TIP3    H212061   5.663   2.169   4.978
 4019TIP3   OH212062   5.763   3.554   3.889
 4019TIP3    H112063   5.674   3.558   3.854
 4019TIP3    H212064   5.818   3.582   3.817
 4020TIP3   OH212065   1.752   0.786   2.873
 4020TIP3    H112066   1.813   0.721   2.839
 4020TIP3    H212067   1.738   0.846   2.800
 4021TIP3   OH212068   3.811   3.499   3.004
 4021TIP3    H112069   3.835   3.587   3.032
 4021TIP3    H212070   3.894   3.457   2.981
 4022TIP3   OH212071   3.961   0.633   4.796
 4022TIP3    H112072   3.937   0.725   4.791
 4022TIP3    H212073   3.916   0.601   4.875
 4023TIP3   OH212074   3.181   1.125   0.775
 4023TIP3    H112075   3.199   1.081   0.692
 4023TIP3    H212076   3.240   1.083   0.837
 4024TIP3   OH212077   4.287   3.354   0.420
 4024TIP3    H112078   4.217   3.418   0.432
 4024TIP3    H212079   4.286   3.334   0.327
 4025TIP3   OH212080   1.776   3.662   3.700
 4025TIP3    H112081   1.835   3.657   3.775
 4025TIP3    H212082   1.696   3.620   3.729
 4026TIP3   OH212083   1.999   5.675   1.648
 4026TIP3    H112084   1.915   5.713   1.674
 4026TIP3    H212085   1.978   5.586   1.620
 4027TIP3   OH212086   6.204   1.395   1.473
 4027TIP3    H112087   6.181   1.329   1.539
 4027TIP3    H212088   6.293   1.375   1.448
 4028TIP3   OH212089   5.420   1.610   4.842
 4028TIP3    H112090   5.371   1.623   4.924
 4028TIP3    H212091   5.400   1.520   4.817
 4029TIP3   OH212092   1.251   3.137   0.216
 4029TIP3    H112093   1.239   3.044   0.234
 4029TIP3    H212094   1.343   3.145   0.188
 4030TIP3   OH212095   0.272   3.637   3.589
 4030TIP3    H112096   0.226   3.554   3.600
 4030TIP3    H212097   0.344   3.633   3.652
 4031TIP3   OH212098   2.417   4.967   2.759
 4031TIP3    H112099   2.346   5.023   2.791
 4031TIP3    H212100   2.454   5.015   2.685
 4032TIP3   OH212101   2.011   3.585   3.875
 4032TIP3    H112102   2.042   3.604   3.964
 4032TIP3    H212103   2.053   3.503   3.852
 4033TIP3   OH212104   1.329   2.200   0.224
 4033TIP3    H112105   1.333   2.153   0.308
 4033TIP3    H212106   1.237   2.227   0.216
 4034TIP3   OH212107   2.996   1.702   0.646
 4034TIP3    H112108   3.072   1.712   0.703
 4034TIP3    H212109   2.973   1.609   0.650
 4035TIP3   OH212110   0.796   3.752   2.449
 4035TIP3    H112111   0.845   3.693   2.391
 4035TIP3    H212112   0.855   3.767   2.523
 4036TIP3   OH212113   5.807   0.248   2.087
 4036TIP3    H112114   5.869   0.191   2.132
 4036TIP3    H212115   5.764   0.192   2.022
 4037TIP3   OH212116   3.555   0.693   4.959
 4037TIP3    H112117   3.571   0.743   5.039
 4037TIP3    H212118   3.625   0.628   4.957
 4038TIP3   OH212119   0.894   3.428   2.533
 4038TIP3    H112120   0.986   3.451   2.518
 4038TIP3    H212121   0.864   3.491   2.598
 4039TIP3   OH212122   5.992   0.730   1.159
 4039TIP3    H112123   6.009   0.809   1.109
 4039TIP3    H212124   6.043   0.741   1.239
 4040TIP3   OH212125   1.524   3.567   2.467
 4040TIP3    H112126   1.480   3.642   2.427
 4040TIP3    H212127   1.564   3.602   2.547
 4041TIP3   OH212128   5.464   0.150   2.640
 4041TIP3    H112129   5.382   0.198   2.653
 4041TIP3    H212130   5.532   0.208   2.673
 4042TIP3   OH212131   5.949   4.767   1.841
 4042TIP3    H112132   5.944   4.735   1.931
 4042TIP3    H212133   6.009   4.842   1.845
 4043TIP3   OH212134   1.477   5.275   3.497
 4043TIP3    H112135   1.466   5.357   3.450
 4043TIP3    H212136   1.389   5.253   3.527
 4044TIP3   OH212137   3.428   2.336   4.149
 4044TIP3    H112138   3.426   2.383   4.066
 4044TIP3    H212139   3.374   2.259   4.135
 4045TIP3   OH212140   3.441   5.646   2.335
 4045TIP3    H112141   3.359   5.638   2.385
 4045TIP3    H212142   3.482   5.725   2.371
 4046TIP3   OH212143   3.372   3.747   2.942
 4046TIP3    H112144   3.329   3.671   2.905
 4046TIP3    H212145   3.355   3.818   2.880
 4047TIP3   OH212146   1.135   0.900   2.225
 4047TIP3    H112147   1.227   0.890   2.201
 4047TIP3    H212148   1.088   0.846   2.160
 4048TIP3   OH212149   6.046   5.325   2.645
 4048TIP3    H112150   6.105   5.252   2.630
 4048TIP3    H212151   5.964   5.299   2.603
 4049TIP3   OH212152   0.598   5.715   4.140
 4049TIP3    H112153   0.570   5.778   4.207
 4049TIP3    H212154   0.615   5.769   4.063
 4050TIP3   OH212155   2.716   0.315   4.915
 4050TIP3    H112156   2.677   0.367   4.985
 4050TIP3    H212157   2.774   0.254   4.961
 4051TIP3   OH212158   5.869   3.179   3.129
 4051TIP3    H112159   5.836   3.101   3.086
 4051TIP3    H212160   5.879   3.154   3.221
 4052TIP3   OH212161   2.324   0.603   5.117
 4052TIP3    H112162   2.418   0.613   5.102
 4052TIP3    H212163   2.287   0.689   5.096
 4053TIP3   OH212164   3.743   3.839   4.681
 4053TIP3    H112165   3.699   3.874   4.603
 4053TIP3    H212166   3.749   3.913   4.741
 4054TIP3   OH212167   2.805   4.481   4.742
 4054TIP3    H112168   2.828   4.390   4.728
 4054TIP3    H212169   2.873   4.530   4.697
 4055TIP3   OH212170   5.444   1.506   1.746
 4055TIP3    H112171   5.517   1.542   1.797
 4055TIP3    H212172   5.455   1.411   1.754
 4056TIP3   OH212173   4.372   0.826   2.331
 4056TIP3    H112174   4.467   0.827   2.327
 4056TIP3    H212175   4.344   0.841   2.241
 4057TIP3   OH212176   5.117   2.695   4.874
 4057TIP3    H112177   5.176   2.689   4.949
 4057TIP3    H212178   5.125   2.786   4.844
 4058TIP3   OH212179   0.703   2.759   3.327
 4058TIP3    H112180   0.683   2.825   3.261
 4058TIP3    H212181   0.725   2.681   3.277
 4059TIP3   OH212182   0.221   4.963   0.757
 4059TIP3    H112183   0.238   5.052   0.788
 4059TIP3    H212184   0.155   4.929   0.818
 4060TIP3   OH212185   5.112   2.020   3.275
 4060TIP3    H112186   5.038   2.005   3.334
 4060TIP3    H212187   5.134   1.933   3.242
 4061TIP3   OH212188   5.505   1.789   3.620
 4061TIP3    H112189   5.596   1.802   3.596
 4061TIP3    H212190   5.471   1.877   3.638
 4062TIP3   OH212191   0.472   2.770   3.824
 4062TIP3    H112192   0.472   2.753   3.730
 4062TIP3    H212193   0.564   2.783   3.847
 4063TIP3   OH212194   6.025   0.066   0.351
 4063TIP3    H112195   5.954   0.028   0.403
 4063TIP3    H212196   5.992   0.067   0.261
 4064TIP3   OH212197   3.458   2.540   3.971
 4064TIP3    H112198   3.505   2.483   3.910
 4064TIP3    H212199   3.527   2.586   4.019
 4065TIP3   OH212200   6.076   0.466   2.269
 4065TIP3    H112201   5.986   0.469   2.303
 4065TIP3    H212202   6.104   0.376   2.283
 4066TIP3   OH212203   1.419   1.281   3.286
 4066TIP3    H112204   1.514   1.265   3.283
 4066TIP3    H212205   1.386   1.241   3.206
 4067TIP3   OH212206   1.271   3.014   4.082
 4067TIP3    H112207   1.334   2.962   4.034
 4067TIP3    H212208   1.265   2.972   4.168
 4068TIP3   OH212209   5.323   4.556   2.151
 4068TIP3    H112210   5.244   4.610   2.154
 4068TIP3    H212211   5.392   4.613   2.186
 4069TIP3   OH212212   3.014   4.591   4.592
 4069TIP3    H112213   3.045   4.602   4.502
 4069TIP3    H212214   3.054   4.664   4.640
 4070TIP3   OH212215   4.520   0.645   5.039
 4070TIP3    H112216   4.429   0.672   5.053
 4070TIP3    H212217   4.570   0.691   5.106
 4071TIP3   OH212218   0.324   1.129   3.082
 4071TIP3    H112219   0.413   1.108   3.054
 4071TIP3    H212220   0.283   1.044   3.097
 4072TIP3   OH212221   1.942   4.948   1.235
 4072TIP3    H112222   1.950   5.039   1.207
 4072TIP3    H212223   1.879   4.951   1.307
 4073TIP3   OH212224   4.903   2.274   2.836
 4073TIP3    H112225   4.843   2.232   2.898
 4073TIP3    H212226   4.952   2.201   2.798
 4074TIP3   OH212227   1.586   4.678   2.264
 4074TIP3    H112228   1.618   4.725   2.341
 4074TIP3    H212229   1.631   4.719   2.190
 4075TIP3   OH212230   3.008   1.829   0.978
 4075TIP3    H112231   3.048   1.805   1.061
 4075TIP3    H212232   3.075   1.811   0.913
 4076TIP3   OH212233   4.918   5.883   1.089
 4076TIP3    H112234   4.855   5.953   1.106
 4076TIP3    H212235   4.956   5.864   1.175
 4077TIP3   OH212236   6.272   1.922   4.315
 4077TIP3    H112237   6.363   1.948   4.331
 4077TIP3    H212238   6.265   1.915   4.220
 4078TIP3   OH212239   1.415   2.581   2.343
 4078TIP3    H112240   1.366   2.529   2.280
 4078TIP3    H212241   1.507   2.560   2.325
 4079TIP3   OH212242   5.006   5.079   1.576
 4079TIP3    H112243   4.924   5.107   1.616
 4079TIP3    H212244   5.069   5.147   1.600
 4080TIP3   OH212245   2.337   2.729   1.564
 4080TIP3    H112246   2.369   2.797   1.504
 4080TIP3    H212247   2.242   2.741   1.566
 4081TIP3   OH212248   1.694   3.802   3.113
 4081TIP3    H112249   1.635   3.877   3.107
 4081TIP3    H212250   1.703   3.771   3.023
 4082TIP3   OH212251   1.444   4.909   1.932
 4082TIP3    H112252   1.405   4.892   2.018
 4082TIP3    H212253   1.531   4.869   1.937
 4083TIP3   OH212254   3.378   2.239   1.649
 4083TIP3    H112255   3.307   2.302   1.660
 4083TIP3    H212256   3.381   2.192   1.733
 4084TIP3   OH212257   5.745   2.915   1.590
 4084TIP3    H112258   5.789   2.845   1.638
 4084TIP3    H212259   5.756   2.892   1.497
 4085TIP3   OH212260   2.004   1.699   1.131
 4085TIP3    H112261   2.091   1.689   1.168
 4085TIP3    H212262   1.946   1.704   1.206
 4086TIP3   OH212263   2.160   0.237   0.626
 4086TIP3    H112264   2.199   0.183   0.557
 4086TIP3    H212265   2.212   0.317   0.625
 4087TIP3   OH212266   4.264   3.913   4.860
 4087TIP3    H112267   4.174   3.885   4.844
 4087TIP3    H212268   4.262   4.008   4.847
 4088TIP3   OH212269   0.990   2.709   0.755
 4088TIP3    H112270   1.004   2.622   0.716
 4088TIP3    H212271   1.011   2.770   0.685
 4089TIP3   OH212272   6.186   3.048   3.699
 4089TIP3    H112273   6.261   2.990   3.688
 4089TIP3    H212274   6.129   3.028   3.624
 4090TIP3   OH212275   4.604   4.128   1.443
 4090TIP3    H112276   4.601   4.126   1.538
 4090TIP3    H212277   4.654   4.050   1.418
 4091TIP3   OH212278   0.826   2.474   0.568
 4091TIP3    H112279   0.869   2.433   0.493
 4091TIP3    H212280   0.808   2.564   0.540
 4092TIP3   OH212281   6.364   1.752   3.430
 4092TIP3    H112282   6.276   1.720   3.410
 4092TIP3    H212283   6.368   1.838   3.389
 4093TIP3   OH212284   0.757   3.564   4.816
 4093TIP3    H112285   0.664   3.548   4.799
 4093TIP3    H212286   0.801   3.538   4.736
 4094TIP3   OH212287   6.112   5.637   1.870
 4094TIP3    H112288   6.054   5.561   1.870
 4094TIP3    H212289   6.114   5.666   1.779
 4095TIP3   OH212290   2.429   3.258   5.067
 4095TIP3    H112291   2.381   3.230   4.988
 4095TIP3    H212292   2.376   3.226   5.140
 4096TIP3   OH212293   4.109   2.139   1.739
 4096TIP3    H112294   4.109   2.162   1.646
 4096TIP3    H212295   4.030   2.180   1.774
 4097TIP3   OH212296   0.303   3.641   2.428
 4097TIP3    H112297   0.392   3.673   2.414
 4097TIP3    H212298   0.299   3.558   2.381
 4098TIP3   OH212299   5.866   2.973   4.186
 4098TIP3    H112300   5.788   3.013   4.225
 4098TIP3    H212301   5.913   3.046   4.146
 4099TIP3   OH212302   0.404   0.631   4.392
 4099TIP3    H112303   0.434   0.677   4.470
 4099TIP3    H212304   0.343   0.692   4.350
 4100TIP3   OH212305   5.558   4.203   1.797
 4100TIP3    H112306   5.646   4.198   1.833
 4100TIP3    H212307   5.516   4.273   1.848
 4101TIP3   OH212308   2.318   2.668   3.845
 4101TIP3    H112309   2.400   2.636   3.883
 4101TIP3    H212310   2.326   2.649   3.752
 4102TIP3   OH212311   0.222   3.508   2.761
 4102TIP3    H112312   0.257   3.597   2.769
 4102TIP3    H212313   0.288   3.460   2.713
 4103TIP3   OH212314   1.914   2.323   1.164
 4103TIP3    H112315   1.939   2.248   1.111
 4103TIP3    H212316   1.980   2.326   1.234
 4104TIP3   OH212317   5.729   3.080   3.645
 4104TIP3    H112318   5.712   3.073   3.740
 4104TIP3    H212319   5.741   3.173   3.630
 4105TIP3   OH212320   3.355   3.702   3.568
 4105TIP3    H112321   3.383   3.784   3.527
 4105TIP3    H212322   3.339   3.643   3.495
 4106TIP3   OH212323   4.063   4.234   1.749
 4106TIP3    H112324   4.018   4.317   1.729
 4106TIP3    H212325   4.151   4.260   1.775
 4107TIP3   OH212326   1.712   0.263   0.732
 4107TIP3    H112327   1.754   0.304   0.807
 4107TIP3    H212328   1.655   0.331   0.697
 4108TIP3   OH212329   0.141   2.749   2.909
 4108TIP3    H112330   0.216   2.762   2.851
 4108TIP3    H212331   0.148   2.819   2.974
 4109TIP3   OH212332   4.124   5.185   3.527
 4109TIP3    H112333   4.189   5.126   3.563
 4109TIP3    H212334   4.085   5.227   3.603
 4110TIP3   OH212335   5.093   4.799   2.986
 4110TIP3    H112336   5.007   4.824   2.952
 4110TIP3    H212337   5.082   4.797   3.081
 4111TIP3   OH212338   0.417   1.004   4.054
 4111TIP3    H112339   0.500   0.995   4.100
 4111TIP3    H212340   0.434   0.972   3.966
 4112TIP3   OH212341   4.822   4.880   3.726
 4112TIP3    H112342   4.918   4.878   3.726
 4112TIP3    H212343   4.796   4.797   3.687
 4113TIP3   OH212344   1.867   1.625   1.768
 4113TIP3    H112345   1.960   1.634   1.788
 4113TIP3    H212346   1.859   1.654   1.677
 4114TIP3   OH212347   3.077   0.838   3.349
 4114TIP3    H112348   3.109   0.902   3.412
 4114TIP3    H212349   3.011   0.787   3.396
 4115TIP3   OH212350   3.842   3.232   1.209
 4115TIP3    H112351   3.776   3.208   1.273
 4115TIP3    H212352   3.822   3.323   1.186
 4116TIP3   OH212353   1.529   1.250   4.709
 4116TIP3    H112354   1.593   1.279   4.774
 4116TIP3    H212355   1.581   1.218   4.636
 4117TIP3   OH212356   3.331   4.787   1.888
 4117TIP3    H112357   3.344   4.877   1.859
 4117TIP3    H212358   3.271   4.750   1.823
 4118TIP3   OH212359   0.903   2.810   2.158
 4118TIP3    H112360   0.991   2.773   2.148
 4118TIP3    H212361   0.901   2.885   2.099
 4119TIP3   OH212362   1.092   5.413   2.833
 4119TIP3    H112363   1.146   5.357   2.888
 4119TIP3    H212364   1.103   5.378   2.745
 4120TIP3   OH212365   1.741   3.296   3.667
 4120TIP3    H112366   1.739   3.380   3.620
 4120TIP3    H212367   1.648   3.275   3.682
 4121TIP3   OH212368   1.562   0.718   0.038
 4121TIP3    H112369   1.580   0.635   0.081
 4121TIP3    H212370   1.609   0.713  -0.045
 4122TIP3   OH212371   3.005   5.626   2.864
 4122TIP3    H112372   2.977   5.635   2.773
 4122TIP3    H212373   2.940   5.674   2.915
 4123TIP3   OH212374   5.628   2.773   1.118
 4123TIP3    H112375   5.688   2.707   1.152
 4123TIP3    H212376   5.682   2.825   1.057
 4124TIP3   OH212377   4.251   0.441   1.277
 4124TIP3    H112378   4.166   0.480   1.254
 4124TIP3    H212379   4.304   0.515   1.306
 4125TIP3   OH212380   4.903   1.832   3.099
 4125TIP3    H112381   4.856   1.819   3.017
 4125TIP3    H212382   4.992   1.802   3.080
 4126TIP3   OH212383   5.307   1.690   3.408
 4126TIP3    H112384   5.379   1.639   3.371
 4126TIP3    H212385   5.305   1.667   3.501
 4127TIP3   OH212386   6.168   1.074   4.909
 4127TIP3    H112387   6.181   1.127   4.830
 4127TIP3    H212388   6.072   1.066   4.916
 4128TIP3   OH212389   0.516   5.930   1.364
 4128TIP3    H112390   0.604   5.907   1.393
 4128TIP3    H212391   0.493   6.008   1.416
 4129TIP3   OH212392   1.065   1.382   2.954
 4129TIP3    H112393   1.072   1.477   2.940
 4129TIP3    H212394   0.974   1.362   2.934
 4130TIP3   OH212395   5.320   5.887   0.565
 4130TIP3    H112396   5.319   5.954   0.633
 4130TIP3    H212397   5.402   5.903   0.518
 4131TIP3   OH212398   4.281   1.808   0.221
 4131TIP3    H112399   4.305   1.901   0.223
 4131TIP3    H212400   4.211   1.802   0.156
 4132TIP3   OH212401   4.511   5.736   0.161
 4132TIP3    H112402   4.478   5.647   0.145
 4132TIP3    H212403   4.433   5.791   0.157
 4133TIP3   OH212404   0.925   2.118   2.206
 4133TIP3    H112405   0.937   2.058   2.279
 4133TIP3    H212406   0.957   2.070   2.130
 4134TIP3   OH212407   5.648   2.607   3.185
 4134TIP3    H112408   5.559   2.637   3.201
 4134TIP3    H212409   5.684   2.592   3.272
 4135TIP3   OH212410   4.324   4.759   3.710
 4135TIP3    H112411   4.303   4.771   3.803
 4135TIP3    H212412   4.405   4.707   3.710
 4136TIP3   OH212413   3.221   5.544   2.996
 4136TIP3    H112414   3.276   5.618   3.024
 4136TIP3    H212415   3.143   5.585   2.959
 4137TIP3   OH212416   3.582   2.459   0.705
 4137TIP3    H112417   3.498   2.487   0.739
 4137TIP3    H212418   3.600   2.519   0.632
 4138TIP3   OH212419   3.809   0.317   1.741
 4138TIP3    H112420   3.833   0.322   1.648
 4138TIP3    H212421   3.892   0.331   1.788
 4139TIP3   OH212422   3.834   2.222   1.771
 4139TIP3    H112423   3.773   2.296   1.779
 4139TIP3    H212424   3.838   2.205   1.677
 4140TIP3   OH212425   1.399   1.246   3.785
 4140TIP3    H112426   1.377   1.177   3.848
 4140TIP3    H212427   1.386   1.205   3.699
 4141TIP3   OH212428   1.009   5.623   4.845
 4141TIP3    H112429   1.074   5.689   4.824
 4141TIP3    H212430   1.059   5.551   4.884
 4142TIP3   OH212431   0.534   2.945   0.941
 4142TIP3    H112432   0.520   2.978   1.030
 4142TIP3    H212433   0.598   3.005   0.903
 4143TIP3   OH212434   5.792   4.252   1.880
 4143TIP3    H112435   5.881   4.253   1.845
 4143TIP3    H212436   5.797   4.194   1.957
 4144TIP3   OH212437   2.642   1.208   3.345
 4144TIP3    H112438   2.613   1.206   3.436
 4144TIP3    H212439   2.709   1.276   3.342
 4145TIP3   OH212440   4.344   3.584   2.285
 4145TIP3    H112441   4.376   3.666   2.247
 4145TIP3    H212442   4.265   3.564   2.235
 4146TIP3   OH212443   1.653   2.092   0.635
 4146TIP3    H112444   1.630   2.181   0.661
 4146TIP3    H212445   1.747   2.095   0.618
 4147TIP3   OH212446   3.777   0.404   0.256
 4147TIP3    H112447   3.687   0.427   0.233
 4147TIP3    H212448   3.811   0.482   0.301
 4148TIP3   OH212449   5.066   5.911   5.147
 4148TIP3    H112450   5.047   5.824   5.183
 4148TIP3    H212451   5.144   5.940   5.194
 4149TIP3   OH212452   1.358   0.295   3.790
 4149TIP3    H112453   1.397   0.243   3.719
 4149TIP3    H212454   1.344   0.381   3.751
 4150TIP3   OH212455   2.976   4.924   0.323
 4150TIP3    H112456   3.024   4.908   0.242
 4150TIP3    H212457   2.960   4.837   0.359
 4151TIP3   OH212458   0.775   1.041   1.743
 4151TIP3    H112459   0.868   1.023   1.732
 4151TIP3    H212460   0.758   1.116   1.686
 4152TIP3   OH212461   6.175   4.499   2.942
 4152TIP3    H112462   6.215   4.584   2.961
 4152TIP3    H212463   6.111   4.518   2.874
 4153TIP3   OH212464   5.764   3.789   1.948
 4153TIP3    H112465   5.820   3.836   1.886
 4153TIP3    H212466   5.676   3.796   1.911
 4154TIP3   OH212467   4.625   2.387   2.196
 4154TIP3    H112468   4.640   2.389   2.291
 4154TIP3    H212469   4.648   2.475   2.166
 4155TIP3   OH212470   0.654   0.677   2.001
 4155TIP3    H112471   0.718   0.639   2.062
 4155TIP3    H212472   0.680   0.769   1.996
 4156TIP3   OH212473   2.248   2.262   3.118
 4156TIP3    H112474   2.222   2.327   3.183
 4156TIP3    H212475   2.256   2.180   3.167
 4157TIP3   OH212476   0.667   5.039   4.411
 4157TIP3    H112477   0.730   4.978   4.450
 4157TIP3    H212478   0.721   5.108   4.373
 4158TIP3   OH212479   1.014   5.101   1.629
 4158TIP3    H112480   1.015   5.097   1.534
 4158TIP3    H212481   0.925   5.129   1.651
 4159TIP3   OH212482   3.280   0.230   3.871
 4159TIP3    H112483   3.287   0.167   3.799
 4159TIP3    H212484   3.364   0.226   3.916
 4160TIP3   OH212485   5.182   2.067   2.483
 4160TIP3    H112486   5.261   2.016   2.501
 4160TIP3    H212487   5.211   2.136   2.423
 4161TIP3   OH212488   2.773   4.345   0.643
 4161TIP3    H112489   2.824   4.267   0.622
 4161TIP3    H212490   2.746   4.379   0.558
 4162TIP3   OH212491   3.517   5.669   4.876
 4162TIP3    H112492   3.593   5.616   4.898
 4162TIP3    H212493   3.448   5.606   4.858
 4163TIP3   OH212494   4.523   2.568   2.004
 4163TIP3    H112495   4.563   2.481   2.001
 4163TIP3    H212496   4.431   2.552   2.021
 4164TIP3   OH212497   2.286   4.007   1.723
 4164TIP3    H112498   2.380   4.012   1.738
 4164TIP3    H212499   2.259   4.098   1.708
 4165TIP3   OH212500   4.788   3.187   3.316
 4165TIP3    H112501   4.863   3.129   3.301
 4165TIP3    H212502   4.825   3.275   3.319
 4166TIP3   OH212503   5.287   2.976   1.673
 4166TIP3    H112504   5.332   2.909   1.621
 4166TIP3    H212505   5.359   3.025   1.714
 4167TIP3   OH212506   0.192   0.578   2.410
 4167TIP3    H112507   0.257   0.576   2.479
 4167TIP3    H212508   0.206   0.497   2.361
 4168TIP3   OH212509   5.830   3.815   5.173
 4168TIP3    H112510   5.785   3.898   5.190
 4168TIP3    H212511   5.772   3.769   5.113
 4169TIP3   OH212512   2.366   4.016   4.286
 4169TIP3    H112513   2.291   4.048   4.337
 4169TIP3    H212514   2.350   3.922   4.277
 4170TIP3   OH212515   5.513   3.415   2.220
 4170TIP3    H112516   5.465   3.497   2.214
 4170TIP3    H212517   5.600   3.441   2.250
 4171TIP3   OH212518   2.472   4.823   1.160
 4171TIP3    H112519   2.464   4.849   1.251
 4171TIP3    H212520   2.413   4.882   1.112
 4172TIP3   OH212521   4.297   4.642   3.455
 4172TIP3    H112522   4.245   4.682   3.386
 4172TIP3    H212523   4.293   4.704   3.528
 4173TIP3   OH212524   1.315   3.914   1.337
 4173TIP3    H112525   1.325   3.823   1.311
 4173TIP3    H212526   1.388   3.959   1.295
 4174TIP3   OH212527   1.405   0.449   4.572
 4174TIP3    H112528   1.444   0.385   4.632
 4174TIP3    H212529   1.459   0.527   4.582
 4175TIP3   OH212530   4.177   3.844   1.527
 4175TIP3    H112531   4.099   3.809   1.570
 4175TIP3    H212532   4.230   3.880   1.599
 4176TIP3   OH212533   2.921   1.831   5.136
 4176TIP3    H112534   2.931   1.873   5.221
 4176TIP3    H212535   2.980   1.755   5.139
 4177TIP3   OH212536   5.603   5.899   3.653
 4177TIP3    H112537   5.540   5.903   3.725
 4177TIP3    H212538   5.549   5.901   3.574
 4178TIP3   OH212539   5.288   3.467   4.844
 4178TIP3    H112540   5.284   3.413   4.923
 4178TIP3    H212541   5.239   3.546   4.867
 4179TIP3   OH212542   3.243   3.368   4.442
 4179TIP3    H112543   3.182   3.314   4.392
 4179TIP3    H212544   3.225   3.457   4.414
 4180TIP3   OH212545   0.788   3.136   2.857
 4180TIP3    H112546   0.720   3.103   2.916
 4180TIP3    H212547   0.740   3.168   2.781
 4181TIP3   OH212548   1.328   5.531   4.077
 4181TIP3    H112549   1.393   5.495   4.138
 4181TIP3    H212550   1.331   5.626   4.092
 4182TIP3   OH212551   1.731   4.259   5.032
 4182TIP3    H112552   1.759   4.213   5.111
 4182TIP3    H212553   1.717   4.190   4.967
 4183TIP3   OH212554   5.664   0.634   3.591
 4183TIP3    H112555   5.587   0.598   3.634
 4183TIP3    H212556   5.646   0.623   3.497
 4184TIP3   OH212557   1.677   2.596   2.269
 4184TIP3    H112558   1.696   2.596   2.175
 4184TIP3    H212559   1.758   2.565   2.309
 4185TIP3   OH212560   6.284   1.863   4.029
 4185TIP3    H112561   6.315   1.867   3.939
 4185TIP3    H212562   6.277   1.955   4.056
 4186TIP3   OH212563   4.928   4.417   0.418
 4186TIP3    H112564   4.839   4.396   0.447
 4186TIP3    H212565   4.917   4.494   0.361
 4187TIP3   OH212566   0.257   2.020   4.539
 4187TIP3    H112567   0.176   2.010   4.590
 4187TIP3    H212568   0.327   1.997   4.600
 4188TIP3   OH212569   3.965   1.409   2.563
 4188TIP3    H112570   3.907   1.484   2.580
 4188TIP3    H212571   4.026   1.408   2.637
 4189TIP3   OH212572   3.593   3.974   1.809
 4189TIP3    H112573   3.565   3.901   1.865
 4189TIP3    H212574   3.535   4.046   1.833
 4190TIP3   OH212575   1.488   4.954   5.139
 4190TIP3    H112576   1.415   4.937   5.079
 4190TIP3    H212577   1.543   4.875   5.133
 4191TIP3   OH212578   1.281   5.354   4.860
 4191TIP3    H112579   1.307   5.437   4.821
 4191TIP3    H212580   1.326   5.352   4.944
 4192TIP3   OH212581   1.070   5.391   1.336
 4192TIP3    H112582   1.138   5.356   1.279
 4192TIP3    H212583   0.997   5.329   1.326
 4193TIP3   OH212584   5.074   0.287   2.225
 4193TIP3    H112585   5.033   0.217   2.175
 4193TIP3    H212586   5.106   0.245   2.305
 4194TIP3   OH212587   5.859   4.722   3.012
 4194TIP3    H112588   5.883   4.667   2.937
 4194TIP3    H212589   5.836   4.806   2.974
 4195TIP3   OH212590   1.352   1.101   2.496
 4195TIP3    H112591   1.378   1.167   2.561
 4195TIP3    H212592   1.267   1.129   2.465
 4196TIP3   OH212593   1.152   1.050   4.722
 4196TIP3    H112594   1.223   1.038   4.785
 4196TIP3    H212595   1.191   1.099   4.651
 4197TIP3   OH212596   4.201   5.249   2.637
 4197TIP3    H112597   4.108   5.231   2.646
 4197TIP3    H212598   4.206   5.341   2.610
 4198TIP3   OH212599   4.273   2.780   2.001
 4198TIP3    H112600   4.278   2.685   1.993
 4198TIP3    H212601   4.231   2.809   1.920
 4199TIP3   OH212602   0.500   3.180   4.080
 4199TIP3    H112603   0.429   3.230   4.039
 4199TIP3    H212604   0.553   3.150   4.007
 4200TIP3   OH212605   3.008   5.515   4.973
 4200TIP3    H112606   2.933   5.530   5.029
 4200TIP3    H212607   3.082   5.555   5.019
 4201TIP3   OH212608   1.769   5.514   0.831
 4201TIP3    H112609   1.787   5.575   0.903
 4201TIP3    H212610   1.677   5.527   0.811
 4202TIP3   OH212611   6.083   1.153   4.332
 4202TIP3    H112612   6.140   1.101   4.390
 4202TIP3    H212613   6.072   1.236   4.378
 4203TIP3   OH212614   5.093   4.273   2.500
 4203TIP3    H112615   5.036   4.268   2.577
 4203TIP3    H212616   5.166   4.215   2.521
 4204TIP3   OH212617   0.025   2.577   2.348
 4204TIP3    H112618   0.079   2.642   2.394
 4204TIP3    H212619  -0.043   2.553   2.412
 4205TIP3   OH212620   0.797   0.018   4.525
 4205TIP3    H112621   0.861   0.081   4.557
 4205TIP3    H212622   0.803   0.024   4.429
 4206TIP3   OH212623   0.460   1.703   3.762
 4206TIP3    H112624   0.500   1.642   3.823
 4206TIP3    H212625   0.533   1.732   3.707
 4207TIP3   OH212626   2.177   2.412   5.116
 4207TIP3    H112627   2.137   2.456   5.041
 4207TIP3    H212628   2.114   2.424   5.187
 4208TIP3   OH212629   5.680   5.688   3.335
 4208TIP3    H112630   5.747   5.756   3.341
 4208TIP3    H212631   5.597   5.735   3.339
 4209TIP3   OH212632   1.391   2.604   1.932
 4209TIP3    H112633   1.387   2.605   1.836
 4209TIP3    H212634   1.395   2.511   1.955
 4210TIP3   OH212635   5.611   1.164   3.661
 4210TIP3    H112636   5.532   1.173   3.715
 4210TIP3    H212637   5.621   1.069   3.650
 4211TIP3   OH212638   3.447   2.835   4.230
 4211TIP3    H112639   3.494   2.771   4.283
 4211TIP3    H212640   3.369   2.789   4.200
 4212TIP3   OH212641   6.347   1.983   5.212
 4212TIP3    H112642   6.356   1.919   5.141
 4212TIP3    H212643   6.261   2.023   5.197
 4213TIP3   OH212644   0.584   5.322   1.241
 4213TIP3    H112645   0.556   5.271   1.317
 4213TIP3    H212646   0.584   5.260   1.169
 4214TIP3   OH212647   5.075   0.362   3.353
 4214TIP3    H112648   5.136   0.429   3.383
 4214TIP3    H212649   5.125   0.280   3.357
 4215TIP3   OH212650   0.482   5.161   1.441
 4215TIP3    H112651   0.425   5.084   1.445
 4215TIP3    H212652   0.488   5.192   1.531
 4216TIP3   OH212653   4.602   5.634   1.453
 4216TIP3    H112654   4.526   5.658   1.506
 4216TIP3    H212655   4.576   5.555   1.406
 4217TIP3   OH212656   0.380   5.511   3.045
 4217TIP3    H112657   0.431   5.564   2.983
 4217TIP3    H212658   0.295   5.500   3.002
 4218TIP3   OH212659   3.744   4.647   1.731
 4218TIP3    H112660   3.684   4.601   1.672
 4218TIP3    H212661   3.687   4.697   1.789
 4219TIP3   OH212662   5.313   5.443   4.532
 4219TIP3    H112663   5.405   5.466   4.545
 4219TIP3    H212664   5.272   5.524   4.503
 4220TIP3   OH212665   5.119   5.556   2.262
 4220TIP3    H112666   5.147   5.623   2.201
 4220TIP3    H212667   5.170   5.478   2.238
 4221TIP3   OH212668   4.626   2.222   1.321
 4221TIP3    H112669   4.621   2.151   1.385
 4221TIP3    H212670   4.535   2.244   1.302
 4222TIP3   OH212671   1.323   5.138   0.001
 4222TIP3    H112672   1.232   5.132  -0.026
 4222TIP3    H212673   1.321   5.129   0.096
 4223TIP3   OH212674   3.069   0.528   3.138
 4223TIP3    H112675   3.008   0.546   3.067
 4223TIP3    H212676   3.114   0.447   3.112
 4224TIP3   OH212677   2.817   2.747   4.320
 4224TIP3    H112678   2.910   2.753   4.300
 4224TIP3    H212679   2.804   2.658   4.350
 4225TIP3   OH212680   3.526   2.315   1.069
 4225TIP3    H112681   3.452   2.342   1.015
 4225TIP3    H212682   3.597   2.302   1.006
 4226TIP3   OH212683   5.028   1.547   0.850
 4226TIP3    H112684   5.047   1.637   0.874
 4226TIP3    H212685   4.988   1.552   0.764
 4227TIP3   OH212686   3.183   4.765   3.101
 4227TIP3    H112687   3.156   4.806   3.183
 4227TIP3    H212688   3.267   4.806   3.080
 4228TIP3   OH212689   2.523   4.620   2.331
 4228TIP3    H112690   2.570   4.557   2.276
 4228TIP3    H212691   2.581   4.634   2.406
 4229TIP3   OH212692   4.092   0.836   0.912
 4229TIP3    H112693   4.023   0.876   0.859
 4229TIP3    H212694   4.170   0.841   0.857
 4230TIP3   OH212695   5.194   1.513   1.863
 4230TIP3    H112696   5.284   1.531   1.836
 4230TIP3    H212697   5.189   1.546   1.953
 4231TIP3   OH212698   4.742   0.553   4.870
 4231TIP3    H112699   4.744   0.532   4.964
 4231TIP3    H212700   4.649   0.563   4.849
 4232TIP3   OH212701   1.908   4.519   3.384
 4232TIP3    H112702   1.969   4.585   3.416
 4232TIP3    H212703   1.837   4.518   3.448
 4233TIP3   OH212704   5.825   1.986   2.680
 4233TIP3    H112705   5.732   2.001   2.663
 4233TIP3    H212706   5.830   1.895   2.709
 4234TIP3   OH212707   3.302   3.719   3.915
 4234TIP3    H112708   3.333   3.629   3.917
 4234TIP3    H212709   3.312   3.746   3.824
 4235TIP3   OH212710   0.399   1.381   2.954
 4235TIP3    H112711   0.413   1.361   3.047
 4235TIP3    H212712   0.332   1.319   2.926
 4236TIP3   OH212713   1.731   2.288   3.183
 4236TIP3    H112714   1.656   2.327   3.139
 4236TIP3    H212715   1.700   2.270   3.272
 4237TIP3   OH212716   2.424   1.346   4.322
 4237TIP3    H112717   2.454   1.270   4.372
 4237TIP3    H212718   2.346   1.315   4.276
 4238TIP3   OH212719   6.190   0.664   1.684
 4238TIP3    H112720   6.220   0.597   1.745
 4238TIP3    H212721   6.214   0.747   1.726
 4239TIP3   OH212722   3.110   0.979   3.098
 4239TIP3    H112723   3.035   0.951   3.044
 4239TIP3    H212724   3.110   0.919   3.172
 4240TIP3   OH212725   5.097   2.962   1.479
 4240TIP3    H112726   5.146   2.988   1.557
 4240TIP3    H212727   5.145   2.886   1.445
 4241TIP3   OH212728   0.686   4.804   1.213
 4241TIP3    H112729   0.680   4.883   1.266
 4241TIP3    H212730   0.644   4.736   1.266
 4242TIP3   OH212731   4.957   4.548   4.285
 4242TIP3    H112732   4.887   4.519   4.226
 4242TIP3    H212733   4.915   4.556   4.370
 4243TIP3   OH212734   1.515   3.525   4.059
 4243TIP3    H112735   1.497   3.591   4.126
 4243TIP3    H212736   1.515   3.442   4.107
 4244TIP3   OH212737   0.687   1.492   2.373
 4244TIP3    H112738   0.718   1.407   2.404
 4244TIP3    H212739   0.595   1.478   2.353
 4245TIP3   OH212740   3.953   5.802   1.480
 4245TIP3    H112741   3.925   5.888   1.448
 4245TIP3    H212742   4.010   5.768   1.411
 4246TIP3   OH212743   4.546   0.819   0.208
 4246TIP3    H112744   4.459   0.848   0.180
 4246TIP3    H212745   4.551   0.841   0.301
 4247TIP3   OH212746   5.992   0.135   4.527
 4247TIP3    H112747   5.926   0.143   4.596
 4247TIP3    H212748   5.966   0.057   4.478
 4248TIP3   OH212749   1.997   4.655   2.391
 4248TIP3    H112750   2.090   4.677   2.401
 4248TIP3    H212751   1.997   4.578   2.334
 4249TIP3   OH212752   5.721   5.661   1.661
 4249TIP3    H112753   5.671   5.630   1.586
 4249TIP3    H212754   5.743   5.752   1.638
 4250TIP3   OH212755   6.304   1.000   3.391
 4250TIP3    H112756   6.399   0.994   3.401
 4250TIP3    H212757   6.272   0.910   3.401
 4251TIP3   OH212758   1.163   3.646   0.693
 4251TIP3    H112759   1.152   3.632   0.599
 4251TIP3    H212760   1.209   3.729   0.699
 4252TIP3   OH212761   1.302   0.801   2.487
 4252TIP3    H112762   1.291   0.895   2.479
 4252TIP3    H212763   1.226   0.772   2.538
 4253TIP3   OH212764   5.062   1.885   0.609
 4253TIP3    H112765   4.968   1.894   0.599
 4253TIP3    H212766   5.079   1.792   0.592
 4254TIP3   OH212767   3.444   4.909   2.831
 4254TIP3    H112768   3.532   4.928   2.864
 4254TIP3    H212769   3.442   4.814   2.819
 4255TIP3   OH212770   0.763   1.480   1.708
 4255TIP3    H112771   0.689   1.540   1.715
 4255TIP3    H212772   0.759   1.428   1.788
 4256TIP3   OH212773   2.301   5.026   1.088
 4256TIP3    H112774   2.281   5.104   1.139
 4256TIP3    H212775   2.323   5.059   1.001
 4257TIP3   OH212776   3.476   5.898   1.176
 4257TIP3    H112777   3.421   5.968   1.142
 4257TIP3    H212778   3.558   5.906   1.128
 4258TIP3   OH212779   0.027   3.942   3.216
 4258TIP3    H112780   0.042   3.882   3.289
 4258TIP3    H212781   0.080   4.019   3.237
 4259TIP3   OH212782   2.731   5.204   3.547
 4259TIP3    H112783   2.757   5.135   3.486
 4259TIP3    H212784   2.662   5.253   3.501
 4260TIP3   OH212785   2.383   5.293   1.716
 4260TIP3    H112786   2.354   5.313   1.627
 4260TIP3    H212787   2.362   5.372   1.766
 4261TIP3   OH212788   4.133   0.193   2.210
 4261TIP3    H112789   4.176   0.276   2.190
 4261TIP3    H212790   4.168   0.169   2.297
 4262TIP3   OH212791   5.455   2.298   4.075
 4262TIP3    H112792   5.506   2.240   4.018
 4262TIP3    H212793   5.520   2.336   4.135
 4263TIP3   OH212794   0.345   2.272   1.919
 4263TIP3    H112795   0.352   2.271   2.015
 4263TIP3    H212796   0.420   2.324   1.890
 4264TIP3   OH212797   4.299   2.557   1.477
 4264TIP3    H112798   4.229   2.585   1.418
 4264TIP3    H212799   4.373   2.613   1.454
 4265TIP3   OH212800   5.807   5.905   4.469
 4265TIP3    H112801   5.859   5.840   4.516
 4265TIP3    H212802   5.869   5.974   4.446
 4266TIP3   OH212803   2.649   2.188   4.083
 4266TIP3    H112804   2.688   2.274   4.068
 4266TIP3    H212805   2.716   2.126   4.053
 4267TIP3   OH212806   1.934   5.115   4.130
 4267TIP3    H112807   1.962   5.206   4.139
 4267TIP3    H212808   2.007   5.073   4.084
 4268TIP3   OH212809   0.061   0.937   4.844
 4268TIP3    H112810   0.021   1.024   4.837
 4268TIP3    H212811   0.004   0.889   4.903
 4269TIP3   OH212812   4.995   4.596   1.302
 4269TIP3    H112813   4.967   4.684   1.329
 4269TIP3    H212814   4.929   4.538   1.340
 4270TIP3   OH212815   4.427   2.954   4.003
 4270TIP3    H112816   4.492   2.961   4.072
 4270TIP3    H212817   4.394   2.864   4.011
 4271TIP3   OH212818   1.767   1.377   1.883
 4271TIP3    H112819   1.850   1.387   1.929
 4271TIP3    H212820   1.738   1.467   1.865
 4272TIP3   OH212821   3.614   1.710   3.317
 4272TIP3    H112822   3.572   1.675   3.395
 4272TIP3    H212823   3.603   1.643   3.250
 4273TIP3   OH212824   2.775   5.542   0.190
 4273TIP3    H112825   2.779   5.637   0.175
 4273TIP3    H212826   2.691   5.527   0.232
 4274TIP3   OH212827   4.423   3.582   1.079
 4274TIP3    H112828   4.348   3.603   1.024
 4274TIP3    H212829   4.498   3.618   1.032
 4275TIP3   OH212830   5.715   0.971   0.835
 4275TIP3    H112831   5.759   1.020   0.904
 4275TIP3    H212832   5.629   1.012   0.828
 4276TIP3   OH212833   4.276   3.774   3.868
 4276TIP3    H112834   4.351   3.815   3.912
 4276TIP3    H212835   4.265   3.826   3.788
 4277TIP3   OH212836   4.809   3.989   4.136
 4277TIP3    H112837   4.785   4.060   4.197
 4277TIP3    H212838   4.869   3.934   4.186
 4278TIP3   OH212839   4.494   2.251   1.991
 4278TIP3    H112840   4.401   2.256   2.014
 4278TIP3    H212841   4.540   2.266   2.074
 4279TIP3   OH212842   3.098   2.830   3.281
 4279TIP3    H112843   3.040   2.783   3.221
 4279TIP3    H212844   3.082   2.922   3.263
 4280TIP3   OH212845   0.744   5.387   0.887
 4280TIP3    H112846   0.702   5.324   0.946
 4280TIP3    H212847   0.828   5.407   0.929
 4281TIP3   OH212848   4.868   5.473   2.529
 4281TIP3    H112849   4.905   5.554   2.494
 4281TIP3    H212850   4.876   5.410   2.457
 4282TIP3   OH212851   2.805   4.757   0.112
 4282TIP3    H112852   2.841   4.710   0.187
 4282TIP3    H212853   2.737   4.698   0.077
 4283TIP3   OH212854   4.667   2.085   4.117
 4283TIP3    H112855   4.756   2.108   4.091
 4283TIP3    H212856   4.622   2.169   4.124
 4284TIP3   OH212857   3.531   3.752   1.967
 4284TIP3    H112858   3.457   3.774   2.024
 4284TIP3    H212859   3.531   3.656   1.964
 4285TIP3   OH212860   1.004   5.268   3.840
 4285TIP3    H112861   0.995   5.173   3.837
 4285TIP3    H212862   1.056   5.286   3.918
 4286TIP3   OH212863   0.910   2.398   2.224
 4286TIP3    H112864   0.901   2.304   2.236
 4286TIP3    H212865   0.884   2.413   2.134
 4287TIP3   OH212866   4.185   4.996   1.188
 4287TIP3    H112867   4.221   4.911   1.161
 4287TIP3    H212868   4.111   4.973   1.244
 4288TIP3   OH212869   2.004   1.258   0.187
 4288TIP3    H112870   1.971   1.275   0.275
 4288TIP3    H212871   1.948   1.311   0.130
 4289TIP3   OH212872   2.322   2.264   2.433
 4289TIP3    H112873   2.392   2.325   2.456
 4289TIP3    H212874   2.358   2.212   2.362
 4290TIP3   OH212875   2.807   5.272   2.974
 4290TIP3    H112876   2.882   5.289   2.917
 4290TIP3    H212877   2.837   5.203   3.034
 4291TIP3   OH212878   2.050   0.493   3.281
 4291TIP3    H112879   2.089   0.406   3.293
 4291TIP3    H212880   1.985   0.481   3.213
 4292TIP3   OH212881   6.367   3.177   4.527
 4292TIP3    H112882   6.280   3.218   4.523
 4292TIP3    H212883   6.349   3.083   4.522
 4293TIP3   OH212884   3.122   3.695   0.697
 4293TIP3    H112885   3.122   3.736   0.783
 4293TIP3    H212886   3.161   3.761   0.639
 4294TIP3   OH212887   2.216   3.934   0.119
 4294TIP3    H112888   2.155   3.999   0.082
 4294TIP3    H212889   2.240   3.879   0.045
 4295TIP3   OH212890   1.841   3.258   0.908
 4295TIP3    H112891   1.772   3.273   0.972
 4295TIP3    H212892   1.797   3.264   0.823
 4296TIP3   OH212893   0.563   1.601   3.267
 4296TIP3    H112894   0.502   1.648   3.210
 4296TIP3    H212895   0.546   1.637   3.354
 4297TIP3   OH212896   2.500   4.852   3.123
 4297TIP3    H112897   2.505   4.761   3.151
 4297TIP3    H212898   2.482   4.848   3.030
 4298TIP3   OH212899   5.220   5.728   3.717
 4298TIP3    H112900   5.284   5.657   3.705
 4298TIP3    H212901   5.136   5.689   3.694
 4299TIP3   OH212902   2.176   1.932   3.929
 4299TIP3    H112903   2.082   1.920   3.912
 4299TIP3    H212904   2.201   2.006   3.873
 4300TIP3   OH212905   1.110   1.144   3.588
 4300TIP3    H112906   1.098   1.158   3.682
 4300TIP3    H212907   1.192   1.189   3.567
 4301TIP3   OH212908   1.672   1.532   3.921
 4301TIP3    H112909   1.757   1.551   3.881
 4301TIP3    H212910   1.685   1.549   4.014
 4302TIP3   OH212911   1.105   2.413   3.566
 4302TIP3    H112912   1.136   2.382   3.651
 4302TIP3    H212913   1.100   2.508   3.575
 4303TIP3   OH212914   5.004   4.881   2.096
 4303TIP3    H112915   5.084   4.916   2.136
 4303TIP3    H212916   4.988   4.798   2.142
 4304TIP3   OH212917   0.725   2.166   0.443
 4304TIP3    H112918   0.681   2.150   0.359
 4304TIP3    H212919   0.658   2.210   0.496
 4305TIP3   OH212920   2.048   0.210   3.243
 4305TIP3    H112921   2.116   0.168   3.191
 4305TIP3    H212922   2.010   0.138   3.295
 4306TIP3   OH212923   0.773   5.259   3.237
 4306TIP3    H112924   0.841   5.280   3.301
 4306TIP3    H212925   0.821   5.227   3.161
 4307TIP3   OH212926   4.227   1.597   1.961
 4307TIP3    H112927   4.304   1.650   1.984
 4307TIP3    H212928   4.203   1.553   2.042
 4308TIP3   OH212929   1.527   0.809   1.341
 4308TIP3    H112930   1.450   0.846   1.298
 4308TIP3    H212931   1.564   0.749   1.276
 4309TIP3   OH212932   2.289   1.462   1.531
 4309TIP3    H112933   2.315   1.518   1.459
 4309TIP3    H212934   2.356   1.394   1.534
 4310TIP3   OH212935   2.632   4.349   0.864
 4310TIP3    H112936   2.596   4.260   0.864
 4310TIP3    H212937   2.651   4.367   0.772
 4311TIP3   OH212938   5.456   0.839   0.581
 4311TIP3    H112939   5.465   0.884   0.497
 4311TIP3    H212940   5.367   0.803   0.580
 4312TIP3   OH212941   4.704   5.347   0.141
 4312TIP3    H112942   4.715   5.264   0.095
 4312TIP3    H212943   4.793   5.381   0.150
 4313TIP3   OH212944   1.294   0.552   0.231
 4313TIP3    H112945   1.248   0.516   0.306
 4313TIP3    H212946   1.225   0.574   0.168
 4314TIP3   OH212947   0.070   2.783   3.342
 4314TIP3    H112948   0.051   2.689   3.345
 4314TIP3    H212949   0.009   2.818   3.277
 4315TIP3   OH212950   2.232   3.463   5.095
 4315TIP3    H112951   2.221   3.438   5.003
 4315TIP3    H212952   2.283   3.392   5.133
 4316TIP3   OH212953   3.997   1.256   0.130
 4316TIP3    H112954   4.054   1.328   0.104
 4316TIP3    H212955   4.057   1.183   0.146
 4317TIP3   OH212956   3.580   4.639   1.369
 4317TIP3    H112957   3.576   4.591   1.451
 4317TIP3    H212958   3.649   4.704   1.382
 4318TIP3   OH212959   0.605   1.143   3.603
 4318TIP3    H112960   0.676   1.090   3.639
 4318TIP3    H212961   0.543   1.151   3.675
 4319TIP3   OH212962   0.975   2.725   3.120
 4319TIP3    H112963   1.032   2.667   3.070
 4319TIP3    H212964   0.906   2.668   3.153
 4320TIP3   OH212965   6.102   2.589   4.498
 4320TIP3    H112966   6.147   2.597   4.414
 4320TIP3    H212967   6.172   2.595   4.563
 4321TIP3   OH212968   3.030   0.264   0.412
 4321TIP3    H112969   2.958   0.216   0.453
 4321TIP3    H212970   3.036   0.345   0.461
 4322TIP3   OH212971   5.385   3.729   2.538
 4322TIP3    H112972   5.350   3.789   2.604
 4322TIP3    H212973   5.324   3.655   2.537
 4323TIP3   OH212974   4.069   0.690   2.963
 4323TIP3    H112975   4.052   0.777   2.999
 4323TIP3    H212976   4.113   0.643   3.033
 4324TIP3   OH212977   1.948   2.775   5.164
 4324TIP3    H112978   2.007   2.751   5.092
 4324TIP3    H212979   1.865   2.794   5.121
 4325TIP3   OH212980   4.232   2.221   2.057
 4325TIP3    H112981   4.228   2.164   2.134
 4325TIP3    H212982   4.160   2.193   2.001
 4326TIP3   OH212983   4.305   2.109   4.802
 4326TIP3    H112984   4.371   2.174   4.775
 4326TIP3    H212985   4.223   2.143   4.766
 4327TIP3   OH212986   0.294   3.636   4.633
 4327TIP3    H112987   0.208   3.610   4.601
 4327TIP3    H212988   0.279   3.720   4.676
 4328TIP3   OH212989   2.976   3.244   1.115
 4328TIP3    H112990   3.058   3.201   1.138
 4328TIP3    H212991   2.914   3.216   1.183
 4329TIP3   OH212992   3.259   4.841   2.284
 4329TIP3    H112993   3.274   4.866   2.375
 4329TIP3    H212994   3.259   4.925   2.237
 4330TIP3   OH212995   2.992   1.543  -0.007
 4330TIP3    H112996   2.981   1.511   0.083
 4330TIP3    H212997   3.069   1.599  -0.002
 4331TIP3   OH212998   2.128   0.618   1.089
 4331TIP3    H112999   2.034   0.613   1.109
 4331TIP3    H213000   2.165   0.668   1.162
 4332TIP3   OH213001  -0.005   4.920   2.066
 4332TIP3    H113002  -0.019   4.928   2.160
 4332TIP3    H213003   0.081   4.958   2.050
 4333TIP3   OH213004   5.789   0.406   0.283
 4333TIP3    H113005   5.755   0.327   0.241
 4333TIP3    H213006   5.727   0.424   0.354
 4334TIP3   OH213007   2.429   3.471   0.946
 4334TIP3    H113008   2.424   3.462   0.851
 4334TIP3    H213009   2.342   3.445   0.976
 4335TIP3   OH213010   2.403   3.978   5.149
 4335TIP3    H113011   2.363   3.899   5.113
 4335TIP3    H213012   2.357   3.992   5.232
 4336TIP3   OH213013   1.685   3.081   3.482
 4336TIP3    H113014   1.723   3.160   3.522
 4336TIP3    H213015   1.595   3.106   3.460
 4337TIP3   OH213016   0.225   3.474   1.327
 4337TIP3    H113017   0.317   3.494   1.309
 4337TIP3    H213018   0.176   3.521   1.260
 4338TIP3   OH213019   4.725   3.519   2.691
 4338TIP3    H113020   4.778   3.597   2.674
 4338TIP3    H213021   4.751   3.492   2.779
 4339TIP3   OH213022   3.101   5.920   1.945
 4339TIP3    H113023   3.143   5.913   1.859
 4339TIP3    H213024   3.169   5.954   2.002
 4340TIP3   OH213025   2.029   1.744   1.406
 4340TIP3    H113026   2.119   1.713   1.392
 4340TIP3    H213027   1.986   1.673   1.453
 4341TIP3   OH213028   2.252   4.689   3.964
 4341TIP3    H113029   2.173   4.740   3.984
 4341TIP3    H213030   2.280   4.720   3.878
 4342TIP3   OH213031   1.061   3.057   4.588
 4342TIP3    H113032   1.044   3.006   4.508
 4342TIP3    H213033   0.978   3.102   4.605
 4343TIP3   OH213034   0.935   3.597   0.941
 4343TIP3    H113035   0.930   3.673   0.999
 4343TIP3    H213036   1.020   3.605   0.898
 4344TIP3   OH213037   1.702   3.952   2.033
 4344TIP3    H113038   1.707   4.014   2.105
 4344TIP3    H213039   1.793   3.926   2.017
 4345TIP3   OH213040   1.154   3.677   2.748
 4345TIP3    H113041   1.200   3.719   2.821
 4345TIP3    H213042   1.146   3.585   2.775
 4346TIP3   OH213043   2.787   3.313   3.722
 4346TIP3    H113044   2.838   3.248   3.674
 4346TIP3    H213045   2.850   3.354   3.780
 4347TIP3   OH213046   0.166   5.767   3.320
 4347TIP3    H113047   0.135   5.721   3.242
 4347TIP3    H213048   0.160   5.860   3.297
 4348TIP3   OH213049   5.912   0.361   0.899
 4348TIP3    H113050   5.878   0.390   0.984
 4348TIP3    H213051   6.004   0.343   0.915
 4349TIP3   OH213052   1.991   1.057   1.349
 4349TIP3    H113053   2.016   1.122   1.415
 4349TIP3    H213054   1.925   1.101   1.296
 4350TIP3   OH213055   2.857   1.764   2.924
 4350TIP3    H113056   2.804   1.790   2.849
 4350TIP3    H213057   2.931   1.716   2.887
 4351TIP3   OH213058   1.070   1.415   0.095
 4351TIP3    H113059   1.042   1.382   0.180
 4351TIP3    H213060   1.025   1.358   0.032
 4352TIP3   OH213061   2.261   1.844   1.701
 4352TIP3    H113062   2.307   1.880   1.625
 4352TIP3    H213063   2.197   1.911   1.724
 4353TIP3   OH213064   1.328   1.681   4.129
 4353TIP3    H113065   1.284   1.596   4.132
 4353TIP3    H213066   1.286   1.732   4.198
 4354TIP3   OH213067   2.386   3.257   0.478
 4354TIP3    H113068   2.395   3.163   0.489
 4354TIP3    H213069   2.308   3.268   0.423
 4355TIP3   OH213070   2.623   1.940   0.471
 4355TIP3    H113071   2.653   1.907   0.386
 4355TIP3    H213072   2.564   2.012   0.450
 4356TIP3   OH213073   3.057   1.140   4.203
 4356TIP3    H113074   3.082   1.048   4.198
 4356TIP3    H213075   3.042   1.167   4.112
 4357TIP3   OH213076   3.161   0.883   4.182
 4357TIP3    H113077   3.250   0.916   4.182
 4357TIP3    H213078   3.166   0.799   4.228
 4358TIP3   OH213079   3.875   5.195   0.461
 4358TIP3    H113080   3.909   5.106   0.452
 4358TIP3    H213081   3.947   5.244   0.500
 4359TIP3   OH213082   1.660   1.128   3.170
 4359TIP3    H113083   1.743   1.121   3.123
 4359TIP3    H213084   1.677   1.089   3.256
 4360TIP3   OH213085   3.698   5.530   2.318
 4360TIP3    H113086   3.674   5.519   2.410
 4360TIP3    H213087   3.692   5.442   2.281
 4361TIP3   OH213088   3.176   3.536   3.300
 4361TIP3    H113089   3.223   3.506   3.223
 4361TIP3    H213090   3.187   3.465   3.364
 4362TIP3   OH213091   3.264   2.373   0.567
 4362TIP3    H113092   3.196   2.351   0.504
 4362TIP3    H213093   3.327   2.301   0.562
 4363TIP3   OH213094   4.152   5.515   4.536
 4363TIP3    H113095   4.157   5.582   4.604
 4363TIP3    H213096   4.178   5.434   4.580
 4364TIP3   OH213097   5.045   4.504   0.844
 4364TIP3    H113098   5.057   4.458   0.761
 4364TIP3    H213099   5.059   4.596   0.822
 4365TIP3   OH213100   0.065   3.972   1.047
 4365TIP3    H113101   0.036   4.027   1.120
 4365TIP3    H213102  -0.014   3.932   1.013
 4366TIP3   OH213103   5.030   3.352   2.613
 4366TIP3    H113104   4.963   3.298   2.656
 4366TIP3    H213105   5.101   3.357   2.677
 4367TIP3   OH213106   0.692   1.889   0.937
 4367TIP3    H113107   0.765   1.930   0.890
 4367TIP3    H213108   0.672   1.951   1.007
 4368TIP3   OH213109   2.888   2.920   3.778
 4368TIP3    H113110   2.929   2.965   3.704
 4368TIP3    H213111   2.816   2.870   3.740
 4369TIP3   OH213112   4.401   1.688   4.971
 4369TIP3    H113113   4.326   1.630   4.984
 4369TIP3    H213114   4.477   1.630   4.973
 4370TIP3   OH213115   1.662   1.657   1.237
 4370TIP3    H113116   1.658   1.727   1.172
 4370TIP3    H213117   1.673   1.577   1.186
 4371TIP3   OH213118   1.163   1.623   3.228
 4371TIP3    H113119   1.164   1.648   3.136
 4371TIP3    H213120   1.138   1.703   3.274
 4372TIP3   OH213121   6.148   0.715   1.412
 4372TIP3    H113122   6.158   0.703   1.507
 4372TIP3    H213123   6.190   0.798   1.393
 4373TIP3   OH213124   6.040   1.728   3.998
 4373TIP3    H113125   6.031   1.740   3.903
 4373TIP3    H213126   6.116   1.782   4.021
 4374TIP3   OH213127   1.073   1.093   2.396
 4374TIP3    H113128   1.083   1.015   2.343
 4374TIP3    H213129   1.020   1.065   2.471
 4375TIP3   OH213130   4.230   1.458   0.353
 4375TIP3    H113131   4.137   1.474   0.336
 4375TIP3    H213132   4.263   1.542   0.385
 4376TIP3   OH213133   3.813   3.583   4.998
 4376TIP3    H113134   3.821   3.492   5.026
 4376TIP3    H213135   3.792   3.579   4.905
 4377TIP3   OH213136   4.731   1.684   0.334
 4377TIP3    H113137   4.824   1.679   0.312
 4377TIP3    H213138   4.707   1.774   0.310
 4378TIP3   OH213139   6.219   5.633   0.812
 4378TIP3    H113140   6.210   5.553   0.761
 4378TIP3    H213141   6.236   5.602   0.901
 4379TIP3   OH213142   4.584   2.819   2.714
 4379TIP3    H113143   4.493   2.831   2.688
 4379TIP3    H213144   4.583   2.829   2.810
 4380TIP3   OH213145   2.912   1.194   0.543
 4380TIP3    H113146   2.863   1.173   0.464
 4380TIP3    H213147   2.874   1.138   0.611
 4381TIP3   OH213148   2.035   0.549   4.163
 4381TIP3    H113149   1.978   0.598   4.105
 4381TIP3    H213150   2.111   0.606   4.175
 4382TIP3   OH213151   0.261   5.606   1.292
 4382TIP3    H113152   0.186   5.553   1.320
 4382TIP3    H213153   0.225   5.665   1.226
 4383TIP3   OH213154   1.998   2.696   0.663
 4383TIP3    H113155   2.019   2.730   0.750
 4383TIP3    H213156   2.063   2.735   0.605
 4384TIP3   OH213157   2.673   1.265   3.656
 4384TIP3    H113158   2.681   1.346   3.606
 4384TIP3    H213159   2.691   1.291   3.746
 4385TIP3   OH213160   5.919   3.227   4.426
 4385TIP3    H113161   5.987   3.204   4.363
 4385TIP3    H213162   5.837   3.210   4.379
 4386TIP3   OH213163   1.022   1.179   4.329
 4386TIP3    H113164   1.089   1.212   4.269
 4386TIP3    H213165   0.952   1.244   4.326
 4387TIP3   OH213166   0.229   0.838   4.231
 4387TIP3    H113167   0.266   0.912   4.184
 4387TIP3    H213168   0.136   0.837   4.206
 4388TIP3   OH213169   0.318   0.134   3.342
 4388TIP3    H113170   0.244   0.157   3.285
 4388TIP3    H213171   0.307   0.041   3.358
 4389TIP3   OH213172   1.856   0.159   4.684
 4389TIP3    H113173   1.889   0.176   4.772
 4389TIP3    H213174   1.807   0.238   4.661
 4390TIP3   OH213175   3.725   1.200   1.142
 4390TIP3    H113176   3.812   1.186   1.179
 4390TIP3    H213177   3.704   1.291   1.164
 4391TIP3   OH213178   0.458   0.713   3.361
 4391TIP3    H113179   0.461   0.632   3.412
 4391TIP3    H213180   0.542   0.717   3.317
 4392TIP3   OH213181   5.796   5.113   3.585
 4392TIP3    H113182   5.775   5.170   3.660
 4392TIP3    H213183   5.776   5.166   3.508
 4393TIP3   OH213184   0.404   3.468   2.021
 4393TIP3    H113185   0.440   3.429   2.101
 4393TIP3    H213186   0.379   3.556   2.047
 4394TIP3   OH213187   2.392   4.432   1.309
 4394TIP3    H113188   2.461   4.378   1.271
 4394TIP3    H213189   2.438   4.510   1.342
 4395TIP3   OH213190   4.256   0.859   4.815
 4395TIP3    H113191   4.163   0.867   4.835
 4395TIP3    H213192   4.280   0.943   4.777
 4396TIP3   OH213193   5.537   2.660   0.130
 4396TIP3    H113194   5.491   2.579   0.106
 4396TIP3    H213195   5.628   2.633   0.140
 4397TIP3   OH213196   6.372   1.853   1.006
 4397TIP3    H113197   6.384   1.909   1.082
 4397TIP3    H213198   6.280   1.865   0.982
 4398TIP3   OH213199   1.443   0.213   2.647
 4398TIP3    H113200   1.380   0.259   2.592
 4398TIP3    H213201   1.462   0.274   2.718
 4399TIP3   OH213202   5.687   3.776   4.586
 4399TIP3    H113203   5.635   3.753   4.508
 4399TIP3    H213204   5.628   3.757   4.659
 4400TIP3   OH213205   4.970   0.896   4.336
 4400TIP3    H113206   4.992   0.805   4.355
 4400TIP3    H213207   4.874   0.898   4.338
 4401TIP3   OH213208   4.639   2.165   3.652
 4401TIP3    H113209   4.667   2.074   3.655
 4401TIP3    H213210   4.695   2.206   3.586
 4402TIP3   OH213211   2.741   1.534   4.091
 4402TIP3    H113212   2.654   1.547   4.128
 4402TIP3    H213213   2.800   1.539   4.167
 4403TIP3   OH213214   5.331   3.150   3.548
 4403TIP3    H113215   5.356   3.077   3.604
 4403TIP3    H213216   5.331   3.226   3.606
 4404TIP3   OH213217   3.915   5.482   2.082
 4404TIP3    H113218   3.839   5.429   2.056
 4404TIP3    H213219   3.910   5.486   2.177
 4405TIP3   OH213220   2.836   5.269   2.074
 4405TIP3    H113221   2.904   5.314   2.024
 4405TIP3    H213222   2.879   5.191   2.108
 4406TIP3   OH213223   1.596   1.706   1.780
 4406TIP3    H113224   1.666   1.642   1.796
 4406TIP3    H213225   1.614   1.777   1.842
 4407TIP3   OH213226   5.212   4.371   1.338
 4407TIP3    H113227   5.167   4.426   1.401
 4407TIP3    H213228   5.146   4.352   1.270
 4408TIP3   OH213229   5.690   0.590   4.167
 4408TIP3    H113230   5.645   0.508   4.149
 4408TIP3    H213231   5.756   0.567   4.233
 4409TIP3   OH213232   4.142   4.097   0.677
 4409TIP3    H113233   4.083   4.119   0.749
 4409TIP3    H213234   4.196   4.026   0.712
 4410TIP3   OH213235   3.471   2.529   2.165
 4410TIP3    H113236   3.413   2.605   2.167
 4410TIP3    H213237   3.444   2.480   2.087
 4411TIP3   OH213238   4.715   5.821   0.352
 4411TIP3    H113239   4.778   5.852   0.287
 4411TIP3    H213240   4.647   5.777   0.300
 4412TIP3   OH213241   1.196   1.402   2.501
 4412TIP3    H113242   1.147   1.336   2.550
 4412TIP3    H213243   1.284   1.401   2.540
 4413TIP3   OH213244   3.531   0.314   4.243
 4413TIP3    H113245   3.521   0.271   4.158
 4413TIP3    H213246   3.603   0.376   4.230
 4414TIP3   OH213247   3.325   4.690   1.156
 4414TIP3    H113248   3.380   4.611   1.163
 4414TIP3    H213249   3.388   4.762   1.152
 4415TIP3   OH213250   5.663   1.254   0.635
 4415TIP3    H113251   5.582   1.254   0.584
 4415TIP3    H213252   5.634   1.247   0.726
 4416TIP3   OH213253   1.896   0.511   4.434
 4416TIP3    H113254   1.866   0.518   4.343
 4416TIP3    H213255   1.824   0.466   4.479
 4417TIP3   OH213256   0.029   3.559   4.568
 4417TIP3    H113257  -0.052   3.605   4.546
 4417TIP3    H213258   0.007   3.505   4.644
 4418TIP3   OH213259   1.199   0.428   2.751
 4418TIP3    H113260   1.157   0.487   2.814
 4418TIP3    H213261   1.134   0.419   2.681
 4419TIP3   OH213262   0.340   5.872   3.079
 4419TIP3    H113263   0.363   5.786   3.043
 4419TIP3    H213264   0.424   5.916   3.092
 4420TIP3   OH213265   0.449   0.062   0.921
 4420TIP3    H113266   0.528   0.031   0.878
 4420TIP3    H213267   0.386   0.073   0.850
 4421TIP3   OH213268   4.393   4.512   0.603
 4421TIP3    H113269   4.392   4.459   0.523
 4421TIP3    H213270   4.482   4.502   0.637
 4422TIP3   OH213271   4.989   3.028   3.774
 4422TIP3    H113272   5.065   2.971   3.790
 4422TIP3    H213273   4.917   2.967   3.756
 4423TIP3   OH213274   0.874   1.976   1.207
 4423TIP3    H113275   0.844   2.008   1.292
 4423TIP3    H213276   0.864   2.051   1.148
 4424TIP3   OH213277   5.952   4.867   2.722
 4424TIP3    H113278   5.974   4.826   2.805
 4424TIP3    H213279   5.952   4.961   2.741
 4425TIP3   OH213280   5.129   2.801   0.317
 4425TIP3    H113281   5.186   2.816   0.392
 4425TIP3    H213282   5.180   2.832   0.242
 4426TIP3   OH213283   0.874   1.534   5.042
 4426TIP3    H113284   0.873   1.440   5.059
 4426TIP3    H213285   0.907   1.572   5.124
 4427TIP3   OH213286   0.142   1.363   4.874
 4427TIP3    H113287   0.143   1.346   4.968
 4427TIP3    H213288   0.084   1.439   4.864
 4428TIP3   OH213289   4.933   1.041   2.699
 4428TIP3    H113290   4.963   1.021   2.787
 4428TIP3    H213291   4.997   1.104   2.666
 4429TIP3   OH213292   3.371   1.998   3.938
 4429TIP3    H113293   3.298   2.026   3.992
 4429TIP3    H213294   3.338   2.004   3.848
 4430TIP3   OH213295   1.782   3.499   3.487
 4430TIP3    H113296   1.776   3.588   3.522
 4430TIP3    H213297   1.867   3.495   3.444
 4431TIP3   OH213298   0.472   3.449   4.765
 4431TIP3    H113299   0.416   3.516   4.724
 4431TIP3    H213300   0.477   3.379   4.699
 4432TIP3   OH213301   2.239   1.184   3.387
 4432TIP3    H113302   2.281   1.132   3.319
 4432TIP3    H213303   2.249   1.131   3.467
 4433TIP3   OH213304   2.737   5.326   1.390
 4433TIP3    H113305   2.668   5.392   1.388
 4433TIP3    H213306   2.808   5.366   1.440
 4434TIP3   OH213307   2.236   1.161   3.789
 4434TIP3    H113308   2.269   1.242   3.749
 4434TIP3    H213309   2.266   1.092   3.730
 4435TIP3   OH213310   1.570   2.187   2.379
 4435TIP3    H113311   1.592   2.197   2.471
 4435TIP3    H213312   1.598   2.098   2.357
 4436TIP3   OH213313   0.975   0.156   2.207
 4436TIP3    H113314   0.920   0.226   2.174
 4436TIP3    H213315   0.947   0.144   2.298
 4437TIP3   OH213316   5.373   2.669   2.733
 4437TIP3    H113317   5.313   2.729   2.688
 4437TIP3    H213318   5.318   2.597   2.762
 4438TIP3   OH213319   5.624   1.715   2.621
 4438TIP3    H113320   5.694   1.744   2.563
 4438TIP3    H213321   5.669   1.670   2.693
 4439TIP3   OH213322   5.485   4.878   2.728
 4439TIP3    H113323   5.538   4.900   2.805
 4439TIP3    H213324   5.438   4.798   2.753
 4440TIP3   OH213325   6.320   4.071   1.603
 4440TIP3    H113326   6.392   4.015   1.575
 4440TIP3    H213327   6.242   4.032   1.564
 4441TIP3   OH213328   1.956   3.576   3.055
 4441TIP3    H113329   1.903   3.639   3.007
 4441TIP3    H213330   2.000   3.525   2.987
 4442TIP3   OH213331   0.209   4.652   1.397
 4442TIP3    H113332   0.122   4.668   1.361
 4442TIP3    H213333   0.195   4.586   1.465
 4443TIP3   OH213334   6.370   2.043   0.734
 4443TIP3    H113335   6.419   1.992   0.669
 4443TIP3    H213336   6.308   1.980   0.771
 4444TIP3   OH213337   2.303   2.777   0.859
 4444TIP3    H113338   2.226   2.809   0.812
 4444TIP3    H213339   2.331   2.852   0.912
 4445TIP3   OH213340   5.302   1.055   1.210
 4445TIP3    H113341   5.283   1.063   1.303
 4445TIP3    H213342   5.397   1.046   1.205
 4446TIP3   OH213343   1.780   0.257   3.186
 4446TIP3    H113344   1.726   0.214   3.119
 4446TIP3    H213345   1.861   0.208   3.188
 4447TIP3   OH213346   2.791   4.969   2.559
 4447TIP3    H113347   2.783   4.933   2.647
 4447TIP3    H213348   2.885   4.980   2.546
 4448TIP3   OH213349   1.279   3.515   4.906
 4448TIP3    H113350   1.320   3.596   4.936
 4448TIP3    H213351   1.298   3.452   4.975
 4449TIP3   OH213352   4.760   4.423   4.470
 4449TIP3    H113353   4.686   4.478   4.494
 4449TIP3    H213354   4.819   4.427   4.545
 4450TIP3   OH213355   3.766   2.855   0.758
 4450TIP3    H113356   3.829   2.799   0.712
 4450TIP3    H213357   3.820   2.907   0.817
 4451TIP3   OH213358   3.957   0.102   4.248
 4451TIP3    H113359   3.970   0.050   4.327
 4451TIP3    H213360   4.011   0.180   4.261
 4452TIP3   OH213361   4.278   1.682   1.357
 4452TIP3    H113362   4.244   1.770   1.375
 4452TIP3    H213363   4.346   1.668   1.423
 4453TIP3   OH213364   5.774   4.056   2.434
 4453TIP3    H113365   5.838   4.127   2.443
 4453TIP3    H213366   5.756   4.029   2.524
 4454TIP3   OH213367   4.193   5.702   4.728
 4454TIP3    H113368   4.156   5.782   4.690
 4454TIP3    H213369   4.283   5.726   4.750
 4455TIP3   OH213370   1.973   4.109   0.482
 4455TIP3    H113371   1.924   4.189   0.461
 4455TIP3    H213372   2.052   4.115   0.429
 4456TIP3   OH213373   6.221   3.207   0.538
 4456TIP3    H113374   6.281   3.148   0.583
 4456TIP3    H213375   6.151   3.150   0.507
 4457TIP3   OH213376   0.485   5.530   1.103
 4457TIP3    H113377   0.528   5.454   1.142
 4457TIP3    H213378   0.423   5.560   1.170
 4458TIP3   OH213379   3.509   3.301   4.402
 4458TIP3    H113380   3.540   3.326   4.489
 4458TIP3    H213381   3.413   3.303   4.409
 4459TIP3   OH213382   3.409   3.362   2.598
 4459TIP3    H113383   3.503   3.375   2.592
 4459TIP3    H213384   3.385   3.399   2.683
 4460TIP3   OH213385   6.279   2.887   1.049
 4460TIP3    H113386   6.252   2.940   0.974
 4460TIP3    H213387   6.358   2.841   1.019
 4461TIP3   OH213388   3.879   4.706   3.257
 4461TIP3    H113389   3.795   4.753   3.256
 4461TIP3    H213390   3.940   4.769   3.296
 4462TIP3   OH213391   4.645   2.491   4.842
 4462TIP3    H113392   4.708   2.532   4.902
 4462TIP3    H213393   4.699   2.443   4.780
 4463TIP3   OH213394   0.171   3.973   1.448
 4463TIP3    H113395   0.187   3.935   1.362
 4463TIP3    H213396   0.185   4.067   1.436
 4464TIP3   OH213397   6.099   3.996   3.055
 4464TIP3    H113398   6.124   4.010   3.146
 4464TIP3    H213399   6.173   4.029   3.005
 4465TIP3   OH213400   0.014   2.722   1.319
 4465TIP3    H113401   0.031   2.637   1.279
 4465TIP3    H213402   0.062   2.784   1.263
 4466TIP3   OH213403   3.972   3.461   2.607
 4466TIP3    H113404   4.018   3.378   2.595
 4466TIP3    H213405   4.042   3.526   2.617
 4467TIP3   OH213406   0.795   0.564   0.112
 4467TIP3    H113407   0.777   0.651   0.147
 4467TIP3    H213408   0.764   0.504   0.180
 4468TIP3   OH213409   0.560   4.832   5.187
 4468TIP3    H113410   0.570   4.773   5.113
 4468TIP3    H213411   0.541   4.917   5.147
 4469TIP3   OH213412   5.163   0.518   2.580
 4469TIP3    H113413   5.138   0.586   2.518
 4469TIP3    H213414   5.091   0.455   2.576
 4470TIP3   OH213415   5.369   1.634   0.012
 4470TIP3    H113416   5.275   1.652   0.009
 4470TIP3    H213417   5.386   1.614   0.105
 4471TIP3   OH213418   2.562   4.372   2.570
 4471TIP3    H113419   2.643   4.335   2.536
 4471TIP3    H213420   2.590   4.451   2.616
 4472TIP3   OH213421   6.106   3.922   2.030
 4472TIP3    H113422   6.020   3.937   2.070
 4472TIP3    H213423   6.089   3.859   1.960
 4473TIP3   OH213424   4.691   2.357   4.121
 4473TIP3    H113425   4.750   2.428   4.094
 4473TIP3    H213426   4.686   2.366   4.217
 4474TIP3   OH213427   4.731   0.103   0.751
 4474TIP3    H113428   4.636   0.114   0.748
 4474TIP3    H213429   4.767   0.191   0.748
 4475TIP3   OH213430   3.635   1.794   4.107
 4475TIP3    H113431   3.636   1.717   4.164
 4475TIP3    H213432   3.583   1.858   4.155
 4476TIP3   OH213433   6.179   5.575   4.187
 4476TIP3    H113434   6.207   5.532   4.107
 4476TIP3    H213435   6.261   5.602   4.230
 4477TIP3   OH213436   5.147   5.114   1.037
 4477TIP3    H113437   5.157   5.019   1.042
 4477TIP3    H213438   5.062   5.127   0.993
 4478TIP3   OH213439   5.424   4.097   4.603
 4478TIP3    H113440   5.359   4.145   4.655
 4478TIP3    H213441   5.384   4.011   4.589
 4479TIP3   OH213442   4.427   3.398   4.814
 4479TIP3    H113443   4.428   3.368   4.905
 4479TIP3    H213444   4.388   3.325   4.765
 4480TIP3   OH213445   2.387   4.386   0.685
 4480TIP3    H113446   2.425   4.383   0.773
 4480TIP3    H213447   2.385   4.479   0.662
 4481TIP3   OH213448   0.696   3.051   3.862
 4481TIP3    H113449   0.635   3.104   3.810
 4481TIP3    H213450   0.774   3.105   3.870
 4482TIP3   OH213451   5.820   4.664   5.216
 4482TIP3    H113452   5.813   4.749   5.173
 4482TIP3    H213453   5.820   4.601   5.145
 4483TIP3   OH213454   5.837   1.128   1.001
 4483TIP3    H113455   5.846   1.133   1.096
 4483TIP3    H213456   5.866   1.214   0.970
 4484TIP3   OH213457   4.768   2.052   2.646
 4484TIP3    H113458   4.722   1.978   2.685
 4484TIP3    H213459   4.844   2.066   2.704
 4485TIP3   OH213460   5.450   1.968   0.393
 4485TIP3    H113461   5.504   2.002   0.322
 4485TIP3    H213462   5.368   2.017   0.386
 4486TIP3   OH213463   4.284   0.967   1.654
 4486TIP3    H113464   4.208   0.925   1.613
 4486TIP3    H213465   4.251   1.003   1.736
 4487TIP3   OH213466   3.651   1.318   2.674
 4487TIP3    H113467   3.617   1.368   2.600
 4487TIP3    H213468   3.604   1.234   2.669
 4488TIP3   OH213469   3.720   2.449   2.540
 4488TIP3    H113470   3.696   2.481   2.626
 4488TIP3    H213471   3.780   2.376   2.557
 4489TIP3   OH213472   4.102   4.744   4.063
 4489TIP3    H113473   4.090   4.839   4.071
 4489TIP3    H213474   4.190   4.734   4.026
 4490TIP3   OH213475   3.061   3.265   4.284
 4490TIP3    H113476   2.979   3.292   4.243
 4490TIP3    H213477   3.110   3.223   4.214
 4491TIP3   OH213478   6.022   1.336   1.222
 4491TIP3    H113479   6.094   1.333   1.158
 4491TIP3    H213480   6.052   1.399   1.288
 4492TIP3   OH213481   1.747   3.266   5.109
 4492TIP3    H113482   1.727   3.205   5.180
 4492TIP3    H213483   1.715   3.222   5.031
 4493TIP3   OH213484   3.962   3.933   4.955
 4493TIP3    H113485   3.954   3.849   4.999
 4493TIP3    H213486   3.951   3.998   5.024
 4494TIP3   OH213487   3.074   5.336   3.766
 4494TIP3    H113488   3.033   5.297   3.843
 4494TIP3    H213489   3.113   5.418   3.798
 4495TIP3   OH213490   3.861   0.987   1.745
 4495TIP3    H113491   3.861   0.904   1.793
 4495TIP3    H213492   3.771   1.019   1.752
 4496TIP3   OH213493   5.543   0.946   1.820
 4496TIP3    H113494   5.564   0.862   1.780
 4496TIP3    H213495   5.613   0.961   1.884
 4497TIP3   OH213496   0.761   4.717   1.827
 4497TIP3    H113497   0.843   4.692   1.786
 4497TIP3    H213498   0.777   4.708   1.921
 4498TIP3   OH213499   2.832   3.838   4.145
 4498TIP3    H113500   2.916   3.799   4.121
 4498TIP3    H213501   2.796   3.869   4.062
 4499TIP3   OH213502   3.388   2.152   0.605
 4499TIP3    H113503   3.453   2.094   0.646
 4499TIP3    H213504   3.308   2.136   0.655
 4500TIP3   OH213505   0.104   4.179   3.558
 4500TIP3    H113506   0.110   4.266   3.597
 4500TIP3    H213507   0.038   4.189   3.489
 4501TIP3   OH213508   5.142   5.607   4.017
 4501TIP3    H113509   5.211   5.673   4.008
 4501TIP3    H213510   5.062   5.653   3.992
 4502TIP3   OH213511   2.292   0.082   1.835
 4502TIP3    H113512   2.221   0.145   1.820
 4502TIP3    H213513   2.370   0.136   1.846
 4503TIP3   OH213514   0.893   4.508   2.522
 4503TIP3    H113515   0.891   4.413   2.535
 4503TIP3    H213516   0.862   4.520   2.433
 4504TIP3   OH213517   4.958   1.362   1.041
 4504TIP3    H113518   4.977   1.415   0.964
 4504TIP3    H213519   4.973   1.421   1.115
 4505TIP3   OH213520   4.688   1.044   3.134
 4505TIP3    H113521   4.629   1.063   3.207
 4505TIP3    H213522   4.643   1.077   3.057
 4506TIP3   OH213523   5.135   1.763   0.976
 4506TIP3    H113524   5.228   1.740   0.969
 4506TIP3    H213525   5.134   1.851   1.013
 4507TIP3   OH213526   2.289   2.247   1.716
 4507TIP3    H113527   2.217   2.241   1.653
 4507TIP3    H213528   2.338   2.325   1.689
 4508TIP3   OH213529   4.879   1.193   0.828
 4508TIP3    H113530   4.899   1.221   0.917
 4508TIP3    H213531   4.905   1.267   0.773
 4509TIP3   OH213532   4.063   2.770   2.818
 4509TIP3    H113533   4.097   2.853   2.851
 4509TIP3    H213534   4.001   2.794   2.749
 4510TIP3   OH213535   2.905   4.834   0.717
 4510TIP3    H113536   2.905   4.777   0.794
 4510TIP3    H213537   2.987   4.815   0.673
 4511TIP3   OH213538   5.856   0.514   0.021
 4511TIP3    H113539   5.920   0.452  -0.016
 4511TIP3    H213540   5.851   0.489   0.113
 4512TIP3   OH213541   6.036   1.448   4.434
 4512TIP3    H113542   6.074   1.466   4.347
 4512TIP3    H213543   6.096   1.491   4.495
 4513TIP3   OH213544   2.966   0.531   1.733
 4513TIP3    H113545   3.055   0.550   1.764
 4513TIP3    H213546   2.934   0.462   1.791
 4514TIP3   OH213547   4.320   1.441   2.361
 4514TIP3    H113548   4.284   1.366   2.408
 4514TIP3    H213549   4.379   1.403   2.296
 4515TIP3   OH213550   1.954   2.384   3.853
 4515TIP3    H113551   1.969   2.411   3.762
 4515TIP3    H213552   2.038   2.400   3.896
 4516TIP3   OH213553   3.193   1.816   1.428
 4516TIP3    H113554   3.216   1.777   1.344
 4516TIP3    H213555   3.100   1.836   1.421
 4517TIP3   OH213556   2.250   3.550   1.204
 4517TIP3    H113557   2.225   3.642   1.214
 4517TIP3    H213558   2.211   3.523   1.121
 4518TIP3   OH213559   2.054   2.401   0.364
 4518TIP3    H113560   1.977   2.346   0.382
 4518TIP3    H213561   2.076   2.381   0.273
 4519TIP3   OH213562   5.976   2.501   2.685
 4519TIP3    H113563   5.897   2.477   2.734
 4519TIP3    H213564   6.048   2.487   2.747
 4520TIP3   OH213565   3.713   0.659   3.296
 4520TIP3    H113566   3.682   0.570   3.282
 4520TIP3    H213567   3.681   0.682   3.383
 4521TIP3   OH213568   1.660   1.009   4.002
 4521TIP3    H113569   1.733   1.001   4.063
 4521TIP3    H213570   1.583   0.981   4.052
 4522TIP3   OH213571   2.882   0.446   4.693
 4522TIP3    H113572   2.830   0.384   4.744
 4522TIP3    H213573   2.970   0.438   4.729
 4523TIP3   OH213574   1.973   3.898   1.004
 4523TIP3    H113575   1.997   3.948   0.927
 4523TIP3    H213576   1.890   3.936   1.033
 4524TIP3   OH213577   4.823  -0.007   3.259
 4524TIP3    H113578   4.734  -0.025   3.288
 4524TIP3    H213579   4.818   0.080   3.219
 4525TIP3   OH213580   5.874   5.501   2.875
 4525TIP3    H113581   5.840   5.501   2.965
 4525TIP3    H213582   5.816   5.441   2.828
 4526TIP3   OH213583   4.791   5.480   4.063
 4526TIP3    H113584   4.752   5.541   4.001
 4526TIP3    H213585   4.865   5.441   4.016
 4527TIP3   OH213586   2.822   4.103   0.525
 4527TIP3    H113587   2.906   4.070   0.492
 4527TIP3    H213588   2.776   4.025   0.555
 4528TIP3   OH213589   5.876   2.212   3.373
 4528TIP3    H113590   5.935   2.144   3.406
 4528TIP3    H213591   5.902   2.225   3.282
 4529TIP3   OH213592   3.206   0.798   1.627
 4529TIP3    H113593   3.239   0.716   1.589
 4529TIP3    H213594   3.268   0.865   1.597
 4530TIP3   OH213595   5.244   0.294   2.708
 4530TIP3    H113596   5.235   0.374   2.656
 4530TIP3    H213597   5.284   0.323   2.789
 4531TIP3   OH213598   5.057   0.910   0.430
 4531TIP3    H113599   5.019   0.855   0.361
 4531TIP3    H213600   5.089   0.847   0.495
 4532TIP3   OH213601   0.759   1.221   1.539
 4532TIP3    H113602   0.775   1.311   1.570
 4532TIP3    H213603   0.701   1.232   1.464
 4533TIP3   OH213604   0.445   2.107   2.886
 4533TIP3    H113605   0.508   2.168   2.925
 4533TIP3    H213606   0.395   2.160   2.824
 4534TIP3   OH213607   2.591   0.895   4.934
 4534TIP3    H113608   2.577   0.990   4.933
 4534TIP3    H213609   2.675   0.882   4.889
 4535TIP3   OH213610   4.769   2.116   2.980
 4535TIP3    H113611   4.676   2.096   2.978
 4535TIP3    H213612   4.790   2.123   3.073
 4536TIP3   OH213613   3.389   4.651   3.426
 4536TIP3    H113614   3.315   4.702   3.394
 4536TIP3    H213615   3.407   4.588   3.356
 4537TIP3   OH213616   6.202   1.061   2.975
 4537TIP3    H113617   6.283   1.010   2.982
 4537TIP3    H213618   6.155   1.021   2.903
 4538TIP3   OH213619   2.705   0.583   1.592
 4538TIP3    H113620   2.615   0.616   1.583
 4538TIP3    H213621   2.695   0.495   1.629
 4539TIP3   OH213622   5.688   0.135   3.201
 4539TIP3    H113623   5.721   0.057   3.246
 4539TIP3    H213624   5.608   0.158   3.249
 4540TIP3   OH213625   0.996   3.859   1.023
 4540TIP3    H113626   0.999   3.811   1.106
 4540TIP3    H213627   0.964   3.946   1.046
 4541TIP3   OH213628   6.065   5.959   3.643
 4541TIP3    H113629   5.995   5.934   3.703
 4541TIP3    H213630   6.137   5.985   3.700
 4542TIP3   OH213631   5.537   3.889   1.839
 4542TIP3    H113632   5.471   3.844   1.786
 4542TIP3    H213633   5.524   3.982   1.819
 4543TIP3   OH213634   3.891   0.967   1.386
 4543TIP3    H113635   3.977   0.934   1.362
 4543TIP3    H213636   3.891   1.058   1.357
 4544TIP3   OH213637   4.678   2.702   0.232
 4544TIP3    H113638   4.767   2.667   0.242
 4544TIP3    H213639   4.647   2.715   0.321
 4545TIP3   OH213640   4.614   2.378   3.133
 4545TIP3    H113641   4.708   2.394   3.125
 4545TIP3    H213642   4.578   2.462   3.162
 4546TIP3   OH213643   0.446   3.337   2.582
 4546TIP3    H113644   0.486   3.423   2.596
 4546TIP3    H213645   0.400   3.345   2.498
 4547TIP3   OH213646   1.660   0.152   2.211
 4547TIP3    H113647   1.632   0.188   2.127
 4547TIP3    H213648   1.668   0.058   2.195
 4548TIP3   OH213649   5.568   0.999   1.154
 4548TIP3    H113650   5.574   0.952   1.071
 4548TIP3    H213651   5.641   0.965   1.206
 4549TIP3   OH213652   2.452   3.403   3.433
 4549TIP3    H113653   2.425   3.451   3.511
 4549TIP3    H213654   2.482   3.318   3.465
 4550TIP3   OH213655   3.098   3.847   0.912
 4550TIP3    H113656   3.102   3.855   1.008
 4550TIP3    H213657   3.093   3.937   0.881
 4551TIP3   OH213658   3.005   1.724   1.980
 4551TIP3    H113659   2.978   1.716   1.889
 4551TIP3    H213660   3.101   1.721   1.976
 4552TIP3   OH213661   4.589   0.838   0.578
 4552TIP3    H113662   4.655   0.897   0.615
 4552TIP3    H213663   4.539   0.893   0.518
 4553TIP3   OH213664   0.699   2.738   4.805
 4553TIP3    H113665   0.670   2.828   4.819
 4553TIP3    H213666   0.626   2.695   4.760
 4554TIP3   OH213667   5.558   1.038   0.380
 4554TIP3    H113668   5.524   1.118   0.419
 4554TIP3    H213669   5.525   1.039   0.290
 4555TIP3   OH213670   4.824   2.740   2.587
 4555TIP3    H113671   4.846   2.656   2.628
 4555TIP3    H213672   4.736   2.760   2.620
 4556TIP3   OH213673   2.465   2.135   1.103
 4556TIP3    H113674   2.395   2.073   1.087
 4556TIP3    H213675   2.423   2.210   1.144
 4557TIP3   OH213676   1.644   3.733   3.990
 4557TIP3    H113677   1.656   3.761   4.081
 4557TIP3    H213678   1.605   3.646   3.996
 4558TIP3   OH213679   0.429   2.345   3.332
 4558TIP3    H113680   0.509   2.378   3.373
 4558TIP3    H213681   0.417   2.399   3.254
 4559TIP3   OH213682   1.854   0.326   2.711
 4559TIP3    H113683   1.797   0.401   2.723
 4559TIP3    H213684   1.794   0.252   2.697
 4560TIP3   OH213685   4.940   3.951   3.886
 4560TIP3    H113686   4.880   3.981   3.953
 4560TIP3    H213687   5.026   3.951   3.928
 4561TIP3   OH213688   2.852   4.579   5.023
 4561TIP3    H113689   2.764   4.569   5.059
 4561TIP3    H213690   2.838   4.588   4.929
 4562TIP3   OH213691   4.483   2.688   2.388
 4562TIP3    H113692   4.410   2.634   2.358
 4562TIP3    H213693   4.441   2.763   2.431
 4563TIP3   OH213694   0.289   4.691   3.438
 4563TIP3    H113695   0.196   4.682   3.418
 4563TIP3    H213696   0.330   4.613   3.399
 4564TIP3   OH213697   1.840   5.997   2.869
 4564TIP3    H113698   1.821   5.938   2.941
 4564TIP3    H213699   1.792   5.961   2.795
 4565TIP3   OH213700   1.018   5.297   4.888
 4565TIP3    H113701   1.111   5.316   4.878
 4565TIP3    H213702   1.001   5.306   4.982
 4566TIP3   OH213703   2.849   1.644   0.410
 4566TIP3    H113704   2.878   1.660   0.320
 4566TIP3    H213705   2.917   1.682   0.465
 4567TIP3   OH213706   0.204   0.242   4.088
 4567TIP3    H113707   0.212   0.301   4.013
 4567TIP3    H213708   0.177   0.298   4.160
 4568TIP3   OH213709   4.934   0.015   0.922
 4568TIP3    H113710   4.871   0.058   0.864
 4568TIP3    H213711   5.011   0.071   0.922
 4569TIP3   OH213712   3.589   5.658   1.468
 4569TIP3    H113713   3.633   5.661   1.383
 4569TIP3    H213714   3.660   5.656   1.532
 4570TIP3   OH213715   3.888   2.989   3.921
 4570TIP3    H113716   3.814   2.939   3.885
 4570TIP3    H213717   3.917   2.937   3.996
 4571TIP3   OH213718   4.681   0.654   1.848
 4571TIP3    H113719   4.593   0.616   1.847
 4571TIP3    H213720   4.673   0.732   1.794
 4572TIP3   OH213721   2.557   5.082   4.876
 4572TIP3    H113722   2.545   5.029   4.955
 4572TIP3    H213723   2.569   5.018   4.805
 4573TIP3   OH213724   1.908   2.054   4.241
 4573TIP3    H113725   1.892   2.103   4.160
 4573TIP3    H213726   1.864   2.104   4.309
 4574TIP3   OH213727   2.828   1.075   4.004
 4574TIP3    H113728   2.801   1.035   4.087
 4574TIP3    H213729   2.808   1.168   4.015
 4575TIP3   OH213730   0.021   0.423   2.065
 4575TIP3    H113731  -0.009   0.398   2.153
 4575TIP3    H213732   0.095   0.365   2.048
 4576TIP3   OH213733   3.852   4.150   3.505
 4576TIP3    H113734   3.862   4.165   3.411
 4576TIP3    H213735   3.928   4.098   3.530
 4577TIP3   OH213736   1.990   1.875   2.258
 4577TIP3    H113737   1.932   1.810   2.218
 4577TIP3    H213738   2.051   1.824   2.311
 4578TIP3   OH213739   3.145   3.062   0.091
 4578TIP3    H113740   3.099   3.144   0.110
 4578TIP3    H213741   3.168   3.027   0.178
 4579TIP3   OH213742   4.588   4.063   0.579
 4579TIP3    H113743   4.517   4.007   0.550
 4579TIP3    H213744   4.668   4.012   0.564
 4580TIP3   OH213745   4.547   0.215   0.314
 4580TIP3    H113746   4.527   0.270   0.238
 4580TIP3    H213747   4.463   0.206   0.359
 4581TIP3   OH213748   2.382   3.725   4.371
 4581TIP3    H113749   2.403   3.744   4.462
 4581TIP3    H213750   2.466   3.700   4.331
 4582TIP3   OH213751   3.269   1.884   4.796
 4582TIP3    H113752   3.332   1.931   4.851
 4582TIP3    H213753   3.184   1.898   4.839
 4583TIP3   OH213754   5.590   0.222   1.427
 4583TIP3    H113755   5.607   0.231   1.333
 4583TIP3    H213756   5.591   0.311   1.460
 4584TIP3   OH213757   1.937   5.089   4.845
 4584TIP3    H113758   1.842   5.079   4.847
 4584TIP3    H213759   1.969   5.002   4.822
 4585TIP3   OH213760   5.151   2.385   2.608
 4585TIP3    H113761   5.121   2.300   2.576
 4585TIP3    H213762   5.158   2.439   2.530
 4586TIP3   OH213763   1.817   2.799   3.779
 4586TIP3    H113764   1.833   2.781   3.686
 4586TIP3    H213765   1.899   2.774   3.822
 4587TIP3   OH213766   4.650   4.683   3.057
 4587TIP3    H113767   4.672   4.709   3.147
 4587TIP3    H213768   4.590   4.608   3.068
 4588TIP3   OH213769   4.626   0.194   4.637
 4588TIP3    H113770   4.581   0.110   4.633
 4588TIP3    H213771   4.718   0.172   4.623
 4589TIP3   OH213772   5.334   0.129   1.382
 4589TIP3    H113773   5.279   0.182   1.439
 4589TIP3    H213774   5.422   0.163   1.395
 4590TIP3   OH213775   5.779   4.579   3.750
 4590TIP3    H113776   5.834   4.639   3.700
 4590TIP3    H213777   5.773   4.618   3.837
 4591TIP3   OH213778   5.138   4.145   4.324
 4591TIP3    H113779   5.078   4.165   4.252
 4591TIP3    H213780   5.161   4.230   4.361
 4592TIP3   OH213781   1.466   1.435   0.396
 4592TIP3    H113782   1.480   1.356   0.448
 4592TIP3    H213783   1.405   1.408   0.327
 4593TIP3   OH213784   0.867   5.047   3.557
 4593TIP3    H113785   0.943   5.059   3.500
 4593TIP3    H213786   0.904   5.023   3.642
 4594TIP3   OH213787   4.678   3.574   0.245
 4594TIP3    H113788   4.738   3.603   0.176
 4594TIP3    H213789   4.604   3.635   0.240
 4595TIP3   OH213790   0.342   0.327   5.133
 4595TIP3    H113791   0.350   0.251   5.191
 4595TIP3    H213792   0.349   0.291   5.045
 4596TIP3   OH213793   1.334   1.364   0.171
 4596TIP3    H113794   1.251   1.392   0.133
 4596TIP3    H213795   1.344   1.273   0.142
 4597TIP3   OH213796   5.667   3.716   4.207
 4597TIP3    H113797   5.610   3.717   4.130
 4597TIP3    H213798   5.746   3.670   4.177
 4598TIP3   OH213799   2.047   3.400   4.449
 4598TIP3    H113800   2.022   3.473   4.506
 4598TIP3    H213801   1.972   3.341   4.452
 4599TIP3   OH213802   5.151   5.154   3.299
 4599TIP3    H113803   5.075   5.104   3.329
 4599TIP3    H213804   5.227   5.103   3.327
 4600TIP3   OH213805   5.092   2.296   3.187
 4600TIP3    H113806   5.088   2.211   3.230
 4600TIP3    H213807   5.185   2.310   3.169
 4601TIP3   OH213808   1.092   1.647   0.951
 4601TIP3    H113809   1.068   1.666   1.042
 4601TIP3    H213810   1.136   1.727   0.921
 4602TIP3   OH213811   4.561   1.327   0.440
 4602TIP3    H113812   4.515   1.409   0.426
 4602TIP3    H213813   4.551   1.309   0.533
 4603TIP3   OH213814   5.870   2.541   0.533
 4603TIP3    H113815   5.786   2.561   0.574
 4603TIP3    H213816   5.910   2.476   0.590
 4604TIP3   OH213817   2.702   3.091   1.879
 4604TIP3    H113818   2.701   3.030   1.805
 4604TIP3    H213819   2.700   3.034   1.956
 4605TIP3   OH213820   1.632   3.239   2.559
 4605TIP3    H113821   1.690   3.162   2.564
 4605TIP3    H213822   1.684   3.305   2.515
 4606TIP3   OH213823   1.852   2.286   5.122
 4606TIP3    H113824   1.871   2.350   5.190
 4606TIP3    H213825   1.829   2.339   5.045
 4607TIP3   OH213826   0.944   1.363   3.547
 4607TIP3    H113827   1.030   1.401   3.531
 4607TIP3    H213828   0.959   1.268   3.543
 4608TIP3   OH213829   1.133   1.778   1.700
 4608TIP3    H113830   1.195   1.710   1.726
 4608TIP3    H213831   1.185   1.858   1.696
 4609TIP3   OH213832   5.579   1.906   0.660
 4609TIP3    H113833   5.545   1.819   0.682
 4609TIP3    H213834   5.542   1.926   0.575
 4610TIP3   OH213835   5.426   0.212   3.315
 4610TIP3    H113836   5.452   0.233   3.405
 4610TIP3    H213837   5.398   0.120   3.320
 4611TIP3   OH213838   1.822   4.288   3.678
 4611TIP3    H113839   1.809   4.347   3.753
 4611TIP3    H213840   1.882   4.220   3.711
 4612TIP3   OH213841   5.369   4.737   1.050
 4612TIP3    H113842   5.285   4.754   1.093
 4612TIP3    H213843   5.409   4.823   1.039
 4613TIP3   OH213844   6.228   4.557   1.535
 4613TIP3    H113845   6.237   4.581   1.628
 4613TIP3    H213846   6.144   4.511   1.531
 4614TIP3   OH213847   6.351   1.516   0.322
 4614TIP3    H113848   6.377   1.432   0.284
 4614TIP3    H213849   6.321   1.568   0.248
 4615TIP3   OH213850   3.932   0.653   0.391
 4615TIP3    H113851   3.863   0.657   0.457
 4615TIP3    H213852   3.969   0.742   0.389
 4616TIP3   OH213853   5.508   4.258   2.872
 4616TIP3    H113854   5.530   4.300   2.955
 4616TIP3    H213855   5.478   4.170   2.897
 4617TIP3   OH213856   2.176   4.681   2.716
 4617TIP3    H113857   2.219   4.678   2.630
 4617TIP3    H213858   2.134   4.767   2.718
 4618TIP3   OH213859   3.216   3.673   0.246
 4618TIP3    H113860   3.144   3.735   0.233
 4618TIP3    H213861   3.219   3.622   0.165
 4619TIP3   OH213862   0.160   5.307   4.310
 4619TIP3    H113863   0.126   5.389   4.346
 4619TIP3    H213864   0.254   5.310   4.326
 4620TIP3   OH213865   0.048   0.514   3.178
 4620TIP3    H113866   0.136   0.538   3.150
 4620TIP3    H213867   0.060   0.472   3.263
 4621TIP3   OH213868   4.106   5.364   0.783
 4621TIP3    H113869   4.034   5.427   0.787
 4621TIP3    H213870   4.062   5.279   0.777
 4622TIP3   OH213871   0.313   1.390   0.448
 4622TIP3    H113872   0.309   1.481   0.477
 4622TIP3    H213873   0.398   1.358   0.480
 4623TIP3   OH213874   6.080   5.070   4.567
 4623TIP3    H113875   6.130   4.992   4.591
 4623TIP3    H213876   6.078   5.070   4.472
 4624TIP3   OH213877   4.271   3.172   0.186
 4624TIP3    H113878   4.269   3.076   0.191
 4624TIP3    H213879   4.363   3.195   0.191
 4625TIP3   OH213880   2.055   2.574   3.666
 4625TIP3    H113881   2.089   2.616   3.745
 4625TIP3    H213882   2.032   2.647   3.608
 4626TIP3   OH213883   4.283   3.654   0.146
 4626TIP3    H113884   4.322   3.588   0.088
 4626TIP3    H213885   4.282   3.734   0.094
 4627TIP3   OH213886   1.874   5.650   2.174
 4627TIP3    H113887   1.822   5.651   2.093
 4627TIP3    H213888   1.811   5.629   2.243
 4628TIP3   OH213889   2.543   4.406   4.637
 4628TIP3    H113890   2.515   4.318   4.615
 4628TIP3    H213891   2.613   4.394   4.701
 4629TIP3   OH213892   0.287   1.559   3.501
 4629TIP3    H113893   0.380   1.554   3.522
 4629TIP3    H213894   0.270   1.481   3.449
 4630TIP3   OH213895   0.139   4.528   4.331
 4630TIP3    H113896   0.195   4.582   4.386
 4630TIP3    H213897   0.064   4.583   4.312
 4631TIP3   OH213898   5.750   1.461   0.311
 4631TIP3    H113899   5.734   1.445   0.403
 4631TIP3    H213900   5.747   1.375   0.270
 4632TIP3   OH213901   3.268   4.288   0.972
 4632TIP3    H113902   3.247   4.371   1.014
 4632TIP3    H213903   3.357   4.301   0.938
 4633TIP3   OH213904   5.450   1.434   0.209
 4633TIP3    H113905   5.485   1.421   0.121
 4633TIP3    H213906   5.507   1.501   0.248
 4634TIP3   OH213907   2.032   5.303   4.994
 4634TIP3    H113908   1.971   5.352   4.940
 4634TIP3    H213909   2.033   5.215   4.956
 4635TIP3   OH213910   5.189   3.474   0.356
 4635TIP3    H113911   5.271   3.424   0.364
 4635TIP3    H213912   5.171   3.505   0.445
 4636TIP3   OH213913   4.943   2.622   0.213
 4636TIP3    H113914   4.967   2.541   0.258
 4636TIP3    H213915   5.008   2.686   0.242
 4637TIP3   OH213916   0.492   4.683   1.412
 4637TIP3    H113917   0.537   4.717   1.489
 4637TIP3    H213918   0.402   4.669   1.442
 4638TIP3   OH213919   0.486   2.631   4.668
 4638TIP3    H113920   0.437   2.713   4.666
 4638TIP3    H213921   0.472   2.592   4.581
 4639TIP3   OH213922   0.047   2.144   3.060
 4639TIP3    H113923   0.065   2.203   2.986
 4639TIP3    H213924   0.103   2.068   3.045
 4640TIP3   OH213925   3.109   5.811   1.348
 4640TIP3    H113926   3.156   5.875   1.401
 4640TIP3    H213927   3.136   5.726   1.384
 4641TIP3   OH213928   0.646   4.230   4.554
 4641TIP3    H113929   0.740   4.243   4.571
 4641TIP3    H213930   0.633   4.262   4.465
 4642TIP3   OH213931   4.490   4.295   2.436
 4642TIP3    H113932   4.436   4.374   2.442
 4642TIP3    H213933   4.427   4.223   2.434
 4643TIP3   OH213934   4.487   5.930   3.729
 4643TIP3    H113935   4.537   5.945   3.649
 4643TIP3    H213936   4.541   5.869   3.780
 4644TIP3   OH213937   2.870   1.852   2.628
 4644TIP3    H113938   2.808   1.787   2.661
 4644TIP3    H213939   2.940   1.799   2.587
 4645TIP3   OH213940   1.489   5.624   1.800
 4645TIP3    H113941   1.476   5.611   1.894
 4645TIP3    H213942   1.413   5.675   1.772
 4646TIP3   OH213943   2.999   1.531   1.253
 4646TIP3    H113944   3.061   1.589   1.209
 4646TIP3    H213945   3.049   1.490   1.323
 4647TIP3   OH213946   3.043   5.325   4.290
 4647TIP3    H113947   3.032   5.307   4.384
 4647TIP3    H213948   2.974   5.275   4.247
 4648TIP3   OH213949   2.745   0.183   0.429
 4648TIP3    H113950   2.668   0.195   0.373
 4648TIP3    H213951   2.719   0.219   0.514
 4649TIP3   OH213952   1.920   0.913   2.441
 4649TIP3    H113953   1.988   0.870   2.492
 4649TIP3    H213954   1.854   0.846   2.427
 4650TIP3   OH213955   3.291   4.642   5.148
 4650TIP3    H113956   3.369   4.589   5.130
 4650TIP3    H213957   3.237   4.586   5.204
 4651TIP3   OH213958   4.584   3.717   3.479
 4651TIP3    H113959   4.643   3.728   3.404
 4651TIP3    H213960   4.497   3.716   3.440
 4652TIP3   OH213961   4.986   2.869   4.186
 4652TIP3    H113962   4.931   2.881   4.263
 4652TIP3    H213963   4.947   2.796   4.139
 4653TIP3   OH213964   0.162   4.269   4.862
 4653TIP3    H113965   0.254   4.259   4.838
 4653TIP3    H213966   0.155   4.360   4.893
 4654TIP3   OH213967   1.033   5.011   3.764
 4654TIP3    H113968   1.121   5.029   3.796
 4654TIP3    H213969   1.030   4.916   3.755
 4655TIP3   OH213970   0.252   1.935   3.265
 4655TIP3    H113971   0.328   1.992   3.256
 4655TIP3    H213972   0.230   1.910   3.175
 4656TIP3   OH213973   1.648   3.677   2.158
 4656TIP3    H113974   1.600   3.733   2.097
 4656TIP3    H213975   1.705   3.737   2.206
 4657TIP3   OH213976   1.429   2.043  -0.007
 4657TIP3    H113977   1.364   1.986  -0.047
 4657TIP3    H213978   1.379   2.092   0.060
 4658TIP3   OH213979   2.233   4.074   2.241
 4658TIP3    H113980   2.267   4.074   2.331
 4658TIP3    H213981   2.203   3.985   2.226
 4659TIP3   OH213982   2.143   2.480   3.258
 4659TIP3    H113983   2.106   2.435   3.334
 4659TIP3    H213984   2.068   2.494   3.200
 4660TIP3   OH213985   1.371   2.851   0.146
 4660TIP3    H113986   1.461   2.828   0.124
 4660TIP3    H213987   1.323   2.841   0.063
 4661TIP3   OH213988   3.930   4.218   3.258
 4661TIP3    H113989   3.837   4.208   3.239
 4661TIP3    H213990   3.974   4.183   3.180
 4662TIP3   OH213991   3.129   1.585   2.364
 4662TIP3    H113992   3.043   1.600   2.402
 4662TIP3    H213993   3.169   1.519   2.421
 4663TIP3   OH213994   4.416   3.333   5.078
 4663TIP3    H113995   4.483   3.393   5.110
 4663TIP3    H213996   4.438   3.249   5.119
 4664TIP3   OH213997   1.520   3.076   0.031
 4664TIP3    H113998   1.470   3.044  -0.045
 4664TIP3    H213999   1.604   3.032   0.024
 4665TIP3   OH214000   4.592   3.586   3.938
 4665TIP3    H114001   4.514   3.641   3.948
 4665TIP3    H214002   4.664   3.648   3.925
 4666TIP3   OH214003   5.961   5.432   4.035
 4666TIP3    H114004   5.957   5.473   3.949
 4666TIP3    H214005   6.017   5.489   4.087
 4667TIP3   OH214006   2.354   1.696   0.776
 4667TIP3    H114007   2.418   1.679   0.706
 4667TIP3    H214008   2.390   1.650   0.852
 4668TIP3   OH214009   2.573   4.257   4.894
 4668TIP3    H114010   2.663   4.261   4.928
 4668TIP3    H214011   2.551   4.164   4.895
 4669TIP3   OH214012   6.099   1.492   4.155
 4669TIP3    H114013   6.069   1.565   4.100
 4669TIP3    H214014   6.078   1.414   4.104
 4670TIP3   OH214015   1.529   3.700   4.272
 4670TIP3    H114016   1.588   3.652   4.331
 4670TIP3    H214017   1.441   3.672   4.297
 4671TIP3   OH214018   2.695   1.645   4.421
 4671TIP3    H114019   2.758   1.578   4.446
 4671TIP3    H214020   2.696   1.708   4.493
 4672TIP3   OH214021   4.666   2.552  -0.003
 4672TIP3    H114022   4.672   2.603   0.078
 4672TIP3    H214023   4.583   2.506   0.003
 4673TIP3   OH214024   2.637   5.865   2.700
 4673TIP3    H114025   2.570   5.920   2.741
 4673TIP3    H214026   2.592   5.818   2.631
 4674TIP3   OH214027   3.336   2.778   3.476
 4674TIP3    H114028   3.349   2.814   3.564
 4674TIP3    H214029   3.272   2.837   3.435
 4675TIP3   OH214030   5.551   4.520   0.156
 4675TIP3    H114031   5.467   4.501   0.114
 4675TIP3    H214032   5.528   4.575   0.231
 4676TIP3   OH214033   4.837   4.765   0.487
 4676TIP3    H114034   4.908   4.761   0.551
 4676TIP3    H214035   4.759   4.784   0.539
 4677TIP3   OH214036   2.018   4.217   2.158
 4677TIP3    H114037   2.069   4.298   2.154
 4677TIP3    H214038   2.081   4.150   2.187
 4678TIP3   OH214039   1.000   5.332   3.378
 4678TIP3    H114040   1.051   5.333   3.459
 4678TIP3    H214041   1.065   5.319   3.309
 4679TIP3   OH214042   6.135   2.005   2.101
 4679TIP3    H114043   6.056   1.981   2.053
 4679TIP3    H214044   6.108   2.006   2.193
 4680TIP3   OH214045   4.833   0.714   0.640
 4680TIP3    H114046   4.877   0.791   0.676
 4680TIP3    H214047   4.755   0.749   0.598
 4681TIP3   OH214048   0.803   5.468   1.654
 4681TIP3    H114049   0.730   5.502   1.603
 4681TIP3    H214050   0.784   5.495   1.744
 4682TIP3   OH214051   4.621   3.012   3.446
 4682TIP3    H114052   4.688   3.076   3.422
 4682TIP3    H214053   4.666   2.928   3.441
 4683TIP3   OH214054   0.393   5.591   3.306
 4683TIP3    H114055   0.335   5.667   3.314
 4683TIP3    H214056   0.377   5.558   3.218
 4684TIP3   OH214057   3.238   2.102   1.427
 4684TIP3    H114058   3.242   2.006   1.426
 4684TIP3    H214059   3.285   2.126   1.507
 4685TIP3   OH214060   4.842   4.221   3.833
 4685TIP3    H114061   4.759   4.174   3.830
 4685TIP3    H214062   4.908   4.152   3.820
 4686TIP3   OH214063   1.016   0.723   4.872
 4686TIP3    H114064   0.995   0.646   4.924
 4686TIP3    H214065   1.112   0.722   4.865
 4687TIP3   OH214066   1.895   1.596   3.812
 4687TIP3    H114067   1.929   1.685   3.799
 4687TIP3    H214068   1.928   1.546   3.738
 4688TIP3   OH214069   5.439   5.506   4.121
 4688TIP3    H114070   5.384   5.486   4.197
 4688TIP3    H214071   5.426   5.600   4.106
 4689TIP3   OH214072   3.536   2.930   0.936
 4689TIP3    H114073   3.608   2.896   0.883
 4689TIP3    H214074   3.572   2.933   1.025
 4690TIP3   OH214075   0.161   2.810   1.905
 4690TIP3    H114076   0.168   2.778   1.995
 4690TIP3    H214077   0.174   2.905   1.912
 4691TIP3   OH214078   4.003   5.154   1.081
 4691TIP3    H114079   4.035   5.069   1.112
 4691TIP3    H214080   4.015   5.213   1.156
 4692TIP3   OH214081   4.649   3.723   0.617
 4692TIP3    H114082   4.745   3.722   0.610
 4692TIP3    H214083   4.632   3.717   0.711
 4693TIP3   OH214084   0.872   4.046   3.808
 4693TIP3    H114085   0.780   4.020   3.806
 4693TIP3    H214086   0.879   4.104   3.884
 4694TIP3   OH214087   3.067   1.339   1.693
 4694TIP3    H114088   3.034   1.414   1.742
 4694TIP3    H214089   3.129   1.297   1.753
 4695TIP3   OH214090   2.140   3.571   0.450
 4695TIP3    H114091   2.185   3.639   0.501
 4695TIP3    H214092   2.096   3.516   0.515
 4696TIP3   OH214093   1.619   0.022   4.092
 4696TIP3    H114094   1.673   0.039   4.169
 4696TIP3    H214095   1.647  -0.063   4.060
 4697TIP3   OH214096   0.082   2.957   3.962
 4697TIP3    H114097   0.027   2.896   3.913
 4697TIP3    H214098   0.027   2.984   4.037
 4698TIP3   OH214099   0.843   4.422   5.126
 4698TIP3    H114100   0.890   4.410   5.209
 4698TIP3    H214101   0.751   4.431   5.152
 4699TIP3   OH214102   4.398   4.703   2.720
 4699TIP3    H114103   4.369   4.761   2.650
 4699TIP3    H214104   4.475   4.658   2.684
 4700TIP3   OH214105   3.978   1.225   1.231
 4700TIP3    H114106   4.030   1.148   1.254
 4700TIP3    H214107   4.016   1.256   1.149
 4701TIP3   OH214108   2.221   2.614   0.340
 4701TIP3    H114109   2.139   2.567   0.360
 4701TIP3    H214110   2.216   2.694   0.391
 4702TIP3   OH214111   0.689   5.466   5.130
 4702TIP3    H114112   0.593   5.466   5.123
 4702TIP3    H214113   0.718   5.526   5.061
 4703TIP3   OH214114   5.935   5.774   2.431
 4703TIP3    H114115   5.919   5.728   2.513
 4703TIP3    H214116   5.877   5.733   2.368
 4704TIP3   OH214117   2.588   0.406   0.089
 4704TIP3    H114118   2.533   0.398   0.167
 4704TIP3    H214119   2.675   0.378   0.118
 4705TIP3   OH214120   1.682   2.208   0.920
 4705TIP3    H114121   1.725   2.147   0.860
 4705TIP3    H214122   1.618   2.155   0.967
 4706TIP3   OH214123   0.518   0.260   0.476
 4706TIP3    H114124   0.494   0.274   0.568
 4706TIP3    H214125   0.589   0.196   0.480
 4707TIP3   OH214126   0.678   0.512   0.645
 4707TIP3    H114127   0.675   0.495   0.551
 4707TIP3    H214128   0.770   0.501   0.668
 4708TIP3   OH214129   1.781   1.525   0.313
 4708TIP3    H114130   1.862   1.524   0.363
 4708TIP3    H214131   1.712   1.509   0.378
 4709TIP3   OH214132   3.670   2.964   4.387
 4709TIP3    H114133   3.665   2.928   4.299
 4709TIP3    H214134   3.664   2.888   4.445
 4710TIP3   OH214135   6.181   3.429   0.173
 4710TIP3    H114136   6.086   3.425   0.178
 4710TIP3    H214137   6.199   3.518   0.140
 4711TIP3   OH214138   2.411   5.451   4.071
 4711TIP3    H114139   2.436   5.361   4.052
 4711TIP3    H214140   2.473   5.479   4.139
 4712TIP3   OH214141   4.753   4.081   5.192
 4712TIP3    H114142   4.843   4.054   5.210
 4712TIP3    H214143   4.752   4.098   5.097
 4713TIP3   OH214144   5.039   1.524   2.929
 4713TIP3    H114145   5.057   1.566   2.845
 4713TIP3    H214146   5.125   1.496   2.962
 4714TIP3   OH214147   5.146   3.714   4.898
 4714TIP3    H114148   5.091   3.763   4.837
 4714TIP3    H214149   5.088   3.697   4.973
 4715TIP3   OH214150   3.485   1.194   0.337
 4715TIP3    H114151   3.520   1.172   0.423
 4715TIP3    H214152   3.563   1.206   0.282
 4716TIP3   OH214153   2.753   2.134   1.995
 4716TIP3    H114154   2.673   2.115   1.946
 4716TIP3    H214155   2.756   2.066   2.063
 4717TIP3   OH214156   3.347   1.730   4.107
 4717TIP3    H114157   3.421   1.672   4.087
 4717TIP3    H214158   3.381   1.818   4.090
 4718TIP3   OH214159   6.104   1.856   1.097
 4718TIP3    H114160   6.074   1.920   1.162
 4718TIP3    H214161   6.024   1.830   1.051
 4719TIP3   OH214162   1.316   3.877   0.759
 4719TIP3    H114163   1.396   3.880   0.811
 4719TIP3    H214164   1.334   3.933   0.684
 4720TIP3   OH214165   4.460   3.898   0.977
 4720TIP3    H114166   4.457   3.987   0.943
 4720TIP3    H214167   4.368   3.875   0.992
 4721TIP3   OH214168   4.638   0.934   2.522
 4721TIP3    H114169   4.722   0.947   2.566
 4721TIP3    H214170   4.661   0.896   2.438
 4722TIP3   OH214171   1.693   2.172   1.257
 4722TIP3    H114172   1.750   2.106   1.296
 4722TIP3    H214173   1.752   2.234   1.215
 4723TIP3   OH214174   3.836   5.042   3.384
 4723TIP3    H114175   3.769   5.053   3.451
 4723TIP3    H214176   3.904   5.106   3.407
 4724TIP3   OH214177   1.228   1.030   0.801
 4724TIP3    H114178   1.294   1.081   0.848
 4724TIP3    H214179   1.269   0.945   0.786
 4725TIP3   OH214180   2.046   0.751   4.412
 4725TIP3    H114181   2.141   0.740   4.402
 4725TIP3    H214182   2.013   0.662   4.425
 4726TIP3   OH214183   2.328   3.831   1.966
 4726TIP3    H114184   2.316   3.896   1.897
 4726TIP3    H214185   2.412   3.852   2.005
 4727TIP3   OH214186   2.560   5.566   2.549
 4727TIP3    H114187   2.636   5.523   2.591
 4727TIP3    H214188   2.585   5.573   2.457
 4728TIP3   OH214189   4.955   3.841   4.754
 4728TIP3    H114190   4.870   3.850   4.797
 4728TIP3    H214191   4.954   3.906   4.684
 4729TIP3   OH214192   1.412   3.243   1.735
 4729TIP3    H114193   1.465   3.211   1.808
 4729TIP3    H214194   1.331   3.194   1.741
 4730TIP3   OH214195   3.125   5.637   3.312
 4730TIP3    H114196   3.161   5.696   3.246
 4730TIP3    H214197   3.093   5.695   3.381
 4731TIP3   OH214198   2.058   3.576   0.178
 4731TIP3    H114199   2.057   3.569   0.273
 4731TIP3    H214200   2.148   3.598   0.156
 4732TIP3   OH214201   1.733   2.979   1.144
 4732TIP3    H114202   1.785   2.988   1.064
 4732TIP3    H214203   1.705   3.069   1.164
 4733TIP3   OH214204   4.730   1.486   4.913
 4733TIP3    H114205   4.703   1.547   4.845
 4733TIP3    H214206   4.812   1.449   4.881
 4734TIP3   OH214207   1.381   2.031   0.964
 4734TIP3    H114208   1.352   1.956   0.913
 4734TIP3    H214209   1.345   2.016   1.052
 4735TIP3   OH214210   4.997   0.172   4.200
 4735TIP3    H114211   5.093   0.173   4.203
 4735TIP3    H214212   4.974   0.080   4.213
 4736TIP3   OH214213   4.196   3.989   4.283
 4736TIP3    H114214   4.174   3.932   4.357
 4736TIP3    H214215   4.141   3.957   4.211
 4737TIP3   OH214216   3.326   1.951   1.063
 4737TIP3    H114217   3.409   1.977   1.103
 4737TIP3    H214218   3.278   2.032   1.051
 4738TIP3   OH214219   5.352   1.692   1.563
 4738TIP3    H114220   5.379   1.631   1.632
 4738TIP3    H214221   5.329   1.772   1.610
 4739TIP3   OH214222   5.906   5.579   3.822
 4739TIP3    H114223   5.880   5.554   3.733
 4739TIP3    H214224   5.825   5.572   3.873
 4740TIP3   OH214225   4.565   5.069   0.199
 4740TIP3    H114226   4.481   5.040   0.163
 4740TIP3    H214227   4.623   5.075   0.122
 4741TIP3   OH214228   5.994   4.526   1.719
 4741TIP3    H114229   5.995   4.614   1.757
 4741TIP3    H214230   6.068   4.481   1.761
 4742TIP3   OH214231   3.431   3.964   3.168
 4742TIP3    H114232   3.430   4.040   3.111
 4742TIP3    H214233   3.412   3.890   3.110
 4743TIP3   OH214234   5.813   5.512   0.443
 4743TIP3    H114235   5.805   5.417   0.435
 4743TIP3    H214236   5.825   5.543   0.353
 4744TIP3   OH214237   0.509   5.313   1.679
 4744TIP3    H114238   0.416   5.326   1.661
 4744TIP3    H214239   0.521   5.350   1.767
 4745TIP3   OH214240   2.214   1.916   0.853
 4745TIP3    H114241   2.258   1.844   0.808
 4745TIP3    H214242   2.200   1.982   0.785
 4746TIP3   OH214243   6.201   3.162   3.342
 4746TIP3    H114244   6.245   3.171   3.427
 4746TIP3    H214245   6.108   3.169   3.362
 4747TIP3   OH214246   1.261   1.532   1.760
 4747TIP3    H114247   1.201   1.465   1.728
 4747TIP3    H214248   1.332   1.533   1.696
 4748TIP3   OH214249   5.850   5.187   1.018
 4748TIP3    H114250   5.843   5.119   0.951
 4748TIP3    H214251   5.770   5.239   1.009
 4749TIP3   OH214252   3.630   4.510   2.641
 4749TIP3    H114253   3.703   4.572   2.639
 4749TIP3    H214254   3.613   4.491   2.548
 4750TIP3   OH214255   5.414   5.911   1.670
 4750TIP3    H114256   5.410   5.857   1.750
 4750TIP3    H214257   5.487   5.971   1.686
 4751TIP3   OH214258   5.466   3.156   4.509
 4751TIP3    H114259   5.472   3.064   4.534
 4751TIP3    H214260   5.433   3.200   4.588
 4752TIP3   OH214261   0.433   0.882   1.171
 4752TIP3    H114262   0.379   0.860   1.095
 4752TIP3    H214263   0.491   0.952   1.140
 4753TIP3   OH214264   1.876   2.117   3.963
 4753TIP3    H114265   1.889   2.210   3.944
 4753TIP3    H214266   1.836   2.081   3.884
 4754TIP3   OH214267   5.229   4.695   0.106
 4754TIP3    H114268   5.297   4.690   0.173
 4754TIP3    H214269   5.155   4.645   0.143
 4755TIP3   OH214270   4.710   5.717   2.923
 4755TIP3    H114271   4.760   5.656   2.869
 4755TIP3    H214272   4.697   5.671   3.006
 4756TIP3   OH214273   4.703   3.825   3.763
 4756TIP3    H114274   4.665   3.908   3.792
 4756TIP3    H214275   4.789   3.823   3.804
 4757TIP3   OH214276   2.720   1.923   2.190
 4757TIP3    H114277   2.683   1.917   2.278
 4757TIP3    H214278   2.804   1.877   2.196
 4758TIP3   OH214279   0.103   0.360   4.309
 4758TIP3    H114280   0.023   0.315   4.336
 4758TIP3    H214281   0.077   0.451   4.298
 4759TIP3   OH214282   5.911   2.333   3.131
 4759TIP3    H114283   5.891   2.399   3.065
 4759TIP3    H214284   5.967   2.270   3.086
 4760TIP3   OH214285   1.686   4.404   0.754
 4760TIP3    H114286   1.647   4.326   0.794
 4760TIP3    H214287   1.749   4.435   0.818
 4761TIP3   OH214288   2.827   4.976   3.753
 4761TIP3    H114289   2.800   4.908   3.692
 4761TIP3    H214290   2.815   5.058   3.705
 4762TIP3   OH214291   0.280   3.026   4.946
 4762TIP3    H114292   0.243   3.075   4.872
 4762TIP3    H214293   0.204   2.991   4.992
 4763TIP3   OH214294   4.031   0.190   0.601
 4763TIP3    H114295   3.939   0.194   0.627
 4763TIP3    H214296   4.036   0.116   0.541
 4764TIP3   OH214297   3.009   2.689   0.752
 4764TIP3    H114298   2.916   2.678   0.732
 4764TIP3    H214299   3.032   2.774   0.715
 4765TIP3   OH214300   2.861   0.556   1.081
 4765TIP3    H114301   2.907   0.640   1.083
 4765TIP3    H214302   2.910   0.500   1.140
 4766TIP3   OH214303   1.439   0.667   1.689
 4766TIP3    H114304   1.359   0.665   1.637
 4766TIP3    H214305   1.408   0.669   1.780
 4767TIP3   OH214306   4.233   5.129   3.033
 4767TIP3    H114307   4.196   5.197   2.976
 4767TIP3    H214308   4.256   5.175   3.114
 4768TIP3   OH214309   3.314   4.911   5.129
 4768TIP3    H114310   3.281   4.944   5.046
 4768TIP3    H214311   3.312   4.815   5.120
 4769TIP3   OH214312   1.127   0.970   0.329
 4769TIP3    H114313   1.193   0.946   0.394
 4769TIP3    H214314   1.053   1.002   0.380
 4770TIP3   OH214315   3.311   3.036   4.413
 4770TIP3    H114316   3.238   3.008   4.357
 4770TIP3    H214317   3.371   2.962   4.412
 4771TIP3   OH214318   0.880   5.227   4.359
 4771TIP3    H114319   0.934   5.262   4.430
 4771TIP3    H214320   0.857   5.304   4.307
 4772TIP3   OH214321   2.171   2.839   0.522
 4772TIP3    H114322   2.140   2.874   0.438
 4772TIP3    H214323   2.233   2.905   0.554
 4773TIP3   OH214324   4.744   1.431   4.070
 4773TIP3    H114325   4.743   1.436   3.974
 4773TIP3    H214326   4.833   1.455   4.094
 4774TIP3   OH214327   0.389   0.488   3.143
 4774TIP3    H114328   0.459   0.423   3.152
 4774TIP3    H214329   0.432   0.566   3.109
 4775TIP3   OH214330   5.246   4.673   1.352
 4775TIP3    H114331   5.236   4.765   1.326
 4775TIP3    H214332   5.180   4.627   1.302
 4776TIP3   OH214333   1.407   4.040   4.974
 4776TIP3    H114334   1.475   4.073   4.916
 4776TIP3    H214335   1.333   4.022   4.916
 4777TIP3   OH214336   4.269   0.185   0.239
 4777TIP3    H114337   4.278   0.104   0.189
 4777TIP3    H214338   4.226   0.246   0.179
 4778TIP3   OH214339   3.839   2.193   2.583
 4778TIP3    H114340   3.765   2.158   2.632
 4778TIP3    H214341   3.851   2.133   2.510
 4779TIP3   OH214342   2.623   4.103   4.176
 4779TIP3    H114343   2.531   4.093   4.199
 4779TIP3    H214344   2.669   4.047   4.239
 4780TIP3   OH214345   2.175   4.354   0.493
 4780TIP3    H114346   2.250   4.359   0.552
 4780TIP3    H214347   2.180   4.267   0.454
 4781TIP3   OH214348   0.954   2.530   3.338
 4781TIP3    H114349   1.019   2.601   3.342
 4781TIP3    H214350   1.002   2.452   3.366
 4782TIP3   OH214351   4.774   5.096   3.304
 4782TIP3    H114352   4.723   5.023   3.269
 4782TIP3    H214353   4.849   5.054   3.347
 4783TIP3   OH214354   0.560   4.521   4.762
 4783TIP3    H114355   0.473   4.563   4.767
 4783TIP3    H214356   0.542   4.428   4.775
 4784TIP3   OH214357   5.809   5.536   3.582
 4784TIP3    H114358   5.781   5.454   3.542
 4784TIP3    H214359   5.783   5.604   3.519
 4785TIP3   OH214360   6.313   1.620   2.196
 4785TIP3    H114361   6.394   1.644   2.150
 4785TIP3    H214362   6.309   1.525   2.188
 4786TIP3   OH214363   0.299   1.238   1.057
 4786TIP3    H114364   0.310   1.317   1.003
 4786TIP3    H214365   0.377   1.186   1.038
 4787TIP3   OH214366   4.598   5.539   0.860
 4787TIP3    H114367   4.627   5.591   0.785
 4787TIP3    H214368   4.670   5.546   0.923
 4788TIP3   OH214369   4.695   2.147   0.868
 4788TIP3    H114370   4.777   2.105   0.891
 4788TIP3    H214371   4.683   2.215   0.934
 4789TIP3   OH214372   3.394   4.209   0.200
 4789TIP3    H114373   3.376   4.205   0.106
 4789TIP3    H214374   3.487   4.189   0.208
 4790TIP3   OH214375   4.017   3.427   3.386
 4790TIP3    H114376   4.032   3.365   3.458
 4790TIP3    H214377   4.103   3.441   3.348
 4791TIP3   OH214378   5.734   1.524   5.141
 4791TIP3    H114379   5.753   1.477   5.061
 4791TIP3    H214380   5.784   1.606   5.134
 4792TIP3   OH214381   3.021   0.511   0.566
 4792TIP3    H114382   2.978   0.521   0.651
 4792TIP3    H214383   3.112   0.538   0.583
 4793TIP3   OH214384   0.841   1.133   2.184
 4793TIP3    H114385   0.827   1.058   2.127
 4793TIP3    H214386   0.930   1.162   2.164
 4794TIP3   OH214387   4.956   3.678   1.280
 4794TIP3    H114388   5.021   3.617   1.247
 4794TIP3    H214389   4.880   3.624   1.300
 4795TIP3   OH214390   4.282   1.745   3.554
 4795TIP3    H114391   4.192   1.712   3.562
 4795TIP3    H214392   4.273   1.826   3.503
 4796TIP3   OH214393   5.524   4.856   0.126
 4796TIP3    H114394   5.555   4.824   0.211
 4796TIP3    H214395   5.585   4.926   0.103
 4797TIP3   OH214396   0.614   3.192   1.938
 4797TIP3    H114397   0.535   3.160   1.895
 4797TIP3    H214398   0.582   3.232   2.019
 4798TIP3   OH214399   5.944   3.299   2.519
 4798TIP3    H114400   6.016   3.246   2.484
 4798TIP3    H214401   5.980   3.341   2.597
 4799TIP3   OH214402   5.411   2.996   0.752
 4799TIP3    H114403   5.421   3.091   0.755
 4799TIP3    H214404   5.419   2.967   0.843
 4800TIP3   OH214405   0.528   2.280   3.740
 4800TIP3    H114406   0.622   2.296   3.739
 4800TIP3    H214407   0.518   2.190   3.710
 4801TIP3   OH214408   3.155   5.729   4.155
 4801TIP3    H114409   3.196   5.657   4.108
 4801TIP3    H214410   3.062   5.720   4.135
 4802TIP3   OH214411   4.686   0.380   4.264
 4802TIP3    H114412   4.725   0.463   4.236
 4802TIP3    H214413   4.732   0.357   4.345
 4803TIP3   OH214414   3.367   0.101   3.021
 4803TIP3    H114415   3.436   0.087   3.086
 4803TIP3    H214416   3.344   0.013   2.992
 4804TIP3   OH214417   1.591   2.178   4.885
 4804TIP3    H114418   1.563   2.119   4.955
 4804TIP3    H214419   1.600   2.121   4.808
 4805TIP3   OH214420   4.417   5.938   2.135
 4805TIP3    H114421   4.380   5.941   2.047
 4805TIP3    H214422   4.342   5.918   2.192
 4806TIP3   OH214423   5.749   3.474   3.279
 4806TIP3    H114424   5.817   3.484   3.346
 4806TIP3    H214425   5.766   3.545   3.217
 4807TIP3   OH214426   5.458   1.681   0.338
 4807TIP3    H114427   5.457   1.637   0.423
 4807TIP3    H214428   5.441   1.773   0.358
 4808TIP3   OH214429   2.349   5.639   2.727
 4808TIP3    H114430   2.343   5.582   2.804
 4808TIP3    H214431   2.423   5.605   2.678
 4809TIP3   OH214432   2.503   1.124   2.423
 4809TIP3    H114433   2.587   1.155   2.388
 4809TIP3    H214434   2.496   1.034   2.391
 4810TIP3   OH214435   0.515   4.852   0.137
 4810TIP3    H114436   0.571   4.926   0.117
 4810TIP3    H214437   0.433   4.891   0.167
 4811TIP3   OH214438   5.783   5.439   1.302
 4811TIP3    H114439   5.741   5.461   1.219
 4811TIP3    H214440   5.869   5.479   1.297
 4812TIP3   OH214441   5.598   5.388   0.187
 4812TIP3    H114442   5.535   5.443   0.233
 4812TIP3    H214443   5.666   5.449   0.157
 4813TIP3   OH214444   1.486   1.202   0.573
 4813TIP3    H114445   1.518   1.136   0.634
 4813TIP3    H214446   1.483   1.283   0.625
 4814TIP3   OH214447   4.936   2.958   4.621
 4814TIP3    H114448   5.012   2.970   4.678
 4814TIP3    H214449   4.970   2.909   4.546
 4815TIP3   OH214450   3.841   3.405   1.492
 4815TIP3    H114451   3.798   3.327   1.458
 4815TIP3    H214452   3.929   3.402   1.454
 4816TIP3   OH214453   0.711   0.958   3.260
 4816TIP3    H114454   0.797   0.991   3.285
 4816TIP3    H214455   0.717   0.863   3.270
 4817TIP3   OH214456   1.252   4.954   3.551
 4817TIP3    H114457   1.335   4.914   3.576
 4817TIP3    H214458   1.214   4.893   3.487
 4818TIP3   OH214459   0.668   4.745   4.938
 4818TIP3    H114460   0.669   4.654   4.909
 4818TIP3    H214461   0.738   4.787   4.887
 4819TIP3   OH214462   4.769   4.154   0.856
 4819TIP3    H114463   4.805   4.093   0.792
 4819TIP3    H214464   4.833   4.154   0.927
 4820TIP3   OH214465   3.055   3.925   0.242
 4820TIP3    H114466   2.961   3.917   0.257
 4820TIP3    H214467   3.083   3.993   0.304
 4821TIP3   OH214468   5.468   2.695   0.392
 4821TIP3    H114469   5.487   2.702   0.299
 4821TIP3    H214470   5.405   2.764   0.410
 4822TIP3   OH214471   0.498   0.085   4.448
 4822TIP3    H114472   0.485   0.179   4.461
 4822TIP3    H214473   0.593   0.073   4.451
 4823TIP3   OH214474   6.283   2.166   1.508
 4823TIP3    H114475   6.351   2.223   1.472
 4823TIP3    H214476   6.225   2.226   1.556
 4824TIP3   OH214477   3.133   5.244   3.493
 4824TIP3    H114478   3.060   5.218   3.437
 4824TIP3    H214479   3.092   5.268   3.576
 4825TIP3   OH214480   2.853   3.698   2.065
 4825TIP3    H114481   2.894   3.784   2.075
 4825TIP3    H214482   2.927   3.637   2.059
 4826TIP3   OH214483   4.839   2.183   0.312
 4826TIP3    H114484   4.907   2.117   0.298
 4826TIP3    H214485   4.811   2.171   0.403
 4827TIP3   OH214486   4.187   1.266   3.266
 4827TIP3    H114487   4.143   1.202   3.322
 4827TIP3    H214488   4.127   1.340   3.262
 4828TIP3   OH214489   3.033   5.818   3.537
 4828TIP3    H114490   2.941   5.845   3.529
 4828TIP3    H214491   3.079   5.898   3.564
 4829TIP3   OH214492   1.770   1.424   2.535
 4829TIP3    H114493   1.725   1.339   2.530
 4829TIP3    H214494   1.719   1.474   2.599
 4830TIP3   OH214495   4.170   3.856   1.069
 4830TIP3    H114496   4.113   3.836   0.995
 4830TIP3    H214497   4.154   3.949   1.087
 4831TIP3   OH214498   4.276   5.884   0.141
 4831TIP3    H114499   4.226   5.906   0.219
 4831TIP3    H214500   4.213   5.838   0.084
 4832TIP3   OH214501   1.831   5.488   1.211
 4832TIP3    H114502   1.846   5.550   1.140
 4832TIP3    H214503   1.740   5.460   1.201
 4833TIP3   OH214504   3.030   2.286   2.710
 4833TIP3    H114505   2.965   2.216   2.719
 4833TIP3    H214506   3.101   2.246   2.660
 4834TIP3   OH214507   3.246   0.646   2.126
 4834TIP3    H114508   3.221   0.563   2.084
 4834TIP3    H214509   3.329   0.627   2.170
 4835TIP3   OH214510   4.500   3.449   1.883
 4835TIP3    H114511   4.454   3.377   1.926
 4835TIP3    H214512   4.552   3.490   1.952
 4836TIP3   OH214513   0.232   5.352   1.694
 4836TIP3    H114514   0.240   5.447   1.694
 4836TIP3    H214515   0.173   5.332   1.766
 4837TIP3   OH214516   3.317   5.514   3.969
 4837TIP3    H114517   3.351   5.472   3.890
 4837TIP3    H214518   3.383   5.578   3.992
 4838TIP3   OH214519   2.741   4.977   3.394
 4838TIP3    H114520   2.820   4.928   3.419
 4838TIP3    H214521   2.671   4.912   3.399
 4839TIP3   OH214522   5.799   2.785   1.360
 4839TIP3    H114523   5.822   2.697   1.388
 4839TIP3    H214524   5.847   2.797   1.278
 4840TIP3   OH214525   6.373   0.327   2.966
 4840TIP3    H114526   6.342   0.392   3.029
 4840TIP3    H214527   6.320   0.250   2.983
 4841TIP3   OH214528   0.395   3.825   0.019
 4841TIP3    H114529   0.388   3.798   0.111
 4841TIP3    H214530   0.405   3.920   0.023
 4842TIP3   OH214531   1.291   2.363   4.881
 4842TIP3    H114532   1.245   2.346   4.799
 4842TIP3    H214533   1.354   2.432   4.859
 4843TIP3   OH214534   5.704   1.487   2.250
 4843TIP3    H114535   5.771   1.442   2.198
 4843TIP3    H214536   5.624   1.479   2.198
 4844TIP3   OH214537   2.869   5.602   2.575
 4844TIP3    H114538   2.938   5.542   2.548
 4844TIP3    H214539   2.868   5.670   2.507
 4845TIP3   OH214540   2.273   1.852   2.564
 4845TIP3    H114541   2.225   1.824   2.642
 4845TIP3    H214542   2.233   1.803   2.492
 4846TIP3   OH214543   3.296   1.708   1.964
 4846TIP3    H114544   3.330   1.619   1.957
 4846TIP3    H214545   3.303   1.744   1.876
 4847TIP3   OH214546   0.123   4.050   0.784
 4847TIP3    H114547   0.110   3.972   0.730
 4847TIP3    H214548   0.108   4.019   0.874
 4848TIP3   OH214549   5.744   3.098   1.282
 4848TIP3    H114550   5.658   3.056   1.280
 4848TIP3    H214551   5.728   3.186   1.248
 4849TIP3   OH214552   4.245   2.708   4.831
 4849TIP3    H114553   4.206   2.785   4.790
 4849TIP3    H214554   4.226   2.637   4.770
 4850TIP3   OH214555   4.988   3.577   3.360
 4850TIP3    H114556   4.952   3.585   3.448
 4850TIP3    H214557   4.994   3.483   3.345
 4851TIP3   OH214558   2.917   2.924   1.565
 4851TIP3    H114559   2.879   3.012   1.562
 4851TIP3    H214560   2.965   2.916   1.482
 4852TIP3   OH214561   3.870   2.372   0.486
 4852TIP3    H114562   3.959   2.337   0.488
 4852TIP3    H214563   3.882   2.467   0.486
 4853TIP3   OH214564   5.270   0.948   1.882
 4853TIP3    H114565   5.365   0.948   1.876
 4853TIP3    H214566   5.247   1.040   1.897
 4854TIP3   OH214567   2.774   5.355   2.680
 4854TIP3    H114568   2.784   5.354   2.775
 4854TIP3    H214569   2.836   5.421   2.650
 4855TIP3   OH214570   5.921   4.349   0.933
 4855TIP3    H114571   5.851   4.329   0.996
 4855TIP3    H214572   5.996   4.374   0.986
 4856TIP3   OH214573   2.106   2.374   0.848
 4856TIP3    H114574   2.113   2.457   0.894
 4856TIP3    H214575   2.187   2.327   0.871
 4857TIP3   OH214576   0.466   2.008   1.034
 4857TIP3    H114577   0.462   1.957   0.953
 4857TIP3    H214578   0.466   2.099   1.004
 4858TIP3   OH214579   6.299   3.817   4.801
 4858TIP3    H114580   6.206   3.800   4.813
 4858TIP3    H214581   6.320   3.884   4.867
 4859TIP3   OH214582   3.330   2.194   4.515
 4859TIP3    H114583   3.410   2.222   4.470
 4859TIP3    H214584   3.324   2.100   4.500
 4860TIP3   OH214585   3.638   5.166   3.170
 4860TIP3    H114586   3.588   5.247   3.171
 4860TIP3    H214587   3.708   5.182   3.107
 4861TIP3   OH214588   2.908   4.296   3.818
 4861TIP3    H114589   2.887   4.270   3.729
 4861TIP3    H214590   2.864   4.232   3.873
 4862TIP3   OH214591   0.368   2.138   2.229
 4862TIP3    H114592   0.335   2.052   2.254
 4862TIP3    H214593   0.463   2.128   2.228
 4863TIP3   OH214594   3.356   5.076   0.894
 4863TIP3    H114595   3.269   5.087   0.934
 4863TIP3    H214596   3.399   5.161   0.907
 4864TIP3   OH214597   2.666   5.226   5.128
 4864TIP3    H114598   2.605   5.288   5.087
 4864TIP3    H214599   2.678   5.157   5.062
 4865TIP3   OH214600   6.270   3.130   4.109
 4865TIP3    H114601   6.244   3.057   4.165
 4865TIP3    H214602   6.198   3.193   4.116
 4866TIP3   OH214603   6.073   5.191   2.283
 4866TIP3    H114604   6.028   5.106   2.278
 4866TIP3    H214605   6.165   5.169   2.295
 4867TIP3   OH214606   3.626   4.158   4.971
 4867TIP3    H114607   3.711   4.155   4.929
 4867TIP3    H214608   3.580   4.231   4.929
 4868TIP3   OH214609   5.753   0.435   1.843
 4868TIP3    H114610   5.698   0.457   1.918
 4868TIP3    H214611   5.811   0.510   1.832
 4869TIP3   OH214612   6.084   1.357   0.645
 4869TIP3    H114613   6.153   1.298   0.674
 4869TIP3    H214614   6.079   1.344   0.550
 4870TIP3   OH214615   0.063   5.816   4.516
 4870TIP3    H114616  -0.032   5.816   4.530
 4870TIP3    H214617   0.074   5.855   4.429
 4871TIP3   OH214618   2.773   5.224   0.067
 4871TIP3    H114619   2.702   5.258   0.121
 4871TIP3    H214620   2.847   5.283   0.085
 4872TIP3   OH214621   0.436   3.490   3.752
 4872TIP3    H114622   0.437   3.541   3.833
 4872TIP3    H214623   0.382   3.414   3.771
 4873TIP3   OH214624   1.657   4.915   2.403
 4873TIP3    H114625   1.695   4.967   2.333
 4873TIP3    H214626   1.733   4.879   2.450
 4874TIP3   OH214627   2.981   4.195   2.211
 4874TIP3    H114628   2.918   4.214   2.281
 4874TIP3    H214629   2.946   4.239   2.134
 4875TIP3   OH214630   4.164   3.166   3.027
 4875TIP3    H114631   4.086   3.118   3.053
 4875TIP3    H214632   4.234   3.102   3.029
 4876TIP3   OH214633   3.311   2.711   0.397
 4876TIP3    H114634   3.320   2.625   0.355
 4876TIP3    H214635   3.395   2.724   0.442
 4877TIP3   OH214636   1.959   4.715   4.433
 4877TIP3    H114637   1.932   4.751   4.517
 4877TIP3    H214638   2.010   4.638   4.455
 4878TIP3   OH214639   2.537   0.829   0.062
 4878TIP3    H114640   2.552   0.914   0.019
 4878TIP3    H214641   2.622   0.804   0.097
 4879TIP3   OH214642   1.112   4.263   3.927
 4879TIP3    H114643   1.067   4.285   3.846
 4879TIP3    H214644   1.047   4.214   3.978
 4880TIP3   OH214645   3.404   1.269   2.153
 4880TIP3    H114646   3.471   1.210   2.187
 4880TIP3    H214647   3.331   1.260   2.215
 4881TIP3   OH214648   3.704   4.651   3.602
 4881TIP3    H114649   3.738   4.605   3.678
 4881TIP3    H214650   3.775   4.710   3.576
 4882TIP3   OH214651   5.801   5.491   1.864
 4882TIP3    H114652   5.827   5.400   1.853
 4882TIP3    H214653   5.769   5.518   1.778
 4883TIP3   OH214654   1.230   2.416   2.236
 4883TIP3    H114655   1.267   2.350   2.293
 4883TIP3    H214656   1.135   2.400   2.239
 4884TIP3   OH214657   2.711   5.963   4.576
 4884TIP3    H114658   2.726   6.036   4.515
 4884TIP3    H214659   2.729   5.885   4.524
 4885TIP3   OH214660   3.099   5.680   1.646
 4885TIP3    H114661   3.166   5.656   1.710
 4885TIP3    H214662   3.099   5.776   1.647
 4886TIP3   OH214663   4.406   2.521   4.971
 4886TIP3    H114664   4.496   2.519   4.939
 4886TIP3    H214665   4.401   2.450   5.035
 4887TIP3   OH214666   2.288   0.359   4.254
 4887TIP3    H114667   2.314   0.269   4.275
 4887TIP3    H214668   2.242   0.352   4.171
 4888TIP3   OH214669   4.638   2.467   2.490
 4888TIP3    H114670   4.677   2.494   2.574
 4888TIP3    H214671   4.594   2.546   2.458
 4889TIP3   OH214672   0.246   5.155   0.952
 4889TIP3    H114673   0.318   5.111   0.997
 4889TIP3    H214674   0.271   5.247   0.951
 4890TIP3   OH214675   1.741   5.664   1.924
 4890TIP3    H114676   1.698   5.715   1.854
 4890TIP3    H214677   1.715   5.574   1.906
 4891TIP3   OH214678   2.211   1.056   1.588
 4891TIP3    H114679   2.253   1.106   1.518
 4891TIP3    H214680   2.137   1.110   1.615
 4892TIP3   OH214681   2.538   5.580   0.794
 4892TIP3    H114682   2.608   5.601   0.857
 4892TIP3    H214683   2.496   5.502   0.831
 4893TIP3   OH214684   5.925   3.456   1.144
 4893TIP3    H114685   5.933   3.525   1.078
 4893TIP3    H214686   5.840   3.473   1.185
 4894TIP3   OH214687   3.956   3.348   3.806
 4894TIP3    H114688   3.969   3.324   3.897
 4894TIP3    H214689   3.976   3.441   3.802
 4895TIP3   OH214690   4.630   4.381   1.046
 4895TIP3    H114691   4.710   4.410   1.088
 4895TIP3    H214692   4.658   4.345   0.962
 4896TIP3   OH214693   4.510   1.943   2.942
 4896TIP3    H114694   4.490   1.882   3.013
 4896TIP3    H214695   4.463   2.023   2.966
 4897TIP3   OH214696   4.767   1.659   1.743
 4897TIP3    H114697   4.721   1.741   1.726
 4897TIP3    H214698   4.698   1.598   1.770
 4898TIP3   OH214699   5.597   0.734   4.412
 4898TIP3    H114700   5.678   0.780   4.436
 4898TIP3    H214701   5.527   0.787   4.450
 4899TIP3   OH214702   2.762   0.723   0.660
 4899TIP3    H114703   2.786   0.658   0.726
 4899TIP3    H214704   2.739   0.672   0.582
 4900TIP3   OH214705   6.162   0.258   3.405
 4900TIP3    H114706   6.243   0.307   3.416
 4900TIP3    H214707   6.129   0.244   3.494
 4901TIP3   OH214708   0.559   5.056   1.996
 4901TIP3    H114709   0.562   4.988   2.063
 4901TIP3    H214710   0.647   5.094   1.996
 4902TIP3   OH214711   0.404   3.078   0.594
 4902TIP3    H114712   0.373   3.049   0.680
 4902TIP3    H214713   0.443   3.164   0.610
 4903TIP3   OH214714   4.289   4.134   1.038
 4903TIP3    H114715   4.228   4.204   1.016
 4903TIP3    H214716   4.357   4.139   0.970
 4904TIP3   OH214717   0.226   2.298   1.477
 4904TIP3    H114718   0.199   2.384   1.510
 4904TIP3    H214719   0.322   2.299   1.480
 4905TIP3   OH214720   2.413   5.877   0.090
 4905TIP3    H114721   2.359   5.952   0.065
 4905TIP3    H214722   2.450   5.902   0.175
 4906TIP3   OH214723   1.944   1.183   3.442
 4906TIP3    H114724   2.037   1.205   3.435
 4906TIP3    H214725   1.940   1.121   3.515
 4907TIP3   OH214726   1.328   5.623   5.043
 4907TIP3    H114727   1.267   5.568   5.093
 4907TIP3    H214728   1.414   5.592   5.069
 4908TIP3   OH214729   3.724   3.074   0.595
 4908TIP3    H114730   3.660   3.044   0.530
 4908TIP3    H214731   3.728   3.003   0.658
 4909TIP3   OH214732   2.823   4.074   0.967
 4909TIP3    H114733   2.738   4.092   0.927
 4909TIP3    H214734   2.835   3.980   0.958
 4910TIP3   OH214735   1.036   4.680   1.778
 4910TIP3    H114736   1.085   4.757   1.804
 4910TIP3    H214737   1.064   4.663   1.688
 4911TIP3   OH214738   5.552   0.176   1.011
 4911TIP3    H114739   5.571   0.158   0.919
 4911TIP3    H214740   5.464   0.214   1.010
 4912TIP3   OH214741   2.286   0.693   2.758
 4912TIP3    H114742   2.379   0.682   2.738
 4912TIP3    H214743   2.260   0.610   2.799
 4913TIP3   OH214744   1.890   2.758   3.497
 4913TIP3    H114745   1.851   2.715   3.421
 4913TIP3    H214746   1.951   2.822   3.460
 4914TIP3   OH214747   2.954   2.447   2.211
 4914TIP3    H114748   2.979   2.359   2.239
 4914TIP3    H214749   2.963   2.500   2.290
 4915TIP3   OH214750   4.446   1.103   2.968
 4915TIP3    H114751   4.445   1.011   2.996
 4915TIP3    H214752   4.438   1.099   2.873
 4916TIP3   OH214753   2.499   0.701   2.573
 4916TIP3    H114754   2.563   0.674   2.507
 4916TIP3    H214755   2.415   0.665   2.541
 4917TIP3   OH214756   1.634   1.745   2.545
 4917TIP3    H114757   1.611   1.678   2.609
 4917TIP3    H214758   1.684   1.810   2.594
 4918TIP3   OH214759   1.338   2.641   3.852
 4918TIP3    H114760   1.433   2.655   3.846
 4918TIP3    H214761   1.319   2.645   3.946
 4919TIP3   OH214762   5.144   2.849   1.157
 4919TIP3    H114763   5.215   2.854   1.093
 4919TIP3    H214764   5.170   2.778   1.216
 4920TIP3   OH214765   4.634   1.242   3.725
 4920TIP3    H114766   4.590   1.161   3.750
 4920TIP3    H214767   4.569   1.311   3.741
 4921TIP3   OH214768   1.421   3.008   2.484
 4921TIP3    H114769   1.346   2.952   2.467
 4921TIP3    H214770   1.492   2.947   2.504
 4922TIP3   OH214771   3.899   0.954   0.337
 4922TIP3    H114772   3.982   0.977   0.378
 4922TIP3    H214773   3.912   0.970   0.244
 4923TIP3   OH214774   0.945   5.117   3.078
 4923TIP3    H114775   1.024   5.170   3.088
 4923TIP3    H214776   0.977   5.027   3.069
 4924TIP3   OH214777   3.924   2.813   4.651
 4924TIP3    H114778   3.934   2.753   4.577
 4924TIP3    H214779   3.830   2.829   4.655
 4925TIP3   OH214780   1.319   4.707   2.159
 4925TIP3    H114781   1.406   4.705   2.198
 4925TIP3    H214782   1.319   4.633   2.097
 4926TIP3   OH214783   3.621   4.587   4.510
 4926TIP3    H114784   3.696   4.620   4.460
 4926TIP3    H214785   3.545   4.627   4.468
 4927TIP3   OH214786   4.605   3.102   1.004
 4927TIP3    H114787   4.568   3.185   0.975
 4927TIP3    H214788   4.644   3.122   1.089
 4928TIP3   OH214789   5.544   4.269   3.438
 4928TIP3    H114790   5.594   4.203   3.486
 4928TIP3    H214791   5.525   4.336   3.503
 4929TIP3   OH214792   4.129   1.063   3.889
 4929TIP3    H114793   4.154   0.977   3.921
 4929TIP3    H214794   4.195   1.122   3.925
 4930TIP3   OH214795   4.009   0.352   3.361
 4930TIP3    H114796   3.968   0.379   3.279
 4930TIP3    H214797   3.938   0.358   3.426
 4931TIP3   OH214798   2.337   2.426   3.555
 4931TIP3    H114799   2.274   2.377   3.502
 4931TIP3    H214800   2.352   2.369   3.631
 4932TIP3   OH214801   2.949   5.487   4.076
 4932TIP3    H114802   2.946   5.409   4.021
 4932TIP3    H214803   2.977   5.454   4.162
 4933TIP3   OH214804   4.283   3.158   0.628
 4933TIP3    H114805   4.272   3.228   0.564
 4933TIP3    H214806   4.280   3.078   0.575
 4934TIP3   OH214807   3.774   1.551   2.747
 4934TIP3    H114808   3.791   1.535   2.840
 4934TIP3    H214809   3.739   1.468   2.714
 4935TIP3   OH214810   3.793   5.497   3.610
 4935TIP3    H114811   3.837   5.456   3.684
 4935TIP3    H214812   3.821   5.445   3.534
 4936TIP3   OH214813   5.483   3.710   3.984
 4936TIP3    H114814   5.462   3.726   3.892
 4936TIP3    H214815   5.402   3.676   4.022
 4937TIP3   OH214816   4.792   4.705   4.451
 4937TIP3    H114817   4.864   4.767   4.457
 4937TIP3    H214818   4.768   4.686   4.542
 4938TIP3   OH214819   3.005   1.136   2.281
 4938TIP3    H114820   3.054   1.203   2.234
 4938TIP3    H214821   3.017   1.057   2.228
 4939TIP3   OH214822   3.406   3.772   4.887
 4939TIP3    H114823   3.431   3.680   4.885
 4939TIP3    H214824   3.456   3.812   4.816
 4940TIP3   OH214825   4.263   3.296   2.725
 4940TIP3    H114826   4.295   3.207   2.740
 4940TIP3    H214827   4.334   3.352   2.754
 4941TIP3   OH214828   5.921   3.444   0.211
 4941TIP3    H114829   5.926   3.394   0.292
 4941TIP3    H214830   5.841   3.497   0.220
 4942TIP3   OH214831   6.115   5.262   3.316
 4942TIP3    H114832   6.115   5.211   3.397
 4942TIP3    H214833   6.113   5.353   3.346
 4943TIP3   OH214834   2.522   4.280   3.422
 4943TIP3    H114835   2.515   4.266   3.328
 4943TIP3    H214836   2.552   4.196   3.456
 4944TIP3   OH214837   2.152   2.061   0.598
 4944TIP3    H114838   2.120   2.025   0.514
 4944TIP3    H214839   2.217   2.126   0.572
 4945TIP3   OH214840   2.617   4.950   3.952
 4945TIP3    H114841   2.564   4.904   3.886
 4945TIP3    H214842   2.700   4.968   3.907
 4946TIP3   OH214843   6.221   1.594   1.189
 4946TIP3    H114844   6.158   1.623   1.124
 4946TIP3    H214845   6.214   1.657   1.260
 4947TIP3   OH214846   4.941   0.802   2.565
 4947TIP3    H114847   5.026   0.801   2.521
 4947TIP3    H214848   4.945   0.878   2.623
 4948TIP3   OH214849   0.441   0.551   4.931
 4948TIP3    H114850   0.494   0.630   4.923
 4948TIP3    H214851   0.412   0.550   5.023
 4949TIP3   OH214852   1.715   5.386   1.902
 4949TIP3    H114853   1.637   5.340   1.935
 4949TIP3    H214854   1.726   5.352   1.813
 4950TIP3   OH214855   2.933   1.150   4.601
 4950TIP3    H114856   2.998   1.184   4.539
 4950TIP3    H214857   2.882   1.227   4.626
 4951TIP3   OH214858   0.833   4.755   3.982
 4951TIP3    H114859   0.821   4.660   3.986
 4951TIP3    H214860   0.778   4.783   3.908
 4952TIP3   OH214861   4.235   1.238   0.497
 4952TIP3    H114862   4.227   1.316   0.443
 4952TIP3    H214863   4.317   1.250   0.545
 4953TIP3   OH214864   2.032   2.037   1.774
 4953TIP3    H114865   1.958   1.984   1.805
 4953TIP3    H214866   2.042   2.105   1.840
 4954TIP3   OH214867   0.824   1.961   0.592
 4954TIP3    H114868   0.758   1.899   0.560
 4954TIP3    H214869   0.786   2.047   0.576
 4955TIP3   OH214870   0.427   1.649   2.361
 4955TIP3    H114871   0.341   1.621   2.328
 4955TIP3    H214872   0.407   1.708   2.433
 4956TIP3   OH214873   6.111   2.339   1.650
 4956TIP3    H114874   6.137   2.262   1.701
 4956TIP3    H214875   6.138   2.414   1.703
 4957TIP3   OH214876   1.811   1.210   3.876
 4957TIP3    H114877   1.742   1.154   3.913
 4957TIP3    H214878   1.765   1.274   3.823
 4958TIP3   OH214879   3.340   4.751   3.959
 4958TIP3    H114880   3.276   4.810   3.998
 4958TIP3    H214881   3.304   4.663   3.973
 4959TIP3   OH214882   4.510   0.285   4.080
 4959TIP3    H114883   4.466   0.362   4.043
 4959TIP3    H214884   4.556   0.317   4.157
 4960TIP3   OH214885   0.402   3.239   0.943
 4960TIP3    H114886   0.366   3.304   0.883
 4960TIP3    H214887   0.352   3.251   1.024
 4961TIP3   OH214888   1.004   1.273   0.312
 4961TIP3    H114889   1.028   1.262   0.404
 4961TIP3    H214890   1.007   1.184   0.276
 4962TIP3   OH214891   4.253   5.829   1.919
 4962TIP3    H114892   4.318   5.869   1.862
 4962TIP3    H214893   4.186   5.795   1.860
 4963TIP3   OH214894   2.624   1.507   0.286
 4963TIP3    H114895   2.708   1.537   0.321
 4963TIP3    H214896   2.560   1.529   0.355
 4964TIP3   OH214897   5.902   3.382   5.131
 4964TIP3    H114898   5.923   3.301   5.178
 4964TIP3    H214899   5.894   3.448   5.199
 4965TIP3   OH214900   1.837   5.822   3.337
 4965TIP3    H114901   1.785   5.892   3.377
 4965TIP3    H214902   1.827   5.837   3.242
 4966TIP3   OH214903   2.890   3.599   4.547
 4966TIP3    H114904   2.820   3.567   4.490
 4966TIP3    H214905   2.970   3.586   4.495
 4967TIP3   OH214906   1.898   0.800   3.831
 4967TIP3    H114907   1.981   0.798   3.784
 4967TIP3    H214908   1.916   0.756   3.915
 4968TIP3   OH214909   1.435   1.081   0.972
 4968TIP3    H114910   1.427   1.007   1.032
 4968TIP3    H214911   1.442   1.157   1.029
 4969TIP3   OH214912   4.731   1.314   1.457
 4969TIP3    H114913   4.650   1.354   1.426
 4969TIP3    H214914   4.749   1.356   1.541
 4970TIP3   OH214915   6.159   3.409   0.749
 4970TIP3    H114916   6.239   3.389   0.798
 4970TIP3    H214917   6.168   3.361   0.667
 4971TIP3   OH214918   0.366   4.224   1.274
 4971TIP3    H114919   0.441   4.220   1.334
 4971TIP3    H214920   0.367   4.313   1.240
 4972TIP3   OH214921   1.598   3.188   1.939
 4972TIP3    H114922   1.639   3.274   1.953
 4972TIP3    H214923   1.616   3.140   2.020
 4973TIP3   OH214924   4.256   3.724   4.203
 4973TIP3    H114925   4.272   3.661   4.274
 4973TIP3    H214926   4.337   3.774   4.197
 4974TIP3   OH214927   0.402   1.834   1.224
 4974TIP3    H114928   0.441   1.910   1.180
 4974TIP3    H214929   0.324   1.814   1.173
 4975TIP3   OH214930   3.868   4.367   4.940
 4975TIP3    H114931   3.849   4.304   4.871
 4975TIP3    H214932   3.848   4.452   4.902
 4976TIP3   OH214933   4.030   2.989   1.546
 4976TIP3    H114934   4.075   2.908   1.569
 4976TIP3    H214935   4.038   2.994   1.451
 4977TIP3   OH214936   3.977   0.635   4.407
 4977TIP3    H114937   3.932   0.708   4.364
 4977TIP3    H214938   4.058   0.673   4.441
 4978TIP3   OH214939   5.394   3.932   1.532
 4978TIP3    H114940   5.347   3.865   1.484
 4978TIP3    H214941   5.377   4.013   1.484
 4979TIP3   OH214942   6.177   2.653   1.504
 4979TIP3    H114943   6.174   2.738   1.549
 4979TIP3    H214944   6.250   2.661   1.443
 4980TIP3   OH214945   3.585   4.887   2.362
 4980TIP3    H114946   3.612   4.815   2.305
 4980TIP3    H214947   3.563   4.958   2.301
 4981TIP3   OH214948   3.739   1.041   4.049
 4981TIP3    H114949   3.740   0.946   4.064
 4981TIP3    H214950   3.654   1.069   4.082
 4982TIP3   OH214951   3.481   3.662   0.176
 4982TIP3    H114952   3.545   3.646   0.245
 4982TIP3    H214953   3.396   3.661   0.220
 4983TIP3   OH214954   0.891   1.815   0.238
 4983TIP3    H114955   0.946   1.739   0.255
 4983TIP3    H214956   0.953   1.888   0.228
 4984TIP3   OH214957   0.934   2.169   4.212
 4984TIP3    H114958   0.911   2.262   4.219
 4984TIP3    H214959   0.926   2.149   4.119
 4985TIP3   OH214960   4.726   4.407   2.295
 4985TIP3    H114961   4.647   4.374   2.339
 4985TIP3    H214962   4.771   4.458   2.362
 4986TIP3   OH214963   2.990   0.865   3.923
 4986TIP3    H114964   2.953   0.949   3.949
 4986TIP3    H214965   2.920   0.801   3.939
 4987TIP3   OH214966   1.648   4.204   4.573
 4987TIP3    H114967   1.713   4.253   4.522
 4987TIP3    H214968   1.609   4.143   4.510
 4988TIP3   OH214969   2.554   1.894   3.385
 4988TIP3    H114970   2.580   1.827   3.448
 4988TIP3    H214971   2.535   1.846   3.304
 4989TIP3   OH214972   6.099   3.999   1.451
 4989TIP3    H114973   6.112   3.914   1.409
 4989TIP3    H214974   6.057   4.053   1.383
 4990TIP3   OH214975   3.155   1.359   3.402
 4990TIP3    H114976   3.224   1.328   3.461
 4990TIP3    H214977   3.194   1.352   3.315
 4991TIP3   OH214978   2.779   1.805   4.224
 4991TIP3    H114979   2.716   1.756   4.277
 4991TIP3    H214980   2.855   1.814   4.281
 4992TIP3   OH214981   2.754   4.104   3.923
 4992TIP3    H114982   2.708   4.101   4.006
 4992TIP3    H214983   2.729   4.023   3.879
 4993TIP3   OH214984   4.332   1.028   1.234
 4993TIP3    H114985   4.349   1.122   1.240
 4993TIP3    H214986   4.391   0.989   1.299
 4994TIP3   OH214987   4.163   4.026   0.407
 4994TIP3    H114988   4.171   4.071   0.491
 4994TIP3    H214989   4.176   4.095   0.341
 4995TIP3   OH214990   2.203   4.751   1.169
 4995TIP3    H114991   2.293   4.732   1.196
 4995TIP3    H214992   2.190   4.843   1.189
 4996TIP3   OH214993   0.180   3.778   3.853
 4996TIP3    H114994   0.250   3.733   3.900
 4996TIP3    H214995   0.160   3.855   3.907
 4997TIP3   OH214996   0.583   1.596   5.085
 4997TIP3    H114997   0.679   1.602   5.089
 4997TIP3    H214998   0.566   1.502   5.077
 4998TIP3   OH214999   4.442   0.954   1.964
 4998TIP3    H115000   4.386   0.908   2.026
 4998TIP3    H215001   4.457   0.892   1.893
 4999TIP3   OH215002   1.713   5.018   1.864
 4999TIP3    H115003   1.730   5.098   1.814
 4999TIP3    H215004   1.716   4.948   1.799
 5000TIP3   OH215005   4.897   0.124   1.554
 5000TIP3    H115006   4.955   0.050   1.536
 5000TIP3    H215007   4.889   0.126   1.649
 5001TIP3   OH215008   3.726   5.620   1.218
 5001TIP3    H115009   3.707   5.701   1.170
 5001TIP3    H215010   3.815   5.633   1.251
 5002TIP3   OH215011   5.191   0.759   3.212
 5002TIP3    H115012   5.170   0.838   3.262
 5002TIP3    H215013   5.157   0.687   3.266
 5003TIP3   OH215014   4.048   5.348   2.352
 5003TIP3    H115015   4.038   5.443   2.352
 5003TIP3    H215016   4.002   5.320   2.432
 5004TIP3   OH215017   3.027   5.401   1.017
 5004TIP3    H115018   3.030   5.306   1.028
 5004TIP3    H215019   2.989   5.434   1.098
 5005TIP3   OH215020   5.892   3.229   1.725
 5005TIP3    H115021   5.963   3.258   1.668
 5005TIP3    H215022   5.828   3.191   1.666
 5006TIP3   OH215023   0.307   5.377   4.730
 5006TIP3    H115024   0.354   5.299   4.703
 5006TIP3    H215025   0.215   5.357   4.713
 5007TIP3   OH215026   5.501   5.137   0.267
 5007TIP3    H115027   5.559   5.092   0.206
 5007TIP3    H215028   5.487   5.224   0.228
 5008TIP3   OH215029   4.540   3.781   4.266
 5008TIP3    H115030   4.572   3.706   4.315
 5008TIP3    H215031   4.550   3.855   4.326
 5009TIP3   OH215032   1.049   5.665   0.098
 5009TIP3    H115033   1.101   5.716   0.160
 5009TIP3    H215034   1.074   5.574   0.115
 5010TIP3   OH215035   1.322   2.156   4.635
 5010TIP3    H115036   1.390   2.188   4.694
 5010TIP3    H215037   1.290   2.235   4.590
 5011TIP3   OH215038   4.307   1.726   4.040
 5011TIP3    H115039   4.264   1.662   4.096
 5011TIP3    H215040   4.399   1.722   4.066
 5012TIP3   OH215041   5.137   1.623   5.023
 5012TIP3    H115042   5.060   1.657   5.069
 5012TIP3    H215043   5.207   1.626   5.089
 5013TIP3   OH215044   2.850   4.599   3.834
 5013TIP3    H115045   2.844   4.623   3.926
 5013TIP3    H215046   2.944   4.590   3.817
 5014TIP3   OH215047   1.968   5.224   0.638
 5014TIP3    H115048   1.948   5.274   0.558
 5014TIP3    H215049   1.883   5.212   0.680
 5015TIP3   OH215050   5.123   4.394   0.612
 5015TIP3    H115051   5.058   4.381   0.544
 5015TIP3    H215052   5.175   4.313   0.613
 5016TIP3   OH215053   0.205   2.135   3.875
 5016TIP3    H115054   0.241   2.047   3.862
 5016TIP3    H215055   0.123   2.135   3.826
 5017TIP3   OH215056   5.491   2.000   0.923
 5017TIP3    H115057   5.433   2.077   0.920
 5017TIP3    H215058   5.500   1.974   0.831
 5018TIP3   OH215059   3.481   0.513   2.184
 5018TIP3    H115060   3.502   0.454   2.257
 5018TIP3    H215061   3.540   0.487   2.114
 5019TIP3   OH215062   4.400   2.457   0.848
 5019TIP3    H115063   4.381   2.494   0.934
 5019TIP3    H215064   4.386   2.363   0.859
 5020TIP3   OH215065   1.503   2.843   3.571
 5020TIP3    H115066   1.592   2.865   3.543
 5020TIP3    H215067   1.463   2.801   3.495
 5021TIP3   OH215068   1.413   3.941   1.616
 5021TIP3    H115069   1.366   3.946   1.532
 5021TIP3    H215070   1.346   3.920   1.680
 5022TIP3   OH215071   0.399   5.956   4.029
 5022TIP3    H115072   0.461   6.017   4.070
 5022TIP3    H215073   0.454   5.888   3.990
 5023TIP3   OH215074   1.847   2.968   3.078
 5023TIP3    H115075   1.829   2.880   3.044
 5023TIP3    H215076   1.813   3.027   3.011
 5024TIP3   OH215077   1.825   5.088   2.241
 5024TIP3    H115078   1.846   5.177   2.213
 5024TIP3    H215079   1.900   5.035   2.212
 5025TIP3   OH215080   1.355   0.716   0.682
 5025TIP3    H115081   1.352   0.797   0.632
 5025TIP3    H215082   1.285   0.662   0.645
 5026TIP3   OH215083   4.916   4.081   1.917
 5026TIP3    H115084   4.831   4.083   1.874
 5026TIP3    H215085   4.908   4.144   1.989
 5027TIP3   OH215086   1.692   4.470   2.657
 5027TIP3    H115087   1.776   4.471   2.703
 5027TIP3    H215088   1.674   4.377   2.643
 5028TIP3   OH215089   0.977   4.209   0.104
 5028TIP3    H115090   1.031   4.156   0.162
 5028TIP3    H215091   1.004   4.184   0.015
 5029TIP3   OH215092   5.777   3.886   3.876
 5029TIP3    H115093   5.861   3.886   3.923
 5029TIP3    H215094   5.793   3.830   3.800
 5030TIP3   OH215095   5.474   3.822   3.343
 5030TIP3    H115096   5.479   3.917   3.342
 5030TIP3    H215097   5.382   3.802   3.356
 5031TIP3   OH215098   1.548   3.180   0.821
 5031TIP3    H115099   1.462   3.214   0.797
 5031TIP3    H215100   1.531   3.123   0.896
 5032TIP3   OH215101   4.425   1.824   2.706
 5032TIP3    H115102   4.331   1.824   2.691
 5032TIP3    H215103   4.434   1.834   2.801
 5033TIP3   OH215104   5.258   2.115   4.017
 5033TIP3    H115105   5.330   2.171   3.986
 5033TIP3    H215106   5.269   2.033   3.969
 5034TIP3   OH215107   4.439   3.877   2.725
 5034TIP3    H115108   4.440   3.930   2.645
 5034TIP3    H215109   4.465   3.789   2.695
 5035TIP3   OH215110   6.087   5.580   2.224
 5035TIP3    H115111   6.124   5.568   2.312
 5035TIP3    H215112   6.145   5.645   2.183
 5036TIP3   OH215113   0.712   2.929   1.992
 5036TIP3    H115114   0.732   3.017   1.961
 5036TIP3    H215115   0.688   2.942   2.084
 5037TIP3   OH215116   1.428   2.015   3.462
 5037TIP3    H115117   1.342   2.011   3.504
 5037TIP3    H215118   1.424   1.946   3.395
 5038TIP3   OH215119   2.022   0.610   0.761
 5038TIP3    H115120   1.955   0.551   0.797
 5038TIP3    H215121   2.094   0.604   0.823
 5039TIP3   OH215122   1.126   4.612   1.487
 5039TIP3    H115123   1.202   4.567   1.524
 5039TIP3    H215124   1.103   4.560   1.410
 5040TIP3   OH215125   0.839   0.937   1.994
 5040TIP3    H115126   0.835   0.941   1.898
 5040TIP3    H215127   0.903   0.869   2.012
 5041TIP3   OH215128   4.772   4.623   3.558
 5041TIP3    H115129   4.730   4.678   3.492
 5041TIP3    H215130   4.741   4.535   3.540
 5042TIP3   OH215131   0.503   5.335   1.968
 5042TIP3    H115132   0.493   5.250   2.011
 5042TIP3    H215133   0.422   5.382   1.990
 5043TIP3   OH215134   2.362   5.832   0.785
 5043TIP3    H115135   2.417   5.761   0.751
 5043TIP3    H215136   2.398   5.911   0.745
 5044TIP3   OH215137   6.053   0.062   0.834
 5044TIP3    H115138   6.088   0.126   0.895
 5044TIP3    H215139   6.129   0.014   0.803
 5045TIP3   OH215140   0.025   5.503   4.455
 5045TIP3    H115141   0.074   5.580   4.484
 5045TIP3    H215142  -0.026   5.535   4.380
 5046TIP3   OH215143   0.210   4.344   0.921
 5046TIP3    H115144   0.181   4.418   0.975
 5046TIP3    H215145   0.306   4.350   0.923
 5047TIP3   OH215146   0.790   2.336   3.903
 5047TIP3    H115147   0.794   2.386   3.822
 5047TIP3    H215148   0.711   2.368   3.947
 5048TIP3   OH215149   5.045   3.960   4.519
 5048TIP3    H115150   5.128   3.929   4.554
 5048TIP3    H215151   5.069   4.020   4.449
 5049TIP3   OH215152   1.227   1.835   0.800
 5049TIP3    H115153   1.174   1.850   0.722
 5049TIP3    H215154   1.286   1.763   0.775
 5050TIP3   OH215155   5.954   5.226   1.962
 5050TIP3    H115156   5.924   5.244   1.873
 5050TIP3    H215157   6.041   5.266   1.966
 5051TIP3   OH215158   5.796   4.991   0.838
 5051TIP3    H115159   5.871   4.936   0.815
 5051TIP3    H215160   5.779   5.043   0.759
 5052TIP3   OH215161   0.264   3.275   3.507
 5052TIP3    H115162   0.249   3.333   3.433
 5052TIP3    H215163   0.177   3.260   3.544
 5053TIP3   OH215164   2.847   2.488   4.404
 5053TIP3    H115165   2.774   2.437   4.439
 5053TIP3    H215166   2.920   2.426   4.401
 5054TIP3   OH215167   2.598   5.166   2.623
 5054TIP3    H115168   2.654   5.244   2.626
 5054TIP3    H215169   2.660   5.093   2.611
 5055TIP3   OH215170   5.293   0.018   0.610
 5055TIP3    H115171   5.212   0.046   0.654
 5055TIP3    H215172   5.363   0.057   0.662
 5056TIP3   OH215173   5.663   4.249   2.653
 5056TIP3    H115174   5.615   4.276   2.575
 5056TIP3    H215175   5.595   4.241   2.721
 5057TIP3   OH215176   4.108   2.628   3.064
 5057TIP3    H115177   4.097   2.676   2.982
 5057TIP3    H215178   4.160   2.687   3.120
 5058TIP3   OH215179   1.845   3.002   4.712
 5058TIP3    H115180   1.789   2.943   4.661
 5058TIP3    H215181   1.887   2.944   4.776
 5059TIP3   OH215182   2.706   5.716   1.590
 5059TIP3    H115183   2.632   5.666   1.555
 5059TIP3    H215184   2.682   5.733   1.681
 5060TIP3   OH215185   0.261   0.045   4.299
 5060TIP3    H115186   0.322   0.073   4.368
 5060TIP3    H215187   0.233   0.126   4.258
 5061TIP3   OH215188   2.240   1.502   1.931
 5061TIP3    H115189   2.323   1.499   1.884
 5061TIP3    H215190   2.181   1.547   1.872
 5062TIP3   OH215191   1.852   6.004   1.054
 5062TIP3    H115192   1.764   5.974   1.031
 5062TIP3    H215193   1.897   6.010   0.970
 5063TIP3   OH215194   1.221   2.737   0.369
 5063TIP3    H115195   1.218   2.801   0.299
 5063TIP3    H215196   1.301   2.687   0.353
 5064TIP3   OH215197   2.463   4.526   0.340
 5064TIP3    H115198   2.440   4.600   0.395
 5064TIP3    H215199   2.530   4.479   0.390
 5065TIP3   OH215200   2.615   3.424   1.152
 5065TIP3    H115201   2.548   3.471   1.101
 5065TIP3    H215202   2.578   3.336   1.164
 5066TIP3   OH215203   5.596   0.370   2.754
 5066TIP3    H115204   5.568   0.449   2.798
 5066TIP3    H215205   5.604   0.305   2.824
 5067TIP3   OH215206   2.762   5.368   2.344
 5067TIP3    H115207   2.846   5.387   2.386
 5067TIP3    H215208   2.783   5.299   2.280
 5068TIP3   OH215209   1.894   4.437   4.171
 5068TIP3    H115210   1.984   4.468   4.184
 5068TIP3    H215211   1.903   4.359   4.116
 5069TIP3   OH215212   0.938   4.232   4.614
 5069TIP3    H115213   1.011   4.189   4.569
 5069TIP3    H215214   0.936   4.191   4.700
 5070TIP3   OH215215   4.685   2.818   4.647
 5070TIP3    H115216   4.710   2.791   4.559
 5070TIP3    H215217   4.746   2.888   4.669
 5071TIP3   OH215218   6.206   3.230   4.947
 5071TIP3    H115219   6.119   3.263   4.927
 5071TIP3    H215220   6.215   3.151   4.894
 5072TIP3   OH215221   1.488   5.387   1.607
 5072TIP3    H115222   1.490   5.471   1.653
 5072TIP3    H215223   1.409   5.344   1.639
 5073TIP3   OH215224   3.103   0.247   3.582
 5073TIP3    H115225   3.149   0.187   3.522
 5073TIP3    H215226   3.058   0.309   3.524
 5074TIP3   OH215227   2.883   2.415   0.475
 5074TIP3    H115228   2.949   2.356   0.512
 5074TIP3    H215229   2.799   2.376   0.500
 5075TIP3   OH215230   3.540   3.922   0.615
 5075TIP3    H115231   3.479   3.961   0.677
 5075TIP3    H215232   3.508   3.833   0.601
 5076TIP3   OH215233   2.921   4.646   0.365
 5076TIP3    H115234   2.997   4.589   0.361
 5076TIP3    H215235   2.846   4.586   0.371
 5077TIP3   OH215236   1.077   3.950   0.143
 5077TIP3    H115237   1.002   3.896   0.119
 5077TIP3    H215238   1.153   3.902   0.109
 5078TIP3   OH215239   3.827   4.324   2.478
 5078TIP3    H115240   3.803   4.340   2.569
 5078TIP3    H215241   3.776   4.388   2.428
 5079TIP3   OH215242   2.693   1.122   2.750
 5079TIP3    H115243   2.697   1.148   2.843
 5079TIP3    H215244   2.623   1.176   2.713
 5080TIP3   OH215245   5.702   5.714   1.969
 5080TIP3    H115246   5.743   5.632   1.942
 5080TIP3    H215247   5.745   5.781   1.916
 5081TIP3   OH215248   0.629   1.765   1.907
 5081TIP3    H115249   0.535   1.748   1.903
 5081TIP3    H215250   0.666   1.716   1.834
 5082TIP3   OH215251   2.673   0.361   3.140
 5082TIP3    H115252   2.679   0.456   3.133
 5082TIP3    H215253   2.758   0.328   3.110
 5083TIP3   OH215254   3.573   0.114   4.406
 5083TIP3    H115255   3.627   0.052   4.356
 5083TIP3    H215256   3.552   0.183   4.343
 5084TIP3   OH215257   4.365   5.749   1.465
 5084TIP3    H115258   4.318   5.716   1.389
 5084TIP3    H215259   4.357   5.844   1.459
 5085TIP3   OH215260   2.741   4.819   4.557
 5085TIP3    H115261   2.723   4.740   4.506
 5085TIP3    H215262   2.697   4.803   4.641
 5086TIP3   OH215263   1.951   1.657   3.239
 5086TIP3    H115264   1.903   1.585   3.197
 5086TIP3    H215265   1.962   1.628   3.329
 5087TIP3   OH215266   1.959   0.312   0.246
 5087TIP3    H115267   1.887   0.258   0.213
 5087TIP3    H215268   1.956   0.300   0.341
 5088TIP3   OH215269   5.265   1.404   1.174
 5088TIP3    H115270   5.221   1.470   1.227
 5088TIP3    H215271   5.285   1.333   1.235
 5089TIP3   OH215272   2.432   3.227   4.515
 5089TIP3    H115273   2.507   3.175   4.486
 5089TIP3    H215274   2.407   3.279   4.439
 5090TIP3   OH215275   5.406   2.771   3.256
 5090TIP3    H115276   5.317   2.785   3.221
 5090TIP3    H215277   5.397   2.782   3.350
 5091TIP3   OH215278   1.991   4.202   1.691
 5091TIP3    H115279   1.908   4.166   1.724
 5091TIP3    H215280   2.037   4.126   1.656
 5092TIP3   OH215281   2.050   1.277   5.050
 5092TIP3    H115282   2.134   1.312   5.080
 5092TIP3    H215283   2.070   1.230   4.969
 5093TIP3   OH215284   4.143   3.493   1.717
 5093TIP3    H115285   4.149   3.411   1.765
 5093TIP3    H215286   4.191   3.477   1.635
 5094TIP3   OH215287   3.244   5.126   2.771
 5094TIP3    H115288   3.160   5.083   2.758
 5094TIP3    H215289   3.306   5.055   2.783
 5095TIP3   OH215290   3.827   5.037   4.918
 5095TIP3    H115291   3.868   5.035   4.832
 5095TIP3    H215292   3.848   5.124   4.953
 5096TIP3   OH215293   3.079   5.631   3.789
 5096TIP3    H115294   3.121   5.677   3.862
 5096TIP3    H215295   3.039   5.701   3.737
 5097TIP3   OH215296   0.156   2.774   1.012
 5097TIP3    H115297   0.242   2.754   1.049
 5097TIP3    H215298   0.175   2.818   0.929
 5098TIP3   OH215299   0.044   1.644   0.567
 5098TIP3    H115300   0.059   1.600   0.483
 5098TIP3    H215301   0.083   1.731   0.556
 5099TIP3   OH215302   5.087   5.785   3.018
 5099TIP3    H115303   5.128   5.705   2.984
 5099TIP3    H215304   5.139   5.856   2.981
 5100TIP3   OH215305   0.520   3.804   5.088
 5100TIP3    H115306   0.481   3.732   5.138
 5100TIP3    H215307   0.614   3.784   5.085
 5101TIP3   OH215308   4.377   2.047   3.736
 5101TIP3    H115309   4.442   1.985   3.767
 5101TIP3    H215310   4.426   2.128   3.720
 5102TIP3   OH215311   5.238   3.898   0.990
 5102TIP3    H115312   5.234   3.822   1.048
 5102TIP3    H215313   5.307   3.953   1.027
 5103TIP3   OH215314   0.526   5.991   0.716
 5103TIP3    H115315   0.524   5.908   0.763
 5103TIP3    H215316   0.444   6.034   0.740
 5104TIP3   OH215317   3.162   3.007   2.182
 5104TIP3    H115318   3.113   2.938   2.137
 5104TIP3    H215319   3.170   2.975   2.272
 5105TIP3   OH215320   2.034   2.754   0.120
 5105TIP3    H115321   2.111   2.751   0.064
 5105TIP3    H215322   1.963   2.721   0.064
 5106TIP3   OH215323   3.305   5.251   2.494
 5106TIP3    H115324   3.317   5.330   2.546
 5106TIP3    H215325   3.357   5.184   2.540
 5107TIP3   OH215326   0.225   1.907   2.293
 5107TIP3    H115327   0.234   1.831   2.236
 5107TIP3    H215328   0.148   1.953   2.259
 5108TIP3   OH215329   1.166   2.769   2.089
 5108TIP3    H115330   1.233   2.706   2.062
 5108TIP3    H215331   1.184   2.847   2.036
 5109TIP3   OH215332   3.960   0.833   3.327
 5109TIP3    H115333   4.033   0.799   3.275
 5109TIP3    H215334   3.905   0.756   3.344
 5110TIP3   OH215335   6.089   2.873   1.810
 5110TIP3    H115336   6.101   2.941   1.744
 5110TIP3    H215337   6.150   2.804   1.785
 5111TIP3   OH215338   3.662   3.161   1.414
 5111TIP3    H115339   3.680   3.109   1.493
 5111TIP3    H215340   3.575   3.197   1.429
 5112TIP3   OH215341   0.811   0.751   4.378
 5112TIP3    H115342   0.737   0.809   4.394
 5112TIP3    H215343   0.887   0.798   4.414
 5113TIP3   OH215344   3.856   2.459   0.146
 5113TIP3    H115345   3.789   2.527   0.141
 5113TIP3    H215346   3.838   2.413   0.228
 5114TIP3   OH215347   2.356   1.272   3.066
 5114TIP3    H115348   2.381   1.204   3.129
 5114TIP3    H215349   2.324   1.224   2.990
 5115TIP3   OH215350   5.108   3.834   0.053
 5115TIP3    H115351   5.044   3.763   0.044
 5115TIP3    H215352   5.171   3.801   0.118
 5116TIP3   OH215353   2.955   2.120   3.404
 5116TIP3    H115354   2.955   2.026   3.423
 5116TIP3    H215355   2.864   2.140   3.382
 5117TIP3   OH215356   5.926   3.107   5.141
 5117TIP3    H115357   5.838   3.085   5.174
 5117TIP3    H215358   5.914   3.114   5.046
 5118TIP3   OH215359   0.758   1.294   0.142
 5118TIP3    H115360   0.720   1.344   0.215
 5118TIP3    H215361   0.841   1.261   0.176
 5119TIP3   OH215362   3.300   5.114   1.565
 5119TIP3    H115363   3.377   5.097   1.512
 5119TIP3    H215364   3.231   5.134   1.502
 5120TIP3   OH215365   0.973   2.197   1.481
 5120TIP3    H115366   1.036   2.245   1.535
 5120TIP3    H215367   0.967   2.247   1.400
 5121TIP3   OH215368   5.141   3.596   2.543
 5121TIP3    H115369   5.107   3.507   2.547
 5121TIP3    H215370   5.095   3.636   2.468
 5122TIP3   OH215371   3.881   4.157   1.560
 5122TIP3    H115372   3.952   4.163   1.624
 5122TIP3    H215373   3.841   4.072   1.576
 5123TIP3   OH215374   3.986   3.727   3.327
 5123TIP3    H115375   3.913   3.789   3.332
 5123TIP3    H215376   3.944   3.642   3.313
 5124TIP3   OH215377   1.126   1.453   0.586
 5124TIP3    H115378   1.207   1.483   0.627
 5124TIP3    H215379   1.134   1.358   0.582
 5125TIP3   OH215380   2.901   2.184   5.171
 5125TIP3    H115381   2.983   2.174   5.219
 5125TIP3    H215382   2.913   2.262   5.118
 5126TIP3   OH215383   1.311   0.158   0.824
 5126TIP3    H115384   1.358   0.217   0.883
 5126TIP3    H215385   1.377   0.129   0.761
 5127TIP3   OH215386   1.306   0.796   0.025
 5127TIP3    H115387   1.275   0.743  -0.049
 5127TIP3    H215388   1.397   0.768   0.037
 5128TIP3   OH215389   2.641   4.223   2.199
 5128TIP3    H115390   2.660   4.153   2.136
 5128TIP3    H215391   2.550   4.248   2.179
 5129TIP3   OH215392   1.286   0.141   0.235
 5129TIP3    H115393   1.352   0.072   0.232
 5129TIP3    H215394   1.314   0.199   0.306
 5130TIP3   OH215395   6.040   2.808   3.195
 5130TIP3    H115396   5.999   2.855   3.268
 5130TIP3    H215397   5.977   2.816   3.123
 5131TIP3   OH215398   3.367   2.601   2.765
 5131TIP3    H115399   3.455   2.637   2.750
 5131TIP3    H215400   3.383   2.509   2.786
 5132TIP3   OH215401   4.878   1.571   2.264
 5132TIP3    H115402   4.871   1.526   2.180
 5132TIP3    H215403   4.907   1.659   2.242
 5133TIP3   OH215404   6.229   5.406   0.634
 5133TIP3    H115405   6.200   5.355   0.710
 5133TIP3    H215406   6.171   5.378   0.563
 5134TIP3   OH215407   2.464   5.182   4.415
 5134TIP3    H115408   2.526   5.110   4.406
 5134TIP3    H215409   2.408   5.157   4.488
 5135TIP3   OH215410   2.657   4.418   3.927
 5135TIP3    H115411   2.732   4.465   3.891
 5135TIP3    H215412   2.696   4.348   3.980
 5136TIP3   OH215413   2.022   1.507   0.454
 5136TIP3    H115414   2.015   1.424   0.501
 5136TIP3    H215415   2.066   1.566   0.515
 5137TIP3   OH215416   0.820   2.825   2.452
 5137TIP3    H115417   0.881   2.894   2.479
 5137TIP3    H215418   0.843   2.807   2.361
 5138TIP3   OH215419   5.605   4.575   2.780
 5138TIP3    H115420   5.598   4.544   2.870
 5138TIP3    H215421   5.656   4.507   2.735
 5139TIP3   OH215422   1.793   3.621   2.605
 5139TIP3    H115423   1.815   3.542   2.555
 5139TIP3    H215424   1.847   3.689   2.565
 5140TIP3   OH215425   4.238   2.297   3.788
 5140TIP3    H115426   4.238   2.201   3.781
 5140TIP3    H215427   4.208   2.327   3.703
 5141TIP3   OH215428   0.977   5.943   0.402
 5141TIP3    H115429   0.922   6.013   0.436
 5141TIP3    H215430   0.918   5.867   0.396
 5142TIP3   OH215431   0.971   2.305   0.416
 5142TIP3    H115432   0.902   2.248   0.452
 5142TIP3    H215433   0.998   2.262   0.335
 5143TIP3   OH215434   1.868   0.989   0.739
 5143TIP3    H115435   1.935   0.976   0.672
 5143TIP3    H215436   1.808   0.915   0.727
 5144TIP3   OH215437   5.495   5.080   4.927
 5144TIP3    H115438   5.508   4.986   4.913
 5144TIP3    H215439   5.513   5.120   4.842
 5145TIP3   OH215440   0.601   3.055   1.194
 5145TIP3    H115441   0.657   3.112   1.142
 5145TIP3    H215442   0.574   3.109   1.268
 5146TIP3   OH215443   3.563   5.086   3.487
 5146TIP3    H115444   3.502   5.015   3.466
 5146TIP3    H215445   3.560   5.144   3.411
 5147TIP3   OH215446   4.757   4.046   4.610
 5147TIP3    H115447   4.678   4.101   4.616
 5147TIP3    H215448   4.738   3.971   4.666
 5148TIP3   OH215449   5.829   5.903   1.570
 5148TIP3    H115450   5.877   5.984   1.549
 5148TIP3    H215451   5.737   5.925   1.554
 5149TIP3   OH215452   0.453   3.418   2.949
 5149TIP3    H115453   0.394   3.416   2.873
 5149TIP3    H215454   0.481   3.509   2.955
 5150TIP3   OH215455   5.989   1.940   4.629
 5150TIP3    H115456   6.027   1.881   4.693
 5150TIP3    H215457   5.894   1.931   4.641
 5151TIP3   OH215458   5.216   2.708   4.414
 5151TIP3    H115459   5.305   2.730   4.439
 5151TIP3    H215460   5.184   2.652   4.484
 5152TIP3   OH215461   1.935   4.505   3.857
 5152TIP3    H115462   2.028   4.515   3.878
 5152TIP3    H215463   1.889   4.534   3.936
 5153TIP3   OH215464   4.391   4.187   4.299
 5153TIP3    H115465   4.465   4.141   4.338
 5153TIP3    H215466   4.320   4.123   4.297
 5154TIP3   OH215467   0.843   3.435   1.333
 5154TIP3    H115468   0.884   3.377   1.397
 5154TIP3    H215469   0.866   3.398   1.248
 5155TIP3   OH215470   2.340   5.005   1.650
 5155TIP3    H115471   2.354   5.078   1.711
 5155TIP3    H215472   2.253   5.020   1.615
 5156TIP3   OH215473   3.044   2.753   2.030
 5156TIP3    H115474   3.053   2.796   1.945
 5156TIP3    H215475   3.134   2.732   2.056
 5157TIP3   OH215476   3.038   1.418   0.650
 5157TIP3    H115477   2.990   1.342   0.619
 5157TIP3    H215478   3.046   1.405   0.745
 5158TIP3   OH215479   3.736   4.865   0.569
 5158TIP3    H115480   3.829   4.843   0.560
 5158TIP3    H215481   3.732   4.922   0.645
 5159TIP3   OH215482   5.772   0.579   1.093
 5159TIP3    H115483   5.711   0.652   1.092
 5159TIP3    H215484   5.856   0.619   1.117
 5160TIP3   OH215485   1.342   0.505   4.920
 5160TIP3    H115486   1.329   0.585   4.869
 5160TIP3    H215487   1.277   0.444   4.886
 5161TIP3   OH215488   5.292   1.926   1.708
 5161TIP3    H115489   5.323   1.905   1.796
 5161TIP3    H215490   5.212   1.976   1.721
 5162TIP3   OH215491   2.064   5.641   4.059
 5162TIP3    H115492   2.029   5.725   4.028
 5162TIP3    H215493   2.149   5.634   4.015
 5163TIP3   OH215494   3.168   1.371   3.007
 5163TIP3    H115495   3.212   1.294   3.042
 5163TIP3    H215496   3.194   1.442   3.066
 5164TIP3   OH215497   1.505   4.911   4.408
 5164TIP3    H115498   1.553   4.975   4.355
 5164TIP3    H215499   1.413   4.926   4.386
 5165TIP3   OH215500   1.564   0.674   4.618
 5165TIP3    H115501   1.592   0.734   4.687
 5165TIP3    H215502   1.576   0.724   4.537
 5166TIP3   OH215503   3.060   2.277   4.471
 5166TIP3    H115504   3.154   2.264   4.482
 5166TIP3    H215505   3.032   2.204   4.417
 5167TIP3   OH215506   0.832   5.445   2.916
 5167TIP3    H115507   0.921   5.460   2.884
 5167TIP3    H215508   0.811   5.356   2.889
 5168TIP3   OH215509   5.266   0.057   1.090
 5168TIP3    H115510   5.227  -0.026   1.062
 5168TIP3    H215511   5.261   0.055   1.185
 5169TIP3   OH215512   1.527   3.996   0.124
 5169TIP3    H115513   1.622   4.004   0.131
 5169TIP3    H215514   1.513   3.949   0.041
 5170TIP3   OH215515   0.113   4.284   1.870
 5170TIP3    H115516   0.156   4.228   1.806
 5170TIP3    H215517   0.049   4.227   1.912
 5171TIP3   OH215518   0.842   0.196   0.877
 5171TIP3    H115519   0.847   0.287   0.850
 5171TIP3    H215520   0.776   0.157   0.819
 5172TIP3   OH215521   6.130   2.843   1.270
 5172TIP3    H115522   6.186   2.863   1.195
 5172TIP3    H215523   6.186   2.791   1.328
 5173TIP3   OH215524   2.478   1.547   4.143
 5173TIP3    H115525   2.474   1.492   4.065
 5173TIP3    H215526   2.439   1.493   4.212
 5174TIP3   OH215527   1.597   4.462   4.684
 5174TIP3    H115528   1.536   4.428   4.750
 5174TIP3    H215529   1.628   4.384   4.637
 5175TIP3   OH215530   1.009   2.262   2.819
 5175TIP3    H115531   0.915   2.250   2.802
 5175TIP3    H215532   1.052   2.229   2.740
 5176TIP3   OH215533   5.344   0.277   3.821
 5176TIP3    H115534   5.372   0.199   3.869
 5176TIP3    H215535   5.249   0.267   3.813
 5177TIP3   OH215536   0.305   3.978   0.498
 5177TIP3    H115537   0.359   4.027   0.561
 5177TIP3    H215538   0.243   4.043   0.465
 5178TIP3   OH215539   5.661   2.256   2.032
 5178TIP3    H115540   5.675   2.162   2.047
 5178TIP3    H215541   5.573   2.261   1.993
 5179TIP3   OH215542   2.907   0.106   1.274
 5179TIP3    H115543   2.856   0.078   1.198
 5179TIP3    H215544   2.924   0.025   1.323
 5180TIP3   OH215545   2.393   5.892   4.111
 5180TIP3    H115546   2.313   5.933   4.144
 5180TIP3    H215547   2.414   5.824   4.175
 5181TIP3   OH215548   4.393   1.253   1.907
 5181TIP3    H115549   4.418   1.163   1.930
 5181TIP3    H215550   4.309   1.243   1.861
 5182TIP3   OH215551   5.591   1.929   1.360
 5182TIP3    H115552   5.628   1.890   1.439
 5182TIP3    H215553   5.665   1.934   1.299
 5183TIP3   OH215554   6.087   1.390   1.912
 5183TIP3    H115555   6.047   1.423   1.832
 5183TIP3    H215556   6.015   1.384   1.975
 5184TIP3   OH215557   2.403   2.011   0.048
 5184TIP3    H115558   2.428   2.017  -0.044
 5184TIP3    H215559   2.394   2.101   0.077
 5185TIP3   OH215560   5.820   3.589   2.114
 5185TIP3    H115561   5.863   3.535   2.047
 5185TIP3    H215562   5.806   3.673   2.071
 5186TIP3   OH215563   3.546   3.263   3.861
 5186TIP3    H115564   3.563   3.185   3.914
 5186TIP3    H215565   3.604   3.254   3.786
 5187TIP3   OH215566   3.509   3.497   4.920
 5187TIP3    H115567   3.499   3.424   4.980
 5187TIP3    H215568   3.599   3.527   4.931
 5188TIP3   OH215569   1.605   5.390   4.838
 5188TIP3    H115570   1.583   5.360   4.926
 5188TIP3    H215571   1.700   5.386   4.833
 5189TIP3   OH215572   2.973   3.454   3.883
 5189TIP3    H115573   3.051   3.433   3.832
 5189TIP3    H215574   2.956   3.546   3.865
 5190TIP3   OH215575   2.701   0.983   0.560
 5190TIP3    H115576   2.685   0.893   0.587
 5190TIP3    H215577   2.624   1.007   0.508
 5191TIP3   OH215578   0.075   3.680   4.320
 5191TIP3    H115579   0.057   3.652   4.410
 5191TIP3    H215580   0.136   3.753   4.329
 5192TIP3   OH215581   1.708   1.184   0.972
 5192TIP3    H115582   1.703   1.184   0.876
 5192TIP3    H215583   1.619   1.168   1.001
 5193TIP3   OH215584   6.085   2.696   5.146
 5193TIP3    H115585   6.088   2.788   5.173
 5193TIP3    H215586   6.030   2.696   5.068
 5194TIP3   OH215587   4.358   0.072   0.995
 5194TIP3    H115588   4.292   0.118   0.943
 5194TIP3    H215589   4.417   0.033   0.930
 5195TIP3   OH215590   5.773   3.114   0.062
 5195TIP3    H115591   5.842   3.082   0.003
 5195TIP3    H215592   5.704   3.049   0.056
 5196TIP3   OH215593   2.602   1.478  -0.016
 5196TIP3    H115594   2.602   1.521   0.069
 5196TIP3    H215595   2.510   1.456  -0.033
 5197TIP3   OH215596   5.260   3.598   3.694
 5197TIP3    H115597   5.185   3.657   3.694
 5197TIP3    H215598   5.284   3.590   3.601
 5198TIP3   OH215599   4.117   3.109   5.189
 5198TIP3    H115600   4.191   3.122   5.248
 5198TIP3    H215601   4.100   3.196   5.153
 5199TIP3   OH215602   4.330   3.807   0.378
 5199TIP3    H115603   4.298   3.732   0.328
 5199TIP3    H215604   4.257   3.869   0.377
 5200TIP3   OH215605   3.616   3.428   2.208
 5200TIP3    H115606   3.679   3.483   2.255
 5200TIP3    H215607   3.538   3.482   2.200
 5201TIP3   OH215608   0.252   5.468   2.111
 5201TIP3    H115609   0.228   5.505   2.196
 5201TIP3    H215610   0.208   5.524   2.047
 5202TIP3   OH215611   3.735   4.107   0.679
 5202TIP3    H115612   3.674   4.057   0.624
 5202TIP3    H215613   3.714   4.082   0.768
 5203TIP3   OH215614   3.171   1.947   5.177
 5203TIP3    H115615   3.161   1.883   5.106
 5203TIP3    H215616   3.231   1.906   5.238
 5204TIP3   OH215617   3.903   1.250   4.954
 5204TIP3    H115618   3.931   1.311   5.023
 5204TIP3    H215619   3.888   1.167   4.999
 5205TIP3   OH215620   3.305   2.761   2.078
 5205TIP3    H115621   3.356   2.819   2.135
 5205TIP3    H215622   3.363   2.740   2.005
 5206TIP3   OH215623   3.842   5.412   4.582
 5206TIP3    H115624   3.787   5.334   4.583
 5206TIP3    H215625   3.915   5.389   4.524
 5207TIP3   OH215626   6.195   5.463   4.855
 5207TIP3    H115627   6.192   5.433   4.946
 5207TIP3    H215628   6.287   5.454   4.830
 5208TIP3   OH215629   0.473   3.131   4.672
 5208TIP3    H115630   0.548   3.128   4.612
 5208TIP3    H215631   0.509   3.111   4.758
 5209TIP3   OH215632   1.159   1.388   0.878
 5209TIP3    H115633   1.094   1.344   0.932
 5209TIP3    H215634   1.139   1.481   0.889
 5210TIP3   OH215635   2.929   4.926   4.032
 5210TIP3    H115636   2.858   4.919   4.096
 5210TIP3    H215637   2.942   4.836   4.000
 5211TIP3   OH215638   6.163   5.890   4.530
 5211TIP3    H115639   6.096   5.831   4.564
 5211TIP3    H215640   6.164   5.963   4.592
 5212TIP3   OH215641   0.034   5.575   0.455
 5212TIP3    H115642  -0.001   5.512   0.518
 5212TIP3    H215643  -0.041   5.626   0.427
 5213TIP3   OH215644   3.743   3.758   4.000
 5213TIP3    H115645   3.838   3.761   4.007
 5213TIP3    H215646   3.724   3.668   3.974
 5214TIP3   OH215647   4.769   0.140   1.824
 5214TIP3    H115648   4.689   0.136   1.877
 5214TIP3    H215649   4.774   0.231   1.795
 5215TIP3   OH215650   6.025   3.959   5.006
 5215TIP3    H115651   5.966   3.914   5.066
 5215TIP3    H215652   5.971   3.979   4.930
 5216TIP3   OH215653   3.061   2.448   3.233
 5216TIP3    H115654   3.092   2.503   3.161
 5216TIP3    H215655   3.119   2.468   3.306
 5217TIP3   OH215656   3.960   4.105   4.537
 5217TIP3    H115657   4.012   4.033   4.503
 5217TIP3    H215658   3.887   4.113   4.476
 5218TIP3   OH215659   5.970   1.107   1.565
 5218TIP3    H115660   5.953   1.045   1.636
 5218TIP3    H215661   5.912   1.181   1.584
 5219TIP3   OH215662   1.106   0.090   0.020
 5219TIP3    H115663   1.105   0.001  -0.015
 5219TIP3    H215664   1.157   0.083   0.101
 5220TIP3   OH215665   5.452   3.774   0.533
 5220TIP3    H115666   5.459   3.845   0.596
 5220TIP3    H215667   5.385   3.716   0.569
 5221TIP3   OH215668   1.191   5.244   3.217
 5221TIP3    H115669   1.225   5.243   3.128
 5221TIP3    H215670   1.224   5.163   3.257
 5222TIP3   OH215671   1.062   4.618   0.419
 5222TIP3    H115672   1.061   4.607   0.324
 5222TIP3    H215673   1.101   4.537   0.452
 5223TIP3   OH215674   3.713   1.234   0.521
 5223TIP3    H115675   3.749   1.257   0.435
 5223TIP3    H215676   3.789   1.229   0.579
 5224TIP3   OH215677   5.889   1.070   4.984
 5224TIP3    H115678   5.874   0.997   5.044
 5224TIP3    H215679   5.814   1.128   4.998
 5225TIP3   OH215680   5.562   5.400   4.810
 5225TIP3    H115681   5.634   5.400   4.747
 5225TIP3    H215682   5.491   5.354   4.765
 5226TIP3   OH215683   5.239   5.590   3.307
 5226TIP3    H115684   5.204   5.518   3.361
 5226TIP3    H215685   5.166   5.653   3.302
 5227TIP3   OH215686   6.193   0.306   0.915
 5227TIP3    H115687   6.257   0.377   0.922
 5227TIP3    H215688   6.164   0.291   1.005
 5228TIP3   OH215689   5.195   4.393   4.392
 5228TIP3    H115690   5.129   4.446   4.347
 5228TIP3    H215691   5.278   4.423   4.355
 5229TIP3   OH215692   0.968   1.035   3.366
 5229TIP3    H115693   0.998   1.045   3.457
 5229TIP3    H215694   0.994   1.116   3.323
 5230TIP3   OH215695   3.228   3.480   1.068
 5230TIP3    H115696   3.177   3.545   1.117
 5230TIP3    H215697   3.265   3.423   1.135
 5231TIP3   OH215698   2.958   2.877   1.215
 5231TIP3    H115699   2.929   2.786   1.205
 5231TIP3    H215700   2.968   2.909   1.126
 5232TIP3   OH215701   0.379   0.602   2.600
 5232TIP3    H115702   0.406   0.675   2.655
 5232TIP3    H215703   0.428   0.527   2.633
 5233TIP3   OH215704   0.581   1.466   3.870
 5233TIP3    H115705   0.536   1.400   3.922
 5233TIP3    H215706   0.663   1.425   3.844
 5234TIP3   OH215707   1.131   3.491   3.317
 5234TIP3    H115708   1.150   3.523   3.405
 5234TIP3    H215709   1.214   3.501   3.270
 5235TIP3   OH215710   2.672   5.009   0.264
 5235TIP3    H115711   2.699   4.942   0.202
 5235TIP3    H215712   2.746   5.019   0.323
 5236TIP3   OH215713   3.283   2.694   1.556
 5236TIP3    H115714   3.316   2.608   1.582
 5236TIP3    H215715   3.188   2.684   1.556
 5237TIP3   OH215716   2.471   5.480   5.083
 5237TIP3    H115717   2.501   5.570   5.076
 5237TIP3    H215718   2.465   5.450   4.992
 5238TIP3   OH215719   4.902   4.810   0.992
 5238TIP3    H115720   4.841   4.738   0.977
 5238TIP3    H215721   4.854   4.888   0.965
 5239TIP3   OH215722   3.451   0.272   0.322
 5239TIP3    H115723   3.518   0.205   0.330
 5239TIP3    H215724   3.484   0.331   0.254
 5240TIP3   OH215725   5.585   0.653   3.335
 5240TIP3    H115726   5.559   0.577   3.282
 5240TIP3    H215727   5.667   0.683   3.296
 5241TIP3   OH215728   3.127   4.699   2.518
 5241TIP3    H115729   3.182   4.661   2.449
 5241TIP3    H215730   3.056   4.635   2.530
 5242TIP3   OH215731   2.179   5.037   3.249
 5242TIP3    H115732   2.249   5.080   3.297
 5242TIP3    H215733   2.154   4.962   3.304
 5243TIP3   OH215734   2.911   4.196   2.652
 5243TIP3    H115735   2.965   4.269   2.682
 5243TIP3    H215736   2.890   4.218   2.561
 5244TIP3   OH215737   2.270   3.609   2.331
 5244TIP3    H115738   2.339   3.675   2.327
 5244TIP3    H215739   2.258   3.582   2.240
 5245TIP3   OH215740   1.175   4.878   0.318
 5245TIP3    H115741   1.179   4.803   0.377
 5245TIP3    H215742   1.213   4.950   0.368
 5246TIP3   OH215743   0.684   4.525   1.603
 5246TIP3    H115744   0.734   4.556   1.528
 5246TIP3    H215745   0.679   4.600   1.662
 5247TIP3   OH215746   1.067   4.004   2.002
 5247TIP3    H115747   1.084   3.970   2.090
 5247TIP3    H215748   1.135   4.070   1.989
 5248TIP3   OH215749   0.122   1.114   3.673
 5248TIP3    H115750   0.087   1.192   3.628
 5248TIP3    H215751   0.076   1.114   3.758
 5249TIP3   OH215752   4.715   4.745   0.031
 5249TIP3    H115753   4.756   4.832   0.029
 5249TIP3    H215754   4.621   4.763   0.034
 5250TIP3   OH215755   0.689   0.048   3.883
 5250TIP3    H115756   0.690   0.095   3.967
 5250TIP3    H215757   0.761   0.085   3.833
 5251TIP3   OH215758   0.620   4.304   1.271
 5251TIP3    H115759   0.695   4.351   1.233
 5251TIP3    H215760   0.647   4.285   1.360
 5252TIP3   OH215761   1.405   4.510   0.500
 5252TIP3    H115762   1.365   4.534   0.416
 5252TIP3    H215763   1.499   4.509   0.483
 5253TIP3   OH215764   2.579   3.004   4.672
 5253TIP3    H115765   2.554   2.969   4.758
 5253TIP3    H215766   2.568   3.099   4.680
 5254TIP3   OH215767   3.299   1.444   0.906
 5254TIP3    H115768   3.356   1.497   0.961
 5254TIP3    H215769   3.340   1.446   0.819
 5255TIP3   OH215770   6.132   2.684   3.560
 5255TIP3    H115771   6.085   2.626   3.500
 5255TIP3    H215772   6.076   2.762   3.567
 5256TIP3   OH215773   2.439   4.195   0.180
 5256TIP3    H115774   2.476   4.168   0.264
 5256TIP3    H215775   2.377   4.265   0.202
 5257TIP3   OH215776   3.670   5.383   1.955
 5257TIP3    H115777   3.647   5.432   1.876
 5257TIP3    H215778   3.601   5.405   2.018
 5258TIP3   OH215779   1.758   5.541   3.297
 5258TIP3    H115780   1.689   5.558   3.233
 5258TIP3    H215781   1.774   5.626   3.338
 5259TIP3   OH215782   2.039   0.108   0.820
 5259TIP3    H115783   1.975   0.155   0.874
 5259TIP3    H215784   2.076   0.176   0.763
 5260TIP3   OH215785   0.303   3.721   2.071
 5260TIP3    H115786   0.353   3.763   2.000
 5260TIP3    H215787   0.296   3.789   2.138
 5261TIP3   OH215788   3.905   2.501   4.658
 5261TIP3    H115789   3.884   2.563   4.728
 5261TIP3    H215790   3.975   2.447   4.695
 5262TIP3   OH215791   0.007   0.856   3.995
 5262TIP3    H115792  -0.087   0.856   4.017
 5262TIP3    H215793   0.032   0.948   4.001
 5263TIP3   OH215794   4.461   1.652   2.082
 5263TIP3    H115795   4.523   1.703   2.133
 5263TIP3    H215796   4.465   1.564   2.120
 5264TIP3   OH215797   3.086   4.053   3.264
 5264TIP3    H115798   3.168   4.025   3.223
 5264TIP3    H215799   3.059   4.129   3.213
 5265TIP3   OH215800   1.297   4.695   3.970
 5265TIP3    H115801   1.383   4.700   4.013
 5265TIP3    H215802   1.316   4.672   3.880
 5266TIP3   OH215803   0.689   2.337   4.537
 5266TIP3    H115804   0.670   2.322   4.444
 5266TIP3    H215805   0.692   2.249   4.575
 5267TIP3   OH215806   5.549   1.677   0.784
 5267TIP3    H115807   5.634   1.637   0.799
 5267TIP3    H215808   5.502   1.668   0.867
 5268TIP3   OH215809   0.864   2.372   5.049
 5268TIP3    H115810   0.901   2.284   5.048
 5268TIP3    H215811   0.940   2.430   5.055
 5269TIP3   OH215812   3.485   5.773   0.778
 5269TIP3    H115813   3.470   5.706   0.712
 5269TIP3    H215814   3.574   5.805   0.761
 5270TIP3   OH215815   1.075   1.906   0.562
 5270TIP3    H115816   0.985   1.939   0.555
 5270TIP3    H215817   1.075   1.826   0.510
 5271TIP3   OH215818   2.169   0.818   3.591
 5271TIP3    H115819   2.095   0.839   3.648
 5271TIP3    H215820   2.165   0.723   3.582
 5272TIP3   OH215821   3.885   1.762   1.791
 5272TIP3    H115822   3.862   1.726   1.876
 5272TIP3    H215823   3.832   1.842   1.784
 5273TIP3   OH215824   0.860   1.594   4.508
 5273TIP3    H115825   0.914   1.673   4.510
 5273TIP3    H215826   0.848   1.571   4.600
 5274TIP3   OH215827   2.276   0.751   2.378
 5274TIP3    H115828   2.211   0.753   2.448
 5274TIP3    H215829   2.256   0.669   2.331
 5275TIP3   OH215830   2.139   3.761   2.815
 5275TIP3    H115831   2.121   3.772   2.721
 5275TIP3    H215832   2.214   3.817   2.833
 5276TIP3   OH215833   1.147   1.924   0.202
 5276TIP3    H115834   1.215   1.870   0.241
 5276TIP3    H215835   1.152   1.905   0.108
 5277TIP3   OH215836   4.391   2.888   3.706
 5277TIP3    H115837   4.481   2.913   3.725
 5277TIP3    H215838   4.377   2.914   3.615
 5278TIP3   OH215839   0.278   5.670   1.586
 5278TIP3    H115840   0.319   5.675   1.499
 5278TIP3    H215841   0.347   5.638   1.643
 5279TIP3   OH215842   6.276   1.906   1.398
 5279TIP3    H115843   6.284   1.990   1.444
 5279TIP3    H215844   6.226   1.850   1.458
 5280TIP3   OH215845   4.676   0.934   1.211
 5280TIP3    H115846   4.708   1.021   1.233
 5280TIP3    H215847   4.630   0.904   1.289
 5281TIP3   OH215848   3.004   4.527   0.675
 5281TIP3    H115849   2.925   4.477   0.659
 5281TIP3    H215850   3.029   4.504   0.765
 5282TIP3   OH215851   1.512   2.857   3.205
 5282TIP3    H115852   1.508   2.796   3.132
 5282TIP3    H215853   1.470   2.810   3.278
 5283TIP3   OH215854   6.133   5.337   1.612
 5283TIP3    H115855   6.084   5.307   1.535
 5283TIP3    H215856   6.104   5.428   1.624
 5284TIP3   OH215857   4.197   4.728   2.901
 5284TIP3    H115858   4.200   4.632   2.900
 5284TIP3    H215859   4.270   4.755   2.846
 5285TIP3   OH215860   2.707   4.952   1.195
 5285TIP3    H115861   2.730   5.027   1.140
 5285TIP3    H215862   2.623   4.922   1.159
 5286TIP3   OH215863   3.279   3.809   0.471
 5286TIP3    H115864   3.296   3.903   0.464
 5286TIP3    H215865   3.248   3.783   0.384
 5287TIP3   OH215866   2.312   1.332   1.213
 5287TIP3    H115867   2.318   1.421   1.249
 5287TIP3    H215868   2.363   1.278   1.273
 5288TIP3   OH215869   0.922   2.760   1.439
 5288TIP3    H115870   0.979   2.721   1.506
 5288TIP3    H215871   0.980   2.816   1.388
 5289TIP3   OH215872   5.183   2.338  -0.003
 5289TIP3    H115873   5.109   2.391  -0.032
 5289TIP3    H215874   5.143   2.267   0.047
 5290TIP3   OH215875   5.222   0.590   3.912
 5290TIP3    H115876   5.298   0.610   3.967
 5290TIP3    H215877   5.185   0.511   3.950
 5291TIP3   OH215878   1.768   5.820   3.071
 5291TIP3    H115879   1.673   5.821   3.078
 5291TIP3    H215880   1.788   5.743   3.017
 5292TIP3   OH215881   4.244   1.250   1.631
 5292TIP3    H115882   4.259   1.276   1.540
 5292TIP3    H215883   4.271   1.158   1.633
 5293TIP3   OH215884   2.772   0.784   1.375
 5293TIP3    H115885   2.711   0.830   1.432
 5293TIP3    H215886   2.834   0.851   1.346
 5294TIP3   OH215887   1.078   1.866   3.358
 5294TIP3    H115888   1.153   1.895   3.410
 5294TIP3    H215889   1.005   1.863   3.420
 5295TIP3   OH215890   2.833   3.045   4.280
 5295TIP3    H115891   2.783   3.105   4.336
 5295TIP3    H215892   2.806   2.958   4.308
 5296TIP3   OH215893   6.321   2.352   2.167
 5296TIP3    H115894   6.395   2.388   2.215
 5296TIP3    H215895   6.285   2.426   2.118
 5297TIP3   OH215896   3.576   4.460   5.085
 5297TIP3    H115897   3.623   4.501   5.157
 5297TIP3    H215898   3.602   4.368   5.088
 5298TIP3   OH215899   5.054   0.639   1.457
 5298TIP3    H115900   5.039   0.643   1.363
 5298TIP3    H215901   5.074   0.547   1.474
 5299TIP3   OH215902   5.088   5.013   3.657
 5299TIP3    H115903   5.063   5.105   3.658
 5299TIP3    H215904   5.137   5.000   3.738
 5300TIP3   OH215905   1.954   3.114   3.716
 5300TIP3    H115906   2.030   3.172   3.707
 5300TIP3    H215907   1.879   3.173   3.716
 5301TIP3   OH215908   6.250   3.257   1.321
 5301TIP3    H115909   6.262   3.186   1.258
 5301TIP3    H215910   6.190   3.221   1.387
 5302TIP3   OH215911   5.839   4.990   0.449
 5302TIP3    H115912   5.911   4.936   0.418
 5302TIP3    H215913   5.879   5.045   0.517
 5303TIP3   OH215914   5.916   0.053   0.080
 5303TIP3    H115915   5.829   0.030   0.113
 5303TIP3    H215916   5.944  -0.024   0.031
 5304TIP3   OH215917   2.946   3.867   5.020
 5304TIP3    H115918   3.012   3.797   5.024
 5304TIP3    H215919   2.996   3.947   5.039
 5305TIP3   OH215920   4.090   4.486   2.206
 5305TIP3    H115921   4.089   4.391   2.218
 5305TIP3    H215922   4.141   4.499   2.126
 5306TIP3   OH215923   5.386   4.097   1.093
 5306TIP3    H115924   5.374   4.115   1.186
 5306TIP3    H215925   5.324   4.155   1.048
 5307TIP3   OH215926   4.692   1.437   0.243
 5307TIP3    H115927   4.716   1.517   0.290
 5307TIP3    H215928   4.657   1.379   0.311
 5308TIP3   OH215929   0.506   0.254   3.707
 5308TIP3    H115930   0.498   0.285   3.797
 5308TIP3    H215931   0.600   0.235   3.697
 5309TIP3   OH215932   4.157   0.982   0.497
 5309TIP3    H115933   4.183   1.073   0.479
 5309TIP3    H215934   4.239   0.933   0.495
 5310TIP3   OH215935   2.504   5.763   5.121
 5310TIP3    H115936   2.529   5.763   5.214
 5310TIP3    H215937   2.572   5.814   5.078
 5311TIP3   OH215938   0.495   0.666   1.293
 5311TIP3    H115939   0.489   0.754   1.255
 5311TIP3    H215940   0.535   0.613   1.223
 5312TIP3   OH215941   4.073   1.329   2.816
 5312TIP3    H115942   4.163   1.339   2.848
 5312TIP3    H215943   4.018   1.361   2.887
 5313TIP3   OH215944   0.397   2.424   2.904
 5313TIP3    H115945   0.316   2.384   2.873
 5313TIP3    H215946   0.371   2.471   2.983
 5314TIP3   OH215947   0.579   0.260   1.676
 5314TIP3    H115948   0.560   0.324   1.607
 5314TIP3    H215949   0.670   0.277   1.700
 5315TIP3   OH215950   0.585   1.163   1.018
 5315TIP3    H115951   0.645   1.089   1.004
 5315TIP3    H215952   0.551   1.183   0.931
 5316TIP3   OH215953   3.535   3.634   4.472
 5316TIP3    H115954   3.498   3.571   4.533
 5316TIP3    H215955   3.505   3.719   4.504
 5317TIP3   OH215956   5.494   5.397   3.833
 5317TIP3    H115957   5.420   5.377   3.892
 5317TIP3    H215958   5.475   5.484   3.799
 5318TIP3   OH215959   2.430   0.812   3.763
 5318TIP3    H115960   2.460   0.894   3.803
 5318TIP3    H215961   2.473   0.810   3.677
 5319TIP3   OH215962   3.354   3.581   2.134
 5319TIP3    H115963   3.308   3.566   2.217
 5319TIP3    H215964   3.290   3.559   2.067
 5320TIP3   OH215965   0.474   1.630   1.414
 5320TIP3    H115966   0.547   1.586   1.371
 5320TIP3    H215967   0.451   1.702   1.355
 5321TIP3   OH215968   0.823   4.376   0.416
 5321TIP3    H115969   0.868   4.410   0.340
 5321TIP3    H215970   0.861   4.289   0.430
 5322TIP3   OH215971   1.361   0.885   3.221
 5322TIP3    H115972   1.328   0.963   3.177
 5322TIP3    H215973   1.391   0.828   3.150
 5323TIP3   OH215974   4.430   0.817   3.053
 5323TIP3    H115975   4.501   0.824   3.117
 5323TIP3    H215976   4.458   0.747   2.994
 5324TIP3   OH215977   4.209   4.218   4.576
 5324TIP3    H115978   4.199   4.266   4.658
 5324TIP3    H215979   4.122   4.187   4.554
 5325TIP3   OH215980   2.552   3.333   3.904
 5325TIP3    H115981   2.616   3.344   3.834
 5325TIP3    H215982   2.485   3.276   3.866
 5326TIP3   OH215983   3.902   1.690   2.506
 5326TIP3    H115984   3.852   1.698   2.425
 5326TIP3    H215985   3.994   1.699   2.478
 5327TIP3   OH215986   5.377   3.257   0.325
 5327TIP3    H115987   5.447   3.239   0.387
 5327TIP3    H215988   5.422   3.278   0.243
 5328TIP3   OH215989   5.140   1.783   2.389
 5328TIP3    H115990   5.133   1.752   2.479
 5328TIP3    H215991   5.195   1.861   2.394
 5329TIP3   OH215992   5.481   3.234   2.628
 5329TIP3    H115993   5.411   3.277   2.580
 5329TIP3    H215994   5.553   3.229   2.566
 5330TIP3   OH215995   1.230   2.879   4.703
 5330TIP3    H115996   1.173   2.808   4.730
 5330TIP3    H215997   1.172   2.954   4.690
 5331TIP3   OH215998   3.559   1.718   1.696
 5331TIP3    H115999   3.463   1.719   1.696
 5331TIP3    H216000   3.584   1.808   1.720
 5332TIP3   OH216001   6.311   3.786   2.176
 5332TIP3    H116002   6.254   3.836   2.118
 5332TIP3    H216003   6.252   3.744   2.238
 5333TIP3   OH216004   2.868   2.085   2.780
 5333TIP3    H116005   2.908   2.013   2.732
 5333TIP3    H216006   2.775   2.080   2.757
 5334TIP3   OH216007   2.892   0.275   1.505
 5334TIP3    H116008   2.883   0.221   1.426
 5334TIP3    H216009   2.983   0.306   1.502
 5335TIP3   OH216010   6.280   0.993   2.160
 5335TIP3    H116011   6.319   1.047   2.091
 5335TIP3    H216012   6.336   0.915   2.162
 5336TIP3   OH216013   3.349   5.493   2.113
 5336TIP3    H116014   3.385   5.532   2.192
 5336TIP3    H216015   3.267   5.453   2.142
 5337TIP3   OH216016   0.353   3.408   0.014
 5337TIP3    H116017   0.436   3.453  -0.002
 5337TIP3    H216018   0.287   3.463  -0.030
 5338TIP3   OH216019   5.640   1.044   2.079
 5338TIP3    H116020   5.680   0.958   2.097
 5338TIP3    H216021   5.599   1.068   2.162
 5339TIP3   OH216022   0.788   0.221   2.729
 5339TIP3    H116023   0.790   0.284   2.656
 5339TIP3    H216024   0.695   0.213   2.751
 5340TIP3   OH216025   4.525   2.860   3.226
 5340TIP3    H116026   4.490   2.772   3.232
 5340TIP3    H216027   4.514   2.897   3.313
 5341TIP3   OH216028   0.966   1.998   1.776
 5341TIP3    H116029   0.904   1.990   1.849
 5341TIP3    H216030   1.014   1.916   1.775
 5342TIP3   OH216031   0.695   3.687   3.904
 5342TIP3    H116032   0.741   3.636   3.837
 5342TIP3    H216033   0.750   3.680   3.981
 5343TIP3   OH216034   0.749   5.197   2.779
 5343TIP3    H116035   0.830   5.164   2.740
 5343TIP3    H216036   0.692   5.121   2.783
 5344TIP3   OH216037   4.399   0.683   1.321
 5344TIP3    H116038   4.414   0.774   1.348
 5344TIP3    H216039   4.473   0.635   1.356
 5345TIP3   OH216040   1.106   1.472   4.733
 5345TIP3    H116041   1.046   1.541   4.761
 5345TIP3    H216042   1.078   1.452   4.644
 5346TIP3   OH216043   2.348   0.841   1.675
 5346TIP3    H116044   2.292   0.909   1.638
 5346TIP3    H216045   2.372   0.875   1.762
 5347TIP3   OH216046   1.549   0.951   0.706
 5347TIP3    H116047   1.575   0.860   0.723
 5347TIP3    H216048   1.494   0.974   0.781
 5348TIP3   OH216049   2.676   3.571   1.368
 5348TIP3    H116050   2.650   3.658   1.338
 5348TIP3    H216051   2.672   3.517   1.290
 5349TIP3   OH216052   2.529   3.158   1.122
 5349TIP3    H116053   2.552   3.068   1.098
 5349TIP3    H216054   2.439   3.169   1.091
 5350TIP3   OH216055   4.490   4.144   0.840
 5350TIP3    H116056   4.583   4.152   0.862
 5350TIP3    H216057   4.488   4.128   0.746
 5351TIP3   OH216058   5.737   2.112   0.716
 5351TIP3    H116059   5.671   2.046   0.739
 5351TIP3    H216060   5.695   2.196   0.738
 5352TIP3   OH216061   2.058   0.789   0.360
 5352TIP3    H116062   1.997   0.845   0.313
 5352TIP3    H216063   2.010   0.707   0.373
 5353TIP3   OH216064   0.594   1.343   0.778
 5353TIP3    H116065   0.665   1.402   0.803
 5353TIP3    H216066   0.520   1.370   0.833
 5354TIP3   OH216067   5.026   3.059   1.823
 5354TIP3    H116068   5.106   3.111   1.836
 5354TIP3    H216069   5.055   2.968   1.830
 5355TIP3   OH216070   4.510   2.132   3.349
 5355TIP3    H116071   4.511   2.183   3.268
 5355TIP3    H216072   4.581   2.168   3.402
 5356TIP3   OH216073   2.457   3.043   3.004
 5356TIP3    H116074   2.505   3.072   2.926
 5356TIP3    H216075   2.370   3.082   2.995
 5357TIP3   OH216076   5.288   4.494   4.941
 5357TIP3    H116077   5.198   4.511   4.966
 5357TIP3    H216078   5.287   4.495   4.845
 5358TIP3   OH216079   1.799   3.748   2.864
 5358TIP3    H116080   1.833   3.834   2.838
 5358TIP3    H216081   1.795   3.698   2.783
 5359TIP3   OH216082   3.879   2.917   2.675
 5359TIP3    H116083   3.888   3.008   2.703
 5359TIP3    H216084   3.791   2.913   2.637
 5360TIP3   OH216085   4.601   3.962   2.956
 5360TIP3    H116086   4.576   3.925   2.871
 5360TIP3    H216087   4.595   3.888   3.017
 5361TIP3   OH216088   5.094   0.193   0.743
 5361TIP3    H116089   5.016   0.248   0.736
 5361TIP3    H216090   5.159   0.249   0.784
 5362TIP3   OH216091   3.609   5.870   2.764
 5362TIP3    H116092   3.676   5.877   2.696
 5362TIP3    H216093   3.590   5.961   2.788
 5363TIP3   OH216094   3.829   0.382   3.149
 5363TIP3    H116095   3.774   0.409   3.075
 5363TIP3    H216096   3.788   0.302   3.182
 5364TIP3   OH216097   5.606   2.725   2.876
 5364TIP3    H116098   5.524   2.719   2.828
 5364TIP3    H216099   5.581   2.721   2.968
 5365TIP3   OH216100   4.530   0.119   4.923
 5365TIP3    H116101   4.514   0.197   4.977
 5365TIP3    H216102   4.622   0.126   4.898
 5366TIP3   OH216103   1.936   1.585   2.781
 5366TIP3    H116104   1.964   1.539   2.860
 5366TIP3    H216105   1.840   1.585   2.786
 5367TIP3   OH216106   3.587   1.966   3.732
 5367TIP3    H116107   3.629   1.888   3.769
 5367TIP3    H216108   3.540   2.005   3.806
 5368TIP3   OH216109   3.668   5.946   0.393
 5368TIP3    H116110   3.643   5.945   0.301
 5368TIP3    H216111   3.589   5.974   0.440
 5369TIP3   OH216112   0.790   0.414   1.519
 5369TIP3    H116113   0.802   0.368   1.602
 5369TIP3    H216114   0.809   0.505   1.540
 5370TIP3   OH216115   3.768   3.561   3.407
 5370TIP3    H116116   3.697   3.514   3.363
 5370TIP3    H216117   3.837   3.496   3.420
 5371TIP3   OH216118   4.884   5.527   5.019
 5371TIP3    H116119   4.853   5.470   4.949
 5371TIP3    H216120   4.971   5.555   4.991
 5372TIP3   OH216121   2.522   2.249   0.164
 5372TIP3    H116122   2.602   2.235   0.113
 5372TIP3    H216123   2.488   2.333   0.133
 5373TIP3   OH216124   5.056   5.196   4.687
 5373TIP3    H116125   5.043   5.289   4.668
 5373TIP3    H216126   5.092   5.194   4.775
 5374TIP3   OH216127   6.156   4.454   2.161
 5374TIP3    H116128   6.191   4.503   2.235
 5374TIP3    H216129   6.186   4.503   2.084
 5375TIP3   OH216130   3.066   3.213   1.590
 5375TIP3    H116131   3.118   3.149   1.541
 5375TIP3    H216132   2.977   3.204   1.556
 5376TIP3   OH216133   4.562   4.669   4.289
 5376TIP3    H116134   4.645   4.698   4.327
 5376TIP3    H216135   4.497   4.688   4.356
 5377TIP3   OH216136   3.055   5.310   2.820
 5377TIP3    H116137   3.100   5.390   2.846
 5377TIP3    H216138   3.125   5.249   2.797
 5378TIP3   OH216139   2.399   1.151   1.389
 5378TIP3    H116140   2.392   1.064   1.350
 5378TIP3    H216141   2.486   1.181   1.366
 5379TIP3   OH216142   1.523   0.469   2.141
 5379TIP3    H116143   1.456   0.414   2.181
 5379TIP3    H216144   1.576   0.499   2.215
 5380TIP3   OH216145   3.687   2.903   2.038
 5380TIP3    H116146   3.730   2.818   2.030
 5380TIP3    H216147   3.610   2.885   2.092
 5381TIP3   OH216148   3.838   3.336   1.755
 5381TIP3    H116149   3.852   3.363   1.664
 5381TIP3    H216150   3.770   3.396   1.787
 5382TIP3   OH216151   5.676   4.105   4.678
 5382TIP3    H116152   5.668   4.200   4.684
 5382TIP3    H216153   5.594   4.076   4.639
 5383TIP3   OH216154   2.186   0.685   3.922
 5383TIP3    H116155   2.185   0.589   3.911
 5383TIP3    H216156   2.258   0.714   3.867
 5384TIP3   OH216157   2.966   0.526   2.866
 5384TIP3    H116158   2.941   0.498   2.778
 5384TIP3    H216159   2.971   0.621   2.860
 5385TIP3   OH216160   6.146   4.065   2.332
 5385TIP3    H116161   6.238   4.091   2.324
 5385TIP3    H216162   6.129   4.011   2.255
 5386TIP3   OH216163   5.062   0.133   5.106
 5386TIP3    H116164   5.125   0.111   5.038
 5386TIP3    H216165   4.999   0.191   5.063
 5387TIP3   OH216166   1.226   1.438   3.409
 5387TIP3    H116167   1.299   1.383   3.380
 5387TIP3    H216168   1.216   1.502   3.338
 5388TIP3   OH216169   2.628   0.532   1.909
 5388TIP3    H116170   2.692   0.603   1.899
 5388TIP3    H216171   2.568   0.563   1.976
 5389TIP3   OH216172   5.865   2.289   1.003
 5389TIP3    H116173   5.850   2.195   1.009
 5389TIP3    H216174   5.807   2.318   0.933
 5390TIP3   OH216175   5.246   4.705   4.428
 5390TIP3    H116176   5.212   4.691   4.517
 5390TIP3    H216177   5.168   4.723   4.375
 5391TIP3   OH216178   3.610   3.522   4.230
 5391TIP3    H116179   3.582   3.579   4.302
 5391TIP3    H216180   3.640   3.442   4.274
 5392TIP3   OH216181   5.816   5.564   0.171
 5392TIP3    H116182   5.892   5.515   0.140
 5392TIP3    H216183   5.826   5.651   0.132
 5393TIP3   OH216184   2.791   3.113   3.960
 5393TIP3    H116185   2.843   3.045   3.918
 5393TIP3    H216186   2.756   3.165   3.888
 5394TIP3   OH216187   3.908   4.897   0.294
 5394TIP3    H116188   3.969   4.860   0.358
 5394TIP3    H216189   3.833   4.839   0.295
 5395TIP3   OH216190   5.464   3.649   0.894
 5395TIP3    H116191   5.501   3.719   0.839
 5395TIP3    H216192   5.375   3.637   0.861
 5396TIP3   OH216193   4.967   5.211   1.278
 5396TIP3    H116194   4.976   5.301   1.309
 5396TIP3    H216195   5.012   5.159   1.344
 5397TIP3   OH216196   3.505   2.001   2.093
 5397TIP3    H116197   3.583   1.956   2.127
 5397TIP3    H216198   3.508   2.087   2.136
 5398TIP3   OH216199   3.644   4.036   4.514
 5398TIP3    H116200   3.594   4.041   4.433
 5398TIP3    H216201   3.638   4.124   4.552
 5399TIP3   OH216202   3.840   4.683   2.646
 5399TIP3    H116203   3.901   4.614   2.619
 5399TIP3    H216204   3.877   4.717   2.728
 5400TIP3   OH216205   6.342   5.157   1.489
 5400TIP3    H116206   6.247   5.158   1.504
 5400TIP3    H216207   6.376   5.103   1.561
 5401TIP3   OH216208   5.368   4.079   3.333
 5401TIP3    H116209   5.406   4.162   3.363
 5401TIP3    H216210   5.283   4.075   3.376
 5402TIP3   OH216211   0.603   4.054   0.630
 5402TIP3    H116212   0.553   4.131   0.603
 5402TIP3    H216213   0.661   4.036   0.557
 5403TIP3   OH216214   3.858   3.164   4.349
 5403TIP3    H116215   3.864   3.229   4.279
 5403TIP3    H216216   3.764   3.151   4.362
 5404TIP3   OH216217   1.098   1.507   4.167
 5404TIP3    H116218   1.133   1.420   4.150
 5404TIP3    H216219   1.058   1.533   4.084
 5405TIP3   OH216220   6.156   2.435   2.485
 5405TIP3    H116221   6.111   2.468   2.408
 5405TIP3    H216222   6.094   2.448   2.557
 5406TIP3   OH216223   1.117   2.364   0.778
 5406TIP3    H116224   1.137   2.387   0.687
 5406TIP3    H216225   1.024   2.383   0.788
 5407TIP3   OH216226   3.886   3.128   4.878
 5407TIP3    H116227   3.907   3.056   4.937
 5407TIP3    H216228   3.881   3.205   4.936
 5408TIP3   OH216229   1.793   0.042   4.318
 5408TIP3    H116230   1.833   0.128   4.325
 5408TIP3    H216231   1.850  -0.016   4.369
 5409TIP3   OH216232   3.501   2.880   2.240
 5409TIP3    H116233   3.470   2.958   2.286
 5409TIP3    H216234   3.519   2.817   2.309
 5410TIP3   OH216235   3.268   5.512   0.890
 5410TIP3    H116236   3.184   5.473   0.912
 5410TIP3    H216237   3.264   5.601   0.925
 5411TIP3   OH216238   2.503   2.710   0.546
 5411TIP3    H116239   2.428   2.664   0.584
 5411TIP3    H216240   2.510   2.674   0.457
 5412TIP3   OH216241   2.498   1.609   1.006
 5412TIP3    H116242   2.589   1.637   1.009
 5412TIP3    H216243   2.462   1.634   1.092
 5413TIP3   OH216244   3.765   2.797   3.080
 5413TIP3    H116245   3.795   2.720   3.129
 5413TIP3    H216246   3.701   2.839   3.138
 5414TIP3   OH216247   2.589   0.151   1.512
 5414TIP3    H116248   2.639   0.179   1.588
 5414TIP3    H216249   2.589   0.228   1.454
 5415TIP3   OH216250   1.056   2.523   2.939
 5415TIP3    H116251   0.983   2.483   2.891
 5415TIP3    H216252   1.099   2.579   2.874
 5416TIP3   OH216253   1.075   5.701   1.895
 5416TIP3    H116254   1.068   5.607   1.879
 5416TIP3    H216255   0.991   5.736   1.867
 5417TIP3   OH216256   5.957   3.960   0.642
 5417TIP3    H116257   6.037   3.914   0.616
 5417TIP3    H216258   5.900   3.956   0.565
 5418TIP3   OH216259   1.204   0.270   4.575
 5418TIP3    H116260   1.199   0.236   4.664
 5418TIP3    H216261   1.270   0.339   4.579
 5419TIP3   OH216262   2.214   0.219   3.643
 5419TIP3    H116263   2.210   0.264   3.558
 5419TIP3    H216264   2.248   0.132   3.622
 5420TIP3   OH216265   5.016   5.496   1.066
 5420TIP3    H116266   4.989   5.415   1.021
 5420TIP3    H216267   5.054   5.467   1.148
 5421TIP3   OH216268   3.719   5.031  -0.006
 5421TIP3    H116269   3.773   5.091   0.046
 5421TIP3    H216270   3.661   4.990   0.058
 5422TIP3   OH216271   4.856   5.631   4.611
 5422TIP3    H116272   4.862   5.715   4.656
 5422TIP3    H216273   4.819   5.653   4.525
 5423TIP3   OH216274   2.021   2.448   4.891
 5423TIP3    H116275   2.060   2.363   4.873
 5423TIP3    H216276   1.995   2.481   4.804
 5424TIP3   OH216277   3.616   6.005   1.887
 5424TIP3    H116278   3.705   6.036   1.869
 5424TIP3    H216279   3.626   5.910   1.900
 5425TIP3   OH216280   1.876   5.171   3.291
 5425TIP3    H116281   1.784   5.163   3.316
 5425TIP3    H216282   1.924   5.141   3.367
 5426TIP3   OH216283   5.651   3.230   0.843
 5426TIP3    H116284   5.589   3.273   0.901
 5426TIP3    H216285   5.609   3.231   0.758
 5427TIP3   OH216286   2.674   5.728   4.430
 5427TIP3    H116287   2.768   5.718   4.414
 5427TIP3    H216288   2.656   5.668   4.502
 5428TIP3   OH216289   0.960   4.142   1.205
 5428TIP3    H116290   0.891   4.086   1.240
 5428TIP3    H216291   1.034   4.130   1.265
 5429TIP3   OH216292   6.239   5.038   0.708
 5429TIP3    H116293   6.262   4.962   0.654
 5429TIP3    H216294   6.280   5.021   0.792
 5430TIP3   OH216295   1.515   0.658   2.385
 5430TIP3    H116296   1.450   0.719   2.421
 5430TIP3    H216297   1.477   0.571   2.400
 5431TIP3   OH216298   4.367   2.067   0.300
 5431TIP3    H116299   4.377   2.116   0.219
 5431TIP3    H216300   4.453   2.029   0.317
 5432TIP3   OH216301   3.767   3.158   2.093
 5432TIP3    H116302   3.747   3.065   2.082
 5432TIP3    H216303   3.855   3.168   2.058
 5433TIP3   OH216304   2.249   1.280   2.195
 5433TIP3    H116305   2.193   1.210   2.229
 5433TIP3    H216306   2.309   1.236   2.135
 5434TIP3   OH216307   0.892   2.784   2.842
 5434TIP3    H116308   0.905   2.776   2.937
 5434TIP3    H216309   0.865   2.696   2.815
 5435TIP3   OH216310   3.595   2.468   1.314
 5435TIP3    H116311   3.615   2.420   1.233
 5435TIP3    H216312   3.519   2.422   1.351
 5436TIP3   OH216313   0.485   1.567   1.763
 5436TIP3    H116314   0.419   1.635   1.752
 5436TIP3    H216315   0.475   1.512   1.685
 5437TIP3   OH216316   2.038   3.350   4.123
 5437TIP3    H116317   1.943   3.352   4.137
 5437TIP3    H216318   2.069   3.433   4.159
 5438TIP3   OH216319   0.001   4.958   4.008
 5438TIP3    H116320   0.018   5.024   3.941
 5438TIP3    H216321   0.076   4.965   4.068
 5439TIP3   OH216322   2.642   3.899   1.524
 5439TIP3    H116323   2.681   3.916   1.438
 5439TIP3    H216324   2.553   3.870   1.504
 5440TIP3   OH216325   5.430   0.184   5.091
 5440TIP3    H116326   5.438   0.150   5.180
 5440TIP3    H216327   5.373   0.121   5.047
 5441TIP3   OH216328   3.022   1.110   3.735
 5441TIP3    H116329   2.969   1.058   3.796
 5441TIP3    H216330   2.995   1.201   3.752
 5442TIP3   OH216331   4.546   1.861   1.752
 5442TIP3    H116332   4.458   1.843   1.786
 5442TIP3    H216333   4.533   1.935   1.692
 5443TIP3   OH216334   2.143   2.897   4.520
 5443TIP3    H116335   2.094   2.856   4.448
 5443TIP3    H216336   2.076   2.946   4.569
 5444TIP3   OH216337   2.151   0.559   0.537
 5444TIP3    H116338   2.212   0.633   0.545
 5444TIP3    H216339   2.102   0.560   0.619
 5445TIP3   OH216340   6.363   2.148   3.676
 5445TIP3    H116341   6.274   2.167   3.704
 5445TIP3    H216342   6.372   2.193   3.591
 5446TIP3   OH216343   0.406   0.686   3.979
 5446TIP3    H116344   0.458   0.675   4.059
 5446TIP3    H216345   0.316   0.667   4.006
 5447TIP3   OH216346   5.460   3.574   1.609
 5447TIP3    H116347   5.554   3.562   1.618
 5447TIP3    H216348   5.446   3.668   1.623
 5448TIP3   OH216349   3.627   3.162   2.797
 5448TIP3    H116350   3.589   3.242   2.758
 5448TIP3    H216351   3.721   3.176   2.793
 5449TIP3   OH216352   5.204   0.115  -0.012
 5449TIP3    H116353   5.159   0.200  -0.005
 5449TIP3    H216354   5.144   0.053   0.030
 5450TIP3   OH216355   5.091   4.330   2.233
 5450TIP3    H116356   5.088   4.313   2.327
 5450TIP3    H216357   5.020   4.278   2.196
 5451TIP3   OH216358   4.888   0.687   0.367
 5451TIP3    H116359   4.832   0.650   0.435
 5451TIP3    H216360   4.928   0.611   0.325
 5452TIP3   OH216361   4.843   1.616   3.847
 5452TIP3    H116362   4.885   1.701   3.861
 5452TIP3    H216363   4.894   1.575   3.776
 5453TIP3   OH216364   2.590   1.481   2.292
 5453TIP3    H116365   2.582   1.388   2.271
 5453TIP3    H216366   2.500   1.512   2.301
 5454TIP3   OH216367   4.179   2.287   1.501
 5454TIP3    H116368   4.095   2.330   1.488
 5454TIP3    H216369   4.241   2.359   1.515
 5455TIP3   OH216370   4.822   3.390   1.396
 5455TIP3    H116371   4.741   3.404   1.346
 5455TIP3    H216372   4.890   3.382   1.330
 5456TIP3   OH216373   0.782   0.956   1.388
 5456TIP3    H116374   0.831   1.027   1.346
 5456TIP3    H216375   0.696   0.994   1.407
 5457TIP3   OH216376   1.977   2.134   2.052
 5457TIP3    H116377   2.054   2.077   2.045
 5457TIP3    H216378   1.956   2.134   2.146
 5458TIP3   OH216379   5.803   3.369   2.293
 5458TIP3    H116380   5.829   3.440   2.235
 5458TIP3    H216381   5.869   3.368   2.362
 5459TIP3   OH216382   6.298   4.402   0.497
 5459TIP3    H116383   6.292   4.425   0.404
 5459TIP3    H216384   6.232   4.333   0.508
 5460TIP3   OH216385   3.634   2.296   0.268
 5460TIP3    H116386   3.648   2.256   0.354
 5460TIP3    H216387   3.557   2.351   0.280
 5461TIP3   OH216388   5.574   3.159   0.480
 5461TIP3    H116389   5.640   3.192   0.418
 5461TIP3    H216390   5.622   3.096   0.534
 5462TIP3   OH216391   3.450   3.671   0.611
 5462TIP3    H116392   3.373   3.715   0.576
 5462TIP3    H216393   3.417   3.619   0.684
 5463TIP3   OH216394   2.659   0.127   3.715
 5463TIP3    H116395   2.609   0.173   3.648
 5463TIP3    H216396   2.692   0.196   3.772
 5464TIP3   OH216397   3.085   3.524   4.747
 5464TIP3    H116398   3.079   3.430   4.765
 5464TIP3    H216399   2.997   3.549   4.720
 5465TIP3   OH216400   4.365   4.457   5.023
 5465TIP3    H116401   4.292   4.395   5.029
 5465TIP3    H216402   4.324   4.543   5.028
 5466TIP3   OH216403   5.666   2.728   2.422
 5466TIP3    H116404   5.721   2.659   2.458
 5466TIP3    H216405   5.707   2.810   2.452
 5467TIP3   OH216406   1.452   2.306   3.218
 5467TIP3    H116407   1.400   2.277   3.293
 5467TIP3    H216408   1.437   2.238   3.152
 5468TIP3   OH216409   3.218   4.974   3.560
 5468TIP3    H116410   3.207   5.068   3.545
 5468TIP3    H216411   3.170   4.957   3.641
 5469TIP3   OH216412   6.204   2.987   4.821
 5469TIP3    H116413   6.284   2.940   4.846
 5469TIP3    H216414   6.148   2.920   4.781
 5470TIP3   OH216415   6.233   2.613   0.161
 5470TIP3    H116416   6.243   2.707   0.170
 5470TIP3    H216417   6.262   2.594   0.071
 5471TIP3   OH216418   0.210   3.225   1.156
 5471TIP3    H116419   0.151   3.286   1.114
 5471TIP3    H216420   0.212   3.252   1.248
 5472TIP3   OH216421   5.168   5.479   4.251
 5472TIP3    H116422   5.106   5.521   4.310
 5472TIP3    H216423   5.176   5.540   4.178
 5473TIP3   OH216424   3.807   3.751   4.319
 5473TIP3    H116425   3.795   3.696   4.241
 5473TIP3    H216426   3.728   3.735   4.372
 5474TIP3   OH216427   0.616   5.000   3.105
 5474TIP3    H116428   0.547   4.982   3.168
 5474TIP3    H216429   0.663   5.075   3.143
 5475TIP3   OH216430   5.849   0.613   3.799
 5475TIP3    H116431   5.825   0.649   3.885
 5475TIP3    H216432   5.776   0.637   3.742
 5476TIP3   OH216433   3.138   4.432   1.960
 5476TIP3    H116434   3.110   4.509   1.910
 5476TIP3    H216435   3.177   4.468   2.040
 5477TIP3   OH216436   1.645   5.833   4.657
 5477TIP3    H116437   1.630   5.836   4.752
 5477TIP3    H216438   1.559   5.849   4.619
 5478TIP3   OH216439   0.106   4.604   2.630
 5478TIP3    H116440   0.140   4.525   2.673
 5478TIP3    H216441   0.183   4.646   2.593
 5479TIP3   OH216442   6.049   0.051   5.176
 5479TIP3    H116443   6.103   0.007   5.110
 5479TIP3    H216444   6.011   0.126   5.130
 5480TIP3   OH216445   5.129   4.848   1.131
 5480TIP3    H116446   5.085   4.859   1.216
 5480TIP3    H216447   5.059   4.823   1.071
 5481TIP3   OH216448   1.477   0.726   0.317
 5481TIP3    H116449   1.407   0.663   0.299
 5481TIP3    H216450   1.510   0.750   0.231
 5482TIP3   OH216451   5.148   1.745   3.210
 5482TIP3    H116452   5.065   1.704   3.234
 5482TIP3    H216453   5.207   1.725   3.283
 5483TIP3   OH216454   3.742   2.240   0.886
 5483TIP3    H116455   3.737   2.307   0.817
 5483TIP3    H216456   3.742   2.157   0.839
 5484TIP3   OH216457   5.332   2.869   0.144
 5484TIP3    H116458   5.322   2.962   0.123
 5484TIP3    H216459   5.426   2.858   0.159
 5485TIP3   OH216460   0.553   5.062   2.564
 5485TIP3    H116461   0.481   5.124   2.576
 5485TIP3    H216462   0.552   5.008   2.643
 5486TIP3   OH216463   5.645   2.518   3.825
 5486TIP3    H116464   5.589   2.583   3.867
 5486TIP3    H216465   5.703   2.487   3.894
 5487TIP3   OH216466   2.732   4.156   1.252
 5487TIP3    H116467   2.665   4.107   1.204
 5487TIP3    H216468   2.798   4.090   1.275
 5488TIP3   OH216469   1.942   3.634   0.940
 5488TIP3    H116470   1.928   3.724   0.969
 5488TIP3    H216471   1.856   3.607   0.905
 5489TIP3   OH216472   3.724   3.287   3.656
 5489TIP3    H116473   3.711   3.376   3.622
 5489TIP3    H216474   3.788   3.297   3.727
 5490TIP3   OH216475   1.729   0.143   1.488
 5490TIP3    H116476   1.669   0.209   1.452
 5490TIP3    H216477   1.805   0.192   1.517
 5491TIP3   OH216478   5.442   2.904   4.657
 5491TIP3    H116479   5.488   2.872   4.735
 5491TIP3    H216480   5.350   2.906   4.683
 5492TIP3   OH216481   0.962   4.405   4.214
 5492TIP3    H116482   1.031   4.465   4.185
 5492TIP3    H216483   1.001   4.318   4.205
 5493TIP3   OH216484   4.368   2.553   0.179
 5493TIP3    H116485   4.273   2.568   0.177
 5493TIP3    H216486   4.405   2.622   0.124
 5494TIP3   OH216487   5.442   3.624   2.855
 5494TIP3    H116488   5.531   3.593   2.837
 5494TIP3    H216489   5.455   3.704   2.907
 5495TIP3   OH216490   2.034   3.458   3.294
 5495TIP3    H116491   1.974   3.492   3.228
 5495TIP3    H216492   2.031   3.363   3.284
 5496TIP3   OH216493   5.124   4.627   1.597
 5496TIP3    H116494   5.171   4.654   1.518
 5496TIP3    H216495   5.147   4.534   1.608
 5497TIP3   OH216496   6.013   4.693   1.162
 5497TIP3    H116497   6.073   4.725   1.229
 5497TIP3    H216498   6.041   4.603   1.147
 5498TIP3   OH216499   4.674   4.216   3.090
 5498TIP3    H116500   4.607   4.176   3.147
 5498TIP3    H216501   4.691   4.149   3.024
 5499TIP3   OH216502   4.701   5.051   2.336
 5499TIP3    H116503   4.630   5.089   2.284
 5499TIP3    H216504   4.657   5.007   2.408
 5500TIP3   OH216505   3.508   3.670   2.495
 5500TIP3    H116506   3.536   3.757   2.465
 5500TIP3    H216507   3.589   3.618   2.496
 5501TIP3   OH216508   3.712   3.742   3.105
 5501TIP3    H116509   3.714   3.766   3.198
 5501TIP3    H216510   3.643   3.677   3.099
 5502TIP3   OH216511   5.361   1.960   1.166
 5502TIP3    H116512   5.422   1.975   1.238
 5502TIP3    H216513   5.414   1.973   1.087
 5503TIP3   OH216514   1.664   3.539   4.756
 5503TIP3    H116515   1.687   3.448   4.772
 5503TIP3    H216516   1.583   3.535   4.704
 5504TIP3   OH216517   4.614   2.475   0.656
 5504TIP3    H116518   4.569   2.417   0.594
 5504TIP3    H216519   4.548   2.494   0.722
 5505TIP3   OH216520   0.607   2.346   2.440
 5505TIP3    H116521   0.615   2.323   2.347
 5505TIP3    H216522   0.560   2.273   2.479
 5506TIP3   OH216523   2.704   0.751   3.970
 5506TIP3    H116524   2.626   0.772   4.021
 5506TIP3    H216525   2.688   0.791   3.884
 5507TIP3   OH216526   5.320   1.061   3.768
 5507TIP3    H116527   5.292   1.006   3.841
 5507TIP3    H216528   5.243   1.064   3.710
 5508TIP3   OH216529   0.222   1.833   0.830
 5508TIP3    H116530   0.189   1.888   0.759
 5508TIP3    H216531   0.145   1.812   0.882
 5509TIP3   OH216532   0.410   2.868   2.699
 5509TIP3    H116533   0.503   2.849   2.685
 5509TIP3    H216534   0.409   2.953   2.742
 5510TIP3   OH216535   1.438   0.335   0.986
 5510TIP3    H116536   1.511   0.382   1.026
 5510TIP3    H216537   1.373   0.402   0.966
 5511TIP3   OH216538   3.718   5.854   4.720
 5511TIP3    H116539   3.635   5.900   4.731
 5511TIP3    H216540   3.700   5.787   4.654
 5512TIP3   OH216541   5.200   3.955   4.004
 5512TIP3    H116542   5.252   3.904   4.068
 5512TIP3    H216543   5.233   4.044   4.012
 5513TIP3   OH216544   0.294   3.306   3.903
 5513TIP3    H116545   0.274   3.354   3.984
 5513TIP3    H216546   0.209   3.293   3.862
 5514TIP3   OH216547   4.916   4.979   4.537
 5514TIP3    H116548   4.822   4.992   4.523
 5514TIP3    H216549   4.943   5.055   4.589
 5515TIP3   OH216550   0.984   2.991   3.537
 5515TIP3    H116551   1.077   3.012   3.538
 5515TIP3    H216552   0.940   3.075   3.551
 5516TIP3   OH216553   5.491   2.339   3.665
 5516TIP3    H116554   5.539   2.392   3.729
 5516TIP3    H216555   5.558   2.290   3.618
 5517TIP3   OH216556   1.899   0.787   3.384
 5517TIP3    H116557   1.989   0.812   3.365
 5517TIP3    H216558   1.885   0.812   3.475
 5518TIP3   OH216559   1.113   1.846   4.267
 5518TIP3    H116560   1.191   1.895   4.292
 5518TIP3    H216561   1.066   1.831   4.349
 5519TIP3   OH216562   4.001   4.792   0.536
 5519TIP3    H116563   4.043   4.709   0.556
 5519TIP3    H216564   4.062   4.858   0.570
 5520TIP3   OH216565   5.420   4.605   2.560
 5520TIP3    H116566   5.359   4.679   2.562
 5520TIP3    H216567   5.434   4.582   2.652
 5521TIP3   OH216568   2.465   2.840   5.102
 5521TIP3    H116569   2.442   2.797   5.184
 5521TIP3    H216570   2.391   2.898   5.084
 5522TIP3   OH216571   5.834   2.370   3.972
 5522TIP3    H116572   5.866   2.369   4.062
 5522TIP3    H216573   5.797   2.282   3.959
 5523TIP3   OH216574   3.271   2.419   0.962
 5523TIP3    H116575   3.310   2.459   0.884
 5523TIP3    H216576   3.195   2.474   0.980
 5524TIP3   OH216577   0.126   0.780   5.091
 5524TIP3    H116578   0.221   0.763   5.088
 5524TIP3    H216579   0.086   0.697   5.065
 5525TIP3   OH216580   2.985   3.167   5.108
 5525TIP3    H116581   2.941   3.082   5.101
 5525TIP3    H216582   3.073   3.145   5.139
 5526TIP3   OH216583   3.544   4.850   4.700
 5526TIP3    H116584   3.603   4.808   4.761
 5526TIP3    H216585   3.546   4.795   4.622
 5527TIP3   OH216586   4.323   5.555   1.715
 5527TIP3    H116587   4.252   5.491   1.706
 5527TIP3    H216588   4.316   5.610   1.637
 5528TIP3   OH216589   2.850   4.334   3.310
 5528TIP3    H116590   2.924   4.355   3.253
 5528TIP3    H216591   2.813   4.254   3.272
 5529TIP3   OH216592   4.574   2.424   3.692
 5529TIP3    H116593   4.631   2.449   3.764
 5529TIP3    H216594   4.591   2.331   3.678
 5530TIP3   OH216595   5.971   1.675   4.822
 5530TIP3    H116596   5.924   1.648   4.744
 5530TIP3    H216597   5.903   1.696   4.885
 5531TIP3   OH216598   3.330   1.218   1.503
 5531TIP3    H116599   3.239   1.236   1.481
 5531TIP3    H216600   3.367   1.303   1.527
 5532TIP3   OH216601   4.969   3.142   4.912
 5532TIP3    H116602   4.893   3.119   4.966
 5532TIP3    H216603   4.931   3.186   4.835
 5533TIP3   OH216604   6.142   1.149   3.760
 5533TIP3    H116605   6.232   1.177   3.775
 5533TIP3    H216606   6.104   1.138   3.847
 5534TIP3   OH216607   3.917   4.162   3.921
 5534TIP3    H116608   3.977   4.210   3.864
 5534TIP3    H216609   3.974   4.115   3.982
 5535TIP3   OH216610   3.586   2.603   0.462
 5535TIP3    H116611   3.551   2.523   0.421
 5535TIP3    H216612   3.587   2.668   0.392
 5536TIP3   OH216613   3.288   5.348   1.746
 5536TIP3    H116614   3.331   5.325   1.664
 5536TIP3    H216615   3.257   5.265   1.781
 5537TIP3   OH216616   2.806   5.579   3.743
 5537TIP3    H116617   2.766   5.608   3.825
 5537TIP3    H216618   2.899   5.569   3.763
 5538TIP3   OH216619   3.163   3.515   4.081
 5538TIP3    H116620   3.238   3.503   4.024
 5538TIP3    H216621   3.100   3.448   4.054
 5539TIP3   OH216622   5.269   1.393   0.900
 5539TIP3    H116623   5.296   1.416   0.988
 5539TIP3    H216624   5.177   1.420   0.895
 5540TIP3   OH216625   4.022   4.784   2.318
 5540TIP3    H116626   3.980   4.703   2.346
 5540TIP3    H216627   3.993   4.796   2.228
 5541TIP3   OH216628   2.486   1.231   0.158
 5541TIP3    H116629   2.530   1.172   0.096
 5541TIP3    H216630   2.557   1.264   0.214
 5542TIP3   OH216631   2.425   1.152   1.965
 5542TIP3    H116632   2.404   1.073   2.014
 5542TIP3    H216633   2.443   1.121   1.877
 5543TIP3   OH216634   3.631   0.458   0.684
 5543TIP3    H116635   3.616   0.418   0.770
 5543TIP3    H216636   3.693   0.529   0.701
 5544TIP3   OH216637   2.455   0.631   3.312
 5544TIP3    H116638   2.528   0.584   3.271
 5544TIP3    H216639   2.427   0.694   3.246
 5545TIP3   OH216640   3.008   3.758   1.478
 5545TIP3    H116641   3.055   3.817   1.535
 5545TIP3    H216642   3.053   3.674   1.488
 5546TIP3   OH216643   5.159   3.933   2.298
 5546TIP3    H116644   5.235   3.966   2.346
 5546TIP3    H216645   5.191   3.919   2.209
 5547TIP3   OH216646   6.094   4.948   1.950
 5547TIP3    H116647   6.067   5.035   1.921
 5547TIP3    H216648   6.183   4.961   1.983
 5548TIP3   OH216649   4.483   1.034   3.811
 5548TIP3    H116650   4.509   0.945   3.786
 5548TIP3    H216651   4.478   1.031   3.907
 5549TIP3   OH216652   1.053   2.889   0.548
 5549TIP3    H116653   1.115   2.865   0.478
 5549TIP3    H216654   0.968   2.861   0.516
 5550TIP3   OH216655   4.559   2.788   1.520
 5550TIP3    H116656   4.530   2.856   1.459
 5550TIP3    H216657   4.625   2.739   1.471
 5551TIP3   OH216658   3.574   1.086   3.043
 5551TIP3    H116659   3.525   1.024   3.098
 5551TIP3    H216660   3.609   1.150   3.105
 5552TIP3   OH216661   4.315   2.708   4.046
 5552TIP3    H116662   4.313   2.654   3.967
 5552TIP3    H216663   4.248   2.669   4.103
 5553TIP3   OH216664   3.160   4.113   1.991
 5553TIP3    H116665   3.091   4.167   1.952
 5553TIP3    H216666   3.167   4.146   2.081
 5554TIP3   OH216667   5.805   2.797   3.362
 5554TIP3    H116668   5.783   2.777   3.271
 5554TIP3    H216669   5.721   2.820   3.403
 5555TIP3   OH216670   5.731   1.408   2.861
 5555TIP3    H116671   5.813   1.376   2.897
 5555TIP3    H216672   5.750   1.498   2.835
 5556TIP3   OH216673   5.153   3.217   3.077
 5556TIP3    H116674   5.076   3.246   3.127
 5556TIP3    H216675   5.151   3.122   3.083
 5557TIP3   OH216676   6.053   0.337   1.919
 5557TIP3    H116677   5.983   0.352   1.983
 5557TIP3    H216678   6.053   0.415   1.864
 5558TIP3   OH216679   3.304   3.947   2.398
 5558TIP3    H116680   3.386   3.899   2.403
 5558TIP3    H216681   3.274   3.953   2.489
 5559TIP3   OH216682   2.076   1.077   4.001
 5559TIP3    H116683   2.109   1.093   3.912
 5559TIP3    H216684   2.139   1.017   4.040
 5560TIP3   OH216685   4.460   0.138   1.242
 5560TIP3    H116686   4.533   0.187   1.204
 5560TIP3    H216687   4.415   0.099   1.167
 5561TIP3   OH216688   4.549   0.791   3.723
 5561TIP3    H116689   4.602   0.805   3.645
 5561TIP3    H216690   4.472   0.745   3.692
 5562TIP3   OH216691   4.213   0.390   1.564
 5562TIP3    H116692   4.277   0.354   1.503
 5562TIP3    H216693   4.129   0.358   1.533
 5563TIP3   OH216694   4.846   0.807   2.029
 5563TIP3    H116695   4.770   0.759   1.994
 5563TIP3    H216696   4.909   0.807   1.958
 5564TIP3   OH216697   3.368   5.833   3.518
 5564TIP3    H116698   3.301   5.826   3.586
 5564TIP3    H216699   3.449   5.850   3.565
 5565TIP3   OH216700   0.718   3.485   0.814
 5565TIP3    H116701   0.783   3.530   0.868
 5565TIP3    H216702   0.634   3.519   0.845
 5566TIP3   OH216703   1.969   2.051   4.901
 5566TIP3    H116704   1.909   2.018   4.968
 5566TIP3    H216705   2.038   1.986   4.895
 5567TIP3   OH216706   5.469   2.019   4.403
 5567TIP3    H116707   5.444   1.932   4.375
 5567TIP3    H216708   5.562   2.027   4.380
 5568TIP3   OH216709   1.881   3.156   4.371
 5568TIP3    H116710   1.874   3.223   4.304
 5568TIP3    H216711   1.896   3.075   4.322
 5569TIP3   OH216712   0.055   2.403   4.273
 5569TIP3    H116713   0.075   2.339   4.205
 5569TIP3    H216714   0.141   2.430   4.306
 5570TIP3   OH216715   3.623   3.451   1.889
 5570TIP3    H116716   3.627   3.408   1.975
 5570TIP3    H216717   3.583   3.385   1.832
 5571TIP3   OH216718   0.444   1.906   0.567
 5571TIP3    H116719   0.527   1.889   0.522
 5571TIP3    H216720   0.470   1.950   0.648
 5572TIP3   OH216721   0.340   1.825   5.013
 5572TIP3    H116722   0.382   1.906   5.041
 5572TIP3    H216723   0.391   1.756   5.054
 5573TIP3   OH216724   4.521   4.213   4.622
 5573TIP3    H116725   4.535   4.235   4.715
 5573TIP3    H216726   4.428   4.231   4.608
 5574TIP3   OH216727   2.029   3.118   1.039
 5574TIP3    H116728   2.037   3.169   1.120
 5574TIP3    H216729   1.951   3.153   0.996
 5575TIP3   OH216730   0.656   2.074   2.384
 5575TIP3    H116731   0.582   2.071   2.445
 5575TIP3    H216732   0.650   1.992   2.334
 5576TIP3   OH216733   6.194   5.083   2.664
 5576TIP3    H116734   6.197   4.993   2.632
 5576TIP3    H216735   6.281   5.118   2.647
 5577TIP3   OH216736   1.229   5.787   0.770
 5577TIP3    H116737   1.230   5.880   0.792
 5577TIP3    H216738   1.203   5.783   0.678
 5578TIP3   OH216739   1.862   4.099   4.269
 5578TIP3    H116740   1.796   4.036   4.298
 5578TIP3    H216741   1.834   4.124   4.181
 5579TIP3   OH216742   2.601   2.692   1.407
 5579TIP3    H116743   2.583   2.675   1.499
 5579TIP3    H216744   2.563   2.779   1.390
 5580TIP3   OH216745   3.534   1.423   2.427
 5580TIP3    H116746   3.599   1.432   2.356
 5580TIP3    H216747   3.467   1.366   2.390
 5581TIP3   OH216748   4.432   3.862   1.681
 5581TIP3    H116749   4.496   3.927   1.709
 5581TIP3    H216750   4.376   3.848   1.757
 5582TIP3   OH216751   0.605   3.741   0.722
 5582TIP3    H116752   0.699   3.734   0.732
 5582TIP3    H216753   0.590   3.832   0.698
 5583TIP3   OH216754   5.274   4.727   1.809
 5583TIP3    H116755   5.359   4.714   1.766
 5583TIP3    H216756   5.212   4.737   1.737
 5584TIP3   OH216757   6.276   3.827   2.818
 5584TIP3    H116758   6.266   3.889   2.745
 5584TIP3    H216759   6.367   3.836   2.846
 5585TIP3   OH216760   3.441   3.187   0.589
 5585TIP3    H116761   3.525   3.232   0.587
 5585TIP3    H216762   3.404   3.202   0.502
 5586TIP3   OH216763   5.457   4.984   4.453
 5586TIP3    H116764   5.382   5.043   4.454
 5586TIP3    H216765   5.425   4.904   4.493
 5587TIP3   OH216766   3.604   4.469   2.377
 5587TIP3    H116767   3.573   4.406   2.311
 5587TIP3    H216768   3.620   4.549   2.327
 5588TIP3   OH216769   5.016   2.317   1.314
 5588TIP3    H116770   4.923   2.338   1.303
 5588TIP3    H216771   5.033   2.327   1.407
 5589TIP3   OH216772   3.233   0.333   2.995
 5589TIP3    H116773   3.303   0.398   2.983
 5589TIP3    H216774   3.279   0.250   3.007
 5590TIP3   OH216775   2.053   5.074   0.340
 5590TIP3    H116776   2.047   5.096   0.247
 5590TIP3    H216777   2.037   5.157   0.385
 5591TIP3   OH216778   2.520   5.156   1.363
 5591TIP3    H116779   2.536   5.062   1.370
 5591TIP3    H216780   2.606   5.194   1.346
 5592TIP3   OH216781   5.672   2.340   0.168
 5592TIP3    H116782   5.750   2.390   0.193
 5592TIP3    H216783   5.600   2.382   0.214
 5593TIP3   OH216784   3.578   2.710   0.209
 5593TIP3    H116785   3.516   2.777   0.179
 5593TIP3    H216786   3.650   2.714   0.147
 5594TIP3   OH216787   3.153   4.697   2.786
 5594TIP3    H116788   3.142   4.707   2.692
 5594TIP3    H216789   3.243   4.665   2.797
 5595TIP3   OH216790   2.772   3.319   1.973
 5595TIP3    H116791   2.755   3.227   1.955
 5595TIP3    H216792   2.748   3.330   2.066
 5596TIP3   OH216793   4.952   0.070   3.941
 5596TIP3    H116794   4.863   0.106   3.939
 5596TIP3    H216795   4.992   0.109   4.018
 5597TIP3   OH216796   3.003   4.988   4.637
 5597TIP3    H116797   3.051   4.930   4.697
 5597TIP3    H216798   2.918   4.946   4.626
 5598TIP3   OH216799   0.681   5.577   2.570
 5598TIP3    H116800   0.646   5.575   2.481
 5598TIP3    H216801   0.769   5.541   2.562
 5599TIP3   OH216802   2.636   0.598   0.403
 5599TIP3    H116803   2.586   0.519   0.385
 5599TIP3    H216804   2.674   0.622   0.319
 5600TIP3   OH216805   3.419   0.615   5.196
 5600TIP3    H116806   3.412   0.667   5.115
 5600TIP3    H216807   3.509   0.630   5.226
 5601TIP3   OH216808   0.318   1.773   1.735
 5601TIP3    H116809   0.230   1.784   1.772
 5601TIP3    H216810   0.311   1.805   1.645
 5602TIP3   OH216811   0.285   0.291   3.574
 5602TIP3    H116812   0.306   0.249   3.491
 5602TIP3    H216813   0.358   0.270   3.631
 5603TIP3   OH216814   2.128   4.089   4.361
 5603TIP3    H116815   2.061   4.092   4.293
 5603TIP3    H216816   2.079   4.094   4.443
 5604TIP3   OH216817   1.322   3.930   3.211
 5604TIP3    H116818   1.237   3.911   3.171
 5604TIP3    H216819   1.302   3.947   3.303
 5605TIP3   OH216820   0.086   1.709   1.429
 5605TIP3    H116821   0.144   1.752   1.493
 5605TIP3    H216822   0.022   1.776   1.406
 5606TIP3   OH216823   1.293   2.184   2.382
 5606TIP3    H116824   1.300   2.092   2.356
 5606TIP3    H216825   1.383   2.210   2.404
 5607TIP3   OH216826   5.016   5.554   0.374
 5607TIP3    H116827   5.004   5.467   0.337
 5607TIP3    H216828   5.027   5.612   0.298
 5608TIP3   OH216829   3.060   5.405   2.537
 5608TIP3    H116830   3.117   5.471   2.576
 5608TIP3    H216831   3.102   5.321   2.557
 5609TIP3   OH216832   2.145   5.270   4.402
 5609TIP3    H116833   2.090   5.252   4.478
 5609TIP3    H216834   2.094   5.240   4.327
 5610TIP3   OH216835   0.943   0.979   0.838
 5610TIP3    H116836   0.908   1.046   0.779
 5610TIP3    H216837   1.037   0.996   0.840
 5611TIP3   OH216838   2.902   1.766   0.169
 5611TIP3    H116839   2.949   1.845   0.143
 5611TIP3    H216840   2.810   1.790   0.167
 5612TIP3   OH216841   4.619   3.186   2.844
 5612TIP3    H116842   4.696   3.242   2.828
 5612TIP3    H216843   4.619   3.172   2.938
 5613TIP3   OH216844   0.522   3.289   1.623
 5613TIP3    H116845   0.508   3.214   1.681
 5613TIP3    H216846   0.480   3.363   1.667
 5614TIP3   OH216847   1.291   4.023   0.311
 5614TIP3    H116848   1.214   4.008   0.257
 5614TIP3    H216849   1.363   4.032   0.249
 5615TIP3   OH216850   5.479   5.176   2.109
 5615TIP3    H116851   5.525   5.261   2.107
 5615TIP3    H216852   5.543   5.114   2.074
 5616TIP3   OH216853   1.133   5.715   2.760
 5616TIP3    H116854   1.081   5.728   2.681
 5616TIP3    H216855   1.122   5.622   2.781
 5617TIP3   OH216856   5.447   0.992   0.822
 5617TIP3    H116857   5.457   0.935   0.746
 5617TIP3    H216858   5.387   0.946   0.880
 5618TIP3   OH216859   1.562   4.465   3.443
 5618TIP3    H116860   1.586   4.477   3.534
 5618TIP3    H216861   1.562   4.370   3.430
 5619TIP3   OH216862   2.269   4.212   5.009
 5619TIP3    H116863   2.319   4.139   5.045
 5619TIP3    H216864   2.184   4.207   5.053
 5620TIP3   OH216865   1.519   5.196   1.388
 5620TIP3    H116866   1.480   5.235   1.310
 5620TIP3    H216867   1.513   5.264   1.455
 5621TIP3   OH216868   4.891   3.257   2.872
 5621TIP3    H116869   4.946   3.310   2.929
 5621TIP3    H216870   4.893   3.169   2.910
 5622TIP3   OH216871   2.535   3.545   2.885
 5622TIP3    H116872   2.619   3.590   2.883
 5622TIP3    H216873   2.513   3.533   2.792
 5623TIP3   OH216874   1.386   1.610   3.559
 5623TIP3    H116875   1.320   1.549   3.525
 5623TIP3    H216876   1.465   1.590   3.508
 5624TIP3   OH216877   1.445   4.199   3.472
 5624TIP3    H116878   1.538   4.180   3.467
 5624TIP3    H216879   1.402   4.115   3.459
 5625TIP3   OH216880   3.666   5.226   4.499
 5625TIP3    H116881   3.695   5.275   4.422
 5625TIP3    H216882   3.584   5.184   4.472
 5626TIP3   OH216883   1.818   0.441   0.934
 5626TIP3    H116884   1.735   0.470   0.972
 5626TIP3    H216885   1.850   0.375   0.995
 5627TIP3   OH216886   5.308   0.376   2.135
 5627TIP3    H116887   5.223   0.333   2.147
 5627TIP3    H216888   5.371   0.315   2.173
 5628TIP3   OH216889   0.986   2.368   1.267
 5628TIP3    H116890   1.011   2.305   1.200
 5628TIP3    H216891   1.058   2.432   1.268
 5629TIP3   OH216892   4.076   5.740   1.740
 5629TIP3    H116893   4.072   5.644   1.736
 5629TIP3    H216894   4.041   5.769   1.656
 5630TIP3   OH216895   2.180   3.676   4.725
 5630TIP3    H116896   2.247   3.714   4.668
 5630TIP3    H216897   2.183   3.729   4.805
 5631TIP3   OH216898   4.100   2.398   4.188
 5631TIP3    H116899   4.147   2.362   4.114
 5631TIP3    H216900   4.007   2.388   4.165
 5632TIP3   OH216901   2.886   0.996   0.080
 5632TIP3    H116902   2.866   0.903   0.078
 5632TIP3    H216903   2.979   1.002   0.060
 5633TIP3   OH216904   1.044   0.909   4.199
 5633TIP3    H116905   1.040   0.999   4.231
 5633TIP3    H216906   1.060   0.856   4.277
 5634TIP3   OH216907   2.168   2.697   2.579
 5634TIP3    H116908   2.106   2.746   2.525
 5634TIP3    H216909   2.153   2.605   2.558
 5635TIP3   OH216910   4.518   1.044   0.419
 5635TIP3    H116911   4.526   1.135   0.448
 5635TIP3    H216912   4.450   1.047   0.351
 5636TIP3   OH216913   0.673   5.843   1.628
 5636TIP3    H116914   0.592   5.894   1.630
 5636TIP3    H216915   0.645   5.756   1.599
 5637TIP3   OH216916   5.595   1.535   3.608
 5637TIP3    H116917   5.541   1.607   3.578
 5637TIP3    H216918   5.632   1.565   3.691
 5638TIP3   OH216919   4.134   1.542   3.271
 5638TIP3    H116920   4.096   1.597   3.202
 5638TIP3    H216921   4.091   1.571   3.351
 5639TIP3   OH216922   3.818   2.725   1.069
 5639TIP3    H116923   3.877   2.801   1.066
 5639TIP3    H216924   3.825   2.686   0.982
 5640TIP3   OH216925   0.898   0.362   3.981
 5640TIP3    H116926   0.914   0.428   4.049
 5640TIP3    H216927   0.875   0.283   4.030
 5641TIP3   OH216928   5.413   4.651   3.949
 5641TIP3    H116929   5.369   4.715   4.004
 5641TIP3    H216930   5.430   4.697   3.866
 5642TIP3   OH216931   4.489   4.440   3.048
 5642TIP3    H116932   4.567   4.384   3.037
 5642TIP3    H216933   4.416   4.384   3.024
 5643TIP3   OH216934   4.080   3.114   1.290
 5643TIP3    H116935   4.141   3.187   1.284
 5643TIP3    H216936   3.997   3.149   1.255
 5644TIP3   OH216937   3.005   0.765   2.787
 5644TIP3    H116938   3.019   0.801   2.700
 5644TIP3    H216939   2.979   0.841   2.840
 5645TIP3   OH216940   4.637   5.325   3.364
 5645TIP3    H116941   4.698   5.255   3.341
 5645TIP3    H216942   4.685   5.406   3.343
 5646TIP3   OH216943   5.208   1.217   4.326
 5646TIP3    H116944   5.220   1.137   4.377
 5646TIP3    H216945   5.212   1.187   4.235
 5647TIP3   OH216946   1.888   1.977   1.327
 5647TIP3    H116947   1.937   1.895   1.318
 5647TIP3    H216948   1.945   2.033   1.380
 5648TIP3   OH216949   5.587   2.089   2.614
 5648TIP3    H116950   5.605   2.175   2.576
 5648TIP3    H216951   5.564   2.107   2.705
 5649TIP3   OH216952   2.734   3.015   2.466
 5649TIP3    H116953   2.790   2.983   2.395
 5649TIP3    H216954   2.728   2.942   2.527
 5650TIP3   OH216955   4.822   5.050   0.630
 5650TIP3    H116956   4.764   4.980   0.659
 5650TIP3    H216957   4.882   5.063   0.704
 5651TIP3   OH216958   0.284   2.928   0.818
 5651TIP3    H116959   0.366   2.898   0.857
 5651TIP3    H216960   0.267   2.866   0.747
 5652TIP3   OH216961   4.437   1.950   1.302
 5652TIP3    H116962   4.372   1.940   1.372
 5652TIP3    H216963   4.521   1.948   1.348
 5653TIP3   OH216964   3.833   5.170   0.180
 5653TIP3    H116965   3.801   5.176   0.270
 5653TIP3    H216966   3.919   5.212   0.182
 5654TIP3   OH216967   3.853   3.548   1.107
 5654TIP3    H116968   3.866   3.581   1.018
 5654TIP3    H216969   3.924   3.588   1.158
 5655TIP3   OH216970   0.778   1.414   4.733
 5655TIP3    H116971   0.800   1.374   4.817
 5655TIP3    H216972   0.745   1.342   4.680
 5656TIP3   OH216973   6.305   4.668   4.182
 5656TIP3    H116974   6.292   4.716   4.101
 5656TIP3    H216975   6.309   4.576   4.156
 5657TIP3   OH216976   1.192   3.147   3.324
 5657TIP3    H116977   1.151   3.065   3.297
 5657TIP3    H216978   1.120   3.210   3.328
 5658TIP3   OH216979   2.815   3.801   1.060
 5658TIP3    H116980   2.875   3.726   1.062
 5658TIP3    H216981   2.772   3.795   0.975
 5659TIP3   OH216982   2.260   5.757   3.346
 5659TIP3    H116983   2.249   5.688   3.281
 5659TIP3    H216984   2.238   5.716   3.429
 5660TIP3   OH216985   4.956   4.245   4.132
 5660TIP3    H116986   4.880   4.236   4.189
 5660TIP3    H216987   4.920   4.280   4.050
 5661TIP3   OH216988   1.855   5.793   2.498
 5661TIP3    H116989   1.773   5.756   2.465
 5661TIP3    H216990   1.829   5.849   2.570
 5662TIP3   OH216991   3.216   4.943   4.469
 5662TIP3    H116992   3.174   4.916   4.387
 5662TIP3    H216993   3.143   4.956   4.530
 5663TIP3   OH216994   1.379   4.838   0.060
 5663TIP3    H116995   1.414   4.926   0.045
 5663TIP3    H216996   1.311   4.850   0.126
 5664TIP3   OH216997   0.847   1.322   3.951
 5664TIP3    H116998   0.894   1.385   4.006
 5664TIP3    H216999   0.913   1.255   3.930
 5665TIP3   OH217000   1.738   3.912   2.356
 5665TIP3    H117001   1.657   3.922   2.405
 5665TIP3    H217002   1.807   3.918   2.422
 5666TIP3   OH217003   0.203   5.400   4.034
 5666TIP3    H117004   0.257   5.477   4.053
 5666TIP3    H217005   0.179   5.366   4.120
 5667TIP3   OH217006   0.014   0.982   1.729
 5667TIP3    H117007  -0.040   1.061   1.726
 5667TIP3    H217008   0.096   1.011   1.769
 5668TIP3   OH217009   5.251   0.974   4.446
 5668TIP3    H117010   5.192   0.912   4.488
 5668TIP3    H217011   5.319   0.991   4.512
 5669TIP3   OH217012   1.558   2.745   4.220
 5669TIP3    H117013   1.629   2.681   4.227
 5669TIP3    H217014   1.519   2.728   4.134
 5670TIP3   OH217015   2.416   5.484   0.046
 5670TIP3    H117016   2.492   5.442   0.086
 5670TIP3    H217017   2.345   5.419   0.055
 5671TIP3   OH217018   5.281   1.133   3.048
 5671TIP3    H117019   5.377   1.136   3.049
 5671TIP3    H217020   5.260   1.067   2.982
 5672TIP3   OH217021   5.692   5.110   4.486
 5672TIP3    H117022   5.758   5.041   4.482
 5672TIP3    H217023   5.612   5.069   4.453
 5673TIP3   OH217024   2.658   2.798   2.607
 5673TIP3    H117025   2.651   2.708   2.638
 5673TIP3    H217026   2.567   2.828   2.602
 5674TIP3   OH217027   1.837   1.409   0.003
 5674TIP3    H117028   1.828   1.377  -0.086
 5674TIP3    H217029   1.769   1.363   0.053
 5675TIP3   OH217030   2.025   2.485   4.171
 5675TIP3    H117031   2.110   2.456   4.203
 5675TIP3    H217032   1.963   2.421   4.206
 5676TIP3   OH217033   1.854   0.487   1.810
 5676TIP3    H117034   1.781   0.452   1.760
 5676TIP3    H217035   1.886   0.561   1.757
 5677TIP3   OH217036   4.923   5.962   2.886
 5677TIP3    H117037   4.942   5.892   2.948
 5677TIP3    H217038   4.869   6.023   2.935
 5678TIP3   OH217039   4.096   2.690   1.355
 5678TIP3    H117040   4.111   2.703   1.261
 5678TIP3    H217041   4.160   2.746   1.398
 5679TIP3   OH217042   5.490   2.230   4.884
 5679TIP3    H117043   5.502   2.138   4.860
 5679TIP3    H217044   5.474   2.275   4.801
 5680TIP3   OH217045   4.301   0.520   3.787
 5680TIP3    H117046   4.326   0.564   3.868
 5680TIP3    H217047   4.382   0.478   3.757
 5681TIP3   OH217048   0.629   3.006   2.267
 5681TIP3    H117049   0.714   3.037   2.299
 5681TIP3    H217050   0.614   2.923   2.312
 5682TIP3   OH217051   1.018   4.740   3.726
 5682TIP3    H117052   0.981   4.686   3.796
 5682TIP3    H217053   1.111   4.720   3.727
 5683TIP3   OH217054   3.129   1.529   0.407
 5683TIP3    H117055   3.056   1.489   0.359
 5683TIP3    H217056   3.119   1.495   0.496
 5684TIP3   OH217057   3.183   4.849   0.178
 5684TIP3    H117058   3.251   4.806   0.230
 5684TIP3    H217059   3.229   4.921   0.134
 5685TIP3   OH217060   4.729   4.562   4.109
 5685TIP3    H117061   4.680   4.580   4.189
 5685TIP3    H217062   4.714   4.638   4.054
 5686TIP3   OH217063   3.474   0.868   3.213
 5686TIP3    H117064   3.404   0.803   3.205
 5686TIP3    H217065   3.553   0.816   3.230
 5687TIP3   OH217066   3.548   5.907   0.103
 5687TIP3    H117067   3.575   5.817   0.085
 5687TIP3    H217068   3.495   5.931   0.027
 5688TIP3   OH217069   2.925   5.534   1.503
 5688TIP3    H117070   2.989   5.579   1.558
 5688TIP3    H217071   2.844   5.585   1.513
 5689TIP3   OH217072   1.545   2.749   1.194
 5689TIP3    H117073   1.595   2.827   1.170
 5689TIP3    H217074   1.570   2.684   1.129
 5690TIP3   OH217075   1.038   1.392   1.648
 5690TIP3    H117076   1.043   1.308   1.694
 5690TIP3    H217077   0.947   1.419   1.657
 5691TIP3   OH217078   4.937   2.043   0.909
 5691TIP3    H117079   5.014   1.986   0.916
 5691TIP3    H217080   4.972   2.132   0.910
 5692TIP3   OH217081   2.863   4.992  -0.025
 5692TIP3    H117082   2.833   5.064   0.030
 5692TIP3    H217083   2.855   4.915   0.030
 5693TIP3   OH217084   3.111   2.473   1.952
 5693TIP3    H117085   3.093   2.489   2.044
 5693TIP3    H217086   3.038   2.419   1.922
 5694TIP3   OH217087   4.799   1.450  -0.015
 5694TIP3    H117088   4.756   1.450   0.070
 5694TIP3    H217089   4.729   1.472  -0.077
 5695TIP3   OH217090   1.770   3.428   0.176
 5695TIP3    H117091   1.824   3.457   0.103
 5695TIP3    H217092   1.684   3.411   0.138
 5696TIP3   OH217093   2.494   2.259   5.035
 5696TIP3    H117094   2.404   2.254   5.003
 5696TIP3    H217095   2.511   2.173   5.075
 5697TIP3   OH217096   4.352   0.503   2.226
 5697TIP3    H117097   4.429   0.450   2.243
 5697TIP3    H217098   4.386   0.590   2.206
 5698TIP3   OH217099   2.859   3.942   1.326
 5698TIP3    H117100   2.877   3.870   1.387
 5698TIP3    H217101   2.817   3.899   1.251
 5699TIP3   OH217102   5.959   3.713   1.021
 5699TIP3    H117103   5.874   3.688   0.986
 5699TIP3    H217104   5.944   3.798   1.063
 5700TIP3   OH217105   5.731   0.731   4.717
 5700TIP3    H117106   5.657   0.673   4.700
 5700TIP3    H217107   5.709   0.812   4.671
 5701TIP3   OH217108   6.288   1.199   1.966
 5701TIP3    H117109   6.366   1.254   1.963
 5701TIP3    H217110   6.216   1.259   1.948
 5702TIP3   OH217111   1.791   2.395   0.577
 5702TIP3    H117112   1.859   2.380   0.643
 5702TIP3    H217113   1.714   2.421   0.629
 5703TIP3   OH217114   0.387   3.742   0.291
 5703TIP3    H117115   0.320   3.674   0.282
 5703TIP3    H217116   0.357   3.795   0.364
 5704TIP3   OH217117   0.735   2.266   1.683
 5704TIP3    H117118   0.746   2.171   1.692
 5704TIP3    H217119   0.811   2.294   1.631
 5705TIP3   OH217120   6.158   4.176   4.322
 5705TIP3    H117121   6.169   4.111   4.391
 5705TIP3    H217122   6.064   4.191   4.318
 5706TIP3   OH217123   1.982   1.031   3.130
 5706TIP3    H117124   2.048   0.974   3.168
 5706TIP3    H217125   2.003   1.033   3.037
 5707TIP3   OH217126   1.711   5.834   0.683
 5707TIP3    H117127   1.659   5.829   0.763
 5707TIP3    H217128   1.792   5.878   0.710
 5708TIP3   OH217129   3.178   4.914   4.207
 5708TIP3    H117130   3.084   4.896   4.202
 5708TIP3    H217131   3.200   4.951   4.121
 5709TIP3   OH217132   0.565   0.277   3.325
 5709TIP3    H117133   0.488   0.224   3.346
 5709TIP3    H217134   0.639   0.225   3.355
 5710TIP3   OH217135   0.113   5.167   2.585
 5710TIP3    H117136   0.160   5.222   2.648
 5710TIP3    H217137   0.175   5.098   2.563
 5711TIP3   OH217138   4.640   0.899   4.345
 5711TIP3    H117139   4.626   0.977   4.291
 5711TIP3    H217140   4.563   0.896   4.402
 5712TIP3   OH217141   3.014   0.015   1.727
 5712TIP3    H117142   3.053   0.067   1.656
 5712TIP3    H217143   2.951  -0.041   1.682
 5713TIP3   OH217144   3.543   0.451   0.045
 5713TIP3    H117145   3.571   0.385  -0.018
 5713TIP3    H217146   3.452   0.469   0.021
 5714TIP3   OH217147   4.648   0.568   1.380
 5714TIP3    H117148   4.662   0.476   1.356
 5714TIP3    H217149   4.713   0.584   1.449
 5715TIP3   OH217150   4.573   1.532   3.222
 5715TIP3    H117151   4.606   1.457   3.172
 5715TIP3    H217152   4.508   1.494   3.282
 5716TIP3   OH217153   1.632   4.044   2.839
 5716TIP3    H117154   1.615   4.041   2.933
 5716TIP3    H217155   1.726   4.029   2.830
 5717TIP3   OH217156   1.555   0.510   0.675
 5717TIP3    H117157   1.507   0.528   0.595
 5717TIP3    H217158   1.541   0.588   0.729
 5718TIP3   OH217159   3.594   0.854   3.840
 5718TIP3    H117160   3.516   0.855   3.895
 5718TIP3    H217161   3.665   0.832   3.899
 5719TIP3   OH217162   2.403   3.814   4.631
 5719TIP3    H117163   2.474   3.774   4.681
 5719TIP3    H217164   2.374   3.887   4.684
 5720TIP3   OH217165   5.037   3.052   2.423
 5720TIP3    H117166   4.962   3.015   2.377
 5720TIP3    H217167   5.042   3.143   2.392
 5721TIP3   OH217168   2.837   1.500   2.150
 5721TIP3    H117169   2.748   1.493   2.184
 5721TIP3    H217170   2.873   1.578   2.192
 5722TIP3   OH217171   3.412   0.537   2.959
 5722TIP3    H117172   3.491   0.592   2.960
 5722TIP3    H217173   3.376   0.549   2.871
 5723TIP3   OH217174   5.861   2.458   4.533
 5723TIP3    H117175   5.946   2.500   4.537
 5723TIP3    H217176   5.875   2.370   4.570
 5724TIP3   OH217177   0.391   0.019   4.687
 5724TIP3    H117178   0.385   0.040   4.594
 5724TIP3    H217179   0.468  -0.039   4.693
 5725TIP3   OH217180   1.729   4.143   0.336
 5725TIP3    H117181   1.645   4.157   0.380
 5725TIP3    H217182   1.786   4.108   0.404
 5726TIP3   OH217183   5.974   4.295   4.623
 5726TIP3    H117184   6.063   4.314   4.653
 5726TIP3    H217185   5.939   4.236   4.690
 5727TIP3   OH217186   1.804   6.016   5.124
 5727TIP3    H117187   1.865   5.989   5.055
 5727TIP3    H217188   1.797   5.939   5.181
 5728TIP3   OH217189   6.397   4.686   0.119
 5728TIP3    H117190   6.379   4.616   0.182
 5728TIP3    H217191   6.317   4.693   0.068
 5729TIP3   OH217192   6.177   0.864   2.754
 5729TIP3    H117193   6.085   0.842   2.736
 5729TIP3    H217194   6.227   0.804   2.698
 5730TIP3   OH217195   1.731   0.728   0.729
 5730TIP3    H117196   1.825   0.732   0.748
 5730TIP3    H217197   1.726   0.699   0.638
 5731TIP3   OH217198   0.585   4.150   2.625
 5731TIP3    H117199   0.550   4.234   2.597
 5731TIP3    H217200   0.510   4.090   2.620
 5732TIP3   OH217201   4.288   0.230   0.488
 5732TIP3    H117202   4.203   0.223   0.532
 5732TIP3    H217203   4.270   0.206   0.397
 5733TIP3   OH217204   3.970   0.286   5.032
 5733TIP3    H117205   3.963   0.251   4.943
 5733TIP3    H217206   3.964   0.209   5.089
 5734TIP3   OH217207   0.943   0.257   4.554
 5734TIP3    H117208   0.890   0.328   4.517
 5734TIP3    H217209   1.026   0.298   4.576
 5735TIP3   OH217210   0.105   2.728   4.130
 5735TIP3    H117211   0.122   2.643   4.089
 5735TIP3    H217212   0.133   2.792   4.064
 5736TIP3   OH217213   3.908   2.266   2.076
 5736TIP3    H117214   3.912   2.362   2.077
 5736TIP3    H217215   3.879   2.244   1.987
 5737TIP3   OH217216   5.018   3.575   0.145
 5737TIP3    H117217   5.065   3.550   0.224
 5737TIP3    H217218   4.982   3.493   0.110
 5738TIP3   OH217219   1.448   1.157   2.762
 5738TIP3    H117220   1.479   1.234   2.714
 5738TIP3    H217221   1.472   1.082   2.707
 5739TIP3   OH217222   2.317   0.327   3.400
 5739TIP3    H117223   2.362   0.379   3.334
 5739TIP3    H217224   2.325   0.236   3.370
 5740TIP3   OH217225   3.197   3.484   0.474
 5740TIP3    H117226   3.168   3.408   0.424
 5740TIP3    H217227   3.200   3.555   0.410
 5741TIP3   OH217228   3.987   3.304   2.315
 5741TIP3    H117229   3.962   3.391   2.346
 5741TIP3    H217230   4.017   3.259   2.394
 5742TIP3   OH217231   4.252   1.275   5.117
 5742TIP3    H117232   4.204   1.293   5.198
 5742TIP3    H217233   4.325   1.337   5.119
 5743TIP3   OH217234   2.782   5.395   4.476
 5743TIP3    H117235   2.827   5.320   4.515
 5743TIP3    H217236   2.714   5.419   4.539
 5744TIP3   OH217237   6.018   1.486   0.301
 5744TIP3    H117238   5.923   1.491   0.298
 5744TIP3    H217239   6.037   1.404   0.346
 5745TIP3   OH217240   4.915   4.478   1.081
 5745TIP3    H117241   4.956   4.542   1.140
 5745TIP3    H217242   4.957   4.493   0.997
 5746TIP3   OH217243   0.716   4.870   2.410
 5746TIP3    H117244   0.658   4.884   2.336
 5746TIP3    H217245   0.668   4.905   2.485
 5747TIP3   OH217246   1.218   5.123   1.968
 5747TIP3    H117247   1.210   5.056   1.900
 5747TIP3    H217248   1.252   5.075   2.044
 5748TIP3   OH217249   2.898   3.364   2.420
 5748TIP3    H117250   2.869   3.405   2.502
 5748TIP3    H217251   2.994   3.365   2.425
 5749TIP3   OH217252   5.778   3.748   0.027
 5749TIP3    H117253   5.742   3.833   0.052
 5749TIP3    H217254   5.870   3.753   0.054
 5750TIP3   OH217255   3.100   4.253   4.245
 5750TIP3    H117256   3.033   4.207   4.295
 5750TIP3    H217257   3.134   4.188   4.184
 5751TIP3   OH217258   4.280   2.571   2.697
 5751TIP3    H117259   4.305   2.625   2.622
 5751TIP3    H217260   4.184   2.577   2.699
 5752TIP3   OH217261   4.051   3.826   4.051
 5752TIP3    H117262   4.093   3.759   4.105
 5752TIP3    H217263   4.108   3.833   3.975
 5753TIP3   OH217264   5.805   2.070   1.670
 5753TIP3    H117265   5.836   2.094   1.583
 5753TIP3    H217266   5.780   2.153   1.711
 5754TIP3   OH217267   1.356   2.970   0.890
 5754TIP3    H117268   1.277   3.025   0.888
 5754TIP3    H217269   1.366   2.938   0.800
 5755TIP3   OH217270   3.428   2.154   4.902
 5755TIP3    H117271   3.428   2.189   4.813
 5755TIP3    H217272   3.444   2.230   4.958
 5756TIP3   OH217273   3.235   3.836   4.180
 5756TIP3    H117274   3.226   3.772   4.108
 5756TIP3    H217275   3.263   3.917   4.137
 5757TIP3   OH217276   1.656   4.085   1.788
 5757TIP3    H117277   1.723   4.032   1.743
 5757TIP3    H217278   1.623   4.027   1.856
 5758TIP3   OH217279   0.108   2.798   4.823
 5758TIP3    H117280   0.135   2.781   4.913
 5758TIP3    H217281   0.190   2.798   4.773
 5759TIP3   OH217282   4.837   3.963   3.204
 5759TIP3    H117283   4.845   3.999   3.292
 5759TIP3    H217284   4.805   3.874   3.217
 5760TIP3   OH217285   2.884   4.196   4.706
 5760TIP3    H117286   2.948   4.130   4.678
 5760TIP3    H217287   2.865   4.174   4.797
 5761TIP3   OH217288   4.691   5.151   1.355
 5761TIP3    H117289   4.785   5.163   1.340
 5761TIP3    H217290   4.686   5.086   1.425
 5762TIP3   OH217291   4.973   2.112   4.073
 5762TIP3    H117292   4.989   2.145   4.162
 5762TIP3    H217293   5.060   2.107   4.033
 5763TIP3   OH217294   0.472   1.782   2.643
 5763TIP3    H117295   0.550   1.727   2.628
 5763TIP3    H217296   0.463   1.785   2.738
 5764TIP3   OH217297   0.881   2.437   4.282
 5764TIP3    H117298   0.969   2.467   4.304
 5764TIP3    H217299   0.836   2.517   4.253
 5765TIP3   OH217300   2.032   3.192   3.214
 5765TIP3    H117301   1.951   3.212   3.168
 5765TIP3    H217302   2.012   3.113   3.265
 5766TIP3   OH217303   1.673   3.468   1.924
 5766TIP3    H117304   1.653   3.474   2.018
 5766TIP3    H217305   1.609   3.525   1.882
 5767TIP3   OH217306   3.273   0.874   3.855
 5767TIP3    H117307   3.311   0.790   3.878
 5767TIP3    H217308   3.181   0.867   3.882
 5768TIP3   OH217309   1.765   3.877   3.378
 5768TIP3    H117310   1.748   3.869   3.284
 5768TIP3    H217311   1.729   3.962   3.402
 5769TIP3   OH217312   0.564   0.831   4.632
 5769TIP3    H117313   0.516   0.792   4.706
 5769TIP3    H217314   0.654   0.803   4.645
 5770TIP3   OH217315   5.292   0.646   0.345
 5770TIP3    H117316   5.260   0.649   0.435
 5770TIP3    H217317   5.272   0.732   0.309
 5771TIP3   OH217318   3.208   1.262   1.939
 5771TIP3    H117319   3.147   1.306   1.998
 5771TIP3    H217320   3.267   1.213   1.996
 5772TIP3   OH217321   4.203   0.094   4.487
 5772TIP3    H117322   4.243   0.143   4.559
 5772TIP3    H217323   4.112   0.082   4.514
 5773TIP3   OH217324   5.798   3.981   0.414
 5773TIP3    H117325   5.862   4.018   0.353
 5773TIP3    H217326   5.723   4.039   0.409
 5774TIP3   OH217327   3.295   3.521   2.823
 5774TIP3    H117328   3.214   3.556   2.787
 5774TIP3    H217329   3.267   3.454   2.885
 5775TIP3   OH217330   4.822   0.090   0.453
 5775TIP3    H117331   4.913   0.074   0.429
 5775TIP3    H217332   4.826   0.110   0.547
 5776TIP3   OH217333   2.575   0.527   4.785
 5776TIP3    H117334   2.665   0.553   4.802
 5776TIP3    H217335   2.567   0.440   4.825
 5777TIP3   OH217336   0.145   3.678   4.912
 5777TIP3    H117337   0.082   3.730   4.862
 5777TIP3    H217338   0.127   3.588   4.887
 5778TIP3   OH217339   1.551   3.845   0.897
 5778TIP3    H117340   1.510   3.824   0.981
 5778TIP3    H217341   1.603   3.767   0.876
 5779TIP3   OH217342   1.183   3.424   2.904
 5779TIP3    H117343   1.271   3.389   2.893
 5779TIP3    H217344   1.125   3.349   2.895
 5780TIP3   OH217345   3.970   1.133   0.846
 5780TIP3    H117346   3.973   1.198   0.775
 5780TIP3    H217347   4.057   1.137   0.885
 5781TIP3   OH217348   5.839   4.647   0.161
 5781TIP3    H117349   5.751   4.612   0.171
 5781TIP3    H217350   5.862   4.680   0.248
 5782TIP3   OH217351   1.080   0.683   3.679
 5782TIP3    H117352   1.008   0.667   3.618
 5782TIP3    H217353   1.037   0.708   3.761
 5783TIP3   OH217354   0.031   0.517   5.057
 5783TIP3    H117355   0.077   0.510   4.973
 5783TIP3    H217356   0.025   0.427   5.089
 5784TIP3   OH217357   5.324   3.555   3.431
 5784TIP3    H117358   5.273   3.616   3.379
 5784TIP3    H217359   5.371   3.501   3.367
 5785TIP3   OH217360   2.769   4.384   1.431
 5785TIP3    H117361   2.711   4.320   1.389
 5785TIP3    H217362   2.849   4.334   1.450
 5786TIP3   OH217363   0.141   0.378   0.585
 5786TIP3    H117364   0.143   0.382   0.489
 5786TIP3    H217365   0.049   0.372   0.607
 5787TIP3   OH217366   2.698   5.186   1.054
 5787TIP3    H117367   2.675   5.188   0.961
 5787TIP3    H217368   2.685   5.275   1.084
 5788TIP3   OH217369   5.757   0.773   1.945
 5788TIP3    H117370   5.716   0.750   2.028
 5788TIP3    H217371   5.695   0.742   1.879
 5789TIP3   OH217372   4.785   1.844   1.019
 5789TIP3    H117373   4.785   1.856   1.114
 5789TIP3    H217374   4.847   1.908   0.987
 5790TIP3   OH217375   0.153   4.523   2.098
 5790TIP3    H117376   0.209   4.480   2.032
 5790TIP3    H217377   0.077   4.553   2.049
 5791TIP3   OH217378   3.906   2.993   3.549
 5791TIP3    H117379   3.983   2.941   3.574
 5791TIP3    H217380   3.911   3.071   3.603
 5792TIP3   OH217381   0.219   5.080   1.628
 5792TIP3    H117382   0.217   5.041   1.716
 5792TIP3    H217383   0.225   5.174   1.645
 5793TIP3   OH217384   5.965   3.557   4.269
 5793TIP3    H117385   5.886   3.512   4.242
 5793TIP3    H217386   6.018   3.490   4.313
 5794TIP3   OH217387   4.497   1.345   2.619
 5794TIP3    H117388   4.567   1.390   2.570
 5794TIP3    H217389   4.428   1.411   2.628
 5795TIP3   OH217390   4.258   5.614   2.827
 5795TIP3    H117391   4.235   5.611   2.734
 5795TIP3    H217392   4.269   5.707   2.847
 5796TIP3   OH217393   3.771   4.910   1.169
 5796TIP3    H117394   3.848   4.866   1.131
 5796TIP3    H217395   3.777   4.892   1.263
 5797TIP3   OH217396   5.500   0.125   1.765
 5797TIP3    H117397   5.595   0.128   1.762
 5797TIP3    H217398   5.473   0.215   1.746
 5798TIP3   OH217399   3.264   1.200   1.106
 5798TIP3    H117400   3.249   1.251   1.026
 5798TIP3    H217401   3.332   1.137   1.082
 5799TIP3   OH217402   0.963   5.057   2.647
 5799TIP3    H117403   0.969   4.963   2.634
 5799TIP3    H217404   1.044   5.092   2.611
 5800TIP3   OH217405   5.638   4.210   4.013
 5800TIP3    H117406   5.623   4.304   4.024
 5800TIP3    H217407   5.695   4.203   3.937
 5801TIP3   OH217408   3.855   5.749   1.968
 5801TIP3    H117409   3.898   5.769   1.885
 5801TIP3    H217410   3.870   5.656   1.981
 5802TIP3   OH217411   2.948   1.245   2.923
 5802TIP3    H117412   3.028   1.279   2.962
 5802TIP3    H217413   2.886   1.239   2.996
 5803TIP3   OH217414   4.801   5.291   0.556
 5803TIP3    H117415   4.744   5.294   0.480
 5803TIP3    H217416   4.814   5.198   0.573
 5804TIP3   OH217417   2.433   4.163   3.778
 5804TIP3    H117418   2.513   4.187   3.824
 5804TIP3    H217419   2.454   4.176   3.685
 5805TIP3   OH217420   1.061   0.586   0.069
 5805TIP3    H117421   0.973   0.583   0.106
 5805TIP3    H217422   1.049   0.622  -0.019
 5806TIP3   OH217423   1.096   2.586   4.467
 5806TIP3    H117424   1.143   2.526   4.524
 5806TIP3    H217425   1.006   2.585   4.499
 5807TIP3   OH217426   6.314   5.159   1.810
 5807TIP3    H117427   6.251   5.222   1.776
 5807TIP3    H217428   6.393   5.211   1.827
 5808TIP3   OH217429   3.358   0.384   2.397
 5808TIP3    H117430   3.361   0.476   2.425
 5808TIP3    H217431   3.285   0.380   2.336
 5809TIP3   OH217432   3.275  -0.017   4.684
 5809TIP3    H117433   3.274   0.076   4.661
 5809TIP3    H217434   3.209  -0.057   4.627
 5810TIP3   OH217435   6.059   1.241   0.375
 5810TIP3    H117436   5.978   1.207   0.413
 5810TIP3    H217437   6.101   1.165   0.335
 5811TIP3   OH217438   1.262   1.337   2.218
 5811TIP3    H117439   1.232   1.307   2.304
 5811TIP3    H217440   1.187   1.383   2.181
 5812TIP3   OH217441   5.288   0.890   4.196
 5812TIP3    H117442   5.252   0.922   4.279
 5812TIP3    H217443   5.223   0.915   4.131
 5813TIP3   OH217444   2.808   1.155   0.296
 5813TIP3    H117445   2.719   1.120   0.290
 5813TIP3    H217446   2.862   1.091   0.250
 5814TIP3   OH217447   4.274   1.255   3.995
 5814TIP3    H117448   4.267   1.337   3.945
 5814TIP3    H217449   4.347   1.270   4.055
 5815TIP3   OH217450   2.479   0.162   2.849
 5815TIP3    H117451   2.389   0.195   2.846
 5815TIP3    H217452   2.482   0.097   2.779
 5816TIP3   OH217453   1.057   3.174   2.872
 5816TIP3    H117454   1.085   3.097   2.823
 5816TIP3    H217455   0.961   3.170   2.871
 5817TIP3   OH217456   6.126   2.221   4.351
 5817TIP3    H117457   6.218   2.246   4.365
 5817TIP3    H217458   6.120   2.133   4.386
 5818TIP3   OH217459   1.588   1.233   2.032
 5818TIP3    H117460   1.649   1.289   1.983
 5818TIP3    H217461   1.501   1.261   2.003
 5819TIP3   OH217462   3.590   4.553   1.117
 5819TIP3    H117463   3.583   4.606   1.196
 5819TIP3    H217464   3.674   4.508   1.125
 5820TIP3   OH217465   6.160   1.862   0.748
 5820TIP3    H117466   6.078   1.883   0.705
 5820TIP3    H217467   6.156   1.767   0.763
 5821TIP3   OH217468   1.896   3.345   2.174
 5821TIP3    H117469   1.970   3.290   2.202
 5821TIP3    H217470   1.937   3.421   2.135
 5822TIP3   OH217471   3.290   1.783   2.224
 5822TIP3    H117472   3.298   1.762   2.131
 5822TIP3    H217473   3.278   1.698   2.267
 5823TIP3   OH217474   2.372   3.690   5.091
 5823TIP3    H117475   2.454   3.653   5.062
 5823TIP3    H217476   2.314   3.615   5.105
 5824TIP3   OH217477   2.963   4.199   1.504
 5824TIP3    H117478   3.039   4.163   1.458
 5824TIP3    H217479   2.935   4.128   1.562
 5825TIP3   OH217480   1.583   5.263   0.776
 5825TIP3    H117481   1.514   5.250   0.840
 5825TIP3    H217482   1.565   5.199   0.707
 5826TIP3   OH217483   6.213   4.620   0.846
 5826TIP3    H117484   6.213   4.571   0.928
 5826TIP3    H217485   6.295   4.594   0.803
 5827TIP3   OH217486   5.144   4.589   3.337
 5827TIP3    H117487   5.185   4.584   3.423
 5827TIP3    H217488   5.201   4.647   3.286
 5828TIP3   OH217489   1.940   3.455   5.146
 5828TIP3    H117490   2.013   3.399   5.120
 5828TIP3    H217491   1.862   3.405   5.121
 5829TIP3   OH217492  -0.031   5.696   3.498
 5829TIP3    H117493  -0.014   5.696   3.592
 5829TIP3    H217494   0.055   5.696   3.457
 5830TIP3   OH217495   1.882   0.380   2.384
 5830TIP3    H117496   1.859   0.406   2.295
 5830TIP3    H217497   1.799   0.349   2.422
 5831TIP3   OH217498   0.120   4.389   3.765
 5831TIP3    H117499   0.182   4.462   3.773
 5831TIP3    H217500   0.034   4.430   3.775
 5832TIP3   OH217501   2.632   5.044   2.907
 5832TIP3    H117502   2.643   5.139   2.899
 5832TIP3    H217503   2.557   5.024   2.851
 5833TIP3   OH217504   1.515   3.291   4.205
 5833TIP3    H117505   1.537   3.207   4.166
 5833TIP3    H217506   1.472   3.269   4.288
 5834TIP3   OH217507   1.379   5.857   2.708
 5834TIP3    H117508   1.375   5.871   2.613
 5834TIP3    H217509   1.289   5.838   2.734
 5835TIP3   OH217510   4.997   4.588   0.185
 5835TIP3    H117511   4.927   4.552   0.131
 5835TIP3    H217512   4.970   4.678   0.203
 5836TIP3   OH217513   0.642   5.458   3.376
 5836TIP3    H117514   0.566   5.510   3.348
 5836TIP3    H217515   0.662   5.402   3.301
 5837TIP3   OH217516   2.066   4.456   0.756
 5837TIP3    H117517   2.129   4.528   0.758
 5837TIP3    H217518   2.051   4.441   0.663
 5838TIP3   OH217519   1.502   5.227   4.482
 5838TIP3    H117520   1.577   5.169   4.478
 5838TIP3    H217521   1.533   5.304   4.530
 5839TIP3   OH217522   4.725   4.348   1.946
 5839TIP3    H117523   4.697   4.280   1.885
 5839TIP3    H217524   4.781   4.405   1.894
 5840TIP3   OH217525   0.404   2.416   2.176
 5840TIP3    H117526   0.428   2.323   2.187
 5840TIP3    H217527   0.482   2.457   2.140
 5841TIP3   OH217528   3.923   4.006   4.216
 5841TIP3    H117529   3.965   3.957   4.145
 5841TIP3    H217530   3.876   3.940   4.267
 5842TIP3   OH217531   0.664   1.027   0.295
 5842TIP3    H117532   0.641   1.049   0.204
 5842TIP3    H217533   0.602   1.078   0.347
 5843TIP3   OH217534   3.275   0.317   4.350
 5843TIP3    H117535   3.370   0.318   4.334
 5843TIP3    H217536   3.268   0.321   4.446
 5844TIP3   OH217537   3.203   5.326   0.667
 5844TIP3    H117538   3.204   5.415   0.702
 5844TIP3    H217539   3.123   5.287   0.703
 5845TIP3   OH217540   1.647   4.063   4.822
 5845TIP3    H117541   1.654   4.131   4.755
 5845TIP3    H217542   1.666   3.981   4.775
 5846TIP3   OH217543   1.580   0.126   3.329
 5846TIP3    H117544   1.564   0.165   3.244
 5846TIP3    H217545   1.671   0.150   3.349
 5847TIP3   OH217546   2.660   3.787   0.822
 5847TIP3    H117547   2.661   3.691   0.821
 5847TIP3    H217548   2.664   3.812   0.730
 5848TIP3   OH217549   5.263   4.167   0.651
 5848TIP3    H117550   5.255   4.216   0.734
 5848TIP3    H217551   5.280   4.077   0.679
 5849TIP3   OH217552   2.452   3.717   3.772
 5849TIP3    H117553   2.478   3.738   3.682
 5849TIP3    H217554   2.423   3.626   3.768
 5850TIP3   OH217555   1.927   2.120   0.765
 5850TIP3    H117556   1.996   2.085   0.709
 5850TIP3    H217557   1.968   2.131   0.850
 5851TIP3   OH217558   1.335   4.655   3.715
 5851TIP3    H117559   1.347   4.568   3.676
 5851TIP3    H217560   1.402   4.709   3.673
 5852TIP3   OH217561   2.767   3.981   4.385
 5852TIP3    H117562   2.814   3.917   4.330
 5852TIP3    H217563   2.729   3.929   4.455
 5853TIP3   OH217564   0.770   2.779   3.615
 5853TIP3    H117565   0.733   2.756   3.530
 5853TIP3    H217566   0.825   2.856   3.597
 5854TIP3   OH217567   1.208   5.363   0.861
 5854TIP3    H117568   1.141   5.315   0.813
 5854TIP3    H217569   1.252   5.296   0.915
 5855TIP3   OH217570   1.896   2.499   2.390
 5855TIP3    H117571   1.991   2.498   2.379
 5855TIP3    H217572   1.883   2.500   2.485
 5856TIP3   OH217573   5.666   4.878   3.225
 5856TIP3    H117574   5.694   4.794   3.188
 5856TIP3    H217575   5.747   4.927   3.236
 5857TIP3   OH217576   5.940   1.104   2.512
 5857TIP3    H117577   6.030   1.084   2.489
 5857TIP3    H217578   5.923   1.189   2.472
 5858TIP3   OH217579   5.404   4.591   0.820
 5858TIP3    H117580   5.386   4.662   0.881
 5858TIP3    H217581   5.381   4.627   0.734
 5859TIP3   OH217582   5.100   4.693   4.666
 5859TIP3    H117583   5.061   4.615   4.704
 5859TIP3    H217584   5.135   4.741   4.740
 5860TIP3   OH217585   5.990   3.458   4.878
 5860TIP3    H117586   5.966   3.425   4.964
 5860TIP3    H217587   5.946   3.543   4.872
 5861TIP3   OH217588   5.718   4.540   1.827
 5861TIP3    H117589   5.777   4.578   1.893
 5861TIP3    H217590   5.775   4.497   1.764
 5862TIP3   OH217591   5.621   5.614   4.963
 5862TIP3    H117592   5.541   5.621   5.015
 5862TIP3    H217593   5.607   5.536   4.908
 5863TIP3   OH217594   3.238   0.266   0.076
 5863TIP3    H117595   3.261   0.356   0.051
 5863TIP3    H217596   3.233   0.269   0.172
 5864TIP3   OH217597   1.903   0.280   0.521
 5864TIP3    H117598   1.840   0.266   0.592
 5864TIP3    H217599   1.988   0.262   0.561
 5865TIP3   OH217600   3.086   4.060   4.611
 5865TIP3    H117601   3.156   4.038   4.548
 5865TIP3    H217602   3.100   3.999   4.684
 5866TIP3   OH217603   5.553   2.740   0.821
 5866TIP3    H117604   5.504   2.756   0.902
 5866TIP3    H217605   5.625   2.803   0.825
 5867TIP3   OH217606   3.113   2.848   5.129
 5867TIP3    H117607   3.156   2.776   5.083
 5867TIP3    H217608   3.040   2.872   5.073
 5868TIP3   OH217609   1.432   0.210   5.177
 5868TIP3    H117610   1.523   0.221   5.150
 5868TIP3    H217611   1.396   0.299   5.174
 5869TIP3   OH217612   4.750   2.901   0.888
 5869TIP3    H117613   4.698   2.969   0.930
 5869TIP3    H217614   4.817   2.879   0.953
 5870TIP3   OH217615   1.215   2.469   0.092
 5870TIP3    H117616   1.299   2.512   0.109
 5870TIP3    H217617   1.237   2.393   0.039
 5871TIP3   OH217618   2.169   3.838   4.971
 5871TIP3    H117619   2.077   3.831   4.997
 5871TIP3    H217620   2.215   3.775   5.026
 5872TIP3   OH217621   3.187   0.389   2.052
 5872TIP3    H117622   3.256   0.335   2.014
 5872TIP3    H217623   3.186   0.366   2.145
 5873TIP3   OH217624   2.664   3.908   2.579
 5873TIP3    H117625   2.667   3.814   2.595
 5873TIP3    H217626   2.666   3.947   2.667
 5874TIP3   OH217627   4.564   5.289   0.364
 5874TIP3    H117628   4.564   5.194   0.352
 5874TIP3    H217629   4.622   5.322   0.295
 5875TIP3   OH217630   3.701   0.591   2.941
 5875TIP3    H117631   3.770   0.608   3.005
 5875TIP3    H217632   3.747   0.558   2.864
 5876TIP3   OH217633   2.824   3.321   0.476
 5876TIP3    H117634   2.746   3.323   0.422
 5876TIP3    H217635   2.897   3.321   0.414
 5877TIP3   OH217636   6.142   0.084   1.593
 5877TIP3    H117637   6.072   0.077   1.528
 5877TIP3    H217638   6.161   0.178   1.597
 5878TIP3   OH217639   0.167   2.269   3.414
 5878TIP3    H117640   0.251   2.306   3.386
 5878TIP3    H217641   0.125   2.340   3.462
 5879TIP3   OH217642   1.317   3.705   3.816
 5879TIP3    H117643   1.222   3.710   3.809
 5879TIP3    H217644   1.344   3.795   3.836
 5880TIP3   OH217645   5.994   1.331   2.923
 5880TIP3    H117646   5.999   1.242   2.888
 5880TIP3    H217647   6.082   1.366   2.912
 5881TIP3   OH217648   5.736   3.656   1.567
 5881TIP3    H117649   5.778   3.667   1.482
 5881TIP3    H217650   5.704   3.744   1.589
 5882TIP3   OH217651   1.492   5.228   1.912
 5882TIP3    H117652   1.535   5.150   1.945
 5882TIP3    H217653   1.407   5.198   1.883
 5883TIP3   OH217654   1.685   2.471   3.849
 5883TIP3    H117655   1.668   2.464   3.755
 5883TIP3    H217656   1.777   2.445   3.859
 5884TIP3   OH217657   6.288   1.832   2.844
 5884TIP3    H117658   6.379   1.804   2.834
 5884TIP3    H217659   6.286   1.922   2.812
 5885TIP3   OH217660   5.680   5.066   2.312
 5885TIP3    H117661   5.683   4.971   2.326
 5885TIP3    H217662   5.698   5.077   2.219
 5886TIP3   OH217663   3.206   0.239   2.724
 5886TIP3    H117664   3.195   0.326   2.687
 5886TIP3    H217665   3.226   0.253   2.816
 5887TIP3   OH217666   5.055   5.781   0.709
 5887TIP3    H117667   5.010   5.697   0.718
 5887TIP3    H217668   5.123   5.766   0.643
 5888TIP3   OH217669   2.126   4.977   2.492
 5888TIP3    H117670   2.120   4.957   2.585
 5888TIP3    H217671   2.138   5.071   2.488
 5889TIP3   OH217672   4.387   2.084   1.644
 5889TIP3    H117673   4.359   2.087   1.552
 5889TIP3    H217674   4.308   2.107   1.694
 5890TIP3   OH217675   0.004   5.039   0.285
 5890TIP3    H117676   0.061   5.071   0.354
 5890TIP3    H217677   0.063   5.015   0.214
 5891TIP3   OH217678   0.867   3.825   0.764
 5891TIP3    H117679   0.914   3.894   0.717
 5891TIP3    H217680   0.916   3.814   0.845
 5892TIP3   OH217681   2.897   0.144   4.549
 5892TIP3    H117682   2.948   0.221   4.521
 5892TIP3    H217683   2.905   0.082   4.476
 5893TIP3   OH217684   2.033   5.709   4.681
 5893TIP3    H117685   2.128   5.708   4.688
 5893TIP3    H217686   2.006   5.782   4.737
 5894TIP3   OH217687   5.911   2.458   0.248
 5894TIP3    H117688   5.999   2.427   0.226
 5894TIP3    H217689   5.921   2.501   0.333
 5895TIP3   OH217690   2.287   2.324   0.489
 5895TIP3    H117691   2.315   2.381   0.561
 5895TIP3    H217692   2.220   2.374   0.443
 5896TIP3   OH217693   5.737   0.056   1.576
 5896TIP3    H117694   5.678  -0.017   1.594
 5896TIP3    H217695   5.689   0.111   1.514
 5897TIP3   OH217696   3.842   4.089   2.246
 5897TIP3    H117697   3.911   4.095   2.180
 5897TIP3    H217698   3.860   4.007   2.292
 5898TIP3   OH217699   1.057   4.213   2.278
 5898TIP3    H117700   1.067   4.217   2.374
 5898TIP3    H217701   1.141   4.180   2.247
 5899TIP3   OH217702   1.206   2.055   3.202
 5899TIP3    H117703   1.152   1.991   3.249
 5899TIP3    H217704   1.259   2.002   3.142
 5900TIP3   OH217705   5.075   0.940   4.672
 5900TIP3    H117706   5.028   1.011   4.628
 5900TIP3    H217707   5.010   0.870   4.681
 5901TIP3   OH217708   1.506   1.630   0.907
 5901TIP3    H117709   1.455   1.673   0.975
 5901TIP3    H217710   1.534   1.702   0.850
 5902TIP3   OH217711   0.491   4.316   0.978
 5902TIP3    H117712   0.513   4.225   0.959
 5902TIP3    H217713   0.519   4.329   1.068
 5903TIP3   OH217714   1.034   1.120   1.739
 5903TIP3    H117715   1.062   1.030   1.723
 5903TIP3    H217716   1.083   1.147   1.816
 5904TIP3   OH217717   4.394   0.326   2.896
 5904TIP3    H117718   4.338   0.250   2.879
 5904TIP3    H217719   4.456   0.295   2.962
 5905TIP3   OH217720   4.407   1.940   5.112
 5905TIP3    H117721   4.402   1.850   5.079
 5905TIP3    H217722   4.450   1.932   5.197
 5906TIP3   OH217723   4.729   1.235   2.787
 5906TIP3    H117724   4.792   1.166   2.764
 5906TIP3    H217725   4.679   1.249   2.706
 5907TIP3   OH217726   5.749   0.287   1.190
 5907TIP3    H117727   5.793   0.372   1.190
 5907TIP3    H217728   5.676   0.297   1.130
 5908TIP3   OH217729   2.083   2.728   2.300
 5908TIP3    H117730   2.011   2.735   2.237
 5908TIP3    H217731   2.138   2.804   2.282
 5909TIP3   OH217732   4.036   3.380   2.904
 5909TIP3    H117733   4.084   3.314   2.953
 5909TIP3    H217734   4.104   3.430   2.857
 5910TIP3   OH217735   5.941   0.110   1.401
 5910TIP3    H117736   5.959   0.159   1.320
 5910TIP3    H217737   5.847   0.125   1.417
 5911TIP3   OH217738   3.115   4.691   3.663
 5911TIP3    H117739   3.133   4.623   3.728
 5911TIP3    H217740   3.119   4.773   3.712
 5912TIP3   OH217741   1.486   2.352   2.683
 5912TIP3    H117742   1.493   2.258   2.667
 5912TIP3    H217743   1.403   2.363   2.729
 5913TIP3   OH217744   2.267   2.222   4.677
 5913TIP3    H117745   2.285   2.144   4.730
 5913TIP3    H217746   2.242   2.187   4.592
 5914TIP3   OH217747   0.857   1.492   3.270
 5914TIP3    H117748   0.925   1.424   3.271
 5914TIP3    H217749   0.888   1.559   3.331
 5915TIP3   OH217750   3.396   0.096   3.548
 5915TIP3    H117751   3.400   0.005   3.519
 5915TIP3    H217752   3.397   0.091   3.644
 5916TIP3   OH217753   4.647   3.120   4.945
 5916TIP3    H117754   4.600   3.108   4.862
 5916TIP3    H217755   4.678   3.210   4.942
 5917TIP3   OH217756   0.862   5.840   3.593
 5917TIP3    H117757   0.859   5.764   3.534
 5917TIP3    H217758   0.773   5.874   3.594
 5918TIP3   OH217759   5.493   1.526   2.434
 5918TIP3    H117760   5.552   1.522   2.359
 5918TIP3    H217761   5.512   1.611   2.474
 5919TIP3   OH217762   5.529   0.422   1.650
 5919TIP3    H117763   5.595   0.420   1.719
 5919TIP3    H217764   5.578   0.451   1.572
 5920TIP3   OH217765   3.611   2.999   3.246
 5920TIP3    H117766   3.569   2.993   3.332
 5920TIP3    H217767   3.696   3.039   3.264
 5921TIP3   OH217768   4.749   1.665   4.706
 5921TIP3    H117769   4.835   1.657   4.666
 5921TIP3    H217770   4.718   1.752   4.680
 5922TIP3   OH217771   2.185   3.609   4.089
 5922TIP3    H117772   2.279   3.605   4.070
 5922TIP3    H217773   2.171   3.696   4.126
 5923TIP3   OH217774   0.834   2.969   0.134
 5923TIP3    H117775   0.832   3.030   0.060
 5923TIP3    H217776   0.885   3.015   0.201
 5924TIP3   OH217777   1.400   3.348   0.483
 5924TIP3    H117778   1.390   3.432   0.437
 5924TIP3    H217779   1.405   3.283   0.413
 5925TIP3   OH217780   3.461   0.475   1.295
 5925TIP3    H117781   3.517   0.514   1.228
 5925TIP3    H217782   3.427   0.395   1.254
 5926TIP3   OH217783   0.783   3.702   5.066
 5926TIP3    H117784   0.852   3.766   5.048
 5926TIP3    H217785   0.788   3.640   4.993
 5927TIP3   OH217786   5.247   5.190   4.458
 5927TIP3    H117787   5.183   5.153   4.519
 5927TIP3    H217788   5.254   5.282   4.484
 5928TIP3   OH217789   1.060   2.989   3.115
 5928TIP3    H117790   1.021   2.902   3.108
 5928TIP3    H217791   1.016   3.040   3.047
 5929TIP3   OH217792   6.118   4.423   3.577
 5929TIP3    H117793   6.055   4.492   3.558
 5929TIP3    H217794   6.173   4.459   3.647
 5930TIP3   OH217795   4.787   1.299   5.176
 5930TIP3    H117796   4.782   1.389   5.145
 5930TIP3    H217797   4.825   1.250   5.104
 5931TIP3   OH217798   3.043   5.921   2.893
 5931TIP3    H117799   2.966   5.871   2.921
 5931TIP3    H217800   3.071   5.879   2.812
 5932TIP3   OH217801   4.975   0.901   0.125
 5932TIP3    H117802   4.944   0.812   0.145
 5932TIP3    H217803   4.900   0.957   0.142
 5933TIP3   OH217804   2.596   2.873   4.413
 5933TIP3    H117805   2.626   2.875   4.504
 5933TIP3    H217806   2.670   2.838   4.364
 5934TIP3   OH217807   3.715   0.772   1.485
 5934TIP3    H117808   3.653   0.797   1.416
 5934TIP3    H217809   3.794   0.823   1.467
 5935TIP3   OH217810   2.784   2.167   3.740
 5935TIP3    H117811   2.695   2.139   3.715
 5935TIP3    H217812   2.838   2.090   3.725
 5936TIP3   OH217813   0.022   2.883   3.595
 5936TIP3    H117814   0.113   2.898   3.619
 5936TIP3    H217815   0.026   2.852   3.504
 5937TIP3   OH217816   4.142   1.071   1.862
 5937TIP3    H117817   4.161   1.052   1.954
 5937TIP3    H217818   4.057   1.032   1.847
 5938TIP3   OH217819   2.000   4.887   3.428
 5938TIP3    H117820   2.011   4.976   3.460
 5938TIP3    H217821   1.906   4.879   3.413
 5939TIP3   OH217822   2.617   5.158   1.710
 5939TIP3    H117823   2.523   5.162   1.729
 5939TIP3    H217824   2.624   5.181   1.617
 5940TIP3   OH217825   4.860   5.128   1.962
 5940TIP3    H117826   4.785   5.187   1.961
 5940TIP3    H217827   4.934   5.182   1.936
 5941TIP3   OH217828   2.628   2.931   1.023
 5941TIP3    H117829   2.687   2.856   1.015
 5941TIP3    H217830   2.616   2.962   0.933
 5942TIP3   OH217831   3.663   3.510   1.313
 5942TIP3    H117832   3.720   3.554   1.250
 5942TIP3    H217833   3.718   3.495   1.389
 5943TIP3   OH217834   4.334   2.937   3.031
 5943TIP3    H117835   4.383   2.942   3.113
 5943TIP3    H217836   4.374   2.864   2.984
 5944TIP3   OH217837   6.081   2.732   0.858
 5944TIP3    H117838   6.134   2.676   0.915
 5944TIP3    H217839   6.140   2.757   0.786
 5945TIP3   OH217840   3.173   4.746   0.631
 5945TIP3    H117841   3.234   4.721   0.700
 5945TIP3    H217842   3.113   4.672   0.624
 5946TIP3   OH217843   4.754   2.211   3.419
 5946TIP3    H117844   4.843   2.244   3.436
 5946TIP3    H217845   4.767   2.136   3.362
 5947TIP3   OH217846   0.875   3.332   1.782
 5947TIP3    H117847   0.788   3.334   1.743
 5947TIP3    H217848   0.910   3.420   1.769
 5948TIP3   OH217849   5.330   3.252   2.359
 5948TIP3    H117850   5.369   3.335   2.333
 5948TIP3    H217851   5.242   3.253   2.320
 5949TIP3   OH217852   2.937   3.460   0.683
 5949TIP3    H117853   2.881   3.419   0.617
 5949TIP3    H217854   2.877   3.481   0.755
 5950TIP3   OH217855   4.987   4.959   2.515
 5950TIP3    H117856   4.898   4.922   2.518
 5950TIP3    H217857   4.991   5.018   2.591
 5951TIP3   OH217858   1.758   1.131   2.452
 5951TIP3    H117859   1.675   1.089   2.430
 5951TIP3    H217860   1.823   1.061   2.443
 5952TIP3   OH217861   1.085   3.538   0.465
 5952TIP3    H117862   1.106   3.467   0.405
 5952TIP3    H217863   1.004   3.510   0.508
 5953TIP3   OH217864   5.318   1.346   4.828
 5953TIP3    H117865   5.319   1.258   4.789
 5953TIP3    H217866   5.317   1.329   4.923
 5954TIP3   OH217867   6.336   2.849   2.155
 5954TIP3    H117868   6.401   2.835   2.225
 5954TIP3    H217869   6.254   2.864   2.201
 5955TIP3   OH217870   2.597   2.485   2.105
 5955TIP3    H117871   2.533   2.547   2.139
 5955TIP3    H217872   2.675   2.537   2.086
 5956TIP3   OH217873   6.051   5.171   3.077
 5956TIP3    H117874   6.070   5.212   3.161
 5956TIP3    H217875   6.111   5.214   3.016
 5957TIP3   OH217876   2.493   0.557   4.188
 5957TIP3    H117877   2.569   0.501   4.178
 5957TIP3    H217878   2.420   0.497   4.205
 5958TIP3   OH217879   3.209   3.079   1.087
 5958TIP3    H117880   3.260   3.001   1.108
 5958TIP3    H217881   3.218   3.089   0.992
 5959TIP3   OH217882   5.559   4.112   0.297
 5959TIP3    H117883   5.580   4.173   0.227
 5959TIP3    H217884   5.473   4.140   0.328
 5960TIP3   OH217885   3.832   0.701   2.304
 5960TIP3    H117886   3.856   0.717   2.213
 5960TIP3    H217887   3.755   0.755   2.319
 5961TIP3   OH217888   4.275   5.272   0.276
 5961TIP3    H117889   4.359   5.318   0.271
 5961TIP3    H217890   4.287   5.193   0.223
 5962TIP3   OH217891   3.418   4.104   1.941
 5962TIP3    H117892   3.323   4.104   1.930
 5962TIP3    H217893   3.432   4.072   2.030
 5963TIP3   OH217894   2.481   3.381   2.392
 5963TIP3    H117895   2.415   3.312   2.391
 5963TIP3    H217896   2.431   3.461   2.408
 5964TIP3   OH217897   1.179   5.114   5.096
 5964TIP3    H117898   1.194   5.021   5.116
 5964TIP3    H217899   1.114   5.113   5.026
 5965TIP3   OH217900   6.049   1.221   4.029
 5965TIP3    H117901   5.962   1.224   3.990
 5965TIP3    H217902   6.033   1.205   4.122
 5966TIP3   OH217903   3.617   2.982   3.520
 5966TIP3    H117904   3.608   2.914   3.587
 5966TIP3    H217905   3.711   2.987   3.503
 5967TIP3   OH217906   2.085   3.843   2.151
 5967TIP3    H117907   1.999   3.854   2.111
 5967TIP3    H217908   2.144   3.822   2.078
 5968TIP3   OH217909   0.959   5.600   3.998
 5968TIP3    H117910   0.973   5.569   3.909
 5968TIP3    H217911   1.007   5.683   4.002
 5969TIP3   OH217912   5.158   0.641   4.631
 5969TIP3    H117913   5.081   0.620   4.684
 5969TIP3    H217914   5.215   0.691   4.689
 5970TIP3   OH217915   1.608   3.134   4.862
 5970TIP3    H117916   1.576   3.046   4.842
 5970TIP3    H217917   1.633   3.170   4.778
 5971TIP3   OH217918   1.863   5.339   2.138
 5971TIP3    H117919   1.944   5.383   2.113
 5971TIP3    H217920   1.799   5.366   2.071
 5972TIP3   OH217921   0.728   2.878   4.471
 5972TIP3    H117922   0.751   2.805   4.530
 5972TIP3    H217923   0.651   2.846   4.424
 5973TIP3   OH217924   1.515   1.382   2.320
 5973TIP3    H117925   1.429   1.365   2.283
 5973TIP3    H217926   1.576   1.339   2.260
 5974TIP3   OH217927   4.553   1.811   0.871
 5974TIP3    H117928   4.480   1.813   0.933
 5974TIP3    H217929   4.630   1.831   0.923
 5975TIP3   OH217930   1.629   4.643   1.213
 5975TIP3    H117931   1.545   4.662   1.172
 5975TIP3    H217932   1.694   4.662   1.145
 5976TIP3   OH217933   0.882   5.727   2.264
 5976TIP3    H117934   0.787   5.716   2.260
 5976TIP3    H217935   0.917   5.643   2.235
 5977TIP3   OH217936   0.552   1.281   0.522
 5977TIP3    H117937   0.569   1.191   0.552
 5977TIP3    H217938   0.566   1.335   0.600
 5978TIP3   OH217939   3.899   2.456   1.117
 5978TIP3    H117940   3.874   2.461   1.025
 5978TIP3    H217941   3.868   2.539   1.155
 5979TIP3   OH217942   1.100   0.194   3.852
 5979TIP3    H117943   1.186   0.234   3.844
 5979TIP3    H217944   1.042   0.267   3.877
 5980TIP3   OH217945   1.398   5.903   5.099
 5980TIP3    H117946   1.326   5.965   5.110
 5980TIP3    H217947   1.358   5.817   5.110
 5981TIP3   OH217948   3.642   4.272   1.580
 5981TIP3    H117949   3.577   4.204   1.561
 5981TIP3    H217950   3.726   4.225   1.578
 5982TIP3   OH217951   1.073   4.421   2.878
 5982TIP3    H117952   1.032   4.335   2.865
 5982TIP3    H217953   1.152   4.402   2.928
 5983TIP3   OH217954   0.716   4.079   0.128
 5983TIP3    H117955   0.770   4.020   0.076
 5983TIP3    H217956   0.767   4.159   0.135
 5984TIP3   OH217957   5.731   2.986   0.621
 5984TIP3    H117958   5.720   2.991   0.716
 5984TIP3    H217959   5.824   3.001   0.607
 5985TIP3   OH217960   4.854   0.275   3.207
 5985TIP3    H117961   4.812   0.354   3.174
 5985TIP3    H217962   4.921   0.307   3.268
 5986TIP3   OH217963   3.943   5.731   1.020
 5986TIP3    H117964   3.855   5.753   0.990
 5986TIP3    H217965   3.980   5.814   1.050
 5987TIP3   OH217966   3.377   1.241   4.235
 5987TIP3    H117967   3.331   1.205   4.159
 5987TIP3    H217968   3.372   1.336   4.223
 5988TIP3   OH217969   4.898   1.927   0.250
 5988TIP3    H117970   4.885   1.903   0.159
 5988TIP3    H217971   4.958   1.861   0.284
 5989TIP3   OH217972   1.684   0.274   5.051
 5989TIP3    H117973   1.676   0.369   5.040
 5989TIP3    H217974   1.770   0.253   5.017
 5990TIP3   OH217975   2.368   0.216   2.491
 5990TIP3    H117976   2.459   0.221   2.519
 5990TIP3    H217977   2.371   0.164   2.411
 5991TIP3   OH217978   4.280   3.295   4.365
 5991TIP3    H117979   4.220   3.283   4.291
 5991TIP3    H217980   4.345   3.358   4.334
 5992TIP3   OH217981   0.395   5.228   0.659
 5992TIP3    H117982   0.443   5.299   0.615
 5992TIP3    H217983   0.383   5.259   0.749
 5993TIP3   OH217984   2.215   5.561   5.098
 5993TIP3    H117985   2.309   5.552   5.113
 5993TIP3    H217986   2.183   5.471   5.086
 5994TIP3   OH217987   1.678   4.548   0.508
 5994TIP3    H117988   1.766   4.544   0.470
 5994TIP3    H217989   1.682   4.490   0.584
 5995TIP3   OH217990   4.494   1.365   2.134
 5995TIP3    H117991   4.545   1.292   2.169
 5995TIP3    H217992   4.449   1.329   2.058
 5996TIP3   OH217993   2.620   1.015   3.758
 5996TIP3    H117994   2.614   1.085   3.693
 5996TIP3    H217995   2.683   1.047   3.823
 5997TIP3   OH217996   4.059   4.862   4.616
 5997TIP3    H117997   3.981   4.880   4.563
 5997TIP3    H217998   4.056   4.927   4.687
 5998TIP3   OH217999   3.324   2.802   1.060
 5998TIP3    H118000   3.391   2.787   1.126
 5998TIP3    H218001   3.371   2.800   0.977
 5999TIP3   OH218002   5.090   0.970   4.024
 5999TIP3    H118003   5.066   1.062   4.009
 5999TIP3    H218004   5.043   0.946   4.104
 6000TIP3   OH218005   4.599   1.111   0.876
 6000TIP3    H118006   4.690   1.133   0.855
 6000TIP3    H218007   4.601   1.017   0.895
 6001TIP3   OH218008   3.670   2.230   0.572
 6001TIP3    H118009   3.614   2.299   0.609
 6001TIP3    H218010   3.755   2.272   0.562
 6002TIP3   OH218011   0.557   5.225   0.240
 6002TIP3    H118012   0.608   5.153   0.204
 6002TIP3    H218013   0.622   5.290   0.266
 6003TIP3   OH218014   0.414   4.090   0.094
 6003TIP3    H118015   0.435   4.182   0.078
 6003TIP3    H218016   0.496   4.052   0.127
 6004TIP3   OH218017   0.740   3.326   0.584
 6004TIP3    H118018   0.731   3.396   0.648
 6004TIP3    H218019   0.765   3.249   0.636
 6005TIP3   OH218020   5.854   2.440   4.943
 6005TIP3    H118021   5.937   2.413   4.983
 6005TIP3    H218022   5.873   2.446   4.849
 6006TIP3   OH218023   5.214   3.672   1.140
 6006TIP3    H118024   5.153   3.614   1.097
 6006TIP3    H218025   5.267   3.615   1.195
 6007TIP3   OH218026   1.203   2.818   4.315
 6007TIP3    H118027   1.179   2.729   4.340
 6007TIP3    H218028   1.128   2.872   4.342
 6008TIP3   OH218029   4.405   2.688   2.938
 6008TIP3    H118030   4.371   2.633   2.867
 6008TIP3    H218031   4.462   2.630   2.988
 6009TIP3   OH218032   2.020   5.251   4.635
 6009TIP3    H118033   1.974   5.334   4.646
 6009TIP3    H218034   1.984   5.195   4.704
 6010TIP3   OH218035   5.753   4.312   3.778
 6010TIP3    H118036   5.776   4.260   3.700
 6010TIP3    H218037   5.764   4.403   3.750
 6011TIP3   OH218038   4.736   5.260   4.427
 6011TIP3    H118039   4.699   5.326   4.368
 6011TIP3    H218040   4.798   5.211   4.373
 6012TIP3   OH218041   6.073   2.150   3.705
 6012TIP3    H118042   6.040   2.081   3.648
 6012TIP3    H218043   6.006   2.159   3.773
 6013TIP3   OH218044   0.405   5.650   3.836
 6013TIP3    H118045   0.451   5.586   3.890
 6013TIP3    H218046   0.448   5.646   3.751
 6014TIP3   OH218047   2.989   3.189   1.856
 6014TIP3    H118048   3.018   3.232   1.775
 6014TIP3    H218049   2.902   3.225   1.872
 6015TIP3   OH218050   2.177   5.101   2.062
 6015TIP3    H118051   2.115   5.032   2.087
 6015TIP3    H218052   2.198   5.145   2.144
 6016TIP3   OH218053   5.310   2.770   3.529
 6016TIP3    H118054   5.324   2.701   3.593
 6016TIP3    H218055   5.225   2.749   3.490
 6017TIP3   OH218056   0.586   4.485   3.780
 6017TIP3    H118057   0.610   4.525   3.696
 6017TIP3    H218058   0.526   4.414   3.756
 6018TIP3   OH218059   2.119   5.407   0.886
 6018TIP3    H118060   2.105   5.471   0.955
 6018TIP3    H218061   2.214   5.400   0.879
 6019TIP3   OH218062   3.338   2.707   4.979
 6019TIP3    H118063   3.366   2.731   4.891
 6019TIP3    H218064   3.359   2.614   4.988
 6020TIP3   OH218065   4.795   5.344   3.621
 6020TIP3    H118066   4.820   5.314   3.534
 6020TIP3    H218067   4.755   5.430   3.606
 6021TIP3   OH218068   4.844   3.649   2.091
 6021TIP3    H118069   4.824   3.624   2.001
 6021TIP3    H218070   4.785   3.596   2.145
 6022TIP3   OH218071   2.553   3.572   2.096
 6022TIP3    H118072   2.601   3.595   2.016
 6022TIP3    H218073   2.554   3.651   2.148
 6023TIP3   OH218074   0.806   1.381   4.343
 6023TIP3    H118075   0.860   1.446   4.388
 6023TIP3    H218076   0.716   1.406   4.364
 6024TIP3   OH218077   5.860   4.979   4.305
 6024TIP3    H118078   5.866   5.061   4.255
 6024TIP3    H218079   5.786   4.933   4.266
 6025TIP3   OH218080   5.413   3.544   5.181
 6025TIP3    H118081   5.396   3.597   5.259
 6025TIP3    H218082   5.427   3.608   5.111
 6026TIP3   OH218083   2.227   4.690   3.450
 6026TIP3    H118084   2.151   4.747   3.448
 6026TIP3    H218085   2.204   4.621   3.513
 6027TIP3   OH218086   2.791   1.835   3.185
 6027TIP3    H118087   2.731   1.910   3.178
 6027TIP3    H218088   2.808   1.810   3.095
 6028TIP3   OH218089   2.839   2.831   2.267
 6028TIP3    H118090   2.889   2.763   2.311
 6028TIP3    H218091   2.806   2.790   2.188
 6029TIP3   OH218092   4.565   5.761   1.145
 6029TIP3    H118093   4.490   5.723   1.190
 6029TIP3    H218094   4.628   5.689   1.137
 6030TIP3   OH218095   3.746   4.931   2.572
 6030TIP3    H118096   3.705   4.930   2.485
 6030TIP3    H218097   3.770   4.840   2.588
 6031TIP3   OH218098   1.934   1.187   4.405
 6031TIP3    H118099   1.940   1.273   4.364
 6031TIP3    H218100   2.013   1.180   4.459
 6032TIP3   OH218101   1.552   0.954   2.396
 6032TIP3    H118102   1.471   1.004   2.401
 6032TIP3    H218103   1.524   0.863   2.402
 6033TIP3   OH218104   5.832   5.883   2.926
 6033TIP3    H118105   5.881   5.908   2.848
 6033TIP3    H218106   5.771   5.816   2.896
 6034TIP3   OH218107   3.297   3.353   5.147
 6034TIP3    H118108   3.279   3.264   5.178
 6034TIP3    H218109   3.242   3.409   5.201
 6035TIP3   OH218110   1.461   1.211   1.683
 6035TIP3    H118111   1.465   1.119   1.657
 6035TIP3    H218112   1.455   1.209   1.778
 6036TIP3   OH218113   0.711   0.949   4.129
 6036TIP3    H118114   0.726   1.044   4.132
 6036TIP3    H218115   0.679   0.927   4.216
 6037TIP3   OH218116   5.548   4.768   1.386
 6037TIP3    H118117   5.478   4.704   1.380
 6037TIP3    H218118   5.628   4.717   1.377
 6038TIP3   OH218119   4.374   1.360   0.138
 6038TIP3    H118120   4.324   1.383   0.216
 6038TIP3    H218121   4.402   1.444   0.102
 6039TIP3   OH218122   1.600   5.572   3.605
 6039TIP3    H118123   1.664   5.630   3.646
 6039TIP3    H218124   1.534   5.558   3.673
 6040TIP3   OH218125   3.676   5.956   3.364
 6040TIP3    H118126   3.771   5.957   3.356
 6040TIP3    H218127   3.657   6.009   3.441
 6041TIP3   OH218128   1.812   1.116  -0.005
 6041TIP3    H118129   1.862   1.073   0.065
 6041TIP3    H218130   1.730   1.142   0.037
 6042TIP3   OH218131   1.388   5.841   4.570
 6042TIP3    H118132   1.312   5.894   4.596
 6042TIP3    H218133   1.364   5.804   4.485
 6043TIP3   OH218134   1.404   0.978   2.108
 6043TIP3    H118135   1.481   1.029   2.134
 6043TIP3    H218136   1.440   0.903   2.061
 6044TIP3   OH218137   3.516   0.840   1.243
 6044TIP3    H118138   3.471   0.786   1.178
 6044TIP3    H218139   3.592   0.875   1.197
 6045TIP3   OH218140   3.968   2.926   0.022
 6045TIP3    H118141   4.040   2.972  -0.019
 6045TIP3    H218142   3.922   2.994   0.072
 6046TIP3   OH218143   1.146   3.733   5.117
 6046TIP3    H118144   1.154   3.648   5.073
 6046TIP3    H218145   1.227   3.743   5.166
 6047TIP3   OH218146   3.627   1.278   4.358
 6047TIP3    H118147   3.657   1.188   4.364
 6047TIP3    H218148   3.537   1.271   4.328
 6048TIP3   OH218149   0.329   0.924   2.264
 6048TIP3    H118150   0.244   0.881   2.248
 6048TIP3    H218151   0.377   0.913   2.183
 6049TIP3   OH218152   0.715   3.652   1.894
 6049TIP3    H118153   0.678   3.699   1.969
 6049TIP3    H218154   0.639   3.622   1.844
 6050TIP3   OH218155   3.584   4.553   4.193
 6050TIP3    H118156   3.530   4.631   4.208
 6050TIP3    H218157   3.521   4.482   4.180
 6051TIP3   OH218158   6.016   3.838   2.483
 6051TIP3    H118159   5.963   3.831   2.562
 6051TIP3    H218160   6.097   3.881   2.512
 6052TIP3   OH218161   3.227   1.486   4.188
 6052TIP3    H118162   3.238   1.565   4.135
 6052TIP3    H218163   3.177   1.515   4.264
 6053TIP3   OH218164   6.205   4.510   3.818
 6053TIP3    H118165   6.220   4.602   3.843
 6053TIP3    H218166   6.200   4.464   3.902
 6054TIP3   OH218167   3.230   5.314   3.152
 6054TIP3    H118168   3.199   5.390   3.104
 6054TIP3    H218169   3.181   5.315   3.234
 6055TIP3   OH218170   4.895   5.081   3.974
 6055TIP3    H118171   4.949   5.013   3.932
 6055TIP3    H218172   4.855   5.037   4.049
 6056TIP3   OH218173   0.853   3.381   0.056
 6056TIP3    H118174   0.912   3.373   0.131
 6056TIP3    H218175   0.877   3.307  -0.001
 6057TIP3   OH218176   4.801   4.164   4.361
 6057TIP3    H118177   4.771   4.251   4.388
 6057TIP3    H218178   4.800   4.112   4.442
 6058TIP3   OH218179   1.621   1.844   0.745
 6058TIP3    H118180   1.598   1.930   0.712
 6058TIP3    H218181   1.703   1.857   0.792
 6059TIP3   OH218182   5.010   4.462   3.583
 6059TIP3    H118183   4.990   4.532   3.646
 6059TIP3    H218184   5.027   4.507   3.501
 6060TIP3   OH218185   1.711   4.998   4.553
 6060TIP3    H118186   1.650   4.928   4.529
 6060TIP3    H218187   1.771   4.957   4.615
 6061TIP3   OH218188   0.522   5.657   0.217
 6061TIP3    H118189   0.574   5.598   0.271
 6061TIP3    H218190   0.440   5.609   0.201
 6062TIP3   OH218191   1.193   5.676   3.213
 6062TIP3    H118192   1.099   5.687   3.204
 6062TIP3    H218193   1.215   5.720   3.295
 6063TIP3   OH218194   6.268   0.678   0.087
 6063TIP3    H118195   6.180   0.717   0.080
 6063TIP3    H218196   6.258   0.589   0.054
 6064TIP3   OH218197   4.704   3.267   3.677
 6064TIP3    H118198   4.676   3.182   3.712
 6064TIP3    H218199   4.708   3.324   3.754
 6065TIP3   OH218200   4.928   4.411   5.011
 6065TIP3    H118201   4.973   4.477   5.063
 6065TIP3    H218202   4.840   4.407   5.049
 6066TIP3   OH218203   6.062   1.707   2.700
 6066TIP3    H118204   6.114   1.683   2.623
 6066TIP3    H218205   6.114   1.773   2.745
 6067TIP3   OH218206   4.908   2.608   3.609
 6067TIP3    H118207   4.963   2.600   3.532
 6067TIP3    H218208   4.932   2.533   3.664
 6068TIP3   OH218209   4.281   0.009   3.763
 6068TIP3    H118210   4.372   0.035   3.779
 6068TIP3    H218211   4.270   0.015   3.668
 6069TIP3   OH218212   2.383   5.079   0.817
 6069TIP3    H118213   2.417   4.992   0.839
 6069TIP3    H218214   2.419   5.097   0.730
 6070TIP3   OH218215   1.993   1.225   0.518
 6070TIP3    H118216   2.012   1.259   0.606
 6070TIP3    H218217   2.011   1.131   0.525
 6071TIP3   OH218218   2.090   0.734   2.579
 6071TIP3    H118219   2.030   0.670   2.616
 6071TIP3    H218220   2.171   0.723   2.628
 6072TIP3   OH218221   3.767   3.034   0.211
 6072TIP3    H118222   3.756   3.128   0.192
 6072TIP3    H218223   3.677   3.000   0.210
 6073TIP3   OH218224   0.834   5.859   2.815
 6073TIP3    H118225   0.806   5.787   2.871
 6073TIP3    H218226   0.885   5.916   2.872
 6074TIP3   OH218227   1.067   0.078   0.764
 6074TIP3    H118228   1.149   0.096   0.810
 6074TIP3    H218229   1.005   0.142   0.799
 6075TIP3   OH218230   4.423   3.040   4.364
 6075TIP3    H118231   4.369   3.119   4.365
 6075TIP3    H218232   4.499   3.063   4.310
 6076TIP3   OH218233   5.547   2.826   1.805
 6076TIP3    H118234   5.568   2.864   1.720
 6076TIP3    H218235   5.483   2.757   1.784
 6077TIP3   OH218236   3.303   1.031   2.803
 6077TIP3    H118237   3.392   1.017   2.770
 6077TIP3    H218238   3.304   0.995   2.891
 6078TIP3   OH218239   0.446   4.754   0.746
 6078TIP3    H118240   0.373   4.814   0.730
 6078TIP3    H218241   0.417   4.699   0.818
 6079TIP3   OH218242   0.889   3.531   4.600
 6079TIP3    H118243   0.843   3.478   4.535
 6079TIP3    H218244   0.934   3.468   4.656
 6080TIP3   OH218245   4.978   0.002   4.822
 6080TIP3    H118246   4.924  -0.008   4.744
 6080TIP3    H218247   5.007   0.093   4.820
 6081TIP3   OH218248   5.494   4.682   3.111
 6081TIP3    H118249   5.474   4.660   3.019
 6081TIP3    H218250   5.496   4.598   3.156
 6082TIP3   OH218251   4.505   0.807   1.728
 6082TIP3    H118252   4.476   0.722   1.693
 6082TIP3    H218253   4.437   0.868   1.699
 6083TIP3   OH218254   6.220   2.281   0.805
 6083TIP3    H118255   6.218   2.324   0.720
 6083TIP3    H218256   6.280   2.207   0.794
 6084TIP3   OH218257   2.600   5.489   4.664
 6084TIP3    H118258   2.525   5.431   4.669
 6084TIP3    H218259   2.565   5.576   4.680
 6085TIP3   OH218260   2.367   5.806   2.215
 6085TIP3    H118261   2.277   5.806   2.245
 6085TIP3    H218262   2.383   5.896   2.185
 6086TIP3   OH218263   4.060   0.507   2.208
 6086TIP3    H118264   4.038   0.552   2.289
 6086TIP3    H218265   4.156   0.511   2.204
 6087TIP3   OH218266   3.666   3.106   5.182
 6087TIP3    H118267   3.732   3.078   5.119
 6087TIP3    H218268   3.599   3.037   5.180
 6088TIP3   OH218269   4.214   1.261   2.550
 6088TIP3    H118270   4.152   1.307   2.607
 6088TIP3    H218271   4.197   1.168   2.564
 6089TIP3   OH218272   3.733   3.822   3.369
 6089TIP3    H118273   3.750   3.734   3.404
 6089TIP3    H218274   3.720   3.876   3.447
 6090TIP3   OH218275   6.246   1.081   0.210
 6090TIP3    H118276   6.286   1.140   0.274
 6090TIP3    H218277   6.313   1.014   0.193
 6091TIP3   OH218278   2.212   2.936   1.844
 6091TIP3    H118279   2.138   2.936   1.904
 6091TIP3    H218280   2.174   2.924   1.757
 6092TIP3   OH218281   3.014   3.465   2.010
 6092TIP3    H118282   3.061   3.386   2.035
 6092TIP3    H218283   2.923   3.448   2.036
 6093TIP3   OH218284   5.286   5.128   4.142
 6093TIP3    H118285   5.255   5.158   4.227
 6093TIP3    H218286   5.262   5.197   4.081
 6094TIP3   OH218287   0.643   5.873   2.603
 6094TIP3    H118288   0.700   5.887   2.678
 6094TIP3    H218289   0.629   5.778   2.601
 6095TIP3   OH218290   6.158   3.814   4.232
 6095TIP3    H118291   6.078   3.765   4.253
 6095TIP3    H218292   6.227   3.768   4.278
 6096TIP3   OH218293   3.250   0.623   2.728
 6096TIP3    H118294   3.185   0.687   2.756
 6096TIP3    H218295   3.201   0.562   2.673
 6097TIP3   OH218296   3.395   4.718   4.318
 6097TIP3    H118297   3.337   4.791   4.296
 6097TIP3    H218298   3.336   4.643   4.328
 6098TIP3   OH218299   2.138   3.235   2.207
 6098TIP3    H118300   2.186   3.241   2.125
 6098TIP3    H218301   2.207   3.228   2.274
 6099TIP3   OH218302   5.309   0.587   0.854
 6099TIP3    H118303   5.318   0.666   0.800
 6099TIP3    H218304   5.302   0.619   0.943
 6100TIP3   OH218305   5.771   0.921   1.322
 6100TIP3    H118306   5.811   0.999   1.361
 6100TIP3    H218307   5.750   0.865   1.397
 6101TIP3   OH218308   4.328   0.523   3.365
 6101TIP3    H118309   4.283   0.572   3.434
 6101TIP3    H218310   4.282   0.548   3.284
 6102TIP3   OH218311   6.230   5.958   0.592
 6102TIP3    H118312   6.305   5.973   0.534
 6102TIP3    H218313   6.257   5.995   0.676
 6103TIP3   OH218314   4.459   0.341   2.628
 6103TIP3    H118315   4.430   0.366   2.715
 6103TIP3    H218316   4.527   0.405   2.606
 6104TIP3   OH218317   6.238   4.329   2.577
 6104TIP3    H118318   6.276   4.374   2.652
 6104TIP3    H218319   6.301   4.344   2.506
 6105TIP3   OH218320   2.807   2.909   3.344
 6105TIP3    H118321   2.864   2.864   3.281
 6105TIP3    H218322   2.865   2.972   3.387
 6106TIP3   OH218323   0.717   0.686   1.617
 6106TIP3    H118324   0.758   0.755   1.564
 6106TIP3    H218325   0.782   0.666   1.684
 6107TIP3   OH218326   3.317   4.403   3.277
 6107TIP3    H118327   3.260   4.332   3.248
 6107TIP3    H218328   3.265   4.450   3.343
 6108TIP3   OH218329   0.764   5.614   1.198
 6108TIP3    H118330   0.678   5.630   1.160
 6108TIP3    H218331   0.812   5.566   1.130
 6109TIP3   OH218332   1.389   3.684   1.122
 6109TIP3    H118333   1.389   3.628   1.044
 6109TIP3    H218334   1.328   3.642   1.182
 6110TIP3   OH218335   0.333   5.403   0.890
 6110TIP3    H118336   0.298   5.458   0.820
 6110TIP3    H218337   0.397   5.459   0.935
 6111TIP3   OH218338   4.212   2.110   4.247
 6111TIP3    H118339   4.263   2.187   4.220
 6111TIP3    H218340   4.123   2.144   4.258
 6112TIP3   OH218341   2.933   5.926   0.129
 6112TIP3    H118342   2.865   5.873   0.089
 6112TIP3    H218343   2.887   5.999   0.169
 6113TIP3   OH218344   3.864   3.745   1.372
 6113TIP3    H118345   3.888   3.680   1.437
 6113TIP3    H218346   3.942   3.752   1.316
 6114TIP3   OH218347   1.050   1.274   3.237
 6114TIP3    H118348   1.079   1.288   3.147
 6114TIP3    H218349   1.114   1.320   3.291
 6115TIP3   OH218350   0.203   4.874   0.481
 6115TIP3    H118351   0.244   4.939   0.538
 6115TIP3    H218352   0.193   4.797   0.537
 6116TIP3   OH218353   5.534   2.147   2.881
 6116TIP3    H118354   5.570   2.217   2.934
 6116TIP3    H218355   5.439   2.151   2.896
 6117TIP3   OH218356   2.878   3.205   0.866
 6117TIP3    H118357   2.909   3.244   0.948
 6117TIP3    H218358   2.830   3.275   0.822
 6118TIP3   OH218359   4.375   1.531   3.417
 6118TIP3    H118360   4.291   1.507   3.377
 6118TIP3    H218361   4.360   1.618   3.454
 6119TIP3   OH218362   5.844   3.508   4.593
 6119TIP3    H118363   5.828   3.417   4.618
 6119TIP3    H218364   5.764   3.535   4.549
 6120TIP3   OH218365   2.725   4.576   3.276
 6120TIP3    H118366   2.765   4.489   3.284
 6120TIP3    H218367   2.708   4.586   3.182
 6121TIP3   OH218368   2.831   0.917   2.250
 6121TIP3    H118369   2.740   0.946   2.249
 6121TIP3    H218370   2.866   0.951   2.332
 6122TIP3   OH218371   5.403   5.102   1.314
 6122TIP3    H118372   5.429   5.159   1.243
 6122TIP3    H218373   5.429   5.014   1.285
 6123TIP3   OH218374   4.902   1.146   4.557
 6123TIP3    H118375   4.830   1.157   4.618
 6123TIP3    H218376   4.880   1.202   4.483
 6124TIP3   OH218377   4.882   3.974   2.920
 6124TIP3    H118378   4.885   3.983   3.015
 6124TIP3    H218379   4.788   3.976   2.899
 6125TIP3   OH218380   4.117   3.256   3.590
 6125TIP3    H118381   4.064   3.294   3.660
 6125TIP3    H218382   4.184   3.206   3.635
 6126TIP3   OH218383   1.222   5.543   2.419
 6126TIP3    H118384   1.135   5.546   2.380
 6126TIP3    H218385   1.276   5.498   2.354
 6127TIP3   OH218386   5.988   2.481   1.912
 6127TIP3    H118387   5.993   2.442   2.000
 6127TIP3    H218388   5.995   2.575   1.927
 6128TIP3   OH218389   1.842   5.841   4.075
 6128TIP3    H118390   1.856   5.849   4.169
 6128TIP3    H218391   1.921   5.879   4.036
 6129TIP3   OH218392   1.708   4.981   1.404
 6129TIP3    H118393   1.623   4.940   1.387
 6129TIP3    H218394   1.689   5.075   1.405
 6130TIP3   OH218395   4.993   5.900   1.729
 6130TIP3    H118396   5.010   5.812   1.695
 6130TIP3    H218397   4.904   5.896   1.765
 6131TIP3   OH218398   2.481   0.314   1.816
 6131TIP3    H118399   2.516   0.374   1.881
 6131TIP3    H218400   2.556   0.290   1.762
 6132TIP3   OH218401   0.289   4.496   1.872
 6132TIP3    H118402   0.243   4.413   1.861
 6132TIP3    H218403   0.378   4.479   1.839
 6133TIP3   OH218404   1.887   3.847   3.918
 6133TIP3    H118405   1.796   3.818   3.913
 6133TIP3    H218406   1.939   3.768   3.905
 6134TIP3   OH218407   4.628   0.144   3.002
 6134TIP3    H118408   4.605   0.193   3.081
 6134TIP3    H218409   4.589   0.058   3.015
 6135TIP3   OH218410   4.608   3.040   3.804
 6135TIP3    H118411   4.679   2.979   3.824
 6135TIP3    H218412   4.547   3.031   3.877
 6136TIP3   OH218413   3.840   5.644   3.138
 6136TIP3    H118414   3.748   5.625   3.118
 6136TIP3    H218415   3.885   5.561   3.127
 6137TIP3   OH218416   4.765   1.209   1.213
 6137TIP3    H118417   4.794   1.253   1.293
 6137TIP3    H218418   4.843   1.209   1.157
 6138TIP3   OH218419   6.360   0.671   2.580
 6138TIP3    H118420   6.409   0.635   2.655
 6138TIP3    H218421   6.407   0.638   2.503
 6139TIP3   OH218422   0.489   1.370   0.061
 6139TIP3    H118423   0.429   1.296   0.064
 6139TIP3    H218424   0.572   1.335   0.093
 6140TIP3   OH218425   1.023   1.802   4.528
 6140TIP3    H118426   0.970   1.875   4.559
 6140TIP3    H218427   1.113   1.826   4.549
 6141TIP3   OH218428   1.668   0.659   3.780
 6141TIP3    H118429   1.599   0.663   3.846
 6141TIP3    H218430   1.749   0.674   3.829
 6142TIP3   OH218431   4.762   0.586   0.853
 6142TIP3    H118432   4.791   0.653   0.792
 6142TIP3    H218433   4.762   0.629   0.939
 6143TIP3   OH218434   6.020   0.271   3.666
 6143TIP3    H118435   5.975   0.202   3.716
 6143TIP3    H218436   6.081   0.310   3.728
 6144TIP3   OH218437   2.120   2.340   0.091
 6144TIP3    H118438   2.112   2.246   0.082
 6144TIP3    H218439   2.078   2.376   0.013
 6145TIP3   OH218440   6.144   2.122   1.235
 6145TIP3    H118441   6.225   2.110   1.185
 6145TIP3    H218442   6.175   2.133   1.326
 6146TIP3   OH218443   5.988   3.319   1.478
 6146TIP3    H118444   5.904   3.335   1.434
 6146TIP3    H218445   6.010   3.229   1.455
 6147TIP3   OH218446   4.134   3.391   5.045
 6147TIP3    H118447   4.130   3.476   5.000
 6147TIP3    H218448   4.227   3.375   5.059
 6148TIP3   OH218449   6.248   1.667   0.136
 6148TIP3    H118450   6.238   1.632   0.047
 6148TIP3    H218451   6.169   1.639   0.182
 6149TIP3   OH218452   1.675   2.835   4.576
 6149TIP3    H118453   1.606   2.863   4.516
 6149TIP3    H218454   1.628   2.795   4.649
 6150TIP3   OH218455   4.861   0.381   0.691
 6150TIP3    H118456   4.836   0.448   0.755
 6150TIP3    H218457   4.813   0.404   0.612
 6151TIP3   OH218458   0.047   4.700   4.637
 6151TIP3    H118459  -0.006   4.632   4.596
 6151TIP3    H218460  -0.015   4.768   4.663
 6152TIP3   OH218461   4.359   0.256   1.774
 6152TIP3    H118462   4.282   0.288   1.727
 6152TIP3    H218463   4.414   0.219   1.705
 6153TIP3   OH218464   4.956   4.620   2.195
 6153TIP3    H118465   4.932   4.544   2.143
 6153TIP3    H218466   4.986   4.583   2.278
 6154TIP3   OH218467   1.621   1.286   0.140
 6154TIP3    H118468   1.640   1.265   0.231
 6154TIP3    H218469   1.544   1.344   0.144
 6155TIP3   OH218470   0.891   4.454   0.897
 6155TIP3    H118471   0.858   4.464   0.807
 6155TIP3    H218472   0.979   4.492   0.894
 6156TIP3   OH218473   4.065   3.596   2.159
 6156TIP3    H118474   4.044   3.546   2.080
 6156TIP3    H218475   3.987   3.590   2.213
 6157TIP3   OH218476   5.430   0.470   3.186
 6157TIP3    H118477   5.364   0.468   3.116
 6157TIP3    H218478   5.442   0.378   3.210
 6158TIP3   OH218479   5.303   2.187   0.889
 6158TIP3    H118480   5.227   2.203   0.945
 6158TIP3    H218481   5.314   2.270   0.841
 6159TIP3   OH218482   2.850   3.346   4.114
 6159TIP3    H118483   2.838   3.254   4.090
 6159TIP3    H218484   2.879   3.388   4.033
 6160TIP3   OH218485   2.591   2.224   0.769
 6160TIP3    H118486   2.588   2.129   0.773
 6160TIP3    H218487   2.676   2.247   0.808
 6161TIP3   OH218488   5.875   1.894   2.992
 6161TIP3    H118489   5.780   1.901   2.981
 6161TIP3    H218490   5.907   1.984   2.982
 6162TIP3   OH218491   3.142   0.909   0.051
 6162TIP3    H118492   3.184   0.887  -0.032
 6162TIP3    H218493   3.212   0.904   0.116
 6163TIP3   OH218494   3.191   4.479   4.369
 6163TIP3    H118495   3.161   4.451   4.455
 6163TIP3    H218496   3.172   4.404   4.312
 6164TIP3   OH218497   5.580   5.287   4.259
 6164TIP3    H118498   5.594   5.381   4.265
 6164TIP3    H218499   5.495   5.272   4.301
 6165TIP3   OH218500   0.756   4.474   0.066
 6165TIP3    H118501   0.827   4.410   0.070
 6165TIP3    H218502   0.678   4.424   0.088
 6166TIP3   OH218503   0.649   4.759   0.550
 6166TIP3    H118504   0.569   4.753   0.601
 6166TIP3    H218505   0.646   4.845   0.510
 6167TIP3   OH218506   0.151   1.582   1.080
 6167TIP3    H118507   0.153   1.520   1.154
 6167TIP3    H218508   0.075   1.637   1.097
 6168TIP3   OH218509   2.420   4.816   4.339
 6168TIP3    H118510   2.440   4.735   4.291
 6168TIP3    H218511   2.325   4.824   4.334
 6169TIP3   OH218512   2.819   4.657   0.942
 6169TIP3    H118513   2.776   4.640   1.025
 6169TIP3    H218514   2.902   4.699   0.965
 6170TIP3   OH218515   4.638   5.823   3.476
 6170TIP3    H118516   4.623   5.728   3.484
 6170TIP3    H218517   4.714   5.840   3.532
 6171TIP3   OH218518   1.855   2.672   4.428
 6171TIP3    H118519   1.837   2.706   4.341
 6171TIP3    H218520   1.789   2.712   4.484
 6172TIP3   OH218521   4.821   2.902   3.141
 6172TIP3    H118522   4.821   2.937   3.052
 6172TIP3    H218523   4.756   2.832   3.140
 6173TIP3   OH218524   2.015   2.145   1.523
 6173TIP3    H118525   1.943   2.197   1.557
 6173TIP3    H218526   2.050   2.099   1.600
 6174TIP3   OH218527   2.920   5.243   1.798
 6174TIP3    H118528   2.836   5.226   1.841
 6174TIP3    H218529   2.926   5.339   1.797
 6175TIP3   OH218530   1.280   3.671   1.985
 6175TIP3    H118531   1.313   3.759   2.004
 6175TIP3    H218532   1.344   3.634   1.924
 6176TIP3   OH218533   5.618   1.999   3.345
 6176TIP3    H118534   5.527   1.982   3.367
 6176TIP3    H218535   5.650   1.915   3.310
 6177TIP3   OH218536   5.779   1.258   3.491
 6177TIP3    H118537   5.722   1.224   3.560
 6177TIP3    H218538   5.774   1.192   3.422
 6178TIP3   OH218539   5.940   2.423   4.216
 6178TIP3    H118540   5.986   2.394   4.294
 6178TIP3    H218541   5.959   2.517   4.210
 6179TIP3   OH218542   4.287   1.965   3.385
 6179TIP3    H118543   4.225   2.037   3.379
 6179TIP3    H218544   4.372   2.005   3.369
 6180TIP3   OH218545   1.286   5.973   3.804
 6180TIP3    H118546   1.230   5.902   3.772
 6180TIP3    H218547   1.269   5.976   3.899
 6181TIP3   OH218548   1.868   2.921   0.596
 6181TIP3    H118549   1.881   2.959   0.683
 6181TIP3    H218550   1.873   2.827   0.609
 6182TIP3   OH218551   0.442   1.278   4.054
 6182TIP3    H118552   0.517   1.273   4.113
 6182TIP3    H218553   0.421   1.187   4.033
 6183TIP3   OH218554   2.895   5.627   2.274
 6183TIP3    H118555   2.808   5.586   2.274
 6183TIP3    H218556   2.900   5.672   2.190
 6184TIP3   OH218557   1.680   1.113   4.521
 6184TIP3    H118558   1.597   1.123   4.473
 6184TIP3    H218559   1.739   1.177   4.480
 6185TIP3   OH218560   6.253   5.647   0.178
 6185TIP3    H118561   6.186   5.588   0.143
 6185TIP3    H218562   6.217   5.680   0.260
 6186TIP3   OH218563   6.157   1.583   0.763
 6186TIP3    H118564   6.136   1.506   0.710
 6186TIP3    H218565   6.252   1.577   0.778
 6187TIP3   OH218566   2.714   4.705   3.629
 6187TIP3    H118567   2.680   4.640   3.568
 6187TIP3    H218568   2.738   4.655   3.707
 6188TIP3   OH218569   4.120   4.380   4.786
 6188TIP3    H118570   4.073   4.439   4.728
 6188TIP3    H218571   4.168   4.437   4.845
 6189TIP3   OH218572   4.952   5.212   4.237
 6189TIP3    H118573   4.939   5.167   4.154
 6189TIP3    H218574   5.009   5.285   4.216
 6190TIP3   OH218575   5.611   2.385   3.002
 6190TIP3    H118576   5.662   2.385   3.084
 6190TIP3    H218577   5.538   2.443   3.019
 6191TIP3   OH218578   6.009   0.752   0.003
 6191TIP3    H118579   5.990   0.801   0.083
 6191TIP3    H218580   5.935   0.692  -0.006
 6192TIP3   OH218581   0.194   0.433   4.816
 6192TIP3    H118582   0.285   0.450   4.842
 6192TIP3    H218583   0.178   0.342   4.839
 6193TIP3   OH218584   1.304   4.403   5.141
 6193TIP3    H118585   1.285   4.497   5.141
 6193TIP3    H218586   1.243   4.366   5.077
 6194TIP3   OH218587   0.156   5.737   3.753
 6194TIP3    H118588   0.097   5.695   3.816
 6194TIP3    H218589   0.241   5.696   3.769
 6195TIP3   OH218590   3.127   0.220   5.063
 6195TIP3    H118591   3.034   0.206   5.049
 6195TIP3    H218592   3.132   0.279   5.138
 6196TIP3   OH218593  -0.004   2.037   3.345
 6196TIP3    H118594   0.031   2.121   3.375
 6196TIP3    H218595   0.073   1.989   3.314
 6197TIP3   OH218596   4.586   4.385   1.322
 6197TIP3    H118597   4.593   4.364   1.228
 6197TIP3    H218598   4.578   4.300   1.365
 6198TIP3   OH218599   2.776   3.681   2.916
 6198TIP3    H118600   2.789   3.735   2.995
 6198TIP3    H218601   2.860   3.637   2.904
 6199TIP3   OH218602   2.018   1.370   1.994
 6199TIP3    H118603   2.046   1.290   2.040
 6199TIP3    H218604   2.100   1.417   1.979
 6200TIP3   OH218605   3.906   2.262   3.607
 6200TIP3    H118606   4.001   2.278   3.607
 6200TIP3    H218607   3.886   2.237   3.517
 6201TIP3   OH218608   5.388   3.459   4.300
 6201TIP3    H118609   5.347   3.545   4.285
 6201TIP3    H218610   5.316   3.397   4.295
 6202TIP3   OH218611   5.967   5.851   0.610
 6202TIP3    H118612   6.044   5.892   0.649
 6202TIP3    H218613   5.957   5.768   0.656
 6203TIP3   OH218614   4.182   4.235   0.210
 6203TIP3    H118615   4.141   4.321   0.211
 6203TIP3    H218616   4.198   4.217   0.117
 6204TIP3   OH218617   5.930   0.657   4.883
 6204TIP3    H118618   6.015   0.649   4.840
 6204TIP3    H218619   5.875   0.703   4.820
 6205TIP3   OH218620   2.088   3.763   4.332
 6205TIP3    H118621   2.092   3.836   4.270
 6205TIP3    H218622   2.179   3.738   4.347
 6206TIP3   OH218623   4.274   1.852   1.837
 6206TIP3    H118624   4.224   1.777   1.806
 6206TIP3    H218625   4.222   1.928   1.811
 6207TIP3   OH218626   4.535   5.405   1.314
 6207TIP3    H118627   4.463   5.342   1.303
 6207TIP3    H218628   4.614   5.350   1.317
 6208TIP3   OH218629   3.842   2.863   2.332
 6208TIP3    H118630   3.898   2.879   2.256
 6208TIP3    H218631   3.872   2.927   2.397
 6209TIP3   OH218632   2.212   0.103   4.538
 6209TIP3    H118633   2.164   0.030   4.577
 6209TIP3    H218634   2.150   0.143   4.477
 6210TIP3   OH218635   2.704   4.408   0.379
 6210TIP3    H118636   2.654   4.327   0.392
 6210TIP3    H218637   2.722   4.410   0.285
 6211TIP3   OH218638   1.983   1.364   4.017
 6211TIP3    H118639   1.942   1.435   3.968
 6211TIP3    H218640   1.944   1.284   3.981
 6212TIP3   OH218641   4.797   5.484   2.139
 6212TIP3    H118642   4.733   5.536   2.187
 6212TIP3    H218643   4.810   5.406   2.192
 6213TIP3   OH218644   3.757   1.421   3.891
 6213TIP3    H118645   3.800   1.507   3.882
 6213TIP3    H218646   3.771   1.379   3.806
 6214TIP3   OH218647   1.103   4.790   4.723
 6214TIP3    H118648   1.078   4.879   4.748
 6214TIP3    H218649   1.035   4.735   4.761
 6215TIP3   OH218650   4.947   3.193   4.402
 6215TIP3    H118651   4.871   3.216   4.349
 6215TIP3    H218652   4.911   3.178   4.490
 6216TIP3   OH218653   5.201   0.858   2.490
 6216TIP3    H118654   5.189   0.934   2.546
 6216TIP3    H218655   5.260   0.801   2.539
 6217TIP3   OH218656   2.853   1.947   1.750
 6217TIP3    H118657   2.863   1.853   1.765
 6217TIP3    H218658   2.813   1.980   1.831
 6218TIP3   OH218659   0.423   3.738   1.783
 6218TIP3    H118660   0.406   3.776   1.696
 6218TIP3    H218661   0.443   3.813   1.838
 6219TIP3   OH218662   3.812   0.640   0.686
 6219TIP3    H118663   3.822   0.735   0.684
 6219TIP3    H218664   3.901   0.606   0.690
 6220TIP3   OH218665   3.599   1.559   4.220
 6220TIP3    H118666   3.635   1.477   4.254
 6220TIP3    H218667   3.551   1.597   4.295
 6221TIP3   OH218668   0.073   2.079   1.204
 6221TIP3    H118669   0.068   2.063   1.299
 6221TIP3    H218670   0.111   2.166   1.196
 6222TIP3   OH218671   1.972   3.633   4.554
 6222TIP3    H118672   1.988   3.701   4.489
 6222TIP3    H218673   2.021   3.662   4.631
 6223TIP3   OH218674   1.894   0.140   4.011
 6223TIP3    H118675   1.936   0.122   3.927
 6223TIP3    H218676   1.897   0.057   4.058
 6224TIP3   OH218677   2.848   4.966   3.114
 6224TIP3    H118678   2.761   4.927   3.106
 6224TIP3    H218679   2.870   4.957   3.207
 6225TIP3   OH218680   3.166   2.947   0.352
 6225TIP3    H118681   3.198   2.858   0.365
 6225TIP3    H218682   3.070   2.939   0.355
 6226TIP3   OH218683   4.550   5.691   2.591
 6226TIP3    H118684   4.622   5.746   2.622
 6226TIP3    H218685   4.473   5.749   2.590
 6227TIP3   OH218686   4.358   0.616   4.749
 6227TIP3    H118687   4.332   0.542   4.803
 6227TIP3    H218688   4.353   0.692   4.807
 6228TIP3   OH218689   3.446   3.877   4.621
 6228TIP3    H118690   3.522   3.934   4.608
 6228TIP3    H218691   3.379   3.912   4.563
 6229TIP3   OH218692   4.019   1.643   3.526
 6229TIP3    H118693   4.003   1.735   3.548
 6229TIP3    H218694   3.993   1.594   3.604
 6230TIP3   OH218695   3.323   0.047   1.994
 6230TIP3    H118696   3.228   0.044   2.002
 6230TIP3    H218697   3.355   0.044   2.085
 6231TIP3   OH218698   4.016   2.104   4.016
 6231TIP3    H118699   3.958   2.121   3.942
 6231TIP3    H218700   4.031   2.009   4.013
 6232TIP3   OH218701   2.173   3.015   3.515
 6232TIP3    H118702   2.183   3.006   3.420
 6232TIP3    H218703   2.079   3.030   3.528
 6233TIP3   OH218704   1.085   2.703   4.852
 6233TIP3    H118705   1.032   2.713   4.930
 6233TIP3    H218706   1.041   2.635   4.801
 6234TIP3   OH218707   5.744   2.504   3.452
 6234TIP3    H118708   5.732   2.570   3.520
 6234TIP3    H218709   5.829   2.465   3.473
 6235TIP3   OH218710   3.294   1.224   3.653
 6235TIP3    H118711   3.355   1.154   3.627
 6235TIP3    H218712   3.212   1.179   3.670
 6236TIP3   OH218713   2.926   1.068   4.983
 6236TIP3    H118714   2.837   1.102   4.990
 6236TIP3    H218715   2.973   1.108   5.056
 6237TIP3   OH218716   3.390   2.893   1.418
 6237TIP3    H118717   3.346   2.819   1.461
 6237TIP3    H218718   3.473   2.902   1.465
 6238TIP3   OH218719   1.089   1.667   0.407
 6238TIP3    H118720   1.169   1.685   0.358
 6238TIP3    H218721   1.102   1.580   0.443
 6239TIP3   OH218722   5.274   1.286   1.455
 6239TIP3    H118723   5.335   1.329   1.515
 6239TIP3    H218724   5.197   1.266   1.508
 6240TIP3   OH218725   5.683   5.224   2.979
 6240TIP3    H118726   5.688   5.302   2.924
 6240TIP3    H218727   5.610   5.242   3.039
 6241TIP3   OH218728   0.384   2.493   4.345
 6241TIP3    H118729   0.445   2.421   4.332
 6241TIP3    H218730   0.416   2.562   4.288
 6242TIP3   OH218731   1.372   2.414   1.170
 6242TIP3    H118732   1.432   2.357   1.218
 6242TIP3    H218733   1.428   2.464   1.111
 6243TIP3   OH218734   4.698   0.408   0.446
 6243TIP3    H118735   4.685   0.316   0.425
 6243TIP3    H218736   4.619   0.452   0.414
 6244TIP3   OH218737   3.249   0.620   4.494
 6244TIP3    H118738   3.343   0.637   4.500
 6244TIP3    H218739   3.208   0.693   4.541
 6245TIP3   OH218740   5.121   4.519   1.953
 6245TIP3    H118741   5.032   4.493   1.928
 6245TIP3    H218742   5.148   4.579   1.883
 6246TIP3   OH218743   4.351   1.582   1.111
 6246TIP3    H118744   4.331   1.589   1.204
 6246TIP3    H218745   4.366   1.672   1.082
 6247TIP3   OH218746   6.210   4.006   0.077
 6247TIP3    H118747   6.135   4.016   0.020
 6247TIP3    H218748   6.285   3.996   0.018
 6248TIP3   OH218749   0.467   3.755   1.271
 6248TIP3    H118750   0.487   3.844   1.242
 6248TIP3    H218751   0.543   3.704   1.244
 6249TIP3   OH218752   2.748   1.266   4.275
 6249TIP3    H118753   2.713   1.179   4.261
 6249TIP3    H218754   2.681   1.325   4.240
 6250TIP3   OH218755   3.816   1.535   2.142
 6250TIP3    H118756   3.773   1.514   2.059
 6250TIP3    H218757   3.894   1.479   2.144
 6251TIP3   OH218758   4.293   4.842   0.816
 6251TIP3    H118759   4.366   4.816   0.760
 6251TIP3    H218760   4.282   4.936   0.799
 6252TIP3   OH218761   2.917   2.673   0.131
 6252TIP3    H118762   2.883   2.588   0.106
 6252TIP3    H218763   2.950   2.661   0.220
 6253TIP3   OH218764   3.211   1.731   0.809
 6253TIP3    H118765   3.251   1.771   0.732
 6253TIP3    H218766   3.284   1.689   0.855
 6254TIP3   OH218767   3.518   0.325   3.427
 6254TIP3    H118768   3.456   0.378   3.378
 6254TIP3    H218769   3.468   0.247   3.453
 6255TIP3   OH218770   0.479   0.702   3.015
 6255TIP3    H118771   0.560   0.737   3.052
 6255TIP3    H218772   0.483   0.726   2.922
 6256TIP3   OH218773   3.269   1.338   2.762
 6256TIP3    H118774   3.247   1.371   2.850
 6256TIP3    H218775   3.284   1.245   2.775
 6257TIP3   OH218776   3.680   2.002   5.061
 6257TIP3    H118777   3.629   2.081   5.076
 6257TIP3    H218778   3.617   1.937   5.029
 6258TIP3   OH218779   4.414   5.408   2.151
 6258TIP3    H118780   4.337   5.438   2.103
 6258TIP3    H218781   4.434   5.481   2.211
 6259TIP3   OH218782   1.435   3.173   3.448
 6259TIP3    H118783   1.344   3.165   3.420
 6259TIP3    H218784   1.453   3.267   3.446
 6260TIP3   OH218785   2.715   5.793   0.024
 6260TIP3    H118786   2.623   5.815   0.038
 6260TIP3    H218787   2.717   5.750  -0.062
 6261TIP3   OH218788   5.386   3.652   2.199
 6261TIP3    H118789   5.303   3.664   2.153
 6261TIP3    H218790   5.376   3.703   2.280
 6262TIP3   OH218791   3.460   3.183   2.186
 6262TIP3    H118792   3.396   3.170   2.256
 6262TIP3    H218793   3.411   3.167   2.106
 6263TIP3   OH218794   3.729   4.912   3.821
 6263TIP3    H118795   3.792   4.892   3.751
 6263TIP3    H218796   3.688   4.828   3.841
 6264TIP3   OH218797   5.503   1.113   2.320
 6264TIP3    H118798   5.456   1.139   2.240
 6264TIP3    H218799   5.465   1.168   2.389
 6265TIP3   OH218800   6.059   2.483   3.307
 6265TIP3    H118801   6.061   2.395   3.269
 6265TIP3    H218802   6.012   2.536   3.242
 6266TIP3   OH218803   4.609   2.466   3.433
 6266TIP3    H118804   4.584   2.471   3.525
 6266TIP3    H218805   4.661   2.386   3.426
 6267TIP3   OH218806   2.915   3.942   2.453
 6267TIP3    H118807   2.974   3.980   2.517
 6267TIP3    H218808   2.828   3.951   2.492
 6268TIP3   OH218809   0.116   4.625   3.232
 6268TIP3    H118810   0.060   4.566   3.182
 6268TIP3    H218811   0.072   4.710   3.226
 6269TIP3   OH218812   2.618   3.045   4.996
 6269TIP3    H118813   2.564   3.117   5.029
 6269TIP3    H218814   2.562   2.968   5.005
 6270TIP3   OH218815   2.103   4.782   0.664
 6270TIP3    H118816   2.150   4.730   0.730
 6270TIP3    H218817   2.083   4.864   0.709
 6271TIP3   OH218818   0.781   2.757   3.884
 6271TIP3    H118819   0.786   2.749   3.789
 6271TIP3    H218820   0.761   2.849   3.900
 6272TIP3   OH218821   3.721   0.090   0.347
 6272TIP3    H118822   3.745   0.081   0.439
 6272TIP3    H218823   3.787   0.150   0.312
 6273TIP3   OH218824   6.240   3.766   0.926
 6273TIP3    H118825   6.149   3.765   0.956
 6273TIP3    H218826   6.234   3.767   0.831
 6274TIP3   OH218827   4.234   4.879   1.486
 6274TIP3    H118828   4.321   4.846   1.507
 6274TIP3    H218829   4.190   4.885   1.571
 6275TIP3   OH218830   3.671   3.392   2.567
 6275TIP3    H118831   3.648   3.417   2.657
 6275TIP3    H218832   3.760   3.423   2.556
 6276TIP3   OH218833   1.991   1.559   4.958
 6276TIP3    H118834   2.001   1.630   5.022
 6276TIP3    H218835   2.001   1.479   5.010
 6277TIP3   OH218836   2.321   3.335   2.720
 6277TIP3    H118837   2.275   3.353   2.803
 6277TIP3    H218838   2.359   3.419   2.696
 6278TIP3   OH218839   1.977   4.599   1.388
 6278TIP3    H118840   1.990   4.594   1.293
 6278TIP3    H218841   1.959   4.692   1.405
 6279TIP3   OH218842   4.892   3.423   1.650
 6279TIP3    H118843   4.976   3.460   1.621
 6279TIP3    H218844   4.837   3.421   1.572
 6280TIP3   OH218845   3.313   3.066   0.801
 6280TIP3    H118846   3.386   3.033   0.854
 6280TIP3    H218847   3.356   3.101   0.723
 6281TIP3   OH218848   3.998   1.851   0.573
 6281TIP3    H118849   3.946   1.844   0.493
 6281TIP3    H218850   4.066   1.915   0.553
 6282TIP3   OH218851   3.384   1.563   0.507
 6282TIP3    H118852   3.403   1.490   0.565
 6282TIP3    H218853   3.292   1.551   0.482
 6283TIP3   OH218854   2.704   5.653   0.576
 6283TIP3    H118855   2.649   5.648   0.654
 6283TIP3    H218856   2.781   5.702   0.605
 6284TIP3   OH218857   0.050   0.781   1.027
 6284TIP3    H118858  -0.008   0.777   0.951
 6284TIP3    H218859   0.029   0.864   1.069
 6285TIP3   OH218860   2.814   3.076   0.613
 6285TIP3    H118861   2.793   3.151   0.556
 6285TIP3    H218862   2.873   3.113   0.678
 6286TIP3   OH218863   5.963   5.135   3.970
 6286TIP3    H118864   6.046   5.157   3.927
 6286TIP3    H218865   5.946   5.209   4.029
 6287TIP3   OH218866   0.529   0.707   0.200
 6287TIP3    H118867   0.545   0.715   0.106
 6287TIP3    H218868   0.442   0.746   0.213
 6288TIP3   OH218869   3.217   3.887   1.692
 6288TIP3    H118870   3.239   3.971   1.651
 6288TIP3    H218871   3.139   3.905   1.744
 6289TIP3   OH218872   5.020   6.008   4.898
 6289TIP3    H118873   5.098   5.977   4.853
 6289TIP3    H218874   5.036   5.988   4.991
 6290TIP3   OH218875   4.452   2.391   4.351
 6290TIP3    H118876   4.441   2.418   4.442
 6290TIP3    H218877   4.478   2.470   4.305
 6291TIP3   OH218878   5.068   4.059   1.414
 6291TIP3    H118879   5.021   4.131   1.372
 6291TIP3    H218880   5.160   4.077   1.396
 6292TIP3   OH218881   5.007   5.724   0.073
 6292TIP3    H118882   5.087   5.770   0.047
 6292TIP3    H218883   4.937   5.788   0.059
 6293TIP3   OH218884   0.311   4.369   4.193
 6293TIP3    H118885   0.268   4.285   4.181
 6293TIP3    H218886   0.243   4.426   4.231
 6294TIP3   OH218887   5.842   2.776   1.806
 6294TIP3    H118888   5.930   2.813   1.805
 6294TIP3    H218889   5.785   2.849   1.828
 6295TIP3   OH218890   1.792   1.351   5.116
 6295TIP3    H118891   1.881   1.330   5.143
 6295TIP3    H218892   1.747   1.374   5.197
 6296TIP3   OH218893   0.085   0.919   3.046
 6296TIP3    H118894   0.143   0.896   2.973
 6296TIP3    H218895   0.115   0.865   3.119
 6297TIP3   OH218896   5.157   2.827   1.862
 6297TIP3    H118897   5.213   2.864   1.930
 6297TIP3    H218898   5.190   2.864   1.781
 6298TIP3   OH218899   3.644   2.694   2.801
 6298TIP3    H118900   3.642   2.757   2.874
 6298TIP3    H218901   3.736   2.668   2.796
 6299TIP3   OH218902   1.285   0.724   0.973
 6299TIP3    H118903   1.274   0.689   0.885
 6299TIP3    H218904   1.355   0.789   0.965
 6300TIP3   OH218905   0.446   0.678   1.656
 6300TIP3    H118906   0.527   0.729   1.654
 6300TIP3    H218907   0.446   0.630   1.573
 6301TIP3   OH218908   2.405   2.679   2.133
 6301TIP3    H118909   2.404   2.688   2.038
 6301TIP3    H218910   2.365   2.759   2.166
 6302TIP3   OH218911   5.522   1.283   0.861
 6302TIP3    H118912   5.438   1.320   0.834
 6302TIP3    H218913   5.499   1.202   0.907
 6303TIP3   OH218914   1.453   0.483   3.157
 6303TIP3    H118915   1.365   0.514   3.135
 6303TIP3    H218916   1.511   0.549   3.120
 6304TIP3   OH218917   0.047   3.876   4.539
 6304TIP3    H118918   0.121   3.927   4.572
 6304TIP3    H218919   0.025   3.816   4.609
 6305TIP3   OH218920   5.870   3.932   2.715
 6305TIP3    H118921   5.778   3.907   2.719
 6305TIP3    H218922   5.893   3.952   2.805
 6306TIP3   OH218923   2.833   2.525   4.834
 6306TIP3    H118924   2.895   2.503   4.903
 6306TIP3    H218925   2.770   2.452   4.835
 6307TIP3   OH218926   3.606   1.700   4.864
 6307TIP3    H118927   3.575   1.638   4.798
 6307TIP3    H218928   3.527   1.727   4.911
 6308TIP3   OH218929   6.033   4.079   0.306
 6308TIP3    H118930   6.045   4.170   0.333
 6308TIP3    H218931   6.111   4.058   0.255
 6309TIP3   OH218932   6.103   2.394   1.038
 6309TIP3    H118933   6.145   2.331   0.978
 6309TIP3    H218934   6.014   2.361   1.049
 6310TIP3   OH218935   5.990   3.414   3.033
 6310TIP3    H118936   5.942   3.341   3.073
 6310TIP3    H218937   6.081   3.397   3.055
 6311TIP3   OH218938   1.416   4.705   0.748
 6311TIP3    H118939   1.469   4.639   0.705
 6311TIP3    H218940   1.336   4.709   0.696
 6312TIP3   OH218941   2.499   4.422   2.934
 6312TIP3    H118942   2.578   4.476   2.934
 6312TIP3    H218943   2.524   4.345   2.883
 6313TIP3   OH218944   1.274   0.702   4.448
 6313TIP3    H118945   1.359   0.725   4.411
 6313TIP3    H218946   1.279   0.608   4.464
 6314TIP3   OH218947   4.348   4.418   4.485
 6314TIP3    H118948   4.265   4.371   4.486
 6314TIP3    H218949   4.404   4.367   4.428
 6315TIP3   OH218950   4.542   4.288   4.893
 6315TIP3    H118951   4.513   4.210   4.941
 6315TIP3    H218952   4.490   4.360   4.929
 6316TIP3   OH218953   0.199   1.655   2.810
 6316TIP3    H118954   0.246   1.591   2.756
 6316TIP3    H218955   0.268   1.700   2.859
 6317TIP3   OH218956   0.963   4.485   4.882
 6317TIP3    H118957   0.910   4.488   4.961
 6317TIP3    H218958   0.912   4.532   4.817
 6318TIP3   OH218959   5.549   0.116   4.608
 6318TIP3    H118960   5.550   0.028   4.645
 6318TIP3    H218961   5.634   0.153   4.630
 6319TIP3   OH218962   1.737   3.298   4.589
 6319TIP3    H118963   1.776   3.241   4.523
 6319TIP3    H218964   1.712   3.377   4.541
 6320TIP3   OH218965   2.401   5.355   0.910
 6320TIP3    H118966   2.379   5.334   1.001
 6320TIP3    H218967   2.435   5.273   0.875
 6321TIP3   OH218968   1.588   3.996   3.850
 6321TIP3    H118969   1.635   4.066   3.895
 6321TIP3    H218970   1.613   3.917   3.897
 6322TIP3   OH218971   0.444   4.256   0.543
 6322TIP3    H118972   0.474   4.325   0.602
 6322TIP3    H218973   0.456   4.292   0.455
 6323TIP3   OH218974   2.894   3.018   2.927
 6323TIP3    H118975   2.802   3.020   2.899
 6323TIP3    H218976   2.889   2.990   3.019
 6324TIP3   OH218977   4.865   0.709   3.500
 6324TIP3    H118978   4.934   0.719   3.566
 6324TIP3    H218979   4.820   0.628   3.523
 6325TIP3   OH218980   6.071   5.104   1.168
 6325TIP3    H118981   6.031   5.036   1.223
 6325TIP3    H218982   6.005   5.124   1.103
 6326TIP3   OH218983   4.023   5.653   5.071
 6326TIP3    H118984   4.095   5.602   5.034
 6326TIP3    H218985   3.944   5.610   5.038
 6327TIP3   OH218986   0.262   3.942   4.690
 6327TIP3    H118987   0.323   3.886   4.738
 6327TIP3    H218988   0.280   4.030   4.723
 6328TIP3   OH218989   6.251   4.800   5.182
 6328TIP3    H118990   6.197   4.806   5.103
 6328TIP3    H218991   6.340   4.794   5.149
 6329TIP3   OH218992   2.732   2.256   4.549
 6329TIP3    H118993   2.697   2.172   4.520
 6329TIP3    H218994   2.688   2.273   4.632
 6330TIP3   OH218995   5.639   4.815   4.195
 6330TIP3    H118996   5.650   4.792   4.103
 6330TIP3    H218997   5.567   4.878   4.195
 6331TIP3   OH218998   4.597   5.623   4.214
 6331TIP3    H118999   4.653   5.548   4.231
 6331TIP3    H219000   4.597   5.633   4.119
 6332TIP3   OH219001   3.431   1.627   4.460
 6332TIP3    H119002   3.468   1.568   4.525
 6332TIP3    H219003   3.337   1.612   4.465
 6333TIP3   OH219004   2.692   0.034   2.263
 6333TIP3    H119005   2.692   0.030   2.168
 6333TIP3    H219006   2.782   0.060   2.285
 6334TIP3   OH219007   4.961   1.492   1.660
 6334TIP3    H119008   4.903   1.566   1.679
 6334TIP3    H219009   5.027   1.495   1.729
 6335TIP3   OH219010   3.166   1.483   1.475
 6335TIP3    H119011   3.133   1.422   1.541
 6335TIP3    H219012   3.232   1.535   1.521
 6336TIP3   OH219013   2.083   5.786   2.301
 6336TIP3    H119014   2.016   5.738   2.253
 6336TIP3    H219015   2.037   5.823   2.377
 6337TIP3   OH219016   5.775   2.343   1.780
 6337TIP3    H119017   5.737   2.327   1.867
 6337TIP3    H219018   5.856   2.392   1.799
 6338TIP3   OH219019   1.063   5.579   0.660
 6338TIP3    H119020   1.140   5.619   0.620
 6338TIP3    H219021   1.098   5.515   0.722
 6339TIP3   OH219022   5.205   2.477   2.085
 6339TIP3    H119023   5.274   2.427   2.040
 6339TIP3    H219024   5.168   2.534   2.016
 6340TIP3   OH219025   4.653   4.310   0.508
 6340TIP3    H119026   4.640   4.223   0.546
 6340TIP3    H219027   4.572   4.328   0.460
 6341TIP3   OH219028   4.966   4.249   1.220
 6341TIP3    H119029   4.969   4.186   1.148
 6341TIP3    H219030   4.952   4.333   1.177
 6342TIP3   OH219031   6.148   1.675   0.456
 6342TIP3    H119032   6.120   1.598   0.408
 6342TIP3    H219033   6.241   1.661   0.474
 6343TIP3   OH219034   4.109   2.925   3.740
 6343TIP3    H119035   4.092   2.993   3.805
 6343TIP3    H219036   4.199   2.896   3.758
 6344TIP3   OH219037   4.206   4.869   2.527
 6344TIP3    H119038   4.229   4.960   2.510
 6344TIP3    H219039   4.159   4.842   2.448
 6345TIP3   OH219040   2.442   1.970   5.041
 6345TIP3    H119041   2.405   1.885   5.019
 6345TIP3    H219042   2.367   2.023   5.068
 6346TIP3   OH219043   5.572   2.551   1.411
 6346TIP3    H119044   5.625   2.563   1.490
 6346TIP3    H219045   5.635   2.522   1.344
 6347TIP3   OH219046   3.397   5.078   4.683
 6347TIP3    H119047   3.359   5.023   4.614
 6347TIP3    H219048   3.461   5.021   4.726
 6348TIP3   OH219049   2.386   2.210   4.045
 6348TIP3    H119050   2.477   2.211   4.073
 6348TIP3    H219051   2.368   2.118   4.025
 6349TIP3   OH219052   4.755   1.010   1.504
 6349TIP3    H119053   4.849   1.025   1.491
 6349TIP3    H219054   4.722   1.092   1.540
 6350TIP3   OH219055   2.854   4.537   2.308
 6350TIP3    H119056   2.825   4.627   2.324
 6350TIP3    H219057   2.947   4.544   2.286
 6351TIP3   OH219058   1.143   4.742   0.669
 6351TIP3    H119059   1.054   4.762   0.698
 6351TIP3    H219060   1.130   4.697   0.585
 6352TIP3   OH219061   2.087   4.841   4.903
 6352TIP3    H119062   2.137   4.769   4.863
 6352TIP3    H219063   2.139   4.867   4.979
 6353TIP3   OH219064   5.179   2.747   2.541
 6353TIP3    H119065   5.179   2.689   2.465
 6353TIP3    H219066   5.109   2.811   2.522
 6354TIP3   OH219067   4.767   0.562   3.159
 6354TIP3    H119068   4.766   0.651   3.194
 6354TIP3    H219069   4.691   0.558   3.102
 6355TIP3   OH219070   2.518   2.314   3.060
 6355TIP3    H119071   2.547   2.402   3.086
 6355TIP3    H219072   2.431   2.305   3.099
 6356TIP3   OH219073   0.874   4.055   2.603
 6356TIP3    H119074   0.894   3.963   2.621
 6356TIP3    H219075   0.781   4.063   2.619
 6357TIP3   OH219076   3.192   5.490   0.379
 6357TIP3    H119077   3.251   5.552   0.337
 6357TIP3    H219078   3.184   5.522   0.469
 6358TIP3   OH219079   3.527   3.298   1.014
 6358TIP3    H119080   3.577   3.218   1.006
 6358TIP3    H219081   3.476   3.287   1.094
 6359TIP3   OH219082   0.182   0.882   4.591
 6359TIP3    H119083   0.172   0.789   4.571
 6359TIP3    H219084   0.136   0.894   4.674
 6360TIP3   OH219085   4.701   1.144   4.752
 6360TIP3    H119086   4.665   1.061   4.781
 6360TIP3    H219087   4.769   1.165   4.816
 6361TIP3   OH219088   5.101   2.383   1.555
 6361TIP3    H119089   5.102   2.435   1.635
 6361TIP3    H219090   5.154   2.305   1.576
 6362TIP3   OH219091   4.216   0.066   1.422
 6362TIP3    H119092   4.227   0.117   1.342
 6362TIP3    H219093   4.290   0.094   1.477
 6363TIP3   OH219094   4.008   4.092   1.978
 6363TIP3    H119095   3.952   4.019   1.952
 6363TIP3    H219096   4.020   4.143   1.898
 6364TIP3   OH219097   4.019   3.360   0.642
 6364TIP3    H119098   4.002   3.273   0.606
 6364TIP3    H219099   4.049   3.342   0.732
 6365TIP3   OH219100   3.958   1.437   0.357
 6365TIP3    H119101   3.898   1.497   0.313
 6365TIP3    H219102   3.968   1.364   0.296
 6366TIP3   OH219103   0.895   5.028   5.064
 6366TIP3    H119104   0.936   5.048   5.148
 6366TIP3    H219105   0.801   5.032   5.082
 6367TIP3   OH219106   0.564   2.320   0.601
 6367TIP3    H119107   0.629   2.390   0.611
 6367TIP3    H219108   0.480   2.362   0.620
 6368TIP3   OH219109   0.963   1.866   2.354
 6368TIP3    H119110   1.021   1.827   2.420
 6368TIP3    H219111   1.016   1.867   2.274
 6369TIP3   OH219112   2.844   0.336   0.172
 6369TIP3    H119113   2.882   0.253   0.201
 6369TIP3    H219114   2.902   0.403   0.208
 6370TIP3   OH219115   4.047   0.829   1.646
 6370TIP3    H119116   4.023   0.740   1.620
 6370TIP3    H219117   3.963   0.875   1.652
 6371TIP3   OH219118   2.168   3.829   1.203
 6371TIP3    H119119   2.133   3.836   1.292
 6371TIP3    H219120   2.096   3.857   1.147
 6372TIP3   OH219121   5.745   5.098   2.066
 6372TIP3    H119122   5.818   5.160   2.064
 6372TIP3    H219123   5.753   5.049   1.984
 6373TIP3   OH219124   4.181   1.103   2.125
 6373TIP3    H119125   4.124   1.037   2.164
 6373TIP3    H219126   4.240   1.128   2.196
 6374TIP3   OH219127   4.478   1.492   3.831
 6374TIP3    H119128   4.477   1.572   3.884
 6374TIP3    H219129   4.386   1.476   3.810
 6375TIP3   OH219130   1.206   4.260   4.258
 6375TIP3    H119131   1.299   4.243   4.268
 6375TIP3    H219132   1.200   4.355   4.244
 6376TIP3   OH219133   5.922   0.045   3.841
 6376TIP3    H119134   5.898   0.052   3.933
 6376TIP3    H219135   5.995  -0.016   3.840
 6377TIP3   OH219136   4.303   3.645   4.976
 6377TIP3    H119137   4.327   3.706   4.906
 6377TIP3    H219138   4.386   3.614   5.011
 6378TIP3   OH219139   2.352   5.466   2.170
 6378TIP3    H119140   2.268   5.464   2.124
 6378TIP3    H219141   2.412   5.416   2.113
 6379TIP3   OH219142   2.394   1.344   0.633
 6379TIP3    H119143   2.352   1.307   0.554
 6379TIP3    H219144   2.365   1.435   0.634
 6380TIP3   OH219145   0.184   5.833   2.816
 6380TIP3    H119146   0.237   5.898   2.770
 6380TIP3    H219147   0.228   5.822   2.901
 6381TIP3   OH219148   3.104   4.325   2.432
 6381TIP3    H119149   3.180   4.384   2.429
 6381TIP3    H219150   3.132   4.247   2.385
 6382TIP3   OH219151   3.538   0.444   1.559
 6382TIP3    H119152   3.510   0.444   1.468
 6382TIP3    H219153   3.592   0.365   1.568
 6383TIP3   OH219154   4.677   1.341   3.045
 6383TIP3    H119155   4.674   1.279   2.973
 6383TIP3    H219156   4.684   1.427   3.003
 6384TIP3   OH219157   5.341   3.333   3.752
 6384TIP3    H119158   5.250   3.309   3.773
 6384TIP3    H219159   5.339   3.429   3.747
 6385TIP3   OH219160   6.042   2.304   2.135
 6385TIP3    H119161   6.133   2.317   2.159
 6385TIP3    H219162   6.041   2.219   2.090
 6386TIP3   OH219163   2.947   2.094   4.322
 6386TIP3    H119164   2.889   2.077   4.247
 6386TIP3    H219165   2.908   2.044   4.394
 6387TIP3   OH219166   2.458   2.765   2.897
 6387TIP3    H119167   2.470   2.814   2.978
 6387TIP3    H219168   2.445   2.832   2.829
 6388TIP3   OH219169   5.450   0.837   3.082
 6388TIP3    H119170   5.385   0.851   3.150
 6388TIP3    H219171   5.534   0.842   3.127
 6389TIP3   OH219172   6.209   3.748   3.072
 6389TIP3    H119173   6.167   3.834   3.081
 6389TIP3    H219174   6.230   3.742   2.979
 6390TIP3   OH219175   0.980   5.021   0.914
 6390TIP3    H119176   1.071   5.026   0.887
 6390TIP3    H219177   0.931   5.010   0.832
 6391TIP3   OH219178   6.041   0.942   0.951
 6391TIP3    H119179   6.034   0.932   0.856
 6391TIP3    H219180   5.958   0.981   0.977
 6392TIP3   OH219181   3.112   4.467   3.841
 6392TIP3    H119182   3.047   4.396   3.837
 6392TIP3    H219183   3.184   4.436   3.786
 6393TIP3   OH219184   2.289   0.328   5.055
 6393TIP3    H119185   2.320   0.410   5.094
 6393TIP3    H219186   2.345   0.261   5.093
 6394TIP3   OH219187   2.957   1.520   4.282
 6394TIP3    H119188   2.944   1.473   4.365
 6394TIP3    H219189   2.978   1.609   4.308
 6395TIP3   OH219190   2.032   5.575   2.604
 6395TIP3    H119191   2.116   5.556   2.561
 6395TIP3    H219192   1.989   5.638   2.546
 6396TIP3   OH219193   4.760   5.868   2.665
 6396TIP3    H119194   4.775   5.877   2.759
 6396TIP3    H219195   4.846   5.844   2.629
 6397TIP3   OH219196   1.980   0.854   4.990
 6397TIP3    H119197   1.915   0.925   4.982
 6397TIP3    H219198   1.933   0.784   5.034
 6398TIP3   OH219199   0.439   2.849   2.421
 6398TIP3    H119200   0.458   2.755   2.426
 6398TIP3    H219201   0.409   2.873   2.508
 6399TIP3   OH219202   5.881   0.311   1.614
 6399TIP3    H119203   5.834   0.345   1.689
 6399TIP3    H219204   5.876   0.216   1.623
 6400TIP3   OH219205   5.920   4.937   1.336
 6400TIP3    H119206   5.973   4.963   1.411
 6400TIP3    H219207   5.830   4.955   1.362
 6401TIP3   OH219208   0.280   5.320   2.734
 6401TIP3    H119209   0.375   5.332   2.746
 6401TIP3    H219210   0.247   5.408   2.719
 6402TIP3   OH219211   5.718   1.507   0.975
 6402TIP3    H119212   5.660   1.432   0.965
 6402TIP3    H219213   5.806   1.470   0.978
 6403TIP3   OH219214   1.544   5.578   1.234
 6403TIP3    H119215   1.450   5.592   1.228
 6403TIP3    H219216   1.582   5.665   1.227
 6404TIP3   OH219217   6.173   1.791   1.754
 6404TIP3    H119218   6.104   1.827   1.810
 6404TIP3    H219219   6.127   1.761   1.676
 6405TIP3   OH219220   2.260   4.379   3.927
 6405TIP3    H119221   2.241   4.469   3.957
 6405TIP3    H219222   2.332   4.389   3.865
 6406TIP3   OH219223   6.184   4.845   4.697
 6406TIP3    H119224   6.115   4.808   4.643
 6406TIP3    H219225   6.148   4.845   4.786
 6407TIP3   OH219226   2.382   5.717   4.326
 6407TIP3    H119227   2.335   5.636   4.344
 6407TIP3    H219228   2.473   5.698   4.348
 6408TIP3   OH219229   1.512   4.339   1.882
 6408TIP3    H119230   1.602   4.307   1.871
 6408TIP3    H219231   1.472   4.332   1.796
 6409TIP3   OH219232   4.249   5.939   3.578
 6409TIP3    H119233   4.236   5.901   3.491
 6409TIP3    H219234   4.339   5.914   3.601
 6410TIP3   OH219235   6.300   2.045   0.185
 6410TIP3    H119236   6.385   2.055   0.142
 6410TIP3    H219237   6.261   1.968   0.143
 6411TIP3   OH219238   5.553   0.354   4.118
 6411TIP3    H119239   5.597   0.319   4.041
 6411TIP3    H219240   5.562   0.286   4.184
 6412TIP3   OH219241   0.926   4.685   3.467
 6412TIP3    H119242   0.957   4.706   3.555
 6412TIP3    H219243   0.902   4.593   3.471
 6413TIP3   OH219244   5.036   5.088   2.752
 6413TIP3    H119245   5.033   5.180   2.725
 6413TIP3    H219246   5.121   5.079   2.795
 6414TIP3   OH219247   5.819   3.337   3.612
 6414TIP3    H119248   5.890   3.368   3.669
 6414TIP3    H219249   5.753   3.406   3.618
 6415TIP3   OH219250   0.329   0.205   4.886
 6415TIP3    H119251   0.383   0.129   4.867
 6415TIP3    H219252   0.253   0.196   4.829
 6416TIP3   OH219253   2.598   4.873   5.032
 6416TIP3    H119254   2.660   4.845   5.100
 6416TIP3    H219255   2.607   4.807   4.963
 6417TIP3   OH219256   0.740   1.291   1.922
 6417TIP3    H119257   0.816   1.238   1.898
 6417TIP3    H219258   0.709   1.253   2.004
 6418TIP3   OH219259   2.341   2.088   4.348
 6418TIP3    H119260   2.303   2.029   4.283
 6418TIP3    H219261   2.266   2.131   4.388
 6419TIP3   OH219262   1.402   3.179   4.423
 6419TIP3    H119263   1.407   3.096   4.375
 6419TIP3    H219264   1.424   3.155   4.514
 6420TIP3   OH219265   0.323   2.857   4.648
 6420TIP3    H119266   0.377   2.927   4.684
 6420TIP3    H219267   0.299   2.888   4.561
 6421TIP3   OH219268   2.345   0.860   0.741
 6421TIP3    H119269   2.403   0.809   0.797
 6421TIP3    H219270   2.362   0.828   0.653
 6422TIP3   OH219271   1.452   3.891   2.096
 6422TIP3    H119272   1.546   3.906   2.087
 6422TIP3    H219273   1.436   3.894   2.191
 6423TIP3   OH219274   1.457   0.364   1.739
 6423TIP3    H119275   1.503   0.435   1.695
 6423TIP3    H219276   1.377   0.405   1.773
 6424TIP3   OH219277   1.529   3.422   2.177
 6424TIP3    H119278   1.563   3.509   2.199
 6424TIP3    H219279   1.591   3.362   2.218
 6425TIP3   OH219280   4.099   4.249   3.743
 6425TIP3    H119281   4.105   4.247   3.648
 6425TIP3    H219282   4.129   4.336   3.768
 6426TIP3   OH219283   1.318   4.415   2.059
 6426TIP3    H119284   1.295   4.341   2.116
 6426TIP3    H219285   1.386   4.380   2.001
 6427TIP3   OH219286   3.917   1.972   0.325
 6427TIP3    H119287   3.914   2.038   0.394
 6427TIP3    H219288   3.980   2.006   0.262
 6428TIP3   OH219289   6.223   4.563   4.487
 6428TIP3    H119290   6.254   4.496   4.427
 6428TIP3    H219291   6.165   4.618   4.435
 6429TIP3   OH219292   5.696   4.255   0.783
 6429TIP3    H119293   5.725   4.278   0.695
 6429TIP3    H219294   5.753   4.304   0.841
 6430TIP3   OH219295   3.285   1.939   4.526
 6430TIP3    H119296   3.338   1.860   4.511
 6430TIP3    H219297   3.280   1.947   4.621
 6431TIP3   OH219298   6.154   4.841   3.255
 6431TIP3    H119299   6.216   4.889   3.199
 6431TIP3    H219300   6.174   4.871   3.344
 6432TIP3   OH219301   2.872   0.510   0.812
 6432TIP3    H119302   2.860   0.521   0.906
 6432TIP3    H219303   2.851   0.418   0.795
 6433TIP3   OH219304   5.127   3.644   2.045
 6433TIP3    H119305   5.091   3.679   1.964
 6433TIP3    H219306   5.050   3.615   2.094
 6434TIP3   OH219307   4.107   4.052   1.276
 6434TIP3    H119308   4.073   3.996   1.346
 6434TIP3    H219309   4.202   4.038   1.278
 6435TIP3   OH219310   2.547   5.338   2.047
 6435TIP3    H119311   2.531   5.262   1.992
 6435TIP3    H219312   2.640   5.335   2.068
 6436TIP3   OH219313   2.132  -0.007   1.589
 6436TIP3    H119314   2.209  -0.016   1.533
 6436TIP3    H219315   2.129   0.086   1.612
 6437TIP3   OH219316   3.977   4.988   1.391
 6437TIP3    H119317   4.055   4.961   1.440
 6437TIP3    H219318   3.903   4.960   1.445
 6438TIP3   OH219319   5.678   3.181   4.297
 6438TIP3    H119320   5.610   3.149   4.357
 6438TIP3    H219321   5.632   3.197   4.215
 6439TIP3   OH219322   4.941   5.335   3.879
 6439TIP3    H119323   4.890   5.356   3.801
 6439TIP3    H219324   4.910   5.248   3.905
 6440TIP3   OH219325   5.236   0.812   5.028
 6440TIP3    H119326   5.273   0.747   5.088
 6440TIP3    H219327   5.279   0.794   4.944
 6441TIP3   OH219328   1.549   4.715   3.332
 6441TIP3    H119329   1.543   4.626   3.366
 6441TIP3    H219330   1.483   4.718   3.263
 6442TIP3   OH219331   5.757   2.824   2.116
 6442TIP3    H119332   5.729   2.755   2.176
 6442TIP3    H219333   5.675   2.855   2.076
 6443TIP3   OH219334   3.560   4.879   0.353
 6443TIP3    H119335   3.615   4.893   0.430
 6443TIP3    H219336   3.488   4.825   0.385
 6444TIP3   OH219337   3.739   5.960   2.502
 6444TIP3    H119338   3.808   6.025   2.491
 6444TIP3    H219339   3.780   5.889   2.552
 6445TIP3   OH219340   0.395   4.277   3.701
 6445TIP3    H119341   0.350   4.289   3.617
 6445TIP3    H219342   0.324   4.259   3.763
 6446TIP3   OH219343   1.000   3.454   5.059
 6446TIP3    H119344   1.037   3.460   5.147
 6446TIP3    H219345   0.915   3.412   5.071
 6447TIP3   OH219346   0.257   2.375   3.709
 6447TIP3    H119347   0.352   2.365   3.704
 6447TIP3    H219348   0.229   2.300   3.762
 6448TIP3   OH219349   0.104   0.826   3.657
 6448TIP3    H119350   0.144   0.913   3.661
 6448TIP3    H219351   0.023   0.839   3.608
 6449TIP3   OH219352   1.362   4.197   2.240
 6449TIP3    H119353   1.391   4.270   2.295
 6449TIP3    H219354   1.376   4.119   2.293
 6450TIP3   OH219355   5.145   5.128   4.985
 6450TIP3    H119356   5.228   5.119   4.939
 6450TIP3    H219357   5.132   5.222   4.995
 6451TIP3   OH219358   3.449   0.742   0.995
 6451TIP3    H119359   3.533   0.727   0.952
 6451TIP3    H219360   3.387   0.688   0.946
 6452TIP3   OH219361   4.468   3.451   4.189
 6452TIP3    H119362   4.420   3.521   4.145
 6452TIP3    H219363   4.494   3.391   4.119
 6453TIP3   OH219364   3.044   0.985   1.027
 6453TIP3    H119365   3.043   0.912   1.089
 6453TIP3    H219366   3.136   1.012   1.023
 6454TIP3   OH219367   4.012   3.855   4.474
 6454TIP3    H119368   3.946   3.800   4.432
 6454TIP3    H219369   3.980   3.867   4.564
 6455TIP3   OH219370   5.943   2.508   1.449
 6455TIP3    H119371   5.921   2.474   1.536
 6455TIP3    H219372   6.033   2.538   1.456
 6456TIP3   OH219373   2.567   4.044   1.744
 6456TIP3    H119374   2.590   4.131   1.710
 6456TIP3    H219375   2.594   3.984   1.676
 6457TIP3   OH219376   4.499   5.490   2.802
 6457TIP3    H119377   4.533   5.533   2.724
 6457TIP3    H219378   4.427   5.547   2.831
 6458TIP3   OH219379   4.909   4.512   1.776
 6458TIP3    H119380   4.991   4.530   1.731
 6458TIP3    H219381   4.846   4.571   1.735
 6459TIP3   OH219382   3.312   0.933   0.589
 6459TIP3    H119383   3.247   0.978   0.534
 6459TIP3    H219384   3.395   0.953   0.547
 6460TIP3   OH219385   1.841   3.647   4.211
 6460TIP3    H119386   1.878   3.656   4.123
 6460TIP3    H219387   1.905   3.690   4.268
 6461TIP3   OH219388   3.047   3.620   3.523
 6461TIP3    H119389   2.976   3.560   3.504
 6461TIP3    H219390   3.086   3.640   3.438
 6462TIP3   OH219391   3.292   5.007   0.588
 6462TIP3    H119392   3.298   5.022   0.682
 6462TIP3    H219393   3.259   4.917   0.580
 6463TIP3   OH219394   0.584   0.778   0.490
 6463TIP3    H119395   0.674   0.774   0.521
 6463TIP3    H219396   0.591   0.766   0.395
 6464TIP3   OH219397   5.383   1.289   2.530
 6464TIP3    H119398   5.419   1.289   2.619
 6464TIP3    H219399   5.420   1.366   2.489
 6465TIP3   OH219400   2.532   0.315   3.571
 6465TIP3    H119401   2.502   0.386   3.627
 6465TIP3    H219402   2.457   0.296   3.514
 6466TIP3   OH219403   5.924   0.920   1.760
 6466TIP3    H119404   5.856   0.862   1.795
 6466TIP3    H219405   6.004   0.892   1.806
 6467TIP3   OH219406   2.928   5.216   3.985
 6467TIP3    H119407   2.933   5.122   4.004
 6467TIP3    H219408   2.844   5.226   3.939
 6468TIP3   OH219409   3.865   2.923   5.074
 6468TIP3    H119410   3.894   2.842   5.033
 6468TIP3    H219411   3.844   2.898   5.164
 6469TIP3   OH219412   5.766   5.349   4.625
 6469TIP3    H119413   5.861   5.357   4.614
 6469TIP3    H219414   5.738   5.291   4.554
 6470TIP3   OH219415   2.656   4.662   0.728
 6470TIP3    H119416   2.702   4.637   0.808
 6470TIP3    H219417   2.715   4.722   0.683
 6471TIP3   OH219418   3.021   1.971   4.890
 6471TIP3    H119419   2.994   1.961   4.981
 6471TIP3    H219420   3.002   2.063   4.870
 6472TIP3   OH219421   3.396   3.961   2.743
 6472TIP3    H119422   3.483   3.997   2.725
 6472TIP3    H219423   3.356   4.023   2.805
 6473TIP3   OH219424   4.418   3.301   3.177
 6473TIP3    H119425   4.384   3.325   3.091
 6473TIP3    H219426   4.473   3.224   3.160
 6474TIP3   OH219427   4.943   0.458   3.626
 6474TIP3    H119428   4.999   0.381   3.619
 6474TIP3    H219429   5.004   0.532   3.624
 6475TIP3   OH219430   3.849   5.201   1.883
 6475TIP3    H119431   3.768   5.246   1.905
 6475TIP3    H219432   3.900   5.201   1.964
 6476TIP3   OH219433   5.487   2.267   4.609
 6476TIP3    H119434   5.455   2.331   4.546
 6476TIP3    H219435   5.556   2.219   4.563
 6477TIP3   OH219436   5.664   1.395   4.275
 6477TIP3    H119437   5.696   1.314   4.313
 6477TIP3    H219438   5.712   1.403   4.192
 6478TIP3   OH219439   3.327   2.389   1.384
 6478TIP3    H119440   3.254   2.409   1.325
 6478TIP3    H219441   3.293   2.323   1.444
 6479TIP3   OH219442   3.668   4.953   1.946
 6479TIP3    H119443   3.623   5.013   2.006
 6479TIP3    H219444   3.742   5.005   1.912
 6480TIP3   OH219445   0.261   4.592   3.870
 6480TIP3    H119446   0.336   4.643   3.841
 6480TIP3    H219447   0.271   4.586   3.965
 6481TIP3   OH219448   0.149   1.548   2.428
 6481TIP3    H119449   0.080   1.562   2.363
 6481TIP3    H219450   0.107   1.494   2.495
 6482TIP3   OH219451   3.081   0.756   1.915
 6482TIP3    H119452   3.143   0.745   1.987
 6482TIP3    H219453   3.137   0.765   1.837
 6483TIP3   OH219454   3.736   1.443   1.890
 6483TIP3    H119455   3.687   1.479   1.816
 6483TIP3    H219456   3.823   1.424   1.855
 6484TIP3   OH219457   0.329   1.059   4.401
 6484TIP3    H119458   0.349   1.072   4.494
 6484TIP3    H219459   0.260   0.993   4.400
 6485TIP3   OH219460   1.799   4.979   0.928
 6485TIP3    H119461   1.824   5.071   0.941
 6485TIP3    H219462   1.868   4.942   0.873
 6486TIP3   OH219463   4.553   5.540   4.825
 6486TIP3    H119464   4.638   5.524   4.865
 6486TIP3    H219465   4.574   5.570   4.736
 6487TIP3   OH219466   2.680   3.123   3.141
 6487TIP3    H119467   2.598   3.121   3.091
 6487TIP3    H219468   2.661   3.075   3.221
 6488TIP3   OH219469   1.580   0.040   4.912
 6488TIP3    H119470   1.610  -0.050   4.920
 6488TIP3    H219471   1.630   0.089   4.977
 6489TIP3   OH219472   1.535   0.334   1.377
 6489TIP3    H119473   1.534   0.376   1.463
 6489TIP3    H219474   1.563   0.402   1.317
 6490TIP3   OH219475   0.459   2.987   0.244
 6490TIP3    H119476   0.515   3.036   0.185
 6490TIP3    H219477   0.432   3.050   0.310
 6491TIP3   OH219478   3.960   1.553   1.052
 6491TIP3    H119479   4.031   1.493   1.029
 6491TIP3    H219480   3.949   1.608   0.974
 6492TIP3   OH219481   2.180   1.879   4.918
 6492TIP3    H119482   2.227   1.888   4.835
 6492TIP3    H219483   2.212   1.797   4.955
 6493TIP3   OH219484   6.148   0.896   1.900
 6493TIP3    H119485   6.219   0.945   1.858
 6493TIP3    H219486   6.161   0.910   1.994
 6494TIP3   OH219487   3.364   0.465   0.805
 6494TIP3    H119488   3.322   0.551   0.810
 6494TIP3    H219489   3.396   0.458   0.716
 6495TIP3   OH219490   2.639   1.991   4.771
 6495TIP3    H119491   2.636   2.070   4.826
 6495TIP3    H219492   2.665   1.921   4.832
 6496TIP3   OH219493   4.132   5.513   1.037
 6496TIP3    H119494   4.052   5.460   1.029
 6496TIP3    H219495   4.114   5.591   0.984
 6497TIP3   OH219496   4.938   4.410   3.111
 6497TIP3    H119497   5.006   4.427   3.177
 6497TIP3    H219498   4.873   4.358   3.158
 6498TIP3   OH219499   4.971   5.289   0.247
 6498TIP3    H119500   5.000   5.241   0.169
 6498TIP3    H219501   4.910   5.229   0.291
 6499TIP3   OH219502   4.387   4.658   4.011
 6499TIP3    H119503   4.448   4.695   4.075
 6499TIP3    H219504   4.430   4.579   3.979
 6500TIP3   OH219505   5.758   2.787   3.765
 6500TIP3    H119506   5.789   2.701   3.739
 6500TIP3    H219507   5.681   2.769   3.819
 6501TIP3   OH219508   3.221   0.070   2.491
 6501TIP3    H119509   3.233   0.112   2.577
 6501TIP3    H219510   3.175  -0.012   2.511
 6502TIP3   OH219511   1.031   3.069   2.061
 6502TIP3    H119512   0.977   3.146   2.078
 6502TIP3    H219513   1.106   3.078   2.120
 6503TIP3   OH219514   5.938   5.720   4.077
 6503TIP3    H119515   5.954   5.698   3.985
 6503TIP3    H219516   6.024   5.714   4.118
 6504TIP3   OH219517   3.433   4.331   4.884
 6504TIP3    H119518   3.363   4.311   4.821
 6504TIP3    H219519   3.387   4.347   4.966
 6505TIP3   OH219520   6.082   5.361   0.399
 6505TIP3    H119521   6.105   5.331   0.311
 6505TIP3    H219522   6.010   5.304   0.425
 6506TIP3   OH219523   0.818   3.829   0.064
 6506TIP3    H119524   0.777   3.847  -0.020
 6506TIP3    H219525   0.750   3.784   0.115
 6507TIP3   OH219526   0.778   4.755   2.817
 6507TIP3    H119527   0.869   4.727   2.824
 6507TIP3    H219528   0.727   4.675   2.831
 6508TIP3   OH219529   4.783   1.021   0.638
 6508TIP3    H119530   4.811   1.089   0.698
 6508TIP3    H219531   4.797   1.058   0.551
 6509TIP3   OH219532   3.346   4.721   0.418
 6509TIP3    H119533   3.278   4.719   0.485
 6509TIP3    H219534   3.341   4.635   0.377
 6510TIP3   OH219535   3.661   4.484   0.379
 6510TIP3    H119536   3.690   4.557   0.325
 6510TIP3    H219537   3.648   4.523   0.466
 6511TIP3   OH219538   5.379   1.709   3.032
 6511TIP3    H119539   5.403   1.619   3.009
 6511TIP3    H219540   5.307   1.699   3.094
 6512TIP3   OH219541   3.689   3.500   3.976
 6512TIP3    H119542   3.633   3.440   3.926
 6512TIP3    H219543   3.647   3.507   4.061
 6513TIP3   OH219544   0.788   4.508   0.657
 6513TIP3    H119545   0.770   4.598   0.628
 6513TIP3    H219546   0.797   4.458   0.576
 6514TIP3   OH219547   0.873   1.260   5.139
 6514TIP3    H119548   0.914   1.201   5.076
 6514TIP3    H219549   0.916   1.241   5.222
 6515TIP3   OH219550   2.451   3.567   0.373
 6515TIP3    H119551   2.396   3.619   0.432
 6515TIP3    H219552   2.393   3.541   0.302
 6516TIP3   OH219553   0.785   2.475   3.674
 6516TIP3    H119554   0.872   2.469   3.634
 6516TIP3    H219555   0.726   2.495   3.601
 6517TIP3   OH219556   0.626   5.163   1.019
 6517TIP3    H119557   0.665   5.097   0.962
 6517TIP3    H219558   0.548   5.121   1.055
 6518TIP3   OH219559   0.434   5.261   4.315
 6518TIP3    H119560   0.483   5.279   4.234
 6518TIP3    H219561   0.454   5.336   4.371
 6519TIP3   OH219562   3.479   1.625   1.239
 6519TIP3    H119563   3.543   1.569   1.282
 6519TIP3    H219564   3.523   1.710   1.233
 6520TIP3   OH219565   3.106   1.566   3.728
 6520TIP3    H119566   3.168   1.507   3.770
 6520TIP3    H219567   3.057   1.604   3.800
 6521TIP3   OH219568   1.841   2.932   1.420
 6521TIP3    H119569   1.836   2.851   1.471
 6521TIP3    H219570   1.781   2.918   1.346
 6522TIP3   OH219571   4.135   2.755   1.081
 6522TIP3    H119572   4.176   2.840   1.095
 6522TIP3    H219573   4.110   2.754   0.989
 6523TIP3   OH219574   1.426   1.342   1.443
 6523TIP3    H119575   1.437   1.293   1.524
 6523TIP3    H219576   1.440   1.434   1.467
 6524TIP3   OH219577   0.221   2.831   0.574
 6524TIP3    H119578   0.188   2.761   0.519
 6524TIP3    H219579   0.232   2.905   0.514
 6525TIP3   OH219580   5.466   3.123   3.910
 6525TIP3    H119581   5.560   3.107   3.902
 6525TIP3    H219582   5.446   3.186   3.841
 6526TIP3   OH219583   0.702   1.839   0.037
 6526TIP3    H119584   0.700   1.756  -0.010
 6526TIP3    H219585   0.767   1.827   0.106
 6527TIP3   OH219586   2.255   3.217   1.910
 6527TIP3    H119587   2.341   3.212   1.952
 6527TIP3    H219588   2.228   3.126   1.900
 6528TIP3   OH219589   6.341   5.125   2.910
 6528TIP3    H119590   6.320   5.216   2.930
 6528TIP3    H219591   6.268   5.093   2.858
 6529TIP3   OH219592   1.412   4.060   4.509
 6529TIP3    H119593   1.389   4.100   4.593
 6529TIP3    H219594   1.399   4.130   4.445
 6530TIP3   OH219595   5.479   5.209   2.418
 6530TIP3    H119596   5.531   5.142   2.374
 6530TIP3    H219597   5.402   5.219   2.363
 6531TIP3   OH219598   2.389   1.700   4.474
 6531TIP3    H119599   2.481   1.723   4.491
 6531TIP3    H219600   2.340   1.777   4.500
 6532TIP3   OH219601   1.466   5.093   4.123
 6532TIP3    H119602   1.549   5.072   4.167
 6532TIP3    H219603   1.419   5.149   4.185
 6533TIP3   OH219604   2.478   1.535   1.801
 6533TIP3    H119605   2.500   1.478   1.728
 6533TIP3    H219606   2.512   1.621   1.776
 6534TIP3   OH219607   0.245   4.376   2.724
 6534TIP3    H119608   0.210   4.288   2.739
 6534TIP3    H219609   0.325   4.362   2.675
 6535TIP3   OH219610   2.846   5.944   2.543
 6535TIP3    H119611   2.922   5.941   2.601
 6535TIP3    H219612   2.777   5.899   2.592
 6536TIP3   OH219613   5.164   5.875   3.420
 6536TIP3    H119614   5.171   5.806   3.486
 6536TIP3    H219615   5.089   5.849   3.365
 6537TIP3   OH219616   2.081   0.896   1.937
 6537TIP3    H119617   2.020   0.915   1.866
 6537TIP3    H219618   2.085   0.977   1.987
 6538TIP3   OH219619   5.091   0.188   3.719
 6538TIP3    H119620   5.052   0.157   3.801
 6538TIP3    H219621   5.042   0.143   3.651
 6539TIP3   OH219622   0.876   3.687   2.955
 6539TIP3    H119623   0.906   3.603   2.920
 6539TIP3    H219624   0.828   3.664   3.034
 6540TIP3   OH219625   3.561   5.265   1.287
 6540TIP3    H119626   3.501   5.199   1.253
 6540TIP3    H219627   3.640   5.256   1.233
 6541TIP3   OH219628   2.876   0.720   2.520
 6541TIP3    H119629   2.829   0.804   2.520
 6541TIP3    H219630   2.836   0.670   2.592
 6542TIP3   OH219631   2.808   0.360   3.533
 6542TIP3    H119632   2.810   0.438   3.589
 6542TIP3    H219633   2.717   0.330   3.539
 6543TIP3   OH219634   2.502   1.156   1.699
 6543TIP3    H119635   2.497   1.160   1.604
 6543TIP3    H219636   2.559   1.228   1.724
 6544TIP3   OH219637   0.715   2.042   3.434
 6544TIP3    H119638   0.680   1.977   3.374
 6544TIP3    H219639   0.737   2.117   3.378
 6545TIP3   OH219640   4.319   0.632   1.596
 6545TIP3    H119641   4.274   0.548   1.587
 6545TIP3    H219642   4.304   0.676   1.513
 6546TIP3   OH219643   0.822   2.085   4.636
 6546TIP3    H119644   0.758   2.040   4.580
 6546TIP3    H219645   0.800   2.055   4.724
 6547TIP3   OH219646   2.516   1.057   0.369
 6547TIP3    H119647   2.449   0.997   0.335
 6547TIP3    H219648   2.475   1.143   0.367
 6548TIP3   OH219649   4.877   5.364   3.024
 6548TIP3    H119650   4.883   5.397   2.934
 6548TIP3    H219651   4.956   5.311   3.035
 6549TIP3   OH219652   5.922   1.938   0.643
 6549TIP3    H119653   5.869   2.017   0.652
 6549TIP3    H219654   5.866   1.877   0.594
 6550TIP3   OH219655   3.425   4.642   2.793
 6550TIP3    H119656   3.406   4.573   2.856
 6550TIP3    H219657   3.499   4.610   2.742
 6551TIP3   OH219658   4.195   2.824   0.311
 6551TIP3    H119659   4.189   2.771   0.232
 6551TIP3    H219660   4.281   2.866   0.305
 6552TIP3   OH219661   5.458   5.633   2.840
 6552TIP3    H119662   5.518   5.701   2.812
 6552TIP3    H219663   5.448   5.647   2.934
 6553TIP3   OH219664   5.143   2.422   0.320
 6553TIP3    H119665   5.230   2.431   0.281
 6553TIP3    H219666   5.147   2.472   0.401
 6554TIP3   OH219667   0.182   2.723   5.071
 6554TIP3    H119668   0.236   2.770   5.135
 6554TIP3    H219669   0.212   2.633   5.077
 6555TIP3   OH219670   2.376   0.119   0.780
 6555TIP3    H119671   2.284   0.108   0.757
 6555TIP3    H219672   2.374   0.168   0.863
 6556TIP3   OH219673   1.428   2.930   3.813
 6556TIP3    H119674   1.456   2.853   3.862
 6556TIP3    H219675   1.460   2.915   3.724
 6557TIP3   OH219676   2.817   2.644   2.050
 6557TIP3    H119677   2.894   2.700   2.037
 6557TIP3    H219678   2.854   2.561   2.081
 6558TIP3   OH219679   0.944   4.091   4.062
 6558TIP3    H119680   0.850   4.080   4.078
 6558TIP3    H219681   0.984   4.011   4.095
 6559TIP3   OH219682   5.553   5.572   4.522
 6559TIP3    H119683   5.621   5.507   4.536
 6559TIP3    H219684   5.563   5.598   4.430
 6560TIP3   OH219685   3.445   5.365   2.957
 6560TIP3    H119686   3.386   5.439   2.971
 6560TIP3    H219687   3.430   5.308   3.032
 6561TIP3   OH219688   3.173   4.352   4.744
 6561TIP3    H119689   3.120   4.274   4.726
 6561TIP3    H219690   3.131   4.393   4.819
 6562TIP3   OH219691   4.545   1.141   1.665
 6562TIP3    H119692   4.521   1.223   1.709
 6562TIP3    H219693   4.516   1.073   1.726
 6563TIP3   OH219694   5.377   1.855   2.603
 6563TIP3    H119695   5.391   1.858   2.509
 6563TIP3    H219696   5.460   1.825   2.640
 6564TIP3   OH219697   5.262   0.861   0.164
 6564TIP3    H119698   5.300   0.791   0.110
 6564TIP3    H219699   5.171   0.866   0.135
 6565TIP3   OH219700   5.011   4.923   3.409
 6565TIP3    H119701   5.023   4.833   3.379
 6565TIP3    H219702   5.042   4.923   3.499
 6566TIP3   OH219703   1.613   4.745   4.691
 6566TIP3    H119704   1.590   4.652   4.693
 6566TIP3    H219705   1.530   4.791   4.705
 6567TIP3   OH219706   1.038   0.736   3.281
 6567TIP3    H119707   0.979   0.673   3.323
 6567TIP3    H219708   0.996   0.821   3.297
 6568TIP3   OH219709   5.732   2.613   4.743
 6568TIP3    H119710   5.668   2.550   4.777
 6568TIP3    H219711   5.763   2.574   4.661
 6569TIP3   OH219712   4.195   4.478   3.856
 6569TIP3    H119713   4.290   4.482   3.843
 6569TIP3    H219714   4.184   4.459   3.949
 6570TIP3   OH219715   1.939   3.213   0.164
 6570TIP3    H119716   1.882   3.156   0.112
 6570TIP3    H219717   1.883   3.287   0.187
 6571TIP3   OH219718   4.478   1.089   3.283
 6571TIP3    H119719   4.383   1.094   3.293
 6571TIP3    H219720   4.509   1.177   3.301
 6572TIP3   OH219721   4.056   2.851   2.145
 6572TIP3    H119722   4.139   2.808   2.125
 6572TIP3    H219723   4.035   2.902   2.067
 6573TIP3   OH219724   0.375   4.517   1.208
 6573TIP3    H119725   0.316   4.568   1.263
 6573TIP3    H219726   0.460   4.526   1.250
 6574TIP3   OH219727   4.177   3.641   2.626
 6574TIP3    H119728   4.163   3.729   2.591
 6574TIP3    H219729   4.262   3.614   2.591
 6575TIP3   OH219730   4.912   3.619   4.573
 6575TIP3    H119731   4.921   3.698   4.626
 6575TIP3    H219732   4.988   3.566   4.596
 6576TIP3   OH219733   3.331   1.341   4.720
 6576TIP3    H119734   3.305   1.260   4.675
 6576TIP3    H219735   3.248   1.377   4.754
 6577TIP3   OH219736   3.143   5.155   0.398
 6577TIP3    H119737   3.093   5.080   0.367
 6577TIP3    H219738   3.193   5.122   0.472
 6578TIP3   OH219739   3.836   1.249   2.350
 6578TIP3    H119740   3.855   1.291   2.435
 6578TIP3    H219741   3.896   1.291   2.289
 6579TIP3   OH219742   2.424   4.894   0.427
 6579TIP3    H119743   2.510   4.933   0.410
 6579TIP3    H219744   2.388   4.875   0.341
 6580TIP3   OH219745   4.230   3.612   0.895
 6580TIP3    H119746   4.207   3.635   0.806
 6580TIP3    H219747   4.164   3.547   0.921
 6581TIP3   OH219748   0.788   5.813   0.126
 6581TIP3    H119749   0.709   5.767   0.098
 6581TIP3    H219750   0.799   5.789   0.217
 6582TIP3   OH219751   5.594   2.473   4.981
 6582TIP3    H119752   5.568   2.382   4.962
 6582TIP3    H219753   5.688   2.469   4.995
 6583TIP3   OH219754   5.979   4.179   3.590
 6583TIP3    H119755   6.046   4.121   3.627
 6583TIP3    H219756   6.020   4.266   3.592
 6584TIP3   OH219757   5.287   1.075   4.788
 6584TIP3    H119758   5.239   1.001   4.751
 6584TIP3    H219759   5.378   1.059   4.763
 6585TIP3   OH219760   4.374   4.129   1.298
 6585TIP3    H119761   4.454   4.099   1.342
 6585TIP3    H219762   4.398   4.135   1.206
 6586TIP3   OH219763   1.810   1.919   1.919
 6586TIP3    H119764   1.831   1.831   1.950
 6586TIP3    H219765   1.849   1.977   1.984
 6587TIP3   OH219766   4.505   2.204   4.607
 6587TIP3    H119767   4.509   2.193   4.512
 6587TIP3    H219768   4.577   2.264   4.626
 6588TIP3   OH219769   5.097   0.464   0.597
 6588TIP3    H119770   5.084   0.411   0.518
 6588TIP3    H219771   5.020   0.446   0.651
 6589TIP3   OH219772   2.560   4.603   1.435
 6589TIP3    H119773   2.624   4.551   1.483
 6589TIP3    H219774   2.521   4.661   1.501
 6590TIP3   OH219775   4.185   3.005   2.345
 6590TIP3    H119776   4.137   2.954   2.279
 6590TIP3    H219777   4.176   3.096   2.317
 6591TIP3   OH219778   0.931   1.955   0.857
 6591TIP3    H119779   1.018   1.914   0.858
 6591TIP3    H219780   0.905   1.954   0.765
 6592TIP3   OH219781   2.849   2.016   3.994
 6592TIP3    H119782   2.876   1.968   3.915
 6592TIP3    H219783   2.813   1.949   4.052
 6593TIP3   OH219784   1.563   1.902   4.191
 6593TIP3    H119785   1.642   1.909   4.137
 6593TIP3    H219786   1.505   1.844   4.141
 6594TIP3   OH219787   3.100   3.135   2.481
 6594TIP3    H119788   3.081   3.152   2.573
 6594TIP3    H219789   3.020   3.161   2.435
 6595TIP3   OH219790   2.011   1.369   3.670
 6595TIP3    H119791   1.932   1.316   3.676
 6595TIP3    H219792   2.077   1.320   3.719
 6596TIP3   OH219793   2.094   0.332   1.309
 6596TIP3    H119794   2.078   0.240   1.286
 6596TIP3    H219795   2.173   0.356   1.261
 6597TIP3   OH219796   1.162   0.287   1.548
 6597TIP3    H119797   1.195   0.348   1.613
 6597TIP3    H219798   1.113   0.222   1.598
 6598TIP3   OH219799   3.607   0.384   5.098
 6598TIP3    H119800   3.625   0.293   5.073
 6598TIP3    H219801   3.605   0.382   5.194
 6599TIP3   OH219802   3.819   5.011   1.684
 6599TIP3    H119803   3.775   5.062   1.616
 6599TIP3    H219804   3.854   5.077   1.744
 6600TIP3   OH219805   0.937   1.639   1.542
 6600TIP3    H119806   0.881   1.606   1.612
 6600TIP3    H219807   0.997   1.700   1.586
 6601TIP3   OH219808   2.429   4.634   0.587
 6601TIP3    H119809   2.519   4.644   0.620
 6601TIP3    H219810   2.393   4.723   0.591
 6602TIP3   OH219811   1.346   5.329   1.215
 6602TIP3    H119812   1.412   5.390   1.183
 6602TIP3    H219813   1.322   5.277   1.138
 6603TIP3   OH219814   1.649   1.864   0.043
 6603TIP3    H119815   1.591   1.932   0.011
 6603TIP3    H219816   1.662   1.886   0.136
 6604TIP3   OH219817   0.366   4.866   3.247
 6604TIP3    H119818   0.330   4.814   3.318
 6604TIP3    H219819   0.315   4.947   3.248
 6605TIP3   OH219820   1.419   1.809   5.137
 6605TIP3    H119821   1.346   1.857   5.098
 6605TIP3    H219822   1.498   1.851   5.101
 6606TIP3   OH219823   0.619   1.237   1.269
 6606TIP3    H119824   0.604   1.229   1.174
 6606TIP3    H219825   0.610   1.330   1.287
 6607TIP3   OH219826   4.236   2.145   5.070
 6607TIP3    H119827   4.284   2.082   5.123
 6607TIP3    H219828   4.258   2.122   4.980
 6608TIP3   OH219829   2.477   5.938   3.400
 6608TIP3    H119830   2.399   5.899   3.361
 6608TIP3    H219831   2.494   5.886   3.478
 6609TIP3   OH219832   3.254   3.195   4.100
 6609TIP3    H119833   3.302   3.114   4.117
 6609TIP3    H219834   3.322   3.263   4.099
 6610TIP3   OH219835   0.071   1.355   5.135
 6610TIP3    H119836   0.115   1.375   5.218
 6610TIP3    H219837  -0.007   1.411   5.135
 6611TIP3   OH219838   3.151   1.101   4.827
 6611TIP3    H119839   3.103   1.184   4.829
 6611TIP3    H219840   3.102   1.044   4.885
 6612TIP3   OH219841   2.531   3.113   0.126
 6612TIP3    H119842   2.507   3.021   0.141
 6612TIP3    H219843   2.627   3.113   0.133
 6613TIP3   OH219844   5.906   1.358   2.155
 6613TIP3    H119845   5.942   1.409   2.227
 6613TIP3    H219846   5.943   1.270   2.167
 6614TIP3   OH219847   0.619   2.532   2.075
 6614TIP3    H119848   0.710   2.557   2.090
 6614TIP3    H219849   0.577   2.612   2.042
 6615TIP3   OH219850   5.896   4.241   4.353
 6615TIP3    H119851   5.897   4.266   4.446
 6615TIP3    H219852   5.825   4.178   4.345
 6616TIP3   OH219853   5.217   2.416   4.017
 6616TIP3    H119854   5.292   2.362   4.043
 6616TIP3    H219855   5.232   2.500   4.060
 6617TIP3   OH219856   5.999   5.778   1.406
 6617TIP3    H119857   5.930   5.770   1.341
 6617TIP3    H219858   5.960   5.826   1.478
 6618TIP3   OH219859   1.669   0.244   3.853
 6618TIP3    H119860   1.607   0.190   3.804
 6618TIP3    H219861   1.698   0.188   3.925
 6619TIP3   OH219862   0.488   4.455   0.717
 6619TIP3    H119863   0.562   4.514   0.706
 6619TIP3    H219864   0.500   4.418   0.805
 6620TIP3   OH219865   2.853   0.398   2.206
 6620TIP3    H119866   2.897   0.482   2.206
 6620TIP3    H219867   2.787   0.405   2.137
 6621TIP3   OH219868   4.046   4.139   2.453
 6621TIP3    H119869   3.959   4.178   2.460
 6621TIP3    H219870   4.077   4.162   2.366
 6622TIP3   OH219871   2.745   4.814   2.812
 6622TIP3    H119872   2.678   4.881   2.829
 6622TIP3    H219873   2.826   4.852   2.845
 6623TIP3   OH219874   5.528   4.726   2.240
 6623TIP3    H119875   5.590   4.659   2.211
 6623TIP3    H219876   5.565   4.757   2.323
 6624TIP3   OH219877   5.962   0.075   4.117
 6624TIP3    H119878   5.936   0.145   4.177
 6624TIP3    H219879   6.057   0.073   4.123
 6625TIP3   OH219880   5.435   0.790   1.374
 6625TIP3    H119881   5.409   0.820   1.461
 6625TIP3    H219882   5.522   0.828   1.361
 6626TIP3   OH219883   4.460   0.101   0.689
 6626TIP3    H119884   4.457   0.059   0.603
 6626TIP3    H219885   4.403   0.177   0.681
 6627TIP3   OH219886   1.960   1.979   0.328
 6627TIP3    H119887   1.915   1.933   0.400
 6627TIP3    H219888   1.904   2.054   0.309
 6628TIP3   OH219889   5.730   3.132   2.137
 6628TIP3    H119890   5.725   3.226   2.154
 6628TIP3    H219891   5.812   3.120   2.090
 6629TIP3   OH219892   0.002   5.384   3.246
 6629TIP3    H119893   0.053   5.361   3.323
 6629TIP3    H219894  -0.065   5.315   3.240
 6630TIP3   OH219895   2.913   4.324   0.993
 6630TIP3    H119896   2.845   4.364   0.939
 6630TIP3    H219897   2.885   4.234   1.005
 6631TIP3   OH219898   5.536   0.197   3.575
 6631TIP3    H119899   5.599   0.148   3.627
 6631TIP3    H219900   5.539   0.286   3.610
 6632TIP3   OH219901   2.226   4.109   0.723
 6632TIP3    H119902   2.158   4.066   0.775
 6632TIP3    H219903   2.224   4.200   0.754
 6633TIP3   OH219904   0.480   3.796   4.794
 6633TIP3    H119905   0.570   3.830   4.799
 6633TIP3    H219906   0.457   3.776   4.884
 6634TIP3   OH219907   5.794   0.615   2.896
 6634TIP3    H119908   5.758   0.676   2.832
 6634TIP3    H219909   5.751   0.531   2.876
 6635TIP3   OH219910   5.600   5.950   4.125
 6635TIP3    H119911   5.692   5.950   4.097
 6635TIP3    H219912   5.573   6.041   4.121
 6636TIP3   OH219913   3.370   4.461   2.991
 6636TIP3    H119914   3.348   4.369   2.978
 6636TIP3    H219915   3.348   4.479   3.082
 6637TIP3   OH219916   4.172   2.480   0.710
 6637TIP3    H119917   4.175   2.421   0.635
 6637TIP3    H219918   4.261   2.478   0.746
 6638TIP3   OH219919   2.748   5.661   4.005
 6638TIP3    H119920   2.745   5.744   4.052
 6638TIP3    H219921   2.823   5.615   4.043
 6639TIP3   OH219922   0.629   5.575   1.458
 6639TIP3    H119923   0.585   5.496   1.426
 6639TIP3    H219924   0.682   5.605   1.385
 6640TIP3   OH219925   5.204   1.640   2.634
 6640TIP3    H119926   5.295   1.666   2.651
 6640TIP3    H219927   5.152   1.699   2.689
 6641TIP3   OH219928   5.185   2.108   0.359
 6641TIP3    H119929   5.174   2.076   0.449
 6641TIP3    H219930   5.155   2.199   0.363
 6642TIP3   OH219931   0.807   5.168   4.653
 6642TIP3    H119932   0.757   5.151   4.573
 6642TIP3    H219933   0.888   5.210   4.623
 6643TIP3   OH219934   3.817   0.727   1.869
 6643TIP3    H119935   3.752   0.673   1.825
 6643TIP3    H219936   3.889   0.668   1.889
 6644TIP3   OH219937   6.052   2.742   3.944
 6644TIP3    H119938   6.122   2.761   3.882
 6644TIP3    H219939   5.982   2.707   3.890
 6645TIP3   OH219940   2.519   1.827   4.066
 6645TIP3    H119941   2.486   1.742   4.095
 6645TIP3    H219942   2.605   1.834   4.107
   6.35974   5.99602   5.19271   0.00000   0.00000  -2.11992   0.00000  -2.11992  -2.99801
