       106  EXT
         1         1  PRO       N               4.2410000000        8.9450000000       22.7020000000  PROB      2              98.4500000000
         2         1  PRO       CA              3.7860000000        7.8420000000       21.8520000000  PROB      2              98.4900000000
         3         1  PRO       C               4.5920000000        7.7210000000       20.5610000000  PROB      2              98.5700000000
         4         1  PRO       O               5.2260000000        8.6880000000       20.1310000000  PROB      2              98.4600000000
         5         1  PRO       CB              2.3290000000        8.2060000000       21.5530000000  PROB      2              98.3300000000
         6         1  PRO       CG              1.9960000000        9.2860000000       22.5310000000  PROB      2              97.0100000000
         7         1  PRO       CD              3.2750000000        9.7980000000       23.1290000000  PROB      2              94.3500000000
         8         2  GLY       N               4.6550000000        6.3660000000       20.0640000000  PROB      3              98.4300000000
         9         2  GLY       CA              5.3120000000        6.1390000000       18.7870000000  PROB      3              98.4200000000
        10         2  GLY       C               4.6320000000        6.8490000000       17.6310000000  PROB      3              98.5600000000
        11         2  GLY       O               3.4980000000        7.3140000000       17.7620000000  PROB      3              98.4800000000
        12         3  ASP       N               5.3320000000        6.9410000000       16.5840000000  PROB      4              98.3400000000
        13         3  ASP       CA              4.7740000000        7.4740000000       15.3450000000  PROB      4              98.3500000000
        14         3  ASP       C               3.6650000000        6.5710000000       14.8090000000  PROB      4              98.5400000000
        15         3  ASP       O               3.7210000000        5.3500000000       14.9680000000  PROB      4              98.4500000000
        16         3  ASP       CB              5.8700000000        7.6430000000       14.2910000000  PROB      4              98.1500000000
        17         3  ASP       CG              6.8380000000        8.7670000000       14.6170000000  PROB      4              95.9600000000
        18         3  ASP       OD1             6.4920000000        9.6540000000       15.4270000000  PROB      4              94.5100000000
        19         3  ASP       OD2             7.9550000000        8.7690000000       14.0550000000  PROB      4              95.1000000000
        20         4  PRO       N               2.6270000000        7.0520000000       14.0700000000  PROB      5              98.3800000000
        21         4  PRO       CA              1.6250000000        6.2080000000       13.4140000000  PROB      5              98.3600000000
        22         4  PRO       C               2.2400000000        5.2230000000       12.4240000000  PROB      5              98.5200000000
        23         4  PRO       O               3.3240000000        5.4730000000       11.8900000000  PROB      5              98.4600000000
        24         4  PRO       CB              0.7290000000        7.2200000000       12.6940000000  PROB      5              98.2900000000
        25         4  PRO       CG              1.0660000000        8.5380000000       13.3140000000  PROB      5              97.5900000000
        26         4  PRO       CD              2.4290000000        8.4370000000       13.9360000000  PROB      5              97.1800000000
        27         5  GLY       N               1.5810000000        4.1350000000       12.3170000000  PROB      6              98.5000000000
        28         5  GLY       CA              2.0070000000        3.1490000000       11.3370000000  PROB      6              98.4700000000
        29         5  GLY       C               1.9700000000        3.6690000000        9.9120000000  PROB      6              98.6100000000
        30         5  GLY       O               1.3980000000        4.7290000000        9.6480000000  PROB      6              98.5500000000
        31         6  SER       N               2.4480000000        2.8400000000        9.1500000000  PROB      7              98.5000000000
        32         6  SER       CA              2.3790000000        3.1310000000        7.7220000000  PROB      7              98.4600000000
        33         6  SER       C               0.9610000000        2.9550000000        7.1900000000  PROB      7              98.6200000000
        34         6  SER       O               0.1600000000        2.2200000000        7.7720000000  PROB      7              98.5700000000
        35         6  SER       CB              3.3400000000        2.2320000000        6.9430000000  PROB      7              98.2600000000
        36         6  SER       OG              4.6770000000        2.4400000000        7.3650000000  PROB      7              94.5900000000
        37         7  GLY       N               0.6360000000        3.7720000000        6.1480000000  PROB      8              98.2400000000
        38         7  GLY       CA             -0.6660000000        3.6090000000        5.5210000000  PROB      8              98.1500000000
        39         7  GLY       C              -0.7940000000        2.3160000000        4.7380000000  PROB      8              98.3400000000
        40         7  GLY       O               0.1770000000        1.5710000000        4.5970000000  PROB      8              98.1800000000
        41         8  PRO       N              -1.8210000000        2.0780000000        4.3030000000  PROB      9              98.6000000000
        42         8  PRO       CA             -2.0790000000        0.9020000000        3.4680000000  PROB      9              98.6100000000
        43         8  PRO       C              -1.3830000000        0.9760000000        2.1120000000  PROB      9              98.7400000000
        44         8  PRO       O              -1.0290000000        2.0660000000        1.6550000000  PROB      9              98.7100000000
        45         8  PRO       CB             -3.6010000000        0.9150000000        3.3020000000  PROB      9              98.5400000000
        46         8  PRO       CG             -3.9910000000        2.3480000000        3.4650000000  PROB      9              97.9600000000
        47         8  PRO       CD             -2.9860000000        3.0170000000        4.3580000000  PROB      9              97.6600000000
        48         9  GLY       N              -1.2280000000       -0.1460000000        1.5570000000  PROB      10             98.4700000000
        49         9  GLY       CA             -0.6250000000       -0.2100000000        0.2360000000  PROB      10             98.4200000000
        50         9  GLY       C              -1.5360000000        0.3080000000       -0.8620000000  PROB      10             98.6100000000
        51         9  GLY       O              -2.7290000000        0.5230000000       -0.6360000000  PROB      10             98.5600000000
        52        10  ASP       N              -0.9520000000        0.5600000000       -1.9850000000  PROB      11             98.5400000000
        53        10  ASP       CA             -1.6940000000        0.9590000000       -3.1770000000  PROB      11             98.5300000000
        54        10  ASP       C              -2.6450000000       -0.1470000000       -3.6290000000  PROB      11             98.6800000000
        55        10  ASP       O              -2.3560000000       -1.3320000000       -3.4520000000  PROB      11             98.6300000000
        56        10  ASP       CB             -0.7330000000        1.3220000000       -4.3110000000  PROB      11             98.4000000000
        57        10  ASP       CG              0.0260000000        2.6110000000       -4.0550000000  PROB      11             96.9900000000
        58        10  ASP       OD1            -0.4490000000        3.4520000000       -3.2620000000  PROB      11             96.0500000000
        59        10  ASP       OD2             1.1090000000        2.7900000000       -4.6540000000  PROB      11             95.6900000000
        60        11  PRO       N              -3.8050000000        0.2320000000       -4.3630000000  PROB      12             98.6000000000
        61        11  PRO       CA             -4.6690000000       -0.8090000000       -4.9250000000  PROB      12             98.5700000000
        62        11  PRO       C              -3.9630000000       -1.6580000000       -5.9780000000  PROB      12             98.6900000000
        63        11  PRO       O              -3.0030000000       -1.2000000000       -6.6040000000  PROB      12             98.6500000000
        64        11  PRO       CB             -5.8200000000       -0.0130000000       -5.5460000000  PROB      12             98.5200000000
        65        11  PRO       CG             -5.6530000000        1.3750000000       -5.0190000000  PROB      12             97.9000000000
        66        11  PRO       CD             -4.2500000000        1.5250000000       -4.5060000000  PROB      12             97.4100000000
        67        12  GLY       N              -4.4300000000       -2.9080000000       -6.0630000000  PROB      13             98.4800000000
        68        12  GLY       CA             -3.8870000000       -3.7870000000       -7.0860000000  PROB      13             98.4600000000
        69        12  GLY       C              -4.1150000000       -3.2760000000       -8.4950000000  PROB      13             98.6300000000
        70        12  GLY       O              -4.9100000000       -2.3570000000       -8.7070000000  PROB      13             98.5900000000
        71        13  SER       N              -3.5600000000       -3.9800000000       -9.3660000000  PROB      14             98.5500000000
        72        13  SER       CA             -3.8060000000       -3.6780000000      -10.7730000000  PROB      14             98.5100000000
        73        13  SER       C              -5.1970000000       -4.1330000000      -11.2010000000  PROB      14             98.6600000000
        74        13  SER       O              -5.7660000000       -5.0500000000      -10.6050000000  PROB      14             98.6200000000
        75        13  SER       CB             -2.7490000000       -4.3410000000      -11.6570000000  PROB      14             98.3700000000
        76        13  SER       OG             -1.4490000000       -3.9010000000      -11.3030000000  PROB      14             94.9400000000
        77        14  GLY       N              -5.8960000000       -3.3440000000      -12.0990000000  PROB      15             98.1500000000
        78        14  GLY       CA             -7.1880000000       -3.7480000000      -12.6310000000  PROB      15             98.1100000000
        79        14  GLY       C              -7.1280000000       -5.0380000000      -13.4280000000  PROB      15             98.3000000000
        80        14  GLY       O              -6.0430000000       -5.5530000000      -13.7040000000  PROB      15             98.1900000000
        81        15  PRO       N              -8.0490000000       -5.6390000000      -13.7860000000  PROB      16             98.5500000000
        82        15  PRO       CA             -8.1200000000       -6.8030000000      -14.6720000000  PROB      16             98.5300000000
        83        15  PRO       C              -7.6380000000       -6.4970000000      -16.0880000000  PROB      16             98.6700000000
        84        15  PRO       O              -7.6380000000       -5.3370000000      -16.5070000000  PROB      16             98.6400000000
        85        15  PRO       CB             -9.6090000000       -7.1600000000      -14.6670000000  PROB      16             98.4600000000
        86        15  PRO       CG            -10.3070000000       -5.8820000000      -14.3310000000  PROB      16             97.7400000000
        87        15  PRO       CD             -9.3750000000       -5.0290000000      -13.5180000000  PROB      16             97.2100000000
        88        16  GLY       N              -7.1080000000       -7.5310000000      -16.8920000000  PROB      17             98.5200000000
        89        16  GLY       CA             -6.7000000000       -7.4130000000      -18.2830000000  PROB      17             98.5100000000
        90        16  GLY       C              -7.8550000000       -7.1160000000      -19.2200000000  PROB      17             98.6500000000
        91        16  GLY       O              -9.0200000000       -7.2650000000      -18.8450000000  PROB      17             98.6300000000
        92        17  ASP       N              -7.6760000000       -6.6720000000      -20.2520000000  PROB      18             98.5500000000
        93        17  ASP       CA             -8.6560000000       -6.4260000000      -21.3050000000  PROB      18             98.5200000000
        94        17  ASP       C              -9.2360000000       -7.7360000000      -21.8330000000  PROB      18             98.6300000000
        95        17  ASP       O              -8.5400000000       -8.7520000000      -21.8870000000  PROB      18             98.5700000000
        96        17  ASP       CB             -8.0260000000       -5.6300000000      -22.4500000000  PROB      18             98.3500000000
        97        17  ASP       CG             -7.7310000000       -4.1880000000      -22.0780000000  PROB      18             97.0200000000
        98        17  ASP       OD1            -8.3270000000       -3.6740000000      -21.1080000000  PROB      18             95.9400000000
        99        17  ASP       OD2            -6.8970000000       -3.5580000000      -22.7640000000  PROB      18             95.5900000000
       100        18  PRO       N             -10.7300000000       -7.8150000000      -21.9020000000  PROB      19             98.2300000000
       101        18  PRO       CA            -11.4030000000       -9.0130000000      -22.4090000000  PROB      19             98.0300000000
       102        18  PRO       C             -10.9570000000       -9.3870000000      -23.8200000000  PROB      19             98.0700000000
       103        18  PRO       O             -10.4060000000       -8.5510000000      -24.5400000000  PROB      19             97.6900000000
       104        18  PRO       CB            -12.8820000000       -8.6200000000      -22.3900000000  PROB      19             97.8200000000
       105        18  PRO       CG            -12.9230000000       -7.3170000000      -21.6580000000  PROB      19             96.4700000000
       106        18  PRO       CD            -11.5420000000       -6.7260000000      -21.6610000000  PROB      19             96.1500000000
