* GENERATED BY CHARMM-GUI (HTTP://WWW.CHARMM-GUI.ORG) V3.7 ON JUN, 13. 2026. JOB
* GENERATES IONS
*  DATE:     6/13/26      7:29: 1      CREATED BY USER: charmm-gui
*
       204  EXT
         1         1  GLY       N              27.9119215056        0.4646201921       -0.4370113191  PROA      1              97.6500000000
         2         1  GLY       HT1            28.6768680314        0.6848996269        0.2322672351  PROA      1               0.0000000000
         3         1  GLY       HT2            27.4905214399        1.3493503606       -0.7852557013  PROA      1               0.0000000000
         4         1  GLY       HT3            28.2972134033       -0.0743410711       -1.2386786731  PROA      1               0.0000000000
         5         1  GLY       CA             26.8929940828       -0.3263533226        0.2337567526  PROA      1              98.0700000000
         6         1  GLY       HA1            26.6421742514        0.1789968673        1.1546344864  PROA      1               0.0000000000
         7         1  GLY       HA2            27.3182130164       -1.2972495608        0.4407701723  PROA      1               0.0000000000
         8         1  GLY       C              25.6336425006       -0.5022205303       -0.5951782977  PROA      1              98.2400000000
         9         1  GLY       OT1            25.5966572134        0.0323031875       -1.7355801934  PROA      1               0.0000000000
        10         1  GLY       OT2            24.6890768251       -1.1738168729       -0.1008565024  PROA      1               0.0000000000
        11         2  PRO       N              24.6681588672       -1.4225614427       -0.2894497276  PROB      2              98.4500000000
        12         2  PRO       HN1            25.3893694048       -1.2830536145       -0.9760252904  PROB      2               0.0000000000
        13         2  PRO       HN2            24.5941880660       -0.6049817268        0.2911403220  PROB      2               0.0000000000
        14         2  PRO       CD             25.0405585094       -2.4620107745        0.5004601363  PROB      2              94.3500000000
        15         2  PRO       HD1            25.1449150118       -2.1242656303        1.5535217086  PROB      2               0.0000000000
        16         2  PRO       HD2            26.0081542245       -2.8808951159        0.1508958677  PROB      2               0.0000000000
        17         2  PRO       CA             23.3972458139       -1.5860123836       -0.9995185981  PROB      2              98.4900000000
        18         2  PRO       HA             23.6069142003       -1.6385531420       -2.0561721112  PROB      2               0.0000000000
        19         2  PRO       CB             22.8069450181       -2.8544359820       -0.3771099338  PROB      2              98.3300000000
        20         2  PRO       HB1            22.4301342908       -3.5413670158       -1.1646484248  PROB      2               0.0000000000
        21         2  PRO       HB2            21.9712212341       -2.6039219591        0.3105570826  PROB      2               0.0000000000
        22         2  PRO       CG             23.9410700707       -3.4769106186        0.3712607577  PROB      2              97.0100000000
        23         2  PRO       HG1            23.5993494290       -3.7940484319        1.3796983258  PROB      2               0.0000000000
        24         2  PRO       HG2            24.3123749597       -4.3681538825       -0.1783880778  PROB      2               0.0000000000
        25         2  PRO       C              22.4573902532       -0.3982366238       -0.8076377250  PROB      2              98.5700000000
        26         2  PRO       O              22.6000284568        0.3579352789        0.1566254115  PROB      2              98.4600000000
        27         3  GLY       N              21.5737379248       -0.1947911283       -1.9322583246  PROB      3              98.4300000000
        28         3  GLY       HN             21.6137078878       -0.7239140331       -2.7761270125  PROB      3               0.0000000000
        29         3  GLY       CA             20.5643288289        0.8461679545       -1.8254666347  PROB      3              98.4200000000
        30         3  GLY       HA1            20.0321884974        0.8872605147       -2.7643091970  PROB      3               0.0000000000
        31         3  GLY       HA2            21.0728726181        1.7815014486       -1.6442988757  PROB      3               0.0000000000
        32         3  GLY       C              19.5698531499        0.6010784204       -0.7057411129  PROB      3              98.5600000000
        33         3  GLY       O              19.4954069875       -0.5043586621       -0.1655479757  PROB      3              98.4800000000
        34         4  ASP       N              18.8866632085        1.6110522891       -0.3772943311  PROB      4              98.3400000000
        35         4  ASP       HN             19.0574601654        2.5173521891       -0.7559015621  PROB      4               0.0000000000
        36         4  ASP       CA             17.7957339061        1.5058229156        0.5867461432  PROB      4              98.3500000000
        37         4  ASP       HA             18.1759663823        1.0154743222        1.4705707138  PROB      4               0.0000000000
        38         4  ASP       CB             17.2545001342        2.8927048710        0.9393329351  PROB      4              98.1500000000
        39         4  ASP       HB1            16.3121079659        2.7751243369        1.5153080912  PROB      4               0.0000000000
        40         4  ASP       HB2            17.0413119231        3.4450429462       -0.0004271400  PROB      4               0.0000000000
        41         4  ASP       CG             18.2250534368        3.7145960769        1.7695119113  PROB      4              95.9600000000
        42         4  ASP       OD1            19.1401935715        3.1327423191        2.3912431542  PROB      4              94.5100000000
        43         4  ASP       OD2            18.0704638202        4.9548570922        1.8068169291  PROB      4              95.1000000000
        44         4  ASP       C              16.6704880051        0.6243900216        0.0487092340  PROB      4              98.5400000000
        45         4  ASP       O              16.4130733364        0.6049748352       -1.1565371055  PROB      4              98.4500000000
        46         5  PRO       N              15.8582011182       -0.1006663308        0.8668836037  PROB      5              98.3800000000
        47         5  PRO       CD             16.1499587945       -0.2208655353        2.2364874185  PROB      5              97.1800000000
        48         5  PRO       HD1            15.9540285330        0.7419586216        2.7533666571  PROB      5               0.0000000000
        49         5  PRO       HD2            17.2110051749       -0.5167379308        2.3751354468  PROB      5               0.0000000000
        50         5  PRO       CA             14.6794018426       -0.8403372598        0.4086312880  PROB      5              98.3600000000
        51         5  PRO       HA             14.9588086243       -1.5702185732       -0.3341599337  PROB      5               0.0000000000
        52         5  PRO       CB             14.1085943659       -1.4294499249        1.7018772400  PROB      5              98.2900000000
        53         5  PRO       HB1            13.8304314421       -2.4955919156        1.5603108277  PROB      5               0.0000000000
        54         5  PRO       HB2            13.2099458014       -0.8644794002        2.0294645855  PROB      5               0.0000000000
        55         5  PRO       CG             15.2120870517       -1.2972924411        2.7018428854  PROB      5              97.5900000000
        56         5  PRO       HG1            14.7919876289       -1.0289796948        3.6947279110  PROB      5               0.0000000000
        57         5  PRO       HG2            15.7577889838       -2.2608398114        2.7917416915  PROB      5               0.0000000000
        58         5  PRO       C              13.6538168087        0.0535112847       -0.2825706490  PROB      5              98.5200000000
        59         5  PRO       O              13.5984138764        1.2572546554       -0.0167804823  PROB      5              98.4600000000
        60         6  GLY       N              12.9852269919       -0.5493794204       -1.1875482479  PROB      6              98.5000000000
        61         6  GLY       HN             13.1582428402       -1.4911299255       -1.4651961957  PROB      6               0.0000000000
        62         6  GLY       CA             11.9099830744        0.1629290360       -1.8587704024  PROB      6              98.4700000000
        63         6  GLY       HA1            11.4878809011       -0.4993202971       -2.6000823419  PROB      6               0.0000000000
        64         6  GLY       HA2            12.3376427991        1.0321335212       -2.3361366542  PROB      6               0.0000000000
        65         6  GLY       C              10.8098342942        0.6106280887       -0.9145076108  PROB      6              98.6100000000
        66         6  GLY       O              10.7602329503        0.1759525180        0.2383483450  PROB      6              98.5500000000
        67         7  SER       N               9.9977394596        1.3018729677       -1.5137166702  PROB      7              98.5000000000
        68         7  SER       HN             10.0977598435        1.5957002704       -2.4608428874  PROB      7               0.0000000000
        69         7  SER       CA              8.8070679027        1.7167833184       -0.7797026073  PROB      7              98.4600000000
        70         7  SER       HA              9.1135858427        2.0246728797        0.2089397399  PROB      7               0.0000000000
        71         7  SER       CB              8.1047649621        2.8679699885       -1.5008841588  PROB      7              98.2600000000
        72         7  SER       HB1             7.1978328046        3.1658857106       -0.9325990892  PROB      7               0.0000000000
        73         7  SER       HB2             7.8114131875        2.5442820497       -2.5223529497  PROB      7               0.0000000000
        74         7  SER       OG              8.9622163221        3.9913418784       -1.6091881860  PROB      7              94.5900000000
        75         7  SER       HG1             9.1845549197        4.2422235051       -0.7096194241  PROB      7               0.0000000000
        76         7  SER       C               7.8378559349        0.5541655048       -0.5962033408  PROB      7              98.6200000000
        77         7  SER       O               7.8578435700       -0.4063949333       -1.3691678544  PROB      7              98.5700000000
        78         8  GLY       N               7.0904182947        0.6075217860        0.5428173268  PROB      8              98.2400000000
        79         8  GLY       HN              7.1971482876        1.3082943825        1.2437765213  PROB      8               0.0000000000
        80         8  GLY       CA              6.0769640626       -0.4138973755        0.7538040940  PROB      8              98.1500000000
        81         8  GLY       HA1             5.7182570047       -0.3181920816        1.7679326104  PROB      8               0.0000000000
        82         8  GLY       HA2             6.5450474340       -1.3769786019        0.6135920639  PROB      8               0.0000000000
        83         8  GLY       C               4.9015485917       -0.2943465858       -0.1977357525  PROB      8              98.3400000000
        84         8  GLY       O               4.8215408406        0.6563154868       -0.9772146705  PROB      8              98.1800000000
        85         9  PRO       N               4.1177930360       -1.1215865602       -0.1530227397  PROB      9              98.6000000000
        86         9  PRO       CD              4.1277440050       -2.2234654952        0.8607498141  PROB      9              97.6600000000
        87         9  PRO       HD1             4.2146827462       -1.8030108693        1.8843937028  PROB      9               0.0000000000
        88         9  PRO       HD2             4.9695899954       -2.9195525668        0.6634040139  PROB      9               0.0000000000
        89         9  PRO       CA              2.8960044831       -1.1054457792       -0.9615629101  PROB      9              98.6100000000
        90         9  PRO       HA              3.1311630455       -0.9032256109       -1.9941998500  PROB      9               0.0000000000
        91         9  PRO       CB              2.2842761387       -2.4849716968       -0.7029015960  PROB      9              98.5400000000
        92         9  PRO       HB1             2.6068641125       -3.2111182998       -1.4792542876  PROB      9               0.0000000000
        93         9  PRO       HB2             1.1747366835       -2.4302389470       -0.7015177126  PROB      9               0.0000000000
        94         9  PRO       CG              2.7970946218       -2.8843056239        0.6423521414  PROB      9              97.9600000000
        95         9  PRO       HG1             2.0821307250       -2.5630017260        1.4296799106  PROB      9               0.0000000000
        96         9  PRO       HG2             2.9113296720       -3.9883569583        0.6904727106  PROB      9               0.0000000000
        97         9  PRO       C               1.9309552423        0.0033361223       -0.5517938803  PROB      9              98.7400000000
        98         9  PRO       O               2.0052807877        0.5064455763        0.5723153628  PROB      9              98.7100000000
        99        10  GLY       N               1.1034763278        0.3165098700       -1.4507570886  PROB      10             98.4700000000
       100        10  GLY       HN              1.1006540076       -0.0934377422       -2.3595537386  PROB      10              0.0000000000
       101        10  GLY       CA              0.0938735082        1.3237775954       -1.1699370823  PROB      10             98.4200000000
       102        10  GLY       HA1            -0.3637788977        1.6025837698       -2.1075453817  PROB      10              0.0000000000
       103        10  GLY       HA2             0.5910904765        2.1756910749       -0.7302705719  PROB      10              0.0000000000
       104        10  GLY       C              -0.9856142625        0.8385536059       -0.2196145935  PROB      10             98.6100000000
       105        10  GLY       O              -1.0789938223       -0.3580837484        0.0630323598  PROB      10             98.5600000000
       106        11  ASP       N              -1.7175392009        1.7669856572        0.2980617634  PROB      11             98.5400000000
       107        11  ASP       HN             -1.5292928863        2.7334634560        0.1428112150  PROB      11              0.0000000000
       108        11  ASP       CA             -2.8690225344        1.4705128047        1.1447133922  PROB      11             98.5300000000
       109        11  ASP       HA             -2.5408009183        0.8182352838        1.9403079754  PROB      11              0.0000000000
       110        11  ASP       CB             -3.4568143015        2.7598076726        1.7221781808  PROB      11             98.4000000000
       111        11  ASP       HB1            -4.4313342499        2.5273821860        2.2017221934  PROB      11              0.0000000000
       112        11  ASP       HB2            -3.6204264967        3.4824669797        0.8947316435  PROB      11              0.0000000000
       113        11  ASP       CG             -2.5566017357        3.4105552388        2.7562395627  PROB      11             96.9900000000
       114        11  ASP       OD1            -1.7119570875        2.7120087269        3.3565421439  PROB      11             96.0500000000
       115        11  ASP       OD2            -2.6942390379        4.6338724159        2.9759713477  PROB      11             95.6900000000
       116        11  ASP       C              -3.9401399933        0.7068784390        0.3691420256  PROB      11             98.6800000000
       117        11  ASP       O              -4.0975508115        0.9017197758       -0.8376444874  PROB      11             98.6300000000
       118        12  PRO       N              -4.8202984259       -0.1364789055        1.1053936965  PROB      12             98.6000000000
       119        12  PRO       CD             -4.6439358926       -0.4880147603        2.4228312850  PROB      12             97.4100000000
       120        12  PRO       HD1            -4.9070214465        0.3668990724        3.0806730463  PROB      12              0.0000000000
       121        12  PRO       HD2            -3.5892315129       -0.7888528023        2.5958705783  PROB      12              0.0000000000
       122        12  PRO       CA             -5.9402010283       -0.7804421186        0.4146328541  PROB      12             98.5700000000
       123        12  PRO       HA             -5.5876194954       -1.3263847575       -0.4457051682  PROB      12              0.0000000000
       124        12  PRO       CB             -6.5751644904       -1.6463448440        1.5060044094  PROB      12             98.5200000000
       125        12  PRO       HB1            -6.7498361162       -2.6796828551        1.1375226214  PROB      12              0.0000000000
       126        12  PRO       HB2            -7.5436780343       -1.2150417482        1.8377205603  PROB      12              0.0000000000
       127        12  PRO       CG             -5.5827939791       -1.6424043998        2.6228514182  PROB      12             97.9000000000
       128        12  PRO       HG1            -6.1093486768       -1.5366702969        3.5954016244  PROB      12              0.0000000000
       129        12  PRO       HG2            -5.0132055958       -2.5962687352        2.6251659765  PROB      12              0.0000000000
       130        12  PRO       C              -6.9474030725        0.2223243273       -0.1403892149  PROB      12             98.6900000000
       131        12  PRO       O              -7.0518678776        1.3430675848        0.3658337155  PROB      12             98.6500000000
       132        13  GLY       N              -7.5925055319       -0.2094246936       -1.2290809068  PROB      13             98.4800000000
       133        13  GLY       HN             -7.4010400456       -1.0795746050       -1.6763518070  PROB      13              0.0000000000
       134        13  GLY       CA             -8.6334713146        0.6291994580       -1.8010238861  PROB      13             98.4600000000
       135        13  GLY       HA1            -9.0150503199        0.1287627717       -2.6786601788  PROB      13              0.0000000000
       136        13  GLY       HA2            -8.1837541732        1.5718505086       -2.0757025458  PROB      13              0.0000000000
       137        13  GLY       C              -9.7812898585        0.8913490562       -0.8459447383  PROB      13             98.6300000000
       138        13  GLY       O              -9.9013977940        0.2268845170        0.1863299151  PROB      13             98.5900000000
       139        14  SER       N             -10.6239233469        1.6934514847       -1.3029813871  PROB      14             98.5500000000
       140        14  SER       HN            -10.5101989682        2.1832166087       -2.1638404842  PROB      14              0.0000000000
       141        14  SER       CA            -11.8466992144        1.9346634497       -0.5427150088  PROB      14             98.5100000000
       142        14  SER       HA            -11.5813875771        2.0182312200        0.5007367640  PROB      14              0.0000000000
       143        14  SER       CB            -12.5323269353        3.2150430106       -1.0210630082  PROB      14             98.3700000000
       144        14  SER       HB1           -13.4458289288        3.3972093440       -0.4156240920  PROB      14              0.0000000000
       145        14  SER       HB2           -12.8125372925        3.1104119392       -2.0909981656  PROB      14              0.0000000000
       146        14  SER       OG            -11.6676510837        4.3298308659       -0.8850493712  PROB      14             94.9400000000
       147        14  SER       HG1           -11.4570503063        4.3888648680        0.0497031625  PROB      14              0.0000000000
       148        14  SER       C             -12.8102444371        0.7584749308       -0.6578287426  PROB      14             98.6600000000
       149        14  SER       O             -12.7683708723        0.0091167482       -1.6358752235  PROB      14             98.6200000000
       150        15  GLY       N             -13.5544705287        0.4108331171        0.4569800723  PROB      15             98.1500000000
       151        15  GLY       HN            -13.4318478395        0.8621314461        1.3373494944  PROB      15              0.0000000000
       152        15  GLY       CA            -14.5625443034       -0.6365887199        0.4100891329  PROB      15             98.1100000000
       153        15  GLY       HA1           -14.9720332982       -0.7452512699        1.4034676571  PROB      15              0.0000000000
       154        15  GLY       HA2           -14.0746269411       -1.5508717378        0.1062587693  PROB      15              0.0000000000
       155        15  GLY       C             -15.6914809317       -0.3350775194       -0.5581577805  PROB      15             98.3000000000
       156        15  GLY       O             -15.7779643313        0.7716404323       -1.0932484243  PROB      15             98.1900000000
       157        16  PRO       N             -16.4978398299       -1.0937429947       -0.8925498019  PROB      16             98.5500000000
       158        16  PRO       CD            -16.4603183672       -2.4235200909       -0.2349138735  PROB      16             97.2100000000
       159        16  PRO       HD1           -16.4044410398       -2.3045679350        0.8673669318  PROB      16              0.0000000000
       160        16  PRO       HD2           -15.5883853205       -3.0064766350       -0.5984923308  PROB      16              0.0000000000
       161        16  PRO       CA            -17.7032603263       -0.8841254867       -1.6975062772  PROB      16             98.5300000000
       162        16  PRO       HA            -17.4542834843       -0.3996586692       -2.6279995240  PROB      16              0.0000000000
       163        16  PRO       CB            -18.2789526851       -2.2953060990       -1.8449599567  PROB      16             98.4600000000
       164        16  PRO       HB1           -17.9343754281       -2.7648619416       -2.7909284784  PROB      16              0.0000000000
       165        16  PRO       HB2           -19.3895552095       -2.2705537415       -1.8402724292  PROB      16              0.0000000000
       166        16  PRO       CG            -17.7600960862       -3.0450708213       -0.6608887212  PROB      16             97.7400000000
       167        16  PRO       HG1           -18.4945310860       -2.9922143521        0.1710404223  PROB      16              0.0000000000
       168        16  PRO       HG2           -17.5988032008       -4.1108836930       -0.9298165977  PROB      16              0.0000000000
       169        16  PRO       C             -18.7084846655        0.0465278619       -1.0233962174  PROB      16             98.6700000000
       170        16  PRO       O             -18.6855710078        0.2043302053        0.1996059840  PROB      16             98.6400000000
       171        17  GLY       N             -19.6117050003        0.7975438196       -1.8086605411  PROB      17             98.5200000000
       172        17  GLY       HN            -19.5460780221        0.7723460465       -2.8017345463  PROB      17              0.0000000000
       173        17  GLY       CA            -20.6815466705        1.6471360538       -1.3097609156  PROB      17             98.5100000000
       174        17  GLY       HA1           -21.1177330446        2.1590273342       -2.1547450766  PROB      17              0.0000000000
       175        17  GLY       HA2           -20.2450049948        2.3607282469       -0.6267477272  PROB      17              0.0000000000
       176        17  GLY       C             -21.7684292488        0.8747748872       -0.5870248024  PROB      17             98.6500000000
       177        17  GLY       O             -21.8448122098       -0.3508129381       -0.6972569474  PROB      17             98.6300000000
       178        18  ASP       N             -22.4788329371        1.3940989010        0.1339676860  PROB      18             98.5500000000
       179        18  ASP       HN            -22.3321128155        2.3540981698        0.3487521473  PROB      18              0.0000000000
       180        18  ASP       CA            -23.6322442114        0.8245434572        0.8231512818  PROB      18             98.5200000000
       181        18  ASP       HA            -23.3159183735       -0.0866645729        1.3087465582  PROB      18              0.0000000000
       182        18  ASP       CB            -24.1842461560        1.8122611513        1.8533204960  PROB      18             98.3500000000
       183        18  ASP       HB1           -25.1689062291        1.4444674046        2.2122672161  PROB      18              0.0000000000
       184        18  ASP       HB2           -24.3195521142        2.8013459373        1.3664180096  PROB      18              0.0000000000
       185        18  ASP       CG            -23.2717571118        1.9893353009        3.0536460726  PROB      18             97.0200000000
       186        18  ASP       OD1           -22.4185230554        1.1126196360        3.3059817373  PROB      18             95.9400000000
       187        18  ASP       OD2           -23.4097354471        3.0139716645        3.7565929422  PROB      18             95.5900000000
       188        18  ASP       C             -24.7261155157        0.4327779143       -0.1674290174  PROB      18             98.6300000000
       189        18  ASP       O             -24.9058326730        1.0909193304       -1.1941420346  PROB      18             98.5700000000
       190        19  PRO       N             -25.2743903333       -0.9540922295       -0.0295017593  PROB      19             98.2300000000
       191        19  PRO       CD            -24.9394099781       -1.7827001186        1.0214707083  PROB      19             96.1500000000
       192        19  PRO       HD1           -25.3638530685       -1.3881850881        1.9684212548  PROB      19              0.0000000000
       193        19  PRO       HD2           -23.8354559577       -1.8646132606        1.1056439915  PROB      19              0.0000000000
       194        19  PRO       CA            -26.3400952575       -1.4387630611       -0.9095865276  PROB      19             98.0300000000
       195        19  PRO       HA            -26.0155898589       -1.4219227629       -1.9376697113  PROB      19              0.0000000000
       196        19  PRO       CB            -26.6448013974       -2.8333306407       -0.3576930285  PROB      19             97.8200000000
       197        19  PRO       HB1           -26.6237199599       -3.5915908399       -1.1692830599  PROB      19              0.0000000000
       198        19  PRO       HB2           -27.6435608296       -2.8552933601        0.1281861452  PROB      19              0.0000000000
       199        19  PRO       CG            -25.5633275912       -3.0950847197        0.6409126036  PROB      19             96.4700000000
       200        19  PRO       HG1           -25.9911377949       -3.5853177363        1.5414387130  PROB      19              0.0000000000
       201        19  PRO       HG2           -24.7948858124       -3.7647206911        0.1988920691  PROB      19              0.0000000000
       202        19  PRO       C             -27.5835901089       -0.5544557922       -0.8717155770  PROB      19             98.0700000000
       203        19  PRO       OT1           -27.5673763252        0.4571892216       -0.1207751804  PROB      19              0.0000000000
       204        19  PRO       OT2           -28.5636387121       -0.8806728479       -1.5933021400  PROB      19              0.0000000000
