Title t= 358.00000 step= 179000
29212
    1ASP      N    1   2.581   1.702   2.702
    1ASP    HT1    2   2.589   1.803   2.677
    1ASP    HT2    3   2.666   1.657   2.661
    1ASP    HT3    4   2.577   1.692   2.805
    1ASP     CA    5   2.465   1.630   2.627
    1ASP     HA    6   2.454   1.656   2.523
    1ASP     CB    7   2.481   1.474   2.639
    1ASP    HB1    8   2.401   1.409   2.599
    1ASP    HB2    9   2.484   1.446   2.747
    1ASP     CG   10   2.623   1.419   2.611
    1ASP    OD1   11   2.719   1.494   2.606
    1ASP    OD2   12   2.636   1.298   2.604
    1ASP      C   13   2.326   1.670   2.686
    1ASP      O   14   2.259   1.757   2.626
    2GLY      N   15   2.278   1.626   2.804
    2GLY     HN   16   2.327   1.573   2.873
    2GLY     CA   17   2.136   1.652   2.842
    2GLY    HA1   18   2.129   1.759   2.854
    2GLY    HA2   19   2.117   1.600   2.935
    2GLY      C   20   2.023   1.612   2.753
    2GLY      O   21   2.042   1.534   2.659
    3ASP      N   22   1.909   1.672   2.786
    3ASP     HN   23   1.902   1.743   2.856
    3ASP     CA   24   1.791   1.649   2.704
    3ASP     HA   25   1.798   1.560   2.643
    3ASP     CB   26   1.664   1.630   2.788
    3ASP    HB1   27   1.571   1.639   2.728
    3ASP    HB2   28   1.662   1.716   2.858
    3ASP     CG   29   1.655   1.508   2.867
    3ASP    OD1   30   1.550   1.494   2.937
    3ASP    OD2   31   1.750   1.425   2.877
    3ASP      C   32   1.773   1.762   2.597
    3ASP      O   33   1.815   1.878   2.624
    4GLY      N   34   1.702   1.737   2.488
    4GLY     HN   35   1.664   1.647   2.468
    4GLY     CA   36   1.657   1.843   2.400
    4GLY    HA1   37   1.619   1.811   2.304
    4GLY    HA2   38   1.748   1.901   2.390
    4GLY      C   39   1.537   1.930   2.449
    4GLY      O   40   1.454   1.882   2.532
    5PRO      N   41   1.523   2.059   2.416
    5PRO     CD   42   1.595   2.120   2.301
    5PRO    HD1   43   1.584   2.053   2.213
    5PRO    HD2   44   1.704   2.127   2.321
    5PRO     CA   45   1.423   2.154   2.472
    5PRO     HA   46   1.426   2.147   2.580
    5PRO     CB   47   1.473   2.281   2.426
    5PRO    HB1   48   1.562   2.303   2.487
    5PRO    HB2   49   1.395   2.360   2.428
    5PRO     CG   50   1.523   2.255   2.286
    5PRO    HG1   51   1.438   2.251   2.214
    5PRO    HG2   52   1.595   2.337   2.264
    5PRO      C   53   1.278   2.129   2.421
    5PRO      O   54   1.214   2.227   2.360
    6GLY      N   55   1.228   2.002   2.427
    6GLY     HN   56   1.285   1.923   2.448
    6GLY     CA   57   1.080   1.975   2.421
    6GLY    HA1   58   1.069   1.868   2.412
    6GLY    HA2   59   1.035   2.013   2.331
    6GLY      C   60   1.004   2.028   2.539
    6GLY      O   61   1.062   2.084   2.635
    7ASP      N   62   0.868   1.990   2.549
    7ASP     HN   63   0.823   1.951   2.470
    7ASP     CA   64   0.784   2.025   2.664
    7ASP     HA   65   0.805   2.128   2.690
    7ASP     CB   66   0.634   2.014   2.628
    7ASP    HB1   67   0.566   2.012   2.715
    7ASP    HB2   68   0.610   1.926   2.563
    7ASP     CG   69   0.594   2.135   2.548
    7ASP    OD1   70   0.663   2.241   2.558
    7ASP    OD2   71   0.496   2.126   2.472
    7ASP      C   72   0.829   1.942   2.783
    7ASP      O   73   0.849   1.822   2.764
    8PRO      N   74   0.850   1.987   2.910
    8PRO     CD   75   0.858   2.129   2.945
    8PRO    HD1   76   0.756   2.174   2.941
    8PRO    HD2   77   0.913   2.190   2.871
    8PRO     CA   78   0.869   1.904   3.027
    8PRO     HA   79   0.956   1.841   3.021
    8PRO     CB   80   0.875   1.999   3.147
    8PRO    HB1   81   0.927   1.949   3.231
    8PRO    HB2   82   0.774   2.021   3.187
    8PRO     CG   83   0.939   2.120   3.075
    8PRO    HG1   84   0.943   2.215   3.131
    8PRO    HG2   85   1.045   2.099   3.050
    8PRO      C   86   0.754   1.806   3.064
    8PRO      O   87   0.643   1.860   3.075
    9GLY      N   88   0.772   1.672   3.070
    9GLY     HN   89   0.866   1.638   3.069
    9GLY     CA   90   0.670   1.582   3.113
    9GLY    HA1   91   0.697   1.478   3.099
    9GLY    HA2   92   0.576   1.613   3.070
    9GLY      C   93   0.641   1.588   3.258
    9GLY      O   94   0.707   1.656   3.331
   10ASP      N   95   0.547   1.507   3.309
   10ASP     HN   96   0.476   1.461   3.255
   10ASP     CA   97   0.565   1.448   3.442
   10ASP     HA   98   0.610   1.526   3.502
   10ASP     CB   99   0.426   1.398   3.493
   10ASP    HB1  100   0.435   1.332   3.581
   10ASP    HB2  101   0.363   1.343   3.419
   10ASP     CG  102   0.341   1.518   3.529
   10ASP    OD1  103   0.215   1.508   3.527
   10ASP    OD2  104   0.389   1.627   3.559
   10ASP      C  105   0.656   1.324   3.458
   10ASP      O  106   0.703   1.309   3.567
   11GLY      N  107   0.680   1.239   3.353
   11GLY     HN  108   0.636   1.256   3.265
   11GLY     CA  109   0.741   1.103   3.373
   11GLY    HA1  110   0.701   1.026   3.308
   11GLY    HA2  111   0.730   1.074   3.476
   11GLY      C  112   0.894   1.102   3.356
   11GLY    OT1  113   0.946   1.140   3.247
   11GLY    OT2  114   0.967   1.050   3.448
   12LIT    LIT  115   4.457   5.313   2.087
   13LIT    LIT  116   5.697   5.768   0.147
   14LIT    LIT  117   0.597   3.786   5.857
   15LIT    LIT  118   2.751   1.949   1.234
   16LIT    LIT  119   1.106   1.027   3.307
   17LIT    LIT  120   0.191   1.817   0.983
   18LIT    LIT  121   5.335   4.573   0.694
   19LIT    LIT  122   4.528   0.368   0.717
   20LIT    LIT  123   0.227   3.203   3.324
   21LIT    LIT  124   4.550   1.814   5.817
   22LIT    LIT  125   4.326   4.779   0.195
   23LIT    LIT  126   1.449   0.077   0.173
   24LIT    LIT  127   5.530   4.940   2.331
   25LIT    LIT  128   6.706   0.999   1.999
   26LIT    LIT  129   0.195   1.645   3.652
   27LIT    LIT  130   4.147   3.150   3.192
   28LIT    LIT  131   6.271   4.186   5.704
   29LIT    LIT  132   1.143   1.721   3.428
   30LIT    LIT  133   7.110   3.476   1.538
   31LIT    LIT  134   4.338   1.476   1.966
   32LIT    LIT  135   5.964   1.329   0.622
   33LIT    LIT  136   3.897   3.258   2.317
   34LIT    LIT  137   4.998   2.195   5.762
   35LIT    LIT  138   7.087   1.293   1.662
   36LIT    LIT  139   3.537   3.075   5.007
   37LIT    LIT  140   3.475   4.612   2.502
   38LIT    LIT  141   0.832   4.795   1.538
   39LIT    LIT  142   2.814   1.281   2.639
   40LIT    LIT  143   4.576   0.005   1.646
   41LIT    LIT  144   3.847   0.224   5.872
   42LIT    LIT  145   1.874   1.288   2.951
   43CLA    CLA  146   1.989   6.699   1.739
   44CLA    CLA  147   6.149   0.862   3.161
   45CLA    CLA  148   3.702   1.678   5.890
   46CLA    CLA  149   6.448   5.728   0.101
   47CLA    CLA  150   6.002   0.951   1.107
   48CLA    CLA  151   3.681   2.813   4.675
   49CLA    CLA  152   3.678   4.282   3.502
   50CLA    CLA  153   5.087   5.374   1.440
   51CLA    CLA  154   1.002   1.667   0.203
   52CLA    CLA  155   3.315   0.486   0.615
   53CLA    CLA  156   3.195   3.148   4.125
   54CLA    CLA  157   5.506   3.586   2.836
   55CLA    CLA  158   1.917   4.719   5.302
   56CLA    CLA  159   6.301   2.918   1.995
   57CLA    CLA  160   5.970   1.037   4.910
   58CLA    CLA  161   5.247   2.775   1.894
   59CLA    CLA  162   4.853   5.572   5.118
   60CLA    CLA  163   5.469   1.788   5.175
   61CLA    CLA  164   2.759   0.724   1.446
   62CLA    CLA  165   6.755   4.074   5.492
   63CLA    CLA  166   1.749   1.346   4.419
   64CLA    CLA  167   4.302   1.946   0.098
   65CLA    CLA  168   5.235   5.323   2.230
   66CLA    CLA  169   0.799   6.771   5.567
   67CLA    CLA  170   3.467   4.169   2.469
   68CLA    CLA  171   1.479   2.764   1.792
   69CLA    CLA  172   5.024   6.034   2.080
   70TIP3   OH2  173   1.276   3.657   1.848
   70TIP3    H1  174   1.298   3.572   1.808
   70TIP3    H2  175   1.341   3.718   1.812
   71TIP3   OH2  176   3.146   1.273   4.701
   71TIP3    H1  177   3.229   1.281   4.654
   71TIP3    H2  178   3.128   1.179   4.702
   72TIP3   OH2  179   5.728   5.265   0.974
   72TIP3    H1  180   5.694   5.217   1.049
   72TIP3    H2  181   5.794   5.208   0.936
   73TIP3   OH2  182   5.733   2.599   1.059
   73TIP3    H1  183   5.750   2.620   0.968
   73TIP3    H2  184   5.718   2.504   1.060
   74TIP3   OH2  185   4.965   4.487   3.850
   74TIP3    H1  186   4.904   4.544   3.897
   74TIP3    H2  187   5.007   4.435   3.919
   75TIP3   OH2  188   4.420   3.732   1.723
   75TIP3    H1  189   4.460   3.818   1.737
   75TIP3    H2  190   4.383   3.737   1.635
   76TIP3   OH2  191   0.679   0.877   5.565
   76TIP3    H1  192   0.681   0.800   5.509
   76TIP3    H2  193   0.641   0.845   5.647
   77TIP3   OH2  194   2.433   3.862   3.256
   77TIP3    H1  195   2.475   3.936   3.213
   77TIP3    H2  196   2.481   3.785   3.225
   78TIP3   OH2  197   3.880   6.691   5.498
   78TIP3    H1  198   3.821   6.643   5.441
   78TIP3    H2  199   3.868   6.783   5.473
   79TIP3   OH2  200   4.900   6.441   1.455
   79TIP3    H1  201   4.844   6.399   1.390
   79TIP3    H2  202   4.868   6.531   1.460
   80TIP3   OH2  203   0.568   6.561   5.656
   80TIP3    H1  204   0.621   6.516   5.590
   80TIP3    H2  205   0.588   6.654   5.643
   81TIP3   OH2  206   6.372   2.764   4.207
   81TIP3    H1  207   6.371   2.850   4.165
   81TIP3    H2  208   6.295   2.720   4.171
   82TIP3   OH2  209   3.880   4.721   4.133
   82TIP3    H1  210   3.865   4.764   4.217
   82TIP3    H2  211   3.843   4.634   4.143
   83TIP3   OH2  212   5.514   6.432   0.928
   83TIP3    H1  213   5.521   6.400   0.838
   83TIP3    H2  214   5.520   6.353   0.982
   84TIP3   OH2  215   3.857   4.904   1.753
   84TIP3    H1  216   3.801   4.828   1.739
   84TIP3    H2  217   3.946   4.871   1.741
   85TIP3   OH2  218   4.427   1.572   2.477
   85TIP3    H1  219   4.469   1.495   2.515
   85TIP3    H2  220   4.425   1.556   2.383
   86TIP3   OH2  221   0.883   3.523   0.862
   86TIP3    H1  222   0.905   3.582   0.790
   86TIP3    H2  223   0.819   3.572   0.914
   87TIP3   OH2  224   4.002   2.821   3.027
   87TIP3    H1  225   3.987   2.820   2.933
   87TIP3    H2  226   4.063   2.749   3.042
   88TIP3   OH2  227   0.134   5.140   5.318
   88TIP3    H1  228   0.059   5.200   5.308
   88TIP3    H2  229   0.131   5.114   5.410
   89TIP3   OH2  230   4.909   5.143   3.084
   89TIP3    H1  231   4.906   5.056   3.043
   89TIP3    H2  232   4.985   5.139   3.142
   90TIP3   OH2  233   4.821   2.164   4.360
   90TIP3    H1  234   4.770   2.095   4.401
   90TIP3    H2  235   4.910   2.152   4.394
   91TIP3   OH2  236   0.257   2.789   3.063
   91TIP3    H1  237   0.321   2.831   3.007
   91TIP3    H2  238   0.295   2.704   3.084
   92TIP3   OH2  239   2.864   5.327   1.636
   92TIP3    H1  240   2.845   5.401   1.694
   92TIP3    H2  241   2.948   5.348   1.596
   93TIP3   OH2  242   6.020   3.925   4.768
   93TIP3    H1  243   5.974   3.937   4.685
   93TIP3    H2  244   6.102   3.882   4.744
   94TIP3   OH2  245   6.435   3.667   4.466
   94TIP3    H1  246   6.367   3.605   4.438
   94TIP3    H2  247   6.493   3.674   4.391
   95TIP3   OH2  248   0.827   1.397   0.371
   95TIP3    H1  249   0.788   1.396   0.459
   95TIP3    H2  250   0.825   1.489   0.346
   96TIP3   OH2  251   5.760   2.257   2.987
   96TIP3    H1  252   5.680   2.291   2.948
   96TIP3    H2  253   5.742   2.256   3.081
   97TIP3   OH2  254   0.474   5.653   0.073
   97TIP3    H1  255   0.447   5.739   0.106
   97TIP3    H2  256   0.498   5.604   0.152
   98TIP3   OH2  257   2.208   0.107   0.757
   98TIP3    H1  258   2.261   0.129   0.834
   98TIP3    H2  259   2.144   0.044   0.790
   99TIP3   OH2  260   6.646   3.769   2.142
   99TIP3    H1  261   6.732   3.805   2.123
   99TIP3    H2  262   6.663   3.677   2.163
  100TIP3   OH2  263   5.398   5.819   3.018
  100TIP3    H1  264   5.463   5.792   2.953
  100TIP3    H2  265   5.336   5.874   2.968
  101TIP3   OH2  266   2.042   4.272   3.979
  101TIP3    H1  267   1.953   4.244   4.000
  101TIP3    H2  268   2.042   4.366   3.997
  102TIP3   OH2  269   4.526   0.858   2.617
  102TIP3    H1  270   4.602   0.916   2.623
  102TIP3    H2  271   4.510   0.830   2.708
  103TIP3   OH2  272   5.189   6.434   2.965
  103TIP3    H1  273   5.285   6.431   2.971
  103TIP3    H2  274   5.164   6.345   2.941
  104TIP3   OH2  275   4.329   0.728   5.492
  104TIP3    H1  276   4.272   0.685   5.428
  104TIP3    H2  277   4.319   0.822   5.474
  105TIP3   OH2  278   6.420   5.261   0.896
  105TIP3    H1  279   6.448   5.172   0.914
  105TIP3    H2  280   6.478   5.291   0.826
  106TIP3   OH2  281   6.984   6.538   1.410
  106TIP3    H1  282   6.921   6.503   1.473
  106TIP3    H2  283   6.943   6.525   1.325
  107TIP3   OH2  284   6.875   5.803   2.122
  107TIP3    H1  285   6.869   5.869   2.191
  107TIP3    H2  286   6.878   5.853   2.041
  108TIP3   OH2  287   0.421   6.792   3.163
  108TIP3    H1  288   0.356   6.764   3.227
  108TIP3    H2  289   0.370   6.815   3.085
  109TIP3   OH2  290   0.243   6.198   1.420
  109TIP3    H1  291   0.204   6.158   1.341
  109TIP3    H2  292   0.243   6.292   1.401
  110TIP3   OH2  293   1.855   0.556   2.519
  110TIP3    H1  294   1.840   0.643   2.481
  110TIP3    H2  295   1.872   0.572   2.611
  111TIP3   OH2  296   3.418   1.515   5.880
  111TIP3    H1  297   3.499   1.566   5.876
  111TIP3    H2  298   3.430   1.445   5.816
  112TIP3   OH2  299   0.588   1.080   5.081
  112TIP3    H1  300   0.544   1.011   5.032
  112TIP3    H2  301   0.554   1.071   5.170
  113TIP3   OH2  302   3.972   6.097   2.619
  113TIP3    H1  303   3.990   6.098   2.713
  113TIP3    H2  304   3.973   6.189   2.593
  114TIP3   OH2  305   7.032   1.439   0.510
  114TIP3    H1  306   7.056   1.350   0.482
  114TIP3    H2  307   7.027   1.489   0.428
  115TIP3   OH2  308   7.101   4.554   0.214
  115TIP3    H1  309   7.081   4.597   0.297
  115TIP3    H2  310   7.186   4.591   0.188
  116TIP3   OH2  311   4.399   3.419   3.981
  116TIP3    H1  312   4.343   3.390   3.910
  116TIP3    H2  313   4.347   3.485   4.027
  117TIP3   OH2  314   1.797   6.631   1.488
  117TIP3    H1  315   1.843   6.638   1.404
  117TIP3    H2  316   1.866   6.641   1.553
  118TIP3   OH2  317   5.993   2.974   2.711
  118TIP3    H1  318   5.961   2.941   2.795
  118TIP3    H2  319   6.025   2.897   2.666
  119TIP3   OH2  320   0.072   5.275   0.565
  119TIP3    H1  321  -0.018   5.307   0.556
  119TIP3    H2  322   0.065   5.204   0.629
  120TIP3   OH2  323   3.383   1.031   1.650
  120TIP3    H1  324   3.415   1.009   1.562
  120TIP3    H2  325   3.442   1.099   1.680
  121TIP3   OH2  326   3.189   1.044   1.884
  121TIP3    H1  327   3.131   1.102   1.834
  121TIP3    H2  328   3.259   1.021   1.823
  122TIP3   OH2  329   3.384   0.775   2.495
  122TIP3    H1  330   3.473   0.772   2.528
  122TIP3    H2  331   3.330   0.739   2.566
  123TIP3   OH2  332   1.455   6.034   5.190
  123TIP3    H1  333   1.398   6.105   5.160
  123TIP3    H2  334   1.500   6.005   5.111
  124TIP3   OH2  335   6.365   0.513   5.305
  124TIP3    H1  336   6.372   0.602   5.339
  124TIP3    H2  337   6.299   0.519   5.235
  125TIP3   OH2  338   5.829   2.630   1.497
  125TIP3    H1  339   5.887   2.638   1.573
  125TIP3    H2  340   5.750   2.589   1.530
  126TIP3   OH2  341   2.748   2.200   1.682
  126TIP3    H1  342   2.706   2.138   1.623
  126TIP3    H2  343   2.731   2.165   1.769
  127TIP3   OH2  344   5.176   5.760   5.254
  127TIP3    H1  345   5.227   5.685   5.285
  127TIP3    H2  346   5.165   5.744   5.161
  128TIP3   OH2  347   4.205   3.734   0.069
  128TIP3    H1  348   4.282   3.730   0.013
  128TIP3    H2  349   4.132   3.746   0.009
  129TIP3   OH2  350   1.044   1.264   3.037
  129TIP3    H1  351   1.018   1.234   3.124
  129TIP3    H2  352   1.104   1.197   3.006
  130TIP3   OH2  353   2.268   6.807   0.220
  130TIP3    H1  354   2.239   6.870   0.285
  130TIP3    H2  355   2.336   6.852   0.170
  131TIP3   OH2  356   4.289   0.418   5.586
  131TIP3    H1  357   4.353   0.380   5.526
  131TIP3    H2  358   4.331   0.496   5.621
  132TIP3   OH2  359   1.258   1.977   0.504
  132TIP3    H1  360   1.188   1.913   0.510
  132TIP3    H2  361   1.214   2.062   0.498
  133TIP3   OH2  362   4.847   2.575   4.914
  133TIP3    H1  363   4.878   2.492   4.950
  133TIP3    H2  364   4.926   2.621   4.889
  134TIP3   OH2  365   7.076   1.397   2.209
  134TIP3    H1  366   7.156   1.450   2.204
  134TIP3    H2  367   7.058   1.390   2.303
  135TIP3   OH2  368   5.138   6.107   5.775
  135TIP3    H1  369   5.079   6.131   5.704
  135TIP3    H2  370   5.192   6.185   5.790
  136TIP3   OH2  371   4.317   3.738   4.912
  136TIP3    H1  372   4.290   3.692   4.833
  136TIP3    H2  373   4.296   3.678   4.983
  137TIP3   OH2  374   5.054   5.122   5.882
  137TIP3    H1  375   5.094   5.064   5.817
  137TIP3    H2  376   4.966   5.137   5.849
  138TIP3   OH2  377   2.949   3.454   5.835
  138TIP3    H1  378   2.885   3.458   5.905
  138TIP3    H2  379   2.948   3.542   5.796
  139TIP3   OH2  380   5.747   1.619   4.577
  139TIP3    H1  381   5.685   1.594   4.644
  139TIP3    H2  382   5.833   1.598   4.614
  140TIP3   OH2  383   1.956   5.842   2.571
  140TIP3    H1  384   1.977   5.754   2.601
  140TIP3    H2  385   1.878   5.866   2.622
  141TIP3   OH2  386   1.630   0.144   3.924
  141TIP3    H1  387   1.669   0.228   3.900
  141TIP3    H2  388   1.704   0.088   3.945
  142TIP3   OH2  389   4.208   2.148   5.430
  142TIP3    H1  390   4.142   2.200   5.476
  142TIP3    H2  391   4.277   2.210   5.409
  143TIP3   OH2  392   6.078   5.386   2.452
  143TIP3    H1  393   6.167   5.420   2.458
  143TIP3    H2  394   6.088   5.295   2.423
  144TIP3   OH2  395   6.910   2.495   3.486
  144TIP3    H1  396   6.950   2.552   3.551
  144TIP3    H2  397   6.852   2.552   3.436
  145TIP3   OH2  398   0.742   3.701   0.996
  145TIP3    H1  399   0.763   3.689   1.089
  145TIP3    H2  400   0.728   3.796   0.987
  146TIP3   OH2  401   2.401   1.435   4.281
  146TIP3    H1  402   2.315   1.414   4.245
  146TIP3    H2  403   2.438   1.498   4.219
  147TIP3   OH2  404   3.639   0.624   1.538
  147TIP3    H1  405   3.667   0.565   1.608
  147TIP3    H2  406   3.551   0.651   1.562
  148TIP3   OH2  407   3.988   3.796   1.689
  148TIP3    H1  408   4.003   3.860   1.620
  148TIP3    H2  409   3.944   3.845   1.758
  149TIP3   OH2  410   5.625   5.470   3.222
  149TIP3    H1  411   5.684   5.540   3.191
  149TIP3    H2  412   5.647   5.460   3.315
  150TIP3   OH2  413   5.929   2.977   3.942
  150TIP3    H1  414   5.876   2.899   3.932
  150TIP3    H2  415   5.999   2.967   3.878
  151TIP3   OH2  416   1.774   4.535   3.944
  151TIP3    H1  417   1.752   4.525   3.851
  151TIP3    H2  418   1.719   4.472   3.989
  152TIP3   OH2  419   3.485   2.614   5.556
  152TIP3    H1  420   3.577   2.640   5.564
  152TIP3    H2  421   3.452   2.613   5.645
  153TIP3   OH2  422   2.715   1.084   3.894
  153TIP3    H1  423   2.776   1.153   3.867
  153TIP3    H2  424   2.747   1.005   3.851
  154TIP3   OH2  425   0.466   2.084   4.058
  154TIP3    H1  426   0.438   2.048   3.975
  154TIP3    H2  427   0.559   2.063   4.064
  155TIP3   OH2  428   3.284   4.252   0.654
  155TIP3    H1  429   3.221   4.181   0.670
  155TIP3    H2  430   3.280   4.266   0.559
  156TIP3   OH2  431   2.997   2.786   3.404
  156TIP3    H1  432   2.968   2.816   3.318
  156TIP3    H2  433   3.058   2.715   3.386
  157TIP3   OH2  434   0.681   6.109   1.514
  157TIP3    H1  435   0.776   6.095   1.513
  157TIP3    H2  436   0.664   6.163   1.437
  158TIP3   OH2  437   4.081   5.462   3.361
  158TIP3    H1  438   4.085   5.536   3.301
  158TIP3    H2  439   4.024   5.398   3.317
  159TIP3   OH2  440   2.442   6.515   2.934
  159TIP3    H1  441   2.482   6.447   2.880
  159TIP3    H2  442   2.349   6.493   2.935
  160TIP3   OH2  443   2.037   4.733   3.237
  160TIP3    H1  444   2.029   4.766   3.147
  160TIP3    H2  445   2.040   4.813   3.291
  161TIP3   OH2  446   1.103   2.610   0.296
  161TIP3    H1  447   1.084   2.531   0.246
  161TIP3    H2  448   1.189   2.639   0.263
  162TIP3   OH2  449   5.856   1.472   0.364
  162TIP3    H1  450   5.941   1.517   0.358
  162TIP3    H2  451   5.799   1.537   0.406
  163TIP3   OH2  452   3.671   0.747   5.509
  163TIP3    H1  453   3.704   0.767   5.422
  163TIP3    H2  454   3.584   0.788   5.512
  164TIP3   OH2  455   3.710   2.810   1.184
  164TIP3    H1  456   3.722   2.904   1.175
  164TIP3    H2  457   3.763   2.772   1.113
  165TIP3   OH2  458   3.574   3.612   3.622
  165TIP3    H1  459   3.561   3.565   3.705
  165TIP3    H2  460   3.669   3.619   3.613
  166TIP3   OH2  461   2.351   4.568   3.925
  166TIP3    H1  462   2.256   4.560   3.925
  166TIP3    H2  463   2.370   4.625   4.000
  167TIP3   OH2  464   7.107   3.031   2.480
  167TIP3    H1  465   7.197   3.016   2.509
  167TIP3    H2  466   7.064   3.070   2.556
  168TIP3   OH2  467   5.277   6.505   1.076
  168TIP3    H1  468   5.361   6.470   1.044
  168TIP3    H2  469   5.288   6.600   1.073
  169TIP3   OH2  470   6.075   4.347   3.161
  169TIP3    H1  471   6.007   4.281   3.146
  169TIP3    H2  472   6.145   4.301   3.206
  170TIP3   OH2  473   4.812   2.509   3.358
  170TIP3    H1  474   4.896   2.462   3.358
  170TIP3    H2  475   4.821   2.573   3.428
  171TIP3   OH2  476   6.519   2.565   3.032
  171TIP3    H1  477   6.492   2.484   3.077
  171TIP3    H2  478   6.614   2.557   3.024
  172TIP3   OH2  479   2.515   5.145   1.876
  172TIP3    H1  480   2.484   5.233   1.899
  172TIP3    H2  481   2.489   5.091   1.951
  173TIP3   OH2  482   7.087   1.073   2.252
  173TIP3    H1  483   7.016   1.075   2.316
  173TIP3    H2  484   7.052   1.118   2.175
  174TIP3   OH2  485   0.746   1.791   5.272
  174TIP3    H1  486   0.799   1.847   5.329
  174TIP3    H2  487   0.807   1.761   5.205
  175TIP3   OH2  488   4.346   6.667   2.589
  175TIP3    H1  489   4.368   6.692   2.679
  175TIP3    H2  490   4.301   6.744   2.553
  176TIP3   OH2  491   1.056   3.663   1.172
  176TIP3    H1  492   1.126   3.601   1.190
  176TIP3    H2  493   0.976   3.611   1.175
  177TIP3   OH2  494   5.388   6.773   4.508
  177TIP3    H1  495   5.306   6.785   4.556
  177TIP3    H2  496   5.360   6.740   4.422
  178TIP3   OH2  497   4.870   4.147   3.441
  178TIP3    H1  498   4.776   4.133   3.430
  178TIP3    H2  499   4.877   4.198   3.522
  179TIP3   OH2  500   5.492   3.097   0.837
  179TIP3    H1  501   5.500   3.179   0.788
  179TIP3    H2  502   5.417   3.053   0.797
  180TIP3   OH2  503   3.676   2.422   4.833
  180TIP3    H1  504   3.605   2.408   4.770
  180TIP3    H2  505   3.756   2.423   4.779
  181TIP3   OH2  506   0.454   1.066   2.567
  181TIP3    H1  507   0.455   1.157   2.538
  181TIP3    H2  508   0.523   1.062   2.634
  182TIP3   OH2  509   1.890   2.598   4.885
  182TIP3    H1  510   1.842   2.537   4.941
  182TIP3    H2  511   1.858   2.580   4.797
  183TIP3   OH2  512   2.779   2.986   4.297
  183TIP3    H1  513   2.731   2.976   4.379
  183TIP3    H2  514   2.863   3.025   4.323
  184TIP3   OH2  515   6.902   2.473   4.864
  184TIP3    H1  516   6.929   2.465   4.773
  184TIP3    H2  517   6.806   2.477   4.861
  185TIP3   OH2  518   5.791   5.446   5.791
  185TIP3    H1  519   5.799   5.374   5.730
  185TIP3    H2  520   5.787   5.524   5.736
  186TIP3   OH2  521   3.452   2.357   5.411
  186TIP3    H1  522   3.370   2.387   5.372
  186TIP3    H2  523   3.483   2.431   5.464
  187TIP3   OH2  524   1.005   2.397   0.155
  187TIP3    H1  525   0.910   2.389   0.146
  187TIP3    H2  526   1.039   2.375   0.068
  188TIP3   OH2  527   6.946   6.012   1.924
  188TIP3    H1  528   6.964   5.924   1.890
  188TIP3    H2  529   6.902   6.057   1.852
  189TIP3   OH2  530   6.640   3.571   5.893
  189TIP3    H1  531   6.611   3.581   5.802
  189TIP3    H2  532   6.570   3.522   5.936
  190TIP3   OH2  533   6.295   3.050   0.735
  190TIP3    H1  534   6.217   2.997   0.755
  190TIP3    H2  535   6.366   2.986   0.727
  191TIP3   OH2  536   3.797   2.078   3.310
  191TIP3    H1  537   3.826   2.085   3.219
  191TIP3    H2  538   3.870   2.038   3.356
  192TIP3   OH2  539   2.069   4.219   2.559
  192TIP3    H1  540   2.055   4.285   2.627
  192TIP3    H2  541   2.090   4.270   2.481
  193TIP3   OH2  542   4.000   1.024   3.298
  193TIP3    H1  543   3.929   1.088   3.295
  193TIP3    H2  544   3.976   0.965   3.369
  194TIP3   OH2  545   1.753   1.629   5.309
  194TIP3    H1  546   1.758   1.671   5.395
  194TIP3    H2  547   1.674   1.574   5.314
  195TIP3   OH2  548   2.344   2.444   3.971
  195TIP3    H1  549   2.354   2.510   4.040
  195TIP3    H2  550   2.273   2.479   3.916
  196TIP3   OH2  551   2.449   0.598   3.115
  196TIP3    H1  552   2.427   0.505   3.112
  196TIP3    H2  553   2.544   0.601   3.106
  197TIP3   OH2  554   4.816   0.625   0.951
  197TIP3    H1  555   4.807   0.539   0.993
  197TIP3    H2  556   4.742   0.675   0.985
  198TIP3   OH2  557   6.987   3.532   5.535
  198TIP3    H1  558   6.970   3.483   5.616
  198TIP3    H2  559   6.971   3.623   5.558
  199TIP3   OH2  560   0.903   0.780   3.413
  199TIP3    H1  561   0.925   0.857   3.465
  199TIP3    H2  562   0.971   0.775   3.347
  200TIP3   OH2  563   4.752   3.651   1.584
  200TIP3    H1  564   4.719   3.701   1.509
  200TIP3    H2  565   4.727   3.704   1.660
  201TIP3   OH2  566   0.915   2.096   1.164
  201TIP3    H1  567   0.922   2.167   1.227
  201TIP3    H2  568   0.853   2.129   1.098
  202TIP3   OH2  569   6.504   3.526   3.289
  202TIP3    H1  570   6.548   3.571   3.216
  202TIP3    H2  571   6.568   3.530   3.360
  203TIP3   OH2  572   6.812   1.012   1.555
  203TIP3    H1  573   6.802   1.070   1.630
  203TIP3    H2  574   6.799   0.924   1.591
  204TIP3   OH2  575   5.421   3.712   3.276
  204TIP3    H1  576   5.408   3.726   3.370
  204TIP3    H2  577   5.507   3.748   3.257
  205TIP3   OH2  578   4.807   4.394   4.225
  205TIP3    H1  579   4.813   4.322   4.288
  205TIP3    H2  580   4.717   4.425   4.232
  206TIP3   OH2  581   3.984   3.533   1.123
  206TIP3    H1  582   4.042   3.502   1.055
  206TIP3    H2  583   3.901   3.552   1.078
  207TIP3   OH2  584   1.367   6.214   0.161
  207TIP3    H1  585   1.393   6.294   0.114
  207TIP3    H2  586   1.272   6.209   0.150
  208TIP3   OH2  587   6.026   5.894   3.308
  208TIP3    H1  588   5.948   5.947   3.322
  208TIP3    H2  589   6.036   5.844   3.390
  209TIP3   OH2  590   3.145   5.674   1.175
  209TIP3    H1  591   3.170   5.591   1.216
  209TIP3    H2  592   3.088   5.648   1.102
  210TIP3   OH2  593   5.933   4.327   1.404
  210TIP3    H1  594   5.977   4.271   1.340
  210TIP3    H2  595   5.852   4.281   1.424
  211TIP3   OH2  596   1.489   6.343   1.892
  211TIP3    H1  597   1.539   6.338   1.974
  211TIP3    H2  598   1.533   6.412   1.842
  212TIP3   OH2  599   4.900   3.378   1.172
  212TIP3    H1  600   4.899   3.290   1.210
  212TIP3    H2  601   4.990   3.408   1.182
  213TIP3   OH2  602   0.527   4.921   2.296
  213TIP3    H1  603   0.446   4.889   2.257
  213TIP3    H2  604   0.504   4.940   2.387
  214TIP3   OH2  605   6.627   4.948   4.377
  214TIP3    H1  606   6.692   4.900   4.429
  214TIP3    H2  607   6.570   4.988   4.442
  215TIP3   OH2  608   5.636   1.157   3.570
  215TIP3    H1  609   5.675   1.071   3.558
  215TIP3    H2  610   5.637   1.172   3.664
  216TIP3   OH2  611   4.222   2.503   2.553
  216TIP3    H1  612   4.310   2.522   2.584
  216TIP3    H2  613   4.208   2.565   2.481
  217TIP3   OH2  614   3.459   0.671   5.250
  217TIP3    H1  615   3.409   0.668   5.331
  217TIP3    H2  616   3.477   0.579   5.230
  218TIP3   OH2  617   2.670   5.143   0.075
  218TIP3    H1  618   2.626   5.058   0.079
  218TIP3    H2  619   2.697   5.160   0.166
  219TIP3   OH2  620   4.335   3.266   0.270
  219TIP3    H1  621   4.241   3.285   0.274
  219TIP3    H2  622   4.373   3.344   0.229
  220TIP3   OH2  623   0.397   0.271   0.582
  220TIP3    H1  624   0.330   0.313   0.636
  220TIP3    H2  625   0.353   0.195   0.544
  221TIP3   OH2  626   6.485   2.357   3.181
  221TIP3    H1  627   6.513   2.408   3.257
  221TIP3    H2  628   6.504   2.266   3.205
  222TIP3   OH2  629   4.151   0.114   2.503
  222TIP3    H1  630   4.116   0.190   2.550
  222TIP3    H2  631   4.244   0.113   2.525
  223TIP3   OH2  632   1.681   1.618   3.377
  223TIP3    H1  633   1.754   1.600   3.318
  223TIP3    H2  634   1.667   1.535   3.424
  224TIP3   OH2  635   3.266   3.468   2.677
  224TIP3    H1  636   3.228   3.552   2.703
  224TIP3    H2  637   3.230   3.451   2.590
  225TIP3   OH2  638   4.439   6.520   4.619
  225TIP3    H1  639   4.356   6.486   4.585
  225TIP3    H2  640   4.460   6.464   4.693
  226TIP3   OH2  641   7.112   3.597   2.292
  226TIP3    H1  642   7.168   3.580   2.216
  226TIP3    H2  643   7.029   3.627   2.254
  227TIP3   OH2  644   3.933   3.167   5.279
  227TIP3    H1  645   3.846   3.206   5.288
  227TIP3    H2  646   3.921   3.097   5.214
  228TIP3   OH2  647   1.293   1.910   1.014
  228TIP3    H1  648   1.288   1.849   1.088
  228TIP3    H2  649   1.236   1.872   0.948
  229TIP3   OH2  650   0.292   5.832   4.196
  229TIP3    H1  651   0.291   5.913   4.145
  229TIP3    H2  652   0.240   5.851   4.273
  230TIP3   OH2  653   5.520   4.493   2.811
  230TIP3    H1  654   5.580   4.438   2.862
  230TIP3    H2  655   5.577   4.541   2.751
  231TIP3   OH2  656   3.216   1.713   0.743
  231TIP3    H1  657   3.271   1.784   0.710
  231TIP3    H2  658   3.127   1.749   0.743
  232TIP3   OH2  659   2.903   6.659   1.430
  232TIP3    H1  660   2.871   6.749   1.420
  232TIP3    H2  661   2.961   6.646   1.355
  233TIP3   OH2  662   6.641   2.341   4.186
  233TIP3    H1  663   6.566   2.387   4.223
  233TIP3    H2  664   6.669   2.281   4.256
  234TIP3   OH2  665   4.445   2.209   4.194
  234TIP3    H1  666   4.461   2.303   4.185
  234TIP3    H2  667   4.526   2.167   4.168
  235TIP3   OH2  668   5.881   2.861   5.216
  235TIP3    H1  669   5.816   2.878   5.148
  235TIP3    H2  670   5.938   2.938   5.214
  236TIP3   OH2  671   0.544   4.578   2.739
  236TIP3    H1  672   0.509   4.591   2.827
  236TIP3    H2  673   0.467   4.564   2.684
  237TIP3   OH2  674   5.003   6.763   1.953
  237TIP3    H1  675   4.964   6.711   2.023
  237TIP3    H2  676   5.016   6.850   1.991
  238TIP3   OH2  677   4.948   6.738   5.256
  238TIP3    H1  678   4.906   6.797   5.318
  238TIP3    H2  679   4.924   6.650   5.288
  239TIP3   OH2  680   7.181   5.982   2.107
  239TIP3    H1  681   7.221   5.895   2.096
  239TIP3    H2  682   7.093   5.973   2.069
  240TIP3   OH2  683   5.545   6.741   1.239
  240TIP3    H1  684   5.613   6.783   1.292
  240TIP3    H2  685   5.494   6.689   1.301
  241TIP3   OH2  686   2.113   5.476   1.751
  241TIP3    H1  687   2.041   5.458   1.811
  241TIP3    H2  688   2.121   5.572   1.752
  242TIP3   OH2  689   6.544   1.381   3.655
  242TIP3    H1  690   6.491   1.423   3.587
  242TIP3    H2  691   6.610   1.332   3.607
  243TIP3   OH2  692   2.578   3.690   4.506
  243TIP3    H1  693   2.671   3.703   4.526
  243TIP3    H2  694   2.552   3.769   4.459
  244TIP3   OH2  695   1.748   1.282   3.848
  244TIP3    H1  696   1.793   1.206   3.811
  244TIP3    H2  697   1.755   1.270   3.943
  245TIP3   OH2  698   0.131   5.233   1.817
  245TIP3    H1  699   0.143   5.152   1.867
  245TIP3    H2  700   0.125   5.301   1.883
  246TIP3   OH2  701   0.417   6.304   0.148
  246TIP3    H1  702   0.409   6.399   0.136
  246TIP3    H2  703   0.507   6.291   0.179
  247TIP3   OH2  704   7.131   1.060   2.780
  247TIP3    H1  705   7.061   1.077   2.717
  247TIP3    H2  706   7.211   1.085   2.735
  248TIP3   OH2  707   3.564   4.362   5.705
  248TIP3    H1  708   3.621   4.356   5.781
  248TIP3    H2  709   3.490   4.304   5.725
  249TIP3   OH2  710   3.550   0.774   4.939
  249TIP3    H1  711   3.535   0.790   4.845
  249TIP3    H2  712   3.589   0.855   4.971
  250TIP3   OH2  713   4.300   3.244   3.249
  250TIP3    H1  714   4.344   3.323   3.281
  250TIP3    H2  715   4.364   3.174   3.262
  251TIP3   OH2  716   4.171   5.024   5.804
  251TIP3    H1  717   4.234   5.075   5.752
  251TIP3    H2  718   4.166   4.940   5.759
  252TIP3   OH2  719   6.447   3.974   4.049
  252TIP3    H1  720   6.473   4.050   4.101
  252TIP3    H2  721   6.386   3.926   4.106
  253TIP3   OH2  722   4.017   4.505   2.186
  253TIP3    H1  723   3.965   4.507   2.266
  253TIP3    H2  724   4.070   4.426   2.193
  254TIP3   OH2  725   3.111   3.073   2.326
  254TIP3    H1  726   3.205   3.066   2.340
  254TIP3    H2  727   3.090   3.164   2.347
  255TIP3   OH2  728   3.102   2.784   0.413
  255TIP3    H1  729   3.152   2.855   0.453
  255TIP3    H2  730   3.049   2.748   0.484
  256TIP3   OH2  731   2.768   5.661   4.354
  256TIP3    H1  732   2.733   5.745   4.386
  256TIP3    H2  733   2.822   5.629   4.426
  257TIP3   OH2  734   5.737   4.923   0.528
  257TIP3    H1  735   5.646   4.912   0.502
  257TIP3    H2  736   5.774   4.834   0.521
  258TIP3   OH2  737   4.325   2.672   3.912
  258TIP3    H1  738   4.337   2.767   3.918
  258TIP3    H2  739   4.279   2.648   3.992
  259TIP3   OH2  740   3.381   5.344   4.453
  259TIP3    H1  741   3.425   5.329   4.536
  259TIP3    H2  742   3.450   5.333   4.387
  260TIP3   OH2  743   2.117   5.063   1.897
  260TIP3    H1  744   2.078   5.118   1.965
  260TIP3    H2  745   2.211   5.075   1.908
  261TIP3   OH2  746   1.314   0.433   3.406
  261TIP3    H1  747   1.256   0.501   3.372
  261TIP3    H2  748   1.386   0.430   3.343
  262TIP3   OH2  749   4.693   4.917   0.104
  262TIP3    H1  750   4.678   4.941   0.012
  262TIP3    H2  751   4.713   5.000   0.147
  263TIP3   OH2  752   6.614   0.413   5.182
  263TIP3    H1  753   6.573   0.327   5.182
  263TIP3    H2  754   6.588   0.453   5.265
  264TIP3   OH2  755   1.079   4.571   1.205
  264TIP3    H1  756   1.072   4.613   1.119
  264TIP3    H2  757   1.154   4.613   1.246
  265TIP3   OH2  758   3.248   0.396   3.968
  265TIP3    H1  759   3.264   0.368   4.058
  265TIP3    H2  760   3.219   0.316   3.924
  266TIP3   OH2  761   1.372   5.594   1.566
  266TIP3    H1  762   1.343   5.503   1.573
  266TIP3    H2  763   1.298   5.640   1.524
  267TIP3   OH2  764   1.403   1.575   1.116
  267TIP3    H1  765   1.455   1.516   1.170
  267TIP3    H2  766   1.367   1.639   1.178
  268TIP3   OH2  767   5.640   5.447   0.787
  268TIP3    H1  768   5.628   5.516   0.852
  268TIP3    H2  769   5.686   5.378   0.835
  269TIP3   OH2  770   4.697   0.025   5.115
  269TIP3    H1  771   4.757   0.084   5.069
  269TIP3    H2  772   4.617   0.076   5.127
  270TIP3   OH2  773   3.542   1.069   2.347
  270TIP3    H1  774   3.530   1.025   2.263
  270TIP3    H2  775   3.576   1.156   2.324
  271TIP3   OH2  776   5.378   1.405   2.392
  271TIP3    H1  777   5.394   1.328   2.447
  271TIP3    H2  778   5.433   1.390   2.314
  272TIP3   OH2  779   5.545   6.060   1.929
  272TIP3    H1  780   5.458   6.022   1.910
  272TIP3    H2  781   5.599   6.033   1.855
  273TIP3   OH2  782   2.290   3.291   3.752
  273TIP3    H1  783   2.369   3.251   3.785
  273TIP3    H2  784   2.219   3.246   3.797
  274TIP3   OH2  785   0.408   4.579   0.585
  274TIP3    H1  786   0.503   4.572   0.573
  274TIP3    H2  787   0.373   4.581   0.496
  275TIP3   OH2  788   1.381   3.488   4.148
  275TIP3    H1  789   1.447   3.554   4.129
  275TIP3    H2  790   1.430   3.414   4.185
  276TIP3   OH2  791   3.341   0.964   3.825
  276TIP3    H1  792   3.246   0.964   3.813
  276TIP3    H2  793   3.366   0.873   3.817
  277TIP3   OH2  794   6.293   1.187   3.804
  277TIP3    H1  795   6.373   1.218   3.847
  277TIP3    H2  796   6.274   1.255   3.739
  278TIP3   OH2  797   6.547   2.228   1.192
  278TIP3    H1  798   6.454   2.247   1.176
  278TIP3    H2  799   6.570   2.164   1.124
  279TIP3   OH2  800   5.113   0.171   0.150
  279TIP3    H1  801   5.081   0.261   0.143
  279TIP3    H2  802   5.113   0.153   0.245
  280TIP3   OH2  803   3.416   1.645   5.123
  280TIP3    H1  804   3.394   1.553   5.137
  280TIP3    H2  805   3.342   1.681   5.075
  281TIP3   OH2  806   0.419   6.734   1.963
  281TIP3    H1  807   0.442   6.693   2.047
  281TIP3    H2  808   0.390   6.661   1.908
  282TIP3   OH2  809   4.452   5.033   4.475
  282TIP3    H1  810   4.451   4.995   4.563
  282TIP3    H2  811   4.362   5.025   4.444
  283TIP3   OH2  812   7.201   0.290   2.027
  283TIP3    H1  813   7.214   0.371   2.077
  283TIP3    H2  814   7.144   0.237   2.083
  284TIP3   OH2  815   6.637   0.885   1.326
  284TIP3    H1  816   6.573   0.953   1.346
  284TIP3    H2  817   6.652   0.892   1.231
  285TIP3   OH2  818   3.101   1.597   3.855
  285TIP3    H1  819   3.050   1.535   3.802
  285TIP3    H2  820   3.039   1.627   3.922
  286TIP3   OH2  821   4.903   6.272   3.045
  286TIP3    H1  822   4.960   6.195   3.052
  286TIP3    H2  823   4.825   6.239   3.000
  287TIP3   OH2  824   0.026   0.246   4.291
  287TIP3    H1  825   0.053   0.305   4.221
  287TIP3    H2  826   0.030   0.300   4.371
  288TIP3   OH2  827   5.266   2.930   0.174
  288TIP3    H1  828   5.325   2.965   0.106
  288TIP3    H2  829   5.318   2.933   0.254
  289TIP3   OH2  830   2.258   2.796   5.563
  289TIP3    H1  831   2.196   2.729   5.592
  289TIP3    H2  832   2.341   2.769   5.603
  290TIP3   OH2  833   4.523   1.001   3.979
  290TIP3    H1  834   4.566   1.052   4.047
  290TIP3    H2  835   4.453   0.954   4.025
  291TIP3   OH2  836   1.104   5.011   4.072
  291TIP3    H1  837   1.035   4.974   4.127
  291TIP3    H2  838   1.092   5.106   4.078
  292TIP3   OH2  839   4.547   5.048   0.627
  292TIP3    H1  840   4.591   4.995   0.561
  292TIP3    H2  841   4.462   5.067   0.590
  293TIP3   OH2  842   4.649   1.269   4.586
  293TIP3    H1  843   4.571   1.305   4.544
  293TIP3    H2  844   4.653   1.178   4.557
  294TIP3   OH2  845   1.873   1.893   3.632
  294TIP3    H1  846   1.909   1.809   3.663
  294TIP3    H2  847   1.946   1.954   3.638
  295TIP3   OH2  848   7.019   6.769   2.208
  295TIP3    H1  849   7.086   6.702   2.194
  295TIP3    H2  850   7.069   6.847   2.233
  296TIP3   OH2  851   0.457   3.316   0.320
  296TIP3    H1  852   0.484   3.343   0.232
  296TIP3    H2  853   0.488   3.387   0.377
  297TIP3   OH2  854   3.648   1.528   3.138
  297TIP3    H1  855   3.626   1.601   3.081
  297TIP3    H2  856   3.590   1.457   3.110
  298TIP3   OH2  857   1.770   3.713   0.395
  298TIP3    H1  858   1.686   3.756   0.408
  298TIP3    H2  859   1.832   3.785   0.381
  299TIP3   OH2  860   4.299   5.330   3.962
  299TIP3    H1  861   4.264   5.330   4.051
  299TIP3    H2  862   4.383   5.376   3.969
  300TIP3   OH2  863   5.250   2.485   2.059
  300TIP3    H1  864   5.265   2.568   2.014
  300TIP3    H2  865   5.215   2.510   2.145
  301TIP3   OH2  866   1.265   3.120   0.889
  301TIP3    H1  867   1.338   3.144   0.832
  301TIP3    H2  868   1.219   3.202   0.905
  302TIP3   OH2  869   3.094   5.021   5.723
  302TIP3    H1  870   3.169   5.043   5.778
  302TIP3    H2  871   3.102   4.927   5.708
  303TIP3   OH2  872   6.937   3.456   3.888
  303TIP3    H1  873   6.881   3.530   3.912
  303TIP3    H2  874   6.881   3.400   3.834
  304TIP3   OH2  875   6.772   4.521   5.034
  304TIP3    H1  876   6.858   4.488   5.005
  304TIP3    H2  877   6.710   4.456   5.002
  305TIP3   OH2  878   6.218   4.577   4.274
  305TIP3    H1  879   6.123   4.580   4.289
  305TIP3    H2  880   6.244   4.669   4.269
  306TIP3   OH2  881   1.659   2.977   2.919
  306TIP3    H1  882   1.648   2.942   2.830
  306TIP3    H2  883   1.613   2.914   2.975
  307TIP3   OH2  884   5.040   2.832   0.125
  307TIP3    H1  885   5.122   2.863   0.163
  307TIP3    H2  886   5.066   2.800   0.038
  308TIP3   OH2  887   5.072   0.394   1.830
  308TIP3    H1  888   5.151   0.441   1.802
  308TIP3    H2  889   5.105   0.316   1.875
  309TIP3   OH2  890   1.013   0.630   1.220
  309TIP3    H1  891   1.096   0.647   1.175
  309TIP3    H2  892   1.038   0.580   1.298
  310TIP3   OH2  893   3.675   1.087   5.597
  310TIP3    H1  894   3.636   1.125   5.519
  310TIP3    H2  895   3.660   1.153   5.665
  311TIP3   OH2  896   2.156   0.482   2.629
  311TIP3    H1  897   2.083   0.543   2.640
  311TIP3    H2  898   2.132   0.429   2.552
  312TIP3   OH2  899   1.370   5.236   2.069
  312TIP3    H1  900   1.434   5.226   2.140
  312TIP3    H2  901   1.369   5.151   2.026
  313TIP3   OH2  902   2.450   2.805   1.750
  313TIP3    H1  903   2.403   2.848   1.678
  313TIP3    H2  904   2.542   2.810   1.726
  314TIP3   OH2  905   2.695   3.197   1.512
  314TIP3    H1  906   2.723   3.113   1.548
  314TIP3    H2  907   2.633   3.232   1.576
  315TIP3   OH2  908   5.465   3.474   1.434
  315TIP3    H1  909   5.426   3.495   1.519
  315TIP3    H2  910   5.424   3.391   1.409
  316TIP3   OH2  911   0.429   6.069   2.133
  316TIP3    H1  912   0.501   6.029   2.182
  316TIP3    H2  913   0.419   6.014   2.055
  317TIP3   OH2  914   1.990   2.417   2.904
  317TIP3    H1  915   1.927   2.488   2.892
  317TIP3    H2  916   2.002   2.381   2.816
  318TIP3   OH2  917   0.240   4.371   5.700
  318TIP3    H1  918   0.203   4.314   5.632
  318TIP3    H2  919   0.231   4.459   5.664
  319TIP3   OH2  920   1.689   2.452   1.269
  319TIP3    H1  921   1.677   2.381   1.331
  319TIP3    H2  922   1.779   2.483   1.284
  320TIP3   OH2  923   5.098   1.652   1.794
  320TIP3    H1  924   5.182   1.676   1.756
  320TIP3    H2  925   5.052   1.607   1.723
  321TIP3   OH2  926   5.081   5.497   2.029
  321TIP3    H1  927   5.143   5.458   2.090
  321TIP3    H2  928   5.068   5.586   2.061
  322TIP3   OH2  929   2.359   4.963   3.932
  322TIP3    H1  930   2.351   4.896   3.864
  322TIP3    H2  931   2.302   4.933   4.003
  323TIP3   OH2  932   1.639   3.518   1.033
  323TIP3    H1  933   1.555   3.561   1.048
  323TIP3    H2  934   1.676   3.562   0.956
  324TIP3   OH2  935   0.556   4.391   3.710
  324TIP3    H1  936   0.535   4.480   3.680
  324TIP3    H2  937   0.479   4.339   3.689
  325TIP3   OH2  938   3.882   0.658   3.056
  325TIP3    H1  939   3.925   0.600   2.994
  325TIP3    H2  940   3.904   0.623   3.142
  326TIP3   OH2  941   1.142   2.647   1.748
  326TIP3    H1  942   1.162   2.579   1.812
  326TIP3    H2  943   1.213   2.642   1.684
  327TIP3   OH2  944   2.266   2.414   1.508
  327TIP3    H1  945   2.261   2.418   1.603
  327TIP3    H2  946   2.187   2.367   1.481
  328TIP3   OH2  947   2.965   2.544   5.896
  328TIP3    H1  948   2.929   2.514   5.812
  328TIP3    H2  949   2.891   2.587   5.939
  329TIP3   OH2  950   1.749   6.303   3.243
  329TIP3    H1  951   1.823   6.269   3.193
  329TIP3    H2  952   1.789   6.359   3.310
  330TIP3   OH2  953   2.786   6.723   1.147
  330TIP3    H1  954   2.756   6.814   1.153
  330TIP3    H2  955   2.710   6.671   1.173
  331TIP3   OH2  956   3.565   0.491   2.123
  331TIP3    H1  957   3.647   0.536   2.103
  331TIP3    H2  958   3.591   0.400   2.136
  332TIP3   OH2  959   4.145   0.638   2.333
  332TIP3    H1  960   4.197   0.718   2.336
  332TIP3    H2  961   4.075   0.652   2.396
  333TIP3   OH2  962   0.637   0.285   1.864
  333TIP3    H1  963   0.654   0.206   1.813
  333TIP3    H2  964   0.547   0.309   1.844
  334TIP3   OH2  965   3.873   1.903   3.844
  334TIP3    H1  966   3.825   1.964   3.789
  334TIP3    H2  967   3.858   1.818   3.804
  335TIP3   OH2  968   0.473   4.212   0.853
  335TIP3    H1  969   0.528   4.238   0.780
  335TIP3    H2  970   0.512   4.254   0.929
  336TIP3   OH2  971   1.142   5.801   3.337
  336TIP3    H1  972   1.091   5.805   3.418
  336TIP3    H2  973   1.220   5.853   3.355
  337TIP3   OH2  974   0.154   0.935   0.925
  337TIP3    H1  975   0.068   0.913   0.961
  337TIP3    H2  976   0.197   0.851   0.912
  338TIP3   OH2  977   7.094   0.434   3.179
  338TIP3    H1  978   7.110   0.389   3.096
  338TIP3    H2  979   7.035   0.375   3.227
  339TIP3   OH2  980   3.954   0.226   0.672
  339TIP3    H1  981   3.928   0.227   0.764
  339TIP3    H2  982   3.982   0.316   0.655
  340TIP3   OH2  983   1.544   2.318   1.449
  340TIP3    H1  984   1.503   2.238   1.482
  340TIP3    H2  985   1.498   2.389   1.494
  341TIP3   OH2  986   0.057   0.198   3.052
  341TIP3    H1  987   0.092   0.284   3.026
  341TIP3    H2  988   0.135   0.146   3.071
  342TIP3   OH2  989   2.871   2.723   3.676
  342TIP3    H1  990   2.912   2.758   3.754
  342TIP3    H2  991   2.937   2.731   3.608
  343TIP3   OH2  992   2.674   6.735   2.957
  343TIP3    H1  993   2.693   6.651   2.998
  343TIP3    H2  994   2.589   6.723   2.915
  344TIP3   OH2  995   0.452   6.803   3.512
  344TIP3    H1  996   0.422   6.852   3.436
  344TIP3    H2  997   0.418   6.715   3.499
  345TIP3   OH2  998   3.656   5.589   1.867
  345TIP3    H1  999   3.736   5.538   1.857
  345TIP3    H2 1000   3.683   5.667   1.915
  346TIP3   OH2 1001   6.996   1.503   3.320
  346TIP3    H1 1002   7.091   1.491   3.318
  346TIP3    H2 1003   6.980   1.558   3.396
  347TIP3   OH2 1004   0.981   5.540   1.911
  347TIP3    H1 1005   1.054   5.533   1.971
  347TIP3    H2 1006   0.999   5.620   1.861
  348TIP3   OH2 1007   4.741   0.161   5.798
  348TIP3    H1 1008   4.651   0.134   5.783
  348TIP3    H2 1009   4.752   0.239   5.743
  349TIP3   OH2 1010   6.845   5.448   1.902
  349TIP3    H1 1011   6.890   5.417   1.823
  349TIP3    H2 1012   6.901   5.419   1.974
  350TIP3   OH2 1013   3.044   4.129   0.799
  350TIP3    H1 1014   3.065   4.124   0.892
  350TIP3    H2 1015   3.073   4.045   0.763
  351TIP3   OH2 1016   1.263   2.733   0.761
  351TIP3    H1 1017   1.216   2.672   0.704
  351TIP3    H2 1018   1.351   2.737   0.723
  352TIP3   OH2 1019   6.429   0.254   3.597
  352TIP3    H1 1020   6.415   0.311   3.673
  352TIP3    H2 1021   6.363   0.186   3.605
  353TIP3   OH2 1022   6.093   5.853   0.950
  353TIP3    H1 1023   6.090   5.943   0.917
  353TIP3    H2 1024   6.159   5.855   1.020
  354TIP3   OH2 1025   5.660   5.303   5.342
  354TIP3    H1 1026   5.618   5.380   5.304
  354TIP3    H2 1027   5.590   5.258   5.390
  355TIP3   OH2 1028   0.139   3.808   3.422
  355TIP3    H1 1029   0.054   3.767   3.441
  355TIP3    H2 1030   0.125   3.901   3.440
  356TIP3   OH2 1031   7.135   4.738   5.101
  356TIP3    H1 1032   7.227   4.764   5.096
  356TIP3    H2 1033   7.093   4.806   5.153
  357TIP3   OH2 1034   1.768   2.417   4.097
  357TIP3    H1 1035   1.825   2.346   4.070
  357TIP3    H2 1036   1.781   2.424   4.192
  358TIP3   OH2 1037   4.288   5.894   1.257
  358TIP3    H1 1038   4.351   5.925   1.322
  358TIP3    H2 1039   4.226   5.967   1.248
  359TIP3   OH2 1040   4.364   3.364   4.361
  359TIP3    H1 1041   4.435   3.300   4.364
  359TIP3    H2 1042   4.310   3.336   4.287
  360TIP3   OH2 1043   2.259   6.546   4.534
  360TIP3    H1 1044   2.220   6.469   4.576
  360TIP3    H2 1045   2.343   6.515   4.500
  361TIP3   OH2 1046   1.692   4.540   2.380
  361TIP3    H1 1047   1.599   4.525   2.394
  361TIP3    H2 1048   1.708   4.512   2.290
  362TIP3   OH2 1049   5.558   2.847   3.726
  362TIP3    H1 1050   5.549   2.923   3.668
  362TIP3    H2 1051   5.550   2.772   3.668
  363TIP3   OH2 1052   3.690   6.206   2.125
  363TIP3    H1 1053   3.762   6.172   2.178
  363TIP3    H2 1054   3.613   6.199   2.181
  364TIP3   OH2 1055   4.312   6.622   3.768
  364TIP3    H1 1056   4.303   6.667   3.852
  364TIP3    H2 1057   4.223   6.596   3.745
  365TIP3   OH2 1058   5.694   0.307   5.113
  365TIP3    H1 1059   5.656   0.239   5.057
  365TIP3    H2 1060   5.683   0.273   5.202
  366TIP3   OH2 1061   4.567   2.487   3.975
  366TIP3    H1 1062   4.651   2.525   3.998
  366TIP3    H2 1063   4.505   2.525   4.037
  367TIP3   OH2 1064   6.125   0.019   3.191
  367TIP3    H1 1065   6.065   0.056   3.126
  367TIP3    H2 1066   6.207   0.065   3.176
  368TIP3   OH2 1067   1.404   0.555   0.586
  368TIP3    H1 1068   1.333   0.599   0.633
  368TIP3    H2 1069   1.467   0.532   0.655
  369TIP3   OH2 1070   0.605   3.185   5.457
  369TIP3    H1 1071   0.534   3.203   5.519
  369TIP3    H2 1072   0.659   3.121   5.502
  370TIP3   OH2 1073   1.165   3.972   4.715
  370TIP3    H1 1074   1.132   4.017   4.637
  370TIP3    H2 1075   1.171   4.039   4.782
  371TIP3   OH2 1076   4.353   4.304   3.100
  371TIP3    H1 1077   4.378   4.349   3.181
  371TIP3    H2 1078   4.422   4.328   3.038
  372TIP3   OH2 1079   0.978   3.716   0.669
  372TIP3    H1 1080   1.029   3.698   0.590
  372TIP3    H2 1081   0.961   3.810   0.665
  373TIP3   OH2 1082   1.193   0.884   3.425
  373TIP3    H1 1083   1.216   0.860   3.515
  373TIP3    H2 1084   1.236   0.818   3.371
  374TIP3   OH2 1085   7.048   6.747   4.220
  374TIP3    H1 1086   7.011   6.662   4.198
  374TIP3    H2 1087   7.031   6.802   4.144
  375TIP3   OH2 1088   1.710   0.674   2.179
  375TIP3    H1 1089   1.745   0.720   2.254
  375TIP3    H2 1090   1.782   0.673   2.115
  376TIP3   OH2 1091   2.077   2.959   0.426
  376TIP3    H1 1092   2.009   2.994   0.485
  376TIP3    H2 1093   2.043   2.874   0.398
  377TIP3   OH2 1094   1.514   3.803   2.196
  377TIP3    H1 1095   1.435   3.752   2.215
  377TIP3    H2 1096   1.518   3.868   2.266
  378TIP3   OH2 1097   5.595   3.773   5.082
  378TIP3    H1 1098   5.622   3.717   5.154
  378TIP3    H2 1099   5.675   3.790   5.032
  379TIP3   OH2 1100   3.604   0.478   0.499
  379TIP3    H1 1101   3.516   0.476   0.537
  379TIP3    H2 1102   3.645   0.556   0.538
  380TIP3   OH2 1103   2.183   1.583   3.402
  380TIP3    H1 1104   2.148   1.643   3.335
  380TIP3    H2 1105   2.130   1.504   3.393
  381TIP3   OH2 1106   6.490   0.745   5.229
  381TIP3    H1 1107   6.459   0.834   5.211
  381TIP3    H2 1108   6.582   0.747   5.204
  382TIP3   OH2 1109   5.091   6.605   0.439
  382TIP3    H1 1110   5.016   6.549   0.418
  382TIP3    H2 1111   5.162   6.573   0.382
  383TIP3   OH2 1112   6.059   1.802   4.548
  383TIP3    H1 1113   6.134   1.861   4.555
  383TIP3    H2 1114   6.072   1.737   4.617
  384TIP3   OH2 1115   2.846   5.885   0.822
  384TIP3    H1 1116   2.835   5.918   0.732
  384TIP3    H2 1117   2.820   5.959   0.877
  385TIP3   OH2 1118   3.145   0.240   3.226
  385TIP3    H1 1119   3.161   0.217   3.318
  385TIP3    H2 1120   3.221   0.205   3.180
  386TIP3   OH2 1121   7.003   4.348   1.577
  386TIP3    H1 1122   7.001   4.431   1.624
  386TIP3    H2 1123   6.911   4.321   1.569
  387TIP3   OH2 1124   7.132   2.880   0.889
  387TIP3    H1 1125   7.049   2.837   0.908
  387TIP3    H2 1126   7.194   2.808   0.879
  388TIP3   OH2 1127   4.504   6.199   1.131
  388TIP3    H1 1128   4.453   6.172   1.208
  388TIP3    H2 1129   4.585   6.148   1.136
  389TIP3   OH2 1130   0.102   5.706   1.350
  389TIP3    H1 1131   0.043   5.719   1.425
  389TIP3    H2 1132   0.116   5.612   1.347
  390TIP3   OH2 1133   6.709   2.326   3.918
  390TIP3    H1 1134   6.656   2.400   3.889
  390TIP3    H2 1135   6.687   2.316   4.011
  391TIP3   OH2 1136   6.737   6.436   3.914
  391TIP3    H1 1137   6.672   6.389   3.967
  391TIP3    H2 1138   6.714   6.415   3.823
  392TIP3   OH2 1139   1.757   6.396   3.853
  392TIP3    H1 1140   1.849   6.421   3.849
  392TIP3    H2 1141   1.744   6.342   3.775
  393TIP3   OH2 1142   2.830   4.183   3.796
  393TIP3    H1 1143   2.800   4.204   3.708
  393TIP3    H2 1144   2.783   4.242   3.853
  394TIP3   OH2 1145   6.602   5.344   4.995
  394TIP3    H1 1146   6.647   5.343   5.080
  394TIP3    H2 1147   6.541   5.418   5.001
  395TIP3   OH2 1148   0.229   0.708   1.151
  395TIP3    H1 1149   0.166   0.716   1.223
  395TIP3    H2 1150   0.237   0.614   1.136
  396TIP3   OH2 1151   3.448   5.136   3.563
  396TIP3    H1 1152   3.355   5.149   3.580
  396TIP3    H2 1153   3.492   5.206   3.611
  397TIP3   OH2 1154   5.532   6.612   4.107
  397TIP3    H1 1155   5.578   6.588   4.026
  397TIP3    H2 1156   5.599   6.651   4.162
  398TIP3   OH2 1157   3.379   1.562   4.649
  398TIP3    H1 1158   3.473   1.578   4.661
  398TIP3    H2 1159   3.374   1.474   4.613
  399TIP3   OH2 1160   5.374   5.540   2.410
  399TIP3    H1 1161   5.344   5.620   2.368
  399TIP3    H2 1162   5.324   5.470   2.368
  400TIP3   OH2 1163   4.744   0.107   2.091
  400TIP3    H1 1164   4.834   0.086   2.066
  400TIP3    H2 1165   4.692   0.033   2.060
  401TIP3   OH2 1166   1.908   1.906   2.996
  401TIP3    H1 1167   1.818   1.906   3.030
  401TIP3    H2 1168   1.939   1.995   3.011
  402TIP3   OH2 1169   7.113   6.251   1.385
  402TIP3    H1 1170   7.111   6.280   1.477
  402TIP3    H2 1171   7.144   6.327   1.337
  403TIP3   OH2 1172   2.085   5.446   4.931
  403TIP3    H1 1173   2.159   5.443   4.992
  403TIP3    H2 1174   2.124   5.468   4.846
  404TIP3   OH2 1175   0.249   2.688   2.056
  404TIP3    H1 1176   0.213   2.701   2.143
  404TIP3    H2 1177   0.343   2.700   2.067
  405TIP3   OH2 1178   5.087   4.122   0.362
  405TIP3    H1 1179   4.997   4.105   0.390
  405TIP3    H2 1180   5.093   4.081   0.276
  406TIP3   OH2 1181   5.589   0.431   0.296
  406TIP3    H1 1182   5.683   0.448   0.310
  406TIP3    H2 1183   5.554   0.513   0.265
  407TIP3   OH2 1184   4.499   0.643   3.947
  407TIP3    H1 1185   4.568   0.612   3.889
  407TIP3    H2 1186   4.545   0.690   4.016
  408TIP3   OH2 1187   4.640   2.891   3.976
  408TIP3    H1 1188   4.575   2.863   4.041
  408TIP3    H2 1189   4.587   2.927   3.904
  409TIP3   OH2 1190   7.168   2.645   5.844
  409TIP3    H1 1191   7.188   2.700   5.767
  409TIP3    H2 1192   7.073   2.637   5.843
  410TIP3   OH2 1193   1.529   2.663   0.903
  410TIP3    H1 1194   1.578   2.599   0.954
  410TIP3    H2 1195   1.437   2.645   0.923
  411TIP3   OH2 1196   5.244   2.187   5.242
  411TIP3    H1 1197   5.171   2.126   5.226
  411TIP3    H2 1198   5.322   2.133   5.233
  412TIP3   OH2 1199   4.541   3.540   5.711
  412TIP3    H1 1200   4.613   3.490   5.750
  412TIP3    H2 1201   4.567   3.631   5.720
  413TIP3   OH2 1202   6.166   3.201   2.682
  413TIP3    H1 1203   6.227   3.151   2.628
  413TIP3    H2 1204   6.107   3.136   2.719
  414TIP3   OH2 1205   4.272   2.911   2.200
  414TIP3    H1 1206   4.279   2.902   2.295
  414TIP3    H2 1207   4.354   2.876   2.166
  415TIP3   OH2 1208   4.299   0.414   2.379
  415TIP3    H1 1209   4.210   0.433   2.411
  415TIP3    H2 1210   4.332   0.500   2.351
  416TIP3   OH2 1211   5.921   1.902   1.322
  416TIP3    H1 1212   5.988   1.969   1.338
  416TIP3    H2 1213   5.923   1.847   1.400
  417TIP3   OH2 1214   1.975   4.087   1.154
  417TIP3    H1 1215   1.901   4.067   1.097
  417TIP3    H2 1216   2.041   4.022   1.130
  418TIP3   OH2 1217   3.316   0.713   4.484
  418TIP3    H1 1218   3.297   0.683   4.395
  418TIP3    H2 1219   3.360   0.638   4.526
  419TIP3   OH2 1220   6.519   6.214   3.002
  419TIP3    H1 1221   6.447   6.232   3.063
  419TIP3    H2 1222   6.583   6.165   3.054
  420TIP3   OH2 1223   4.532   3.303   5.112
  420TIP3    H1 1224   4.487   3.269   5.190
  420TIP3    H2 1225   4.469   3.289   5.041
  421TIP3   OH2 1226   6.852   1.006   3.466
  421TIP3    H1 1227   6.944   1.032   3.467
  421TIP3    H2 1228   6.844   0.942   3.536
  422TIP3   OH2 1229   4.858   6.537   2.749
  422TIP3    H1 1230   4.927   6.471   2.739
  422TIP3    H2 1231   4.834   6.560   2.660
  423TIP3   OH2 1232   5.900   3.160   0.307
  423TIP3    H1 1233   5.894   3.069   0.278
  423TIP3    H2 1234   5.961   3.201   0.245
  424TIP3   OH2 1235   2.641   4.812   5.403
  424TIP3    H1 1236   2.714   4.753   5.382
  424TIP3    H2 1237   2.577   4.797   5.334
  425TIP3   OH2 1238   6.430   0.822   5.821
  425TIP3    H1 1239   6.518   0.824   5.858
  425TIP3    H2 1240   6.379   0.877   5.881
  426TIP3   OH2 1241   6.193   0.550   4.386
  426TIP3    H1 1242   6.242   0.476   4.422
  426TIP3    H2 1243   6.260   0.609   4.352
  427TIP3   OH2 1244   6.774   4.002   4.538
  427TIP3    H1 1245   6.857   4.050   4.545
  427TIP3    H2 1246   6.743   4.020   4.449
  428TIP3   OH2 1247   5.731   0.181   2.013
  428TIP3    H1 1248   5.771   0.103   1.975
  428TIP3    H2 1249   5.792   0.208   2.082
  429TIP3   OH2 1250   3.730   5.382   3.417
  429TIP3    H1 1251   3.763   5.390   3.507
  429TIP3    H2 1252   3.805   5.350   3.367
  430TIP3   OH2 1253   5.717   2.099   1.928
  430TIP3    H1 1254   5.758   2.064   1.849
  430TIP3    H2 1255   5.767   2.060   2.000
  431TIP3   OH2 1256   1.835   2.852   0.880
  431TIP3    H1 1257   1.797   2.859   0.967
  431TIP3    H2 1258   1.930   2.853   0.895
  432TIP3   OH2 1259   3.775   6.696   2.914
  432TIP3    H1 1260   3.751   6.605   2.931
  432TIP3    H2 1261   3.866   6.703   2.942
  433TIP3   OH2 1262   6.615   5.995   3.904
  433TIP3    H1 1263   6.567   6.077   3.909
  433TIP3    H2 1264   6.553   5.928   3.933
  434TIP3   OH2 1265   1.081   4.481   4.900
  434TIP3    H1 1266   1.142   4.439   4.961
  434TIP3    H2 1267   1.125   4.478   4.816
  435TIP3   OH2 1268   1.256   6.700   5.631
  435TIP3    H1 1269   1.199   6.641   5.680
  435TIP3    H2 1270   1.342   6.689   5.672
  436TIP3   OH2 1271   5.016   2.088   4.893
  436TIP3    H1 1272   5.091   2.045   4.853
  436TIP3    H2 1273   4.977   2.020   4.949
  437TIP3   OH2 1274   1.852   1.350   4.729
  437TIP3    H1 1275   1.916   1.421   4.730
  437TIP3    H2 1276   1.821   1.347   4.638
  438TIP3   OH2 1277   0.959   1.183   0.278
  438TIP3    H1 1278   0.932   1.273   0.297
  438TIP3    H2 1279   0.885   1.129   0.309
  439TIP3   OH2 1280   6.494   4.433   5.321
  439TIP3    H1 1281   6.573   4.386   5.296
  439TIP3    H2 1282   6.520   4.525   5.325
  440TIP3   OH2 1283   4.415   6.004   5.272
  440TIP3    H1 1284   4.504   6.031   5.295
  440TIP3    H2 1285   4.364   6.020   5.351
  441TIP3   OH2 1286   2.452   3.959   3.500
  441TIP3    H1 1287   2.523   3.921   3.552
  441TIP3    H2 1288   2.457   3.914   3.416
  442TIP3   OH2 1289   4.563   5.440   4.382
  442TIP3    H1 1290   4.604   5.353   4.391
  442TIP3    H2 1291   4.487   5.437   4.439
  443TIP3   OH2 1292   4.702   4.915   5.077
  443TIP3    H1 1293   4.758   4.913   5.155
  443TIP3    H2 1294   4.752   4.967   5.014
  444TIP3   OH2 1295   3.634   4.874   3.393
  444TIP3    H1 1296   3.545   4.849   3.369
  444TIP3    H2 1297   3.687   4.852   3.316
  445TIP3   OH2 1298   0.159   1.652   2.821
  445TIP3    H1 1299   0.107   1.715   2.871
  445TIP3    H2 1300   0.196   1.594   2.887
  446TIP3   OH2 1301   2.504   0.864   4.539
  446TIP3    H1 1302   2.597   0.870   4.559
  446TIP3    H2 1303   2.481   0.772   4.552
  447TIP3   OH2 1304   5.275   1.371   3.015
  447TIP3    H1 1305   5.219   1.441   2.982
  447TIP3    H2 1306   5.364   1.408   3.010
  448TIP3   OH2 1307   0.402   5.145   0.696
  448TIP3    H1 1308   0.447   5.177   0.618
  448TIP3    H2 1309   0.437   5.057   0.709
  449TIP3   OH2 1310   1.409   3.075   5.613
  449TIP3    H1 1311   1.322   3.102   5.583
  449TIP3    H2 1312   1.402   2.980   5.622
  450TIP3   OH2 1313   6.373   5.106   5.215
  450TIP3    H1 1314   6.354   5.016   5.242
  450TIP3    H2 1315   6.303   5.128   5.154
  451TIP3   OH2 1316   3.194   5.024   3.785
  451TIP3    H1 1317   3.188   5.103   3.732
  451TIP3    H2 1318   3.196   4.953   3.722
  452TIP3   OH2 1319   1.762   4.668   5.891
  452TIP3    H1 1320   1.812   4.700   5.816
  452TIP3    H2 1321   1.829   4.629   5.948
  453TIP3   OH2 1322   2.369   2.700   4.833
  453TIP3    H1 1323   2.276   2.723   4.842
  453TIP3    H2 1324   2.409   2.776   4.792
  454TIP3   OH2 1325   1.166   2.697   1.243
  454TIP3    H1 1326   1.189   2.723   1.332
  454TIP3    H2 1327   1.100   2.761   1.215
  455TIP3   OH2 1328   0.671   5.332   0.439
  455TIP3    H1 1329   0.654   5.344   0.533
  455TIP3    H2 1330   0.592   5.367   0.397
  456TIP3   OH2 1331   6.077   0.989   3.476
  456TIP3    H1 1332   6.011   1.059   3.473
  456TIP3    H2 1333   6.095   0.969   3.384
  457TIP3   OH2 1334   0.512   0.932   5.897
  457TIP3    H1 1335   0.456   0.860   5.926
  457TIP3    H2 1336   0.599   0.894   5.891
  458TIP3   OH2 1337   3.437   0.262   5.963
  458TIP3    H1 1338   3.458   0.314   5.885
  458TIP3    H2 1339   3.430   0.172   5.931
  459TIP3   OH2 1340   5.941   0.973   4.237
  459TIP3    H1 1341   5.931   0.930   4.322
  459TIP3    H2 1342   6.023   0.938   4.202
  460TIP3   OH2 1343   3.670   6.510   0.451
  460TIP3    H1 1344   3.613   6.464   0.390
  460TIP3    H2 1345   3.758   6.482   0.427
  461TIP3   OH2 1346   1.657   6.114   1.051
  461TIP3    H1 1347   1.714   6.163   1.110
  461TIP3    H2 1348   1.681   6.022   1.065
  462TIP3   OH2 1349   0.394   5.700   4.855
  462TIP3    H1 1350   0.477   5.746   4.860
  462TIP3    H2 1351   0.351   5.736   4.777
  463TIP3   OH2 1352   0.109   1.249   2.923
  463TIP3    H1 1353   0.041   1.317   2.919
  463TIP3    H2 1354   0.136   1.236   2.832
  464TIP3   OH2 1355   1.423   0.512   4.343
  464TIP3    H1 1356   1.445   0.419   4.352
  464TIP3    H2 1357   1.342   0.522   4.393
  465TIP3   OH2 1358   5.817   6.757   4.742
  465TIP3    H1 1359   5.817   6.846   4.707
  465TIP3    H2 1360   5.728   6.725   4.725
  466TIP3   OH2 1361   1.384   2.369   0.878
  466TIP3    H1 1362   1.350   2.453   0.909
  466TIP3    H2 1363   1.317   2.305   0.903
  467TIP3   OH2 1364   5.172   2.475   1.727
  467TIP3    H1 1365   5.233   2.414   1.767
  467TIP3    H2 1366   5.165   2.547   1.789
  468TIP3   OH2 1367   5.889   5.912   3.960
  468TIP3    H1 1368   5.925   5.851   3.896
  468TIP3    H2 1369   5.966   5.944   4.008
  469TIP3   OH2 1370   4.394   1.281   4.455
  469TIP3    H1 1371   4.360   1.371   4.458
  469TIP3    H2 1372   4.352   1.242   4.379
  470TIP3   OH2 1373   2.531   3.512   3.702
  470TIP3    H1 1374   2.566   3.455   3.770
  470TIP3    H2 1375   2.532   3.599   3.742
  471TIP3   OH2 1376   4.962   3.041   1.076
  471TIP3    H1 1377   4.974   3.115   1.017
  471TIP3    H2 1378   5.039   3.042   1.133
  472TIP3   OH2 1379   1.784   3.615   4.280
  472TIP3    H1 1380   1.839   3.553   4.328
  472TIP3    H2 1381   1.697   3.606   4.321
  473TIP3   OH2 1382   5.114   1.892   0.353
  473TIP3    H1 1383   5.042   1.906   0.415
  473TIP3    H2 1384   5.110   1.968   0.295
  474TIP3   OH2 1385   5.752   3.300   5.462
  474TIP3    H1 1386   5.838   3.322   5.428
  474TIP3    H2 1387   5.721   3.228   5.407
  475TIP3   OH2 1388   5.703   5.649   5.607
  475TIP3    H1 1389   5.621   5.600   5.609
  475TIP3    H2 1390   5.680   5.736   5.639
  476TIP3   OH2 1391   2.872   5.913   2.700
  476TIP3    H1 1392   2.885   5.840   2.639
  476TIP3    H2 1393   2.852   5.871   2.784
  477TIP3   OH2 1394   6.550   2.845   4.372
  477TIP3    H1 1395   6.484   2.804   4.316
  477TIP3    H2 1396   6.516   2.934   4.386
  478TIP3   OH2 1397   0.671   5.176   3.029
  478TIP3    H1 1398   0.697   5.265   3.004
  478TIP3    H2 1399   0.592   5.159   2.978
  479TIP3   OH2 1400   3.455   6.723   5.274
  479TIP3    H1 1401   3.534   6.669   5.286
  479TIP3    H2 1402   3.480   6.787   5.208
  480TIP3   OH2 1403   0.718   4.688   1.639
  480TIP3    H1 1404   0.694   4.652   1.725
  480TIP3    H2 1405   0.679   4.627   1.576
  481TIP3   OH2 1406   5.391   1.647   1.887
  481TIP3    H1 1407   5.351   1.693   1.961
  481TIP3    H2 1408   5.345   1.563   1.882
  482TIP3   OH2 1409   5.244   3.151   3.108
  482TIP3    H1 1410   5.182   3.180   3.175
  482TIP3    H2 1411   5.290   3.231   3.081
  483TIP3   OH2 1412   6.785   4.086   2.682
  483TIP3    H1 1413   6.737   4.054   2.606
  483TIP3    H2 1414   6.861   4.132   2.646
  484TIP3   OH2 1415   6.508   2.515   3.891
  484TIP3    H1 1416   6.496   2.609   3.893
  484TIP3    H2 1417   6.430   2.479   3.933
  485TIP3   OH2 1418   6.121   4.429   1.157
  485TIP3    H1 1419   6.091   4.343   1.186
  485TIP3    H2 1420   6.062   4.451   1.084
  486TIP3   OH2 1421   0.904   4.720   4.812
  486TIP3    H1 1422   0.891   4.697   4.904
  486TIP3    H2 1423   0.824   4.690   4.768
  487TIP3   OH2 1424   4.720   5.666   4.045
  487TIP3    H1 1425   4.705   5.760   4.044
  487TIP3    H2 1426   4.801   5.655   3.994
  488TIP3   OH2 1427   1.725   2.998   5.207
  488TIP3    H1 1428   1.640   2.960   5.185
  488TIP3    H2 1429   1.758   2.943   5.278
  489TIP3   OH2 1430   5.529   1.296   3.355
  489TIP3    H1 1431   5.438   1.268   3.366
  489TIP3    H2 1432   5.576   1.258   3.429
  490TIP3   OH2 1433   1.786   6.071   0.469
  490TIP3    H1 1434   1.847   6.124   0.520
  490TIP3    H2 1435   1.700   6.111   0.486
  491TIP3   OH2 1436   2.730   6.269   0.435
  491TIP3    H1 1437   2.735   6.364   0.441
  491TIP3    H2 1438   2.641   6.251   0.403
  492TIP3   OH2 1439   0.749   4.501   5.201
  492TIP3    H1 1440   0.687   4.431   5.221
  492TIP3    H2 1441   0.696   4.568   5.157
  493TIP3   OH2 1442   3.360   2.645   5.805
  493TIP3    H1 1443   3.394   2.628   5.893
  493TIP3    H2 1444   3.309   2.725   5.813
  494TIP3   OH2 1445   6.423   5.930   4.249
  494TIP3    H1 1446   6.349   5.990   4.242
  494TIP3    H2 1447   6.414   5.891   4.336
  495TIP3   OH2 1448   2.396   3.731   1.610
  495TIP3    H1 1449   2.474   3.712   1.661
  495TIP3    H2 1450   2.407   3.822   1.582
  496TIP3   OH2 1451   3.979   6.184   4.359
  496TIP3    H1 1452   3.907   6.163   4.300
  496TIP3    H2 1453   4.040   6.111   4.350
  497TIP3   OH2 1454   1.137   5.755   1.554
  497TIP3    H1 1455   1.100   5.827   1.502
  497TIP3    H2 1456   1.100   5.767   1.641
  498TIP3   OH2 1457   0.190   4.580   3.089
  498TIP3    H1 1458   0.153   4.502   3.046
  498TIP3    H2 1459   0.126   4.649   3.071
  499TIP3   OH2 1460   1.704   4.071   2.447
  499TIP3    H1 1461   1.757   4.134   2.397
  499TIP3    H2 1462   1.762   3.996   2.460
  500TIP3   OH2 1463   1.604   0.959   2.209
  500TIP3    H1 1464   1.666   0.943   2.138
  500TIP3    H2 1465   1.645   1.028   2.262
  501TIP3   OH2 1466   2.544   1.763   2.307
  501TIP3    H1 1467   2.624   1.711   2.309
  501TIP3    H2 1468   2.565   1.836   2.249
  502TIP3   OH2 1469   7.024   4.687   2.252
  502TIP3    H1 1470   7.020   4.716   2.343
  502TIP3    H2 1471   7.023   4.768   2.200
  503TIP3   OH2 1472   2.085   1.142   1.567
  503TIP3    H1 1473   2.064   1.058   1.526
  503TIP3    H2 1474   2.165   1.171   1.523
  504TIP3   OH2 1475   5.218   2.520   3.107
  504TIP3    H1 1476   5.175   2.581   3.168
  504TIP3    H2 1477   5.311   2.527   3.129
  505TIP3   OH2 1478   4.334   2.829   1.603
  505TIP3    H1 1479   4.411   2.806   1.552
  505TIP3    H2 1480   4.364   2.896   1.664
  506TIP3   OH2 1481   1.625   0.312   5.560
  506TIP3    H1 1482   1.654   0.228   5.597
  506TIP3    H2 1483   1.533   0.318   5.583
  507TIP3   OH2 1484   4.772   1.770   3.099
  507TIP3    H1 1485   4.839   1.702   3.107
  507TIP3    H2 1486   4.820   1.850   3.077
  508TIP3   OH2 1487   1.926   0.692   5.188
  508TIP3    H1 1488   1.940   0.760   5.122
  508TIP3    H2 1489   2.007   0.642   5.189
  509TIP3   OH2 1490   0.331   2.331   4.814
  509TIP3    H1 1491   0.322   2.350   4.908
  509TIP3    H2 1492   0.344   2.417   4.774
  510TIP3   OH2 1493   2.843   2.589   4.927
  510TIP3    H1 1494   2.912   2.650   4.900
  510TIP3    H2 1495   2.858   2.511   4.873
  511TIP3   OH2 1496   2.354   4.566   2.650
  511TIP3    H1 1497   2.263   4.592   2.665
  511TIP3    H2 1498   2.348   4.486   2.598
  512TIP3   OH2 1499   1.545   4.648   4.246
  512TIP3    H1 1500   1.617   4.614   4.193
  512TIP3    H2 1501   1.466   4.613   4.204
  513TIP3   OH2 1502   6.512   4.813   5.597
  513TIP3    H1 1503   6.550   4.901   5.595
  513TIP3    H2 1504   6.475   4.805   5.685
  514TIP3   OH2 1505   4.484   2.448   1.414
  514TIP3    H1 1506   4.507   2.375   1.472
  514TIP3    H2 1507   4.556   2.511   1.425
  515TIP3   OH2 1508   5.058   4.483   5.519
  515TIP3    H1 1509   5.140   4.485   5.568
  515TIP3    H2 1510   5.063   4.557   5.459
  516TIP3   OH2 1511   6.534   0.867   1.626
  516TIP3    H1 1512   6.549   0.780   1.589
  516TIP3    H2 1513   6.440   0.871   1.641
  517TIP3   OH2 1514   0.143   4.763   1.768
  517TIP3    H1 1515   0.112   4.727   1.850
  517TIP3    H2 1516   0.238   4.754   1.772
  518TIP3   OH2 1517  -0.001   6.886   2.969
  518TIP3    H1 1518  -0.004   6.820   3.039
  518TIP3    H2 1519  -0.054   6.849   2.898
  519TIP3   OH2 1520   5.759   0.138   4.397
  519TIP3    H1 1521   5.777   0.207   4.334
  519TIP3    H2 1522   5.803   0.167   4.477
  520TIP3   OH2 1523   1.085   1.303   2.350
  520TIP3    H1 1524   0.996   1.336   2.336
  520TIP3    H2 1525   1.101   1.316   2.443
  521TIP3   OH2 1526   0.284   3.163   2.500
  521TIP3    H1 1527   0.293   3.195   2.410
  521TIP3    H2 1528   0.244   3.237   2.547
  522TIP3   OH2 1529   6.792   1.231   2.649
  522TIP3    H1 1530   6.720   1.285   2.683
  522TIP3    H2 1531   6.814   1.173   2.722
  523TIP3   OH2 1532   5.495   2.600   5.142
  523TIP3    H1 1533   5.439   2.678   5.142
  523TIP3    H2 1534   5.576   2.629   5.184
  524TIP3   OH2 1535   2.778   4.107   0.077
  524TIP3    H1 1536   2.696   4.156   0.082
  524TIP3    H2 1537   2.777   4.053   0.156
  525TIP3   OH2 1538   1.505   2.897   2.085
  525TIP3    H1 1539   1.510   2.814   2.132
  525TIP3    H2 1540   1.485   2.873   1.995
  526TIP3   OH2 1541   4.992   0.403   0.644
  526TIP3    H1 1542   5.021   0.327   0.593
  526TIP3    H2 1543   5.062   0.467   0.633
  527TIP3   OH2 1544   2.423   4.611   0.888
  527TIP3    H1 1545   2.505   4.588   0.932
  527TIP3    H2 1546   2.449   4.634   0.799
  528TIP3   OH2 1547   1.215   0.853   1.571
  528TIP3    H1 1548   1.308   0.874   1.565
  528TIP3    H2 1549   1.171   0.934   1.548
  529TIP3   OH2 1550   3.096   5.978   4.096
  529TIP3    H1 1551   3.004   5.999   4.081
  529TIP3    H2 1552   3.098   5.944   4.186
  530TIP3   OH2 1553   3.092   3.881   0.718
  530TIP3    H1 1554   3.102   3.821   0.644
  530TIP3    H2 1555   3.134   3.836   0.791
  531TIP3   OH2 1556   0.126   1.073   5.660
  531TIP3    H1 1557   0.112   0.983   5.688
  531TIP3    H2 1558   0.057   1.090   5.596
  532TIP3   OH2 1559   4.867   3.002   4.157
  532TIP3    H1 1560   4.864   3.072   4.093
  532TIP3    H2 1561   4.796   2.943   4.132
  533TIP3   OH2 1562   3.186   1.719   4.550
  533TIP3    H1 1563   3.140   1.726   4.634
  533TIP3    H2 1564   3.250   1.649   4.564
  534TIP3   OH2 1565   3.132   5.834   2.784
  534TIP3    H1 1566   3.065   5.780   2.824
  534TIP3    H2 1567   3.085   5.887   2.719
  535TIP3   OH2 1568   2.443   1.384   3.454
  535TIP3    H1 1569   2.362   1.422   3.487
  535TIP3    H2 1570   2.479   1.336   3.529
  536TIP3   OH2 1571   0.431   1.302   0.357
  536TIP3    H1 1572   0.474   1.310   0.271
  536TIP3    H2 1573   0.340   1.284   0.336
  537TIP3   OH2 1574   4.564   1.050   4.859
  537TIP3    H1 1575   4.505   1.112   4.816
  537TIP3    H2 1576   4.533   0.964   4.830
  538TIP3   OH2 1577   3.739   4.276   5.292
  538TIP3    H1 1578   3.699   4.190   5.302
  538TIP3    H2 1579   3.682   4.335   5.342
  539TIP3   OH2 1580   2.723   4.397   3.996
  539TIP3    H1 1581   2.771   4.469   4.037
  539TIP3    H2 1582   2.723   4.328   4.062
  540TIP3   OH2 1583   2.494   5.183   3.463
  540TIP3    H1 1584   2.433   5.245   3.423
  540TIP3    H2 1585   2.580   5.222   3.450
  541TIP3   OH2 1586   4.640   1.125   5.795
  541TIP3    H1 1587   4.573   1.187   5.823
  541TIP3    H2 1588   4.626   1.048   5.849
  542TIP3   OH2 1589   6.076   5.515   0.409
  542TIP3    H1 1590   6.029   5.499   0.327
  542TIP3    H2 1591   6.008   5.543   0.471
  543TIP3   OH2 1592   2.017   2.452   0.039
  543TIP3    H1 1593   1.924   2.473   0.028
  543TIP3    H2 1594   2.020   2.356   0.046
  544TIP3   OH2 1595   2.062   2.137   5.492
  544TIP3    H1 1596   2.052   2.058   5.439
  544TIP3    H2 1597   2.115   2.196   5.439
  545TIP3   OH2 1598   2.415   2.977   1.538
  545TIP3    H1 1599   2.359   3.044   1.577
  545TIP3    H2 1600   2.438   3.012   1.452
  546TIP3   OH2 1601   1.435   6.479   0.912
  546TIP3    H1 1602   1.400   6.416   0.850
  546TIP3    H2 1603   1.436   6.562   0.865
  547TIP3   OH2 1604   0.851   5.593   0.812
  547TIP3    H1 1605   0.788   5.583   0.740
  547TIP3    H2 1606   0.932   5.556   0.777
  548TIP3   OH2 1607   6.820   6.055   0.189
  548TIP3    H1 1608   6.731   6.081   0.212
  548TIP3    H2 1609   6.841   6.110   0.113
  549TIP3   OH2 1610   4.172   6.175   4.611
  549TIP3    H1 1611   4.097   6.169   4.670
  549TIP3    H2 1612   4.168   6.095   4.558
  550TIP3   OH2 1613   0.541   2.797   2.122
  550TIP3    H1 1614   0.600   2.854   2.072
  550TIP3    H2 1615   0.529   2.842   2.205
  551TIP3   OH2 1616   1.914   0.372   1.946
  551TIP3    H1 1617   1.870   0.327   2.018
  551TIP3    H2 1618   1.888   0.464   1.957
  552TIP3   OH2 1619   2.128   2.725   2.956
  552TIP3    H1 1620   2.062   2.795   2.955
  552TIP3    H2 1621   2.189   2.749   2.886
  553TIP3   OH2 1622   6.124   4.059   1.935
  553TIP3    H1 1623   6.036   4.046   1.970
  553TIP3    H2 1624   6.118   4.141   1.885
  554TIP3   OH2 1625   0.838   3.741   0.098
  554TIP3    H1 1626   0.746   3.715   0.087
  554TIP3    H2 1627   0.886   3.685   0.037
  555TIP3   OH2 1628   6.193   1.396   2.589
  555TIP3    H1 1629   6.210   1.304   2.606
  555TIP3    H2 1630   6.103   1.399   2.557
  556TIP3   OH2 1631   2.427   0.139   3.288
  556TIP3    H1 1632   2.367   0.151   3.362
  556TIP3    H2 1633   2.507   0.185   3.314
  557TIP3   OH2 1634   5.101   0.747   4.209
  557TIP3    H1 1635   5.196   0.748   4.197
  557TIP3    H2 1636   5.067   0.721   4.123
  558TIP3   OH2 1637   1.035   1.920   4.724
  558TIP3    H1 1638   1.095   1.995   4.725
  558TIP3    H2 1639   1.073   1.860   4.659
  559TIP3   OH2 1640   1.734   3.444   5.135
  559TIP3    H1 1641   1.667   3.509   5.155
  559TIP3    H2 1642   1.775   3.424   5.219
  560TIP3   OH2 1643   4.174   1.606   5.437
  560TIP3    H1 1644   4.155   1.691   5.477
  560TIP3    H2 1645   4.095   1.584   5.389
  561TIP3   OH2 1646   3.018   3.663   3.073
  561TIP3    H1 1647   2.956   3.592   3.089
  561TIP3    H2 1648   3.073   3.664   3.151
  562TIP3   OH2 1649   3.162   6.352   0.818
  562TIP3    H1 1650   3.176   6.274   0.764
  562TIP3    H2 1651   3.109   6.322   0.892
  563TIP3   OH2 1652   1.020   4.802   1.832
  563TIP3    H1 1653   1.080   4.875   1.818
  563TIP3    H2 1654   1.048   4.735   1.770
  564TIP3   OH2 1655   2.047   4.365   4.862
  564TIP3    H1 1656   2.086   4.287   4.901
  564TIP3    H2 1657   2.120   4.425   4.849
  565TIP3   OH2 1658   1.311   5.737   4.689
  565TIP3    H1 1659   1.370   5.812   4.680
  565TIP3    H2 1660   1.227   5.776   4.715
  566TIP3   OH2 1661   4.860   0.892   2.876
  566TIP3    H1 1662   4.956   0.891   2.865
  566TIP3    H2 1663   4.833   0.802   2.859
  567TIP3   OH2 1664   1.861   2.336   4.654
  567TIP3    H1 1665   1.915   2.307   4.580
  567TIP3    H2 1666   1.799   2.398   4.615
  568TIP3   OH2 1667   7.214   6.784   5.450
  568TIP3    H1 1668   7.254   6.855   5.399
  568TIP3    H2 1669   7.121   6.786   5.425
  569TIP3   OH2 1670   3.835   4.558   0.322
  569TIP3    H1 1671   3.909   4.548   0.382
  569TIP3    H2 1672   3.866   4.620   0.256
  570TIP3   OH2 1673   1.854   0.818   2.379
  570TIP3    H1 1674   1.903   0.880   2.325
  570TIP3    H2 1675   1.844   0.864   2.463
  571TIP3   OH2 1676   3.143   3.360   0.122
  571TIP3    H1 1677   3.230   3.367   0.161
  571TIP3    H2 1678   3.103   3.446   0.137
  572TIP3   OH2 1679   1.980   4.468   3.310
  572TIP3    H1 1680   1.984   4.561   3.288
  572TIP3    H2 1681   2.067   4.434   3.287
  573TIP3   OH2 1682   0.348   0.218   2.869
  573TIP3    H1 1683   0.359   0.276   2.945
  573TIP3    H2 1684   0.397   0.262   2.799
  574TIP3   OH2 1685   7.117   5.247   5.579
  574TIP3    H1 1686   7.095   5.215   5.667
  574TIP3    H2 1687   7.161   5.330   5.595
  575TIP3   OH2 1688   5.889   1.902   3.277
  575TIP3    H1 1689   5.825   1.852   3.226
  575TIP3    H2 1690   5.940   1.950   3.211
  576TIP3   OH2 1691   4.814   4.269   4.832
  576TIP3    H1 1692   4.845   4.347   4.786
  576TIP3    H2 1693   4.750   4.230   4.772
  577TIP3   OH2 1694   5.031   2.179   2.191
  577TIP3    H1 1695   5.089   2.137   2.127
  577TIP3    H2 1696   5.088   2.240   2.239
  578TIP3   OH2 1697   0.908   4.379   1.119
  578TIP3    H1 1698   0.975   4.430   1.165
  578TIP3    H2 1699   0.861   4.333   1.189
  579TIP3   OH2 1700   5.018   6.434   5.809
  579TIP3    H1 1701   5.001   6.472   5.723
  579TIP3    H2 1702   5.110   6.409   5.807
  580TIP3   OH2 1703   3.558   0.233   2.788
  580TIP3    H1 1704   3.536   0.143   2.765
  580TIP3    H2 1705   3.522   0.245   2.876
  581TIP3   OH2 1706   1.241   4.228   3.849
  581TIP3    H1 1707   1.263   4.181   3.929
  581TIP3    H2 1708   1.246   4.321   3.874
  582TIP3   OH2 1709   1.246   5.680   2.373
  582TIP3    H1 1710   1.192   5.748   2.415
  582TIP3    H2 1711   1.186   5.638   2.311
  583TIP3   OH2 1712   0.408   6.273   5.201
  583TIP3    H1 1713   0.330   6.218   5.191
  583TIP3    H2 1714   0.462   6.225   5.264
  584TIP3   OH2 1715   1.062   4.316   2.259
  584TIP3    H1 1716   1.051   4.227   2.292
  584TIP3    H2 1717   0.977   4.358   2.277
  585TIP3   OH2 1718   6.322   2.009   3.287
  585TIP3    H1 1719   6.407   1.999   3.245
  585TIP3    H2 1720   6.342   2.032   3.378
  586TIP3   OH2 1721   0.823   3.663   5.012
  586TIP3    H1 1722   0.869   3.743   4.986
  586TIP3    H2 1723   0.731   3.687   5.012
  587TIP3   OH2 1724   6.578   4.232   4.134
  587TIP3    H1 1725   6.619   4.276   4.059
  587TIP3    H2 1726   6.517   4.297   4.169
  588TIP3   OH2 1727   6.595   6.677   5.796
  588TIP3    H1 1728   6.588   6.714   5.884
  588TIP3    H2 1729   6.683   6.698   5.767
  589TIP3   OH2 1730   1.232   3.558   3.922
  589TIP3    H1 1731   1.200   3.472   3.895
  589TIP3    H2 1732   1.290   3.539   3.997
  590TIP3   OH2 1733   6.442   5.581   5.012
  590TIP3    H1 1734   6.373   5.519   5.037
  590TIP3    H2 1735   6.465   5.625   5.094
  591TIP3   OH2 1736   5.689   4.363   3.876
  591TIP3    H1 1737   5.611   4.333   3.830
  591TIP3    H2 1738   5.739   4.283   3.893
  592TIP3   OH2 1739   6.202   6.718   2.335
  592TIP3    H1 1740   6.139   6.647   2.344
  592TIP3    H2 1741   6.235   6.710   2.246
  593TIP3   OH2 1742   5.266   0.450   0.294
  593TIP3    H1 1743   5.294   0.374   0.346
  593TIP3    H2 1744   5.173   0.435   0.278
  594TIP3   OH2 1745   6.728   1.158   1.861
  594TIP3    H1 1746   6.662   1.182   1.796
  594TIP3    H2 1747   6.720   1.225   1.929
  595TIP3   OH2 1748   1.558   4.044   0.671
  595TIP3    H1 1749   1.611   4.088   0.738
  595TIP3    H2 1750   1.471   4.081   0.681
  596TIP3   OH2 1751   2.609   3.321   3.152
  596TIP3    H1 1752   2.535   3.376   3.179
  596TIP3    H2 1753   2.637   3.278   3.233
  597TIP3   OH2 1754   4.260   4.402   1.197
  597TIP3    H1 1755   4.342   4.375   1.237
  597TIP3    H2 1756   4.215   4.320   1.177
  598TIP3   OH2 1757   0.133   5.661   2.262
  598TIP3    H1 1758   0.101   5.572   2.279
  598TIP3    H2 1759   0.071   5.696   2.197
  599TIP3   OH2 1760   1.079   2.593   3.059
  599TIP3    H1 1761   1.060   2.532   3.130
  599TIP3    H2 1762   1.172   2.581   3.040
  600TIP3   OH2 1763   3.173   6.062   4.781
  600TIP3    H1 1764   3.103   6.112   4.823
  600TIP3    H2 1765   3.211   6.123   4.718
  601TIP3   OH2 1766   2.037   5.963   0.229
  601TIP3    H1 1767   2.104   6.029   0.244
  601TIP3    H2 1768   2.052   5.933   0.139
  602TIP3   OH2 1769   2.304   4.669   3.015
  602TIP3    H1 1770   2.309   4.716   3.098
  602TIP3    H2 1771   2.325   4.735   2.949
  603TIP3   OH2 1772   0.713   0.022   5.033
  603TIP3    H1 1773   0.777   0.034   5.104
  603TIP3    H2 1774   0.707  -0.073   5.023
  604TIP3   OH2 1775   1.057   0.370   1.024
  604TIP3    H1 1776   0.986   0.403   0.969
  604TIP3    H2 1777   1.020   0.370   1.113
  605TIP3   OH2 1778   6.380   5.406   3.527
  605TIP3    H1 1779   6.341   5.483   3.485
  605TIP3    H2 1780   6.440   5.371   3.461
  606TIP3   OH2 1781   6.734   3.823   1.306
  606TIP3    H1 1782   6.695   3.878   1.238
  606TIP3    H2 1783   6.718   3.733   1.276
  607TIP3   OH2 1784   5.666   6.665   1.001
  607TIP3    H1 1785   5.639   6.578   0.974
  607TIP3    H2 1786   5.606   6.688   1.073
  608TIP3   OH2 1787   5.893   6.271   5.348
  608TIP3    H1 1788   5.961   6.313   5.401
  608TIP3    H2 1789   5.937   6.195   5.309
  609TIP3   OH2 1790   3.284   3.709   5.375
  609TIP3    H1 1791   3.301   3.664   5.458
  609TIP3    H2 1792   3.243   3.791   5.400
  610TIP3   OH2 1793   2.473   6.075   0.224
  610TIP3    H1 1794   2.431   6.044   0.144
  610TIP3    H2 1795   2.550   6.122   0.194
  611TIP3   OH2 1796   4.276   3.850   5.862
  611TIP3    H1 1797   4.195   3.888   5.896
  611TIP3    H2 1798   4.318   3.922   5.816
  612TIP3   OH2 1799   6.884   1.874   4.639
  612TIP3    H1 1800   6.924   1.861   4.553
  612TIP3    H2 1801   6.900   1.966   4.659
  613TIP3   OH2 1802   7.098   0.052   2.738
  613TIP3    H1 1803   7.013   0.094   2.724
  613TIP3    H2 1804   7.083  -0.010   2.809
  614TIP3   OH2 1805   3.877   2.252   3.563
  614TIP3    H1 1806   3.809   2.244   3.497
  614TIP3    H2 1807   3.921   2.167   3.563
  615TIP3   OH2 1808   1.652   2.634   5.605
  615TIP3    H1 1809   1.741   2.604   5.586
  615TIP3    H2 1810   1.595   2.568   5.565
  616TIP3   OH2 1811   2.248   3.061   4.775
  616TIP3    H1 1812   2.334   3.021   4.762
  616TIP3    H2 1813   2.186   2.996   4.742
  617TIP3   OH2 1814   3.771   5.168   2.165
  617TIP3    H1 1815   3.805   5.088   2.124
  617TIP3    H2 1816   3.680   5.174   2.136
  618TIP3   OH2 1817   2.849   6.455   4.476
  618TIP3    H1 1818   2.839   6.504   4.558
  618TIP3    H2 1819   2.794   6.502   4.413
  619TIP3   OH2 1820   3.884   4.543   3.258
  619TIP3    H1 1821   3.866   4.459   3.216
  619TIP3    H2 1822   3.798   4.574   3.287
  620TIP3   OH2 1823   5.335   3.764   5.349
  620TIP3    H1 1824   5.347   3.673   5.324
  620TIP3    H2 1825   5.264   3.763   5.413
  621TIP3   OH2 1826   1.376   5.227   1.317
  621TIP3    H1 1827   1.373   5.135   1.345
  621TIP3    H2 1828   1.448   5.265   1.368
  622TIP3   OH2 1829   3.342   4.541   5.381
  622TIP3    H1 1830   3.250   4.557   5.406
  622TIP3    H2 1831   3.337   4.493   5.299
  623TIP3   OH2 1832   4.206   1.495   4.482
  623TIP3    H1 1833   4.190   1.526   4.571
  623TIP3    H2 1834   4.208   1.575   4.429
  624TIP3   OH2 1835   1.566   4.616   3.004
  624TIP3    H1 1836   1.500   4.547   2.996
  624TIP3    H2 1837   1.582   4.622   3.098
  625TIP3   OH2 1838   5.230   1.489   5.008
  625TIP3    H1 1839   5.219   1.394   5.000
  625TIP3    H2 1840   5.322   1.504   4.987
  626TIP3   OH2 1841   1.037   4.423   2.546
  626TIP3    H1 1842   0.972   4.469   2.599
  626TIP3    H2 1843   1.010   4.438   2.456
  627TIP3   OH2 1844   1.356   3.634   4.648
  627TIP3    H1 1845   1.293   3.569   4.677
  627TIP3    H2 1846   1.371   3.688   4.725
  628TIP3   OH2 1847   5.063   0.356   4.983
  628TIP3    H1 1848   5.098   0.365   5.071
  628TIP3    H2 1849   4.997   0.425   4.976
  629TIP3   OH2 1850   3.826   2.499   1.186
  629TIP3    H1 1851   3.901   2.552   1.160
  629TIP3    H2 1852   3.803   2.530   1.273
  630TIP3   OH2 1853   4.326   1.912   2.483
  630TIP3    H1 1854   4.402   1.901   2.427
  630TIP3    H2 1855   4.253   1.927   2.423
  631TIP3   OH2 1856   5.985   3.095   2.138
  631TIP3    H1 1857   5.930   3.090   2.216
  631TIP3    H2 1858   6.054   3.158   2.161
  632TIP3   OH2 1859   2.549   2.203   4.315
  632TIP3    H1 1860   2.558   2.294   4.289
  632TIP3    H2 1861   2.479   2.168   4.259
  633TIP3   OH2 1862   4.555   4.971   2.556
  633TIP3    H1 1863   4.557   5.067   2.563
  633TIP3    H2 1864   4.578   4.953   2.465
  634TIP3   OH2 1865   3.179   2.210   5.205
  634TIP3    H1 1866   3.153   2.155   5.279
  634TIP3    H2 1867   3.112   2.279   5.202
  635TIP3   OH2 1868   0.095   2.428   3.107
  635TIP3    H1 1869   0.095   2.338   3.138
  635TIP3    H2 1870   0.105   2.422   3.012
  636TIP3   OH2 1871   6.464   5.055   2.712
  636TIP3    H1 1872   6.384   5.106   2.701
  636TIP3    H2 1873   6.465   5.031   2.805
  637TIP3   OH2 1874   0.480   4.775   3.855
  637TIP3    H1 1875   0.553   4.820   3.812
  637TIP3    H2 1876   0.521   4.701   3.900
  638TIP3   OH2 1877   5.156   4.901   5.433
  638TIP3    H1 1878   5.106   4.906   5.514
  638TIP3    H2 1879   5.126   4.820   5.391
  639TIP3   OH2 1880   4.271   2.766   0.602
  639TIP3    H1 1881   4.345   2.706   0.603
  639TIP3    H2 1882   4.309   2.853   0.608
  640TIP3   OH2 1883   2.544   1.604   2.963
  640TIP3    H1 1884   2.541   1.510   2.982
  640TIP3    H2 1885   2.599   1.641   3.033
  641TIP3   OH2 1886   5.392   1.189   0.959
  641TIP3    H1 1887   5.324   1.162   1.020
  641TIP3    H2 1888   5.433   1.107   0.931
  642TIP3   OH2 1889   6.902   2.489   3.084
  642TIP3    H1 1890   6.857   2.405   3.090
  642TIP3    H2 1891   6.882   2.520   2.995
  643TIP3   OH2 1892   0.203   1.777   1.172
  643TIP3    H1 1893   0.162   1.703   1.215
  643TIP3    H2 1894   0.244   1.827   1.243
  644TIP3   OH2 1895   5.110   1.377   0.640
  644TIP3    H1 1896   5.164   1.331   0.576
  644TIP3    H2 1897   5.110   1.468   0.611
  645TIP3   OH2 1898   2.025   5.920   3.895
  645TIP3    H1 1899   2.079   5.973   3.953
  645TIP3    H2 1900   2.057   5.831   3.908
  646TIP3   OH2 1901   4.836   5.730   5.655
  646TIP3    H1 1902   4.742   5.735   5.634
  646TIP3    H2 1903   4.840   5.753   5.748
  647TIP3   OH2 1904   3.482   5.921   1.113
  647TIP3    H1 1905   3.406   5.893   1.163
  647TIP3    H2 1906   3.544   5.849   1.121
  648TIP3   OH2 1907   0.674   0.494   4.439
  648TIP3    H1 1908   0.706   0.562   4.380
  648TIP3    H2 1909   0.621   0.541   4.503
  649TIP3   OH2 1910   2.997   3.460   4.691
  649TIP3    H1 1911   3.078   3.483   4.736
  649TIP3    H2 1912   3.026   3.420   4.609
  650TIP3   OH2 1913   1.438   3.185  -0.015
  650TIP3    H1 1914   1.499   3.208  -0.085
  650TIP3    H2 1915   1.400   3.102  -0.044
  651TIP3   OH2 1916   5.978   5.465   2.221
  651TIP3    H1 1917   6.012   5.554   2.209
  651TIP3    H2 1918   5.997   5.445   2.313
  652TIP3   OH2 1919   5.577   3.087   3.563
  652TIP3    H1 1920   5.612   3.164   3.609
  652TIP3    H2 1921   5.510   3.123   3.505
  653TIP3   OH2 1922   6.458   3.540   2.278
  653TIP3    H1 1923   6.526   3.557   2.344
  653TIP3    H2 1924   6.407   3.467   2.315
  654TIP3   OH2 1925   1.239   4.995   2.845
  654TIP3    H1 1926   1.261   4.935   2.916
  654TIP3    H2 1927   1.318   5.046   2.831
  655TIP3   OH2 1928   0.241   6.150   0.925
  655TIP3    H1 1929   0.254   6.149   1.020
  655TIP3    H2 1930   0.329   6.159   0.889
  656TIP3   OH2 1931   6.995   2.878   1.648
  656TIP3    H1 1932   7.015   2.893   1.741
  656TIP3    H2 1933   6.984   2.783   1.641
  657TIP3   OH2 1934   2.942   5.014   1.080
  657TIP3    H1 1935   2.999   5.083   1.045
  657TIP3    H2 1936   2.911   5.049   1.164
  658TIP3   OH2 1937   5.181   4.257   4.179
  658TIP3    H1 1938   5.115   4.197   4.213
  658TIP3    H2 1939   5.249   4.257   4.247
  659TIP3   OH2 1940   3.315   6.720   1.937
  659TIP3    H1 1941   3.318   6.631   1.970
  659TIP3    H2 1942   3.278   6.712   1.849
  660TIP3   OH2 1943   2.169   5.404   4.309
  660TIP3    H1 1944   2.109   5.360   4.249
  660TIP3    H2 1945   2.141   5.495   4.310
  661TIP3   OH2 1946   2.708   4.587   1.018
  661TIP3    H1 1947   2.783   4.559   0.965
  661TIP3    H2 1948   2.743   4.653   1.077
  662TIP3   OH2 1949   5.680   0.092   3.904
  662TIP3    H1 1950   5.588   0.066   3.908
  662TIP3    H2 1951   5.723   0.040   3.972
  663TIP3   OH2 1952   4.131   0.028   0.523
  663TIP3    H1 1953   4.111   0.032   0.617
  663TIP3    H2 1954   4.077   0.096   0.484
  664TIP3   OH2 1955   4.850   6.476   5.311
  664TIP3    H1 1956   4.765   6.433   5.302
  664TIP3    H2 1957   4.914   6.406   5.293
  665TIP3   OH2 1958   5.156   3.223   2.393
  665TIP3    H1 1959   5.251   3.227   2.393
  665TIP3    H2 1960   5.128   3.312   2.416
  666TIP3   OH2 1961   5.908   3.382   4.627
  666TIP3    H1 1962   5.911   3.384   4.723
  666TIP3    H2 1963   5.968   3.311   4.603
  667TIP3   OH2 1964   0.581   3.798   2.479
  667TIP3    H1 1965   0.525   3.859   2.527
  667TIP3    H2 1966   0.654   3.853   2.448
  668TIP3   OH2 1967   6.638   5.495   1.439
  668TIP3    H1 1968   6.586   5.554   1.495
  668TIP3    H2 1969   6.702   5.553   1.397
  669TIP3   OH2 1970   6.221   4.870   0.920
  669TIP3    H1 1971   6.200   4.961   0.897
  669TIP3    H2 1972   6.145   4.840   0.970
  670TIP3   OH2 1973   2.166   4.859   2.764
  670TIP3    H1 1974   2.113   4.832   2.689
  670TIP3    H2 1975   2.102   4.879   2.833
  671TIP3   OH2 1976   0.262   6.474   4.450
  671TIP3    H1 1977   0.328   6.543   4.444
  671TIP3    H2 1978   0.189   6.507   4.397
  672TIP3   OH2 1979   2.571   1.645   4.211
  672TIP3    H1 1980   2.655   1.639   4.256
  672TIP3    H2 1981   2.538   1.733   4.233
  673TIP3   OH2 1982   5.476   2.219   1.416
  673TIP3    H1 1983   5.450   2.230   1.324
  673TIP3    H2 1984   5.558   2.171   1.411
  674TIP3   OH2 1985   0.959   6.126   0.381
  674TIP3    H1 1986   1.048   6.160   0.389
  674TIP3    H2 1987   0.912   6.193   0.330
  675TIP3   OH2 1988   1.319   0.083   3.730
  675TIP3    H1 1989   1.375   0.160   3.737
  675TIP3    H2 1990   1.243   0.103   3.785
  676TIP3   OH2 1991   1.094   6.805   4.357
  676TIP3    H1 1992   1.080   6.872   4.290
  676TIP3    H2 1993   1.064   6.724   4.316
  677TIP3   OH2 1994   2.772   5.741   2.489
  677TIP3    H1 1995   2.736   5.811   2.434
  677TIP3    H2 1996   2.849   5.711   2.441
  678TIP3   OH2 1997   0.686   5.257   3.696
  678TIP3    H1 1998   0.757   5.219   3.645
  678TIP3    H2 1999   0.723   5.268   3.784
  679TIP3   OH2 2000   4.761   0.288   5.496
  679TIP3    H1 2001   4.813   0.327   5.425
  679TIP3    H2 2002   4.749   0.360   5.558
  680TIP3   OH2 2003   5.198   1.431   0.184
  680TIP3    H1 2004   5.160   1.408   0.100
  680TIP3    H2 2005   5.201   1.527   0.184
  681TIP3   OH2 2006   1.608   2.843   2.655
  681TIP3    H1 2007   1.532   2.896   2.630
  681TIP3    H2 2008   1.582   2.753   2.634
  682TIP3   OH2 2009   4.214   4.542   1.948
  682TIP3    H1 2010   4.201   4.637   1.949
  682TIP3    H2 2011   4.127   4.506   1.966
  683TIP3   OH2 2012   6.033   2.245   2.930
  683TIP3    H1 2013   5.937   2.238   2.935
  683TIP3    H2 2014   6.065   2.173   2.984
  684TIP3   OH2 2015   5.379   0.683   0.366
  684TIP3    H1 2016   5.333   0.604   0.336
  684TIP3    H2 2017   5.333   0.755   0.323
  685TIP3   OH2 2018   2.723   4.733   2.611
  685TIP3    H1 2019   2.707   4.689   2.527
  685TIP3    H2 2020   2.685   4.674   2.676
  686TIP3   OH2 2021   7.120   1.439   0.782
  686TIP3    H1 2022   7.206   1.398   0.781
  686TIP3    H2 2023   7.100   1.456   0.690
  687TIP3   OH2 2024   1.941   5.276   3.228
  687TIP3    H1 2025   1.905   5.365   3.219
  687TIP3    H2 2026   1.881   5.221   3.177
  688TIP3   OH2 2027   2.921   0.895   3.506
  688TIP3    H1 2028   2.892   0.814   3.464
  688TIP3    H2 2029   2.900   0.883   3.598
  689TIP3   OH2 2030   1.469   3.307   1.168
  689TIP3    H1 2031   1.526   3.365   1.117
  689TIP3    H2 2032   1.489   3.219   1.136
  690TIP3   OH2 2033   3.623   2.468   4.337
  690TIP3    H1 2034   3.716   2.446   4.333
  690TIP3    H2 2035   3.595   2.468   4.245
  691TIP3   OH2 2036   7.207   5.091   4.966
  691TIP3    H1 2037   7.128   5.116   4.919
  691TIP3    H2 2038   7.279   5.130   4.915
  692TIP3   OH2 2039   4.706   1.683   4.845
  692TIP3    H1 2040   4.730   1.663   4.935
  692TIP3    H2 2041   4.622   1.639   4.832
  693TIP3   OH2 2042   2.659   3.175   4.768
  693TIP3    H1 2043   2.580   3.211   4.808
  693TIP3    H2 2044   2.696   3.248   4.718
  694TIP3   OH2 2045   5.944   0.992   2.645
  694TIP3    H1 2046   5.855   1.002   2.679
  694TIP3    H2 2047   5.957   0.897   2.640
  695TIP3   OH2 2048   0.971   1.728   3.948
  695TIP3    H1 2049   0.924   1.704   4.029
  695TIP3    H2 2050   1.055   1.684   3.956
  696TIP3   OH2 2051   6.456   6.101   5.657
  696TIP3    H1 2052   6.434   6.182   5.701
  696TIP3    H2 2053   6.392   6.037   5.689
  697TIP3   OH2 2054   2.684   2.056   4.054
  697TIP3    H1 2055   2.693   2.112   4.131
  697TIP3    H2 2056   2.753   2.085   3.994
  698TIP3   OH2 2057   4.945   2.509   5.233
  698TIP3    H1 2058   5.007   2.581   5.225
  698TIP3    H2 2059   4.955   2.459   5.151
  699TIP3   OH2 2060   6.045   5.008   4.217
  699TIP3    H1 2061   6.047   4.965   4.132
  699TIP3    H2 2062   5.958   5.046   4.223
  700TIP3   OH2 2063   6.588   3.563   3.038
  700TIP3    H1 2064   6.606   3.471   3.021
  700TIP3    H2 2065   6.512   3.582   2.983
  701TIP3   OH2 2066   5.315   0.432   4.579
  701TIP3    H1 2067   5.271   0.371   4.637
  701TIP3    H2 2068   5.375   0.377   4.527
  702TIP3   OH2 2069   0.851   4.309   3.220
  702TIP3    H1 2070   0.852   4.351   3.306
  702TIP3    H2 2071   0.762   4.274   3.211
  703TIP3   OH2 2072   6.704   0.836   5.810
  703TIP3    H1 2073   6.714   0.772   5.740
  703TIP3    H2 2074   6.730   0.919   5.770
  704TIP3   OH2 2075   4.119   6.627   1.837
  704TIP3    H1 2076   4.205   6.614   1.797
  704TIP3    H2 2077   4.137   6.650   1.928
  705TIP3   OH2 2078   1.682   5.377   2.661
  705TIP3    H1 2079   1.773   5.363   2.688
  705TIP3    H2 2080   1.689   5.403   2.569
  706TIP3   OH2 2081   5.242   5.401   5.673
  706TIP3    H1 2082   5.149   5.419   5.683
  706TIP3    H2 2083   5.267   5.354   5.753
  707TIP3   OH2 2084   7.108   3.996   2.973
  707TIP3    H1 2085   7.094   4.071   2.914
  707TIP3    H2 2086   7.051   3.928   2.938
  708TIP3   OH2 2087   7.142   0.296   0.525
  708TIP3    H1 2088   7.115   0.220   0.576
  708TIP3    H2 2089   7.063   0.351   0.519
  709TIP3   OH2 2090   2.388   2.116   1.617
  709TIP3    H1 2091   2.388   2.208   1.591
  709TIP3    H2 2092   2.470   2.082   1.583
  710TIP3   OH2 2093   6.487   1.415   5.844
  710TIP3    H1 2094   6.499   1.351   5.773
  710TIP3    H2 2095   6.570   1.460   5.851
  711TIP3   OH2 2096   1.177   2.160   4.765
  711TIP3    H1 2097   1.271   2.174   4.762
  711TIP3    H2 2098   1.144   2.203   4.686
  712TIP3   OH2 2099   0.851   1.429   3.766
  712TIP3    H1 2100   0.823   1.368   3.698
  712TIP3    H2 2101   0.899   1.375   3.829
  713TIP3   OH2 2102   0.030   6.176   4.201
  713TIP3    H1 2103  -0.020   6.128   4.267
  713TIP3    H2 2104  -0.034   6.236   4.162
  714TIP3   OH2 2105   6.574   4.338   4.977
  714TIP3    H1 2106   6.502   4.370   5.030
  714TIP3    H2 2107   6.597   4.254   5.016
  715TIP3   OH2 2108   1.665   3.692   5.625
  715TIP3    H1 2109   1.586   3.721   5.580
  715TIP3    H2 2110   1.693   3.767   5.677
  716TIP3   OH2 2111   0.819   1.408   2.250
  716TIP3    H1 2112   0.853   1.495   2.230
  716TIP3    H2 2113   0.774   1.381   2.170
  717TIP3   OH2 2114   3.105   5.134   1.438
  717TIP3    H1 2115   3.106   5.207   1.500
  717TIP3    H2 2116   3.036   5.077   1.469
  718TIP3   OH2 2117   5.760   0.343   3.043
  718TIP3    H1 2118   5.771   0.407   2.973
  718TIP3    H2 2119   5.712   0.271   3.002
  719TIP3   OH2 2120   0.070   1.506   5.732
  719TIP3    H1 2121   0.003   1.439   5.730
  719TIP3    H2 2122   0.058   1.549   5.817
  720TIP3   OH2 2123   2.677   5.525   2.856
  720TIP3    H1 2124   2.623   5.587   2.807
  720TIP3    H2 2125   2.614   5.462   2.892
  721TIP3   OH2 2126   0.057   3.361   1.147
  721TIP3    H1 2127   0.139   3.345   1.101
  721TIP3    H2 2128   0.072   3.327   1.235
  722TIP3   OH2 2129   4.159   5.698   4.270
  722TIP3    H1 2130   4.076   5.734   4.302
  722TIP3    H2 2131   4.149   5.699   4.175
  723TIP3   OH2 2132   3.494   1.642   0.209
  723TIP3    H1 2133   3.584   1.674   0.209
  723TIP3    H2 2134   3.497   1.561   0.260
  724TIP3   OH2 2135   5.588   5.376   2.372
  724TIP3    H1 2136   5.567   5.469   2.368
  724TIP3    H2 2137   5.529   5.341   2.438
  725TIP3   OH2 2138   4.600   0.571   5.513
  725TIP3    H1 2139   4.547   0.651   5.508
  725TIP3    H2 2140   4.632   0.569   5.603
  726TIP3   OH2 2141   4.223   2.780   4.641
  726TIP3    H1 2142   4.216   2.841   4.715
  726TIP3    H2 2143   4.195   2.696   4.676
  727TIP3   OH2 2144   3.786   3.654   1.381
  727TIP3    H1 2145   3.721   3.616   1.322
  727TIP3    H2 2146   3.839   3.579   1.409
  728TIP3   OH2 2147   5.935   6.073   5.169
  728TIP3    H1 2148   5.978   5.989   5.183
  728TIP3    H2 2149   5.842   6.052   5.163
  729TIP3   OH2 2150   7.022   3.422   4.582
  729TIP3    H1 2151   7.044   3.330   4.596
  729TIP3    H2 2152   6.927   3.423   4.574
  730TIP3   OH2 2153   0.278   0.325   4.839
  730TIP3    H1 2154   0.300   0.240   4.878
  730TIP3    H2 2155   0.195   0.309   4.795
  731TIP3   OH2 2156   1.299   1.819   4.991
  731TIP3    H1 2157   1.291   1.782   4.903
  731TIP3    H2 2158   1.338   1.748   5.043
  732TIP3   OH2 2159   2.725   0.597   3.164
  732TIP3    H1 2160   2.762   0.509   3.161
  732TIP3    H2 2161   2.775   0.646   3.098
  733TIP3   OH2 2162   5.605   0.939   4.555
  733TIP3    H1 2163   5.651   1.004   4.501
  733TIP3    H2 2164   5.542   0.899   4.496
  734TIP3   OH2 2165   3.602   2.894   5.896
  734TIP3    H1 2166   3.585   2.966   5.836
  734TIP3    H2 2167   3.518   2.849   5.904
  735TIP3   OH2 2168   2.592   2.472   4.306
  735TIP3    H1 2169   2.525   2.539   4.291
  735TIP3    H2 2170   2.669   2.520   4.333
  736TIP3   OH2 2171   2.253   0.906   4.656
  736TIP3    H1 2172   2.339   0.863   4.655
  736TIP3    H2 2173   2.268   0.989   4.611
  737TIP3   OH2 2174   5.807   1.530   0.998
  737TIP3    H1 2175   5.741   1.461   0.992
  737TIP3    H2 2176   5.891   1.485   0.989
  738TIP3   OH2 2177   1.480   0.836   1.460
  738TIP3    H1 2178   1.486   0.923   1.498
  738TIP3    H2 2179   1.553   0.831   1.398
  739TIP3   OH2 2180   3.776   2.270   1.942
  739TIP3    H1 2181   3.785   2.256   1.848
  739TIP3    H2 2182   3.831   2.346   1.960
  740TIP3   OH2 2183   3.115   1.062   1.421
  740TIP3    H1 2184   3.194   1.050   1.369
  740TIP3    H2 2185   3.134   1.018   1.504
  741TIP3   OH2 2186   6.099   4.634   2.138
  741TIP3    H1 2187   6.137   4.606   2.054
  741TIP3    H2 2188   6.163   4.605   2.203
  742TIP3   OH2 2189   0.167   2.720   2.323
  742TIP3    H1 2190   0.241   2.684   2.372
  742TIP3    H2 2191   0.148   2.803   2.366
  743TIP3   OH2 2192   6.456   0.430   1.235
  743TIP3    H1 2193   6.416   0.346   1.259
  743TIP3    H2 2194   6.522   0.407   1.170
  744TIP3   OH2 2195   5.365   5.033   2.251
  744TIP3    H1 2196   5.331   5.118   2.282
  744TIP3    H2 2197   5.306   5.010   2.179
  745TIP3   OH2 2198   6.730   5.867   1.592
  745TIP3    H1 2199   6.790   5.847   1.521
  745TIP3    H2 2200   6.758   5.809   1.664
  746TIP3   OH2 2201   0.171   0.969   2.973
  746TIP3    H1 2202   0.113   1.044   2.956
  746TIP3    H2 2203   0.116   0.906   3.018
  747TIP3   OH2 2204   2.054   2.446   5.194
  747TIP3    H1 2205   2.102   2.525   5.217
  747TIP3    H2 2206   1.971   2.478   5.158
  748TIP3   OH2 2207   5.493   1.936   2.005
  748TIP3    H1 2208   5.565   1.999   2.000
  748TIP3    H2 2209   5.534   1.852   1.983
  749TIP3   OH2 2210   5.141   0.426   4.212
  749TIP3    H1 2211   5.218   0.461   4.255
  749TIP3    H2 2212   5.157   0.437   4.119
  750TIP3   OH2 2213   3.272   4.770   2.245
  750TIP3    H1 2214   3.314   4.853   2.271
  750TIP3    H2 2215   3.287   4.764   2.151
  751TIP3   OH2 2216   3.990   5.990   0.370
  751TIP3    H1 2217   4.003   5.957   0.459
  751TIP3    H2 2218   4.060   5.949   0.319
  752TIP3   OH2 2219   0.374   4.625   2.343
  752TIP3    H1 2220   0.385   4.612   2.437
  752TIP3    H2 2221   0.328   4.708   2.336
  753TIP3   OH2 2222   4.960   6.525   0.851
  753TIP3    H1 2223   4.959   6.570   0.935
  753TIP3    H2 2224   4.995   6.590   0.790
  754TIP3   OH2 2225   4.733   6.325   3.521
  754TIP3    H1 2226   4.777   6.406   3.549
  754TIP3    H2 2227   4.676   6.353   3.449
  755TIP3   OH2 2228   4.338   0.999   1.302
  755TIP3    H1 2229   4.350   1.011   1.208
  755TIP3    H2 2230   4.245   1.018   1.317
  756TIP3   OH2 2231   3.702   5.852   3.536
  756TIP3    H1 2232   3.627   5.846   3.595
  756TIP3    H2 2233   3.704   5.944   3.510
  757TIP3   OH2 2234   6.268   2.380   3.934
  757TIP3    H1 2235   6.198   2.438   3.965
  757TIP3    H2 2236   6.254   2.298   3.982
  758TIP3   OH2 2237   6.054   2.035   3.667
  758TIP3    H1 2238   6.039   2.013   3.759
  758TIP3    H2 2239   6.036   1.954   3.620
  759TIP3   OH2 2240   4.115   1.598   4.749
  759TIP3    H1 2241   4.149   1.686   4.733
  759TIP3    H2 2242   4.020   1.609   4.744
  760TIP3   OH2 2243   6.206   3.463   1.133
  760TIP3    H1 2244   6.206   3.464   1.228
  760TIP3    H2 2245   6.156   3.384   1.110
  761TIP3   OH2 2246   7.192   0.800   3.084
  761TIP3    H1 2247   7.157   0.753   3.008
  761TIP3    H2 2248   7.119   0.855   3.114
  762TIP3   OH2 2249   5.256   3.200   4.925
  762TIP3    H1 2250   5.205   3.178   5.002
  762TIP3    H2 2251   5.248   3.295   4.917
  763TIP3   OH2 2252   3.817   5.870   3.933
  763TIP3    H1 2253   3.817   5.786   3.979
  763TIP3    H2 2254   3.768   5.853   3.853
  764TIP3   OH2 2255   6.954   4.823   1.888
  764TIP3    H1 2256   6.998   4.904   1.865
  764TIP3    H2 2257   6.903   4.800   1.810
  765TIP3   OH2 2258   4.302   3.302   0.784
  765TIP3    H1 2259   4.394   3.325   0.770
  765TIP3    H2 2260   4.267   3.374   0.836
  766TIP3   OH2 2261   3.324   4.837   1.251
  766TIP3    H1 2262   3.297   4.763   1.197
  766TIP3    H2 2263   3.299   4.811   1.340
  767TIP3   OH2 2264   6.671   1.576   4.658
  767TIP3    H1 2265   6.630   1.495   4.630
  767TIP3    H2 2266   6.600   1.627   4.697
  768TIP3   OH2 2267   6.210   0.278   0.245
  768TIP3    H1 2268   6.217   0.354   0.303
  768TIP3    H2 2269   6.263   0.210   0.287
  769TIP3   OH2 2270   2.794   5.970   0.565
  769TIP3    H1 2271   2.743   6.052   0.571
  769TIP3    H2 2272   2.747   5.919   0.499
  770TIP3   OH2 2273   1.110   6.643   3.569
  770TIP3    H1 2274   1.032   6.622   3.620
  770TIP3    H2 2275   1.137   6.729   3.601
  771TIP3   OH2 2276   0.623   1.056   3.879
  771TIP3    H1 2277   0.659   1.083   3.795
  771TIP3    H2 2278   0.699   1.044   3.936
  772TIP3   OH2 2279   6.788   0.733   4.503
  772TIP3    H1 2280   6.711   0.778   4.468
  772TIP3    H2 2281   6.853   0.803   4.514
  773TIP3   OH2 2282   4.887   1.489   3.034
  773TIP3    H1 2283   4.895   1.417   3.096
  773TIP3    H2 2284   4.973   1.530   3.033
  774TIP3   OH2 2285   7.173   2.440   1.808
  774TIP3    H1 2286   7.104   2.388   1.848
  774TIP3    H2 2287   7.239   2.449   1.876
  775TIP3   OH2 2288   5.510   3.293   0.641
  775TIP3    H1 2289   5.445   3.311   0.573
  775TIP3    H2 2290   5.578   3.241   0.597
  776TIP3   OH2 2291   0.063   2.656   1.215
  776TIP3    H1 2292   0.075   2.621   1.303
  776TIP3    H2 2293  -0.025   2.694   1.216
  777TIP3   OH2 2294   7.023   0.040   5.058
  777TIP3    H1 2295   7.046  -0.010   5.136
  777TIP3    H2 2296   6.941   0.085   5.081
  778TIP3   OH2 2297   2.771   3.294   1.999
  778TIP3    H1 2298   2.773   3.384   2.032
  778TIP3    H2 2299   2.846   3.251   2.041
  779TIP3   OH2 2300   2.396   1.506   2.106
  779TIP3    H1 2301   2.392   1.601   2.095
  779TIP3    H2 2302   2.307   1.476   2.091
  780TIP3   OH2 2303   3.190   2.707   3.666
  780TIP3    H1 2304   3.252   2.735   3.599
  780TIP3    H2 2305   3.152   2.788   3.699
  781TIP3   OH2 2306   5.015   4.457   5.138
  781TIP3    H1 2307   5.009   4.365   5.165
  781TIP3    H2 2308   5.075   4.456   5.064
  782TIP3   OH2 2309   3.835   4.027   3.618
  782TIP3    H1 2310   3.761   4.076   3.583
  782TIP3    H2 2311   3.907   4.091   3.619
  783TIP3   OH2 2312   3.341   5.130   5.799
  783TIP3    H1 2313   3.353   5.108   5.892
  783TIP3    H2 2314   3.308   5.219   5.800
  784TIP3   OH2 2315   1.565   5.558   2.822
  784TIP3    H1 2316   1.622   5.508   2.764
  784TIP3    H2 2317   1.484   5.567   2.772
  785TIP3   OH2 2318   7.183   1.685   1.919
  785TIP3    H1 2319   7.197   1.658   2.010
  785TIP3    H2 2320   7.147   1.773   1.926
  786TIP3   OH2 2321   3.849   4.852   1.105
  786TIP3    H1 2322   3.765   4.893   1.127
  786TIP3    H2 2323   3.885   4.826   1.190
  787TIP3   OH2 2324   4.805   2.287   2.071
  787TIP3    H1 2325   4.849   2.352   2.016
  787TIP3    H2 2326   4.873   2.259   2.132
  788TIP3   OH2 2327   2.973   4.137   5.272
  788TIP3    H1 2328   3.000   4.182   5.352
  788TIP3    H2 2329   2.882   4.112   5.287
  789TIP3   OH2 2330   3.949   4.228   2.422
  789TIP3    H1 2331   4.044   4.233   2.426
  789TIP3    H2 2332   3.919   4.293   2.485
  790TIP3   OH2 2333   2.386   0.325   3.098
  790TIP3    H1 2334   2.417   0.239   3.128
  790TIP3    H2 2335   2.360   0.311   3.007
  791TIP3   OH2 2336   0.370   5.165   2.749
  791TIP3    H1 2337   0.363   5.171   2.654
  791TIP3    H2 2338   0.465   5.162   2.766
  792TIP3   OH2 2339   3.582   1.447   2.612
  792TIP3    H1 2340   3.609   1.539   2.623
  792TIP3    H2 2341   3.619   1.402   2.688
  793TIP3   OH2 2342   6.400   0.046   1.204
  793TIP3    H1 2343   6.307   0.064   1.191
  793TIP3    H2 2344   6.436   0.039   1.116
  794TIP3   OH2 2345   5.909   3.234   1.328
  794TIP3    H1 2346   5.983   3.196   1.374
  794TIP3    H2 2347   5.832   3.201   1.375
  795TIP3   OH2 2348   2.963   2.301   0.554
  795TIP3    H1 2349   2.937   2.318   0.463
  795TIP3    H2 2350   2.964   2.388   0.594
  796TIP3   OH2 2351   2.274   1.481   3.668
  796TIP3    H1 2352   2.187   1.484   3.628
  796TIP3    H2 2353   2.268   1.538   3.745
  797TIP3   OH2 2354   3.130   3.681   3.320
  797TIP3    H1 2355   3.132   3.589   3.346
  797TIP3    H2 2356   3.097   3.727   3.397
  798TIP3   OH2 2357   1.789   1.654   2.152
  798TIP3    H1 2358   1.716   1.714   2.142
  798TIP3    H2 2359   1.867   1.709   2.147
  799TIP3   OH2 2360   0.744   2.345   1.159
  799TIP3    H1 2361   0.723   2.346   1.252
  799TIP3    H2 2362   0.828   2.390   1.153
  800TIP3   OH2 2363   4.321   6.232   0.366
  800TIP3    H1 2364   4.366   6.149   0.386
  800TIP3    H2 2365   4.327   6.282   0.448
  801TIP3   OH2 2366   0.358   0.810   0.616
  801TIP3    H1 2367   0.270   0.810   0.578
  801TIP3    H2 2368   0.369   0.723   0.653
  802TIP3   OH2 2369   5.154   4.679   1.252
  802TIP3    H1 2370   5.164   4.773   1.239
  802TIP3    H2 2371   5.206   4.660   1.330
  803TIP3   OH2 2372   1.133   0.746   0.478
  803TIP3    H1 2373   1.173   0.816   0.529
  803TIP3    H2 2374   1.111   0.678   0.542
  804TIP3   OH2 2375   5.897   4.552   4.228
  804TIP3    H1 2376   5.883   4.540   4.322
  804TIP3    H2 2377   5.810   4.573   4.194
  805TIP3   OH2 2378   6.888   2.896   2.829
  805TIP3    H1 2379   6.834   2.879   2.906
  805TIP3    H2 2380   6.976   2.910   2.864
  806TIP3   OH2 2381   1.038   1.991   5.163
  806TIP3    H1 2382   1.093   2.034   5.098
  806TIP3    H2 2383   1.048   1.897   5.145
  807TIP3   OH2 2384   2.080   0.882   1.468
  807TIP3    H1 2385   2.109   0.798   1.503
  807TIP3    H2 2386   2.039   0.860   1.384
  808TIP3   OH2 2387   5.513   5.311   0.239
  808TIP3    H1 2388   5.557   5.308   0.325
  808TIP3    H2 2389   5.424   5.339   0.259
  809TIP3   OH2 2390   6.522   0.932   5.489
  809TIP3    H1 2391   6.602   0.884   5.509
  809TIP3    H2 2392   6.551   1.010   5.441
  810TIP3   OH2 2393   5.026   6.041   5.147
  810TIP3    H1 2394   5.017   5.948   5.170
  810TIP3    H2 2395   4.995   6.047   5.057
  811TIP3   OH2 2396   3.674   6.198   3.610
  811TIP3    H1 2397   3.751   6.148   3.586
  811TIP3    H2 2398   3.708   6.277   3.653
  812TIP3   OH2 2399   4.018   2.934   2.074
  812TIP3    H1 2400   4.037   2.977   1.991
  812TIP3    H2 2401   4.100   2.939   2.122
  813TIP3   OH2 2402   0.756   0.983   0.886
  813TIP3    H1 2403   0.762   0.941   0.972
  813TIP3    H2 2404   0.813   1.060   0.893
  814TIP3   OH2 2405   6.323   6.105   4.664
  814TIP3    H1 2406   6.328   6.011   4.651
  814TIP3    H2 2407   6.230   6.124   4.673
  815TIP3   OH2 2408   4.964   1.227   1.124
  815TIP3    H1 2409   4.885   1.244   1.072
  815TIP3    H2 2410   4.943   1.263   1.210
  816TIP3   OH2 2411   6.208   5.196   4.388
  816TIP3    H1 2412   6.142   5.254   4.351
  816TIP3    H2 2413   6.200   5.115   4.338
  817TIP3   OH2 2414   4.222   2.972   3.157
  817TIP3    H1 2415   4.165   2.905   3.119
  817TIP3    H2 2416   4.310   2.933   3.155
  818TIP3   OH2 2417   7.173   0.568   1.009
  818TIP3    H1 2418   7.160   0.501   0.942
  818TIP3    H2 2419   7.162   0.521   1.092
  819TIP3   OH2 2420   1.849   0.420   4.158
  819TIP3    H1 2421   1.821   0.401   4.248
  819TIP3    H2 2422   1.786   0.373   4.103
  820TIP3   OH2 2423   4.424   2.271   3.929
  820TIP3    H1 2424   4.465   2.356   3.919
  820TIP3    H2 2425   4.441   2.246   4.019
  821TIP3   OH2 2426   1.762   5.036   4.617
  821TIP3    H1 2427   1.800   5.053   4.531
  821TIP3    H2 2428   1.755   4.940   4.621
  822TIP3   OH2 2429   3.457   0.574   4.202
  822TIP3    H1 2430   3.449   0.665   4.174
  822TIP3    H2 2431   3.369   0.550   4.231
  823TIP3   OH2 2432   6.245   4.186   2.182
  823TIP3    H1 2433   6.214   4.166   2.270
  823TIP3    H2 2434   6.202   4.121   2.126
  824TIP3   OH2 2435   5.290   3.711   1.662
  824TIP3    H1 2436   5.221   3.682   1.602
  824TIP3    H2 2437   5.261   3.681   1.748
  825TIP3   OH2 2438   1.434   1.009   2.414
  825TIP3    H1 2439   1.479   1.018   2.330
  825TIP3    H2 2440   1.426   1.099   2.446
  826TIP3   OH2 2441   5.808   3.488   3.441
  826TIP3    H1 2442   5.842   3.521   3.524
  826TIP3    H2 2443   5.855   3.406   3.427
  827TIP3   OH2 2444   4.208   3.578   0.311
  827TIP3    H1 2445   4.286   3.603   0.360
  827TIP3    H2 2446   4.222   3.613   0.223
  828TIP3   OH2 2447   2.355   2.204   4.125
  828TIP3    H1 2448   2.263   2.183   4.145
  828TIP3    H2 2449   2.349   2.266   4.052
  829TIP3   OH2 2450   2.811   0.638   4.831
  829TIP3    H1 2451   2.749   0.705   4.803
  829TIP3    H2 2452   2.869   0.625   4.756
  830TIP3   OH2 2453   7.132   1.703   5.207
  830TIP3    H1 2454   7.134   1.773   5.272
  830TIP3    H2 2455   7.221   1.670   5.203
  831TIP3   OH2 2456   1.238   1.039   4.604
  831TIP3    H1 2457   1.263   1.052   4.696
  831TIP3    H2 2458   1.290   0.964   4.575
  832TIP3   OH2 2459   6.977   2.540   0.194
  832TIP3    H1 2460   6.984   2.459   0.246
  832TIP3    H2 2461   6.905   2.588   0.234
  833TIP3   OH2 2462   7.156   6.756   1.325
  833TIP3    H1 2463   7.222   6.746   1.394
  833TIP3    H2 2464   7.088   6.693   1.349
  834TIP3   OH2 2465   7.195   5.913   2.718
  834TIP3    H1 2466   7.226   5.840   2.665
  834TIP3    H2 2467   7.130   5.874   2.777
  835TIP3   OH2 2468   3.704   2.004   4.940
  835TIP3    H1 2469   3.689   1.964   5.025
  835TIP3    H2 2470   3.645   1.958   4.880
  836TIP3   OH2 2471   2.319   6.399   3.928
  836TIP3    H1 2472   2.378   6.371   3.998
  836TIP3    H2 2473   2.371   6.460   3.876
  837TIP3   OH2 2474   3.542   6.071   0.523
  837TIP3    H1 2475   3.555   6.114   0.438
  837TIP3    H2 2476   3.506   5.985   0.501
  838TIP3   OH2 2477   1.159   2.015   5.410
  838TIP3    H1 2478   1.097   2.007   5.337
  838TIP3    H2 2479   1.129   2.092   5.458
  839TIP3   OH2 2480   6.636   1.779   5.748
  839TIP3    H1 2481   6.636   1.870   5.719
  839TIP3    H2 2482   6.605   1.782   5.838
  840TIP3   OH2 2483   7.056   0.337   2.897
  840TIP3    H1 2484   7.080   0.261   2.949
  840TIP3    H2 2485   7.013   0.300   2.819
  841TIP3   OH2 2486   2.107   1.446   2.137
  841TIP3    H1 2487   2.022   1.406   2.114
  841TIP3    H2 2488   2.089   1.540   2.140
  842TIP3   OH2 2489   5.728   1.767   1.534
  842TIP3    H1 2490   5.727   1.683   1.581
  842TIP3    H2 2491   5.635   1.792   1.530
  843TIP3   OH2 2492   1.095   5.323   5.700
  843TIP3    H1 2493   1.113   5.380   5.625
  843TIP3    H2 2494   1.107   5.235   5.666
  844TIP3   OH2 2495   2.153   2.390   1.120
  844TIP3    H1 2496   2.146   2.294   1.117
  844TIP3    H2 2497   2.119   2.419   1.035
  845TIP3   OH2 2498   1.690   6.248   4.910
  845TIP3    H1 2499   1.699   6.315   4.978
  845TIP3    H2 2500   1.691   6.297   4.828
  846TIP3   OH2 2501   1.923   6.731   5.561
  846TIP3    H1 2502   1.869   6.654   5.541
  846TIP3    H2 2503   1.982   6.738   5.486
  847TIP3   OH2 2504   2.669   3.927   1.993
  847TIP3    H1 2505   2.689   3.962   2.080
  847TIP3    H2 2506   2.607   3.857   2.010
  848TIP3   OH2 2507   4.369   2.261   3.312
  848TIP3    H1 2508   4.277   2.261   3.339
  848TIP3    H2 2509   4.410   2.330   3.364
  849TIP3   OH2 2510   3.641   3.026   5.165
  849TIP3    H1 2511   3.691   2.951   5.198
  849TIP3    H2 2512   3.628   3.082   5.241
  850TIP3   OH2 2513   0.514   2.274   1.049
  850TIP3    H1 2514   0.554   2.212   0.988
  850TIP3    H2 2515   0.588   2.312   1.096
  851TIP3   OH2 2516   6.130   1.209   5.110
  851TIP3    H1 2517   6.077   1.181   5.035
  851TIP3    H2 2518   6.065   1.229   5.178
  852TIP3   OH2 2519   0.789   5.293   5.681
  852TIP3    H1 2520   0.732   5.350   5.631
  852TIP3    H2 2521   0.857   5.351   5.717
  853TIP3   OH2 2522   5.792   3.021   0.695
  853TIP3    H1 2523   5.744   3.032   0.613
  853TIP3    H2 2524   5.881   3.050   0.675
  854TIP3   OH2 2525   1.087   0.616   2.312
  854TIP3    H1 2526   1.080   0.630   2.217
  854TIP3    H2 2527   1.071   0.702   2.350
  855TIP3   OH2 2528   5.635   1.789   0.176
  855TIP3    H1 2529   5.635   1.693   0.184
  855TIP3    H2 2530   5.662   1.819   0.263
  856TIP3   OH2 2531   6.445   4.902   4.160
  856TIP3    H1 2532   6.503   4.898   4.236
  856TIP3    H2 2533   6.357   4.904   4.196
  857TIP3   OH2 2534   5.273   0.745   5.683
  857TIP3    H1 2535   5.332   0.815   5.656
  857TIP3    H2 2536   5.326   0.688   5.738
  858TIP3   OH2 2537   4.437   3.808   4.160
  858TIP3    H1 2538   4.484   3.725   4.153
  858TIP3    H2 2539   4.402   3.823   4.072
  859TIP3   OH2 2540   2.632   3.790   0.031
  859TIP3    H1 2541   2.675   3.759   0.111
  859TIP3    H2 2542   2.695   3.772  -0.038
  860TIP3   OH2 2543   0.701   1.674   4.358
  860TIP3    H1 2544   0.758   1.679   4.282
  860TIP3    H2 2545   0.623   1.629   4.326
  861TIP3   OH2 2546   2.189   5.266   1.581
  861TIP3    H1 2547   2.181   5.341   1.640
  861TIP3    H2 2548   2.191   5.305   1.493
  862TIP3   OH2 2549   0.470   5.778   5.280
  862TIP3    H1 2550   0.446   5.834   5.354
  862TIP3    H2 2551   0.406   5.800   5.212
  863TIP3   OH2 2552   5.254   0.094   2.444
  863TIP3    H1 2553   5.298   0.097   2.529
  863TIP3    H2 2554   5.305   0.152   2.388
  864TIP3   OH2 2555   1.775   0.124   0.473
  864TIP3    H1 2556   1.862   0.165   0.475
  864TIP3    H2 2557   1.740   0.139   0.561
  865TIP3   OH2 2558   3.559   3.695   3.361
  865TIP3    H1 2559   3.638   3.748   3.365
  865TIP3    H2 2560   3.539   3.674   3.453
  866TIP3   OH2 2561   2.502   3.198   0.842
  866TIP3    H1 2562   2.593   3.199   0.871
  866TIP3    H2 2563   2.506   3.178   0.749
  867TIP3   OH2 2564   3.579   4.527   0.456
  867TIP3    H1 2565   3.648   4.563   0.401
  867TIP3    H2 2566   3.532   4.604   0.490
  868TIP3   OH2 2567   3.064   1.288   2.051
  868TIP3    H1 2568   3.100   1.200   2.052
  868TIP3    H2 2569   2.969   1.276   2.061
  869TIP3   OH2 2570   6.574   6.629   1.843
  869TIP3    H1 2571   6.577   6.682   1.763
  869TIP3    H2 2572   6.520   6.554   1.820
  870TIP3   OH2 2573   5.387   2.119   0.808
  870TIP3    H1 2574   5.318   2.052   0.808
  870TIP3    H2 2575   5.339   2.202   0.820
  871TIP3   OH2 2576   6.668   2.079   2.925
  871TIP3    H1 2577   6.698   2.017   2.858
  871TIP3    H2 2578   6.593   2.123   2.885
  872TIP3   OH2 2579   1.683   3.991   3.675
  872TIP3    H1 2580   1.739   3.927   3.719
  872TIP3    H2 2581   1.642   4.041   3.746
  873TIP3   OH2 2582   0.002   6.784   0.213
  873TIP3    H1 2583   0.094   6.798   0.233
  873TIP3    H2 2584  -0.022   6.705   0.262
  874TIP3   OH2 2585   1.522   3.700   4.913
  874TIP3    H1 2586   1.428   3.714   4.924
  874TIP3    H2 2587   1.551   3.661   4.996
  875TIP3   OH2 2588   6.609   4.674   4.178
  875TIP3    H1 2589   6.536   4.635   4.128
  875TIP3    H2 2590   6.622   4.760   4.138
  876TIP3   OH2 2591   1.287   3.487   1.263
  876TIP3    H1 2592   1.358   3.430   1.236
  876TIP3    H2 2593   1.279   3.472   1.358
  877TIP3   OH2 2594   3.555   4.298   1.175
  877TIP3    H1 2595   3.648   4.317   1.168
  877TIP3    H2 2596   3.515   4.383   1.197
  878TIP3   OH2 2597   4.584   5.251   2.504
  878TIP3    H1 2598   4.533   5.330   2.524
  878TIP3    H2 2599   4.649   5.280   2.441
  879TIP3   OH2 2600   4.294   3.681   3.257
  879TIP3    H1 2601   4.385   3.653   3.244
  879TIP3    H2 2602   4.257   3.682   3.169
  880TIP3   OH2 2603   0.629   1.224   4.470
  880TIP3    H1 2604   0.534   1.237   4.475
  880TIP3    H2 2605   0.665   1.313   4.469
  881TIP3   OH2 2606   1.474   1.150   3.704
  881TIP3    H1 2607   1.558   1.194   3.717
  881TIP3    H2 2608   1.494   1.077   3.645
  882TIP3   OH2 2609   3.182   2.986   0.592
  882TIP3    H1 2610   3.126   3.060   0.568
  882TIP3    H2 2611   3.142   2.950   0.671
  883TIP3   OH2 2612   3.004   1.830   1.213
  883TIP3    H1 2613   3.099   1.829   1.199
  883TIP3    H2 2614   2.980   1.737   1.219
  884TIP3   OH2 2615   4.099   4.624   4.974
  884TIP3    H1 2616   4.188   4.644   5.004
  884TIP3    H2 2617   4.055   4.591   5.052
  885TIP3   OH2 2618   1.261   5.931   1.327
  885TIP3    H1 2619   1.287   5.968   1.243
  885TIP3    H2 2620   1.210   6.000   1.369
  886TIP3   OH2 2621   5.910   5.109   0.818
  886TIP3    H1 2622   5.891   5.128   0.726
  886TIP3    H2 2623   6.000   5.076   0.817
  887TIP3   OH2 2624   6.758   0.322   1.923
  887TIP3    H1 2625   6.730   0.320   1.831
  887TIP3    H2 2626   6.851   0.301   1.920
  888TIP3   OH2 2627   4.081   3.986   0.772
  888TIP3    H1 2628   4.102   4.075   0.745
  888TIP3    H2 2629   4.034   3.948   0.698
  889TIP3   OH2 2630   0.836   4.335   0.031
  889TIP3    H1 2631   0.891   4.383  -0.031
  889TIP3    H2 2632   0.749   4.374   0.021
  890TIP3   OH2 2633   0.935   3.050   0.585
  890TIP3    H1 2634   0.983   3.007   0.514
  890TIP3    H2 2635   1.002   3.067   0.651
  891TIP3   OH2 2636   0.298   6.412   1.210
  891TIP3    H1 2637   0.333   6.499   1.193
  891TIP3    H2 2638   0.203   6.425   1.216
  892TIP3   OH2 2639   5.742   1.734   5.014
  892TIP3    H1 2640   5.687   1.760   5.087
  892TIP3    H2 2641   5.816   1.795   5.016
  893TIP3   OH2 2642   2.191   4.155   4.206
  893TIP3    H1 2643   2.178   4.183   4.115
  893TIP3    H2 2644   2.128   4.084   4.218
  894TIP3   OH2 2645   0.504   3.652   5.750
  894TIP3    H1 2646   0.449   3.599   5.808
  894TIP3    H2 2647   0.463   3.644   5.664
  895TIP3   OH2 2648   7.199   3.064   1.596
  895TIP3    H1 2649   7.261   3.006   1.641
  895TIP3    H2 2650   7.115   3.020   1.604
  896TIP3   OH2 2651   0.593   2.405   3.591
  896TIP3    H1 2652   0.610   2.338   3.525
  896TIP3    H2 2653   0.565   2.356   3.668
  897TIP3   OH2 2654   2.812   0.082   4.711
  897TIP3    H1 2655   2.744   0.039   4.764
  897TIP3    H2 2656   2.798   0.175   4.727
  898TIP3   OH2 2657   5.775   6.128   4.539
  898TIP3    H1 2658   5.740   6.055   4.488
  898TIP3    H2 2659   5.707   6.195   4.534
  899TIP3   OH2 2660   3.352   3.120   0.849
  899TIP3    H1 2661   3.301   3.096   0.772
  899TIP3    H2 2662   3.373   3.037   0.891
  900TIP3   OH2 2663   5.785   2.075   3.487
  900TIP3    H1 2664   5.830   2.005   3.440
  900TIP3    H2 2665   5.855   2.118   3.538
  901TIP3   OH2 2666   2.134   1.327   5.380
  901TIP3    H1 2667   2.081   1.400   5.411
  901TIP3    H2 2668   2.142   1.341   5.286
  902TIP3   OH2 2669   1.102   2.899   2.441
  902TIP3    H1 2670   1.129   2.982   2.402
  902TIP3    H2 2671   1.184   2.849   2.451
  903TIP3   OH2 2672   6.200   4.705   1.606
  903TIP3    H1 2673   6.140   4.649   1.557
  903TIP3    H2 2674   6.192   4.791   1.566
  904TIP3   OH2 2675   3.607   1.013   5.076
  904TIP3    H1 2676   3.534   1.075   5.071
  904TIP3    H2 2677   3.685   1.069   5.071
  905TIP3   OH2 2678   0.398   5.711   3.636
  905TIP3    H1 2679   0.480   5.672   3.667
  905TIP3    H2 2680   0.330   5.666   3.687
  906TIP3   OH2 2681   2.538   6.364   4.113
  906TIP3    H1 2682   2.601   6.347   4.183
  906TIP3    H2 2683   2.488   6.440   4.143
  907TIP3   OH2 2684   1.301   6.363   4.883
  907TIP3    H1 2685   1.207   6.380   4.891
  907TIP3    H2 2686   1.340   6.449   4.868
  908TIP3   OH2 2687   2.421   4.416   3.022
  908TIP3    H1 2688   2.357   4.482   3.049
  908TIP3    H2 2689   2.368   4.337   3.008
  909TIP3   OH2 2690   0.574   3.108   0.922
  909TIP3    H1 2691   0.500   3.161   0.951
  909TIP3    H2 2692   0.537   3.021   0.907
  910TIP3   OH2 2693   3.385   0.301   1.378
  910TIP3    H1 2694   3.313   0.239   1.383
  910TIP3    H2 2695   3.379   0.352   1.459
  911TIP3   OH2 2696   4.615   3.946   5.080
  911TIP3    H1 2697   4.672   4.018   5.052
  911TIP3    H2 2698   4.631   3.877   5.015
  912TIP3   OH2 2699   0.205   0.442   3.770
  912TIP3    H1 2700   0.230   0.499   3.698
  912TIP3    H2 2701   0.190   0.502   3.844
  913TIP3   OH2 2702   4.022   0.705   1.491
  913TIP3    H1 2703   4.000   0.792   1.457
  913TIP3    H2 2704   3.960   0.646   1.448
  914TIP3   OH2 2705   3.456   5.995   4.437
  914TIP3    H1 2706   3.539   6.038   4.456
  914TIP3    H2 2707   3.474   5.940   4.361
  915TIP3   OH2 2708   3.558   4.905   4.922
  915TIP3    H1 2709   3.524   4.834   4.977
  915TIP3    H2 2710   3.587   4.861   4.842
  916TIP3   OH2 2711   0.416   2.255   4.296
  916TIP3    H1 2712   0.446   2.195   4.364
  916TIP3    H2 2713   0.428   2.206   4.214
  917TIP3   OH2 2714   3.251   1.770   5.781
  917TIP3    H1 2715   3.200   1.693   5.805
  917TIP3    H2 2716   3.303   1.742   5.706
  918TIP3   OH2 2717   4.473   2.879   3.186
  918TIP3    H1 2718   4.539   2.914   3.126
  918TIP3    H2 2719   4.507   2.792   3.210
  919TIP3   OH2 2720   0.767   0.085   3.274
  919TIP3    H1 2721   0.804   0.171   3.257
  919TIP3    H2 2722   0.674   0.101   3.294
  920TIP3   OH2 2723   2.551   1.984   2.122
  920TIP3    H1 2724   2.600   2.066   2.132
  920TIP3    H2 2725   2.510   1.990   2.036
  921TIP3   OH2 2726   1.746   0.330   2.380
  921TIP3    H1 2727   1.727   0.258   2.440
  921TIP3    H2 2728   1.793   0.394   2.433
  922TIP3   OH2 2729   6.128   4.057   3.081
  922TIP3    H1 2730   6.121   4.071   2.987
  922TIP3    H2 2731   6.189   3.984   3.090
  923TIP3   OH2 2732   7.130   2.134   1.597
  923TIP3    H1 2733   7.091   2.221   1.607
  923TIP3    H2 2734   7.222   2.152   1.576
  924TIP3   OH2 2735   3.504   6.518   1.206
  924TIP3    H1 2736   3.431   6.512   1.144
  924TIP3    H2 2737   3.578   6.481   1.158
  925TIP3   OH2 2738   4.118   0.302   4.708
  925TIP3    H1 2739   4.070   0.296   4.626
  925TIP3    H2 2740   4.154   0.215   4.722
  926TIP3   OH2 2741   5.943   1.208   0.438
  926TIP3    H1 2742   6.022   1.177   0.395
  926TIP3    H2 2743   5.918   1.286   0.390
  927TIP3   OH2 2744   0.389   3.653   4.454
  927TIP3    H1 2745   0.313   3.597   4.470
  927TIP3    H2 2746   0.426   3.621   4.373
  928TIP3   OH2 2747   2.849   4.763   5.720
  928TIP3    H1 2748   2.902   4.842   5.707
  928TIP3    H2 2749   2.850   4.720   5.635
  929TIP3   OH2 2750   2.166   5.864   0.986
  929TIP3    H1 2751   2.087   5.911   0.959
  929TIP3    H2 2752   2.168   5.787   0.930
  930TIP3   OH2 2753   3.572   5.258   1.269
  930TIP3    H1 2754   3.609   5.318   1.205
  930TIP3    H2 2755   3.647   5.230   1.322
  931TIP3   OH2 2756   3.491   1.929   1.167
  931TIP3    H1 2757   3.466   2.001   1.225
  931TIP3    H2 2758   3.570   1.959   1.123
  932TIP3   OH2 2759   4.133   0.398   3.238
  932TIP3    H1 2760   4.053   0.438   3.271
  932TIP3    H2 2761   4.107   0.358   3.155
  933TIP3   OH2 2762   3.208   1.286   3.670
  933TIP3    H1 2763   3.242   1.318   3.753
  933TIP3    H2 2764   3.225   1.192   3.672
  934TIP3   OH2 2765   3.308   6.194   2.758
  934TIP3    H1 2766   3.274   6.246   2.830
  934TIP3    H2 2767   3.380   6.144   2.796
  935TIP3   OH2 2768   5.574   5.194   5.945
  935TIP3    H1 2769   5.598   5.155   5.861
  935TIP3    H2 2770   5.479   5.204   5.940
  936TIP3   OH2 2771   3.079   5.112   4.052
  936TIP3    H1 2772   3.026   5.039   4.084
  936TIP3    H2 2773   3.125   5.077   3.975
  937TIP3   OH2 2774   0.944   4.449   5.695
  937TIP3    H1 2775   0.965   4.502   5.619
  937TIP3    H2 2776   0.851   4.428   5.684
  938TIP3   OH2 2777   0.067   1.399   2.665
  938TIP3    H1 2778   0.121   1.467   2.704
  938TIP3    H2 2779   0.130   1.332   2.635
  939TIP3   OH2 2780   1.455   6.113   5.691
  939TIP3    H1 2781   1.503   6.190   5.662
  939TIP3    H2 2782   1.511   6.039   5.664
  940TIP3   OH2 2783   6.438   6.401   3.515
  940TIP3    H1 2784   6.447   6.487   3.474
  940TIP3    H2 2785   6.512   6.395   3.575
  941TIP3   OH2 2786   0.897   5.419   5.092
  941TIP3    H1 2787   0.912   5.479   5.165
  941TIP3    H2 2788   0.976   5.365   5.089
  942TIP3   OH2 2789   2.064   4.853   5.049
  942TIP3    H1 2790   2.033   4.829   5.136
  942TIP3    H2 2791   2.156   4.877   5.062
  943TIP3   OH2 2792   6.898   0.151   0.323
  943TIP3    H1 2793   6.885   0.218   0.390
  943TIP3    H2 2794   6.819   0.097   0.327
  944TIP3   OH2 2795   3.057   1.137   4.971
  944TIP3    H1 2796   2.987   1.076   4.947
  944TIP3    H2 2797   3.033   1.220   4.930
  945TIP3   OH2 2798   0.978   3.378   3.022
  945TIP3    H1 2799   1.061   3.357   2.978
  945TIP3    H2 2800   0.934   3.438   2.962
  946TIP3   OH2 2801   6.389   2.789   5.349
  946TIP3    H1 2802   6.416   2.779   5.440
  946TIP3    H2 2803   6.293   2.793   5.353
  947TIP3   OH2 2804   6.728   5.741   2.506
  947TIP3    H1 2805   6.768   5.675   2.563
  947TIP3    H2 2806   6.794   5.809   2.498
  948TIP3   OH2 2807   6.454   0.388   1.569
  948TIP3    H1 2808   6.400   0.466   1.585
  948TIP3    H2 2809   6.490   0.402   1.481
  949TIP3   OH2 2810   3.427   2.914   5.459
  949TIP3    H1 2811   3.341   2.915   5.418
  949TIP3    H2 2812   3.435   2.826   5.496
  950TIP3   OH2 2813   6.851   5.853   5.840
  950TIP3    H1 2814   6.884   5.936   5.877
  950TIP3    H2 2815   6.796   5.880   5.767
  951TIP3   OH2 2816   5.132   1.140   3.863
  951TIP3    H1 2817   5.118   1.136   3.768
  951TIP3    H2 2818   5.047   1.118   3.901
  952TIP3   OH2 2819   1.847   5.209   0.824
  952TIP3    H1 2820   1.819   5.133   0.876
  952TIP3    H2 2821   1.859   5.278   0.888
  953TIP3   OH2 2822   6.070   1.529   2.264
  953TIP3    H1 2823   6.154   1.574   2.264
  953TIP3    H2 2824   6.032   1.549   2.350
  954TIP3   OH2 2825   3.505   2.526   2.468
  954TIP3    H1 2826   3.513   2.558   2.558
  954TIP3    H2 2827   3.583   2.470   2.456
  955TIP3   OH2 2828   4.194   0.467   4.081
  955TIP3    H1 2829   4.278   0.441   4.119
  955TIP3    H2 2830   4.135   0.473   4.156
  956TIP3   OH2 2831   4.324   5.348   3.282
  956TIP3    H1 2832   4.234   5.380   3.288
  956TIP3    H2 2833   4.316   5.257   3.253
  957TIP3   OH2 2834   6.799   4.153   1.560
  957TIP3    H1 2835   6.710   4.135   1.530
  957TIP3    H2 2836   6.855   4.128   1.487
  958TIP3   OH2 2837   1.780   5.556   3.216
  958TIP3    H1 2838   1.845   5.612   3.258
  958TIP3    H2 2839   1.723   5.617   3.169
  959TIP3   OH2 2840   0.138   5.424   2.007
  959TIP3    H1 2841   0.213   5.483   2.003
  959TIP3    H2 2842   0.061   5.482   2.002
  960TIP3   OH2 2843   0.282   1.001   2.058
  960TIP3    H1 2844   0.263   0.941   2.130
  960TIP3    H2 2845   0.373   1.028   2.072
  961TIP3   OH2 2846   1.883   2.106   2.010
  961TIP3    H1 2847   1.935   2.122   1.932
  961TIP3    H2 2848   1.824   2.181   2.016
  962TIP3   OH2 2849   2.824   5.849   5.762
  962TIP3    H1 2850   2.919   5.838   5.753
  962TIP3    H2 2851   2.795   5.772   5.811
  963TIP3   OH2 2852   0.097   0.515   1.668
  963TIP3    H1 2853   0.053   0.573   1.730
  963TIP3    H2 2854   0.154   0.573   1.617
  964TIP3   OH2 2855   0.144   3.767   4.700
  964TIP3    H1 2856   0.163   3.812   4.782
  964TIP3    H2 2857   0.206   3.804   4.637
  965TIP3   OH2 2858   4.884   1.016   4.874
  965TIP3    H1 2859   4.794   1.044   4.856
  965TIP3    H2 2860   4.934   1.098   4.879
  966TIP3   OH2 2861   0.304   6.539   3.441
  966TIP3    H1 2862   0.322   6.450   3.412
  966TIP3    H2 2863   0.261   6.581   3.366
  967TIP3   OH2 2864   5.412   2.092   4.675
  967TIP3    H1 2865   5.451   2.056   4.754
  967TIP3    H2 2866   5.468   2.166   4.651
  968TIP3   OH2 2867   5.737   5.797   0.820
  968TIP3    H1 2868   5.817   5.744   0.818
  968TIP3    H2 2869   5.767   5.885   0.798
  969TIP3   OH2 2870   6.084   6.434   4.165
  969TIP3    H1 2871   6.118   6.441   4.254
  969TIP3    H2 2872   5.991   6.416   4.176
  970TIP3   OH2 2873   5.656   0.080   2.982
  970TIP3    H1 2874   5.751   0.068   2.980
  970TIP3    H2 2875   5.621   0.010   2.928
  971TIP3   OH2 2876   4.987   2.121   1.260
  971TIP3    H1 2877   5.024   2.086   1.179
  971TIP3    H2 2878   5.048   2.190   1.286
  972TIP3   OH2 2879   0.246   3.896   1.139
  972TIP3    H1 2880   0.294   3.884   1.058
  972TIP3    H2 2881   0.173   3.835   1.133
  973TIP3   OH2 2882   3.169   6.171   1.277
  973TIP3    H1 2883   3.183   6.202   1.367
  973TIP3    H2 2884   3.189   6.077   1.281
  974TIP3   OH2 2885   5.836   3.920   4.548
  974TIP3    H1 2886   5.761   3.860   4.549
  974TIP3    H2 2887   5.804   3.998   4.594
  975TIP3   OH2 2888   5.903   5.202   3.035
  975TIP3    H1 2889   5.901   5.293   3.008
  975TIP3    H2 2890   5.811   5.177   3.044
  976TIP3   OH2 2891   1.388   0.005   4.545
  976TIP3    H1 2892   1.446  -0.058   4.502
  976TIP3    H2 2893   1.419   0.009   4.635
  977TIP3   OH2 2894   0.229   0.475   3.036
  977TIP3    H1 2895   0.305   0.480   2.978
  977TIP3    H2 2896   0.177   0.552   3.013
  978TIP3   OH2 2897   3.556   0.369   3.284
  978TIP3    H1 2898   3.526   0.402   3.199
  978TIP3    H2 2899   3.507   0.421   3.348
  979TIP3   OH2 2900   7.188   2.714   4.315
  979TIP3    H1 2901   7.115   2.764   4.277
  979TIP3    H2 2902   7.174   2.719   4.409
  980TIP3   OH2 2903   2.829   4.531   3.468
  980TIP3    H1 2904   2.810   4.485   3.550
  980TIP3    H2 2905   2.743   4.557   3.434
  981TIP3   OH2 2906   5.322   1.505   4.560
  981TIP3    H1 2907   5.314   1.450   4.482
  981TIP3    H2 2908   5.316   1.595   4.526
  982TIP3   OH2 2909   5.956   4.968   4.930
  982TIP3    H1 2910   5.925   5.012   4.851
  982TIP3    H2 2911   5.877   4.955   4.983
  983TIP3   OH2 2912   0.409   5.482   0.328
  983TIP3    H1 2913   0.360   5.400   0.331
  983TIP3    H2 2914   0.343   5.550   0.343
  984TIP3   OH2 2915   7.149   3.089   4.475
  984TIP3    H1 2916   7.240   3.079   4.445
  984TIP3    H2 2917   7.154   3.078   4.570
  985TIP3   OH2 2918   4.401   3.067   1.744
  985TIP3    H1 2919   4.432   3.108   1.825
  985TIP3    H2 2920   4.382   3.141   1.686
  986TIP3   OH2 2921   2.919   1.426   4.979
  986TIP3    H1 2922   2.896   1.501   5.034
  986TIP3    H2 2923   3.009   1.443   4.952
  987TIP3   OH2 2924   0.943   6.516   5.655
  987TIP3    H1 2925   0.945   6.462   5.576
  987TIP3    H2 2926   0.904   6.599   5.626
  988TIP3   OH2 2927   2.662   0.174   5.342
  988TIP3    H1 2928   2.717   0.159   5.418
  988TIP3    H2 2929   2.709   0.133   5.269
  989TIP3   OH2 2930   3.815   6.427   3.710
  989TIP3    H1 2931   3.859   6.439   3.626
  989TIP3    H2 2932   3.760   6.504   3.719
  990TIP3   OH2 2933   6.958   1.964   0.255
  990TIP3    H1 2934   7.049   1.937   0.242
  990TIP3    H2 2935   6.926   1.981   0.166
  991TIP3   OH2 2936   2.230   5.169   2.833
  991TIP3    H1 2937   2.311   5.138   2.791
  991TIP3    H2 2938   2.227   5.123   2.917
  992TIP3   OH2 2939   5.017   1.152   5.152
  992TIP3    H1 2940   4.924   1.165   5.132
  992TIP3    H2 2941   5.027   1.057   5.159
  993TIP3   OH2 2942   0.107   2.529   5.258
  993TIP3    H1 2943   0.116   2.591   5.185
  993TIP3    H2 2944   0.197   2.509   5.283
  994TIP3   OH2 2945   4.891   1.277   3.196
  994TIP3    H1 2946   4.966   1.220   3.178
  994TIP3    H2 2947   4.878   1.271   3.291
  995TIP3   OH2 2948   6.190   5.339   5.777
  995TIP3    H1 2949   6.225   5.259   5.737
  995TIP3    H2 2950   6.268   5.383   5.812
  996TIP3   OH2 2951   0.725   1.520   5.475
  996TIP3    H1 2952   0.630   1.517   5.490
  996TIP3    H2 2953   0.735   1.567   5.393
  997TIP3   OH2 2954   1.597   6.015   3.892
  997TIP3    H1 2955   1.654   5.955   3.844
  997TIP3    H2 2956   1.557   5.961   3.960
  998TIP3   OH2 2957   5.404   4.271   4.872
  998TIP3    H1 2958   5.440   4.187   4.899
  998TIP3    H2 2959   5.367   4.256   4.785
  999TIP3   OH2 2960   1.700   4.436   2.134
  999TIP3    H1 2961   1.631   4.370   2.144
  999TIP3    H2 2962   1.757   4.401   2.065
 1000TIP3   OH2 2963   6.352   2.543   3.437
 1000TIP3    H1 2964   6.441   2.509   3.424
 1000TIP3    H2 2965   6.361   2.638   3.425
 1001TIP3   OH2 2966   1.902   0.905   2.628
 1001TIP3    H1 2967   1.943   0.991   2.632
 1001TIP3    H2 2968   1.826   0.912   2.685
 1002TIP3   OH2 2969   5.082   6.733   4.404
 1002TIP3    H1 2970   5.092   6.828   4.390
 1002TIP3    H2 2971   5.016   6.726   4.473
 1003TIP3   OH2 2972   3.714   1.988   1.685
 1003TIP3    H1 2973   3.755   2.067   1.650
 1003TIP3    H2 2974   3.666   1.950   1.611
 1004TIP3   OH2 2975   2.925   5.335   3.911
 1004TIP3    H1 2976   3.009   5.361   3.873
 1004TIP3    H2 2977   2.948   5.267   3.975
 1005TIP3   OH2 2978   4.728   6.035   0.305
 1005TIP3    H1 2979   4.795   6.096   0.335
 1005TIP3    H2 2980   4.679   6.083   0.239
 1006TIP3   OH2 2981   1.564   2.229   5.797
 1006TIP3    H1 2982   1.498   2.295   5.777
 1006TIP3    H2 2983   1.520   2.145   5.777
 1007TIP3   OH2 2984   2.520   0.946   0.399
 1007TIP3    H1 2985   2.576   0.933   0.475
 1007TIP3    H2 2986   2.577   0.986   0.334
 1008TIP3   OH2 2987   4.811   6.162   2.426
 1008TIP3    H1 2988   4.752   6.237   2.440
 1008TIP3    H2 2989   4.765   6.107   2.363
 1009TIP3   OH2 2990   4.861   6.688   4.608
 1009TIP3    H1 2991   4.796   6.711   4.674
 1009TIP3    H2 2992   4.889   6.600   4.631
 1010TIP3   OH2 2993   0.188   0.371   2.673
 1010TIP3    H1 2994   0.277   0.337   2.664
 1010TIP3    H2 2995   0.144   0.307   2.729
 1011TIP3   OH2 2996   1.327   2.885   3.086
 1011TIP3    H1 2997   1.393   2.923   3.144
 1011TIP3    H2 2998   1.281   2.822   3.141
 1012TIP3   OH2 2999   4.642   3.455   4.815
 1012TIP3    H1 3000   4.551   3.433   4.833
 1012TIP3    H2 3001   4.664   3.520   4.882
 1013TIP3   OH2 3002   5.137   0.622   0.569
 1013TIP3    H1 3003   5.083   0.693   0.534
 1013TIP3    H2 3004   5.225   0.640   0.538
 1014TIP3   OH2 3005   7.138   2.386   3.742
 1014TIP3    H1 3006   7.214   2.408   3.687
 1014TIP3    H2 3007   7.093   2.317   3.694
 1015TIP3   OH2 3008   5.940   2.639   0.864
 1015TIP3    H1 3009   5.972   2.681   0.785
 1015TIP3    H2 3010   5.995   2.674   0.934
 1016TIP3   OH2 3011   4.203   3.049   0.845
 1016TIP3    H1 3012   4.266   3.101   0.795
 1016TIP3    H2 3013   4.217   3.076   0.936
 1017TIP3   OH2 3014   6.685   2.427   1.287
 1017TIP3    H1 3015   6.629   2.351   1.272
 1017TIP3    H2 3016   6.750   2.423   1.216
 1018TIP3   OH2 3017   6.802   4.704   5.240
 1018TIP3    H1 3018   6.884   4.751   5.232
 1018TIP3    H2 3019   6.807   4.635   5.173
 1019TIP3   OH2 3020   4.848   2.358   2.754
 1019TIP3    H1 3021   4.927   2.382   2.801
 1019TIP3    H2 3022   4.779   2.357   2.820
 1020TIP3   OH2 3023   1.573   4.629   1.500
 1020TIP3    H1 3024   1.479   4.620   1.488
 1020TIP3    H2 3025   1.591   4.587   1.584
 1021TIP3   OH2 3026   4.587   4.853   2.294
 1021TIP3    H1 3027   4.528   4.877   2.222
 1021TIP3    H2 3028   4.667   4.902   2.277
 1022TIP3   OH2 3029   4.978   6.557   5.548
 1022TIP3    H1 3030   4.886   6.569   5.571
 1022TIP3    H2 3031   4.976   6.494   5.476
 1023TIP3   OH2 3032   3.862   6.018   1.584
 1023TIP3    H1 3033   3.778   5.995   1.544
 1023TIP3    H2 3034   3.904   5.934   1.603
 1024TIP3   OH2 3035   3.625   4.235   2.181
 1024TIP3    H1 3036   3.597   4.229   2.273
 1024TIP3    H2 3037   3.566   4.175   2.135
 1025TIP3   OH2 3038   2.526   1.691   0.250
 1025TIP3    H1 3039   2.604   1.732   0.212
 1025TIP3    H2 3040   2.556   1.655   0.333
 1026TIP3   OH2 3041   2.625   3.673   0.846
 1026TIP3    H1 3042   2.702   3.619   0.866
 1026TIP3    H2 3043   2.636   3.698   0.754
 1027TIP3   OH2 3044   3.597   0.046   2.582
 1027TIP3    H1 3045   3.561  -0.042   2.568
 1027TIP3    H2 3046   3.519   0.101   2.595
 1028TIP3   OH2 3047   6.460   3.880   0.610
 1028TIP3    H1 3048   6.537   3.824   0.610
 1028TIP3    H2 3049   6.387   3.819   0.621
 1029TIP3   OH2 3050   2.322   4.818   0.254
 1029TIP3    H1 3051   2.361   4.771   0.328
 1029TIP3    H2 3052   2.381   4.892   0.238
 1030TIP3   OH2 3053   6.566   3.338   2.042
 1030TIP3    H1 3054   6.552   3.386   2.123
 1030TIP3    H2 3055   6.481   3.298   2.023
 1031TIP3   OH2 3056   1.746  -0.011   1.616
 1031TIP3    H1 3057   1.802   0.045   1.670
 1031TIP3    H2 3058   1.704   0.049   1.555
 1032TIP3   OH2 3059   1.777   4.693   2.063
 1032TIP3    H1 3060   1.729   4.624   2.109
 1032TIP3    H2 3061   1.734   4.774   2.089
 1033TIP3   OH2 3062   3.265   0.079   5.085
 1033TIP3    H1 3063   3.354   0.115   5.083
 1033TIP3    H2 3064   3.215   0.136   5.027
 1034TIP3   OH2 3065   4.879   2.759   3.184
 1034TIP3    H1 3066   4.965   2.735   3.219
 1034TIP3    H2 3067   4.891   2.849   3.152
 1035TIP3   OH2 3068   3.506   0.088   5.544
 1035TIP3    H1 3069   3.575   0.024   5.560
 1035TIP3    H2 3070   3.426   0.036   5.539
 1036TIP3   OH2 3071   0.653   0.064   2.056
 1036TIP3    H1 3072   0.670   0.147   2.011
 1036TIP3    H2 3073   0.677   0.081   2.147
 1037TIP3   OH2 3074   4.495   5.841   4.681
 1037TIP3    H1 3075   4.521   5.910   4.741
 1037TIP3    H2 3076   4.526   5.870   4.595
 1038TIP3   OH2 3077   2.064   5.650   0.419
 1038TIP3    H1 3078   2.091   5.706   0.346
 1038TIP3    H2 3079   2.143   5.601   0.441
 1039TIP3   OH2 3080   3.749   3.751   3.940
 1039TIP3    H1 3081   3.765   3.662   3.910
 1039TIP3    H2 3082   3.662   3.772   3.906
 1040TIP3   OH2 3083   0.016   4.939   3.353
 1040TIP3    H1 3084  -0.016   4.903   3.435
 1040TIP3    H2 3085  -0.059   4.936   3.294
 1041TIP3   OH2 3086   5.296   3.858   0.399
 1041TIP3    H1 3087   5.249   3.927   0.353
 1041TIP3    H2 3088   5.227   3.800   0.433
 1042TIP3   OH2 3089   2.510   5.134   1.302
 1042TIP3    H1 3090   2.476   5.090   1.380
 1042TIP3    H2 3091   2.553   5.213   1.335
 1043TIP3   OH2 3092   6.090   6.800   2.954
 1043TIP3    H1 3093   6.071   6.783   2.862
 1043TIP3    H2 3094   6.082   6.714   2.996
 1044TIP3   OH2 3095   4.373   3.986   4.765
 1044TIP3    H1 3096   4.327   3.960   4.685
 1044TIP3    H2 3097   4.343   3.923   4.831
 1045TIP3   OH2 3098   1.744   6.084   4.518
 1045TIP3    H1 3099   1.753   6.154   4.582
 1045TIP3    H2 3100   1.762   6.125   4.434
 1046TIP3   OH2 3101   1.339   0.933   2.699
 1046TIP3    H1 3102   1.347   0.966   2.609
 1046TIP3    H2 3103   1.393   0.855   2.701
 1047TIP3   OH2 3104   4.686   3.662   2.785
 1047TIP3    H1 3105   4.769   3.626   2.815
 1047TIP3    H2 3106   4.708   3.709   2.705
 1048TIP3   OH2 3107   3.584   1.390   3.969
 1048TIP3    H1 3108   3.575   1.406   4.063
 1048TIP3    H2 3109   3.580   1.295   3.961
 1049TIP3   OH2 3110   5.950   6.810   2.175
 1049TIP3    H1 3111   5.887   6.740   2.183
 1049TIP3    H2 3112   6.030   6.776   2.215
 1050TIP3   OH2 3113   1.627   1.895   3.071
 1050TIP3    H1 3114   1.583   1.936   2.997
 1050TIP3    H2 3115   1.592   1.940   3.148
 1051TIP3   OH2 3116   1.366   2.412   5.686
 1051TIP3    H1 3117   1.423   2.414   5.609
 1051TIP3    H2 3118   1.277   2.407   5.650
 1052TIP3   OH2 3119   6.945   2.241   3.571
 1052TIP3    H1 3120   6.920   2.333   3.574
 1052TIP3    H2 3121   6.868   2.196   3.538
 1053TIP3   OH2 3122   1.071   4.307   0.693
 1053TIP3    H1 3123   1.116   4.391   0.683
 1053TIP3    H2 3124   1.116   4.248   0.632
 1054TIP3   OH2 3125   6.739   5.460   3.592
 1054TIP3    H1 3126   6.685   5.435   3.667
 1054TIP3    H2 3127   6.784   5.540   3.621
 1055TIP3   OH2 3128   1.750   4.367   4.391
 1055TIP3    H1 3129   1.726   4.334   4.304
 1055TIP3    H2 3130   1.844   4.349   4.398
 1056TIP3   OH2 3131   0.442   2.247   2.931
 1056TIP3    H1 3132   0.392   2.258   2.850
 1056TIP3    H2 3133   0.523   2.295   2.916
 1057TIP3   OH2 3134   1.804   1.269   4.100
 1057TIP3    H1 3135   1.889   1.225   4.104
 1057TIP3    H2 3136   1.779   1.281   4.191
 1058TIP3   OH2 3137   1.105   5.218   1.491
 1058TIP3    H1 3138   1.102   5.313   1.495
 1058TIP3    H2 3139   1.198   5.197   1.482
 1059TIP3   OH2 3140   1.356   0.523   0.130
 1059TIP3    H1 3141   1.311   0.607   0.143
 1059TIP3    H2 3142   1.350   0.479   0.215
 1060TIP3   OH2 3143   3.017   4.417   0.328
 1060TIP3    H1 3144   2.950   4.418   0.396
 1060TIP3    H2 3145   2.986   4.479   0.262
 1061TIP3   OH2 3146   5.224   3.480   0.122
 1061TIP3    H1 3147   5.318   3.496   0.134
 1061TIP3    H2 3148   5.213   3.387   0.142
 1062TIP3   OH2 3149   2.884   0.650   3.390
 1062TIP3    H1 3150   2.831   0.602   3.326
 1062TIP3    H2 3151   2.938   0.582   3.432
 1063TIP3   OH2 3152   5.705   1.896   2.490
 1063TIP3    H1 3153   5.680   1.975   2.442
 1063TIP3    H2 3154   5.622   1.849   2.504
 1064TIP3   OH2 3155   1.603   6.213   0.789
 1064TIP3    H1 3156   1.595   6.207   0.885
 1064TIP3    H2 3157   1.650   6.134   0.764
 1065TIP3   OH2 3158   1.316   6.615   3.828
 1065TIP3    H1 3159   1.225   6.588   3.835
 1065TIP3    H2 3160   1.332   6.668   3.906
 1066TIP3   OH2 3161   0.605   4.526   3.152
 1066TIP3    H1 3162   0.576   4.555   3.066
 1066TIP3    H2 3163   0.610   4.605   3.205
 1067TIP3   OH2 3164   1.176   1.670   5.295
 1067TIP3    H1 3165   1.165   1.721   5.375
 1067TIP3    H2 3166   1.226   1.593   5.323
 1068TIP3   OH2 3167   0.014   0.521   2.200
 1068TIP3    H1 3168   0.069   0.508   2.278
 1068TIP3    H2 3169  -0.030   0.605   2.215
 1069TIP3   OH2 3170   0.247   4.676   2.072
 1069TIP3    H1 3171   0.332   4.632   2.062
 1069TIP3    H2 3172   0.197   4.618   2.129
 1070TIP3   OH2 3173   1.805   6.485   5.508
 1070TIP3    H1 3174   1.836   6.404   5.549
 1070TIP3    H2 3175   1.724   6.460   5.464
 1071TIP3   OH2 3176   5.045   5.498   4.893
 1071TIP3    H1 3177   4.984   5.507   4.966
 1071TIP3    H2 3178   5.060   5.404   4.886
 1072TIP3   OH2 3179   0.647   4.584   4.800
 1072TIP3    H1 3180   0.570   4.527   4.803
 1072TIP3    H2 3181   0.653   4.621   4.888
 1073TIP3   OH2 3182   3.800   2.558   1.451
 1073TIP3    H1 3183   3.863   2.487   1.463
 1073TIP3    H2 3184   3.844   2.635   1.488
 1074TIP3   OH2 3185   1.039   0.525   1.775
 1074TIP3    H1 3186   1.050   0.619   1.764
 1074TIP3    H2 3187   1.122   0.496   1.814
 1075TIP3   OH2 3188   7.171   4.053   2.635
 1075TIP3    H1 3189   7.142   3.962   2.619
 1075TIP3    H2 3190   7.258   4.044   2.673
 1076TIP3   OH2 3191   2.171   0.345   2.067
 1076TIP3    H1 3192   2.183   0.426   2.117
 1076TIP3    H2 3193   2.088   0.357   2.023
 1077TIP3   OH2 3194   5.941   6.220   2.000
 1077TIP3    H1 3195   5.875   6.287   1.979
 1077TIP3    H2 3196   6.003   6.265   2.057
 1078TIP3   OH2 3197   3.942   1.866   1.862
 1078TIP3    H1 3198   3.964   1.825   1.779
 1078TIP3    H2 3199   3.847   1.877   1.859
 1079TIP3   OH2 3200   6.499   1.368   4.566
 1079TIP3    H1 3201   6.498   1.372   4.470
 1079TIP3    H2 3202   6.524   1.278   4.586
 1080TIP3   OH2 3203   7.002   1.704   3.704
 1080TIP3    H1 3204   6.953   1.622   3.697
 1080TIP3    H2 3205   6.950   1.757   3.765
 1081TIP3   OH2 3206   5.346   6.627   4.847
 1081TIP3    H1 3207   5.396   6.597   4.923
 1081TIP3    H2 3208   5.266   6.663   4.884
 1082TIP3   OH2 3209   1.354   5.088   2.550
 1082TIP3    H1 3210   1.380   5.150   2.617
 1082TIP3    H2 3211   1.259   5.101   2.541
 1083TIP3   OH2 3212   2.575   3.160   1.865
 1083TIP3    H1 3213   2.640   3.192   1.927
 1083TIP3    H2 3214   2.592   3.066   1.859
 1084TIP3   OH2 3215   6.974   0.236   3.371
 1084TIP3    H1 3216   7.057   0.212   3.410
 1084TIP3    H2 3217   6.966   0.178   3.295
 1085TIP3   OH2 3218   3.019   4.659   3.865
 1085TIP3    H1 3219   2.964   4.622   3.796
 1085TIP3    H2 3220   3.038   4.585   3.923
 1086TIP3   OH2 3221   4.509   5.996   2.137
 1086TIP3    H1 3222   4.414   6.003   2.125
 1086TIP3    H2 3223   4.542   6.085   2.123
 1087TIP3   OH2 3224   0.096   3.251   5.250
 1087TIP3    H1 3225   0.051   3.174   5.215
 1087TIP3    H2 3226   0.184   3.219   5.271
 1088TIP3   OH2 3227   2.286   6.477   0.215
 1088TIP3    H1 3228   2.291   6.573   0.216
 1088TIP3    H2 3229   2.201   6.457   0.255
 1089TIP3   OH2 3230   0.847   1.381   2.858
 1089TIP3    H1 3231   0.901   1.321   2.910
 1089TIP3    H2 3232   0.908   1.449   2.830
 1090TIP3   OH2 3233   4.032   1.099   2.445
 1090TIP3    H1 3234   4.106   1.058   2.488
 1090TIP3    H2 3235   4.031   1.188   2.478
 1091TIP3   OH2 3236   0.419  -0.010   1.060
 1091TIP3    H1 3237   0.408  -0.003   0.965
 1091TIP3    H2 3238   0.494   0.047   1.080
 1092TIP3   OH2 3239   6.312   2.527   2.463
 1092TIP3    H1 3240   6.374   2.523   2.535
 1092TIP3    H2 3241   6.367   2.540   2.385
 1093TIP3   OH2 3242   1.784   2.113   2.751
 1093TIP3    H1 3243   1.691   2.095   2.765
 1093TIP3    H2 3244   1.821   2.028   2.726
 1094TIP3   OH2 3245   3.030   6.790   3.677
 1094TIP3    H1 3246   2.956   6.809   3.734
 1094TIP3    H2 3247   2.991   6.770   3.592
 1095TIP3   OH2 3248   4.069   4.759   0.469
 1095TIP3    H1 3249   4.019   4.677   0.469
 1095TIP3    H2 3250   4.071   4.786   0.560
 1096TIP3   OH2 3251   6.794   5.457   4.759
 1096TIP3    H1 3252   6.839   5.468   4.843
 1096TIP3    H2 3253   6.804   5.364   4.739
 1097TIP3   OH2 3254   5.319   1.971   0.498
 1097TIP3    H1 3255   5.254   2.014   0.442
 1097TIP3    H2 3256   5.303   2.007   0.585
 1098TIP3   OH2 3257   2.262   0.783   2.274
 1098TIP3    H1 3258   2.356   0.786   2.291
 1098TIP3    H2 3259   2.243   0.863   2.226
 1099TIP3   OH2 3260   4.935   1.167   5.846
 1099TIP3    H1 3261   4.844   1.155   5.821
 1099TIP3    H2 3262   4.980   1.185   5.763
 1100TIP3   OH2 3263   6.765   0.220   4.117
 1100TIP3    H1 3264   6.715   0.231   4.198
 1100TIP3    H2 3265   6.741   0.133   4.086
 1101TIP3   OH2 3266   1.890   4.389   0.203
 1101TIP3    H1 3267   1.966   4.447   0.191
 1101TIP3    H2 3268   1.903   4.319   0.140
 1102TIP3   OH2 3269   2.635   1.141   2.395
 1102TIP3    H1 3270   2.642   1.207   2.464
 1102TIP3    H2 3271   2.541   1.129   2.382
 1103TIP3   OH2 3272   3.348   1.084   4.991
 1103TIP3    H1 3273   3.349   0.995   5.025
 1103TIP3    H2 3274   3.256   1.107   4.986
 1104TIP3   OH2 3275   0.070   3.274   3.412
 1104TIP3    H1 3276  -0.023   3.267   3.392
 1104TIP3    H2 3277   0.076   3.347   3.473
 1105TIP3   OH2 3278   0.306   4.353   4.532
 1105TIP3    H1 3279   0.252   4.276   4.547
 1105TIP3    H2 3280   0.395   4.320   4.523
 1106TIP3   OH2 3281   4.969   4.066   0.064
 1106TIP3    H1 3282   4.950   4.021  -0.018
 1106TIP3    H2 3283   5.065   4.072   0.066
 1107TIP3   OH2 3284   5.065   4.876   5.128
 1107TIP3    H1 3285   5.000   4.890   5.197
 1107TIP3    H2 3286   5.027   4.919   5.051
 1108TIP3   OH2 3287   4.158   5.390   3.034
 1108TIP3    H1 3288   4.082   5.404   2.976
 1108TIP3    H2 3289   4.169   5.295   3.036
 1109TIP3   OH2 3290   4.663   3.057   1.407
 1109TIP3    H1 3291   4.711   2.979   1.436
 1109TIP3    H2 3292   4.729   3.125   1.398
 1110TIP3   OH2 3293   4.032   5.546   4.563
 1110TIP3    H1 3294   3.967   5.564   4.630
 1110TIP3    H2 3295   3.982   5.538   4.481
 1111TIP3   OH2 3296   0.906   5.937   0.597
 1111TIP3    H1 3297   0.892   6.008   0.535
 1111TIP3    H2 3298   0.825   5.887   0.595
 1112TIP3   OH2 3299   0.716   4.928   4.253
 1112TIP3    H1 3300   0.812   4.923   4.258
 1112TIP3    H2 3301   0.687   4.837   4.259
 1113TIP3   OH2 3302   3.419   1.369   2.362
 1113TIP3    H1 3303   3.499   1.389   2.314
 1113TIP3    H2 3304   3.443   1.381   2.454
 1114TIP3   OH2 3305   1.708   5.206   3.933
 1114TIP3    H1 3306   1.718   5.124   3.980
 1114TIP3    H2 3307   1.634   5.250   3.976
 1115TIP3   OH2 3308   1.418   4.613   4.966
 1115TIP3    H1 3309   1.381   4.550   4.904
 1115TIP3    H2 3310   1.473   4.561   5.023
 1116TIP3   OH2 3311   7.206   0.819   5.727
 1116TIP3    H1 3312   7.247   0.776   5.652
 1116TIP3    H2 3313   7.176   0.746   5.782
 1117TIP3   OH2 3314   5.588   5.697   4.980
 1117TIP3    H1 3315   5.569   5.764   4.914
 1117TIP3    H2 3316   5.547   5.730   5.060
 1118TIP3   OH2 3317   3.747   2.558   2.949
 1118TIP3    H1 3318   3.783   2.470   2.954
 1118TIP3    H2 3319   3.754   2.592   3.039
 1119TIP3   OH2 3320   4.000   5.249   1.472
 1119TIP3    H1 3321   4.092   5.251   1.445
 1119TIP3    H2 3322   3.952   5.230   1.392
 1120TIP3   OH2 3323   3.385   0.652   3.872
 1120TIP3    H1 3324   3.318   0.584   3.875
 1120TIP3    H2 3325   3.392   0.683   3.962
 1121TIP3   OH2 3326   0.438   6.665   4.400
 1121TIP3    H1 3327   0.514   6.720   4.383
 1121TIP3    H2 3328   0.370   6.702   4.343
 1122TIP3   OH2 3329   6.916   4.433   5.321
 1122TIP3    H1 3330   6.986   4.431   5.256
 1122TIP3    H2 3331   6.837   4.413   5.271
 1123TIP3   OH2 3332   2.333   0.583   0.703
 1123TIP3    H1 3333   2.314   0.637   0.626
 1123TIP3    H2 3334   2.260   0.521   0.706
 1124TIP3   OH2 3335   0.723   2.151   0.646
 1124TIP3    H1 3336   0.683   2.127   0.563
 1124TIP3    H2 3337   0.770   2.231   0.628
 1125TIP3   OH2 3338   6.675   2.608   4.595
 1125TIP3    H1 3339   6.766   2.618   4.568
 1125TIP3    H2 3340   6.669   2.654   4.679
 1126TIP3   OH2 3341   6.839   5.984   0.909
 1126TIP3    H1 3342   6.831   5.980   0.814
 1126TIP3    H2 3343   6.912   6.044   0.925
 1127TIP3   OH2 3344   6.418   1.259   2.141
 1127TIP3    H1 3345   6.382   1.342   2.109
 1127TIP3    H2 3346   6.439   1.277   2.233
 1128TIP3   OH2 3347   0.568   0.308   4.278
 1128TIP3    H1 3348   0.584   0.360   4.356
 1128TIP3    H2 3349   0.630   0.235   4.284
 1129TIP3   OH2 3350   3.580   2.732   4.405
 1129TIP3    H1 3351   3.589   2.747   4.499
 1129TIP3    H2 3352   3.600   2.639   4.393
 1130TIP3   OH2 3353   6.215   3.475   4.496
 1130TIP3    H1 3354   6.195   3.383   4.513
 1130TIP3    H2 3355   6.134   3.522   4.515
 1131TIP3   OH2 3356   1.731   2.452   0.089
 1131TIP3    H1 3357   1.721   2.384   0.023
 1131TIP3    H2 3358   1.684   2.419   0.166
 1132TIP3   OH2 3359   6.004   3.030   3.220
 1132TIP3    H1 3360   5.932   3.087   3.193
 1132TIP3    H2 3361   5.969   2.941   3.212
 1133TIP3   OH2 3362   1.599   0.082   2.142
 1133TIP3    H1 3363   1.623   0.026   2.216
 1133TIP3    H2 3364   1.509   0.057   2.122
 1134TIP3   OH2 3365   5.123   1.394   2.266
 1134TIP3    H1 3366   5.109   1.436   2.351
 1134TIP3    H2 3367   5.218   1.385   2.259
 1135TIP3   OH2 3368   4.503   5.807   2.381
 1135TIP3    H1 3369   4.446   5.740   2.342
 1135TIP3    H2 3370   4.534   5.859   2.307
 1136TIP3   OH2 3371   2.997   0.622   4.575
 1136TIP3    H1 3372   3.006   0.527   4.565
 1136TIP3    H2 3373   3.023   0.658   4.491
 1137TIP3   OH2 3374   3.459   3.345   1.048
 1137TIP3    H1 3375   3.512   3.267   1.030
 1137TIP3    H2 3376   3.370   3.321   1.023
 1138TIP3   OH2 3377   4.391   1.196   2.301
 1138TIP3    H1 3378   4.428   1.132   2.241
 1138TIP3    H2 3379   4.376   1.146   2.382
 1139TIP3   OH2 3380   0.931   5.868   4.101
 1139TIP3    H1 3381   0.935   5.817   4.021
 1139TIP3    H2 3382   0.875   5.817   4.160
 1140TIP3   OH2 3383   2.741   2.288   0.977
 1140TIP3    H1 3384   2.651   2.260   0.995
 1140TIP3    H2 3385   2.768   2.236   0.902
 1141TIP3   OH2 3386   1.455   0.675   1.820
 1141TIP3    H1 3387   1.440   0.584   1.844
 1141TIP3    H2 3388   1.425   0.725   1.896
 1142TIP3   OH2 3389   5.364   0.969   4.236
 1142TIP3    H1 3390   5.332   0.999   4.321
 1142TIP3    H2 3391   5.458   0.987   4.238
 1143TIP3   OH2 3392   2.966   6.235   2.095
 1143TIP3    H1 3393   2.955   6.182   2.174
 1143TIP3    H2 3394   2.926   6.319   2.117
 1144TIP3   OH2 3395   0.984   6.591   1.270
 1144TIP3    H1 3396   0.988   6.680   1.235
 1144TIP3    H2 3397   1.033   6.538   1.207
 1145TIP3   OH2 3398   3.194   5.267   3.658
 1145TIP3    H1 3399   3.206   5.340   3.719
 1145TIP3    H2 3400   3.132   5.301   3.593
 1146TIP3   OH2 3401   6.529   0.368   4.269
 1146TIP3    H1 3402   6.604   0.419   4.302
 1146TIP3    H2 3403   6.504   0.312   4.342
 1147TIP3   OH2 3404   3.831   0.306   3.639
 1147TIP3    H1 3405   3.826   0.392   3.597
 1147TIP3    H2 3406   3.908   0.265   3.599
 1148TIP3   OH2 3407   3.991   4.508   5.202
 1148TIP3    H1 3408   3.916   4.546   5.249
 1148TIP3    H2 3409   4.023   4.439   5.260
 1149TIP3   OH2 3410   0.935   4.175   4.038
 1149TIP3    H1 3411   0.904   4.188   4.128
 1149TIP3    H2 3412   0.856   4.180   3.984
 1150TIP3   OH2 3413   4.691   0.000   4.335
 1150TIP3    H1 3414   4.665   0.069   4.274
 1150TIP3    H2 3415   4.758   0.041   4.389
 1151TIP3   OH2 3416   5.936   3.867   0.204
 1151TIP3    H1 3417   6.003   3.888   0.139
 1151TIP3    H2 3418   5.906   3.779   0.180
 1152TIP3   OH2 3419   4.919   6.216   0.441
 1152TIP3    H1 3420   4.912   6.296   0.388
 1152TIP3    H2 3421   4.950   6.247   0.526
 1153TIP3   OH2 3422   4.521   4.832   5.804
 1153TIP3    H1 3423   4.494   4.766   5.868
 1153TIP3    H2 3424   4.589   4.882   5.850
 1154TIP3   OH2 3425   4.874   6.475   0.351
 1154TIP3    H1 3426   4.847   6.526   0.275
 1154TIP3    H2 3427   4.822   6.509   0.423
 1155TIP3   OH2 3428   0.905   0.056   1.417
 1155TIP3    H1 3429   0.936   0.145   1.432
 1155TIP3    H2 3430   0.919   0.011   1.501
 1156TIP3   OH2 3431   2.874   0.369   2.312
 1156TIP3    H1 3432   2.912   0.453   2.286
 1156TIP3    H2 3433   2.922   0.304   2.261
 1157TIP3   OH2 3434   2.989   2.789   2.929
 1157TIP3    H1 3435   3.076   2.818   2.902
 1157TIP3    H2 3436   2.961   2.728   2.861
 1158TIP3   OH2 3437   2.941   2.275   5.884
 1158TIP3    H1 3438   2.965   2.366   5.899
 1158TIP3    H2 3439   2.856   2.265   5.927
 1159TIP3   OH2 3440   6.496   3.629   4.952
 1159TIP3    H1 3441   6.407   3.661   4.967
 1159TIP3    H2 3442   6.511   3.642   4.858
 1160TIP3   OH2 3443   5.978   6.148   2.424
 1160TIP3    H1 3444   5.973   6.144   2.520
 1160TIP3    H2 3445   5.890   6.124   2.395
 1161TIP3   OH2 3446   6.343   4.459   2.878
 1161TIP3    H1 3447   6.379   4.522   2.940
 1161TIP3    H2 3448   6.333   4.508   2.796
 1162TIP3   OH2 3449   0.793   3.376   0.276
 1162TIP3    H1 3450   0.790   3.448   0.339
 1162TIP3    H2 3451   0.727   3.398   0.210
 1163TIP3   OH2 3452   4.210   3.427   2.287
 1163TIP3    H1 3453   4.271   3.354   2.276
 1163TIP3    H2 3454   4.252   3.483   2.354
 1164TIP3   OH2 3455   3.384   5.339   1.441
 1164TIP3    H1 3456   3.451   5.310   1.379
 1164TIP3    H2 3457   3.431   5.397   1.501
 1165TIP3   OH2 3458   5.120   1.301   4.614
 1165TIP3    H1 3459   5.156   1.390   4.611
 1165TIP3    H2 3460   5.107   1.283   4.707
 1166TIP3   OH2 3461   3.573   4.209   4.040
 1166TIP3    H1 3462   3.663   4.218   4.007
 1166TIP3    H2 3463   3.584   4.184   4.132
 1167TIP3   OH2 3464   3.514   2.056   3.845
 1167TIP3    H1 3465   3.545   2.146   3.845
 1167TIP3    H2 3466   3.548   2.018   3.764
 1168TIP3   OH2 3467   6.982   0.842   2.888
 1168TIP3    H1 3468   6.901   0.862   2.842
 1168TIP3    H2 3469   7.051   0.885   2.836
 1169TIP3   OH2 3470   4.893   5.736   2.696
 1169TIP3    H1 3471   4.945   5.774   2.625
 1169TIP3    H2 3472   4.802   5.749   2.669
 1170TIP3   OH2 3473   2.786   4.032   3.448
 1170TIP3    H1 3474   2.744   3.952   3.479
 1170TIP3    H2 3475   2.718   4.100   3.458
 1171TIP3   OH2 3476   3.815   0.538   2.015
 1171TIP3    H1 3477   3.838   0.572   1.928
 1171TIP3    H2 3478   3.893   0.491   2.044
 1172TIP3   OH2 3479   2.187   5.960   2.738
 1172TIP3    H1 3480   2.178   5.890   2.674
 1172TIP3    H2 3481   2.126   5.938   2.807
 1173TIP3   OH2 3482   2.301   3.395   5.236
 1173TIP3    H1 3483   2.343   3.470   5.195
 1173TIP3    H2 3484   2.230   3.372   5.176
 1174TIP3   OH2 3485   6.275   2.087   0.445
 1174TIP3    H1 3486   6.250   2.046   0.528
 1174TIP3    H2 3487   6.297   2.177   0.468
 1175TIP3   OH2 3488  -0.004   1.663   4.123
 1175TIP3    H1 3489  -0.089   1.647   4.082
 1175TIP3    H2 3490   0.034   1.735   4.073
 1176TIP3   OH2 3491   1.549   2.674   2.231
 1176TIP3    H1 3492   1.640   2.645   2.242
 1176TIP3    H2 3493   1.510   2.609   2.172
 1177TIP3   OH2 3494   2.394   0.867   3.103
 1177TIP3    H1 3495   2.403   0.772   3.095
 1177TIP3    H2 3496   2.459   0.891   3.170
 1178TIP3   OH2 3497   1.396   1.366   3.457
 1178TIP3    H1 3498   1.398   1.305   3.531
 1178TIP3    H2 3499   1.342   1.438   3.488
 1179TIP3   OH2 3500   2.089   0.878   5.504
 1179TIP3    H1 3501   2.139   0.811   5.456
 1179TIP3    H2 3502   1.999   0.847   5.501
 1180TIP3   OH2 3503   0.726   4.080   4.755
 1180TIP3    H1 3504   0.765   4.004   4.713
 1180TIP3    H2 3505   0.795   4.146   4.755
 1181TIP3   OH2 3506   2.327   2.896   1.183
 1181TIP3    H1 3507   2.272   2.833   1.229
 1181TIP3    H2 3508   2.323   2.869   1.091
 1182TIP3   OH2 3509   4.730   5.310   1.093
 1182TIP3    H1 3510   4.680   5.247   1.042
 1182TIP3    H2 3511   4.673   5.387   1.098
 1183TIP3   OH2 3512   4.255   3.241   1.525
 1183TIP3    H1 3513   4.324   3.305   1.539
 1183TIP3    H2 3514   4.285   3.189   1.450
 1184TIP3   OH2 3515   6.858   2.366   2.178
 1184TIP3    H1 3516   6.848   2.432   2.247
 1184TIP3    H2 3517   6.797   2.393   2.110
 1185TIP3   OH2 3518   3.753   3.178   5.613
 1185TIP3    H1 3519   3.666   3.147   5.638
 1185TIP3    H2 3520   3.813   3.124   5.664
 1186TIP3   OH2 3521   5.369   2.890   3.206
 1186TIP3    H1 3522   5.339   2.980   3.191
 1186TIP3    H2 3523   5.375   2.852   3.118
 1187TIP3   OH2 3524   5.763   0.640   0.038
 1187TIP3    H1 3525   5.754   0.722  -0.011
 1187TIP3    H2 3526   5.720   0.657   0.122
 1188TIP3   OH2 3527   6.096   5.887   3.048
 1188TIP3    H1 3528   6.075   5.918   3.136
 1188TIP3    H2 3529   6.137   5.801   3.061
 1189TIP3   OH2 3530   0.591   5.937   2.290
 1189TIP3    H1 3531   0.661   5.998   2.315
 1189TIP3    H2 3532   0.630   5.882   2.223
 1190TIP3   OH2 3533   2.331   0.902   0.976
 1190TIP3    H1 3534   2.375   0.817   0.982
 1190TIP3    H2 3535   2.303   0.920   1.066
 1191TIP3   OH2 3536   4.376   2.333   5.597
 1191TIP3    H1 3537   4.387   2.423   5.568
 1191TIP3    H2 3538   4.294   2.333   5.645
 1192TIP3   OH2 3539   2.358   6.345   2.245
 1192TIP3    H1 3540   2.426   6.282   2.222
 1192TIP3    H2 3541   2.325   6.315   2.330
 1193TIP3   OH2 3542   5.249   4.033   0.074
 1193TIP3    H1 3543   5.328   4.082   0.052
 1193TIP3    H2 3544   5.270   3.943   0.049
 1194TIP3   OH2 3545   6.409   3.625   1.071
 1194TIP3    H1 3546   6.336   3.573   1.105
 1194TIP3    H2 3547   6.394   3.627   0.976
 1195TIP3   OH2 3548   6.972   3.404   2.458
 1195TIP3    H1 3549   7.031   3.472   2.424
 1195TIP3    H2 3550   7.023   3.361   2.526
 1196TIP3   OH2 3551   6.279   1.545   1.570
 1196TIP3    H1 3552   6.372   1.540   1.545
 1196TIP3    H2 3553   6.278   1.602   1.647
 1197TIP3   OH2 3554   3.413   3.124   3.117
 1197TIP3    H1 3555   3.449   3.170   3.042
 1197TIP3    H2 3556   3.443   3.174   3.193
 1198TIP3   OH2 3557   1.669   3.959   2.028
 1198TIP3    H1 3558   1.619   3.911   2.094
 1198TIP3    H2 3559   1.693   3.893   1.963
 1199TIP3   OH2 3560   3.283   5.900   0.770
 1199TIP3    H1 3561   3.217   5.888   0.701
 1199TIP3    H2 3562   3.349   5.834   0.752
 1200TIP3   OH2 3563   6.443   3.244   2.791
 1200TIP3    H1 3564   6.347   3.251   2.788
 1200TIP3    H2 3565   6.468   3.223   2.701
 1201TIP3   OH2 3566   3.638   5.136   5.026
 1201TIP3    H1 3567   3.686   5.195   4.968
 1201TIP3    H2 3568   3.605   5.068   4.969
 1202TIP3   OH2 3569   3.267   5.850   0.282
 1202TIP3    H1 3570   3.173   5.830   0.280
 1202TIP3    H2 3571   3.304   5.779   0.334
 1203TIP3   OH2 3572   1.248   4.706   4.168
 1203TIP3    H1 3573   1.211   4.678   4.252
 1203TIP3    H2 3574   1.263   4.799   4.178
 1204TIP3   OH2 3575   4.816   3.477   0.925
 1204TIP3    H1 3576   4.826   3.572   0.929
 1204TIP3    H2 3577   4.844   3.447   1.011
 1205TIP3   OH2 3578   3.179   6.060   2.548
 1205TIP3    H1 3579   3.192   6.099   2.634
 1205TIP3    H2 3580   3.216   6.123   2.487
 1206TIP3   OH2 3581   2.080   4.416   1.811
 1206TIP3    H1 3582   2.050   4.480   1.747
 1206TIP3    H2 3583   2.162   4.382   1.776
 1207TIP3   OH2 3584   4.177   5.329   4.905
 1207TIP3    H1 3585   4.169   5.264   4.975
 1207TIP3    H2 3586   4.271   5.336   4.889
 1208TIP3   OH2 3587   1.144   1.693   4.536
 1208TIP3    H1 3588   1.103   1.610   4.510
 1208TIP3    H2 3589   1.224   1.697   4.484
 1209TIP3   OH2 3590   2.492   6.762   4.772
 1209TIP3    H1 3591   2.532   6.774   4.858
 1209TIP3    H2 3592   2.455   6.674   4.774
 1210TIP3   OH2 3593   4.227   2.562   5.566
 1210TIP3    H1 3594   4.149   2.517   5.601
 1210TIP3    H2 3595   4.263   2.609   5.641
 1211TIP3   OH2 3596   1.399   4.877   0.374
 1211TIP3    H1 3597   1.379   4.862   0.466
 1211TIP3    H2 3598   1.495   4.885   0.371
 1212TIP3   OH2 3599   6.132   1.089   4.014
 1212TIP3    H1 3600   6.210   1.097   3.960
 1212TIP3    H2 3601   6.062   1.066   3.952
 1213TIP3   OH2 3602   2.312   1.302   1.789
 1213TIP3    H1 3603   2.401   1.331   1.808
 1213TIP3    H2 3604   2.258   1.381   1.798
 1214TIP3   OH2 3605   4.338   6.418   4.243
 1214TIP3    H1 3606   4.379   6.376   4.167
 1214TIP3    H2 3607   4.402   6.484   4.271
 1215TIP3   OH2 3608   4.873   1.966   2.267
 1215TIP3    H1 3609   4.933   2.040   2.255
 1215TIP3    H2 3610   4.906   1.921   2.344
 1216TIP3   OH2 3611   2.812   6.571   0.211
 1216TIP3    H1 3612   2.749   6.617   0.156
 1216TIP3    H2 3613   2.770   6.566   0.297
 1217TIP3   OH2 3614   4.123   2.292   5.699
 1217TIP3    H1 3615   4.095   2.325   5.785
 1217TIP3    H2 3616   4.043   2.256   5.661
 1218TIP3   OH2 3617   3.541   6.455   2.036
 1218TIP3    H1 3618   3.547   6.381   2.097
 1218TIP3    H2 3619   3.602   6.520   2.071
 1219TIP3   OH2 3620   2.690   0.619   2.760
 1219TIP3    H1 3621   2.603   0.660   2.755
 1219TIP3    H2 3622   2.723   0.621   2.671
 1220TIP3   OH2 3623   1.127   4.867   1.308
 1220TIP3    H1 3624   1.159   4.878   1.219
 1220TIP3    H2 3625   1.060   4.934   1.318
 1221TIP3   OH2 3626   0.401   3.558   2.999
 1221TIP3    H1 3627   0.398   3.625   3.068
 1221TIP3    H2 3628   0.470   3.587   2.941
 1222TIP3   OH2 3629   5.709   4.721   4.864
 1222TIP3    H1 3630   5.768   4.693   4.934
 1222TIP3    H2 3631   5.639   4.656   4.864
 1223TIP3   OH2 3632   4.193   4.423   3.789
 1223TIP3    H1 3633   4.111   4.410   3.742
 1223TIP3    H2 3634   4.261   4.398   3.726
 1224TIP3   OH2 3635   2.991   5.001   1.904
 1224TIP3    H1 3636   2.899   4.975   1.907
 1224TIP3    H2 3637   3.002   5.044   1.820
 1225TIP3   OH2 3638   6.642   2.693   3.545
 1225TIP3    H1 3639   6.713   2.746   3.510
 1225TIP3    H2 3640   6.660   2.688   3.639
 1226TIP3   OH2 3641   3.261   5.896   1.567
 1226TIP3    H1 3642   3.336   5.955   1.575
 1226TIP3    H2 3643   3.192   5.939   1.617
 1227TIP3   OH2 3644   5.967   5.690   1.822
 1227TIP3    H1 3645   5.882   5.659   1.792
 1227TIP3    H2 3646   5.957   5.785   1.831
 1228TIP3   OH2 3647   4.075   5.666   5.818
 1228TIP3    H1 3648   4.120   5.591   5.857
 1228TIP3    H2 3649   4.092   5.657   5.724
 1229TIP3   OH2 3650   6.117   4.637   3.165
 1229TIP3    H1 3651   6.060   4.569   3.129
 1229TIP3    H2 3652   6.203   4.595   3.171
 1230TIP3   OH2 3653   3.022   0.486   2.537
 1230TIP3    H1 3654   3.057   0.497   2.449
 1230TIP3    H2 3655   2.954   0.420   2.528
 1231TIP3   OH2 3656   0.454   4.396   4.790
 1231TIP3    H1 3657   0.463   4.324   4.851
 1231TIP3    H2 3658   0.411   4.358   4.713
 1232TIP3   OH2 3659   2.461   5.354   0.933
 1232TIP3    H1 3660   2.456   5.260   0.949
 1232TIP3    H2 3661   2.448   5.394   1.019
 1233TIP3   OH2 3662   0.260   2.028   2.749
 1233TIP3    H1 3663   0.271   1.974   2.671
 1233TIP3    H2 3664   0.311   1.983   2.817
 1234TIP3   OH2 3665   6.911   2.735   5.732
 1234TIP3    H1 3666   6.887   2.806   5.673
 1234TIP3    H2 3667   6.881   2.763   5.818
 1235TIP3   OH2 3668   2.560   3.245   4.195
 1235TIP3    H1 3669   2.475   3.226   4.155
 1235TIP3    H2 3670   2.547   3.327   4.243
 1236TIP3   OH2 3671   0.209   5.985   5.835
 1236TIP3    H1 3672   0.210   6.030   5.750
 1236TIP3    H2 3673   0.126   6.013   5.875
 1237TIP3   OH2 3674   4.368   1.272   3.069
 1237TIP3    H1 3675   4.331   1.282   3.157
 1237TIP3    H2 3676   4.462   1.260   3.084
 1238TIP3   OH2 3677   2.439   4.836   2.751
 1238TIP3    H1 3678   2.345   4.853   2.758
 1238TIP3    H2 3679   2.445   4.749   2.712
 1239TIP3   OH2 3680   3.657   5.841   2.380
 1239TIP3    H1 3681   3.724   5.847   2.313
 1239TIP3    H2 3682   3.605   5.764   2.356
 1240TIP3   OH2 3683   6.159   0.834   0.316
 1240TIP3    H1 3684   6.165   0.900   0.385
 1240TIP3    H2 3685   6.072   0.848   0.277
 1241TIP3   OH2 3686   1.710   2.082   0.572
 1241TIP3    H1 3687   1.699   2.008   0.512
 1241TIP3    H2 3688   1.711   2.159   0.516
 1242TIP3   OH2 3689   3.650   0.356   1.390
 1242TIP3    H1 3690   3.555   0.355   1.402
 1242TIP3    H2 3691   3.683   0.288   1.449
 1243TIP3   OH2 3692   4.313   3.165   5.785
 1243TIP3    H1 3693   4.342   3.109   5.712
 1243TIP3    H2 3694   4.274   3.241   5.743
 1244TIP3   OH2 3695   0.451   4.588   5.241
 1244TIP3    H1 3696   0.370   4.537   5.248
 1244TIP3    H2 3697   0.506   4.556   5.312
 1245TIP3   OH2 3698   6.850   1.663   5.105
 1245TIP3    H1 3699   6.945   1.648   5.108
 1245TIP3    H2 3700   6.832   1.678   5.012
 1246TIP3   OH2 3701   2.971   2.943   1.846
 1246TIP3    H1 3702   3.015   2.859   1.832
 1246TIP3    H2 3703   3.007   2.975   1.929
 1247TIP3   OH2 3704   1.506   2.919   0.262
 1247TIP3    H1 3705   1.601   2.908   0.276
 1247TIP3    H2 3706   1.490   3.011   0.281
 1248TIP3   OH2 3707   5.126   2.280   0.224
 1248TIP3    H1 3708   5.068   2.340   0.271
 1248TIP3    H2 3709   5.186   2.248   0.291
 1249TIP3   OH2 3710   1.701   0.048   2.657
 1249TIP3    H1 3711   1.777   0.103   2.636
 1249TIP3    H2 3712   1.730  -0.005   2.731
 1250TIP3   OH2 3713   6.390   6.582   4.055
 1250TIP3    H1 3714   6.346   6.601   4.138
 1250TIP3    H2 3715   6.352   6.499   4.026
 1251TIP3   OH2 3716   5.791   6.610   2.936
 1251TIP3    H1 3717   5.763   6.691   2.893
 1251TIP3    H2 3718   5.856   6.573   2.877
 1252TIP3   OH2 3719   6.978   3.492   1.400
 1252TIP3    H1 3720   6.947   3.454   1.318
 1252TIP3    H2 3721   6.900   3.530   1.440
 1253TIP3   OH2 3722   1.185   3.917   2.060
 1253TIP3    H1 3723   1.201   3.823   2.070
 1253TIP3    H2 3724   1.231   3.940   1.979
 1254TIP3   OH2 3725   4.282   5.300   0.857
 1254TIP3    H1 3726   4.359   5.302   0.800
 1254TIP3    H2 3727   4.216   5.253   0.806
 1255TIP3   OH2 3728   4.204   1.077   3.519
 1255TIP3    H1 3729   4.133   1.018   3.492
 1255TIP3    H2 3730   4.284   1.025   3.508
 1256TIP3   OH2 3731   1.185   6.207   0.985
 1256TIP3    H1 3732   1.262   6.155   1.008
 1256TIP3    H2 3733   1.111   6.151   1.009
 1257TIP3   OH2 3734   2.360   2.966   0.816
 1257TIP3    H1 3735   2.418   3.033   0.853
 1257TIP3    H2 3736   2.321   3.008   0.740
 1258TIP3   OH2 3737   1.619   0.694   4.405
 1258TIP3    H1 3738   1.533   0.672   4.368
 1258TIP3    H2 3739   1.599   0.723   4.495
 1259TIP3   OH2 3740   2.498   6.374   5.136
 1259TIP3    H1 3741   2.506   6.337   5.224
 1259TIP3    H2 3742   2.532   6.463   5.144
 1260TIP3   OH2 3743   3.210   6.253   4.067
 1260TIP3    H1 3744   3.270   6.232   3.995
 1260TIP3    H2 3745   3.177   6.168   4.096
 1261TIP3   OH2 3746   2.839   2.370   2.038
 1261TIP3    H1 3747   2.907   2.377   1.971
 1261TIP3    H2 3748   2.826   2.460   2.067
 1262TIP3   OH2 3749   6.236   0.519   0.385
 1262TIP3    H1 3750   6.185   0.564   0.318
 1262TIP3    H2 3751   6.173   0.503   0.456
 1263TIP3   OH2 3752  -0.015   6.274   3.374
 1263TIP3    H1 3753  -0.095   6.326   3.365
 1263TIP3    H2 3754  -0.028   6.223   3.454
 1264TIP3   OH2 3755   2.633   1.739   0.655
 1264TIP3    H1 3756   2.561   1.677   0.647
 1264TIP3    H2 3757   2.700   1.707   0.594
 1265TIP3   OH2 3758   0.122   3.106   0.133
 1265TIP3    H1 3759   0.217   3.097   0.142
 1265TIP3    H2 3760   0.090   3.118   0.223
 1266TIP3   OH2 3761   4.278   4.016   3.082
 1266TIP3    H1 3762   4.318   4.103   3.082
 1266TIP3    H2 3763   4.311   3.975   3.162
 1267TIP3   OH2 3764   1.498   6.577   0.095
 1267TIP3    H1 3765   1.520   6.629   0.173
 1267TIP3    H2 3766   1.531   6.629   0.022
 1268TIP3   OH2 3767   4.164   4.419   4.816
 1268TIP3    H1 3768   4.250   4.377   4.826
 1268TIP3    H2 3769   4.177   4.508   4.848
 1269TIP3   OH2 3770   1.087   0.345   5.294
 1269TIP3    H1 3771   1.070   0.438   5.279
 1269TIP3    H2 3772   1.117   0.313   5.209
 1270TIP3   OH2 3773   2.977   0.268   2.897
 1270TIP3    H1 3774   2.884   0.272   2.876
 1270TIP3    H2 3775   3.012   0.203   2.835
 1271TIP3   OH2 3776   1.800   4.099   1.524
 1271TIP3    H1 3777   1.713   4.067   1.499
 1271TIP3    H2 3778   1.793   4.115   1.618
 1272TIP3   OH2 3779   4.332   4.889   5.611
 1272TIP3    H1 3780   4.404   4.893   5.674
 1272TIP3    H2 3781   4.339   4.802   5.573
 1273TIP3   OH2 3782   5.578   6.638   4.670
 1273TIP3    H1 3783   5.551   6.696   4.599
 1273TIP3    H2 3784   5.508   6.646   4.735
 1274TIP3   OH2 3785   5.283   2.285   4.987
 1274TIP3    H1 3786   5.369   2.314   5.019
 1274TIP3    H2 3787   5.260   2.213   5.046
 1275TIP3   OH2 3788   6.142   0.151   3.948
 1275TIP3    H1 3789   6.119   0.184   4.035
 1275TIP3    H2 3790   6.076   0.188   3.890
 1276TIP3   OH2 3791   3.615   2.387   3.176
 1276TIP3    H1 3792   3.568   2.344   3.106
 1276TIP3    H2 3793   3.599   2.481   3.162
 1277TIP3   OH2 3794   4.998   3.511   0.323
 1277TIP3    H1 3795   4.989   3.428   0.370
 1277TIP3    H2 3796   5.048   3.488   0.244
 1278TIP3   OH2 3797   1.861   5.401   4.615
 1278TIP3    H1 3798   1.938   5.349   4.592
 1278TIP3    H2 3799   1.790   5.362   4.564
 1279TIP3   OH2 3800   5.759   3.349   3.936
 1279TIP3    H1 3801   5.785   3.441   3.930
 1279TIP3    H2 3802   5.742   3.335   4.029
 1280TIP3   OH2 3803   1.941   1.064   0.646
 1280TIP3    H1 3804   2.007   1.056   0.577
 1280TIP3    H2 3805   1.886   1.137   0.618
 1281TIP3   OH2 3806   5.194   1.787   5.362
 1281TIP3    H1 3807   5.159   1.876   5.353
 1281TIP3    H2 3808   5.258   1.780   5.290
 1282TIP3   OH2 3809   3.841   2.947   3.624
 1282TIP3    H1 3810   3.869   2.968   3.713
 1282TIP3    H2 3811   3.850   2.852   3.618
 1283TIP3   OH2 3812   3.322   6.168   5.934
 1283TIP3    H1 3813   3.297   6.086   5.976
 1283TIP3    H2 3814   3.261   6.176   5.860
 1284TIP3   OH2 3815   1.090   3.467   3.567
 1284TIP3    H1 3816   1.165   3.466   3.506
 1284TIP3    H2 3817   1.124   3.427   3.647
 1285TIP3   OH2 3818   4.398   2.326   2.814
 1285TIP3    H1 3819   4.341   2.377   2.756
 1285TIP3    H2 3820   4.425   2.251   2.762
 1286TIP3   OH2 3821   0.602   3.840   0.739
 1286TIP3    H1 3822   0.690   3.877   0.736
 1286TIP3    H2 3823   0.554   3.884   0.669
 1287TIP3   OH2 3824   3.908   5.862   4.358
 1287TIP3    H1 3825   3.869   5.814   4.431
 1287TIP3    H2 3826   3.838   5.870   4.293
 1288TIP3   OH2 3827   4.327   1.019   5.490
 1288TIP3    H1 3828   4.416   1.052   5.477
 1288TIP3    H2 3829   4.271   1.086   5.450
 1289TIP3   OH2 3830   0.701   4.823   5.819
 1289TIP3    H1 3831   0.661   4.901   5.856
 1289TIP3    H2 3832   0.686   4.830   5.724
 1290TIP3   OH2 3833   6.605   1.829   2.164
 1290TIP3    H1 3834   6.604   1.750   2.218
 1290TIP3    H2 3835   6.552   1.892   2.212
 1291TIP3   OH2 3836   4.463   5.888   1.045
 1291TIP3    H1 3837   4.498   5.975   1.067
 1291TIP3    H2 3838   4.388   5.878   1.103
 1292TIP3   OH2 3839   2.258   5.519   0.533
 1292TIP3    H1 3840   2.353   5.507   0.525
 1292TIP3    H2 3841   2.233   5.464   0.607
 1293TIP3   OH2 3842   3.082   2.098   5.410
 1293TIP3    H1 3843   3.103   2.160   5.481
 1293TIP3    H2 3844   2.992   2.072   5.428
 1294TIP3   OH2 3845   2.125   2.281   0.747
 1294TIP3    H1 3846   2.115   2.302   0.654
 1294TIP3    H2 3847   2.216   2.305   0.767
 1295TIP3   OH2 3848   4.253   0.564   1.566
 1295TIP3    H1 3849   4.172   0.602   1.533
 1295TIP3    H2 3850   4.242   0.470   1.553
 1296TIP3   OH2 3851   7.131   4.021   0.122
 1296TIP3    H1 3852   7.168   3.937   0.151
 1296TIP3    H2 3853   7.164   4.085   0.185
 1297TIP3   OH2 3854   4.404   4.270   4.728
 1297TIP3    H1 3855   4.425   4.292   4.819
 1297TIP3    H2 3856   4.379   4.177   4.731
 1298TIP3   OH2 3857   4.836   1.569   4.629
 1298TIP3    H1 3858   4.797   1.626   4.696
 1298TIP3    H2 3859   4.904   1.623   4.588
 1299TIP3   OH2 3860   5.607   6.618   2.683
 1299TIP3    H1 3861   5.556   6.597   2.761
 1299TIP3    H2 3862   5.661   6.692   2.709
 1300TIP3   OH2 3863   2.981   1.180   0.289
 1300TIP3    H1 3864   3.052   1.123   0.318
 1300TIP3    H2 3865   3.007   1.267   0.318
 1301TIP3   OH2 3866   1.895   6.702   3.202
 1301TIP3    H1 3867   1.922   6.766   3.267
 1301TIP3    H2 3868   1.870   6.625   3.253
 1302TIP3   OH2 3869   5.118   3.853   4.690
 1302TIP3    H1 3870   5.211   3.837   4.706
 1302TIP3    H2 3871   5.095   3.923   4.751
 1303TIP3   OH2 3872   6.253   6.441   0.116
 1303TIP3    H1 3873   6.234   6.378   0.046
 1303TIP3    H2 3874   6.220   6.398   0.195
 1304TIP3   OH2 3875   2.650   6.263   1.124
 1304TIP3    H1 3876   2.674   6.234   1.036
 1304TIP3    H2 3877   2.567   6.218   1.142
 1305TIP3   OH2 3878   0.330   0.525   2.399
 1305TIP3    H1 3879   0.290   0.609   2.377
 1305TIP3    H2 3880   0.362   0.536   2.488
 1306TIP3   OH2 3881   3.037   4.407   1.424
 1306TIP3    H1 3882   3.106   4.348   1.392
 1306TIP3    H2 3883   2.991   4.356   1.491
 1307TIP3   OH2 3884   0.950   5.889   5.744
 1307TIP3    H1 3885   1.030   5.864   5.789
 1307TIP3    H2 3886   0.921   5.809   5.700
 1308TIP3   OH2 3887   3.673   1.767   1.434
 1308TIP3    H1 3888   3.616   1.694   1.461
 1308TIP3    H2 3889   3.691   1.750   1.342
 1309TIP3   OH2 3890   6.031   4.997   2.934
 1309TIP3    H1 3891   6.020   5.060   3.005
 1309TIP3    H2 3892   5.943   4.989   2.895
 1310TIP3   OH2 3893   6.790   1.984   2.015
 1310TIP3    H1 3894   6.873   1.940   2.034
 1310TIP3    H2 3895   6.723   1.915   2.026
 1311TIP3   OH2 3896   4.959   4.883   3.042
 1311TIP3    H1 3897   5.043   4.870   3.087
 1311TIP3    H2 3898   4.907   4.805   3.065
 1312TIP3   OH2 3899   6.300   0.810   5.546
 1312TIP3    H1 3900   6.377   0.862   5.520
 1312TIP3    H2 3901   6.313   0.791   5.639
 1313TIP3   OH2 3902   0.481   5.364   3.181
 1313TIP3    H1 3903   0.540   5.425   3.137
 1313TIP3    H2 3904   0.395   5.381   3.142
 1314TIP3   OH2 3905   5.513   0.566   1.658
 1314TIP3    H1 3906   5.577   0.508   1.616
 1314TIP3    H2 3907   5.562   0.645   1.678
 1315TIP3   OH2 3908   1.172   6.019   4.593
 1315TIP3    H1 3909   1.198   6.042   4.683
 1315TIP3    H2 3910   1.093   6.071   4.577
 1316TIP3   OH2 3911   1.400   3.776   0.698
 1316TIP3    H1 3912   1.469   3.839   0.678
 1316TIP3    H2 3913   1.329   3.829   0.733
 1317TIP3   OH2 3914   0.116   5.373   1.587
 1317TIP3    H1 3915   0.177   5.447   1.581
 1317TIP3    H2 3916   0.128   5.339   1.675
 1318TIP3   OH2 3917   1.545   3.181   1.446
 1318TIP3    H1 3918   1.466   3.173   1.500
 1318TIP3    H2 3919   1.512   3.189   1.357
 1319TIP3   OH2 3920   0.567   3.897   3.306
 1319TIP3    H1 3921   0.570   3.971   3.367
 1319TIP3    H2 3922   0.658   3.868   3.300
 1320TIP3   OH2 3923   6.465   6.340   1.172
 1320TIP3    H1 3924   6.474   6.380   1.086
 1320TIP3    H2 3925   6.486   6.248   1.159
 1321TIP3   OH2 3926   3.532   1.114   2.671
 1321TIP3    H1 3927   3.537   1.069   2.587
 1321TIP3    H2 3928   3.552   1.205   2.650
 1322TIP3   OH2 3929   3.324   2.279   0.723
 1322TIP3    H1 3930   3.313   2.254   0.631
 1322TIP3    H2 3931   3.399   2.339   0.723
 1323TIP3   OH2 3932   6.032   4.645   2.702
 1323TIP3    H1 3933   6.053   4.552   2.693
 1323TIP3    H2 3934   6.112   4.690   2.678
 1324TIP3   OH2 3935   3.404   3.523   0.812
 1324TIP3    H1 3936   3.399   3.461   0.885
 1324TIP3    H2 3937   3.468   3.588   0.840
 1325TIP3   OH2 3938   0.702   2.496   0.406
 1325TIP3    H1 3939   0.763   2.474   0.476
 1325TIP3    H2 3940   0.680   2.588   0.420
 1326TIP3   OH2 3941   6.596   4.315   2.928
 1326TIP3    H1 3942   6.529   4.340   2.865
 1326TIP3    H2 3943   6.563   4.346   3.013
 1327TIP3   OH2 3944   1.778   2.389   5.033
 1327TIP3    H1 3945   1.697   2.349   5.001
 1327TIP3    H2 3946   1.812   2.326   5.097
 1328TIP3   OH2 3947   6.572   4.840   3.389
 1328TIP3    H1 3948   6.485   4.874   3.372
 1328TIP3    H2 3949   6.627   4.918   3.399
 1329TIP3   OH2 3950   4.669   0.385   3.676
 1329TIP3    H1 3951   4.578   0.373   3.703
 1329TIP3    H2 3952   4.683   0.479   3.679
 1330TIP3   OH2 3953   2.100   0.171   4.108
 1330TIP3    H1 3954   2.177   0.221   4.136
 1330TIP3    H2 3955   2.048   0.161   4.188
 1331TIP3   OH2 3956   1.899   4.105   2.777
 1331TIP3    H1 3957   1.813   4.074   2.804
 1331TIP3    H2 3958   1.884   4.150   2.694
 1332TIP3   OH2 3959   5.611   6.229   3.460
 1332TIP3    H1 3960   5.517   6.216   3.470
 1332TIP3    H2 3961   5.621   6.323   3.445
 1333TIP3   OH2 3962   0.671   2.457   4.298
 1333TIP3    H1 3963   0.686   2.404   4.377
 1333TIP3    H2 3964   0.587   2.426   4.264
 1334TIP3   OH2 3965   0.430   6.822   5.165
 1334TIP3    H1 3966   0.439   6.746   5.223
 1334TIP3    H2 3967   0.410   6.784   5.080
 1335TIP3   OH2 3968   3.699   2.258   3.980
 1335TIP3    H1 3969   3.763   2.287   3.915
 1335TIP3    H2 3970   3.635   2.330   3.984
 1336TIP3   OH2 3971   4.641   1.975   4.482
 1336TIP3    H1 3972   4.654   2.003   4.572
 1336TIP3    H2 3973   4.545   1.971   4.472
 1337TIP3   OH2 3974   4.134   3.674   1.330
 1337TIP3    H1 3975   4.117   3.637   1.244
 1337TIP3    H2 3976   4.100   3.763   1.326
 1338TIP3   OH2 3977   2.070   3.264   4.687
 1338TIP3    H1 3978   2.126   3.193   4.720
 1338TIP3    H2 3979   2.072   3.254   4.592
 1339TIP3   OH2 3980   2.425   6.319   4.391
 1339TIP3    H1 3981   2.355   6.305   4.328
 1339TIP3    H2 3982   2.468   6.234   4.398
 1340TIP3   OH2 3983   0.402   6.647   1.042
 1340TIP3    H1 3984   0.469   6.645   0.973
 1340TIP3    H2 3985   0.438   6.707   1.108
 1341TIP3   OH2 3986   2.519   1.078   0.830
 1341TIP3    H1 3987   2.582   1.100   0.899
 1341TIP3    H2 3988   2.463   1.011   0.869
 1342TIP3   OH2 3989   3.394   0.759   5.847
 1342TIP3    H1 3990   3.485   0.776   5.869
 1342TIP3    H2 3991   3.361   0.843   5.815
 1343TIP3   OH2 3992   4.641   0.323   1.963
 1343TIP3    H1 3993   4.689   0.247   1.995
 1343TIP3    H2 3994   4.679   0.341   1.877
 1344TIP3   OH2 3995   5.823   2.093   0.666
 1344TIP3    H1 3996   5.839   2.104   0.760
 1344TIP3    H2 3997   5.733   2.059   0.662
 1345TIP3   OH2 3998   4.186   2.264   0.910
 1345TIP3    H1 3999   4.188   2.350   0.868
 1345TIP3    H2 4000   4.143   2.279   0.994
 1346TIP3   OH2 4001   0.401   0.833   4.141
 1346TIP3    H1 4002   0.470   0.773   4.111
 1346TIP3    H2 4003   0.449   0.909   4.174
 1347TIP3   OH2 4004   0.053   3.482   1.434
 1347TIP3    H1 4005   0.109   3.405   1.445
 1347TIP3    H2 4006   0.084   3.523   1.354
 1348TIP3   OH2 4007   1.351   4.123   4.100
 1348TIP3    H1 4008   1.386   4.118   4.189
 1348TIP3    H2 4009   1.386   4.045   4.056
 1349TIP3   OH2 4010   2.511   2.679   3.713
 1349TIP3    H1 4011   2.514   2.668   3.618
 1349TIP3    H2 4012   2.464   2.761   3.726
 1350TIP3   OH2 4013   2.868   4.510   1.719
 1350TIP3    H1 4014   2.956   4.545   1.710
 1350TIP3    H2 4015   2.840   4.492   1.629
 1351TIP3   OH2 4016   2.832   1.013   4.904
 1351TIP3    H1 4017   2.845   0.999   4.810
 1351TIP3    H2 4018   2.773   1.087   4.909
 1352TIP3   OH2 4019   4.099   0.449   0.859
 1352TIP3    H1 4020   4.083   0.494   0.775
 1352TIP3    H2 4021   4.013   0.447   0.901
 1353TIP3   OH2 4022   4.487   2.827   4.192
 1353TIP3    H1 4023   4.449   2.785   4.268
 1353TIP3    H2 4024   4.525   2.909   4.225
 1354TIP3   OH2 4025   5.050   3.920   5.477
 1354TIP3    H1 4026   4.992   3.989   5.510
 1354TIP3    H2 4027   5.034   3.919   5.382
 1355TIP3   OH2 4028   4.088   4.685   3.133
 1355TIP3    H1 4029   4.021   4.630   3.173
 1355TIP3    H2 4030   4.047   4.771   3.126
 1356TIP3   OH2 4031   6.949   5.569   2.897
 1356TIP3    H1 4032   7.016   5.632   2.870
 1356TIP3    H2 4033   6.994   5.485   2.898
 1357TIP3   OH2 4034   0.481   4.846   0.416
 1357TIP3    H1 4035   0.574   4.831   0.400
 1357TIP3    H2 4036   0.439   4.763   0.390
 1358TIP3   OH2 4037   3.692   5.951   3.105
 1358TIP3    H1 4038   3.611   5.981   3.146
 1358TIP3    H2 4039   3.664   5.911   3.023
 1359TIP3   OH2 4040   6.120   4.020   5.010
 1359TIP3    H1 4041   6.072   4.004   4.928
 1359TIP3    H2 4042   6.211   4.033   4.983
 1360TIP3   OH2 4043   5.662   0.766   0.834
 1360TIP3    H1 4044   5.720   0.696   0.803
 1360TIP3    H2 4045   5.601   0.779   0.761
 1361TIP3   OH2 4046   5.796   2.000   1.679
 1361TIP3    H1 4047   5.875   2.048   1.655
 1361TIP3    H2 4048   5.798   1.921   1.624
 1362TIP3   OH2 4049   6.100   2.918   1.069
 1362TIP3    H1 4050   6.005   2.929   1.071
 1362TIP3    H2 4051   6.115   2.826   1.090
 1363TIP3   OH2 4052   1.182   3.176   4.079
 1363TIP3    H1 4053   1.193   3.140   3.991
 1363TIP3    H2 4054   1.265   3.157   4.123
 1364TIP3   OH2 4055   2.103   6.081   1.324
 1364TIP3    H1 4056   2.057   6.144   1.268
 1364TIP3    H2 4057   2.036   6.018   1.349
 1365TIP3   OH2 4058   1.580   1.542   1.912
 1365TIP3    H1 4059   1.642   1.473   1.887
 1365TIP3    H2 4060   1.494   1.500   1.908
 1366TIP3   OH2 4061   1.420   0.497   1.153
 1366TIP3    H1 4062   1.489   0.437   1.122
 1366TIP3    H2 4063   1.357   0.440   1.197
 1367TIP3   OH2 4064   4.624   1.143   4.207
 1367TIP3    H1 4065   4.713   1.177   4.212
 1367TIP3    H2 4066   4.570   1.220   4.191
 1368TIP3   OH2 4067   7.191   5.760   0.886
 1368TIP3    H1 4068   7.215   5.667   0.878
 1368TIP3    H2 4069   7.247   5.793   0.956
 1369TIP3   OH2 4070   3.567   6.037   4.007
 1369TIP3    H1 4071   3.617   6.035   3.925
 1369TIP3    H2 4072   3.478   6.015   3.982
 1370TIP3   OH2 4073   0.704   0.746   4.645
 1370TIP3    H1 4074   0.730   0.837   4.632
 1370TIP3    H2 4075   0.694   0.737   4.740
 1371TIP3   OH2 4076   4.070   4.895   4.820
 1371TIP3    H1 4077   4.165   4.894   4.812
 1371TIP3    H2 4078   4.054   4.889   4.914
 1372TIP3   OH2 4079   2.814   1.407   0.848
 1372TIP3    H1 4080   2.893   1.377   0.805
 1372TIP3    H2 4081   2.841   1.426   0.938
 1373TIP3   OH2 4082   6.184   1.110   0.307
 1373TIP3    H1 4083   6.219   1.138   0.222
 1373TIP3    H2 4084   6.250   1.139   0.370
 1374TIP3   OH2 4085   5.534   5.396   4.770
 1374TIP3    H1 4086   5.587   5.342   4.830
 1374TIP3    H2 4087   5.508   5.336   4.701
 1375TIP3   OH2 4088   6.811   2.785   0.240
 1375TIP3    H1 4089   6.768   2.782   0.326
 1375TIP3    H2 4090   6.894   2.830   0.257
 1376TIP3   OH2 4091   3.107   6.226   3.760
 1376TIP3    H1 4092   3.092   6.133   3.775
 1376TIP3    H2 4093   3.093   6.267   3.846
 1377TIP3   OH2 4094   7.008   5.559   2.450
 1377TIP3    H1 4095   6.986   5.506   2.527
 1377TIP3    H2 4096   6.926   5.567   2.402
 1378TIP3   OH2 4097   1.864   1.006   1.998
 1378TIP3    H1 4098   1.939   1.049   1.956
 1378TIP3    H2 4099   1.819   0.962   1.926
 1379TIP3   OH2 4100   3.373   5.006   3.986
 1379TIP3    H1 4101   3.427   5.078   3.952
 1379TIP3    H2 4102   3.303   4.997   3.922
 1380TIP3   OH2 4103   2.028   0.429   1.698
 1380TIP3    H1 4104   2.124   0.427   1.688
 1380TIP3    H2 4105   2.012   0.389   1.783
 1381TIP3   OH2 4106   3.859   5.512   4.357
 1381TIP3    H1 4107   3.765   5.532   4.357
 1381TIP3    H2 4108   3.887   5.530   4.268
 1382TIP3   OH2 4109   1.498   5.844   0.295
 1382TIP3    H1 4110   1.585   5.869   0.264
 1382TIP3    H2 4111   1.479   5.762   0.250
 1383TIP3   OH2 4112   3.109   0.145   3.914
 1383TIP3    H1 4113   3.049   0.130   3.987
 1383TIP3    H2 4114   3.060   0.116   3.837
 1384TIP3   OH2 4115   2.717   1.912   1.043
 1384TIP3    H1 4116   2.761   1.859   0.977
 1384TIP3    H2 4117   2.641   1.948   0.998
 1385TIP3   OH2 4118   6.691   6.670   0.539
 1385TIP3    H1 4119   6.655   6.758   0.528
 1385TIP3    H2 4120   6.620   6.612   0.514
 1386TIP3   OH2 4121   5.880   5.037   5.827
 1386TIP3    H1 4122   5.861   5.066   5.916
 1386TIP3    H2 4123   5.854   4.945   5.825
 1387TIP3   OH2 4124   0.421   0.682   2.632
 1387TIP3    H1 4125   0.348   0.710   2.686
 1387TIP3    H2 4126   0.498   0.689   2.689
 1388TIP3   OH2 4127   2.117   4.401   5.164
 1388TIP3    H1 4128   2.104   4.336   5.233
 1388TIP3    H2 4129   2.212   4.416   5.162
 1389TIP3   OH2 4130   1.015   2.066   1.500
 1389TIP3    H1 4131   0.948   2.131   1.478
 1389TIP3    H2 4132   1.018   2.008   1.423
 1390TIP3   OH2 4133   0.365   1.129   0.958
 1390TIP3    H1 4134   0.444   1.075   0.961
 1390TIP3    H2 4135   0.294   1.066   0.945
 1391TIP3   OH2 4136   3.869   2.002   0.225
 1391TIP3    H1 4137   3.950   1.970   0.264
 1391TIP3    H2 4138   3.828   2.055   0.294
 1392TIP3   OH2 4139   6.085   1.900   2.342
 1392TIP3    H1 4140   6.078   1.966   2.411
 1392TIP3    H2 4141   6.125   1.946   2.268
 1393TIP3   OH2 4142   5.530   2.815   5.819
 1393TIP3    H1 4143   5.512   2.882   5.753
 1393TIP3    H2 4144   5.501   2.733   5.778
 1394TIP3   OH2 4145  -0.026   4.748   1.255
 1394TIP3    H1 4146   0.032   4.701   1.195
 1394TIP3    H2 4147  -0.036   4.835   1.216
 1395TIP3   OH2 4148   5.707   5.640   1.740
 1395TIP3    H1 4149   5.661   5.558   1.759
 1395TIP3    H2 4150   5.708   5.646   1.645
 1396TIP3   OH2 4151   2.760   0.508   3.635
 1396TIP3    H1 4152   2.855   0.501   3.622
 1396TIP3    H2 4153   2.737   0.591   3.592
 1397TIP3   OH2 4154   1.241   5.954   0.169
 1397TIP3    H1 4155   1.241   5.987   0.079
 1397TIP3    H2 4156   1.334   5.950   0.193
 1398TIP3   OH2 4157   1.204   0.560   1.437
 1398TIP3    H1 4158   1.223   0.650   1.464
 1398TIP3    H2 4159   1.282   0.510   1.463
 1399TIP3   OH2 4160   2.460   3.103   5.953
 1399TIP3    H1 4161   2.365   3.092   5.959
 1399TIP3    H2 4162   2.472   3.191   5.917
 1400TIP3   OH2 4163   3.390   3.919   2.671
 1400TIP3    H1 4164   3.404   3.989   2.607
 1400TIP3    H2 4165   3.470   3.867   2.669
 1401TIP3   OH2 4166   0.072   5.448   3.481
 1401TIP3    H1 4167   0.159   5.407   3.478
 1401TIP3    H2 4168   0.076   5.507   3.556
 1402TIP3   OH2 4169   2.710   6.265   4.313
 1402TIP3    H1 4170   2.791   6.274   4.262
 1402TIP3    H2 4171   2.739   6.267   4.404
 1403TIP3   OH2 4172   7.055   5.387   0.716
 1403TIP3    H1 4173   6.994   5.315   0.732
 1403TIP3    H2 4174   6.998   5.462   0.698
 1404TIP3   OH2 4175   4.334   4.901   4.890
 1404TIP3    H1 4176   4.327   4.815   4.932
 1404TIP3    H2 4177   4.309   4.963   4.959
 1405TIP3   OH2 4178   0.210   2.041   4.205
 1405TIP3    H1 4179   0.219   2.010   4.296
 1405TIP3    H2 4180   0.289   2.092   4.190
 1406TIP3   OH2 4181   5.067   1.147   0.889
 1406TIP3    H1 4182   5.051   1.164   0.982
 1406TIP3    H2 4183   5.051   1.231   0.846
 1407TIP3   OH2 4184   0.614   5.260   2.469
 1407TIP3    H1 4185   0.665   5.210   2.406
 1407TIP3    H2 4186   0.573   5.329   2.417
 1408TIP3   OH2 4187   3.432   6.444   0.305
 1408TIP3    H1 4188   3.360   6.383   0.323
 1408TIP3    H2 4189   3.405   6.526   0.348
 1409TIP3   OH2 4190   4.018   5.116   3.591
 1409TIP3    H1 4191   3.947   5.161   3.636
 1409TIP3    H2 4192   4.095   5.132   3.644
 1410TIP3   OH2 4193   4.023   3.171   4.837
 1410TIP3    H1 4194   4.069   3.116   4.775
 1410TIP3    H2 4195   3.935   3.180   4.800
 1411TIP3   OH2 4196   6.114   3.224   4.602
 1411TIP3    H1 4197   6.124   3.154   4.667
 1411TIP3    H2 4198   6.120   3.179   4.517
 1412TIP3   OH2 4199   5.463   0.204   4.816
 1412TIP3    H1 4200   5.422   0.124   4.785
 1412TIP3    H2 4201   5.544   0.175   4.857
 1413TIP3   OH2 4202   2.743   0.425   3.931
 1413TIP3    H1 4203   2.723   0.381   3.848
 1413TIP3    H2 4204   2.831   0.461   3.918
 1414TIP3   OH2 4205   4.198   5.855   0.301
 1414TIP3    H1 4206   4.294   5.846   0.303
 1414TIP3    H2 4207   4.169   5.787   0.241
 1415TIP3   OH2 4208   7.069   0.141   0.733
 1415TIP3    H1 4209   7.160   0.138   0.762
 1415TIP3    H2 4210   7.018   0.154   0.813
 1416TIP3   OH2 4211   7.255   2.985   3.763
 1416TIP3    H1 4212   7.187   3.052   3.771
 1416TIP3    H2 4213   7.238   2.943   3.679
 1417TIP3   OH2 4214   4.456   2.664   0.914
 1417TIP3    H1 4215   4.512   2.589   0.929
 1417TIP3    H2 4216   4.515   2.734   0.888
 1418TIP3   OH2 4217   3.194   6.139   5.460
 1418TIP3    H1 4218   3.287   6.130   5.442
 1418TIP3    H2 4219   3.158   6.051   5.449
 1419TIP3   OH2 4220   0.043   1.982   4.651
 1419TIP3    H1 4221  -0.016   2.055   4.631
 1419TIP3    H2 4222   0.086   2.008   4.733
 1420TIP3   OH2 4223   6.523   0.108   5.091
 1420TIP3    H1 4224   6.464   0.079   5.161
 1420TIP3    H2 4225   6.464   0.138   5.021
 1421TIP3   OH2 4226   5.722   6.348   1.577
 1421TIP3    H1 4227   5.668   6.277   1.544
 1421TIP3    H2 4228   5.667   6.426   1.569
 1422TIP3   OH2 4229   2.572   5.851   2.958
 1422TIP3    H1 4230   2.594   5.807   2.876
 1422TIP3    H2 4231   2.536   5.781   3.013
 1423TIP3   OH2 4232   1.717   5.603   4.731
 1423TIP3    H1 4233   1.764   5.535   4.683
 1423TIP3    H2 4234   1.777   5.677   4.733
 1424TIP3   OH2 4235   6.111   2.449   0.624
 1424TIP3    H1 4236   6.102   2.544   0.615
 1424TIP3    H2 4237   6.195   2.429   0.583
 1425TIP3   OH2 4238   1.231   3.927   5.675
 1425TIP3    H1 4239   1.253   3.961   5.762
 1425TIP3    H2 4240   1.156   3.870   5.690
 1426TIP3   OH2 4241   5.904   5.684   2.595
 1426TIP3    H1 4242   5.831   5.658   2.652
 1426TIP3    H2 4243   5.865   5.690   2.508
 1427TIP3   OH2 4244   5.354   1.384   4.294
 1427TIP3    H1 4245   5.393   1.323   4.233
 1427TIP3    H2 4246   5.391   1.469   4.270
 1428TIP3   OH2 4247   0.373   0.316   4.078
 1428TIP3    H1 4248   0.280   0.334   4.086
 1428TIP3    H2 4249   0.408   0.329   4.166
 1429TIP3   OH2 4250   5.593   3.773   0.259
 1429TIP3    H1 4251   5.654   3.774   0.186
 1429TIP3    H2 4252   5.618   3.848   0.313
 1430TIP3   OH2 4253   2.779   2.790   0.722
 1430TIP3    H1 4254   2.825   2.864   0.762
 1430TIP3    H2 4255   2.729   2.829   0.650
 1431TIP3   OH2 4256   6.699   5.387   5.248
 1431TIP3    H1 4257   6.758   5.336   5.304
 1431TIP3    H2 4258   6.617   5.393   5.299
 1432TIP3   OH2 4259   2.644   5.625   1.544
 1432TIP3    H1 4260   2.590   5.619   1.465
 1432TIP3    H2 4261   2.723   5.672   1.515
 1433TIP3   OH2 4262   6.940   5.550   1.364
 1433TIP3    H1 4263   7.002   5.477   1.363
 1433TIP3    H2 4264   6.898   5.545   1.278
 1434TIP3   OH2 4265   1.056   3.064   4.283
 1434TIP3    H1 4266   0.973   3.063   4.236
 1434TIP3    H2 4267   1.108   3.130   4.238
 1435TIP3   OH2 4268   5.567   4.178   0.260
 1435TIP3    H1 4269   5.658   4.196   0.235
 1435TIP3    H2 4270   5.516   4.198   0.181
 1436TIP3   OH2 4271   1.002   4.711   1.503
 1436TIP3    H1 4272   1.071   4.656   1.540
 1436TIP3    H2 4273   1.047   4.768   1.441
 1437TIP3   OH2 4274   2.107   4.319   0.573
 1437TIP3    H1 4275   2.152   4.400   0.595
 1437TIP3    H2 4276   2.145   4.254   0.633
 1438TIP3   OH2 4277   1.093   5.157   3.806
 1438TIP3    H1 4278   0.999   5.177   3.810
 1438TIP3    H2 4279   1.108   5.095   3.877
 1439TIP3   OH2 4280   2.577   2.403   1.627
 1439TIP3    H1 4281   2.563   2.389   1.533
 1439TIP3    H2 4282   2.637   2.334   1.653
 1440TIP3   OH2 4283   1.168   4.517   5.267
 1440TIP3    H1 4284   1.157   4.599   5.219
 1440TIP3    H2 4285   1.232   4.538   5.335
 1441TIP3   OH2 4286   1.100   5.198   2.628
 1441TIP3    H1 4287   1.140   5.255   2.693
 1441TIP3    H2 4288   1.038   5.144   2.677
 1442TIP3   OH2 4289   3.608   2.576   3.663
 1442TIP3    H1 4290   3.601   2.644   3.730
 1442TIP3    H2 4291   3.538   2.513   3.685
 1443TIP3   OH2 4292   2.307   0.796   0.519
 1443TIP3    H1 4293   2.269   0.845   0.592
 1443TIP3    H2 4294   2.370   0.856   0.480
 1444TIP3   OH2 4295   0.742   4.890   2.131
 1444TIP3    H1 4296   0.786   4.808   2.112
 1444TIP3    H2 4297   0.666   4.865   2.184
 1445TIP3   OH2 4298   0.656   6.329   4.604
 1445TIP3    H1 4299   0.584   6.335   4.667
 1445TIP3    H2 4300   0.674   6.235   4.596
 1446TIP3   OH2 4301   5.768   4.643   2.802
 1446TIP3    H1 4302   5.853   4.675   2.770
 1446TIP3    H2 4303   5.704   4.699   2.758
 1447TIP3   OH2 4304   4.484   6.281   3.989
 1447TIP3    H1 4305   4.539   6.333   3.930
 1447TIP3    H2 4306   4.418   6.242   3.931
 1448TIP3   OH2 4307   0.615   5.816   5.024
 1448TIP3    H1 4308   0.598   5.749   5.091
 1448TIP3    H2 4309   0.684   5.778   4.970
 1449TIP3   OH2 4310   4.320   4.310   5.261
 1449TIP3    H1 4311   4.273   4.288   5.342
 1449TIP3    H2 4312   4.408   4.335   5.290
 1450TIP3   OH2 4313   3.449   6.139   1.526
 1450TIP3    H1 4314   3.497   6.078   1.582
 1450TIP3    H2 4315   3.500   6.143   1.445
 1451TIP3   OH2 4316   2.575   4.932   4.554
 1451TIP3    H1 4317   2.482   4.909   4.545
 1451TIP3    H2 4318   2.582   5.020   4.518
 1452TIP3   OH2 4319   5.788   5.483   4.806
 1452TIP3    H1 4320   5.693   5.470   4.808
 1452TIP3    H2 4321   5.799   5.571   4.772
 1453TIP3   OH2 4322   5.244   0.857   0.884
 1453TIP3    H1 4323   5.230   0.889   0.973
 1453TIP3    H2 4324   5.194   0.916   0.828
 1454TIP3   OH2 4325   3.628   0.451   0.163
 1454TIP3    H1 4326   3.541   0.455   0.123
 1454TIP3    H2 4327   3.613   0.470   0.255
 1455TIP3   OH2 4328   0.520   4.002   0.000
 1455TIP3    H1 4329   0.464   4.013   0.077
 1455TIP3    H2 4330   0.604   4.038   0.026
 1456TIP3   OH2 4331   1.792   4.752   4.615
 1456TIP3    H1 4332   1.832   4.666   4.601
 1456TIP3    H2 4333   1.766   4.752   4.707
 1457TIP3   OH2 4334   3.319   6.274   5.048
 1457TIP3    H1 4335   3.330   6.338   5.118
 1457TIP3    H2 4336   3.396   6.286   4.992
 1458TIP3   OH2 4337   7.124   6.733   3.180
 1458TIP3    H1 4338   7.033   6.715   3.205
 1458TIP3    H2 4339   7.147   6.812   3.229
 1459TIP3   OH2 4340   3.669   6.192   1.855
 1459TIP3    H1 4341   3.666   6.201   1.950
 1459TIP3    H2 4342   3.600   6.251   1.823
 1460TIP3   OH2 4343   0.094   3.597   3.204
 1460TIP3    H1 4344   0.014   3.635   3.239
 1460TIP3    H2 4345   0.163   3.625   3.265
 1461TIP3   OH2 4346   0.772   1.310   5.281
 1461TIP3    H1 4347   0.812   1.363   5.350
 1461TIP3    H2 4348   0.738   1.233   5.327
 1462TIP3   OH2 4349   5.928   4.373   5.294
 1462TIP3    H1 4350   5.950   4.335   5.208
 1462TIP3    H2 4351   6.006   4.420   5.320
 1463TIP3   OH2 4352   0.080   2.374   4.706
 1463TIP3    H1 4353   0.158   2.330   4.740
 1463TIP3    H2 4354   0.035   2.308   4.654
 1464TIP3   OH2 4355   0.449   4.498   1.010
 1464TIP3    H1 4356   0.364   4.515   0.969
 1464TIP3    H2 4357   0.501   4.576   0.990
 1465TIP3   OH2 4358   3.084   3.023   3.668
 1465TIP3    H1 4359   3.163   3.075   3.680
 1465TIP3    H2 4360   3.030   3.043   3.744
 1466TIP3   OH2 4361   2.513   1.635   1.715
 1466TIP3    H1 4362   2.563   1.712   1.688
 1466TIP3    H2 4363   2.578   1.564   1.714
 1467TIP3   OH2 4364   2.897   0.705   2.981
 1467TIP3    H1 4365   2.829   0.681   2.918
 1467TIP3    H2 4366   2.973   0.727   2.927
 1468TIP3   OH2 4367   5.298   6.509   0.295
 1468TIP3    H1 4368   5.365   6.565   0.334
 1468TIP3    H2 4369   5.305   6.426   0.343
 1469TIP3   OH2 4370   0.096   1.126   2.396
 1469TIP3    H1 4371   0.136   1.202   2.354
 1469TIP3    H2 4372   0.031   1.095   2.333
 1470TIP3   OH2 4373   5.937   6.721   0.268
 1470TIP3    H1 4374   6.030   6.698   0.267
 1470TIP3    H2 4375   5.912   6.727   0.176
 1471TIP3   OH2 4376   5.815   4.136   1.159
 1471TIP3    H1 4377   5.833   4.061   1.215
 1471TIP3    H2 4378   5.878   4.129   1.088
 1472TIP3   OH2 4379  -0.047   5.867   3.070
 1472TIP3    H1 4380   0.009   5.918   3.011
 1472TIP3    H2 4381  -0.006   5.876   3.156
 1473TIP3   OH2 4382   3.497   5.408   3.583
 1473TIP3    H1 4383   3.420   5.460   3.558
 1473TIP3    H2 4384   3.553   5.410   3.506
 1474TIP3   OH2 4385   0.687   3.801   1.795
 1474TIP3    H1 4386   0.596   3.794   1.824
 1474TIP3    H2 4387   0.739   3.784   1.873
 1475TIP3   OH2 4388   1.584   3.143   4.574
 1475TIP3    H1 4389   1.566   3.215   4.514
 1475TIP3    H2 4390   1.637   3.182   4.644
 1476TIP3   OH2 4391   2.836   4.389   4.401
 1476TIP3    H1 4392   2.765   4.446   4.432
 1476TIP3    H2 4393   2.900   4.449   4.363
 1477TIP3   OH2 4394   1.537   5.997   2.832
 1477TIP3    H1 4395   1.545   6.026   2.923
 1477TIP3    H2 4396   1.543   6.077   2.780
 1478TIP3   OH2 4397   5.553   6.641   3.150
 1478TIP3    H1 4398   5.551   6.713   3.213
 1478TIP3    H2 4399   5.532   6.563   3.202
 1479TIP3   OH2 4400   5.372   4.345   3.876
 1479TIP3    H1 4401   5.310   4.418   3.883
 1479TIP3    H2 4402   5.435   4.373   3.810
 1480TIP3   OH2 4403   5.058   6.686   2.543
 1480TIP3    H1 4404   5.073   6.755   2.607
 1480TIP3    H2 4405   5.013   6.729   2.470
 1481TIP3   OH2 4406   0.592   0.859   1.913
 1481TIP3    H1 4407   0.555   0.943   1.940
 1481TIP3    H2 4408   0.668   0.883   1.860
 1482TIP3   OH2 4409   4.754   2.272   1.480
 1482TIP3    H1 4410   4.792   2.237   1.560
 1482TIP3    H2 4411   4.827   2.276   1.418
 1483TIP3   OH2 4412   6.750   5.746   0.189
 1483TIP3    H1 4413   6.657   5.734   0.172
 1483TIP3    H2 4414   6.770   5.833   0.154
 1484TIP3   OH2 4415   3.154   2.883   3.931
 1484TIP3    H1 4416   3.156   2.941   4.007
 1484TIP3    H2 4417   3.081   2.824   3.948
 1485TIP3   OH2 4418   0.824   3.560   3.590
 1485TIP3    H1 4419   0.794   3.477   3.628
 1485TIP3    H2 4420   0.920   3.555   3.595
 1486TIP3   OH2 4421   6.558   5.748   1.960
 1486TIP3    H1 4422   6.531   5.831   1.920
 1486TIP3    H2 4423   6.591   5.773   2.047
 1487TIP3   OH2 4424   2.729   6.204   3.394
 1487TIP3    H1 4425   2.721   6.175   3.485
 1487TIP3    H2 4426   2.819   6.181   3.369
 1488TIP3   OH2 4427   6.480   0.035   1.707
 1488TIP3    H1 4428   6.491  -0.033   1.773
 1488TIP3    H2 4429   6.385   0.046   1.699
 1489TIP3   OH2 4430   2.374   3.544   4.965
 1489TIP3    H1 4431   2.395   3.618   4.908
 1489TIP3    H2 4432   2.286   3.517   4.938
 1490TIP3   OH2 4433   5.242   0.733   3.482
 1490TIP3    H1 4434   5.312   0.669   3.500
 1490TIP3    H2 4435   5.278   0.788   3.413
 1491TIP3   OH2 4436   5.666   0.952   2.191
 1491TIP3    H1 4437   5.634   0.868   2.157
 1491TIP3    H2 4438   5.593   1.012   2.179
 1492TIP3   OH2 4439   1.607   2.560   1.580
 1492TIP3    H1 4440   1.635   2.596   1.496
 1492TIP3    H2 4441   1.599   2.636   1.637
 1493TIP3   OH2 4442   0.768   2.117   1.756
 1493TIP3    H1 4443   0.839   2.171   1.791
 1493TIP3    H2 4444   0.733   2.072   1.832
 1494TIP3   OH2 4445   0.546   1.990   4.361
 1494TIP3    H1 4446   0.599   1.946   4.294
 1494TIP3    H2 4447   0.460   1.948   4.356
 1495TIP3   OH2 4448   2.194   5.398   3.323
 1495TIP3    H1 4449   2.139   5.336   3.277
 1495TIP3    H2 4450   2.133   5.452   3.374
 1496TIP3   OH2 4451   3.005   0.786   5.653
 1496TIP3    H1 4452   3.011   0.698   5.615
 1496TIP3    H2 4453   2.957   0.837   5.587
 1497TIP3   OH2 4454   4.133   3.878   1.010
 1497TIP3    H1 4455   4.121   3.903   0.918
 1497TIP3    H2 4456   4.151   3.784   1.007
 1498TIP3   OH2 4457   0.556   3.224   3.851
 1498TIP3    H1 4458   0.499   3.279   3.796
 1498TIP3    H2 4459   0.519   3.137   3.845
 1499TIP3   OH2 4460   4.448   0.926   0.765
 1499TIP3    H1 4461   4.402   0.899   0.686
 1499TIP3    H2 4462   4.515   0.987   0.734
 1500TIP3   OH2 4463   4.526   3.844   1.325
 1500TIP3    H1 4464   4.480   3.879   1.249
 1500TIP3    H2 4465   4.592   3.911   1.346
 1501TIP3   OH2 4466   5.292   2.687   4.575
 1501TIP3    H1 4467   5.210   2.637   4.570
 1501TIP3    H2 4468   5.321   2.676   4.665
 1502TIP3   OH2 4469   3.502   5.817   3.750
 1502TIP3    H1 4470   3.438   5.836   3.818
 1502TIP3    H2 4471   3.547   5.738   3.779
 1503TIP3   OH2 4472   3.140   0.245   0.772
 1503TIP3    H1 4473   3.112   0.289   0.853
 1503TIP3    H2 4474   3.194   0.310   0.727
 1504TIP3   OH2 4475   6.985   1.805   2.107
 1504TIP3    H1 4476   6.945   1.718   2.104
 1504TIP3    H2 4477   7.053   1.798   2.175
 1505TIP3   OH2 4478   1.879   1.299   1.564
 1505TIP3    H1 4479   1.834   1.267   1.485
 1505TIP3    H2 4480   1.964   1.255   1.562
 1506TIP3   OH2 4481   3.702   6.192   4.191
 1506TIP3    H1 4482   3.737   6.254   4.127
 1506TIP3    H2 4483   3.652   6.129   4.139
 1507TIP3   OH2 4484   0.112   4.406   1.519
 1507TIP3    H1 4485   0.031   4.452   1.538
 1507TIP3    H2 4486   0.097   4.316   1.547
 1508TIP3   OH2 4487   5.545   5.206   3.757
 1508TIP3    H1 4488   5.482   5.163   3.698
 1508TIP3    H2 4489   5.558   5.142   3.827
 1509TIP3   OH2 4490   6.682   5.849   3.174
 1509TIP3    H1 4491   6.723   5.922   3.128
 1509TIP3    H2 4492   6.711   5.771   3.128
 1510TIP3   OH2 4493   2.451   5.230   4.713
 1510TIP3    H1 4494   2.359   5.216   4.690
 1510TIP3    H2 4495   2.498   5.221   4.630
 1511TIP3   OH2 4496   3.141   3.535   1.055
 1511TIP3    H1 4497   3.100   3.557   1.138
 1511TIP3    H2 4498   3.163   3.442   1.063
 1512TIP3   OH2 4499   3.870   5.397   2.261
 1512TIP3    H1 4500   3.911   5.364   2.341
 1512TIP3    H2 4501   3.820   5.322   2.228
 1513TIP3   OH2 4502   7.123   1.843   1.234
 1513TIP3    H1 4503   7.192   1.904   1.207
 1513TIP3    H2 4504   7.165   1.784   1.295
 1514TIP3   OH2 4505   4.867   4.254   1.299
 1514TIP3    H1 4506   4.934   4.322   1.302
 1514TIP3    H2 4507   4.804   4.285   1.234
 1515TIP3   OH2 4508   1.648   6.841   1.587
 1515TIP3    H1 4509   1.706   6.772   1.556
 1515TIP3    H2 4510   1.573   6.795   1.626
 1516TIP3   OH2 4511   3.672   1.714   2.582
 1516TIP3    H1 4512   3.583   1.742   2.604
 1516TIP3    H2 4513   3.715   1.701   2.666
 1517TIP3   OH2 4514   4.596   4.754   3.605
 1517TIP3    H1 4515   4.536   4.807   3.656
 1517TIP3    H2 4516   4.654   4.713   3.669
 1518TIP3   OH2 4517   2.332   4.887   5.104
 1518TIP3    H1 4518   2.397   4.830   5.146
 1518TIP3    H2 4519   2.383   4.940   5.042
 1519TIP3   OH2 4520   2.865   5.557   4.868
 1519TIP3    H1 4521   2.860   5.575   4.774
 1519TIP3    H2 4522   2.857   5.462   4.875
 1520TIP3   OH2 4523   5.857   0.677   4.077
 1520TIP3    H1 4524   5.918   0.734   4.031
 1520TIP3    H2 4525   5.907   0.642   4.151
 1521TIP3   OH2 4526   6.528   0.151   4.423
 1521TIP3    H1 4527   6.589   0.095   4.471
 1521TIP3    H2 4528   6.487   0.093   4.359
 1522TIP3   OH2 4529   0.246   2.994   5.678
 1522TIP3    H1 4530   0.182   3.050   5.635
 1522TIP3    H2 4531   0.300   3.054   5.730
 1523TIP3   OH2 4532   2.998   2.552   5.397
 1523TIP3    H1 4533   3.093   2.541   5.386
 1523TIP3    H2 4534   2.962   2.538   5.309
 1524TIP3   OH2 4535   5.312   2.123   2.051
 1524TIP3    H1 4536   5.357   2.196   2.009
 1524TIP3    H2 4537   5.356   2.045   2.018
 1525TIP3   OH2 4538   4.183   0.675   1.265
 1525TIP3    H1 4539   4.213   0.585   1.278
 1525TIP3    H2 4540   4.120   0.691   1.335
 1526TIP3   OH2 4541   4.898   3.011   2.426
 1526TIP3    H1 4542   4.969   2.949   2.445
 1526TIP3    H2 4543   4.919   3.088   2.478
 1527TIP3   OH2 4544   0.488   5.251   5.232
 1527TIP3    H1 4545   0.548   5.270   5.159
 1527TIP3    H2 4546   0.401   5.252   5.192
 1528TIP3   OH2 4547   1.201   0.860   5.579
 1528TIP3    H1 4548   1.190   0.812   5.497
 1528TIP3    H2 4549   1.126   0.920   5.581
 1529TIP3   OH2 4550   3.130   4.872   0.041
 1529TIP3    H1 4551   3.179   4.912  -0.030
 1529TIP3    H2 4552   3.045   4.849   0.003
 1530TIP3   OH2 4553   6.434   0.720   4.754
 1530TIP3    H1 4554   6.360   0.781   4.755
 1530TIP3    H2 4555   6.432   0.680   4.841
 1531TIP3   OH2 4556   6.592   5.354   1.843
 1531TIP3    H1 4557   6.682   5.381   1.861
 1531TIP3    H2 4558   6.600   5.263   1.815
 1532TIP3   OH2 4559   2.392   2.269   5.877
 1532TIP3    H1 4560   2.416   2.249   5.787
 1532TIP3    H2 4561   2.417   2.190   5.926
 1533TIP3   OH2 4562   6.948   0.670   2.132
 1533TIP3    H1 4563   6.899   0.658   2.050
 1533TIP3    H2 4564   6.948   0.583   2.172
 1534TIP3   OH2 4565   6.170   0.004   2.669
 1534TIP3    H1 4566   6.179  -0.052   2.746
 1534TIP3    H2 4567   6.168   0.093   2.705
 1535TIP3   OH2 4568   5.454   2.720   1.434
 1535TIP3    H1 4569   5.459   2.795   1.375
 1535TIP3    H2 4570   5.495   2.750   1.515
 1536TIP3   OH2 4571   2.432   4.610   4.190
 1536TIP3    H1 4572   2.400   4.666   4.261
 1536TIP3    H2 4573   2.523   4.635   4.178
 1537TIP3   OH2 4574   6.112   2.026   3.119
 1537TIP3    H1 4575   6.110   1.936   3.084
 1537TIP3    H2 4576   6.199   2.034   3.158
 1538TIP3   OH2 4577   4.977   6.075   4.125
 1538TIP3    H1 4578   5.044   6.065   4.193
 1538TIP3    H2 4579   5.028   6.079   4.043
 1539TIP3   OH2 4580   4.754   3.657   5.497
 1539TIP3    H1 4581   4.686   3.593   5.479
 1539TIP3    H2 4582   4.732   3.732   5.441
 1540TIP3   OH2 4583   4.192   0.232   2.213
 1540TIP3    H1 4584   4.245   0.301   2.171
 1540TIP3    H2 4585   4.216   0.237   2.306
 1541TIP3   OH2 4586   1.573   2.824   1.392
 1541TIP3    H1 4587   1.541   2.914   1.400
 1541TIP3    H2 4588   1.655   2.832   1.344
 1542TIP3   OH2 4589   4.452   5.949   0.339
 1542TIP3    H1 4590   4.514   5.973   0.407
 1542TIP3    H2 4591   4.497   5.882   0.287
 1543TIP3   OH2 4592   1.154   5.489   1.233
 1543TIP3    H1 4593   1.199   5.564   1.194
 1543TIP3    H2 4594   1.224   5.429   1.257
 1544TIP3   OH2 4595   6.681   5.952   4.177
 1544TIP3    H1 4596   6.664   5.976   4.085
 1544TIP3    H2 4597   6.595   5.930   4.212
 1545TIP3   OH2 4598   4.582   1.075   3.711
 1545TIP3    H1 4599   4.579   1.029   3.795
 1545TIP3    H2 4600   4.603   1.166   3.733
 1546TIP3   OH2 4601   3.299   0.519   4.915
 1546TIP3    H1 4602   3.208   0.548   4.915
 1546TIP3    H2 4603   3.342   0.575   4.979
 1547TIP3   OH2 4604   0.233   6.716   3.778
 1547TIP3    H1 4605   0.257   6.625   3.795
 1547TIP3    H2 4606   0.149   6.711   3.733
 1548TIP3   OH2 4607   3.836   6.005   1.100
 1548TIP3    H1 4608   3.839   5.976   1.191
 1548TIP3    H2 4609   3.916   5.970   1.061
 1549TIP3   OH2 4610   5.069   2.097   3.853
 1549TIP3    H1 4611   5.109   2.155   3.918
 1549TIP3    H2 4612   4.990   2.143   3.825
 1550TIP3   OH2 4613   3.204   0.549   5.847
 1550TIP3    H1 4614   3.228   0.637   5.876
 1550TIP3    H2 4615   3.242   0.542   5.760
 1551TIP3   OH2 4616   4.576   1.351   4.868
 1551TIP3    H1 4617   4.485   1.382   4.864
 1551TIP3    H2 4618   4.605   1.351   4.777
 1552TIP3   OH2 4619   1.273   2.450   4.518
 1552TIP3    H1 4620   1.184   2.473   4.492
 1552TIP3    H2 4621   1.273   2.457   4.613
 1553TIP3   OH2 4622   7.127   2.654   4.594
 1553TIP3    H1 4623   7.197   2.612   4.644
 1553TIP3    H2 4624   7.085   2.714   4.655
 1554TIP3   OH2 4625   3.030   0.155   5.307
 1554TIP3    H1 4626   3.084   0.092   5.354
 1554TIP3    H2 4627   2.961   0.102   5.267
 1555TIP3   OH2 4628   3.377   5.847   2.920
 1555TIP3    H1 4629   3.302   5.845   2.862
 1555TIP3    H2 4630   3.436   5.911   2.881
 1556TIP3   OH2 4631   4.263   3.432   5.719
 1556TIP3    H1 4632   4.336   3.491   5.740
 1556TIP3    H2 4633   4.189   3.491   5.703
 1557TIP3   OH2 4634   1.230   1.228   5.628
 1557TIP3    H1 4635   1.263   1.293   5.565
 1557TIP3    H2 4636   1.153   1.270   5.666
 1558TIP3   OH2 4637   5.739   2.348   2.125
 1558TIP3    H1 4638   5.739   2.270   2.069
 1558TIP3    H2 4639   5.656   2.344   2.172
 1559TIP3   OH2 4640   4.212   0.932   3.841
 1559TIP3    H1 4641   4.214   0.870   3.914
 1559TIP3    H2 4642   4.127   0.917   3.799
 1560TIP3   OH2 4643   5.851   3.295   2.420
 1560TIP3    H1 4644   5.926   3.250   2.459
 1560TIP3    H2 4645   5.843   3.376   2.470
 1561TIP3   OH2 4646   2.186   1.252   2.534
 1561TIP3    H1 4647   2.222   1.338   2.513
 1561TIP3    H2 4648   2.233   1.191   2.478
 1562TIP3   OH2 4649   5.355   1.668   2.488
 1562TIP3    H1 4650   5.362   1.572   2.492
 1562TIP3    H2 4651   5.416   1.699   2.555
 1563TIP3   OH2 4652   2.309   5.380   1.181
 1563TIP3    H1 4653   2.252   5.447   1.217
 1563TIP3    H2 4654   2.359   5.348   1.257
 1564TIP3   OH2 4655   6.303   3.416   0.254
 1564TIP3    H1 4656   6.301   3.329   0.214
 1564TIP3    H2 4657   6.376   3.412   0.316
 1565TIP3   OH2 4658   4.347   5.108   2.842
 1565TIP3    H1 4659   4.380   5.183   2.892
 1565TIP3    H2 4660   4.421   5.048   2.838
 1566TIP3   OH2 4661   5.614   3.687   3.644
 1566TIP3    H1 4662   5.617   3.781   3.624
 1566TIP3    H2 4663   5.705   3.662   3.656
 1567TIP3   OH2 4664   4.277   1.993   4.223
 1567TIP3    H1 4665   4.338   2.064   4.201
 1567TIP3    H2 4666   4.210   1.997   4.154
 1568TIP3   OH2 4667   2.250   4.477   3.544
 1568TIP3    H1 4668   2.186   4.429   3.597
 1568TIP3    H2 4669   2.265   4.420   3.468
 1569TIP3   OH2 4670   5.114   0.622   2.441
 1569TIP3    H1 4671   5.129   0.698   2.385
 1569TIP3    H2 4672   5.174   0.556   2.407
 1570TIP3   OH2 4673   3.626   5.886   2.650
 1570TIP3    H1 4674   3.662   5.801   2.676
 1570TIP3    H2 4675   3.611   5.879   2.556
 1571TIP3   OH2 4676   2.452   5.063   4.945
 1571TIP3    H1 4677   2.458   5.096   4.855
 1571TIP3    H2 4678   2.477   5.137   5.000
 1572TIP3   OH2 4679   3.892   6.519   1.515
 1572TIP3    H1 4680   3.823   6.569   1.472
 1572TIP3    H2 4681   3.848   6.443   1.551
 1573TIP3   OH2 4682   1.994   0.429   3.063
 1573TIP3    H1 4683   2.038   0.453   3.144
 1573TIP3    H2 4684   2.036   0.348   3.036
 1574TIP3   OH2 4685   6.414   2.784   3.828
 1574TIP3    H1 4686   6.366   2.865   3.810
 1574TIP3    H2 4687   6.504   2.813   3.845
 1575TIP3   OH2 4688   1.356   4.836   0.704
 1575TIP3    H1 4689   1.401   4.764   0.750
 1575TIP3    H2 4690   1.277   4.796   0.669
 1576TIP3   OH2 4691   6.583   5.807   5.589
 1576TIP3    H1 4692   6.560   5.876   5.527
 1576TIP3    H2 4693   6.502   5.789   5.636
 1577TIP3   OH2 4694   1.188   2.242   2.091
 1577TIP3    H1 4695   1.182   2.231   2.186
 1577TIP3    H2 4696   1.218   2.332   2.079
 1578TIP3   OH2 4697   0.544   1.713   4.902
 1578TIP3    H1 4698   0.604   1.647   4.867
 1578TIP3    H2 4699   0.511   1.674   4.984
 1579TIP3   OH2 4700   2.344   3.962   5.805
 1579TIP3    H1 4701   2.377   3.975   5.894
 1579TIP3    H2 4702   2.358   4.046   5.762
 1580TIP3   OH2 4703   0.440   3.282   1.318
 1580TIP3    H1 4704   0.475   3.318   1.236
 1580TIP3    H2 4705   0.509   3.299   1.382
 1581TIP3   OH2 4706   2.750   6.581   0.481
 1581TIP3    H1 4707   2.683   6.649   0.489
 1581TIP3    H2 4708   2.832   6.627   0.498
 1582TIP3   OH2 4709   2.819   5.644   3.493
 1582TIP3    H1 4710   2.890   5.587   3.522
 1582TIP3    H2 4711   2.774   5.593   3.425
 1583TIP3   OH2 4712   7.130   5.369   4.471
 1583TIP3    H1 4713   7.090   5.357   4.385
 1583TIP3    H2 4714   7.207   5.312   4.471
 1584TIP3   OH2 4715   6.470   2.576   2.763
 1584TIP3    H1 4716   6.502   2.579   2.854
 1584TIP3    H2 4717   6.392   2.521   2.768
 1585TIP3   OH2 4718   4.841   6.205   4.511
 1585TIP3    H1 4719   4.788   6.281   4.487
 1585TIP3    H2 4720   4.777   6.134   4.524
 1586TIP3   OH2 4721   0.164   4.478   2.269
 1586TIP3    H1 4722   0.254   4.506   2.285
 1586TIP3    H2 4723   0.119   4.493   2.352
 1587TIP3   OH2 4724   6.670   1.792   0.960
 1587TIP3    H1 4725   6.684   1.755   1.048
 1587TIP3    H2 4726   6.632   1.878   0.977
 1588TIP3   OH2 4727   0.884   6.475   3.568
 1588TIP3    H1 4728   0.951   6.421   3.608
 1588TIP3    H2 4729   0.809   6.470   3.628
 1589TIP3   OH2 4730   1.451   6.707   1.704
 1589TIP3    H1 4731   1.405   6.641   1.653
 1589TIP3    H2 4732   1.403   6.713   1.786
 1590TIP3   OH2 4733   5.235   3.592   1.921
 1590TIP3    H1 4734   5.289   3.538   1.979
 1590TIP3    H2 4735   5.202   3.662   1.977
 1591TIP3   OH2 4736   2.251   0.124   3.758
 1591TIP3    H1 4737   2.276   0.038   3.791
 1591TIP3    H2 4738   2.162   0.137   3.790
 1592TIP3   OH2 4739   1.102   3.382   2.467
 1592TIP3    H1 4740   1.008   3.368   2.455
 1592TIP3    H2 4741   1.110   3.475   2.489
 1593TIP3   OH2 4742   2.413   6.026   1.903
 1593TIP3    H1 4743   2.438   6.108   1.859
 1593TIP3    H2 4744   2.324   6.042   1.935
 1594TIP3   OH2 4745   1.754   5.751   4.173
 1594TIP3    H1 4746   1.817   5.702   4.121
 1594TIP3    H2 4747   1.797   5.834   4.191
 1595TIP3   OH2 4748   5.101   4.140   3.916
 1595TIP3    H1 4749   5.165   4.169   3.851
 1595TIP3    H2 4750   5.128   4.182   3.997
 1596TIP3   OH2 4751   0.024   6.330   0.973
 1596TIP3    H1 4752   0.099   6.271   0.975
 1596TIP3    H2 4753   0.055   6.408   0.928
 1597TIP3   OH2 4754   2.350   1.255   0.101
 1597TIP3    H1 4755   2.326   1.173   0.145
 1597TIP3    H2 4756   2.369   1.315   0.173
 1598TIP3   OH2 4757   2.775   5.622   5.433
 1598TIP3    H1 4758   2.811   5.638   5.345
 1598TIP3    H2 4759   2.720   5.699   5.451
 1599TIP3   OH2 4760   0.957   1.954   2.019
 1599TIP3    H1 4761   0.964   2.040   1.978
 1599TIP3    H2 4762   0.878   1.958   2.071
 1600TIP3   OH2 4763   5.179   1.872   2.797
 1600TIP3    H1 4764   5.124   1.844   2.724
 1600TIP3    H2 4765   5.120   1.919   2.855
 1601TIP3   OH2 4766   4.700   4.837   0.900
 1601TIP3    H1 4767   4.757   4.760   0.901
 1601TIP3    H2 4768   4.751   4.905   0.944
 1602TIP3   OH2 4769   2.680   4.919   2.962
 1602TIP3    H1 4770   2.654   4.865   2.888
 1602TIP3    H2 4771   2.748   4.868   3.007
 1603TIP3   OH2 4772   6.000   5.862   4.693
 1603TIP3    H1 4773   5.973   5.935   4.749
 1603TIP3    H2 4774   5.918   5.820   4.668
 1604TIP3   OH2 4775   3.788   5.835   0.832
 1604TIP3    H1 4776   3.725   5.904   0.849
 1604TIP3    H2 4777   3.862   5.880   0.790
 1605TIP3   OH2 4778   2.448   0.338   5.393
 1605TIP3    H1 4779   2.511   0.273   5.361
 1605TIP3    H2 4780   2.502   0.403   5.438
 1606TIP3   OH2 4781   5.835   4.849   3.881
 1606TIP3    H1 4782   5.853   4.894   3.799
 1606TIP3    H2 4783   5.921   4.839   3.922
 1607TIP3   OH2 4784   1.892   4.582   1.043
 1607TIP3    H1 4785   1.915   4.567   0.951
 1607TIP3    H2 4786   1.969   4.625   1.080
 1608TIP3   OH2 4787   5.891   2.447   2.360
 1608TIP3    H1 4788   5.942   2.527   2.347
 1608TIP3    H2 4789   5.824   2.450   2.292
 1609TIP3   OH2 4790   7.016   1.124   3.076
 1609TIP3    H1 4791   7.079   1.104   3.006
 1609TIP3    H2 4792   6.997   1.039   3.116
 1610TIP3   OH2 4793   6.574   0.328   2.342
 1610TIP3    H1 4794   6.541   0.414   2.367
 1610TIP3    H2 4795   6.593   0.336   2.248
 1611TIP3   OH2 4796   5.466   1.822   2.289
 1611TIP3    H1 4797   5.444   1.833   2.197
 1611TIP3    H2 4798   5.393   1.773   2.326
 1612TIP3   OH2 4799   5.652   3.317   4.179
 1612TIP3    H1 4800   5.626   3.225   4.191
 1612TIP3    H2 4801   5.615   3.362   4.255
 1613TIP3   OH2 4802   7.072   1.573   2.645
 1613TIP3    H1 4803   7.058   1.588   2.739
 1613TIP3    H2 4804   7.157   1.530   2.640
 1614TIP3   OH2 4805   4.212   0.792   4.368
 1614TIP3    H1 4806   4.248   0.836   4.446
 1614TIP3    H2 4807   4.205   0.700   4.394
 1615TIP3   OH2 4808   1.413   5.509   0.662
 1615TIP3    H1 4809   1.431   5.417   0.680
 1615TIP3    H2 4810   1.455   5.526   0.578
 1616TIP3   OH2 4811   5.089   1.315   5.342
 1616TIP3    H1 4812   5.064   1.257   5.270
 1616TIP3    H2 4813   5.183   1.301   5.351
 1617TIP3   OH2 4814   4.920   2.484   0.300
 1617TIP3    H1 4815   4.920   2.566   0.250
 1617TIP3    H2 4816   4.832   2.449   0.288
 1618TIP3   OH2 4817   5.107   1.909   1.907
 1618TIP3    H1 4818   5.083   1.833   1.852
 1618TIP3    H2 4819   5.125   1.979   1.844
 1619TIP3   OH2 4820   6.624   4.410   5.754
 1619TIP3    H1 4821   6.578   4.479   5.802
 1619TIP3    H2 4822   6.704   4.451   5.723
 1620TIP3   OH2 4823   4.248   3.919   4.533
 1620TIP3    H1 4824   4.256   3.844   4.474
 1620TIP3    H2 4825   4.153   3.933   4.542
 1621TIP3   OH2 4826   5.322   1.142   4.468
 1621TIP3    H1 4827   5.385   1.204   4.504
 1621TIP3    H2 4828   5.237   1.174   4.498
 1622TIP3   OH2 4829   0.763   0.398   3.639
 1622TIP3    H1 4830   0.667   0.398   3.641
 1622TIP3    H2 4831   0.788   0.315   3.679
 1623TIP3   OH2 4832   0.055   0.058   2.438
 1623TIP3    H1 4833   0.111   0.121   2.393
 1623TIP3    H2 4834   0.042   0.095   2.525
 1624TIP3   OH2 4835   3.828   0.466   2.330
 1624TIP3    H1 4836   3.873   0.435   2.251
 1624TIP3    H2 4837   3.887   0.443   2.401
 1625TIP3   OH2 4838   3.389   5.128   5.279
 1625TIP3    H1 4839   3.403   5.084   5.363
 1625TIP3    H2 4840   3.352   5.061   5.222
 1626TIP3   OH2 4841   6.356   3.874   3.630
 1626TIP3    H1 4842   6.280   3.816   3.640
 1626TIP3    H2 4843   6.354   3.900   3.538
 1627TIP3   OH2 4844   1.829   1.376   5.919
 1627TIP3    H1 4845   1.738   1.396   5.897
 1627TIP3    H2 4846   1.874   1.369   5.835
 1628TIP3   OH2 4847   5.747   3.679   3.213
 1628TIP3    H1 4848   5.768   3.621   3.139
 1628TIP3    H2 4849   5.756   3.624   3.290
 1629TIP3   OH2 4850   1.491   2.610   4.886
 1629TIP3    H1 4851   1.468   2.623   4.978
 1629TIP3    H2 4852   1.415   2.644   4.838
 1630TIP3   OH2 4853   4.529   1.910   2.821
 1630TIP3    H1 4854   4.501   1.893   2.911
 1630TIP3    H2 4855   4.531   1.824   2.780
 1631TIP3   OH2 4856   3.750   3.076   3.400
 1631TIP3    H1 4857   3.754   3.024   3.481
 1631TIP3    H2 4858   3.662   3.059   3.366
 1632TIP3   OH2 4859   7.152   0.313   4.548
 1632TIP3    H1 4860   7.176   0.262   4.626
 1632TIP3    H2 4861   7.077   0.268   4.511
 1633TIP3   OH2 4862   1.343   1.689   4.366
 1633TIP3    H1 4863   1.398   1.612   4.348
 1633TIP3    H2 4864   1.364   1.750   4.296
 1634TIP3   OH2 4865   2.827   5.226   2.609
 1634TIP3    H1 4866   2.853   5.318   2.612
 1634TIP3    H2 4867   2.786   5.210   2.694
 1635TIP3   OH2 4868   5.873   0.784   2.394
 1635TIP3    H1 4869   5.836   0.872   2.401
 1635TIP3    H2 4870   5.799   0.728   2.370
 1636TIP3   OH2 4871   5.593   2.854   3.371
 1636TIP3    H1 4872   5.525   2.899   3.322
 1636TIP3    H2 4873   5.547   2.787   3.421
 1637TIP3   OH2 4874   3.957   2.043   4.982
 1637TIP3    H1 4875   3.976   1.995   5.062
 1637TIP3    H2 4876   3.871   2.011   4.955
 1638TIP3   OH2 4877   6.158   3.572   4.845
 1638TIP3    H1 4878   6.095   3.504   4.868
 1638TIP3    H2 4879   6.136   3.646   4.902
 1639TIP3   OH2 4880   4.265   0.866   2.251
 1639TIP3    H1 4881   4.226   0.941   2.207
 1639TIP3    H2 4882   4.328   0.831   2.189
 1640TIP3   OH2 4883   0.122   6.496   3.654
 1640TIP3    H1 4884   0.187   6.489   3.584
 1640TIP3    H2 4885   0.041   6.521   3.609
 1641TIP3   OH2 4886   2.604   5.730   1.115
 1641TIP3    H1 4887   2.676   5.668   1.116
 1641TIP3    H2 4888   2.556   5.711   1.034
 1642TIP3   OH2 4889   3.231   4.569   1.131
 1642TIP3    H1 4890   3.295   4.529   1.190
 1642TIP3    H2 4891   3.180   4.495   1.098
 1643TIP3   OH2 4892   0.017   5.089   1.364
 1643TIP3    H1 4893   0.045   5.022   1.426
 1643TIP3    H2 4894   0.041   5.054   1.278
 1644TIP3   OH2 4895   6.472   5.323   4.417
 1644TIP3    H1 4896   6.498   5.275   4.496
 1644TIP3    H2 4897   6.386   5.288   4.395
 1645TIP3   OH2 4898   3.949   5.376   2.843
 1645TIP3    H1 4899   4.001   5.453   2.819
 1645TIP3    H2 4900   3.867   5.413   2.878
 1646TIP3   OH2 4901   3.867   2.557   2.540
 1646TIP3    H1 4902   3.814   2.478   2.552
 1646TIP3    H2 4903   3.940   2.528   2.485
 1647TIP3   OH2 4904   6.768   6.113   1.740
 1647TIP3    H1 4905   6.761   6.030   1.693
 1647TIP3    H2 4906   6.741   6.179   1.676
 1648TIP3   OH2 4907   0.287   3.846   4.247
 1648TIP3    H1 4908   0.318   3.834   4.337
 1648TIP3    H2 4909   0.367   3.858   4.196
 1649TIP3   OH2 4910   7.011   3.301   3.345
 1649TIP3    H1 4911   7.011   3.353   3.425
 1649TIP3    H2 4912   6.924   3.312   3.308
 1650TIP3   OH2 4913   0.490   3.925   4.507
 1650TIP3    H1 4914   0.577   3.935   4.468
 1650TIP3    H2 4915   0.465   3.835   4.485
 1651TIP3   OH2 4916   6.331   0.650   1.189
 1651TIP3    H1 4917   6.349   0.558   1.203
 1651TIP3    H2 4918   6.236   0.657   1.192
 1652TIP3   OH2 4919   4.167   4.740   1.285
 1652TIP3    H1 4920   4.196   4.665   1.233
 1652TIP3    H2 4921   4.170   4.708   1.376
 1653TIP3   OH2 4922   4.113   5.799   5.334
 1653TIP3    H1 4923   4.206   5.809   5.316
 1653TIP3    H2 4924   4.072   5.798   5.247
 1654TIP3   OH2 4925   3.424   4.140   4.327
 1654TIP3    H1 4926   3.519   4.131   4.334
 1654TIP3    H2 4927   3.401   4.203   4.396
 1655TIP3   OH2 4928   4.117   3.175   3.925
 1655TIP3    H1 4929   4.137   3.266   3.904
 1655TIP3    H2 4930   4.106   3.174   4.020
 1656TIP3   OH2 4931   6.795   4.885   4.608
 1656TIP3    H1 4932   6.878   4.839   4.592
 1656TIP3    H2 4933   6.790   4.892   4.703
 1657TIP3   OH2 4934   6.614   1.582   4.197
 1657TIP3    H1 4935   6.576   1.498   4.226
 1657TIP3    H2 4936   6.540   1.643   4.199
 1658TIP3   OH2 4937   1.441   2.275   4.298
 1658TIP3    H1 4938   1.370   2.282   4.362
 1658TIP3    H2 4939   1.496   2.203   4.330
 1659TIP3   OH2 4940   2.121   0.857   3.011
 1659TIP3    H1 4941   2.154   0.780   2.963
 1659TIP3    H2 4942   2.201   0.903   3.039
 1660TIP3   OH2 4943   0.618   4.490   1.487
 1660TIP3    H1 4944   0.543   4.454   1.534
 1660TIP3    H2 4945   0.588   4.498   1.397
 1661TIP3   OH2 4946   6.813   1.863   2.442
 1661TIP3    H1 4947   6.804   1.805   2.366
 1661TIP3    H2 4948   6.847   1.945   2.405
 1662TIP3   OH2 4949   5.620   4.863   1.111
 1662TIP3    H1 4950   5.538   4.913   1.113
 1662TIP3    H2 4951   5.606   4.797   1.044
 1663TIP3   OH2 4952   5.227   6.742   5.141
 1663TIP3    H1 4953   5.262   6.653   5.150
 1663TIP3    H2 4954   5.156   6.746   5.204
 1664TIP3   OH2 4955   3.069   2.224   1.912
 1664TIP3    H1 4956   3.111   2.282   1.977
 1664TIP3    H2 4957   3.091   2.263   1.828
 1665TIP3   OH2 4958   6.362   3.051   2.549
 1665TIP3    H1 4959   6.380   2.966   2.590
 1665TIP3    H2 4960   6.417   3.052   2.471
 1666TIP3   OH2 4961   2.655   2.024   4.880
 1666TIP3    H1 4962   2.674   2.116   4.900
 1666TIP3    H2 4963   2.592   1.997   4.947
 1667TIP3   OH2 4964   3.098   1.194   5.300
 1667TIP3    H1 4965   3.144   1.277   5.316
 1667TIP3    H2 4966   3.089   1.190   5.205
 1668TIP3   OH2 4967   3.199   0.785   5.437
 1668TIP3    H1 4968   3.176   0.863   5.487
 1668TIP3    H2 4969   3.116   0.738   5.426
 1669TIP3   OH2 4970   1.360   0.688   0.830
 1669TIP3    H1 4971   1.358   0.609   0.884
 1669TIP3    H2 4972   1.349   0.760   0.892
 1670TIP3   OH2 4973   5.518   1.516   5.010
 1670TIP3    H1 4974   5.612   1.502   5.004
 1670TIP3    H2 4975   5.507   1.583   5.078
 1671TIP3   OH2 4976   1.561   4.836   4.469
 1671TIP3    H1 4977   1.542   4.750   4.431
 1671TIP3    H2 4978   1.650   4.828   4.503
 1672TIP3   OH2 4979   0.586   2.979   2.358
 1672TIP3    H1 4980   0.525   3.048   2.385
 1672TIP3    H2 4981   0.627   2.950   2.439
 1673TIP3   OH2 4982   5.177   0.169   1.983
 1673TIP3    H1 4983   5.180   0.141   2.075
 1673TIP3    H2 4984   5.166   0.088   1.934
 1674TIP3   OH2 4985   6.444   5.181   5.477
 1674TIP3    H1 4986   6.424   5.152   5.388
 1674TIP3    H2 4987   6.463   5.274   5.468
 1675TIP3   OH2 4988   0.925   0.187   0.211
 1675TIP3    H1 4989   0.922   0.213   0.119
 1675TIP3    H2 4990   0.834   0.175   0.236
 1676TIP3   OH2 4991   6.565   6.828   0.961
 1676TIP3    H1 4992   6.590   6.868   1.044
 1676TIP3    H2 4993   6.472   6.810   0.970
 1677TIP3   OH2 4994   6.816   4.280   0.302
 1677TIP3    H1 4995   6.767   4.198   0.292
 1677TIP3    H2 4996   6.813   4.320   0.215
 1678TIP3   OH2 4997   6.934   5.424   1.630
 1678TIP3    H1 4998   6.906   5.486   1.562
 1678TIP3    H2 4999   6.929   5.338   1.588
 1679TIP3   OH2 5000   4.361   3.950   5.147
 1679TIP3    H1 5001   4.450   3.979   5.131
 1679TIP3    H2 5002   4.344   3.885   5.078
 1680TIP3   OH2 5003   4.135   4.900   5.349
 1680TIP3    H1 5004   4.064   4.920   5.410
 1680TIP3    H2 5005   4.201   4.856   5.402
 1681TIP3   OH2 5006   6.677   0.349   3.183
 1681TIP3    H1 5007   6.701   0.441   3.197
 1681TIP3    H2 5008   6.708   0.304   3.261
 1682TIP3   OH2 5009   5.745   3.916   3.374
 1682TIP3    H1 5010   5.684   3.985   3.347
 1682TIP3    H2 5011   5.730   3.845   3.312
 1683TIP3   OH2 5012   5.647   1.285   5.687
 1683TIP3    H1 5013   5.564   1.331   5.685
 1683TIP3    H2 5014   5.628   1.197   5.653
 1684TIP3   OH2 5015   1.322   0.369   4.071
 1684TIP3    H1 5016   1.238   0.338   4.105
 1684TIP3    H2 5017   1.365   0.409   4.146
 1685TIP3   OH2 5018   6.304   0.881   1.028
 1685TIP3    H1 5019   6.218   0.913   1.055
 1685TIP3    H2 5020   6.309   0.792   1.062
 1686TIP3   OH2 5021   7.158   2.955   1.324
 1686TIP3    H1 5022   7.149   3.003   1.407
 1686TIP3    H2 5023   7.074   2.910   1.314
 1687TIP3   OH2 5024   6.931   0.568   4.288
 1687TIP3    H1 5025   6.942   0.503   4.219
 1687TIP3    H2 5026   6.890   0.520   4.360
 1688TIP3   OH2 5027   6.300   3.828   3.040
 1688TIP3    H1 5028   6.357   3.873   2.978
 1688TIP3    H2 5029   6.286   3.741   3.003
 1689TIP3   OH2 5030   6.815   6.736   0.782
 1689TIP3    H1 5031   6.779   6.708   0.698
 1689TIP3    H2 5032   6.765   6.689   0.848
 1690TIP3   OH2 5033   3.790   6.657   4.504
 1690TIP3    H1 5034   3.708   6.663   4.456
 1690TIP3    H2 5035   3.783   6.723   4.573
 1691TIP3   OH2 5036   2.097   1.495   4.171
 1691TIP3    H1 5037   2.125   1.586   4.183
 1691TIP3    H2 5038   2.070   1.491   4.079
 1692TIP3   OH2 5039   6.381   1.213   0.491
 1692TIP3    H1 5040   6.428   1.255   0.564
 1692TIP3    H2 5041   6.407   1.121   0.496
 1693TIP3   OH2 5042   6.141   1.145   1.623
 1693TIP3    H1 5043   6.120   1.236   1.603
 1693TIP3    H2 5044   6.071   1.095   1.581
 1694TIP3   OH2 5045   3.351   3.920   1.350
 1694TIP3    H1 5046   3.431   3.915   1.298
 1694TIP3    H2 5047   3.280   3.919   1.285
 1695TIP3   OH2 5048   3.336   6.298   4.565
 1695TIP3    H1 5049   3.267   6.243   4.528
 1695TIP3    H2 5050   3.411   6.239   4.574
 1696TIP3   OH2 5051   6.678   4.972   5.150
 1696TIP3    H1 5052   6.597   5.018   5.171
 1696TIP3    H2 5053   6.671   4.889   5.197
 1697TIP3   OH2 5054   1.370   2.647   0.222
 1697TIP3    H1 5055   1.435   2.711   0.253
 1697TIP3    H2 5056   1.407   2.562   0.247
 1698TIP3   OH2 5057   5.366   3.716   2.573
 1698TIP3    H1 5058   5.414   3.659   2.634
 1698TIP3    H2 5059   5.274   3.701   2.594
 1699TIP3   OH2 5060   3.270   5.352   2.161
 1699TIP3    H1 5061   3.186   5.397   2.154
 1699TIP3    H2 5062   3.296   5.336   2.070
 1700TIP3   OH2 5063   1.177   5.047   0.853
 1700TIP3    H1 5064   1.179   4.958   0.888
 1700TIP3    H2 5065   1.268   5.077   0.861
 1701TIP3   OH2 5066   2.051   3.313   0.495
 1701TIP3    H1 5067   2.059   3.260   0.415
 1701TIP3    H2 5068   1.970   3.363   0.482
 1702TIP3   OH2 5069   3.284   5.620   3.481
 1702TIP3    H1 5070   3.329   5.644   3.399
 1702TIP3    H2 5071   3.248   5.703   3.513
 1703TIP3   OH2 5072   7.033   4.565   1.733
 1703TIP3    H1 5073   7.042   4.633   1.799
 1703TIP3    H2 5074   7.065   4.605   1.652
 1704TIP3   OH2 5075   4.769   4.527   5.237
 1704TIP3    H1 5076   4.844   4.515   5.178
 1704TIP3    H2 5077   4.807   4.557   5.319
 1705TIP3   OH2 5078   0.741   0.282   4.961
 1705TIP3    H1 5079   0.706   0.340   5.028
 1705TIP3    H2 5080   0.733   0.194   4.998
 1706TIP3   OH2 5081   6.043   5.001   5.392
 1706TIP3    H1 5082   6.054   5.018   5.485
 1706TIP3    H2 5083   5.988   5.074   5.361
 1707TIP3   OH2 5084   0.939   4.563   3.552
 1707TIP3    H1 5085   0.950   4.571   3.646
 1707TIP3    H2 5086   0.844   4.555   3.539
 1708TIP3   OH2 5087   4.038   4.078   4.615
 1708TIP3    H1 5088   4.055   4.052   4.706
 1708TIP3    H2 5089   4.030   4.173   4.618
 1709TIP3   OH2 5090   5.180   3.658   0.895
 1709TIP3    H1 5091   5.263   3.702   0.880
 1709TIP3    H2 5092   5.194   3.608   0.975
 1710TIP3   OH2 5093   1.726   4.757   1.184
 1710TIP3    H1 5094   1.751   4.685   1.126
 1710TIP3    H2 5095   1.763   4.733   1.269
 1711TIP3   OH2 5096   4.533   5.651   0.883
 1711TIP3    H1 5097   4.470   5.691   0.822
 1711TIP3    H2 5098   4.548   5.718   0.950
 1712TIP3   OH2 5099   6.594   0.339   4.706
 1712TIP3    H1 5100   6.666   0.398   4.729
 1712TIP3    H2 5101   6.549   0.383   4.633
 1713TIP3   OH2 5102   0.337   2.469   5.376
 1713TIP3    H1 5103   0.368   2.559   5.369
 1713TIP3    H2 5104   0.409   2.417   5.340
 1714TIP3   OH2 5105   1.119   0.638   0.234
 1714TIP3    H1 5106   1.099   0.554   0.274
 1714TIP3    H2 5107   1.131   0.698   0.308
 1715TIP3   OH2 5108   3.302   2.593   0.491
 1715TIP3    H1 5109   3.235   2.648   0.452
 1715TIP3    H2 5110   3.254   2.517   0.524
 1716TIP3   OH2 5111   0.173   2.448   1.996
 1716TIP3    H1 5112   0.245   2.402   2.039
 1716TIP3    H2 5113   0.189   2.541   2.014
 1717TIP3   OH2 5114   4.415   3.033   5.560
 1717TIP3    H1 5115   4.351   2.966   5.537
 1717TIP3    H2 5116   4.498   2.999   5.525
 1718TIP3   OH2 5117   5.684   3.295   1.515
 1718TIP3    H1 5118   5.648   3.214   1.553
 1718TIP3    H2 5119   5.608   3.346   1.490
 1719TIP3   OH2 5120   5.467   6.504   1.671
 1719TIP3    H1 5121   5.430   6.418   1.693
 1719TIP3    H2 5122   5.439   6.519   1.581
 1720TIP3   OH2 5123   4.610   4.309   5.268
 1720TIP3    H1 5124   4.673   4.381   5.266
 1720TIP3    H2 5125   4.630   4.259   5.189
 1721TIP3   OH2 5126   3.296   3.841   1.606
 1721TIP3    H1 5127   3.328   3.872   1.522
 1721TIP3    H2 5128   3.371   3.847   1.665
 1722TIP3   OH2 5129   0.868   3.141   4.126
 1722TIP3    H1 5130   0.861   3.101   4.040
 1722TIP3    H2 5131   0.807   3.215   4.123
 1723TIP3   OH2 5132   3.208   1.709   2.102
 1723TIP3    H1 5133   3.186   1.796   2.069
 1723TIP3    H2 5134   3.290   1.722   2.150
 1724TIP3   OH2 5135   3.328   2.116   3.155
 1724TIP3    H1 5136   3.256   2.066   3.192
 1724TIP3    H2 5137   3.351   2.069   3.075
 1725TIP3   OH2 5138   6.047   5.941   5.517
 1725TIP3    H1 5139   5.989   5.880   5.472
 1725TIP3    H2 5140   6.018   5.939   5.608
 1726TIP3   OH2 5141   5.842   6.136   1.178
 1726TIP3    H1 5142   5.890   6.115   1.259
 1726TIP3    H2 5143   5.908   6.129   1.109
 1727TIP3   OH2 5144   2.309   5.720   2.518
 1727TIP3    H1 5145   2.364   5.755   2.448
 1727TIP3    H2 5146   2.236   5.677   2.472
 1728TIP3   OH2 5147   5.908   4.614   3.528
 1728TIP3    H1 5148   5.886   4.618   3.621
 1728TIP3    H2 5149   5.846   4.673   3.485
 1729TIP3   OH2 5150   4.066   2.277   1.158
 1729TIP3    H1 5151   4.135   2.217   1.188
 1729TIP3    H2 5152   4.035   2.319   1.238
 1730TIP3   OH2 5153   6.642   4.542   2.044
 1730TIP3    H1 5154   6.629   4.540   1.949
 1730TIP3    H2 5155   6.575   4.482   2.078
 1731TIP3   OH2 5156   5.421   6.283   4.203
 1731TIP3    H1 5157   5.458   6.233   4.130
 1731TIP3    H2 5158   5.383   6.360   4.162
 1732TIP3   OH2 5159   4.725   0.388   0.730
 1732TIP3    H1 5160   4.775   0.349   0.658
 1732TIP3    H2 5161   4.790   0.435   0.782
 1733TIP3   OH2 5162   3.018   1.443   0.335
 1733TIP3    H1 5163   2.948   1.474   0.278
 1733TIP3    H2 5164   3.094   1.495   0.309
 1734TIP3   OH2 5165   5.659   2.909   5.066
 1734TIP3    H1 5166   5.598   2.963   5.016
 1734TIP3    H2 5167   5.670   2.831   5.012
 1735TIP3   OH2 5168   1.949   3.897   4.531
 1735TIP3    H1 5169   1.869   3.847   4.548
 1735TIP3    H2 5170   1.943   3.971   4.592
 1736TIP3   OH2 5171   4.824   5.366   3.330
 1736TIP3    H1 5172   4.787   5.300   3.270
 1736TIP3    H2 5173   4.775   5.446   3.310
 1737TIP3   OH2 5174   5.367   1.091   3.996
 1737TIP3    H1 5175   5.347   1.038   4.074
 1737TIP3    H2 5176   5.281   1.108   3.956
 1738TIP3   OH2 5177   3.274   0.520   0.991
 1738TIP3    H1 5178   3.210   0.504   0.921
 1738TIP3    H2 5179   3.251   0.606   1.024
 1739TIP3   OH2 5180   4.034   6.181   1.362
 1739TIP3    H1 5181   4.003   6.097   1.396
 1739TIP3    H2 5182   4.042   6.237   1.439
 1740TIP3   OH2 5183   2.743   0.665   2.439
 1740TIP3    H1 5184   2.658   0.624   2.452
 1740TIP3    H2 5185   2.780   0.620   2.363
 1741TIP3   OH2 5186   6.836   1.140   4.407
 1741TIP3    H1 5187   6.786   1.143   4.489
 1741TIP3    H2 5188   6.921   1.104   4.432
 1742TIP3   OH2 5189   0.419   2.490   4.482
 1742TIP3    H1 5190   0.324   2.493   4.476
 1742TIP3    H2 5191   0.445   2.413   4.433
 1743TIP3   OH2 5192   6.500   3.925   2.586
 1743TIP3    H1 5193   6.576   3.875   2.615
 1743TIP3    H2 5194   6.479   3.889   2.500
 1744TIP3   OH2 5195   0.717   5.423   2.906
 1744TIP3    H1 5196   0.654   5.371   2.855
 1744TIP3    H2 5197   0.790   5.439   2.846
 1745TIP3   OH2 5198   5.461   4.905   1.511
 1745TIP3    H1 5199   5.434   4.951   1.590
 1745TIP3    H2 5200   5.549   4.939   1.493
 1746TIP3   OH2 5201   6.470   5.675   1.191
 1746TIP3    H1 5202   6.456   5.592   1.144
 1746TIP3    H2 5203   6.536   5.721   1.140
 1747TIP3   OH2 5204   2.570   5.444   4.357
 1747TIP3    H1 5205   2.531   5.443   4.270
 1747TIP3    H2 5206   2.661   5.471   4.343
 1748TIP3   OH2 5207   7.079   2.872   5.375
 1748TIP3    H1 5208   7.016   2.939   5.350
 1748TIP3    H2 5209   7.031   2.789   5.366
 1749TIP3   OH2 5210   5.384   1.911   2.964
 1749TIP3    H1 5211   5.335   1.925   3.045
 1749TIP3    H2 5212   5.317   1.895   2.898
 1750TIP3   OH2 5213   0.668   5.295   0.942
 1750TIP3    H1 5214   0.607   5.285   1.015
 1750TIP3    H2 5215   0.707   5.208   0.932
 1751TIP3   OH2 5216   2.573   0.241   0.532
 1751TIP3    H1 5217   2.500   0.228   0.472
 1751TIP3    H2 5218   2.578   0.336   0.544
 1752TIP3   OH2 5219   3.750   0.924   1.603
 1752TIP3    H1 5220   3.788   0.999   1.556
 1752TIP3    H2 5221   3.730   0.860   1.535
 1753TIP3   OH2 5222   0.862   2.189   5.842
 1753TIP3    H1 5223   0.806   2.144   5.906
 1753TIP3    H2 5224   0.821   2.275   5.831
 1754TIP3   OH2 5225   2.819   5.883   3.200
 1754TIP3    H1 5226   2.864   5.933   3.268
 1754TIP3    H2 5227   2.773   5.949   3.148
 1755TIP3   OH2 5228   6.305   4.849   5.839
 1755TIP3    H1 5229   6.231   4.790   5.851
 1755TIP3    H2 5230   6.308   4.902   5.918
 1756TIP3   OH2 5231   0.670   5.173   1.468
 1756TIP3    H1 5232   0.669   5.237   1.539
 1756TIP3    H2 5233   0.629   5.095   1.505
 1757TIP3   OH2 5234   4.082   2.782   5.767
 1757TIP3    H1 5235   4.033   2.718   5.819
 1757TIP3    H2 5236   4.024   2.857   5.760
 1758TIP3   OH2 5237   0.256   0.380   3.312
 1758TIP3    H1 5238   0.241   0.395   3.219
 1758TIP3    H2 5239   0.178   0.334   3.342
 1759TIP3   OH2 5240   7.148   0.647   1.890
 1759TIP3    H1 5241   7.134   0.673   1.981
 1759TIP3    H2 5242   7.076   0.588   1.870
 1760TIP3   OH2 5243   4.311   4.962   0.274
 1760TIP3    H1 5244   4.342   5.050   0.253
 1760TIP3    H2 5245   4.254   4.974   0.350
 1761TIP3   OH2 5246   5.857   5.200   0.562
 1761TIP3    H1 5247   5.805   5.122   0.540
 1761TIP3    H2 5248   5.794   5.272   0.557
 1762TIP3   OH2 5249   0.503   1.834   5.801
 1762TIP3    H1 5250   0.498   1.851   5.707
 1762TIP3    H2 5251   0.412   1.824   5.829
 1763TIP3   OH2 5252   4.947   3.875   0.527
 1763TIP3    H1 5253   4.921   3.793   0.486
 1763TIP3    H2 5254   4.876   3.936   0.505
 1764TIP3   OH2 5255   0.400   5.657   3.254
 1764TIP3    H1 5256   0.475   5.605   3.223
 1764TIP3    H2 5257   0.325   5.619   3.208
 1765TIP3   OH2 5258   0.199   2.707   0.158
 1765TIP3    H1 5259   0.154   2.627   0.185
 1765TIP3    H2 5260   0.130   2.762   0.122
 1766TIP3   OH2 5261   3.292   4.329   0.364
 1766TIP3    H1 5262   3.206   4.369   0.351
 1766TIP3    H2 5263   3.341   4.348   0.284
 1767TIP3   OH2 5264   3.157   4.309   2.348
 1767TIP3    H1 5265   3.067   4.296   2.318
 1767TIP3    H2 5266   3.167   4.250   2.423
 1768TIP3   OH2 5267   6.073   4.582   1.832
 1768TIP3    H1 5268   6.163   4.613   1.820
 1768TIP3    H2 5269   6.061   4.517   1.763
 1769TIP3   OH2 5270   6.031   4.316   2.795
 1769TIP3    H1 5271   6.081   4.239   2.769
 1769TIP3    H2 5272   6.091   4.365   2.853
 1770TIP3   OH2 5273   2.245   5.732   4.632
 1770TIP3    H1 5274   2.315   5.761   4.574
 1770TIP3    H2 5275   2.261   5.639   4.645
 1771TIP3   OH2 5276   6.779   5.682   1.833
 1771TIP3    H1 5277   6.786   5.592   1.866
 1771TIP3    H2 5278   6.717   5.724   1.892
 1772TIP3   OH2 5279   0.460   6.195   1.233
 1772TIP3    H1 5280   0.381   6.247   1.221
 1772TIP3    H2 5281   0.429   6.106   1.247
 1773TIP3   OH2 5282   4.179   3.639   2.090
 1773TIP3    H1 5283   4.198   3.597   2.006
 1773TIP3    H2 5284   4.147   3.568   2.146
 1774TIP3   OH2 5285   6.914   1.369   4.174
 1774TIP3    H1 5286   6.880   1.283   4.149
 1774TIP3    H2 5287   6.887   1.379   4.266
 1775TIP3   OH2 5288   4.606   6.676   3.360
 1775TIP3    H1 5289   4.511   6.683   3.371
 1775TIP3    H2 5290   4.641   6.686   3.449
 1776TIP3   OH2 5291   6.933   2.802   2.383
 1776TIP3    H1 5292   6.970   2.769   2.301
 1776TIP3    H2 5293   7.000   2.859   2.419
 1777TIP3   OH2 5294   1.507   5.411   4.773
 1777TIP3    H1 5295   1.570   5.482   4.784
 1777TIP3    H2 5296   1.434   5.434   4.832
 1778TIP3   OH2 5297   4.258   2.291   1.968
 1778TIP3    H1 5298   4.179   2.238   1.955
 1778TIP3    H2 5299   4.267   2.340   1.886
 1779TIP3   OH2 5300   6.873   0.204   2.711
 1779TIP3    H1 5301   6.811   0.180   2.780
 1779TIP3    H2 5302   6.818   0.233   2.638
 1780TIP3   OH2 5303   2.169   0.699   4.425
 1780TIP3    H1 5304   2.102   0.631   4.435
 1780TIP3    H2 5305   2.119   0.778   4.403
 1781TIP3   OH2 5306   4.796   1.622   2.447
 1781TIP3    H1 5307   4.876   1.578   2.475
 1781TIP3    H2 5308   4.785   1.595   2.355
 1782TIP3   OH2 5309   5.936   2.666   1.741
 1782TIP3    H1 5310   6.028   2.686   1.728
 1782TIP3    H2 5311   5.928   2.650   1.835
 1783TIP3   OH2 5312   3.374   1.326   3.194
 1783TIP3    H1 5313   3.293   1.277   3.179
 1783TIP3    H2 5314   3.411   1.338   3.106
 1784TIP3   OH2 5315   1.199   5.462   4.668
 1784TIP3    H1 5316   1.256   5.538   4.657
 1784TIP3    H2 5317   1.226   5.422   4.750
 1785TIP3   OH2 5318   2.696   4.642   4.177
 1785TIP3    H1 5319   2.689   4.700   4.102
 1785TIP3    H2 5320   2.784   4.605   4.172
 1786TIP3   OH2 5321   4.597   5.175   5.322
 1786TIP3    H1 5322   4.665   5.149   5.260
 1786TIP3    H2 5323   4.604   5.271   5.326
 1787TIP3   OH2 5324   3.615   6.214   0.744
 1787TIP3    H1 5325   3.585   6.161   0.670
 1787TIP3    H2 5326   3.544   6.208   0.808
 1788TIP3   OH2 5327   6.381   6.178   1.680
 1788TIP3    H1 5328   6.293   6.188   1.715
 1788TIP3    H2 5329   6.415   6.267   1.673
 1789TIP3   OH2 5330   6.790   6.476   5.049
 1789TIP3    H1 5331   6.706   6.522   5.055
 1789TIP3    H2 5332   6.811   6.476   4.955
 1790TIP3   OH2 5333   5.096   5.800   4.941
 1790TIP3    H1 5334   5.110   5.729   4.878
 1790TIP3    H2 5335   5.009   5.784   4.977
 1791TIP3   OH2 5336   7.103   4.985   2.938
 1791TIP3    H1 5337   7.182   5.036   2.960
 1791TIP3    H2 5338   7.066   4.961   3.023
 1792TIP3   OH2 5339   6.504   1.917   0.395
 1792TIP3    H1 5340   6.455   1.949   0.470
 1792TIP3    H2 5341   6.596   1.935   0.417
 1793TIP3   OH2 5342   7.063   3.834   5.305
 1793TIP3    H1 5343   7.145   3.795   5.337
 1793TIP3    H2 5344   7.003   3.828   5.379
 1794TIP3   OH2 5345   1.259   0.110   1.560
 1794TIP3    H1 5346   1.225   0.071   1.641
 1794TIP3    H2 5347   1.183   0.152   1.520
 1795TIP3   OH2 5348   3.656   0.104   3.290
 1795TIP3    H1 5349   3.647   0.197   3.310
 1795TIP3    H2 5350   3.566   0.073   3.279
 1796TIP3   OH2 5351   5.717   0.411   2.451
 1796TIP3    H1 5352   5.809   0.415   2.476
 1796TIP3    H2 5353   5.703   0.490   2.399
 1797TIP3   OH2 5354   5.569   6.115   0.386
 1797TIP3    H1 5355   5.571   6.056   0.461
 1797TIP3    H2 5356   5.501   6.178   0.406
 1798TIP3   OH2 5357   1.532   4.189   5.647
 1798TIP3    H1 5358   1.569   4.277   5.640
 1798TIP3    H2 5359   1.449   4.201   5.693
 1799TIP3   OH2 5360   6.907   0.843   4.198
 1799TIP3    H1 5361   6.930   0.754   4.227
 1799TIP3    H2 5362   6.828   0.864   4.249
 1800TIP3   OH2 5363   0.020   4.141   3.864
 1800TIP3    H1 5364   0.066   4.223   3.884
 1800TIP3    H2 5365  -0.071   4.158   3.889
 1801TIP3   OH2 5366   2.503   5.168   5.315
 1801TIP3    H1 5367   2.533   5.189   5.227
 1801TIP3    H2 5368   2.579   5.127   5.357
 1802TIP3   OH2 5369   2.738   2.116   3.433
 1802TIP3    H1 5370   2.756   2.195   3.382
 1802TIP3    H2 5371   2.693   2.148   3.511
 1803TIP3   OH2 5372   2.865   3.750   1.614
 1803TIP3    H1 5373   2.889   3.657   1.612
 1803TIP3    H2 5374   2.772   3.750   1.635
 1804TIP3   OH2 5375   4.436   2.979   5.277
 1804TIP3    H1 5376   4.527   2.959   5.296
 1804TIP3    H2 5377   4.385   2.915   5.327
 1805TIP3   OH2 5378   5.193   4.774   2.566
 1805TIP3    H1 5379   5.102   4.781   2.535
 1805TIP3    H2 5380   5.195   4.690   2.613
 1806TIP3   OH2 5381   2.007   2.612   1.584
 1806TIP3    H1 5382   1.972   2.586   1.499
 1806TIP3    H2 5383   1.959   2.558   1.647
 1807TIP3   OH2 5384   2.583   6.775   0.629
 1807TIP3    H1 5385   2.490   6.754   0.615
 1807TIP3    H2 5386   2.607   6.727   0.708
 1808TIP3   OH2 5387   2.431   0.439   3.686
 1808TIP3    H1 5388   2.387   0.425   3.769
 1808TIP3    H2 5389   2.515   0.394   3.695
 1809TIP3   OH2 5390   1.241   4.604   3.290
 1809TIP3    H1 5391   1.147   4.623   3.286
 1809TIP3    H2 5392   1.269   4.641   3.374
 1810TIP3   OH2 5393   2.483   2.684   5.664
 1810TIP3    H1 5394   2.547   2.692   5.593
 1810TIP3    H2 5395   2.520   2.616   5.721
 1811TIP3   OH2 5396   2.377   2.564   5.277
 1811TIP3    H1 5397   2.411   2.515   5.202
 1811TIP3    H2 5398   2.312   2.624   5.239
 1812TIP3   OH2 5399   1.897   5.183   5.491
 1812TIP3    H1 5400   1.828   5.119   5.509
 1812TIP3    H2 5401   1.865   5.234   5.416
 1813TIP3   OH2 5402   2.917   0.733   4.130
 1813TIP3    H1 5403   2.963   0.660   4.088
 1813TIP3    H2 5404   2.957   0.738   4.217
 1814TIP3   OH2 5405   1.112   5.497   3.303
 1814TIP3    H1 5406   1.049   5.568   3.312
 1814TIP3    H2 5407   1.075   5.426   3.355
 1815TIP3   OH2 5408   2.989   0.257   0.369
 1815TIP3    H1 5409   2.944   0.312   0.433
 1815TIP3    H2 5410   3.002   0.314   0.294
 1816TIP3   OH2 5411   0.922   6.707   1.804
 1816TIP3    H1 5412   0.922   6.617   1.836
 1816TIP3    H2 5413   0.970   6.703   1.721
 1817TIP3   OH2 5414   6.737   6.505   5.309
 1817TIP3    H1 5415   6.781   6.506   5.224
 1817TIP3    H2 5416   6.784   6.439   5.359
 1818TIP3   OH2 5417   4.354   2.743   5.772
 1818TIP3    H1 5418   4.406   2.817   5.803
 1818TIP3    H2 5419   4.264   2.777   5.768
 1819TIP3   OH2 5420   1.390   6.065   2.174
 1819TIP3    H1 5421   1.363   6.000   2.109
 1819TIP3    H2 5422   1.486   6.064   2.172
 1820TIP3   OH2 5423   5.779   2.326   2.603
 1820TIP3    H1 5424   5.844   2.392   2.581
 1820TIP3    H2 5425   5.817   2.244   2.574
 1821TIP3   OH2 5426   6.967   1.383   1.527
 1821TIP3    H1 5427   6.876   1.358   1.544
 1821TIP3    H2 5428   6.965   1.424   1.441
 1822TIP3   OH2 5429   6.193   2.082   2.139
 1822TIP3    H1 5430   6.193   2.168   2.182
 1822TIP3    H2 5431   6.112   2.080   2.089
 1823TIP3   OH2 5432   1.318   4.258   0.447
 1823TIP3    H1 5433   1.239   4.254   0.393
 1823TIP3    H2 5434   1.381   4.203   0.401
 1824TIP3   OH2 5435   6.127   3.324   2.251
 1824TIP3    H1 5436   6.045   3.364   2.221
 1824TIP3    H2 5437   6.176   3.397   2.290
 1825TIP3   OH2 5438   5.068   4.787   4.028
 1825TIP3    H1 5439   5.133   4.843   3.984
 1825TIP3    H2 5440   5.068   4.818   4.119
 1826TIP3   OH2 5441   5.681   2.651   3.086
 1826TIP3    H1 5442   5.684   2.747   3.088
 1826TIP3    H2 5443   5.732   2.627   3.008
 1827TIP3   OH2 5444   1.360   3.819   5.262
 1827TIP3    H1 5445   1.384   3.903   5.224
 1827TIP3    H2 5446   1.265   3.815   5.255
 1828TIP3   OH2 5447   2.013   0.488   3.461
 1828TIP3    H1 5448   2.058   0.450   3.386
 1828TIP3    H2 5449   2.050   0.577   3.469
 1829TIP3   OH2 5450   1.485   1.986   0.145
 1829TIP3    H1 5451   1.428   1.911   0.163
 1829TIP3    H2 5452   1.445   2.028   0.069
 1830TIP3   OH2 5453   5.537   2.775   0.029
 1830TIP3    H1 5454   5.621   2.818   0.019
 1830TIP3    H2 5455   5.558   2.690   0.067
 1831TIP3   OH2 5456   4.442   5.628   3.311
 1831TIP3    H1 5457   4.386   5.550   3.306
 1831TIP3    H2 5458   4.381   5.701   3.320
 1832TIP3   OH2 5459   2.625   5.340   1.509
 1832TIP3    H1 5460   2.710   5.332   1.552
 1832TIP3    H2 5461   2.588   5.421   1.543
 1833TIP3   OH2 5462   4.551   3.761   3.679
 1833TIP3    H1 5463   4.596   3.817   3.743
 1833TIP3    H2 5464   4.616   3.747   3.610
 1834TIP3   OH2 5465   1.053   1.522   3.098
 1834TIP3    H1 5466   1.116   1.559   3.035
 1834TIP3    H2 5467   1.042   1.431   3.070
 1835TIP3   OH2 5468   5.297   5.097   4.831
 1835TIP3    H1 5469   5.368   5.153   4.799
 1835TIP3    H2 5470   5.226   5.109   4.768
 1836TIP3   OH2 5471   0.386   5.488   1.414
 1836TIP3    H1 5472   0.406   5.574   1.376
 1836TIP3    H2 5473   0.471   5.446   1.424
 1837TIP3   OH2 5474   6.256   0.724   2.003
 1837TIP3    H1 5475   6.172   0.713   2.048
 1837TIP3    H2 5476   6.265   0.819   1.993
 1838TIP3   OH2 5477   4.358   6.747   0.181
 1838TIP3    H1 5478   4.402   6.673   0.221
 1838TIP3    H2 5479   4.420   6.778   0.114
 1839TIP3   OH2 5480   5.038   4.253   3.265
 1839TIP3    H1 5481   5.011   4.193   3.335
 1839TIP3    H2 5482   5.026   4.340   3.302
 1840TIP3   OH2 5483   5.769   4.396   2.928
 1840TIP3    H1 5484   5.858   4.360   2.925
 1840TIP3    H2 5485   5.779   4.486   2.897
 1841TIP3   OH2 5486   5.078   4.453   4.662
 1841TIP3    H1 5487   4.998   4.490   4.698
 1841TIP3    H2 5488   5.048   4.377   4.610
 1842TIP3   OH2 5489   6.170   4.972   1.520
 1842TIP3    H1 5490   6.234   4.988   1.588
 1842TIP3    H2 5491   6.169   5.053   1.468
 1843TIP3   OH2 5492   6.719   2.943   4.192
 1843TIP3    H1 5493   6.724   2.861   4.143
 1843TIP3    H2 5494   6.663   2.922   4.267
 1844TIP3   OH2 5495   3.283   6.529   5.205
 1844TIP3    H1 5496   3.329   6.611   5.226
 1844TIP3    H2 5497   3.225   6.515   5.281
 1845TIP3   OH2 5498   2.857   1.015   4.634
 1845TIP3    H1 5499   2.830   1.101   4.601
 1845TIP3    H2 5500   2.811   0.952   4.578
 1846TIP3   OH2 5501   6.318   1.889   1.177
 1846TIP3    H1 5502   6.280   1.940   1.249
 1846TIP3    H2 5503   6.273   1.805   1.180
 1847TIP3   OH2 5504   4.367   2.579   3.268
 1847TIP3    H1 5505   4.445   2.606   3.219
 1847TIP3    H2 5506   4.401   2.526   3.340
 1848TIP3   OH2 5507   4.196   3.576   1.832
 1848TIP3    H1 5508   4.274   3.628   1.812
 1848TIP3    H2 5509   4.150   3.570   1.748
 1849TIP3   OH2 5510   2.532   3.833   5.615
 1849TIP3    H1 5511   2.477   3.873   5.682
 1849TIP3    H2 5512   2.482   3.844   5.534
 1850TIP3   OH2 5513   3.614   2.100   2.452
 1850TIP3    H1 5514   3.688   2.041   2.466
 1850TIP3    H2 5515   3.572   2.067   2.372
 1851TIP3   OH2 5516   1.726   3.801   2.859
 1851TIP3    H1 5517   1.763   3.746   2.791
 1851TIP3    H2 5518   1.801   3.829   2.911
 1852TIP3   OH2 5519   5.441   4.555   0.170
 1852TIP3    H1 5520   5.455   4.647   0.192
 1852TIP3    H2 5521   5.351   4.537   0.198
 1853TIP3   OH2 5522   3.796   0.714   4.260
 1853TIP3    H1 5523   3.876   0.709   4.208
 1853TIP3    H2 5524   3.783   0.626   4.293
 1854TIP3   OH2 5525   5.536   6.121   0.794
 1854TIP3    H1 5526   5.630   6.108   0.782
 1854TIP3    H2 5527   5.524   6.122   0.889
 1855TIP3   OH2 5528   0.872   2.347   1.481
 1855TIP3    H1 5529   0.777   2.339   1.487
 1855TIP3    H2 5530   0.893   2.425   1.532
 1856TIP3   OH2 5531   0.622   2.031   1.047
 1856TIP3    H1 5532   0.674   1.951   1.054
 1856TIP3    H2 5533   0.583   2.042   1.134
 1857TIP3   OH2 5534   0.690   2.431   2.024
 1857TIP3    H1 5535   0.766   2.466   2.069
 1857TIP3    H2 5536   0.681   2.485   1.946
 1858TIP3   OH2 5537   1.955   4.287   5.638
 1858TIP3    H1 5538   1.877   4.343   5.636
 1858TIP3    H2 5539   2.025   4.344   5.607
 1859TIP3   OH2 5540   6.205   5.112   0.792
 1859TIP3    H1 5541   6.246   5.054   0.728
 1859TIP3    H2 5542   6.270   5.181   0.807
 1860TIP3   OH2 5543   3.607   4.737   1.882
 1860TIP3    H1 5544   3.645   4.705   1.800
 1860TIP3    H2 5545   3.594   4.658   1.934
 1861TIP3   OH2 5546   0.140   3.643   1.228
 1861TIP3    H1 5547   0.132   3.572   1.165
 1861TIP3    H2 5548   0.054   3.687   1.226
 1862TIP3   OH2 5549   2.138   6.021   5.273
 1862TIP3    H1 5550   2.124   5.931   5.244
 1862TIP3    H2 5551   2.181   6.013   5.358
 1863TIP3   OH2 5552   2.461   6.623   2.220
 1863TIP3    H1 5553   2.423   6.665   2.297
 1863TIP3    H2 5554   2.466   6.530   2.244
 1864TIP3   OH2 5555   3.864   1.092   3.790
 1864TIP3    H1 5556   3.885   1.040   3.713
 1864TIP3    H2 5557   3.771   1.111   3.782
 1865TIP3   OH2 5558   1.687   1.551   4.870
 1865TIP3    H1 5559   1.763   1.536   4.927
 1865TIP3    H2 5560   1.687   1.476   4.811
 1866TIP3   OH2 5561   3.705   6.626   2.207
 1866TIP3    H1 5562   3.674   6.716   2.218
 1866TIP3    H2 5563   3.754   6.627   2.124
 1867TIP3   OH2 5564   5.442   4.779   2.412
 1867TIP3    H1 5565   5.441   4.689   2.380
 1867TIP3    H2 5566   5.360   4.788   2.461
 1868TIP3   OH2 5567   1.489   2.940   5.079
 1868TIP3    H1 5568   1.461   3.013   5.024
 1868TIP3    H2 5569   1.572   2.911   5.041
 1869TIP3   OH2 5570   2.952   3.174   1.694
 1869TIP3    H1 5571   2.958   3.152   1.601
 1869TIP3    H2 5572   2.935   3.091   1.737
 1870TIP3   OH2 5573   2.385   1.895   0.139
 1870TIP3    H1 5574   2.425   1.972   0.179
 1870TIP3    H2 5575   2.419   1.821   0.189
 1871TIP3   OH2 5576   2.688   0.679   0.785
 1871TIP3    H1 5577   2.702   0.740   0.857
 1871TIP3    H2 5578   2.768   0.627   0.782
 1872TIP3   OH2 5579   6.966   5.126   4.448
 1872TIP3    H1 5580   7.034   5.060   4.464
 1872TIP3    H2 5581   7.006   5.209   4.475
 1873TIP3   OH2 5582   6.445   4.721   1.705
 1873TIP3    H1 5583   6.453   4.814   1.680
 1873TIP3    H2 5584   6.353   4.701   1.692
 1874TIP3   OH2 5585   5.698   6.351   5.528
 1874TIP3    H1 5586   5.763   6.304   5.475
 1874TIP3    H2 5587   5.744   6.371   5.610
 1875TIP3   OH2 5588   2.462   3.340   1.153
 1875TIP3    H1 5589   2.465   3.407   1.085
 1875TIP3    H2 5590   2.506   3.379   1.228
 1876TIP3   OH2 5591   6.226   0.919   4.757
 1876TIP3    H1 5592   6.296   0.965   4.804
 1876TIP3    H2 5593   6.152   0.918   4.818
 1877TIP3   OH2 5594   6.569   4.400   0.727
 1877TIP3    H1 5595   6.523   4.342   0.667
 1877TIP3    H2 5596   6.611   4.465   0.671
 1878TIP3   OH2 5597   3.503   6.438   1.572
 1878TIP3    H1 5598   3.486   6.411   1.662
 1878TIP3    H2 5599   3.573   6.381   1.541
 1879TIP3   OH2 5600   1.471   4.028   4.896
 1879TIP3    H1 5601   1.428   4.079   4.827
 1879TIP3    H2 5602   1.411   3.956   4.913
 1880TIP3   OH2 5603   6.191   2.623   2.956
 1880TIP3    H1 5604   6.115   2.676   2.980
 1880TIP3    H2 5605   6.234   2.603   3.039
 1881TIP3   OH2 5606   1.210   2.066   3.955
 1881TIP3    H1 5607   1.160   2.139   3.991
 1881TIP3    H2 5608   1.273   2.107   3.896
 1882TIP3   OH2 5609   6.630   3.612   2.490
 1882TIP3    H1 5610   6.646   3.577   2.577
 1882TIP3    H2 5611   6.695   3.681   2.479
 1883TIP3   OH2 5612   4.994   3.453   2.477
 1883TIP3    H1 5613   4.965   3.374   2.523
 1883TIP3    H2 5614   4.920   3.475   2.420
 1884TIP3   OH2 5615   1.948   2.897   5.791
 1884TIP3    H1 5616   1.868   2.919   5.838
 1884TIP3    H2 5617   1.976   2.813   5.827
 1885TIP3   OH2 5618   6.259   4.095   3.327
 1885TIP3    H1 5619   6.320   4.169   3.323
 1885TIP3    H2 5620   6.222   4.090   3.239
 1886TIP3   OH2 5621   4.445   5.526   3.751
 1886TIP3    H1 5622   4.366   5.548   3.703
 1886TIP3    H2 5623   4.477   5.445   3.710
 1887TIP3   OH2 5624   4.125   5.112   0.057
 1887TIP3    H1 5625   4.215   5.146   0.047
 1887TIP3    H2 5626   4.106   5.072  -0.027
 1888TIP3   OH2 5627   3.593   3.048   4.449
 1888TIP3    H1 5628   3.613   2.974   4.505
 1888TIP3    H2 5629   3.526   3.016   4.389
 1889TIP3   OH2 5630   6.880   0.926   3.930
 1889TIP3    H1 5631   6.877   0.907   4.024
 1889TIP3    H2 5632   6.802   0.978   3.913
 1890TIP3   OH2 5633   1.406   0.521   2.496
 1890TIP3    H1 5634   1.331   0.469   2.468
 1890TIP3    H2 5635   1.474   0.503   2.432
 1891TIP3   OH2 5636   5.895   0.596   1.755
 1891TIP3    H1 5637   5.950   0.601   1.833
 1891TIP3    H2 5638   5.930   0.523   1.705
 1892TIP3   OH2 5639   0.038   1.558   4.781
 1892TIP3    H1 5640  -0.006   1.608   4.713
 1892TIP3    H2 5641   0.048   1.470   4.744
 1893TIP3   OH2 5642   4.526   1.063   0.183
 1893TIP3    H1 5643   4.440   1.031   0.210
 1893TIP3    H2 5644   4.555   1.118   0.255
 1894TIP3   OH2 5645   0.301   2.869   0.694
 1894TIP3    H1 5646   0.262   2.782   0.684
 1894TIP3    H2 5647   0.395   2.854   0.689
 1895TIP3   OH2 5648   2.112   2.759   4.887
 1895TIP3    H1 5649   2.038   2.700   4.905
 1895TIP3    H2 5650   2.108   2.825   4.956
 1896TIP3   OH2 5651   5.253   6.373   3.445
 1896TIP3    H1 5652   5.175   6.368   3.390
 1896TIP3    H2 5653   5.233   6.316   3.519
 1897TIP3   OH2 5654   4.295   2.822   5.452
 1897TIP3    H1 5655   4.206   2.856   5.440
 1897TIP3    H2 5656   4.284   2.727   5.452
 1898TIP3   OH2 5657   2.742   4.157   4.960
 1898TIP3    H1 5658   2.825   4.189   4.925
 1898TIP3    H2 5659   2.695   4.125   4.883
 1899TIP3   OH2 5660   6.796   3.825   0.508
 1899TIP3    H1 5661   6.888   3.804   0.490
 1899TIP3    H2 5662   6.759   3.846   0.422
 1900TIP3   OH2 5663   5.343   6.096   3.226
 1900TIP3    H1 5664   5.302   6.114   3.142
 1900TIP3    H2 5665   5.437   6.099   3.209
 1901TIP3   OH2 5666   1.248   2.004   2.821
 1901TIP3    H1 5667   1.199   1.950   2.759
 1901TIP3    H2 5668   1.229   1.965   2.906
 1902TIP3   OH2 5669   4.090   2.099   1.860
 1902TIP3    H1 5670   4.067   2.145   1.779
 1902TIP3    H2 5671   4.040   2.017   1.856
 1903TIP3   OH2 5672   1.338   4.183   2.759
 1903TIP3    H1 5673   1.326   4.184   2.854
 1903TIP3    H2 5674   1.418   4.233   2.744
 1904TIP3   OH2 5675   0.225   3.437   1.675
 1904TIP3    H1 5676   0.158   3.423   1.742
 1904TIP3    H2 5677   0.231   3.353   1.629
 1905TIP3   OH2 5678   3.091   4.340   2.775
 1905TIP3    H1 5679   3.033   4.410   2.745
 1905TIP3    H2 5680   3.108   4.360   2.867
 1906TIP3   OH2 5681   7.181   6.171   1.883
 1906TIP3    H1 5682   7.177   6.093   1.938
 1906TIP3    H2 5683   7.147   6.241   1.939
 1907TIP3   OH2 5684   0.388   2.151   5.249
 1907TIP3    H1 5685   0.387   2.061   5.280
 1907TIP3    H2 5686   0.297   2.180   5.254
 1908TIP3   OH2 5687   6.713   3.058   1.258
 1908TIP3    H1 5688   6.743   3.097   1.340
 1908TIP3    H2 5689   6.678   3.131   1.207
 1909TIP3   OH2 5690   2.597   4.968   2.319
 1909TIP3    H1 5691   2.543   5.045   2.338
 1909TIP3    H2 5692   2.684   4.992   2.352
 1910TIP3   OH2 5693   6.578   1.579   1.846
 1910TIP3    H1 5694   6.521   1.648   1.881
 1910TIP3    H2 5695   6.518   1.506   1.830
 1911TIP3   OH2 5696   0.130   2.337   1.556
 1911TIP3    H1 5697   0.098   2.353   1.645
 1911TIP3    H2 5698   0.190   2.409   1.539
 1912TIP3   OH2 5699   0.799   4.824   5.313
 1912TIP3    H1 5700   0.858   4.899   5.324
 1912TIP3    H2 5701   0.772   4.829   5.221
 1913TIP3   OH2 5702   2.500   1.541   0.466
 1913TIP3    H1 5703   2.452   1.506   0.541
 1913TIP3    H2 5704   2.539   1.464   0.424
 1914TIP3   OH2 5705   6.332   3.810   1.263
 1914TIP3    H1 5706   6.370   3.748   1.202
 1914TIP3    H2 5707   6.293   3.878   1.207
 1915TIP3   OH2 5708   1.434   4.345   4.359
 1915TIP3    H1 5709   1.477   4.415   4.407
 1915TIP3    H2 5710   1.434   4.271   4.420
 1916TIP3   OH2 5711   4.295   3.098   2.792
 1916TIP3    H1 5712   4.250   3.014   2.782
 1916TIP3    H2 5713   4.225   3.163   2.796
 1917TIP3   OH2 5714   4.407   4.639   3.975
 1917TIP3    H1 5715   4.490   4.591   3.970
 1917TIP3    H2 5716   4.341   4.570   3.988
 1918TIP3   OH2 5717   3.419   2.824   3.102
 1918TIP3    H1 5718   3.442   2.916   3.114
 1918TIP3    H2 5719   3.501   2.777   3.118
 1919TIP3   OH2 5720   2.323   1.748   1.892
 1919TIP3    H1 5721   2.385   1.697   1.841
 1919TIP3    H2 5722   2.351   1.839   1.881
 1920TIP3   OH2 5723   1.965   4.075   5.457
 1920TIP3    H1 5724   1.971   4.153   5.512
 1920TIP3    H2 5725   1.876   4.042   5.473
 1921TIP3   OH2 5726   1.972   0.458   5.395
 1921TIP3    H1 5727   2.033   0.447   5.322
 1921TIP3    H2 5728   1.964   0.371   5.433
 1922TIP3   OH2 5729   3.225   5.391   1.221
 1922TIP3    H1 5730   3.273   5.387   1.304
 1922TIP3    H2 5731   3.191   5.302   1.209
 1923TIP3   OH2 5732   7.027   5.269   1.987
 1923TIP3    H1 5733   7.052   5.184   1.949
 1923TIP3    H2 5734   6.945   5.251   2.033
 1924TIP3   OH2 5735   1.057   4.178   1.965
 1924TIP3    H1 5736   1.015   4.112   1.910
 1924TIP3    H2 5737   1.062   4.138   2.052
 1925TIP3   OH2 5738   4.897   0.380   5.288
 1925TIP3    H1 5739   4.988   0.406   5.278
 1925TIP3    H2 5740   4.847   0.459   5.265
 1926TIP3   OH2 5741   7.156   2.953   2.808
 1926TIP3    H1 5742   7.242   2.935   2.771
 1926TIP3    H2 5743   7.168   3.033   2.860
 1927TIP3   OH2 5744   2.083   6.558   2.420
 1927TIP3    H1 5745   2.158   6.505   2.393
 1927TIP3    H2 5746   2.087   6.559   2.516
 1928TIP3   OH2 5747   4.130   6.186   3.585
 1928TIP3    H1 5748   4.215   6.141   3.580
 1928TIP3    H2 5749   4.077   6.129   3.642
 1929TIP3   OH2 5750   0.027   6.458   2.533
 1929TIP3    H1 5751  -0.016   6.392   2.478
 1929TIP3    H2 5752   0.105   6.413   2.568
 1930TIP3   OH2 5753   3.056   4.256   5.797
 1930TIP3    H1 5754   3.072   4.165   5.823
 1930TIP3    H2 5755   3.025   4.299   5.876
 1931TIP3   OH2 5756   5.295   4.229   2.836
 1931TIP3    H1 5757   5.366   4.175   2.800
 1931TIP3    H2 5758   5.215   4.180   2.815
 1932TIP3   OH2 5759   6.466   5.892   1.417
 1932TIP3    H1 5760   6.399   5.958   1.433
 1932TIP3    H2 5761   6.517   5.890   1.498
 1933TIP3   OH2 5762   1.864   4.988   2.744
 1933TIP3    H1 5763   1.830   4.951   2.663
 1933TIP3    H2 5764   1.807   4.952   2.813
 1934TIP3   OH2 5765   4.523   4.196   2.148
 1934TIP3    H1 5766   4.530   4.259   2.220
 1934TIP3    H2 5767   4.462   4.237   2.087
 1935TIP3   OH2 5768   5.519   5.152   1.867
 1935TIP3    H1 5769   5.526   5.174   1.960
 1935TIP3    H2 5770   5.607   5.167   1.832
 1936TIP3   OH2 5771   2.860   3.086   5.136
 1936TIP3    H1 5772   2.855   3.039   5.220
 1936TIP3    H2 5773   2.954   3.089   5.117
 1937TIP3   OH2 5774   1.963   6.415   5.292
 1937TIP3    H1 5775   1.920   6.441   5.373
 1937TIP3    H2 5776   2.047   6.378   5.320
 1938TIP3   OH2 5777   4.543   6.242   1.494
 1938TIP3    H1 5778   4.576   6.322   1.534
 1938TIP3    H2 5779   4.618   6.207   1.446
 1939TIP3   OH2 5780   0.367   0.660   5.703
 1939TIP3    H1 5781   0.362   0.629   5.793
 1939TIP3    H2 5782   0.447   0.621   5.668
 1940TIP3   OH2 5783   4.499   5.297   2.999
 1940TIP3    H1 5784   4.513   5.271   3.090
 1940TIP3    H2 5785   4.587   5.314   2.964
 1941TIP3   OH2 5786   0.856   3.596   2.864
 1941TIP3    H1 5787   0.919   3.602   2.792
 1941TIP3    H2 5788   0.771   3.598   2.822
 1942TIP3   OH2 5789   2.580   1.175   5.666
 1942TIP3    H1 5790   2.530   1.097   5.690
 1942TIP3    H2 5791   2.625   1.150   5.585
 1943TIP3   OH2 5792   1.116   4.734   0.615
 1943TIP3    H1 5793   1.059   4.797   0.571
 1943TIP3    H2 5794   1.115   4.657   0.559
 1944TIP3   OH2 5795   2.223   3.722   5.778
 1944TIP3    H1 5796   2.265   3.797   5.820
 1944TIP3    H2 5797   2.134   3.752   5.758
 1945TIP3   OH2 5798   5.630   0.906   4.256
 1945TIP3    H1 5799   5.629   0.812   4.242
 1945TIP3    H2 5800   5.719   0.933   4.231
 1946TIP3   OH2 5801   0.631   3.355   2.358
 1946TIP3    H1 5802   0.625   3.330   2.266
 1946TIP3    H2 5803   0.555   3.412   2.373
 1947TIP3   OH2 5804   5.582   6.202   3.997
 1947TIP3    H1 5805   5.614   6.114   3.978
 1947TIP3    H2 5806   5.554   6.237   3.912
 1948TIP3   OH2 5807   4.635   3.789   3.005
 1948TIP3    H1 5808   4.565   3.736   3.042
 1948TIP3    H2 5809   4.650   3.751   2.918
 1949TIP3   OH2 5810   1.581   2.598   3.795
 1949TIP3    H1 5811   1.500   2.624   3.752
 1949TIP3    H2 5812   1.568   2.506   3.817
 1950TIP3   OH2 5813   2.132   6.465   2.154
 1950TIP3    H1 5814   2.205   6.422   2.199
 1950TIP3    H2 5815   2.156   6.557   2.152
 1951TIP3   OH2 5816   5.189   4.301   2.323
 1951TIP3    H1 5817   5.142   4.300   2.406
 1951TIP3    H2 5818   5.272   4.256   2.342
 1952TIP3   OH2 5819   0.153   2.192   1.885
 1952TIP3    H1 5820   0.169   2.283   1.909
 1952TIP3    H2 5821   0.191   2.141   1.957
 1953TIP3   OH2 5822   4.136   2.440   0.043
 1953TIP3    H1 5823   4.083   2.383   0.099
 1953TIP3    H2 5824   4.222   2.397   0.041
 1954TIP3   OH2 5825   5.985   3.351   4.927
 1954TIP3    H1 5826   5.959   3.365   5.018
 1954TIP3    H2 5827   5.950   3.264   4.905
 1955TIP3   OH2 5828   1.844   6.172   5.466
 1955TIP3    H1 5829   1.750   6.175   5.448
 1955TIP3    H2 5830   1.881   6.126   5.391
 1956TIP3   OH2 5831   4.845   2.859   1.454
 1956TIP3    H1 5832   4.885   2.904   1.528
 1956TIP3    H2 5833   4.919   2.828   1.402
 1957TIP3   OH2 5834   6.269   6.112   2.440
 1957TIP3    H1 5835   6.357   6.073   2.439
 1957TIP3    H2 5836   6.210   6.037   2.441
 1958TIP3   OH2 5837   0.210   3.103   4.444
 1958TIP3    H1 5838   0.263   3.042   4.495
 1958TIP3    H2 5839   0.206   3.064   4.357
 1959TIP3   OH2 5840   4.654   2.860   1.725
 1959TIP3    H1 5841   4.690   2.806   1.796
 1959TIP3    H2 5842   4.669   2.950   1.755
 1960TIP3   OH2 5843   5.120   0.614   0.945
 1960TIP3    H1 5844   5.160   0.671   0.879
 1960TIP3    H2 5845   5.028   0.641   0.946
 1961TIP3   OH2 5846   5.747   2.337   3.645
 1961TIP3    H1 5847   5.755   2.273   3.716
 1961TIP3    H2 5848   5.654   2.332   3.620
 1962TIP3   OH2 5849   7.063   2.893   0.272
 1962TIP3    H1 5850   7.124   2.824   0.299
 1962TIP3    H2 5851   7.079   2.965   0.332
 1963TIP3   OH2 5852   5.490   2.278   1.895
 1963TIP3    H1 5853   5.578   2.240   1.905
 1963TIP3    H2 5854   5.507   2.369   1.869
 1964TIP3   OH2 5855   5.272   0.045   3.875
 1964TIP3    H1 5856   5.274   0.009   3.964
 1964TIP3    H2 5857   5.187   0.089   3.869
 1965TIP3   OH2 5858   5.402   3.587   4.942
 1965TIP3    H1 5859   5.357   3.656   4.893
 1965TIP3    H2 5860   5.490   3.585   4.905
 1966TIP3   OH2 5861   1.354   1.239   0.809
 1966TIP3    H1 5862   1.322   1.180   0.877
 1966TIP3    H2 5863   1.287   1.307   0.803
 1967TIP3   OH2 5864   4.308   0.604   0.394
 1967TIP3    H1 5865   4.283   0.511   0.390
 1967TIP3    H2 5866   4.351   0.621   0.310
 1968TIP3   OH2 5867   5.793   2.003   2.882
 1968TIP3    H1 5868   5.753   1.938   2.940
 1968TIP3    H2 5869   5.763   2.088   2.916
 1969TIP3   OH2 5870   2.437   3.926   5.315
 1969TIP3    H1 5871   2.443   3.831   5.326
 1969TIP3    H2 5872   2.354   3.940   5.270
 1970TIP3   OH2 5873   1.778   3.288   5.753
 1970TIP3    H1 5874   1.710   3.242   5.802
 1970TIP3    H2 5875   1.844   3.221   5.735
 1971TIP3   OH2 5876   7.175   0.611   4.612
 1971TIP3    H1 5877   7.226   0.627   4.691
 1971TIP3    H2 5878   7.135   0.525   4.626
 1972TIP3   OH2 5879   2.065   2.987   5.011
 1972TIP3    H1 5880   2.006   3.049   5.055
 1972TIP3    H2 5881   2.133   3.042   4.973
 1973TIP3   OH2 5882   2.409   0.269   2.521
 1973TIP3    H1 5883   2.381   0.230   2.438
 1973TIP3    H2 5884   2.502   0.246   2.528
 1974TIP3   OH2 5885   3.878   6.686   4.895
 1974TIP3    H1 5886   3.857   6.748   4.826
 1974TIP3    H2 5887   3.904   6.606   4.849
 1975TIP3   OH2 5888   2.505   5.186   3.990
 1975TIP3    H1 5889   2.462   5.101   3.991
 1975TIP3    H2 5890   2.598   5.166   3.983
 1976TIP3   OH2 5891   1.626   2.345   2.734
 1976TIP3    H1 5892   1.681   2.267   2.723
 1976TIP3    H2 5893   1.570   2.324   2.808
 1977TIP3   OH2 5894   3.231   2.042   3.834
 1977TIP3    H1 5895   3.323   2.018   3.822
 1977TIP3    H2 5896   3.232   2.136   3.848
 1978TIP3   OH2 5897   1.859   1.122   0.326
 1978TIP3    H1 5898   1.897   1.193   0.275
 1978TIP3    H2 5899   1.781   1.159   0.366
 1979TIP3   OH2 5900   3.246   2.460   4.862
 1979TIP3    H1 5901   3.203   2.396   4.804
 1979TIP3    H2 5902   3.310   2.408   4.910
 1980TIP3   OH2 5903   2.777   0.102   0.446
 1980TIP3    H1 5904   2.831   0.165   0.398
 1980TIP3    H2 5905   2.693   0.146   0.459
 1981TIP3   OH2 5906   5.572   4.003   2.051
 1981TIP3    H1 5907   5.493   3.974   2.097
 1981TIP3    H2 5908   5.565   3.963   1.964
 1982TIP3   OH2 5909   6.334   6.584   4.332
 1982TIP3    H1 5910   6.378   6.628   4.405
 1982TIP3    H2 5911   6.249   6.557   4.367
 1983TIP3   OH2 5912   4.123   1.965   0.350
 1983TIP3    H1 5913   4.183   1.960   0.276
 1983TIP3    H2 5914   4.140   2.050   0.389
 1984TIP3   OH2 5915   2.928   4.025   4.229
 1984TIP3    H1 5916   2.886   4.005   4.146
 1984TIP3    H2 5917   3.005   4.077   4.206
 1985TIP3   OH2 5918   3.285   1.019   2.508
 1985TIP3    H1 5919   3.366   1.057   2.475
 1985TIP3    H2 5920   3.295   0.925   2.493
 1986TIP3   OH2 5921   2.027   3.067   4.415
 1986TIP3    H1 5922   1.981   3.041   4.494
 1986TIP3    H2 5923   2.119   3.054   4.434
 1987TIP3   OH2 5924   6.109   2.585   3.588
 1987TIP3    H1 5925   6.195   2.563   3.552
 1987TIP3    H2 5926   6.048   2.568   3.516
 1988TIP3   OH2 5927   6.962   4.741   0.843
 1988TIP3    H1 5928   6.963   4.664   0.901
 1988TIP3    H2 5929   6.883   4.731   0.791
 1989TIP3   OH2 5930   5.224   4.946   4.252
 1989TIP3    H1 5931   5.274   5.025   4.274
 1989TIP3    H2 5932   5.141   4.957   4.299
 1990TIP3   OH2 5933   5.968   0.450   5.381
 1990TIP3    H1 5934   6.007   0.536   5.367
 1990TIP3    H2 5935   6.042   0.394   5.405
 1991TIP3   OH2 5936   5.408   4.526   4.159
 1991TIP3    H1 5937   5.377   4.616   4.152
 1991TIP3    H2 5938   5.336   4.472   4.126
 1992TIP3   OH2 5939   4.699   2.683   0.627
 1992TIP3    H1 5940   4.685   2.742   0.701
 1992TIP3    H2 5941   4.624   2.623   0.629
 1993TIP3   OH2 5942   5.586   1.106   5.483
 1993TIP3    H1 5943   5.529   1.173   5.446
 1993TIP3    H2 5944   5.642   1.079   5.411
 1994TIP3   OH2 5945   2.407   2.806   0.093
 1994TIP3    H1 5946   2.457   2.724   0.084
 1994TIP3    H2 5947   2.459   2.871   0.046
 1995TIP3   OH2 5948   6.864   3.418   5.298
 1995TIP3    H1 5949   6.854   3.477   5.224
 1995TIP3    H2 5950   6.928   3.461   5.355
 1996TIP3   OH2 5951   0.500   6.461   2.762
 1996TIP3    H1 5952   0.538   6.522   2.826
 1996TIP3    H2 5953   0.558   6.385   2.766
 1997TIP3   OH2 5954   4.802   6.166   1.382
 1997TIP3    H1 5955   4.822   6.184   1.474
 1997TIP3    H2 5956   4.886   6.176   1.337
 1998TIP3   OH2 5957   3.790   3.122   4.269
 1998TIP3    H1 5958   3.822   3.049   4.216
 1998TIP3    H2 5959   3.720   3.084   4.322
 1999TIP3   OH2 5960   4.763   5.953   2.255
 1999TIP3    H1 5961   4.711   5.920   2.182
 1999TIP3    H2 5962   4.845   5.981   2.215
 2000TIP3   OH2 5963   2.104   2.856   1.436
 2000TIP3    H1 5964   2.097   2.915   1.361
 2000TIP3    H2 5965   2.122   2.770   1.397
 2001TIP3   OH2 5966   5.392   5.519   4.157
 2001TIP3    H1 5967   5.411   5.462   4.082
 2001TIP3    H2 5968   5.402   5.608   4.123
 2002TIP3   OH2 5969   6.491   5.313   5.788
 2002TIP3    H1 5970   6.536   5.363   5.719
 2002TIP3    H2 5971   6.542   5.331   5.867
 2003TIP3   OH2 5972   5.269   5.037   2.937
 2003TIP3    H1 5973   5.341   5.099   2.923
 2003TIP3    H2 5974   5.217   5.043   2.857
 2004TIP3   OH2 5975   1.970   3.280   3.538
 2004TIP3    H1 5976   1.967   3.354   3.477
 2004TIP3    H2 5977   1.949   3.204   3.484
 2005TIP3   OH2 5978   7.034   2.497   2.606
 2005TIP3    H1 5979   6.996   2.542   2.531
 2005TIP3    H2 5980   7.058   2.567   2.667
 2006TIP3   OH2 5981   5.076   5.129   3.918
 2006TIP3    H1 5982   5.106   5.213   3.954
 2006TIP3    H2 5983   5.028   5.153   3.839
 2007TIP3   OH2 5984   5.344   1.924   3.982
 2007TIP3    H1 5985   5.340   1.838   3.940
 2007TIP3    H2 5986   5.310   1.985   3.917
 2008TIP3   OH2 5987   5.669   0.619   2.293
 2008TIP3    H1 5988   5.678   0.637   2.199
 2008TIP3    H2 5989   5.601   0.680   2.322
 2009TIP3   OH2 5990   3.947   1.763   1.585
 2009TIP3    H1 5991   3.956   1.732   1.495
 2009TIP3    H2 5992   3.889   1.840   1.579
 2010TIP3   OH2 5993   1.663   5.556   1.282
 2010TIP3    H1 5994   1.581   5.594   1.312
 2010TIP3    H2 5995   1.730   5.596   1.337
 2011TIP3   OH2 5996   6.520   4.720   2.722
 2011TIP3    H1 5997   6.521   4.657   2.793
 2011TIP3    H2 5998   6.433   4.760   2.726
 2012TIP3   OH2 5999   2.489   6.084   4.526
 2012TIP3    H1 6000   2.400   6.081   4.562
 2012TIP3    H2 6001   2.544   6.050   4.596
 2013TIP3   OH2 6002   1.919   2.856   1.660
 2013TIP3    H1 6003   1.984   2.921   1.687
 2013TIP3    H2 6004   1.970   2.786   1.619
 2014TIP3   OH2 6005   4.051   6.041   4.997
 2014TIP3    H1 6006   4.112   5.996   4.939
 2014TIP3    H2 6007   4.094   6.124   5.017
 2015TIP3   OH2 6008   2.374   0.212   0.085
 2015TIP3    H1 6009   2.391   0.124   0.119
 2015TIP3    H2 6010   2.377   0.202  -0.010
 2016TIP3   OH2 6011   2.232   6.187   2.392
 2016TIP3    H1 6012   2.254   6.232   2.473
 2016TIP3    H2 6013   2.136   6.193   2.388
 2017TIP3   OH2 6014   5.621   6.052   2.703
 2017TIP3    H1 6015   5.562   6.021   2.634
 2017TIP3    H2 6016   5.597   6.144   2.716
 2018TIP3   OH2 6017   4.763   4.236   3.169
 2018TIP3    H1 6018   4.767   4.141   3.162
 2018TIP3    H2 6019   4.850   4.261   3.202
 2019TIP3   OH2 6020   5.920   1.293   2.448
 2019TIP3    H1 6021   5.955   1.260   2.365
 2019TIP3    H2 6022   5.839   1.244   2.462
 2020TIP3   OH2 6023   5.932   1.385   1.834
 2020TIP3    H1 6024   5.898   1.416   1.918
 2020TIP3    H2 6025   5.892   1.443   1.769
 2021TIP3   OH2 6026   5.902   4.102   5.759
 2021TIP3    H1 6027   5.841   4.058   5.700
 2021TIP3    H2 6028   5.905   4.046   5.836
 2022TIP3   OH2 6029   5.922   0.008   3.473
 2022TIP3    H1 6030   5.921  -0.075   3.425
 2022TIP3    H2 6031   5.901   0.074   3.408
 2023TIP3   OH2 6032   4.958   0.581   3.464
 2023TIP3    H1 6033   5.024   0.649   3.450
 2023TIP3    H2 6034   4.913   0.573   3.380
 2024TIP3   OH2 6035   0.792   3.037   5.572
 2024TIP3    H1 6036   0.791   3.002   5.661
 2024TIP3    H2 6037   0.885   3.052   5.554
 2025TIP3   OH2 6038   2.184   6.527   5.112
 2025TIP3    H1 6039   2.260   6.557   5.162
 2025TIP3    H2 6040   2.215   6.449   5.065
 2026TIP3   OH2 6041   0.404   3.156   2.742
 2026TIP3    H1 6042   0.459   3.231   2.720
 2026TIP3    H2 6043   0.361   3.133   2.660
 2027TIP3   OH2 6044   3.774   5.268   4.846
 2027TIP3    H1 6045   3.834   5.337   4.874
 2027TIP3    H2 6046   3.823   5.216   4.783
 2028TIP3   OH2 6047   5.227   4.550   2.728
 2028TIP3    H1 6048   5.255   4.481   2.668
 2028TIP3    H2 6049   5.300   4.558   2.790
 2029TIP3   OH2 6050   0.096   4.264   1.887
 2029TIP3    H1 6051   0.015   4.287   1.931
 2029TIP3    H2 6052   0.071   4.197   1.823
 2030TIP3   OH2 6053   5.225   0.286   1.216
 2030TIP3    H1 6054   5.150   0.285   1.157
 2030TIP3    H2 6055   5.253   0.378   1.218
 2031TIP3   OH2 6056   3.368   3.516   5.014
 2031TIP3    H1 6057   3.383   3.599   5.060
 2031TIP3    H2 6058   3.318   3.540   4.936
 2032TIP3   OH2 6059   5.072   0.768   5.904
 2032TIP3    H1 6060   4.984   0.794   5.878
 2032TIP3    H2 6061   5.095   0.697   5.845
 2033TIP3   OH2 6062   4.622   5.844   1.702
 2033TIP3    H1 6063   4.600   5.754   1.678
 2033TIP3    H2 6064   4.708   5.838   1.742
 2034TIP3   OH2 6065   3.502   1.074   5.850
 2034TIP3    H1 6066   3.534   1.163   5.834
 2034TIP3    H2 6067   3.411   1.085   5.875
 2035TIP3   OH2 6068   6.943   5.728   3.377
 2035TIP3    H1 6069   6.970   5.641   3.406
 2035TIP3    H2 6070   7.024   5.771   3.351
 2036TIP3   OH2 6071   6.195   6.419   3.303
 2036TIP3    H1 6072   6.131   6.350   3.316
 2036TIP3    H2 6073   6.171   6.460   3.220
 2037TIP3   OH2 6074   2.243   6.114   4.631
 2037TIP3    H1 6075   2.244   6.105   4.726
 2037TIP3    H2 6076   2.159   6.078   4.604
 2038TIP3   OH2 6077   4.642   2.633   3.179
 2038TIP3    H1 6078   4.665   2.555   3.230
 2038TIP3    H2 6079   4.718   2.691   3.188
 2039TIP3   OH2 6080   1.693   6.536   1.795
 2039TIP3    H1 6081   1.645   6.611   1.761
 2039TIP3    H2 6082   1.785   6.559   1.784
 2040TIP3   OH2 6083   1.809   5.872   1.652
 2040TIP3    H1 6084   1.897   5.895   1.679
 2040TIP3    H2 6085   1.780   5.807   1.716
 2041TIP3   OH2 6086   1.533   2.740   3.289
 2041TIP3    H1 6087   1.542   2.835   3.275
 2041TIP3    H2 6088   1.441   2.722   3.270
 2042TIP3   OH2 6089   1.543   1.834   4.811
 2042TIP3    H1 6090   1.606   1.807   4.744
 2042TIP3    H2 6091   1.466   1.780   4.794
 2043TIP3   OH2 6092   1.080   4.973   0.074
 2043TIP3    H1 6093   1.171   4.947   0.057
 2043TIP3    H2 6094   1.084   5.018   0.158
 2044TIP3   OH2 6095   6.077   6.499   4.445
 2044TIP3    H1 6096   6.085   6.512   4.540
 2044TIP3    H2 6097   5.983   6.504   4.428
 2045TIP3   OH2 6098   6.477   3.583   3.650
 2045TIP3    H1 6099   6.489   3.572   3.744
 2045TIP3    H2 6100   6.437   3.670   3.641
 2046TIP3   OH2 6101   2.392   1.123   3.356
 2046TIP3    H1 6102   2.401   1.202   3.409
 2046TIP3    H2 6103   2.303   1.127   3.321
 2047TIP3   OH2 6104   5.916   4.464   0.958
 2047TIP3    H1 6105   5.979   4.523   0.918
 2047TIP3    H2 6106   5.863   4.432   0.885
 2048TIP3   OH2 6107   3.156   1.447   0.790
 2048TIP3    H1 6108   3.183   1.537   0.771
 2048TIP3    H2 6109   3.093   1.426   0.721
 2049TIP3   OH2 6110   1.256   1.327   3.809
 2049TIP3    H1 6111   1.310   1.364   3.879
 2049TIP3    H2 6112   1.295   1.242   3.792
 2050TIP3   OH2 6113   6.700   1.912   2.694
 2050TIP3    H1 6114   6.616   1.873   2.670
 2050TIP3    H2 6115   6.758   1.889   2.623
 2051TIP3   OH2 6116   6.311   5.867   4.940
 2051TIP3    H1 6117   6.221   5.901   4.942
 2051TIP3    H2 6118   6.301   5.773   4.925
 2052TIP3   OH2 6119   5.429   4.509   2.353
 2052TIP3    H1 6120   5.410   4.429   2.403
 2052TIP3    H2 6121   5.510   4.490   2.307
 2053TIP3   OH2 6122   6.739   5.095   3.229
 2053TIP3    H1 6123   6.751   5.145   3.310
 2053TIP3    H2 6124   6.756   5.157   3.159
 2054TIP3   OH2 6125   5.215   1.899   0.883
 2054TIP3    H1 6126   5.198   1.829   0.946
 2054TIP3    H2 6127   5.275   1.860   0.819
 2055TIP3   OH2 6128   3.822   0.412   0.869
 2055TIP3    H1 6129   3.766   0.387   0.943
 2055TIP3    H2 6130   3.761   0.437   0.800
 2056TIP3   OH2 6131   7.071   4.363   0.453
 2056TIP3    H1 6132   6.987   4.379   0.410
 2056TIP3    H2 6133   7.048   4.344   0.544
 2057TIP3   OH2 6134   4.062   4.776   4.567
 2057TIP3    H1 6135   4.151   4.756   4.540
 2057TIP3    H2 6136   4.068   4.792   4.661
 2058TIP3   OH2 6137   5.645   1.291   4.286
 2058TIP3    H1 6138   5.584   1.357   4.320
 2058TIP3    H2 6139   5.667   1.237   4.362
 2059TIP3   OH2 6140   0.661   5.310   5.038
 2059TIP3    H1 6141   0.644   5.348   4.952
 2059TIP3    H2 6142   0.752   5.335   5.057
 2060TIP3   OH2 6143   0.790   0.938   1.151
 2060TIP3    H1 6144   0.771   0.846   1.172
 2060TIP3    H2 6145   0.878   0.952   1.187
 2061TIP3   OH2 6146   5.170   0.673   5.450
 2061TIP3    H1 6147   5.241   0.645   5.393
 2061TIP3    H2 6148   5.209   0.679   5.537
 2062TIP3   OH2 6149   2.232   1.081   5.368
 2062TIP3    H1 6150   2.212   1.012   5.431
 2062TIP3    H2 6151   2.210   1.163   5.413
 2063TIP3   OH2 6152   0.369   1.444   1.966
 2063TIP3    H1 6153   0.434   1.460   2.035
 2063TIP3    H2 6154   0.326   1.362   1.992
 2064TIP3   OH2 6155   3.495   5.645   5.244
 2064TIP3    H1 6156   3.491   5.637   5.148
 2064TIP3    H2 6157   3.533   5.562   5.273
 2065TIP3   OH2 6158   5.799   6.389   1.853
 2065TIP3    H1 6159   5.732   6.447   1.889
 2065TIP3    H2 6160   5.765   6.361   1.768
 2066TIP3   OH2 6161   5.530   3.406   3.367
 2066TIP3    H1 6162   5.596   3.458   3.412
 2066TIP3    H2 6163   5.493   3.465   3.302
 2067TIP3   OH2 6164   5.071   6.493   4.969
 2067TIP3    H1 6165   5.001   6.547   5.004
 2067TIP3    H2 6166   5.034   6.457   4.888
 2068TIP3   OH2 6167   2.199   6.726   1.470
 2068TIP3    H1 6168   2.163   6.646   1.431
 2068TIP3    H2 6169   2.282   6.740   1.424
 2069TIP3   OH2 6170   4.721   0.857   2.158
 2069TIP3    H1 6171   4.757   0.849   2.246
 2069TIP3    H2 6172   4.771   0.796   2.106
 2070TIP3   OH2 6173   6.844   0.863   2.628
 2070TIP3    H1 6174   6.756   0.895   2.645
 2070TIP3    H2 6175   6.833   0.770   2.606
 2071TIP3   OH2 6176   5.458   0.077   2.079
 2071TIP3    H1 6177   5.410   0.019   2.020
 2071TIP3    H2 6178   5.547   0.076   2.045
 2072TIP3   OH2 6179   4.925   6.417   4.726
 2072TIP3    H1 6180   4.851   6.371   4.766
 2072TIP3    H2 6181   4.951   6.361   4.653
 2073TIP3   OH2 6182   4.080   0.762   0.414
 2073TIP3    H1 6183   4.157   0.706   0.410
 2073TIP3    H2 6184   4.060   0.770   0.507
 2074TIP3   OH2 6185   2.286   5.883   1.237
 2074TIP3    H1 6186   2.227   5.951   1.268
 2074TIP3    H2 6187   2.252   5.857   1.152
 2075TIP3   OH2 6188   5.931   2.283   0.517
 2075TIP3    H1 6189   6.005   2.333   0.552
 2075TIP3    H2 6190   5.904   2.227   0.589
 2076TIP3   OH2 6191   6.407   5.362   4.117
 2076TIP3    H1 6192   6.413   5.274   4.080
 2076TIP3    H2 6193   6.434   5.351   4.208
 2077TIP3   OH2 6194   1.124   4.165   4.950
 2077TIP3    H1 6195   1.094   4.133   5.035
 2077TIP3    H2 6196   1.210   4.204   4.968
 2078TIP3   OH2 6197   1.555   1.117   0.660
 2078TIP3    H1 6198   1.487   1.153   0.716
 2078TIP3    H2 6199   1.556   1.024   0.679
 2079TIP3   OH2 6200   2.688   4.589   2.370
 2079TIP3    H1 6201   2.634   4.513   2.391
 2079TIP3    H2 6202   2.763   4.553   2.323
 2080TIP3   OH2 6203   0.269   0.428   1.114
 2080TIP3    H1 6204   0.284   0.357   1.052
 2080TIP3    H2 6205   0.227   0.386   1.189
 2081TIP3   OH2 6206   2.190   6.482   1.836
 2081TIP3    H1 6207   2.161   6.485   1.927
 2081TIP3    H2 6208   2.135   6.546   1.791
 2082TIP3   OH2 6209   2.282   2.759   3.994
 2082TIP3    H1 6210   2.216   2.695   3.970
 2082TIP3    H2 6211   2.299   2.808   3.914
 2083TIP3   OH2 6212   3.016   5.322   1.018
 2083TIP3    H1 6213   3.028   5.381   1.092
 2083TIP3    H2 6214   3.019   5.379   0.941
 2084TIP3   OH2 6215   3.517   0.170   3.930
 2084TIP3    H1 6216   3.472   0.187   4.013
 2084TIP3    H2 6217   3.535   0.258   3.895
 2085TIP3   OH2 6218   5.410   1.596   5.883
 2085TIP3    H1 6219   5.368   1.677   5.852
 2085TIP3    H2 6220   5.503   1.616   5.883
 2086TIP3   OH2 6221   6.765   6.730   4.478
 2086TIP3    H1 6222   6.800   6.682   4.403
 2086TIP3    H2 6223   6.842   6.746   4.533
 2087TIP3   OH2 6224   5.746   2.933  -0.018
 2087TIP3    H1 6225   5.821   2.963   0.034
 2087TIP3    H2 6226   5.746   2.989  -0.096
 2088TIP3   OH2 6227   1.998   3.295   2.611
 2088TIP3    H1 6228   1.923   3.240   2.590
 2088TIP3    H2 6229   1.997   3.303   2.706
 2089TIP3   OH2 6230   4.062   0.804   1.029
 2089TIP3    H1 6231   4.070   0.899   1.036
 2089TIP3    H2 6232   4.106   0.771   1.108
 2090TIP3   OH2 6233   0.752   4.924   0.727
 2090TIP3    H1 6234   0.782   4.915   0.817
 2090TIP3    H2 6235   0.668   4.880   0.724
 2091TIP3   OH2 6236   5.070   6.308   0.994
 2091TIP3    H1 6237   5.028   6.342   0.915
 2091TIP3    H2 6238   5.111   6.385   1.035
 2092TIP3   OH2 6239   3.175   1.055   0.417
 2092TIP3    H1 6240   3.205   1.118   0.483
 2092TIP3    H2 6241   3.256   1.019   0.381
 2093TIP3   OH2 6242   1.717   3.234   2.621
 2093TIP3    H1 6243   1.632   3.195   2.641
 2093TIP3    H2 6244   1.711   3.259   2.528
 2094TIP3   OH2 6245   1.137   1.134   0.053
 2094TIP3    H1 6246   1.056   1.137   0.003
 2094TIP3    H2 6247   1.110   1.144   0.144
 2095TIP3   OH2 6248   1.453   5.748   1.236
 2095TIP3    H1 6249   1.403   5.670   1.211
 2095TIP3    H2 6250   1.389   5.819   1.239
 2096TIP3   OH2 6251   5.561   3.966   1.785
 2096TIP3    H1 6252   5.486   3.918   1.750
 2096TIP3    H2 6253   5.632   3.901   1.787
 2097TIP3   OH2 6254   3.201   1.474   4.234
 2097TIP3    H1 6255   3.252   1.547   4.269
 2097TIP3    H2 6256   3.265   1.403   4.226
 2098TIP3   OH2 6257   1.086   2.680   4.235
 2098TIP3    H1 6258   1.117   2.718   4.317
 2098TIP3    H2 6259   0.992   2.669   4.247
 2099TIP3   OH2 6260   6.330   4.413   5.086
 2099TIP3    H1 6261   6.247   4.461   5.088
 2099TIP3    H2 6262   6.376   4.439   5.166
 2100TIP3   OH2 6263   5.675   5.939   4.126
 2100TIP3    H1 6264   5.738   5.905   4.063
 2100TIP3    H2 6265   5.700   5.900   4.209
 2101TIP3   OH2 6266   2.360   4.805   1.450
 2101TIP3    H1 6267   2.357   4.875   1.516
 2101TIP3    H2 6268   2.301   4.738   1.485
 2102TIP3   OH2 6269   5.624   1.003   0.552
 2102TIP3    H1 6270   5.661   1.090   0.565
 2102TIP3    H2 6271   5.530   1.014   0.563
 2103TIP3   OH2 6272   0.013   2.663   3.917
 2103TIP3    H1 6273   0.058   2.695   3.839
 2103TIP3    H2 6274   0.060   2.582   3.939
 2104TIP3   OH2 6275   5.066   1.010   0.646
 2104TIP3    H1 6276   5.012   0.938   0.679
 2104TIP3    H2 6277   5.073   1.071   0.720
 2105TIP3   OH2 6278   2.880   0.665   1.066
 2105TIP3    H1 6279   2.844   0.651   1.154
 2105TIP3    H2 6280   2.815   0.722   1.023
 2106TIP3   OH2 6281   2.039   0.742   4.695
 2106TIP3    H1 6282   2.023   0.663   4.643
 2106TIP3    H2 6283   2.120   0.778   4.659
 2107TIP3   OH2 6284   4.548   5.885   0.586
 2107TIP3    H1 6285   4.460   5.888   0.624
 2107TIP3    H2 6286   4.584   5.972   0.602
 2108TIP3   OH2 6287   4.583   3.033   1.090
 2108TIP3    H1 6288   4.591   3.033   1.185
 2108TIP3    H2 6289   4.602   3.124   1.064
 2109TIP3   OH2 6290   3.486   4.776   5.302
 2109TIP3    H1 6291   3.477   4.766   5.207
 2109TIP3    H2 6292   3.399   4.799   5.332
 2110TIP3   OH2 6293   2.020   0.308   0.148
 2110TIP3    H1 6294   1.945   0.340   0.098
 2110TIP3    H2 6295   2.093   0.363   0.120
 2111TIP3   OH2 6296   2.329   2.085   1.204
 2111TIP3    H1 6297   2.269   2.027   1.156
 2111TIP3    H2 6298   2.314   2.065   1.296
 2112TIP3   OH2 6299   2.964   3.686   5.682
 2112TIP3    H1 6300   2.871   3.695   5.705
 2112TIP3    H2 6301   2.964   3.681   5.586
 2113TIP3   OH2 6302   3.380   4.414   0.122
 2113TIP3    H1 6303   3.392   4.509   0.116
 2113TIP3    H2 6304   3.439   4.379   0.055
 2114TIP3   OH2 6305   5.946   2.385   0.235
 2114TIP3    H1 6306   5.938   2.375   0.329
 2114TIP3    H2 6307   6.019   2.329   0.210
 2115TIP3   OH2 6308   0.472   0.914   1.646
 2115TIP3    H1 6309   0.460   0.836   1.699
 2115TIP3    H2 6310   0.456   0.884   1.556
 2116TIP3   OH2 6311   1.700   0.893   3.927
 2116TIP3    H1 6312   1.750   0.896   4.009
 2116TIP3    H2 6313   1.760   0.854   3.864
 2117TIP3   OH2 6314   4.258   2.828   0.996
 2117TIP3    H1 6315   4.337   2.777   0.978
 2117TIP3    H2 6316   4.245   2.880   0.916
 2118TIP3   OH2 6317   3.396   4.845   4.196
 2118TIP3    H1 6318   3.390   4.919   4.136
 2118TIP3    H2 6319   3.306   4.811   4.200
 2119TIP3   OH2 6320   4.321   2.121   5.047
 2119TIP3    H1 6321   4.295   2.202   5.002
 2119TIP3    H2 6322   4.391   2.085   4.992
 2120TIP3   OH2 6323   2.554   2.387   3.775
 2120TIP3    H1 6324   2.537   2.398   3.868
 2120TIP3    H2 6325   2.525   2.469   3.735
 2121TIP3   OH2 6326   7.204   4.658   5.406
 2121TIP3    H1 6327   7.187   4.638   5.314
 2121TIP3    H2 6328   7.117   4.672   5.443
 2122TIP3   OH2 6329   0.185   1.256   5.887
 2122TIP3    H1 6330   0.094   1.261   5.916
 2122TIP3    H2 6331   0.182   1.206   5.806
 2123TIP3   OH2 6332   2.111   3.147   2.250
 2123TIP3    H1 6333   2.188   3.162   2.195
 2123TIP3    H2 6334   2.141   3.167   2.339
 2124TIP3   OH2 6335   0.123   5.232   4.541
 2124TIP3    H1 6336   0.192   5.240   4.607
 2124TIP3    H2 6337   0.124   5.139   4.516
 2125TIP3   OH2 6338   3.473   2.288   1.051
 2125TIP3    H1 6339   3.560   2.305   1.015
 2125TIP3    H2 6340   3.480   2.312   1.144
 2126TIP3   OH2 6341   5.734   2.208   5.282
 2126TIP3    H1 6342   5.743   2.118   5.312
 2126TIP3    H2 6343   5.824   2.241   5.278
 2127TIP3   OH2 6344   2.935   5.750   1.443
 2127TIP3    H1 6345   2.942   5.804   1.521
 2127TIP3    H2 6346   2.902   5.809   1.375
 2128TIP3   OH2 6347   4.578   1.675   3.838
 2128TIP3    H1 6348   4.616   1.588   3.852
 2128TIP3    H2 6349   4.517   1.663   3.765
 2129TIP3   OH2 6350   1.300   1.777   0.140
 2129TIP3    H1 6351   1.212   1.747   0.164
 2129TIP3    H2 6352   1.352   1.696   0.137
 2130TIP3   OH2 6353   0.867   3.159   5.845
 2130TIP3    H1 6354   0.850   3.066   5.856
 2130TIP3    H2 6355   0.782   3.201   5.857
 2131TIP3   OH2 6356   5.477   5.132   5.116
 2131TIP3    H1 6357   5.459   5.058   5.059
 2131TIP3    H2 6358   5.399   5.139   5.171
 2132TIP3   OH2 6359   1.083   0.634   4.847
 2132TIP3    H1 6360   1.150   0.689   4.806
 2132TIP3    H2 6361   1.047   0.582   4.775
 2133TIP3   OH2 6362   3.380   2.009   5.610
 2133TIP3    H1 6363   3.307   1.951   5.630
 2133TIP3    H2 6364   3.458   1.954   5.621
 2134TIP3   OH2 6365   6.801   1.413   2.087
 2134TIP3    H1 6366   6.742   1.482   2.119
 2134TIP3    H2 6367   6.880   1.423   2.140
 2135TIP3   OH2 6368   1.218   2.337   3.736
 2135TIP3    H1 6369   1.262   2.411   3.778
 2135TIP3    H2 6370   1.145   2.316   3.795
 2136TIP3   OH2 6371   4.239   5.045   0.548
 2136TIP3    H1 6372   4.183   5.015   0.619
 2136TIP3    H2 6373   4.200   5.129   0.521
 2137TIP3   OH2 6374   0.735   6.581   3.801
 2137TIP3    H1 6375   0.756   6.611   3.890
 2137TIP3    H2 6376   0.730   6.485   3.809
 2138TIP3   OH2 6377   6.495   5.105   0.483
 2138TIP3    H1 6378   6.436   5.046   0.530
 2138TIP3    H2 6379   6.484   5.081   0.391
 2139TIP3   OH2 6380   3.694   1.314   2.373
 2139TIP3    H1 6381   3.728   1.387   2.322
 2139TIP3    H2 6382   3.679   1.350   2.460
 2140TIP3   OH2 6383   3.614   2.801   2.120
 2140TIP3    H1 6384   3.634   2.795   2.213
 2140TIP3    H2 6385   3.548   2.733   2.106
 2141TIP3   OH2 6386   1.233   0.843   2.013
 2141TIP3    H1 6387   1.317   0.824   2.053
 2141TIP3    H2 6388   1.242   0.933   1.980
 2142TIP3   OH2 6389   6.525   1.158   1.619
 2142TIP3    H1 6390   6.540   1.065   1.638
 2142TIP3    H2 6391   6.474   1.157   1.538
 2143TIP3   OH2 6392   0.914   2.095   3.561
 2143TIP3    H1 6393   0.960   2.057   3.636
 2143TIP3    H2 6394   0.852   2.027   3.534
 2144TIP3   OH2 6395   0.092   2.230   4.033
 2144TIP3    H1 6396   0.127   2.154   4.080
 2144TIP3    H2 6397   0.011   2.198   3.992
 2145TIP3   OH2 6398   0.631   2.659   1.438
 2145TIP3    H1 6399   0.606   2.571   1.467
 2145TIP3    H2 6400   0.646   2.708   1.519
 2146TIP3   OH2 6401   6.230   5.824   1.184
 2146TIP3    H1 6402   6.236   5.835   1.279
 2146TIP3    H2 6403   6.306   5.770   1.161
 2147TIP3   OH2 6404   0.573   6.765   4.128
 2147TIP3    H1 6405   0.547   6.701   4.062
 2147TIP3    H2 6406   0.508   6.835   4.121
 2148TIP3   OH2 6407   6.042   1.315   1.272
 2148TIP3    H1 6408   6.066   1.312   1.364
 2148TIP3    H2 6409   6.022   1.224   1.249
 2149TIP3   OH2 6410   0.811   6.008   2.834
 2149TIP3    H1 6411   0.773   6.058   2.906
 2149TIP3    H2 6412   0.883   5.960   2.873
 2150TIP3   OH2 6413   1.812   4.113   0.535
 2150TIP3    H1 6414   1.776   4.186   0.484
 2150TIP3    H2 6415   1.734   4.068   0.569
 2151TIP3   OH2 6416   1.095   2.479   5.679
 2151TIP3    H1 6417   1.079   2.574   5.678
 2151TIP3    H2 6418   1.085   2.454   5.771
 2152TIP3   OH2 6419   0.286   1.955   2.435
 2152TIP3    H1 6420   0.375   1.986   2.451
 2152TIP3    H2 6421   0.242   2.027   2.391
 2153TIP3   OH2 6422   1.742   4.207   4.182
 2153TIP3    H1 6423   1.814   4.166   4.231
 2153TIP3    H2 6424   1.752   4.174   4.092
 2154TIP3   OH2 6425   2.328   3.266   1.988
 2154TIP3    H1 6426   2.317   3.361   1.996
 2154TIP3    H2 6427   2.405   3.256   1.932
 2155TIP3   OH2 6428   3.186   5.145   2.763
 2155TIP3    H1 6429   3.200   5.051   2.758
 2155TIP3    H2 6430   3.102   5.160   2.720
 2156TIP3   OH2 6431   2.721   0.464   4.291
 2156TIP3    H1 6432   2.672   0.539   4.258
 2156TIP3    H2 6433   2.684   0.389   4.244
 2157TIP3   OH2 6434   3.845   2.665   3.600
 2157TIP3    H1 6435   3.753   2.647   3.614
 2157TIP3    H2 6436   3.886   2.578   3.593
 2158TIP3   OH2 6437   6.511   2.017   1.034
 2158TIP3    H1 6438   6.464   1.968   1.101
 2158TIP3    H2 6439   6.456   2.011   0.956
 2159TIP3   OH2 6440   2.532   6.377   1.427
 2159TIP3    H1 6441   2.454   6.335   1.464
 2159TIP3    H2 6442   2.554   6.445   1.490
 2160TIP3   OH2 6443   3.891   2.348   0.178
 2160TIP3    H1 6444   3.845   2.429   0.158
 2160TIP3    H2 6445   3.886   2.297   0.097
 2161TIP3   OH2 6446   3.518   2.627   1.111
 2161TIP3    H1 6447   3.562   2.605   1.029
 2161TIP3    H2 6448   3.579   2.684   1.157
 2162TIP3   OH2 6449   5.963   0.471   5.737
 2162TIP3    H1 6450   5.931   0.454   5.826
 2162TIP3    H2 6451   6.035   0.410   5.725
 2163TIP3   OH2 6452   6.000   2.721   4.883
 2163TIP3    H1 6453   5.976   2.754   4.797
 2163TIP3    H2 6454   5.973   2.629   4.882
 2164TIP3   OH2 6455   5.799   5.900   2.083
 2164TIP3    H1 6456   5.715   5.858   2.063
 2164TIP3    H2 6457   5.779   5.961   2.154
 2165TIP3   OH2 6458   5.810   1.642   4.237
 2165TIP3    H1 6459   5.736   1.595   4.275
 2165TIP3    H2 6460   5.795   1.636   4.142
 2166TIP3   OH2 6461   4.137   4.138   1.120
 2166TIP3    H1 6462   4.142   4.069   1.053
 2166TIP3    H2 6463   4.069   4.108   1.180
 2167TIP3   OH2 6464   0.396   5.582   3.955
 2167TIP3    H1 6465   0.311   5.612   3.989
 2167TIP3    H2 6466   0.393   5.487   3.963
 2168TIP3   OH2 6467   5.523   3.138   1.090
 2168TIP3    H1 6468   5.585   3.211   1.103
 2168TIP3    H2 6469   5.527   3.120   0.996
 2169TIP3   OH2 6470   4.811   4.032   5.495
 2169TIP3    H1 6471   4.757   3.976   5.439
 2169TIP3    H2 6472   4.753   4.105   5.518
 2170TIP3   OH2 6473   1.833   5.944   5.736
 2170TIP3    H1 6474   1.889   5.890   5.680
 2170TIP3    H2 6475   1.745   5.931   5.702
 2171TIP3   OH2 6476   3.487   3.012   1.293
 2171TIP3    H1 6477   3.527   3.076   1.235
 2171TIP3    H2 6478   3.560   2.956   1.321
 2172TIP3   OH2 6479   5.595   3.846   3.044
 2172TIP3    H1 6480   5.653   3.796   3.102
 2172TIP3    H2 6481   5.562   3.781   2.982
 2173TIP3   OH2 6482   6.019   0.325   3.539
 2173TIP3    H1 6483   6.014   0.420   3.553
 2173TIP3    H2 6484   6.007   0.315   3.444
 2174TIP3   OH2 6485   4.297   0.982   2.521
 2174TIP3    H1 6486   4.380   0.949   2.556
 2174TIP3    H2 6487   4.275   0.921   2.451
 2175TIP3   OH2 6488   6.050   3.119   5.551
 2175TIP3    H1 6489   6.003   3.183   5.604
 2175TIP3    H2 6490   6.036   3.148   5.461
 2176TIP3   OH2 6491   4.193   5.135   5.088
 2176TIP3    H1 6492   4.214   5.140   5.181
 2176TIP3    H2 6493   4.132   5.061   5.081
 2177TIP3   OH2 6494   4.453   6.704   0.980
 2177TIP3    H1 6495   4.475   6.681   1.070
 2177TIP3    H2 6496   4.403   6.629   0.948
 2178TIP3   OH2 6497   1.520   5.581   5.173
 2178TIP3    H1 6498   1.517   5.646   5.243
 2178TIP3    H2 6499   1.531   5.632   5.093
 2179TIP3   OH2 6500   6.439   4.591   3.475
 2179TIP3    H1 6501   6.476   4.665   3.426
 2179TIP3    H2 6502   6.369   4.630   3.527
 2180TIP3   OH2 6503   3.724   0.176   0.155
 2180TIP3    H1 6504   3.645   0.147   0.201
 2180TIP3    H2 6505   3.713   0.270   0.145
 2181TIP3   OH2 6506   3.839   3.709   2.318
 2181TIP3    H1 6507   3.932   3.731   2.309
 2181TIP3    H2 6508   3.797   3.754   2.245
 2182TIP3   OH2 6509   1.908   6.647   4.518
 2182TIP3    H1 6510   1.826   6.692   4.496
 2182TIP3    H2 6511   1.960   6.712   4.565
 2183TIP3   OH2 6512   5.505   1.786   2.715
 2183TIP3    H1 6513   5.485   1.880   2.721
 2183TIP3    H2 6514   5.578   1.773   2.775
 2184TIP3   OH2 6515   7.074   4.995   3.915
 2184TIP3    H1 6516   7.003   4.930   3.920
 2184TIP3    H2 6517   7.066   5.031   3.827
 2185TIP3   OH2 6518   5.413   4.964   0.550
 2185TIP3    H1 6519   5.371   5.049   0.533
 2185TIP3    H2 6520   5.438   4.968   0.642
 2186TIP3   OH2 6521   5.709   1.675   2.232
 2186TIP3    H1 6522   5.633   1.717   2.272
 2186TIP3    H2 6523   5.748   1.624   2.303
 2187TIP3   OH2 6524   4.925   5.026   4.938
 2187TIP3    H1 6525   4.921   5.118   4.910
 2187TIP3    H2 6526   4.950   4.978   4.859
 2188TIP3   OH2 6527   2.502   6.238   0.664
 2188TIP3    H1 6528   2.539   6.326   0.675
 2188TIP3    H2 6529   2.433   6.249   0.599
 2189TIP3   OH2 6530   4.738   2.944   2.094
 2189TIP3    H1 6531   4.722   2.884   2.021
 2189TIP3    H2 6532   4.826   2.921   2.124
 2190TIP3   OH2 6533   3.203   1.414   2.561
 2190TIP3    H1 6534   3.279   1.381   2.513
 2190TIP3    H2 6535   3.128   1.395   2.505
 2191TIP3   OH2 6536   0.137   2.508   4.389
 2191TIP3    H1 6537   0.094   2.573   4.335
 2191TIP3    H2 6538   0.065   2.464   4.435
 2192TIP3   OH2 6539   3.814   4.915   0.471
 2192TIP3    H1 6540   3.897   4.873   0.448
 2192TIP3    H2 6541   3.785   4.869   0.549
 2193TIP3   OH2 6542   4.512   5.322   1.318
 2193TIP3    H1 6543   4.482   5.252   1.260
 2193TIP3    H2 6544   4.486   5.403   1.273
 2194TIP3   OH2 6545   6.212   6.118   4.267
 2194TIP3    H1 6546   6.215   6.061   4.344
 2194TIP3    H2 6547   6.123   6.109   4.233
 2195TIP3   OH2 6548   4.439   3.705   0.445
 2195TIP3    H1 6549   4.491   3.777   0.409
 2195TIP3    H2 6550   4.503   3.643   0.479
 2196TIP3   OH2 6551   0.465   2.032   3.801
 2196TIP3    H1 6552   0.537   1.970   3.800
 2196TIP3    H2 6553   0.428   2.028   3.713
 2197TIP3   OH2 6554   7.228   3.506   5.904
 2197TIP3    H1 6555   7.297   3.532   5.843
 2197TIP3    H2 6556   7.175   3.443   5.856
 2198TIP3   OH2 6557   1.027   2.331   3.928
 2198TIP3    H1 6558   1.077   2.341   4.009
 2198TIP3    H2 6559   0.946   2.379   3.943
 2199TIP3   OH2 6560   6.481   5.710   0.400
 2199TIP3    H1 6561   6.418   5.638   0.402
 2199TIP3    H2 6562   6.492   5.729   0.307
 2200TIP3   OH2 6563   0.650   3.460   5.253
 2200TIP3    H1 6564   0.566   3.498   5.278
 2200TIP3    H2 6565   0.629   3.400   5.181
 2201TIP3   OH2 6566   7.151   0.746   2.606
 2201TIP3    H1 6567   7.079   0.809   2.607
 2201TIP3    H2 6568   7.221   0.792   2.560
 2202TIP3   OH2 6569   2.396   5.608   3.493
 2202TIP3    H1 6570   2.424   5.682   3.547
 2202TIP3    H2 6571   2.334   5.561   3.549
 2203TIP3   OH2 6572   0.930   5.085   0.959
 2203TIP3    H1 6573   0.957   5.158   1.015
 2203TIP3    H2 6574   1.012   5.056   0.918
 2204TIP3   OH2 6575   4.048   4.912   5.108
 2204TIP3    H1 6576   4.080   4.862   5.183
 2204TIP3    H2 6577   3.955   4.887   5.101
 2205TIP3   OH2 6578   0.548   6.321   2.093
 2205TIP3    H1 6579   0.582   6.311   2.004
 2205TIP3    H2 6580   0.482   6.252   2.102
 2206TIP3   OH2 6581   0.328   3.713   3.643
 2206TIP3    H1 6582   0.253   3.739   3.589
 2206TIP3    H2 6583   0.362   3.795   3.677
 2207TIP3   OH2 6584   1.400   1.164   4.120
 2207TIP3    H1 6585   1.363   1.078   4.099
 2207TIP3    H2 6586   1.475   1.144   4.176
 2208TIP3   OH2 6587   6.380   3.263   0.900
 2208TIP3    H1 6588   6.359   3.208   0.825
 2208TIP3    H2 6589   6.308   3.250   0.962
 2209TIP3   OH2 6590   5.142   2.735   3.262
 2209TIP3    H1 6591   5.153   2.708   3.354
 2209TIP3    H2 6592   5.191   2.816   3.254
 2210TIP3   OH2 6593   2.008   2.940   4.679
 2210TIP3    H1 6594   1.996   2.906   4.768
 2210TIP3    H2 6595   2.020   2.862   4.626
 2211TIP3   OH2 6596   2.155   1.919   5.836
 2211TIP3    H1 6597   2.138   2.013   5.835
 2211TIP3    H2 6598   2.068   1.879   5.829
 2212TIP3   OH2 6599   0.148   5.540   4.801
 2212TIP3    H1 6600   0.239   5.565   4.812
 2212TIP3    H2 6601   0.099   5.611   4.844
 2213TIP3   OH2 6602   1.640   0.320   1.128
 2213TIP3    H1 6603   1.700   0.253   1.158
 2213TIP3    H2 6604   1.586   0.276   1.061
 2214TIP3   OH2 6605   4.344   6.330   2.405
 2214TIP3    H1 6606   4.361   6.238   2.383
 2214TIP3    H2 6607   4.292   6.363   2.332
 2215TIP3   OH2 6608   4.315   3.780   3.529
 2215TIP3    H1 6609   4.391   3.751   3.578
 2215TIP3    H2 6610   4.317   3.728   3.448
 2216TIP3   OH2 6611   5.878   3.578   3.957
 2216TIP3    H1 6612   5.948   3.617   3.905
 2216TIP3    H2 6613   5.809   3.644   3.960
 2217TIP3   OH2 6614   2.115   2.914   0.057
 2217TIP3    H1 6615   2.204   2.882   0.075
 2217TIP3    H2 6616   2.110   2.916  -0.039
 2218TIP3   OH2 6617   5.358   2.830   5.111
 2218TIP3    H1 6618   5.386   2.921   5.106
 2218TIP3    H2 6619   5.344   2.804   5.020
 2219TIP3   OH2 6620   4.479   2.316   2.311
 2219TIP3    H1 6621   4.556   2.296   2.363
 2219TIP3    H2 6622   4.420   2.241   2.325
 2220TIP3   OH2 6623   6.181   0.255   2.888
 2220TIP3    H1 6624   6.210   0.287   2.974
 2220TIP3    H2 6625   6.100   0.303   2.871
 2221TIP3   OH2 6626   4.490   4.068   4.208
 2221TIP3    H1 6627   4.499   3.973   4.201
 2221TIP3    H2 6628   4.511   4.087   4.300
 2222TIP3   OH2 6629   6.587   3.279   3.007
 2222TIP3    H1 6630   6.533   3.246   3.079
 2222TIP3    H2 6631   6.528   3.279   2.932
 2223TIP3   OH2 6632   4.772   0.972   0.885
 2223TIP3    H1 6633   4.867   0.960   0.896
 2223TIP3    H2 6634   4.762   1.064   0.861
 2224TIP3   OH2 6635   1.312   0.955   0.529
 2224TIP3    H1 6636   1.323   0.892   0.458
 2224TIP3    H2 6637   1.366   0.920   0.600
 2225TIP3   OH2 6638   4.612   3.298   1.073
 2225TIP3    H1 6639   4.596   3.343   1.156
 2225TIP3    H2 6640   4.691   3.340   1.038
 2226TIP3   OH2 6641   3.250   2.578   2.832
 2226TIP3    H1 6642   3.205   2.508   2.879
 2226TIP3    H2 6643   3.333   2.539   2.806
 2227TIP3   OH2 6644   0.868   6.163   4.040
 2227TIP3    H1 6645   0.890   6.122   3.956
 2227TIP3    H2 6646   0.876   6.093   4.104
 2228TIP3   OH2 6647   4.645   5.965   3.543
 2228TIP3    H1 6648   4.708   5.939   3.477
 2228TIP3    H2 6649   4.616   5.883   3.582
 2229TIP3   OH2 6650   5.933   6.762   1.789
 2229TIP3    H1 6651   5.890   6.822   1.851
 2229TIP3    H2 6652   5.867   6.696   1.770
 2230TIP3   OH2 6653   2.116   3.673   2.690
 2230TIP3    H1 6654   2.115   3.767   2.671
 2230TIP3    H2 6655   2.192   3.661   2.747
 2231TIP3   OH2 6656   5.250   3.313   5.434
 2231TIP3    H1 6657   5.192   3.276   5.366
 2231TIP3    H2 6658   5.236   3.255   5.510
 2232TIP3   OH2 6659   4.115   0.686   2.055
 2232TIP3    H1 6660   4.032   0.734   2.061
 2232TIP3    H2 6661   4.146   0.680   2.145
 2233TIP3   OH2 6662   2.759   4.547   5.188
 2233TIP3    H1 6663   2.849   4.559   5.157
 2233TIP3    H2 6664   2.707   4.602   5.129
 2234TIP3   OH2 6665   7.110   2.486   1.031
 2234TIP3    H1 6666   7.177   2.538   1.076
 2234TIP3    H2 6667   7.151   2.459   0.950
 2235TIP3   OH2 6668   5.805   4.743   3.081
 2235TIP3    H1 6669   5.809   4.689   3.002
 2235TIP3    H2 6670   5.770   4.827   3.050
 2236TIP3   OH2 6671   4.530   0.461   1.603
 2236TIP3    H1 6672   4.532   0.447   1.508
 2236TIP3    H2 6673   4.451   0.513   1.618
 2237TIP3   OH2 6674   1.235   2.864   5.392
 2237TIP3    H1 6675   1.326   2.846   5.368
 2237TIP3    H2 6676   1.183   2.829   5.320
 2238TIP3   OH2 6677   0.308   6.412   4.708
 2238TIP3    H1 6678   0.219   6.436   4.733
 2238TIP3    H2 6679   0.306   6.411   4.612
 2239TIP3   OH2 6680   1.667   1.629   0.942
 2239TIP3    H1 6681   1.573   1.644   0.951
 2239TIP3    H2 6682   1.704   1.715   0.925
 2240TIP3   OH2 6683   5.341   1.591   2.811
 2240TIP3    H1 6684   5.369   1.662   2.752
 2240TIP3    H2 6685   5.400   1.598   2.886
 2241TIP3   OH2 6686   0.482   1.822   1.582
 2241TIP3    H1 6687   0.490   1.782   1.669
 2241TIP3    H2 6688   0.483   1.916   1.599
 2242TIP3   OH2 6689   3.330   0.445   1.996
 2242TIP3    H1 6690   3.306   0.357   2.024
 2242TIP3    H2 6691   3.413   0.463   2.040
 2243TIP3   OH2 6692   3.497   3.347   3.763
 2243TIP3    H1 6693   3.405   3.320   3.770
 2243TIP3    H2 6694   3.541   3.272   3.724
 2244TIP3   OH2 6695   1.304   6.453   2.063
 2244TIP3    H1 6696   1.209   6.462   2.055
 2244TIP3    H2 6697   1.330   6.399   1.988
 2245TIP3   OH2 6698   5.856   5.381   5.536
 2245TIP3    H1 6699   5.924   5.314   5.539
 2245TIP3    H2 6700   5.781   5.338   5.494
 2246TIP3   OH2 6701   2.292   0.142   0.396
 2246TIP3    H1 6702   2.336   0.104   0.320
 2246TIP3    H2 6703   2.249   0.069   0.439
 2247TIP3   OH2 6704   0.733   4.808   1.369
 2247TIP3    H1 6705   0.637   4.817   1.367
 2247TIP3    H2 6706   0.762   4.856   1.292
 2248TIP3   OH2 6707   6.009   6.695   3.280
 2248TIP3    H1 6708   5.945   6.706   3.351
 2248TIP3    H2 6709   6.077   6.639   3.318
 2249TIP3   OH2 6710   2.131   2.648   2.083
 2249TIP3    H1 6711   2.154   2.661   1.991
 2249TIP3    H2 6712   2.064   2.714   2.101
 2250TIP3   OH2 6713   5.716   1.023   1.360
 2250TIP3    H1 6714   5.714   1.103   1.307
 2250TIP3    H2 6715   5.728   0.953   1.296
 2251TIP3   OH2 6716   6.959   3.188   5.041
 2251TIP3    H1 6717   6.932   3.229   4.958
 2251TIP3    H2 6718   7.011   3.256   5.085
 2252TIP3   OH2 6719   7.207   6.513   4.702
 2252TIP3    H1 6720   7.254   6.587   4.665
 2252TIP3    H2 6721   7.157   6.478   4.628
 2253TIP3   OH2 6722   4.919   3.537   3.663
 2253TIP3    H1 6723   5.004   3.544   3.619
 2253TIP3    H2 6724   4.873   3.618   3.640
 2254TIP3   OH2 6725   2.776   1.276   4.541
 2254TIP3    H1 6726   2.837   1.345   4.565
 2254TIP3    H2 6727   2.690   1.312   4.561
 2255TIP3   OH2 6728   3.195   3.469   4.076
 2255TIP3    H1 6729   3.261   3.535   4.098
 2255TIP3    H2 6730   3.235   3.386   4.103
 2256TIP3   OH2 6731   1.159   4.619   2.932
 2256TIP3    H1 6732   1.209   4.695   2.962
 2256TIP3    H2 6733   1.078   4.622   2.984
 2257TIP3   OH2 6734   3.637   0.460   4.893
 2257TIP3    H1 6735   3.637   0.544   4.939
 2257TIP3    H2 6736   3.729   0.434   4.889
 2258TIP3   OH2 6737   3.858   6.157   3.350
 2258TIP3    H1 6738   3.928   6.098   3.379
 2258TIP3    H2 6739   3.837   6.126   3.261
 2259TIP3   OH2 6740  -0.015   2.695   3.029
 2259TIP3    H1 6741   0.071   2.736   3.032
 2259TIP3    H2 6742   0.001   2.604   3.056
 2260TIP3   OH2 6743   7.167   5.356   1.381
 2260TIP3    H1 6744   7.188   5.265   1.360
 2260TIP3    H2 6745   7.223   5.377   1.456
 2261TIP3   OH2 6746   5.842   1.919   2.120
 2261TIP3    H1 6747   5.778   1.852   2.144
 2261TIP3    H2 6748   5.919   1.901   2.174
 2262TIP3   OH2 6749   3.034   4.623   2.199
 2262TIP3    H1 6750   3.113   4.674   2.181
 2262TIP3    H2 6751   2.962   4.685   2.181
 2263TIP3   OH2 6752   5.601   2.508   1.805
 2263TIP3    H1 6753   5.593   2.486   1.712
 2263TIP3    H2 6754   5.560   2.594   1.813
 2264TIP3   OH2 6755   0.913   4.884   3.816
 2264TIP3    H1 6756   0.829   4.929   3.825
 2264TIP3    H2 6757   0.921   4.833   3.897
 2265TIP3   OH2 6758   1.034   6.735   4.604
 2265TIP3    H1 6759   1.050   6.747   4.510
 2265TIP3    H2 6760   0.972   6.662   4.608
 2266TIP3   OH2 6761   1.433   3.556   5.432
 2266TIP3    H1 6762   1.435   3.636   5.486
 2266TIP3    H2 6763   1.483   3.492   5.483
 2267TIP3   OH2 6764   6.861   0.028   5.659
 2267TIP3    H1 6765   6.890  -0.015   5.739
 2267TIP3    H2 6766   6.917  -0.007   5.590
 2268TIP3   OH2 6767   1.560   6.774   2.623
 2268TIP3    H1 6768   1.621   6.830   2.574
 2268TIP3    H2 6769   1.575   6.686   2.588
 2269TIP3   OH2 6770   6.805   4.269   1.096
 2269TIP3    H1 6771   6.729   4.305   1.051
 2269TIP3    H2 6772   6.773   4.189   1.138
 2270TIP3   OH2 6773   6.205   3.819   5.856
 2270TIP3    H1 6774   6.173   3.743   5.808
 2270TIP3    H2 6775   6.146   3.827   5.931
 2271TIP3   OH2 6776   5.044   3.076   2.180
 2271TIP3    H1 6777   4.957   3.063   2.218
 2271TIP3    H2 6778   5.085   3.143   2.235
 2272TIP3   OH2 6779   3.215   0.354   5.247
 2272TIP3    H1 6780   3.180   0.422   5.305
 2272TIP3    H2 6781   3.150   0.284   5.249
 2273TIP3   OH2 6782   4.048   1.041   4.462
 2273TIP3    H1 6783   4.111   1.006   4.525
 2273TIP3    H2 6784   4.055   0.984   4.386
 2274TIP3   OH2 6785   5.874   3.741   4.969
 2274TIP3    H1 6786   5.947   3.743   5.030
 2274TIP3    H2 6787   5.889   3.816   4.911
 2275TIP3   OH2 6788   3.549   4.925   2.682
 2275TIP3    H1 6789   3.541   4.886   2.769
 2275TIP3    H2 6790   3.643   4.923   2.663
 2276TIP3   OH2 6791   2.240   3.276   3.505
 2276TIP3    H1 6792   2.146   3.259   3.501
 2276TIP3    H2 6793   2.256   3.302   3.595
 2277TIP3   OH2 6794   3.877   1.243   4.152
 2277TIP3    H1 6795   3.793   1.282   4.178
 2277TIP3    H2 6796   3.939   1.272   4.219
 2278TIP3   OH2 6797   3.631   1.936   2.222
 2278TIP3    H1 6798   3.561   1.872   2.208
 2278TIP3    H2 6799   3.712   1.888   2.202
 2279TIP3   OH2 6800   2.091   4.965   0.122
 2279TIP3    H1 6801   2.181   4.933   0.129
 2279TIP3    H2 6802   2.072   5.001   0.208
 2280TIP3   OH2 6803   0.100   6.234   3.926
 2280TIP3    H1 6804   0.029   6.208   3.985
 2280TIP3    H2 6805   0.171   6.174   3.947
 2281TIP3   OH2 6806   2.170   5.524   1.411
 2281TIP3    H1 6807   2.105   5.554   1.348
 2281TIP3    H2 6808   2.158   5.581   1.487
 2282TIP3   OH2 6809   0.414   4.858   1.378
 2282TIP3    H1 6810   0.334   4.805   1.373
 2282TIP3    H2 6811   0.404   4.909   1.459
 2283TIP3   OH2 6812   0.147   2.866   4.712
 2283TIP3    H1 6813   0.215   2.817   4.759
 2283TIP3    H2 6814   0.123   2.937   4.772
 2284TIP3   OH2 6815   6.600   0.506   5.488
 2284TIP3    H1 6816   6.545   0.523   5.565
 2284TIP3    H2 6817   6.615   0.412   5.490
 2285TIP3   OH2 6818   5.664   3.326   3.678
 2285TIP3    H1 6819   5.745   3.358   3.638
 2285TIP3    H2 6820   5.688   3.307   3.769
 2286TIP3   OH2 6821   1.274   4.530   3.549
 2286TIP3    H1 6822   1.330   4.455   3.568
 2286TIP3    H2 6823   1.189   4.492   3.528
 2287TIP3   OH2 6824   1.097   1.191   0.521
 2287TIP3    H1 6825   1.168   1.127   0.523
 2287TIP3    H2 6826   1.057   1.179   0.435
 2288TIP3   OH2 6827   6.954   3.843   5.575
 2288TIP3    H1 6828   6.875   3.872   5.530
 2288TIP3    H2 6829   6.944   3.874   5.665
 2289TIP3   OH2 6830   4.510   6.639   4.225
 2289TIP3    H1 6831   4.510   6.675   4.137
 2289TIP3    H2 6832   4.602   6.638   4.251
 2290TIP3   OH2 6833   0.647   5.218   2.735
 2290TIP3    H1 6834   0.647   5.234   2.641
 2290TIP3    H2 6835   0.725   5.164   2.750
 2291TIP3   OH2 6836   0.571   5.865   4.721
 2291TIP3    H1 6837   0.532   5.849   4.635
 2291TIP3    H2 6838   0.663   5.840   4.711
 2292TIP3   OH2 6839   6.215   4.199   3.919
 2292TIP3    H1 6840   6.165   4.207   4.001
 2292TIP3    H2 6841   6.286   4.263   3.928
 2293TIP3   OH2 6842   5.487   0.320   3.645
 2293TIP3    H1 6843   5.509   0.232   3.615
 2293TIP3    H2 6844   5.517   0.323   3.735
 2294TIP3   OH2 6845   4.586   2.503   2.859
 2294TIP3    H1 6846   4.533   2.428   2.833
 2294TIP3    H2 6847   4.531   2.579   2.842
 2295TIP3   OH2 6848   4.651   6.427   1.263
 2295TIP3    H1 6849   4.612   6.382   1.188
 2295TIP3    H2 6850   4.584   6.423   1.331
 2296TIP3   OH2 6851   3.128   2.063   0.504
 2296TIP3    H1 6852   3.051   2.105   0.541
 2296TIP3    H2 6853   3.167   2.131   0.449
 2297TIP3   OH2 6854   4.082   0.097   1.101
 2297TIP3    H1 6855   4.018   0.026   1.103
 2297TIP3    H2 6856   4.037   0.171   1.140
 2298TIP3   OH2 6857   5.830   4.806   2.068
 2298TIP3    H1 6858   5.835   4.770   1.979
 2298TIP3    H2 6859   5.840   4.900   2.056
 2299TIP3   OH2 6860   5.551   5.975   2.436
 2299TIP3    H1 6861   5.521   5.885   2.444
 2299TIP3    H2 6862   5.471   6.026   2.420
 2300TIP3   OH2 6863   1.307   5.769   2.806
 2300TIP3    H1 6864   1.362   5.848   2.801
 2300TIP3    H2 6865   1.295   5.753   2.900
 2301TIP3   OH2 6866   1.649   5.342   0.677
 2301TIP3    H1 6867   1.697   5.423   0.656
 2301TIP3    H2 6868   1.716   5.282   0.708
 2302TIP3   OH2 6869   0.556   3.429   0.082
 2302TIP3    H1 6870   0.559   3.376   0.003
 2302TIP3    H2 6871   0.576   3.518   0.052
 2303TIP3   OH2 6872   5.437   2.931   4.598
 2303TIP3    H1 6873   5.366   2.968   4.546
 2303TIP3    H2 6874   5.422   2.836   4.596
 2304TIP3   OH2 6875   3.024   5.223   3.042
 2304TIP3    H1 6876   3.019   5.128   3.026
 2304TIP3    H2 6877   2.997   5.263   2.960
 2305TIP3   OH2 6878   1.170   2.458   4.765
 2305TIP3    H1 6879   1.089   2.410   4.780
 2305TIP3    H2 6880   1.143   2.550   4.768
 2306TIP3   OH2 6881   0.074   4.644   2.760
 2306TIP3    H1 6882   0.082   4.682   2.848
 2306TIP3    H2 6883  -0.006   4.592   2.765
 2307TIP3   OH2 6884   0.158   6.009   1.638
 2307TIP3    H1 6885   0.070   6.043   1.648
 2307TIP3    H2 6886   0.198   6.065   1.571
 2308TIP3   OH2 6887   4.419   5.622   1.327
 2308TIP3    H1 6888   4.363   5.576   1.264
 2308TIP3    H2 6889   4.377   5.707   1.339
 2309TIP3   OH2 6890   5.364   5.579   1.440
 2309TIP3    H1 6891   5.289   5.627   1.405
 2309TIP3    H2 6892   5.330   5.492   1.460
 2310TIP3   OH2 6893   4.375   4.054   1.223
 2310TIP3    H1 6894   4.416   4.138   1.242
 2310TIP3    H2 6895   4.375   4.048   1.127
 2311TIP3   OH2 6896  -0.013   1.016   0.704
 2311TIP3    H1 6897   0.058   1.007   0.766
 2311TIP3    H2 6898   0.002   0.946   0.640
 2312TIP3   OH2 6899   2.506   5.437   4.102
 2312TIP3    H1 6900   2.516   5.471   4.014
 2312TIP3    H2 6901   2.484   5.344   4.090
 2313TIP3   OH2 6902   6.813   4.917   3.506
 2313TIP3    H1 6903   6.767   4.887   3.584
 2313TIP3    H2 6904   6.826   5.011   3.520
 2314TIP3   OH2 6905   2.223   3.229   2.491
 2314TIP3    H1 6906   2.268   3.313   2.494
 2314TIP3    H2 6907   2.138   3.246   2.530
 2315TIP3   OH2 6908   6.192   5.510   1.670
 2315TIP3    H1 6909   6.195   5.557   1.754
 2315TIP3    H2 6910   6.274   5.534   1.627
 2316TIP3   OH2 6911   3.969   3.217   2.508
 2316TIP3    H1 6912   3.961   3.162   2.586
 2316TIP3    H2 6913   4.029   3.287   2.534
 2317TIP3   OH2 6914   0.790   2.670   3.016
 2317TIP3    H1 6915   0.739   2.635   3.088
 2317TIP3    H2 6916   0.869   2.705   3.057
 2318TIP3   OH2 6917   4.642   1.168   3.143
 2318TIP3    H1 6918   4.716   1.226   3.161
 2318TIP3    H2 6919   4.629   1.120   3.225
 2319TIP3   OH2 6920   5.437   0.802   1.205
 2319TIP3    H1 6921   5.379   0.851   1.148
 2319TIP3    H2 6922   5.525   0.816   1.169
 2320TIP3   OH2 6923   1.993   0.206   0.977
 2320TIP3    H1 6924   2.059   0.224   1.045
 2320TIP3    H2 6925   2.005   0.114   0.957
 2321TIP3   OH2 6926   6.157   5.826   2.492
 2321TIP3    H1 6927   6.090   5.807   2.558
 2321TIP3    H2 6928   6.133   5.771   2.417
 2322TIP3   OH2 6929  -0.010   5.383   2.658
 2322TIP3    H1 6930  -0.014   5.468   2.702
 2322TIP3    H2 6931   0.058   5.335   2.705
 2323TIP3   OH2 6932   5.733   5.711   4.648
 2323TIP3    H1 6933   5.719   5.773   4.719
 2323TIP3    H2 6934   5.646   5.695   4.612
 2324TIP3   OH2 6935   0.568   0.898   3.031
 2324TIP3    H1 6936   0.605   0.851   3.105
 2324TIP3    H2 6937   0.507   0.960   3.069
 2325TIP3   OH2 6938   4.635   0.157   3.227
 2325TIP3    H1 6939   4.568   0.208   3.181
 2325TIP3    H2 6940   4.607   0.066   3.217
 2326TIP3   OH2 6941   3.468   1.741   2.141
 2326TIP3    H1 6942   3.515   1.658   2.132
 2326TIP3    H2 6943   3.467   1.778   2.052
 2327TIP3   OH2 6944   5.503   4.809   0.307
 2327TIP3    H1 6945   5.410   4.811   0.329
 2327TIP3    H2 6946   5.522   4.898   0.277
 2328TIP3   OH2 6947   3.397   1.513   3.439
 2328TIP3    H1 6948   3.369   1.469   3.359
 2328TIP3    H2 6949   3.459   1.452   3.480
 2329TIP3   OH2 6950   2.683   1.308   2.997
 2329TIP3    H1 6951   2.677   1.315   3.092
 2329TIP3    H2 6952   2.644   1.224   2.976
 2330TIP3   OH2 6953   2.076   0.373   3.905
 2330TIP3    H1 6954   2.148   0.436   3.910
 2330TIP3    H2 6955   2.040   0.370   3.994
 2331TIP3   OH2 6956   2.456   2.646   3.422
 2331TIP3    H1 6957   2.446   2.736   3.392
 2331TIP3    H2 6958   2.435   2.592   3.346
 2332TIP3   OH2 6959   2.746   5.183   2.885
 2332TIP3    H1 6960   2.747   5.090   2.906
 2332TIP3    H2 6961   2.741   5.227   2.969
 2333TIP3   OH2 6962   0.483   6.487   2.478
 2333TIP3    H1 6963   0.480   6.399   2.441
 2333TIP3    H2 6964   0.502   6.473   2.571
 2334TIP3   OH2 6965   1.331   2.222   3.191
 2334TIP3    H1 6966   1.257   2.202   3.249
 2334TIP3    H2 6967   1.402   2.166   3.224
 2335TIP3   OH2 6968   5.394   4.636   1.409
 2335TIP3    H1 6969   5.475   4.586   1.416
 2335TIP3    H2 6970   5.414   4.720   1.451
 2336TIP3   OH2 6971   4.500   4.103   0.021
 2336TIP3    H1 6972   4.489   4.045  -0.054
 2336TIP3    H2 6973   4.436   4.073   0.085
 2337TIP3   OH2 6974   6.516   1.466   4.952
 2337TIP3    H1 6975   6.469   1.472   5.035
 2337TIP3    H2 6976   6.448   1.447   4.887
 2338TIP3   OH2 6977   1.495   6.531   4.056
 2338TIP3    H1 6978   1.454   6.470   4.118
 2338TIP3    H2 6979   1.449   6.515   3.974
 2339TIP3   OH2 6980   3.637   2.521   1.699
 2339TIP3    H1 6981   3.668   2.581   1.767
 2339TIP3    H2 6982   3.610   2.578   1.627
 2340TIP3   OH2 6983   4.423   2.066   1.890
 2340TIP3    H1 6984   4.343   2.118   1.897
 2340TIP3    H2 6985   4.494   2.130   1.896
 2341TIP3   OH2 6986   5.852   2.405   1.698
 2341TIP3    H1 6987   5.887   2.494   1.694
 2341TIP3    H2 6988   5.788   2.407   1.770
 2342TIP3   OH2 6989   3.050   2.939   1.224
 2342TIP3    H1 6990   3.098   2.859   1.203
 2342TIP3    H2 6991   3.117   3.004   1.241
 2343TIP3   OH2 6992   4.275   3.638   2.466
 2343TIP3    H1 6993   4.326   3.625   2.546
 2343TIP3    H2 6994   4.193   3.677   2.497
 2344TIP3   OH2 6995   3.641   1.132   1.744
 2344TIP3    H1 6996   3.667   1.052   1.698
 2344TIP3    H2 6997   3.717   1.190   1.737
 2345TIP3   OH2 6998   6.697   6.348   4.423
 2345TIP3    H1 6999   6.624   6.339   4.361
 2345TIP3    H2 7000   6.755   6.412   4.382
 2346TIP3   OH2 7001   4.877   4.900   4.288
 2346TIP3    H1 7002   4.786   4.883   4.265
 2346TIP3    H2 7003   4.899   4.832   4.351
 2347TIP3   OH2 7004   4.252   3.691   0.644
 2347TIP3    H1 7005   4.310   3.705   0.569
 2347TIP3    H2 7006   4.311   3.686   0.719
 2348TIP3   OH2 7007   6.207   5.978   5.802
 2348TIP3    H1 7008   6.137   5.917   5.782
 2348TIP3    H2 7009   6.194   6.001   5.894
 2349TIP3   OH2 7010   1.138   2.894   2.711
 2349TIP3    H1 7011   1.218   2.846   2.733
 2349TIP3    H2 7012   1.149   2.917   2.619
 2350TIP3   OH2 7013   2.025   3.080   1.238
 2350TIP3    H1 7014   1.949   3.103   1.185
 2350TIP3    H2 7015   1.988   3.056   1.323
 2351TIP3   OH2 7016   2.982   4.851   4.094
 2351TIP3    H1 7017   3.050   4.806   4.144
 2351TIP3    H2 7018   2.995   4.823   4.004
 2352TIP3   OH2 7019   5.802   0.515   4.579
 2352TIP3    H1 7020   5.723   0.490   4.626
 2352TIP3    H2 7021   5.813   0.607   4.598
 2353TIP3   OH2 7022   4.783   5.575   4.414
 2353TIP3    H1 7023   4.691   5.560   4.393
 2353TIP3    H2 7024   4.786   5.577   4.510
 2354TIP3   OH2 7025   5.894   3.599   1.841
 2354TIP3    H1 7026   5.909   3.608   1.747
 2354TIP3    H2 7027   5.903   3.505   1.858
 2355TIP3   OH2 7028   0.021   3.190   2.927
 2355TIP3    H1 7029  -0.011   3.249   2.995
 2355TIP3    H2 7030   0.100   3.151   2.964
 2356TIP3   OH2 7031   5.547   5.412   1.752
 2356TIP3    H1 7032   5.460   5.394   1.789
 2356TIP3    H2 7033   5.607   5.360   1.806
 2357TIP3   OH2 7034   3.805   5.164   0.639
 2357TIP3    H1 7035   3.732   5.202   0.590
 2357TIP3    H2 7036   3.823   5.081   0.594
 2358TIP3   OH2 7037   4.246   5.446   0.073
 2358TIP3    H1 7038   4.161   5.483   0.096
 2358TIP3    H2 7039   4.247   5.359   0.114
 2359TIP3   OH2 7040   6.084   1.263   4.713
 2359TIP3    H1 7041   6.058   1.246   4.623
 2359TIP3    H2 7042   6.068   1.180   4.759
 2360TIP3   OH2 7043   5.318   5.802   2.267
 2360TIP3    H1 7044   5.300   5.773   2.178
 2360TIP3    H2 7045   5.276   5.888   2.274
 2361TIP3   OH2 7046   6.278   3.778   4.164
 2361TIP3    H1 7047   6.225   3.705   4.197
 2361TIP3    H2 7048   6.215   3.849   4.152
 2362TIP3   OH2 7049   3.721   4.442   2.020
 2362TIP3    H1 7050   3.789   4.389   1.980
 2362TIP3    H2 7051   3.675   4.383   2.079
 2363TIP3   OH2 7052   2.258   3.981   3.870
 2363TIP3    H1 7053   2.308   3.958   3.792
 2363TIP3    H2 7054   2.256   4.077   3.870
 2364TIP3   OH2 7055   4.732   1.280   0.971
 2364TIP3    H1 7056   4.640   1.305   0.960
 2364TIP3    H2 7057   4.770   1.291   0.884
 2365TIP3   OH2 7058   1.979   6.322   5.706
 2365TIP3    H1 7059   1.986   6.242   5.654
 2365TIP3    H2 7060   2.056   6.373   5.683
 2366TIP3   OH2 7061   4.208   2.543   0.828
 2366TIP3    H1 7062   4.281   2.604   0.835
 2366TIP3    H2 7063   4.193   2.533   0.734
 2367TIP3   OH2 7064   6.628   0.748   0.797
 2367TIP3    H1 7065   6.688   0.762   0.870
 2367TIP3    H2 7066   6.671   0.683   0.742
 2368TIP3   OH2 7067   1.846   6.381   0.829
 2368TIP3    H1 7068   1.861   6.297   0.785
 2368TIP3    H2 7069   1.768   6.416   0.787
 2369TIP3   OH2 7070   4.537   2.661   4.896
 2369TIP3    H1 7071   4.514   2.568   4.899
 2369TIP3    H2 7072   4.611   2.669   4.956
 2370TIP3   OH2 7073   4.950   3.609   5.100
 2370TIP3    H1 7074   4.994   3.589   5.182
 2370TIP3    H2 7075   4.859   3.582   5.115
 2371TIP3   OH2 7076   5.242   5.956   0.365
 2371TIP3    H1 7077   5.273   5.995   0.446
 2371TIP3    H2 7078   5.297   5.878   0.354
 2372TIP3   OH2 7079   5.999   1.779   5.386
 2372TIP3    H1 7080   6.037   1.737   5.463
 2372TIP3    H2 7081   6.075   1.812   5.337
 2373TIP3   OH2 7082   1.445   0.528   5.351
 2373TIP3    H1 7083   1.416   0.613   5.318
 2373TIP3    H2 7084   1.539   0.538   5.365
 2374TIP3   OH2 7085   2.014   2.267   3.813
 2374TIP3    H1 7086   2.031   2.263   3.719
 2374TIP3    H2 7087   2.024   2.359   3.836
 2375TIP3   OH2 7088   2.866   3.491   3.457
 2375TIP3    H1 7089   2.887   3.433   3.530
 2375TIP3    H2 7090   2.951   3.520   3.424
 2376TIP3   OH2 7091   7.078   1.440   1.806
 2376TIP3    H1 7092   7.117   1.504   1.866
 2376TIP3    H2 7093   6.991   1.475   1.788
 2377TIP3   OH2 7094   3.874   0.889   5.615
 2377TIP3    H1 7095   3.808   0.955   5.592
 2377TIP3    H2 7096   3.843   0.808   5.575
 2378TIP3   OH2 7097   6.786   2.783   5.399
 2378TIP3    H1 7098   6.800   2.816   5.488
 2378TIP3    H2 7099   6.717   2.840   5.364
 2379TIP3   OH2 7100   0.219   5.909   2.951
 2379TIP3    H1 7101   0.237   5.987   2.898
 2379TIP3    H2 7102   0.199   5.840   2.888
 2380TIP3   OH2 7103   5.518   1.763   0.980
 2380TIP3    H1 7104   5.584   1.762   1.049
 2380TIP3    H2 7105   5.541   1.689   0.923
 2381TIP3   OH2 7106   0.089   0.781   0.504
 2381TIP3    H1 7107   0.128   0.708   0.457
 2381TIP3    H2 7108   0.082   0.851   0.439
 2382TIP3   OH2 7109   6.262   1.692   1.800
 2382TIP3    H1 7110   6.182   1.738   1.826
 2382TIP3    H2 7111   6.262   1.613   1.854
 2383TIP3   OH2 7112   7.112   1.317   5.634
 2383TIP3    H1 7113   7.104   1.245   5.572
 2383TIP3    H2 7114   7.021   1.339   5.656
 2384TIP3   OH2 7115   0.891   6.631   2.896
 2384TIP3    H1 7116   0.946   6.638   2.974
 2384TIP3    H2 7117   0.923   6.553   2.851
 2385TIP3   OH2 7118   3.581   6.107   1.293
 2385TIP3    H1 7119   3.545   6.035   1.241
 2385TIP3    H2 7120   3.579   6.182   1.234
 2386TIP3   OH2 7121   3.378   0.604   5.602
 2386TIP3    H1 7122   3.445   0.623   5.668
 2386TIP3    H2 7123   3.348   0.689   5.572
 2387TIP3   OH2 7124   1.251   2.074   5.006
 2387TIP3    H1 7125   1.209   2.091   4.921
 2387TIP3    H2 7126   1.273   1.981   5.003
 2388TIP3   OH2 7127   4.516   0.167   0.738
 2388TIP3    H1 7128   4.464   0.088   0.724
 2388TIP3    H2 7129   4.563   0.150   0.820
 2389TIP3   OH2 7130   3.002   5.029   2.156
 2389TIP3    H1 7131   3.026   5.030   2.063
 2389TIP3    H2 7132   2.971   4.940   2.171
 2390TIP3   OH2 7133   6.575   6.471   2.864
 2390TIP3    H1 7134   6.563   6.392   2.915
 2390TIP3    H2 7135   6.570   6.442   2.773
 2391TIP3   OH2 7136   0.989   2.976   1.201
 2391TIP3    H1 7137   1.072   2.943   1.167
 2391TIP3    H2 7138   0.943   3.009   1.123
 2392TIP3   OH2 7139   6.177   0.687   2.435
 2392TIP3    H1 7140   6.240   0.662   2.367
 2392TIP3    H2 7141   6.099   0.716   2.386
 2393TIP3   OH2 7142   2.022   0.124   1.568
 2393TIP3    H1 7143   2.011   0.152   1.658
 2393TIP3    H2 7144   2.087   0.053   1.572
 2394TIP3   OH2 7145   1.423   5.846   4.039
 2394TIP3    H1 7146   1.371   5.843   3.959
 2394TIP3    H2 7147   1.363   5.877   4.106
 2395TIP3   OH2 7148   1.759   1.876   0.861
 2395TIP3    H1 7149   1.785   1.967   0.875
 2395TIP3    H2 7150   1.768   1.863   0.766
 2396TIP3   OH2 7151   0.673   2.799   3.389
 2396TIP3    H1 7152   0.720   2.878   3.362
 2396TIP3    H2 7153   0.741   2.733   3.400
 2397TIP3   OH2 7154   5.724   5.029   1.463
 2397TIP3    H1 7155   5.777   4.996   1.390
 2397TIP3    H2 7156   5.783   5.025   1.539
 2398TIP3   OH2 7157   3.165   3.449   3.430
 2398TIP3    H1 7158   3.131   3.371   3.385
 2398TIP3    H2 7159   3.244   3.419   3.474
 2399TIP3   OH2 7160   1.370   3.140   1.999
 2399TIP3    H1 7161   1.349   3.221   2.045
 2399TIP3    H2 7162   1.424   3.091   2.061
 2400TIP3   OH2 7163   5.551   0.689   3.975
 2400TIP3    H1 7164   5.560   0.682   3.880
 2400TIP3    H2 7165   5.633   0.653   4.009
 2401TIP3   OH2 7166   5.795   4.562   5.096
 2401TIP3    H1 7167   5.835   4.519   5.171
 2401TIP3    H2 7168   5.723   4.613   5.133
 2402TIP3   OH2 7169   6.661   4.550   1.750
 2402TIP3    H1 7170   6.583   4.606   1.752
 2402TIP3    H2 7171   6.725   4.600   1.700
 2403TIP3   OH2 7172   2.728   1.778   5.616
 2403TIP3    H1 7173   2.651   1.810   5.663
 2403TIP3    H2 7174   2.792   1.759   5.685
 2404TIP3   OH2 7175   3.975   5.506   4.977
 2404TIP3    H1 7176   3.967   5.466   5.064
 2404TIP3    H2 7177   4.053   5.467   4.940
 2405TIP3   OH2 7178   4.177   3.687   3.744
 2405TIP3    H1 7179   4.102   3.744   3.762
 2405TIP3    H2 7180   4.183   3.684   3.649
 2406TIP3   OH2 7181   3.010   6.590   2.630
 2406TIP3    H1 7182   3.047   6.534   2.561
 2406TIP3    H2 7183   2.917   6.572   2.629
 2407TIP3   OH2 7184   1.515   4.852   3.921
 2407TIP3    H1 7185   1.484   4.772   3.877
 2407TIP3    H2 7186   1.498   4.921   3.857
 2408TIP3   OH2 7187   4.134   6.365   2.223
 2408TIP3    H1 7188   4.086   6.435   2.267
 2408TIP3    H2 7189   4.072   6.332   2.158
 2409TIP3   OH2 7190   0.136   5.637   5.273
 2409TIP3    H1 7191   0.169   5.693   5.203
 2409TIP3    H2 7192   0.214   5.595   5.309
 2410TIP3   OH2 7193   2.228   1.981   4.700
 2410TIP3    H1 7194   2.224   1.906   4.640
 2410TIP3    H2 7195   2.315   2.017   4.687
 2411TIP3   OH2 7196   7.003   4.650   0.439
 2411TIP3    H1 7197   7.098   4.656   0.453
 2411TIP3    H2 7198   6.972   4.740   0.447
 2412TIP3   OH2 7199   5.795   6.380   4.156
 2412TIP3    H1 7200   5.739   6.304   4.142
 2412TIP3    H2 7201   5.746   6.453   4.118
 2413TIP3   OH2 7202   3.890   5.894   2.209
 2413TIP3    H1 7203   3.944   5.848   2.143
 2413TIP3    H2 7204   3.951   5.954   2.251
 2414TIP3   OH2 7205   3.049   2.231   1.622
 2414TIP3    H1 7206   2.983   2.267   1.562
 2414TIP3    H2 7207   3.013   2.146   1.649
 2415TIP3   OH2 7208   0.509   1.671   1.823
 2415TIP3    H1 7209   0.569   1.712   1.885
 2415TIP3    H2 7210   0.432   1.649   1.875
 2416TIP3   OH2 7211   2.187   2.383   3.353
 2416TIP3    H1 7212   2.131   2.441   3.302
 2416TIP3    H2 7213   2.260   2.363   3.295
 2417TIP3   OH2 7214   3.804   4.627   2.948
 2417TIP3    H1 7215   3.878   4.675   2.911
 2417TIP3    H2 7216   3.837   4.540   2.966
 2418TIP3   OH2 7217   6.390   0.745   4.331
 2418TIP3    H1 7218   6.372   0.802   4.406
 2418TIP3    H2 7219   6.362   0.795   4.255
 2419TIP3   OH2 7220   6.082   4.396   1.614
 2419TIP3    H1 7221   6.032   4.376   1.535
 2419TIP3    H2 7222   6.094   4.312   1.658
 2420TIP3   OH2 7223   0.200   4.425   0.142
 2420TIP3    H1 7224   0.181   4.485   0.070
 2420TIP3    H2 7225   0.267   4.366   0.107
 2421TIP3   OH2 7226   3.260   5.827   5.250
 2421TIP3    H1 7227   3.251   5.851   5.158
 2421TIP3    H2 7228   3.332   5.763   5.251
 2422TIP3   OH2 7229   6.767   6.057   3.021
 2422TIP3    H1 7230   6.856   6.074   3.052
 2422TIP3    H2 7231   6.753   6.121   2.952
 2423TIP3   OH2 7232   3.143   3.831   5.869
 2423TIP3    H1 7233   3.096   3.785   5.939
 2423TIP3    H2 7234   3.100   3.803   5.788
 2424TIP3   OH2 7235   5.223   1.216   1.216
 2424TIP3    H1 7236   5.130   1.218   1.193
 2424TIP3    H2 7237   5.227   1.165   1.296
 2425TIP3   OH2 7238   5.289   1.688   0.198
 2425TIP3    H1 7239   5.317   1.711   0.109
 2425TIP3    H2 7240   5.233   1.761   0.225
 2426TIP3   OH2 7241   3.254   1.052   2.140
 2426TIP3    H1 7242   3.335   1.002   2.150
 2426TIP3    H2 7243   3.235   1.049   2.046
 2427TIP3   OH2 7244   1.410   4.427   0.678
 2427TIP3    H1 7245   1.392   4.399   0.588
 2427TIP3    H2 7246   1.503   4.447   0.679
 2428TIP3   OH2 7247   3.982   1.532   0.572
 2428TIP3    H1 7248   4.025   1.451   0.602
 2428TIP3    H2 7249   4.050   1.578   0.523
 2429TIP3   OH2 7250   5.701   3.680   0.557
 2429TIP3    H1 7251   5.794   3.670   0.577
 2429TIP3    H2 7252   5.686   3.774   0.557
 2430TIP3   OH2 7253   2.200   6.551   3.661
 2430TIP3    H1 7254   2.266   6.599   3.710
 2430TIP3    H2 7255   2.143   6.514   3.728
 2431TIP3   OH2 7256   6.152   6.042   2.838
 2431TIP3    H1 7257   6.143   5.975   2.905
 2431TIP3    H2 7258   6.062   6.063   2.812
 2432TIP3   OH2 7259   3.464   4.387   3.694
 2432TIP3    H1 7260   3.536   4.344   3.648
 2432TIP3    H2 7261   3.503   4.467   3.729
 2433TIP3   OH2 7262   4.586   5.694   5.554
 2433TIP3    H1 7263   4.578   5.710   5.460
 2433TIP3    H2 7264   4.535   5.614   5.569
 2434TIP3   OH2 7265   6.767   6.231   5.392
 2434TIP3    H1 7266   6.785   6.139   5.414
 2434TIP3    H2 7267   6.703   6.226   5.320
 2435TIP3   OH2 7268   1.202   6.103   4.930
 2435TIP3    H1 7269   1.224   6.082   5.020
 2435TIP3    H2 7270   1.229   6.194   4.919
 2436TIP3   OH2 7271   1.709   2.361   4.370
 2436TIP3    H1 7272   1.691   2.268   4.357
 2436TIP3    H2 7273   1.627   2.397   4.404
 2437TIP3   OH2 7274   2.155   4.143   5.287
 2437TIP3    H1 7275   2.227   4.167   5.345
 2437TIP3    H2 7276   2.088   4.106   5.345
 2438TIP3   OH2 7277   2.850   5.180   0.629
 2438TIP3    H1 7278   2.900   5.119   0.683
 2438TIP3    H2 7279   2.840   5.258   0.683
 2439TIP3   OH2 7280   2.195   5.185   4.699
 2439TIP3    H1 7281   2.153   5.248   4.641
 2439TIP3    H2 7282   2.151   5.197   4.784
 2440TIP3   OH2 7283   2.313   0.222   2.260
 2440TIP3    H1 7284   2.284   0.258   2.177
 2440TIP3    H2 7285   2.256   0.264   2.325
 2441TIP3   OH2 7286   3.337   3.563   5.598
 2441TIP3    H1 7287   3.345   3.612   5.680
 2441TIP3    H2 7288   3.428   3.552   5.568
 2442TIP3   OH2 7289   0.511   2.136   4.811
 2442TIP3    H1 7290   0.442   2.202   4.821
 2442TIP3    H2 7291   0.467   2.060   4.773
 2443TIP3   OH2 7292   6.921   5.873   2.873
 2443TIP3    H1 7293   6.839   5.921   2.886
 2443TIP3    H2 7294   6.921   5.806   2.941
 2444TIP3   OH2 7295   5.293   5.660   4.757
 2444TIP3    H1 7296   5.372   5.643   4.705
 2444TIP3    H2 7297   5.319   5.728   4.819
 2445TIP3   OH2 7298   6.131   4.622   4.585
 2445TIP3    H1 7299   6.148   4.716   4.585
 2445TIP3    H2 7300   6.213   4.583   4.614
 2446TIP3   OH2 7301   6.855   2.452   0.787
 2446TIP3    H1 7302   6.762   2.442   0.803
 2446TIP3    H2 7303   6.876   2.540   0.817
 2447TIP3   OH2 7304   2.650   6.704   5.780
 2447TIP3    H1 7305   2.572   6.675   5.733
 2447TIP3    H2 7306   2.617   6.756   5.853
 2448TIP3   OH2 7307   5.152   1.766   5.061
 2448TIP3    H1 7308   5.239   1.781   5.023
 2448TIP3    H2 7309   5.146   1.670   5.068
 2449TIP3   OH2 7310   4.027   3.790   5.512
 2449TIP3    H1 7311   4.038   3.813   5.420
 2449TIP3    H2 7312   4.000   3.872   5.554
 2450TIP3   OH2 7313   2.610   3.429   5.864
 2450TIP3    H1 7314   2.519   3.420   5.834
 2450TIP3    H2 7315   2.651   3.485   5.798
 2451TIP3   OH2 7316   3.730   4.066   4.870
 2451TIP3    H1 7317   3.680   4.029   4.797
 2451TIP3    H2 7318   3.687   4.150   4.888
 2452TIP3   OH2 7319   4.880   6.110   2.713
 2452TIP3    H1 7320   4.870   6.103   2.618
 2452TIP3    H2 7321   4.956   6.167   2.725
 2453TIP3   OH2 7322   1.034   1.014   1.278
 2453TIP3    H1 7323   1.119   0.973   1.266
 2453TIP3    H2 7324   1.044   1.102   1.242
 2454TIP3   OH2 7325   2.586   0.501   0.594
 2454TIP3    H1 7326   2.608   0.548   0.674
 2454TIP3    H2 7327   2.499   0.533   0.571
 2455TIP3   OH2 7328   2.997   2.300   3.164
 2455TIP3    H1 7329   2.930   2.332   3.224
 2455TIP3    H2 7330   3.017   2.211   3.194
 2456TIP3   OH2 7331   5.000   5.900   3.140
 2456TIP3    H1 7332   4.962   5.844   3.072
 2456TIP3    H2 7333   4.936   5.895   3.212
 2457TIP3   OH2 7334   0.631   4.051   5.043
 2457TIP3    H1 7335   0.687   4.001   5.102
 2457TIP3    H2 7336   0.676   4.048   4.958
 2458TIP3   OH2 7337   0.937   5.043   1.345
 2458TIP3    H1 7338   1.004   5.111   1.353
 2458TIP3    H2 7339   0.880   5.073   1.275
 2459TIP3   OH2 7340   0.229   0.177   2.103
 2459TIP3    H1 7341   0.256   0.209   2.189
 2459TIP3    H2 7342   0.158   0.235   2.076
 2460TIP3   OH2 7343   3.779   1.436   1.407
 2460TIP3    H1 7344   3.695   1.472   1.436
 2460TIP3    H2 7345   3.817   1.504   1.351
 2461TIP3   OH2 7346   4.194   3.532   5.071
 2461TIP3    H1 7347   4.115   3.568   5.032
 2461TIP3    H2 7348   4.185   3.437   5.060
 2462TIP3   OH2 7349   0.282   0.063   0.458
 2462TIP3    H1 7350   0.280  -0.032   0.443
 2462TIP3    H2 7351   0.220   0.099   0.395
 2463TIP3   OH2 7352   0.483   3.534   2.002
 2463TIP3    H1 7353   0.467   3.624   1.972
 2463TIP3    H2 7354   0.576   3.533   2.025
 2464TIP3   OH2 7355   5.883   6.044   1.422
 2464TIP3    H1 7356   5.823   6.092   1.479
 2464TIP3    H2 7357   5.945   6.002   1.482
 2465TIP3   OH2 7358   7.014   3.120   4.765
 2465TIP3    H1 7359   6.927   3.141   4.732
 2465TIP3    H2 7360   7.002   3.036   4.810
 2466TIP3   OH2 7361   4.857   3.284   5.472
 2466TIP3    H1 7362   4.856   3.306   5.379
 2466TIP3    H2 7363   4.764   3.279   5.496
 2467TIP3   OH2 7364   5.600   5.649   0.045
 2467TIP3    H1 7365   5.628   5.558   0.036
 2467TIP3    H2 7366   5.518   5.654  -0.004
 2468TIP3   OH2 7367   5.706   0.186   0.339
 2468TIP3    H1 7368   5.789   0.195   0.291
 2468TIP3    H2 7369   5.667   0.273   0.337
 2469TIP3   OH2 7370   6.301   2.946   5.838
 2469TIP3    H1 7371   6.388   2.957   5.799
 2469TIP3    H2 7372   6.284   3.028   5.884
 2470TIP3   OH2 7373   2.333   6.440   2.548
 2470TIP3    H1 7374   2.400   6.502   2.575
 2470TIP3    H2 7375   2.316   6.387   2.626
 2471TIP3   OH2 7376   4.619   3.969   3.874
 2471TIP3    H1 7377   4.583   3.997   3.958
 2471TIP3    H2 7378   4.712   3.988   3.880
 2472TIP3   OH2 7379   4.801   1.646   2.142
 2472TIP3    H1 7380   4.859   1.592   2.088
 2472TIP3    H2 7381   4.846   1.730   2.150
 2473TIP3   OH2 7382   4.080   5.601   5.521
 2473TIP3    H1 7383   4.120   5.653   5.451
 2473TIP3    H2 7384   3.986   5.607   5.504
 2474TIP3   OH2 7385   5.420   2.847   2.153
 2474TIP3    H1 7386   5.452   2.757   2.158
 2474TIP3    H2 7387   5.377   2.852   2.068
 2475TIP3   OH2 7388   2.641   4.886   1.425
 2475TIP3    H1 7389   2.659   4.855   1.514
 2475TIP3    H2 7390   2.552   4.855   1.406
 2476TIP3   OH2 7391   5.085   5.697   4.520
 2476TIP3    H1 7392   5.073   5.763   4.588
 2476TIP3    H2 7393   5.067   5.614   4.563
 2477TIP3   OH2 7394   2.448   2.608   0.318
 2477TIP3    H1 7395   2.523   2.596   0.260
 2477TIP3    H2 7396   2.372   2.588   0.264
 2478TIP3   OH2 7397   2.064   5.067   0.670
 2478TIP3    H1 7398   1.969   5.075   0.664
 2478TIP3    H2 7399   2.079   5.032   0.758
 2479TIP3   OH2 7400   1.261   1.989   1.612
 2479TIP3    H1 7401   1.174   2.011   1.580
 2479TIP3    H2 7402   1.259   2.010   1.705
 2480TIP3   OH2 7403   6.082   5.784   3.610
 2480TIP3    H1 7404   6.086   5.856   3.674
 2480TIP3    H2 7405   6.059   5.707   3.662
 2481TIP3   OH2 7406   5.119   4.065   2.531
 2481TIP3    H1 7407   5.168   4.022   2.601
 2481TIP3    H2 7408   5.096   4.151   2.566
 2482TIP3   OH2 7409   1.408   0.962   3.086
 2482TIP3    H1 7410   1.340   0.921   3.032
 2482TIP3    H2 7411   1.470   0.997   3.022
 2483TIP3   OH2 7412   1.837   6.345   4.425
 2483TIP3    H1 7413   1.835   6.329   4.331
 2483TIP3    H2 7414   1.875   6.432   4.435
 2484TIP3   OH2 7415   3.259   2.838   2.891
 2484TIP3    H1 7416   3.242   2.746   2.867
 2484TIP3    H2 7417   3.312   2.833   2.970
 2485TIP3   OH2 7418   0.124   0.711   3.292
 2485TIP3    H1 7419   0.094   0.785   3.239
 2485TIP3    H2 7420   0.049   0.652   3.295
 2486TIP3   OH2 7421   1.895   1.792   1.802
 2486TIP3    H1 7422   1.908   1.726   1.734
 2486TIP3    H2 7423   1.948   1.761   1.876
 2487TIP3   OH2 7424   3.652   1.290   5.794
 2487TIP3    H1 7425   3.688   1.275   5.882
 2487TIP3    H2 7426   3.653   1.385   5.784
 2488TIP3   OH2 7427   0.239   0.698   1.520
 2488TIP3    H1 7428   0.327   0.724   1.495
 2488TIP3    H2 7429   0.185   0.721   1.445
 2489TIP3   OH2 7430   1.490   6.726   4.335
 2489TIP3    H1 7431   1.526   6.763   4.255
 2489TIP3    H2 7432   1.397   6.751   4.334
 2490TIP3   OH2 7433   1.784   4.312   4.834
 2490TIP3    H1 7434   1.721   4.306   4.906
 2490TIP3    H2 7435   1.868   4.328   4.876
 2491TIP3   OH2 7436   4.269   4.648   0.311
 2491TIP3    H1 7437   4.266   4.554   0.330
 2491TIP3    H2 7438   4.197   4.685   0.363
 2492TIP3   OH2 7439   3.868   3.072   3.893
 2492TIP3    H1 7440   3.802   3.134   3.924
 2492TIP3    H2 7441   3.951   3.120   3.900
 2493TIP3   OH2 7442   5.274   2.979   0.727
 2493TIP3    H1 7443   5.190   3.011   0.696
 2493TIP3    H2 7444   5.260   2.885   0.742
 2494TIP3   OH2 7445   1.215   4.505  -0.006
 2494TIP3    H1 7446   1.238   4.413   0.004
 2494TIP3    H2 7447   1.144   4.504  -0.071
 2495TIP3   OH2 7448   0.040   6.754   0.676
 2495TIP3    H1 7449   0.085   6.809   0.740
 2495TIP3    H2 7450  -0.052   6.780   0.682
 2496TIP3   OH2 7451   5.527   3.331   2.330
 2496TIP3    H1 7452   5.621   3.352   2.327
 2496TIP3    H2 7453   5.508   3.325   2.424
 2497TIP3   OH2 7454   6.747   0.887   2.166
 2497TIP3    H1 7455   6.792   0.950   2.222
 2497TIP3    H2 7456   6.766   0.802   2.205
 2498TIP3   OH2 7457   5.210   0.582   4.873
 2498TIP3    H1 7458   5.141   0.639   4.908
 2498TIP3    H2 7459   5.164   0.523   4.814
 2499TIP3   OH2 7460   6.404   0.129   0.795
 2499TIP3    H1 7461   6.322   0.087   0.822
 2499TIP3    H2 7462   6.420   0.094   0.707
 2500TIP3   OH2 7463   4.919   3.933   4.483
 2500TIP3    H1 7464   4.906   3.841   4.460
 2500TIP3    H2 7465   4.958   3.931   4.570
 2501TIP3   OH2 7466   3.098   4.574   3.480
 2501TIP3    H1 7467   3.135   4.549   3.396
 2501TIP3    H2 7468   3.004   4.563   3.469
 2502TIP3   OH2 7469   1.416   2.393   1.732
 2502TIP3    H1 7470   1.346   2.415   1.670
 2502TIP3    H2 7471   1.481   2.462   1.719
 2503TIP3   OH2 7472   6.316   1.691   5.491
 2503TIP3    H1 7473   6.411   1.703   5.494
 2503TIP3    H2 7474   6.302   1.605   5.531
 2504TIP3   OH2 7475   0.571   0.362   0.401
 2504TIP3    H1 7476   0.509   0.324   0.463
 2504TIP3    H2 7477   0.562   0.457   0.413
 2505TIP3   OH2 7478   5.867   4.137   3.135
 2505TIP3    H1 7479   5.849   4.133   3.228
 2505TIP3    H2 7480   5.934   4.070   3.120
 2506TIP3   OH2 7481   6.419   6.337   2.405
 2506TIP3    H1 7482   6.448   6.332   2.496
 2506TIP3    H2 7483   6.359   6.263   2.395
 2507TIP3   OH2 7484   2.016   5.428   5.882
 2507TIP3    H1 7485   1.952   5.393   5.819
 2507TIP3    H2 7486   2.093   5.449   5.829
 2508TIP3   OH2 7487   3.934   5.485   0.418
 2508TIP3    H1 7488   3.866   5.527   0.366
 2508TIP3    H2 7489   3.991   5.557   0.445
 2509TIP3   OH2 7490   3.757   6.330   4.412
 2509TIP3    H1 7491   3.731   6.292   4.328
 2509TIP3    H2 7492   3.849   6.306   4.422
 2510TIP3   OH2 7493   6.955   2.730   3.131
 2510TIP3    H1 7494   7.047   2.754   3.123
 2510TIP3    H2 7495   6.954   2.635   3.121
 2511TIP3   OH2 7496   4.682   4.460   1.476
 2511TIP3    H1 7497   4.756   4.452   1.536
 2511TIP3    H2 7498   4.707   4.529   1.416
 2512TIP3   OH2 7499   1.944   0.637   4.039
 2512TIP3    H1 7500   1.954   0.542   4.043
 2512TIP3    H2 7501   1.894   0.658   4.118
 2513TIP3   OH2 7502   7.208   1.261   4.458
 2513TIP3    H1 7503   7.233   1.170   4.440
 2513TIP3    H2 7504   7.238   1.310   4.381
 2514TIP3   OH2 7505   5.571   2.350   5.097
 2514TIP3    H1 7506   5.628   2.319   5.167
 2514TIP3    H2 7507   5.539   2.435   5.129
 2515TIP3   OH2 7508   5.989   6.718   2.693
 2515TIP3    H1 7509   6.063   6.671   2.656
 2515TIP3    H2 7510   5.951   6.767   2.620
 2516TIP3   OH2 7511   3.906   2.737   0.589
 2516TIP3    H1 7512   3.954   2.795   0.648
 2516TIP3    H2 7513   3.825   2.784   0.570
 2517TIP3   OH2 7514   2.329   6.664   0.552
 2517TIP3    H1 7515   2.277   6.613   0.614
 2517TIP3    H2 7516   2.341   6.606   0.476
 2518TIP3   OH2 7517   3.364   1.906   0.453
 2518TIP3    H1 7518   3.290   1.962   0.478
 2518TIP3    H2 7519   3.376   1.922   0.359
 2519TIP3   OH2 7520   5.031   2.036   5.267
 2519TIP3    H1 7521   4.970   2.107   5.283
 2519TIP3    H2 7522   4.976   1.958   5.260
 2520TIP3   OH2 7523   2.199   6.783   2.810
 2520TIP3    H1 7524   2.163   6.760   2.896
 2520TIP3    H2 7525   2.268   6.847   2.830
 2521TIP3   OH2 7526   1.419   6.228   3.920
 2521TIP3    H1 7527   1.511   6.201   3.926
 2521TIP3    H2 7528   1.417   6.285   3.843
 2522TIP3   OH2 7529   6.659   6.664   2.103
 2522TIP3    H1 7530   6.581   6.625   2.142
 2522TIP3    H2 7531   6.645   6.659   2.009
 2523TIP3   OH2 7532   0.250   0.523   2.012
 2523TIP3    H1 7533   0.308   0.588   2.053
 2523TIP3    H2 7534   0.201   0.487   2.086
 2524TIP3   OH2 7535   5.694   6.525   3.544
 2524TIP3    H1 7536   5.758   6.468   3.586
 2524TIP3    H2 7537   5.745   6.599   3.511
 2525TIP3   OH2 7538   3.510   3.573   1.635
 2525TIP3    H1 7539   3.587   3.591   1.690
 2525TIP3    H2 7540   3.440   3.625   1.674
 2526TIP3   OH2 7541   0.213   1.514   3.071
 2526TIP3    H1 7542   0.291   1.457   3.076
 2526TIP3    H2 7543   0.152   1.476   3.134
 2527TIP3   OH2 7544   1.545   4.391   4.104
 2527TIP3    H1 7545   1.496   4.370   4.184
 2527TIP3    H2 7546   1.586   4.309   4.079
 2528TIP3   OH2 7547   4.696   1.967   4.765
 2528TIP3    H1 7548   4.645   1.940   4.842
 2528TIP3    H2 7549   4.709   1.886   4.715
 2529TIP3   OH2 7550   5.536   0.299   3.235
 2529TIP3    H1 7551   5.500   0.226   3.286
 2529TIP3    H2 7552   5.619   0.267   3.201
 2530TIP3   OH2 7553   1.844   3.289   4.298
 2530TIP3    H1 7554   1.933   3.259   4.314
 2530TIP3    H2 7555   1.822   3.343   4.374
 2531TIP3   OH2 7556   4.977   0.819   1.242
 2531TIP3    H1 7557   4.962   0.725   1.252
 2531TIP3    H2 7558   4.896   0.853   1.205
 2532TIP3   OH2 7559   6.683   2.822   1.116
 2532TIP3    H1 7560   6.691   2.771   1.196
 2532TIP3    H2 7561   6.717   2.909   1.139
 2533TIP3   OH2 7562   0.747   1.465   4.518
 2533TIP3    H1 7563   0.725   1.547   4.474
 2533TIP3    H2 7564   0.835   1.479   4.553
 2534TIP3   OH2 7565   3.262   6.570   3.182
 2534TIP3    H1 7566   3.284   6.660   3.207
 2534TIP3    H2 7567   3.204   6.540   3.251
 2535TIP3   OH2 7568   3.087   5.019   3.452
 2535TIP3    H1 7569   3.172   4.997   3.413
 2535TIP3    H2 7570   3.028   4.950   3.421
 2536TIP3   OH2 7571   0.524   3.162   3.168
 2536TIP3    H1 7572   0.552   3.224   3.235
 2536TIP3    H2 7573   0.601   3.106   3.155
 2537TIP3   OH2 7574   5.769   5.200   4.477
 2537TIP3    H1 7575   5.694   5.253   4.453
 2537TIP3    H2 7576   5.774   5.133   4.410
 2538TIP3   OH2 7577   5.010   3.003   0.677
 2538TIP3    H1 7578   5.006   2.920   0.724
 2538TIP3    H2 7579   4.934   3.000   0.618
 2539TIP3   OH2 7580   3.101   3.503   3.817
 2539TIP3    H1 7581   3.162   3.545   3.756
 2539TIP3    H2 7582   3.147   3.503   3.901
 2540TIP3   OH2 7583   5.206   2.335   2.358
 2540TIP3    H1 7584   5.154   2.416   2.364
 2540TIP3    H2 7585   5.295   2.362   2.382
 2541TIP3   OH2 7586   2.891   2.139   3.895
 2541TIP3    H1 7587   2.955   2.077   3.931
 2541TIP3    H2 7588   2.922   2.158   3.807
 2542TIP3   OH2 7589   5.529   0.033   0.911
 2542TIP3    H1 7590   5.591  -0.037   0.930
 2542TIP3    H2 7591   5.548   0.100   0.977
 2543TIP3   OH2 7592   5.795   1.329   5.059
 2543TIP3    H1 7593   5.837   1.312   5.144
 2543TIP3    H2 7594   5.735   1.255   5.047
 2544TIP3   OH2 7595   5.217   1.356   2.699
 2544TIP3    H1 7596   5.285   1.296   2.670
 2544TIP3    H2 7597   5.265   1.430   2.737
 2545TIP3   OH2 7598   6.561   1.190   5.729
 2545TIP3    H1 7599   6.476   1.147   5.721
 2545TIP3    H2 7600   6.624   1.124   5.698
 2546TIP3   OH2 7601   0.477   2.656   0.108
 2546TIP3    H1 7602   0.382   2.672   0.111
 2546TIP3    H2 7603   0.492   2.618   0.021
 2547TIP3   OH2 7604   6.847   6.755   2.783
 2547TIP3    H1 7605   6.769   6.808   2.800
 2547TIP3    H2 7606   6.915   6.818   2.760
 2548TIP3   OH2 7607   0.779   5.237   3.959
 2548TIP3    H1 7608   0.709   5.202   4.013
 2548TIP3    H2 7609   0.814   5.311   4.009
 2549TIP3   OH2 7610   1.569   3.609   1.316
 2549TIP3    H1 7611   1.490   3.657   1.343
 2549TIP3    H2 7612   1.599   3.655   1.237
 2550TIP3   OH2 7613   6.346   4.451   2.181
 2550TIP3    H1 7614   6.409   4.450   2.253
 2550TIP3    H2 7615   6.288   4.378   2.198
 2551TIP3   OH2 7616   3.492   0.551   2.726
 2551TIP3    H1 7617   3.409   0.508   2.710
 2551TIP3    H2 7618   3.534   0.556   2.640
 2552TIP3   OH2 7619   2.325   0.529   4.587
 2552TIP3    H1 7620   2.407   0.533   4.536
 2552TIP3    H2 7621   2.267   0.591   4.543
 2553TIP3   OH2 7622   4.884   5.844   3.703
 2553TIP3    H1 7623   4.889   5.753   3.729
 2553TIP3    H2 7624   4.894   5.894   3.784
 2554TIP3   OH2 7625   1.590   6.237   3.014
 2554TIP3    H1 7626   1.579   6.327   2.983
 2554TIP3    H2 7627   1.620   6.246   3.104
 2555TIP3   OH2 7628   6.298   1.711   0.347
 2555TIP3    H1 7629   6.371   1.770   0.330
 2555TIP3    H2 7630   6.260   1.693   0.261
 2556TIP3   OH2 7631   5.683   0.185   5.772
 2556TIP3    H1 7632   5.730   0.141   5.702
 2556TIP3    H2 7633   5.613   0.125   5.796
 2557TIP3   OH2 7634   0.058   1.134   4.157
 2557TIP3    H1 7635   0.060   1.039   4.165
 2557TIP3    H2 7636   0.150   1.158   4.142
 2558TIP3   OH2 7637   5.829   0.215   0.601
 2558TIP3    H1 7638   5.776   0.240   0.525
 2558TIP3    H2 7639   5.894   0.154   0.566
 2559TIP3   OH2 7640   1.518   0.759   2.603
 2559TIP3    H1 7641   1.484   0.671   2.582
 2559TIP3    H2 7642   1.522   0.803   2.518
 2560TIP3   OH2 7643   0.257   5.729   1.976
 2560TIP3    H1 7644   0.280   5.800   1.917
 2560TIP3    H2 7645   0.338   5.707   2.021
 2561TIP3   OH2 7646   5.598   5.597   1.054
 2561TIP3    H1 7647   5.667   5.661   1.073
 2561TIP3    H2 7648   5.601   5.536   1.127
 2562TIP3   OH2 7649   0.984   3.328   2.135
 2562TIP3    H1 7650   0.953   3.238   2.149
 2562TIP3    H2 7651   1.056   3.318   2.072
 2563TIP3   OH2 7652   1.666   4.843   3.510
 2563TIP3    H1 7653   1.647   4.895   3.589
 2563TIP3    H2 7654   1.761   4.849   3.501
 2564TIP3   OH2 7655   4.457   4.696   2.885
 2564TIP3    H1 7656   4.367   4.667   2.867
 2564TIP3    H2 7657   4.486   4.640   2.957
 2565TIP3   OH2 7658   3.821   4.308   0.176
 2565TIP3    H1 7659   3.814   4.374   0.246
 2565TIP3    H2 7660   3.915   4.292   0.168
 2566TIP3   OH2 7661   3.324   2.289   0.448
 2566TIP3    H1 7662   3.278   2.346   0.388
 2566TIP3    H2 7663   3.393   2.248   0.395
 2567TIP3   OH2 7664   5.934   0.465   4.844
 2567TIP3    H1 7665   5.927   0.483   4.938
 2567TIP3    H2 7666   5.843   0.461   4.813
 2568TIP3   OH2 7667   4.430   0.510   4.683
 2568TIP3    H1 7668   4.437   0.551   4.597
 2568TIP3    H2 7669   4.336   0.510   4.703
 2569TIP3   OH2 7670   1.202   4.421   5.850
 2569TIP3    H1 7671   1.108   4.434   5.837
 2569TIP3    H2 7672   1.235   4.508   5.872
 2570TIP3   OH2 7673   1.000   4.072   4.471
 2570TIP3    H1 7674   0.914   4.109   4.450
 2570TIP3    H2 7675   0.999   3.985   4.431
 2571TIP3   OH2 7676   2.042   2.145   2.991
 2571TIP3    H1 7677   2.040   2.238   3.014
 2571TIP3    H2 7678   2.057   2.143   2.897
 2572TIP3   OH2 7679   2.621   3.437   0.429
 2572TIP3    H1 7680   2.580   3.432   0.342
 2572TIP3    H2 7681   2.565   3.495   0.479
 2573TIP3   OH2 7682   5.460   1.074   4.817
 2573TIP3    H1 7683   5.438   0.991   4.774
 2573TIP3    H2 7684   5.482   1.133   4.746
 2574TIP3   OH2 7685   6.000   0.709   0.701
 2574TIP3    H1 7686   6.055   0.788   0.701
 2574TIP3    H2 7687   5.925   0.732   0.646
 2575TIP3   OH2 7688   4.453   4.911   5.263
 2575TIP3    H1 7689   4.491   4.952   5.340
 2575TIP3    H2 7690   4.525   4.904   5.201
 2576TIP3   OH2 7691   5.296   4.797   0.064
 2576TIP3    H1 7692   5.249   4.819   0.144
 2576TIP3    H2 7693   5.279   4.871   0.005
 2577TIP3   OH2 7694   4.884   2.668   3.563
 2577TIP3    H1 7695   4.853   2.747   3.519
 2577TIP3    H2 7696   4.848   2.673   3.651
 2578TIP3   OH2 7697   0.924   5.591   5.313
 2578TIP3    H1 7698   0.845   5.573   5.363
 2578TIP3    H2 7699   0.938   5.685   5.324
 2579TIP3   OH2 7700   5.483   2.919   4.006
 2579TIP3    H1 7701   5.434   2.955   3.932
 2579TIP3    H2 7702   5.515   2.835   3.975
 2580TIP3   OH2 7703   1.091   6.601   2.562
 2580TIP3    H1 7704   1.046   6.586   2.645
 2580TIP3    H2 7705   1.122   6.514   2.535
 2581TIP3   OH2 7706   3.749   6.299   0.102
 2581TIP3    H1 7707   3.714   6.262   0.183
 2581TIP3    H2 7708   3.809   6.231   0.069
 2582TIP3   OH2 7709   6.028   6.558   4.716
 2582TIP3    H1 7710   6.009   6.651   4.702
 2582TIP3    H2 7711   5.977   6.535   4.793
 2583TIP3   OH2 7712   3.331   6.317   1.095
 2583TIP3    H1 7713   3.359   6.242   1.042
 2583TIP3    H2 7714   3.268   6.280   1.158
 2584TIP3   OH2 7715   5.694   1.136   2.390
 2584TIP3    H1 7716   5.699   1.059   2.334
 2584TIP3    H2 7717   5.614   1.182   2.361
 2585TIP3   OH2 7718   0.796   3.082   2.213
 2585TIP3    H1 7719   0.869   3.046   2.263
 2585TIP3    H2 7720   0.719   3.061   2.266
 2586TIP3   OH2 7721   5.496   0.431   4.178
 2586TIP3    H1 7722   5.456   0.346   4.161
 2586TIP3    H2 7723   5.539   0.455   4.096
 2587TIP3   OH2 7724   3.850   3.955   4.148
 2587TIP3    H1 7725   3.866   3.969   4.242
 2587TIP3    H2 7726   3.756   3.937   4.143
 2588TIP3   OH2 7727   3.701   5.175   5.308
 2588TIP3    H1 7728   3.684   5.149   5.218
 2588TIP3    H2 7729   3.715   5.093   5.355
 2589TIP3   OH2 7730   0.970   5.317   1.127
 2589TIP3    H1 7731   0.900   5.377   1.102
 2589TIP3    H2 7732   1.040   5.373   1.160
 2590TIP3   OH2 7733   2.008   0.550   5.677
 2590TIP3    H1 7734   2.004   0.457   5.696
 2590TIP3    H2 7735   2.021   0.555   5.583
 2591TIP3   OH2 7736   2.059   2.621   3.232
 2591TIP3    H1 7737   1.966   2.627   3.251
 2591TIP3    H2 7738   2.070   2.670   3.150
 2592TIP3   OH2 7739   6.260   4.721   3.650
 2592TIP3    H1 7740   6.233   4.641   3.694
 2592TIP3    H2 7741   6.284   4.781   3.721
 2593TIP3   OH2 7742   6.166   2.322   2.287
 2593TIP3    H1 7743   6.200   2.390   2.344
 2593TIP3    H2 7744   6.071   2.329   2.293
 2594TIP3   OH2 7745   5.795   6.422   1.057
 2594TIP3    H1 7746   5.792   6.353   1.124
 2594TIP3    H2 7747   5.824   6.500   1.104
 2595TIP3   OH2 7748   3.295   3.971   4.831
 2595TIP3    H1 7749   3.252   4.000   4.912
 2595TIP3    H2 7750   3.272   4.038   4.767
 2596TIP3   OH2 7751   3.307   3.220   5.908
 2596TIP3    H1 7752   3.220   3.259   5.912
 2596TIP3    H2 7753   3.303   3.160   5.833
 2597TIP3   OH2 7754   6.766   0.617   1.925
 2597TIP3    H1 7755   6.771   0.623   1.829
 2597TIP3    H2 7756   6.674   0.631   1.945
 2598TIP3   OH2 7757   3.508   1.397   3.669
 2598TIP3    H1 7758   3.552   1.479   3.694
 2598TIP3    H2 7759   3.434   1.391   3.729
 2599TIP3   OH2 7760   2.118   1.781   2.371
 2599TIP3    H1 7761   2.073   1.863   2.350
 2599TIP3    H2 7762   2.163   1.799   2.454
 2600TIP3   OH2 7763   4.385   1.018   1.043
 2600TIP3    H1 7764   4.438   1.098   1.042
 2600TIP3    H2 7765   4.384   0.989   0.952
 2601TIP3   OH2 7766   5.472   4.141   4.054
 2601TIP3    H1 7767   5.448   4.213   3.996
 2601TIP3    H2 7768   5.545   4.098   4.009
 2602TIP3   OH2 7769   1.955   3.907   2.988
 2602TIP3    H1 7770   1.953   3.967   2.913
 2602TIP3    H2 7771   2.014   3.948   3.050
 2603TIP3   OH2 7772   3.765   4.595   3.581
 2603TIP3    H1 7773   3.693   4.658   3.586
 2603TIP3    H2 7774   3.726   4.518   3.540
 2604TIP3   OH2 7775   6.215   4.879   3.080
 2604TIP3    H1 7776   6.136   4.923   3.049
 2604TIP3    H2 7777   6.186   4.794   3.110
 2605TIP3   OH2 7778   6.332   0.954   3.670
 2605TIP3    H1 7779   6.308   1.037   3.711
 2605TIP3    H2 7780   6.287   0.954   3.586
 2606TIP3   OH2 7781   3.309   5.054   2.260
 2606TIP3    H1 7782   3.331   5.073   2.351
 2606TIP3    H2 7783   3.215   5.033   2.262
 2607TIP3   OH2 7784   1.697   4.864   3.225
 2607TIP3    H1 7785   1.762   4.843   3.292
 2607TIP3    H2 7786   1.639   4.788   3.223
 2608TIP3   OH2 7787   6.180   6.508   5.898
 2608TIP3    H1 7788   6.096   6.526   5.855
 2608TIP3    H2 7789   6.205   6.591   5.937
 2609TIP3   OH2 7790   6.700   5.354   2.269
 2609TIP3    H1 7791   6.739   5.276   2.229
 2609TIP3    H2 7792   6.767   5.422   2.260
 2610TIP3   OH2 7793   2.731   2.288   4.503
 2610TIP3    H1 7794   2.695   2.369   4.539
 2610TIP3    H2 7795   2.658   2.248   4.456
 2611TIP3   OH2 7796   3.674   6.085   5.562
 2611TIP3    H1 7797   3.708   6.064   5.649
 2611TIP3    H2 7798   3.638   6.003   5.529
 2612TIP3   OH2 7799   4.849   4.729   4.521
 2612TIP3    H1 7800   4.833   4.638   4.545
 2612TIP3    H2 7801   4.761   4.765   4.506
 2613TIP3   OH2 7802   3.900   5.487   0.722
 2613TIP3    H1 7803   3.926   5.514   0.634
 2613TIP3    H2 7804   3.812   5.450   0.711
 2614TIP3   OH2 7805   2.701   4.257   5.773
 2614TIP3    H1 7806   2.781   4.217   5.739
 2614TIP3    H2 7807   2.733   4.322   5.836
 2615TIP3   OH2 7808   5.130   5.055   0.451
 2615TIP3    H1 7809   5.172   5.104   0.522
 2615TIP3    H2 7810   5.075   4.990   0.496
 2616TIP3   OH2 7811   2.725   5.632   3.167
 2616TIP3    H1 7812   2.794   5.568   3.177
 2616TIP3    H2 7813   2.763   5.714   3.201
 2617TIP3   OH2 7814   1.000   6.405   2.808
 2617TIP3    H1 7815   1.051   6.340   2.760
 2617TIP3    H2 7816   0.969   6.359   2.885
 2618TIP3   OH2 7817   4.184   3.251   4.196
 2618TIP3    H1 7818   4.124   3.312   4.238
 2618TIP3    H2 7819   4.210   3.190   4.265
 2619TIP3   OH2 7820   3.987   1.431   0.947
 2619TIP3    H1 7821   4.019   1.375   0.876
 2619TIP3    H2 7822   4.052   1.501   0.952
 2620TIP3   OH2 7823   0.488   0.751   1.416
 2620TIP3    H1 7824   0.573   0.707   1.424
 2620TIP3    H2 7825   0.494   0.799   1.334
 2621TIP3   OH2 7826   5.390   4.209   0.981
 2621TIP3    H1 7827   5.461   4.220   0.919
 2621TIP3    H2 7828   5.339   4.136   0.947
 2622TIP3   OH2 7829   4.981   1.778   5.818
 2622TIP3    H1 7830   5.003   1.707   5.757
 2622TIP3    H2 7831   5.055   1.782   5.878
 2623TIP3   OH2 7832   1.016   1.236   1.061
 2623TIP3    H1 7833   0.926   1.256   1.087
 2623TIP3    H2 7834   1.067   1.310   1.096
 2624TIP3   OH2 7835   2.514   0.726   5.489
 2624TIP3    H1 7836   2.548   0.688   5.409
 2624TIP3    H2 7837   2.496   0.817   5.467
 2625TIP3   OH2 7838   1.346   1.150   5.888
 2625TIP3    H1 7839   1.331   1.136   5.795
 2625TIP3    H2 7840   1.425   1.099   5.907
 2626TIP3   OH2 7841   1.657   4.345   5.851
 2626TIP3    H1 7842   1.706   4.263   5.842
 2626TIP3    H2 7843   1.650   4.359   5.945
 2627TIP3   OH2 7844   3.217   6.209   1.957
 2627TIP3    H1 7845   3.256   6.152   2.023
 2627TIP3    H2 7846   3.126   6.221   1.985
 2628TIP3   OH2 7847   2.488   0.095   1.144
 2628TIP3    H1 7848   2.568   0.072   1.192
 2628TIP3    H2 7849   2.417   0.073   1.204
 2629TIP3   OH2 7850   0.043   1.042   0.396
 2629TIP3    H1 7851  -0.044   1.078   0.414
 2629TIP3    H2 7852   0.098   1.119   0.383
 2630TIP3   OH2 7853   6.789   4.750   1.594
 2630TIP3    H1 7854   6.717   4.719   1.539
 2630TIP3    H2 7855   6.787   4.845   1.585
 2631TIP3   OH2 7856   2.958   4.636   0.150
 2631TIP3    H1 7857   3.018   4.704   0.180
 2631TIP3    H2 7858   2.937   4.660   0.060
 2632TIP3   OH2 7859   0.522   1.525   4.207
 2632TIP3    H1 7860   0.435   1.525   4.246
 2632TIP3    H2 7861   0.514   1.469   4.130
 2633TIP3   OH2 7862   1.456   1.580   5.050
 2633TIP3    H1 7863   1.522   1.568   4.982
 2633TIP3    H2 7864   1.500   1.557   5.132
 2634TIP3   OH2 7865   2.488   2.361   0.065
 2634TIP3    H1 7866   2.417   2.426   0.064
 2634TIP3    H2 7867   2.567   2.412   0.045
 2635TIP3   OH2 7868   7.166   1.179   5.383
 2635TIP3    H1 7869   7.230   1.195   5.313
 2635TIP3    H2 7870   7.084   1.213   5.348
 2636TIP3   OH2 7871   4.848   1.841   4.292
 2636TIP3    H1 7872   4.863   1.830   4.386
 2636TIP3    H2 7873   4.754   1.858   4.285
 2637TIP3   OH2 7874   3.343   0.200   4.697
 2637TIP3    H1 7875   3.381   0.129   4.645
 2637TIP3    H2 7876   3.381   0.190   4.784
 2638TIP3   OH2 7877   6.719   5.120   1.181
 2638TIP3    H1 7878   6.670   5.114   1.263
 2638TIP3    H2 7879   6.688   5.045   1.129
 2639TIP3   OH2 7880   0.121   3.124   2.153
 2639TIP3    H1 7881   0.116   3.049   2.094
 2639TIP3    H2 7882   0.215   3.135   2.169
 2640TIP3   OH2 7883   4.410   1.624   4.083
 2640TIP3    H1 7884   4.324   1.638   4.042
 2640TIP3    H2 7885   4.471   1.675   4.029
 2641TIP3   OH2 7886   2.950   1.525   4.167
 2641TIP3    H1 7887   2.886   1.462   4.200
 2641TIP3    H2 7888   3.034   1.494   4.199
 2642TIP3   OH2 7889   4.722   3.374   5.831
 2642TIP3    H1 7890   4.656   3.326   5.882
 2642TIP3    H2 7891   4.805   3.332   5.854
 2643TIP3   OH2 7892   6.531   1.951   4.305
 2643TIP3    H1 7893   6.468   2.023   4.294
 2643TIP3    H2 7894   6.611   1.982   4.262
 2644TIP3   OH2 7895   2.179   3.320   5.457
 2644TIP3    H1 7896   2.221   3.351   5.377
 2644TIP3    H2 7897   2.236   3.250   5.488
 2645TIP3   OH2 7898   0.342   5.884   1.397
 2645TIP3    H1 7899   0.352   5.884   1.302
 2645TIP3    H2 7900   0.252   5.855   1.411
 2646TIP3   OH2 7901   7.110   5.875   3.728
 2646TIP3    H1 7902   7.102   5.787   3.765
 2646TIP3    H2 7903   7.021   5.910   3.730
 2647TIP3   OH2 7904   5.724   4.049   2.919
 2647TIP3    H1 7905   5.754   4.099   2.995
 2647TIP3    H2 7906   5.686   3.969   2.956
 2648TIP3   OH2 7907   0.488   1.582   2.829
 2648TIP3    H1 7908   0.544   1.617   2.759
 2648TIP3    H2 7909   0.404   1.624   2.815
 2649TIP3   OH2 7910   5.257   3.196   4.645
 2649TIP3    H1 7911   5.252   3.146   4.726
 2649TIP3    H2 7912   5.345   3.234   4.645
 2650TIP3   OH2 7913   5.062   3.594   1.576
 2650TIP3    H1 7914   5.003   3.618   1.648
 2650TIP3    H2 7915   5.044   3.502   1.560
 2651TIP3   OH2 7916   0.922   0.433   4.065
 2651TIP3    H1 7917   0.837   0.392   4.050
 2651TIP3    H2 7918   0.972   0.367   4.114
 2652TIP3   OH2 7919   4.635   4.495   4.517
 2652TIP3    H1 7920   4.665   4.526   4.432
 2652TIP3    H2 7921   4.541   4.481   4.506
 2653TIP3   OH2 7922   6.368   6.340   0.798
 2653TIP3    H1 7923   6.367   6.435   0.801
 2653TIP3    H2 7924   6.461   6.317   0.797
 2654TIP3   OH2 7925   0.230   0.806   2.234
 2654TIP3    H1 7926   0.303   0.787   2.175
 2654TIP3    H2 7927   0.153   0.777   2.185
 2655TIP3   OH2 7928   6.301   2.358   4.654
 2655TIP3    H1 7929   6.229   2.361   4.592
 2655TIP3    H2 7930   6.318   2.450   4.675
 2656TIP3   OH2 7931   4.895   3.605   5.717
 2656TIP3    H1 7932   4.834   3.637   5.651
 2656TIP3    H2 7933   4.914   3.515   5.689
 2657TIP3   OH2 7934   4.554   5.783   3.739
 2657TIP3    H1 7935   4.627   5.800   3.799
 2657TIP3    H2 7936   4.539   5.689   3.747
 2658TIP3   OH2 7937   4.148   5.121   3.068
 2658TIP3    H1 7938   4.237   5.090   3.052
 2658TIP3    H2 7939   4.096   5.042   3.072
 2659TIP3   OH2 7940   2.261   1.153   4.491
 2659TIP3    H1 7941   2.310   1.113   4.419
 2659TIP3    H2 7942   2.177   1.177   4.453
 2660TIP3   OH2 7943   5.727   0.562   3.672
 2660TIP3    H1 7944   5.722   0.506   3.594
 2660TIP3    H2 7945   5.694   0.506   3.743
 2661TIP3   OH2 7946   2.788   4.711   0.424
 2661TIP3    H1 7947   2.859   4.764   0.461
 2661TIP3    H2 7948   2.784   4.634   0.480
 2662TIP3   OH2 7949   4.976   2.546   1.522
 2662TIP3    H1 7950   5.038   2.539   1.595
 2662TIP3    H2 7951   4.890   2.550   1.564
 2663TIP3   OH2 7952   7.179   6.763   1.916
 2663TIP3    H1 7953   7.103   6.821   1.917
 2663TIP3    H2 7954   7.223   6.778   1.999
 2664TIP3   OH2 7955   0.772   2.371   4.045
 2664TIP3    H1 7956   0.757   2.464   4.030
 2664TIP3    H2 7957   0.762   2.360   4.139
 2665TIP3   OH2 7958   5.395   2.242   3.060
 2665TIP3    H1 7959   5.369   2.152   3.042
 2665TIP3    H2 7960   5.424   2.276   2.975
 2666TIP3   OH2 7961   0.997   6.429   4.872
 2666TIP3    H1 7962   0.927   6.494   4.861
 2666TIP3    H2 7963   0.967   6.373   4.943
 2667TIP3   OH2 7964   7.001   2.644   0.547
 2667TIP3    H1 7965   6.940   2.571   0.535
 2667TIP3    H2 7966   6.945   2.720   0.561
 2668TIP3   OH2 7967  -0.029   5.345   0.248
 2668TIP3    H1 7968  -0.066   5.411   0.307
 2668TIP3    H2 7969   0.044   5.308   0.297
 2669TIP3   OH2 7970   4.029   1.009   5.339
 2669TIP3    H1 7971   3.945   1.008   5.294
 2669TIP3    H2 7972   4.006   0.996   5.431
 2670TIP3   OH2 7973   1.634   1.557   1.551
 2670TIP3    H1 7974   1.723   1.527   1.570
 2670TIP3    H2 7975   1.626   1.641   1.597
 2671TIP3   OH2 7976   1.858   5.731   0.055
 2671TIP3    H1 7977   1.777   5.738   0.006
 2671TIP3    H2 7978   1.925   5.767  -0.003
 2672TIP3   OH2 7979   5.858   5.756   1.121
 2672TIP3    H1 7980   5.897   5.816   1.058
 2672TIP3    H2 7981   5.908   5.675   1.112
 2673TIP3   OH2 7982   3.639   1.636   3.857
 2673TIP3    H1 7983   3.598   1.553   3.882
 2673TIP3    H2 7984   3.574   1.703   3.879
 2674TIP3   OH2 7985   4.857   1.794   1.523
 2674TIP3    H1 7986   4.911   1.717   1.538
 2674TIP3    H2 7987   4.909   1.867   1.558
 2675TIP3   OH2 7988   5.893   3.642   3.644
 2675TIP3    H1 7989   5.938   3.717   3.606
 2675TIP3    H2 7990   5.963   3.592   3.687
 2676TIP3   OH2 7991   2.641   3.392   0.136
 2676TIP3    H1 7992   2.602   3.305   0.145
 2676TIP3    H2 7993   2.612   3.422   0.050
 2677TIP3   OH2 7994   2.912   2.436   5.644
 2677TIP3    H1 7995   2.986   2.379   5.663
 2677TIP3    H2 7996   2.919   2.455   5.550
 2678TIP3   OH2 7997   3.098   0.468   3.069
 2678TIP3    H1 7998   3.054   0.436   2.990
 2678TIP3    H2 7999   3.108   0.390   3.124
 2679TIP3   OH2 8000   3.411   6.619   2.804
 2679TIP3    H1 8001   3.451   6.600   2.719
 2679TIP3    H2 8002   3.452   6.558   2.865
 2680TIP3   OH2 8003   0.470   0.704   4.472
 2680TIP3    H1 8004   0.455   0.791   4.437
 2680TIP3    H2 8005   0.545   0.715   4.530
 2681TIP3   OH2 8006   3.367   6.157   3.741
 2681TIP3    H1 8007   3.452   6.187   3.709
 2681TIP3    H2 8008   3.310   6.233   3.733
 2682TIP3   OH2 8009   4.589   1.431   1.649
 2682TIP3    H1 8010   4.637   1.448   1.568
 2682TIP3    H2 8011   4.523   1.365   1.624
 2683TIP3   OH2 8012   0.324   1.277   0.710
 2683TIP3    H1 8013   0.349   1.256   0.799
 2683TIP3    H2 8014   0.385   1.347   0.684
 2684TIP3   OH2 8015   6.076   4.856   3.472
 2684TIP3    H1 8016   6.037   4.776   3.438
 2684TIP3    H2 8017   6.131   4.827   3.545
 2685TIP3   OH2 8018   0.354   4.323   0.443
 2685TIP3    H1 8019   0.281   4.381   0.426
 2685TIP3    H2 8020   0.365   4.324   0.538
 2686TIP3   OH2 8021   6.897   5.804   4.296
 2686TIP3    H1 8022   6.823   5.853   4.260
 2686TIP3    H2 8023   6.856   5.729   4.340
 2687TIP3   OH2 8024   0.974   4.715   5.817
 2687TIP3    H1 8025   0.965   4.645   5.752
 2687TIP3    H2 8026   0.897   4.769   5.805
 2688TIP3   OH2 8027   7.141   3.401   5.088
 2688TIP3    H1 8028   7.162   3.493   5.077
 2688TIP3    H2 8029   7.197   3.371   5.159
 2689TIP3   OH2 8030   3.073   2.091   3.310
 2689TIP3    H1 8031   3.125   2.122   3.384
 2689TIP3    H2 8032   3.048   2.002   3.334
 2690TIP3   OH2 8033   4.659   6.638   2.532
 2690TIP3    H1 8034   4.686   6.706   2.595
 2690TIP3    H2 8035   4.564   6.640   2.533
 2691TIP3   OH2 8036   0.916   0.642   3.084
 2691TIP3    H1 8037   0.851   0.683   3.140
 2691TIP3    H2 8038   0.900   0.678   2.997
 2692TIP3   OH2 8039   3.141   6.693   2.833
 2692TIP3    H1 8040   3.231   6.671   2.808
 2692TIP3    H2 8041   3.087   6.651   2.766
 2693TIP3   OH2 8042   2.355   3.150   3.122
 2693TIP3    H1 8043   2.404   3.106   3.053
 2693TIP3    H2 8044   2.420   3.167   3.191
 2694TIP3   OH2 8045   2.604   3.389   3.447
 2694TIP3    H1 8046   2.547   3.466   3.440
 2694TIP3    H2 8047   2.692   3.423   3.434
 2695TIP3   OH2 8048   6.123   6.366   3.685
 2695TIP3    H1 8049   6.160   6.453   3.700
 2695TIP3    H2 8050   6.187   6.322   3.629
 2696TIP3   OH2 8051   5.312   1.190   0.043
 2696TIP3    H1 8052   5.295   1.248  -0.032
 2696TIP3    H2 8053   5.261   1.229   0.114
 2697TIP3   OH2 8054   3.468   0.196   4.941
 2697TIP3    H1 8055   3.471   0.292   4.940
 2697TIP3    H2 8056   3.558   0.169   4.922
 2698TIP3   OH2 8057   1.895   4.499   4.607
 2698TIP3    H1 8058   1.840   4.463   4.538
 2698TIP3    H2 8059   1.883   4.440   4.681
 2699TIP3   OH2 8060   6.425   3.182   5.297
 2699TIP3    H1 8061   6.439   3.273   5.272
 2699TIP3    H2 8062   6.361   3.149   5.235
 2700TIP3   OH2 8063   4.466   1.927   0.568
 2700TIP3    H1 8064   4.510   1.995   0.517
 2700TIP3    H2 8065   4.425   1.974   0.641
 2701TIP3   OH2 8066   1.908   5.664   4.982
 2701TIP3    H1 8067   1.958   5.582   4.986
 2701TIP3    H2 8068   1.817   5.637   4.972
 2702TIP3   OH2 8069   4.914   4.511   0.153
 2702TIP3    H1 8070   4.981   4.458   0.110
 2702TIP3    H2 8071   4.851   4.530   0.084
 2703TIP3   OH2 8072   0.142   3.423   3.661
 2703TIP3    H1 8073   0.108   3.414   3.750
 2703TIP3    H2 8074   0.208   3.354   3.654
 2704TIP3   OH2 8075   4.161   4.799   1.683
 2704TIP3    H1 8076   4.146   4.822   1.775
 2704TIP3    H2 8077   4.252   4.769   1.680
 2705TIP3   OH2 8078   6.013   2.355   5.066
 2705TIP3    H1 8079   6.022   2.407   5.146
 2705TIP3    H2 8080   6.100   2.355   5.027
 2706TIP3   OH2 8081   2.144   2.054   3.224
 2706TIP3    H1 8082   2.150   1.959   3.214
 2706TIP3    H2 8083   2.090   2.083   3.151
 2707TIP3   OH2 8084   0.283   3.310   4.263
 2707TIP3    H1 8085   0.253   3.231   4.307
 2707TIP3    H2 8086   0.202   3.355   4.237
 2708TIP3   OH2 8087   4.002   0.181   0.316
 2708TIP3    H1 8088   3.908   0.191   0.327
 2708TIP3    H2 8089   4.014   0.165   0.223
 2709TIP3   OH2 8090   3.683   5.463   5.109
 2709TIP3    H1 8091   3.759   5.422   5.150
 2709TIP3    H2 8092   3.622   5.390   5.094
 2710TIP3   OH2 8093   4.435   4.496   3.353
 2710TIP3    H1 8094   4.344   4.523   3.344
 2710TIP3    H2 8095   4.481   4.545   3.285
 2711TIP3   OH2 8096   0.849   1.944   0.471
 2711TIP3    H1 8097   0.882   2.031   0.445
 2711TIP3    H2 8098   0.834   1.951   0.565
 2712TIP3   OH2 8099   3.554   0.522   2.447
 2712TIP3    H1 8100   3.563   0.617   2.442
 2712TIP3    H2 8101   3.614   0.489   2.381
 2713TIP3   OH2 8102   6.740   2.761   0.530
 2713TIP3    H1 8103   6.727   2.825   0.599
 2713TIP3    H2 8104   6.687   2.686   0.556
 2714TIP3   OH2 8105   0.131   1.254   3.188
 2714TIP3    H1 8106   0.127   1.248   3.093
 2714TIP3    H2 8107   0.081   1.179   3.220
 2715TIP3   OH2 8108   2.958   4.863   5.204
 2715TIP3    H1 8109   2.947   4.816   5.121
 2715TIP3    H2 8110   2.913   4.946   5.190
 2716TIP3   OH2 8111   0.572   2.064   5.565
 2716TIP3    H1 8112   0.588   2.052   5.472
 2716TIP3    H2 8113   0.480   2.038   5.578
 2717TIP3   OH2 8114   2.883   3.644   1.957
 2717TIP3    H1 8115   2.941   3.720   1.947
 2717TIP3    H2 8116   2.916   3.580   1.895
 2718TIP3   OH2 8117   1.419   1.262   2.535
 2718TIP3    H1 8118   1.371   1.281   2.615
 2718TIP3    H2 8119   1.508   1.292   2.552
 2719TIP3   OH2 8120   0.522   4.797   4.433
 2719TIP3    H1 8121   0.437   4.765   4.464
 2719TIP3    H2 8122   0.586   4.738   4.474
 2720TIP3   OH2 8123   3.721   2.722   5.628
 2720TIP3    H1 8124   3.806   2.724   5.585
 2720TIP3    H2 8125   3.735   2.766   5.712
 2721TIP3   OH2 8126   3.402   6.617   2.251
 2721TIP3    H1 8127   3.437   6.620   2.161
 2721TIP3    H2 8128   3.331   6.554   2.247
 2722TIP3   OH2 8129   4.034   1.898   2.751
 2722TIP3    H1 8130   4.057   1.959   2.680
 2722TIP3    H2 8131   3.966   1.944   2.800
 2723TIP3   OH2 8132   0.613   6.329   3.793
 2723TIP3    H1 8133   0.596   6.331   3.887
 2723TIP3    H2 8134   0.527   6.343   3.753
 2724TIP3   OH2 8135   0.052   6.540   4.310
 2724TIP3    H1 8136  -0.039   6.565   4.328
 2724TIP3    H2 8137   0.057   6.536   4.215
 2725TIP3   OH2 8138   0.157   5.299   2.865
 2725TIP3    H1 8139   0.218   5.249   2.810
 2725TIP3    H2 8140   0.118   5.234   2.923
 2726TIP3   OH2 8141   5.209   0.659   1.463
 2726TIP3    H1 8142   5.216   0.674   1.369
 2726TIP3    H2 8143   5.235   0.742   1.503
 2727TIP3   OH2 8144   5.103   5.610   0.082
 2727TIP3    H1 8145   5.056   5.670   0.141
 2727TIP3    H2 8146   5.130   5.537   0.137
 2728TIP3   OH2 8147   3.621   3.117   1.048
 2728TIP3    H1 8148   3.715   3.118   1.067
 2728TIP3    H2 8149   3.606   3.037   0.999
 2729TIP3   OH2 8150   4.368   3.217   2.489
 2729TIP3    H1 8151   4.300   3.258   2.541
 2729TIP3    H2 8152   4.436   3.284   2.480
 2730TIP3   OH2 8153   1.517   3.064   1.065
 2730TIP3    H1 8154   1.427   3.054   1.033
 2730TIP3    H2 8155   1.568   3.085   0.987
 2731TIP3   OH2 8156   1.038   1.345   3.480
 2731TIP3    H1 8157   1.005   1.287   3.548
 2731TIP3    H2 8158   1.051   1.288   3.404
 2732TIP3   OH2 8159   4.442   4.788   1.702
 2732TIP3    H1 8160   4.465   4.881   1.713
 2732TIP3    H2 8161   4.520   4.740   1.730
 2733TIP3   OH2 8162   3.577   0.049   1.963
 2733TIP3    H1 8163   3.526  -0.006   1.903
 2733TIP3    H2 8164   3.667   0.018   1.953
 2734TIP3   OH2 8165   1.310   6.217   2.761
 2734TIP3    H1 8166   1.325   6.223   2.856
 2734TIP3    H2 8167   1.379   6.272   2.723
 2735TIP3   OH2 8168   0.152   6.566   0.898
 2735TIP3    H1 8169   0.099   6.645   0.885
 2735TIP3    H2 8170   0.232   6.597   0.939
 2736TIP3   OH2 8171   4.629   4.715   2.655
 2736TIP3    H1 8172   4.603   4.787   2.597
 2736TIP3    H2 8173   4.553   4.699   2.710
 2737TIP3   OH2 8174   7.057   4.578   3.226
 2737TIP3    H1 8175   6.976   4.626   3.242
 2737TIP3    H2 8176   7.070   4.526   3.305
 2738TIP3   OH2 8177   1.878   0.661   3.191
 2738TIP3    H1 8178   1.795   0.641   3.234
 2738TIP3    H2 8179   1.896   0.584   3.137
 2739TIP3   OH2 8180   3.929   4.913   5.527
 2739TIP3    H1 8181   3.837   4.921   5.502
 2739TIP3    H2 8182   3.941   4.821   5.548
 2740TIP3   OH2 8183   2.517   6.016   1.112
 2740TIP3    H1 8184   2.457   5.959   1.160
 2740TIP3    H2 8185   2.601   5.971   1.114
 2741TIP3   OH2 8186   1.786   5.572   5.718
 2741TIP3    H1 8187   1.842   5.597   5.644
 2741TIP3    H2 8188   1.765   5.480   5.701
 2742TIP3   OH2 8189   4.307   4.768   4.477
 2742TIP3    H1 8190   4.298   4.735   4.388
 2742TIP3    H2 8191   4.381   4.719   4.513
 2743TIP3   OH2 8192   1.321   6.545   3.432
 2743TIP3    H1 8193   1.249   6.586   3.481
 2743TIP3    H2 8194   1.297   6.453   3.425
 2744TIP3   OH2 8195   3.502   1.172   2.987
 2744TIP3    H1 8196   3.507   1.138   3.076
 2744TIP3    H2 8197   3.552   1.109   2.935
 2745TIP3   OH2 8198   1.768   4.003   0.149
 2745TIP3    H1 8199   1.832   4.066   0.116
 2745TIP3    H2 8200   1.817   3.952   0.214
 2746TIP3   OH2 8201   5.318   5.860   4.412
 2746TIP3    H1 8202   5.367   5.915   4.473
 2746TIP3    H2 8203   5.282   5.790   4.467
 2747TIP3   OH2 8204   0.932   5.485   4.721
 2747TIP3    H1 8205   0.923   5.390   4.734
 2747TIP3    H2 8206   1.026   5.501   4.723
 2748TIP3   OH2 8207   2.517   5.251   2.355
 2748TIP3    H1 8208   2.500   5.332   2.307
 2748TIP3    H2 8209   2.502   5.273   2.446
 2749TIP3   OH2 8210   7.055   1.325   4.673
 2749TIP3    H1 8211   7.117   1.307   4.602
 2749TIP3    H2 8212   6.989   1.382   4.634
 2750TIP3   OH2 8213   6.573   4.173   3.552
 2750TIP3    H1 8214   6.542   4.233   3.484
 2750TIP3    H2 8215   6.495   4.155   3.605
 2751TIP3   OH2 8216   5.647   6.673   1.753
 2751TIP3    H1 8217   5.581   6.614   1.717
 2751TIP3    H2 8218   5.620   6.760   1.723
 2752TIP3   OH2 8219   4.048   2.003   1.001
 2752TIP3    H1 8220   4.050   2.097   0.988
 2752TIP3    H2 8221   4.053   1.966   0.913
 2753TIP3   OH2 8222   1.080   0.199   2.911
 2753TIP3    H1 8223   1.157   0.167   2.957
 2753TIP3    H2 8224   1.013   0.208   2.979
 2754TIP3   OH2 8225   4.953   4.951   3.448
 2754TIP3    H1 8226   5.005   4.886   3.401
 2754TIP3    H2 8227   4.873   4.905   3.474
 2755TIP3   OH2 8228   3.849   2.307   2.877
 2755TIP3    H1 8229   3.779   2.280   2.818
 2755TIP3    H2 8230   3.925   2.321   2.820
 2756TIP3   OH2 8231   6.920   4.474   2.136
 2756TIP3    H1 8232   6.968   4.540   2.185
 2756TIP3    H2 8233   6.834   4.513   2.121
 2757TIP3   OH2 8234   2.455   6.640   2.660
 2757TIP3    H1 8235   2.411   6.705   2.604
 2757TIP3    H2 8236   2.416   6.652   2.746
 2758TIP3   OH2 8237   4.920   0.058   3.476
 2758TIP3    H1 8238   4.934   0.003   3.399
 2758TIP3    H2 8239   4.892   0.143   3.442
 2759TIP3   OH2 8240   4.522   5.562   0.428
 2759TIP3    H1 8241   4.489   5.613   0.354
 2759TIP3    H2 8242   4.604   5.605   0.452
 2760TIP3   OH2 8243   2.380   1.545   0.724
 2760TIP3    H1 8244   2.286   1.564   0.725
 2760TIP3    H2 8245   2.411   1.576   0.809
 2761TIP3   OH2 8246   3.388   0.710   2.230
 2761TIP3    H1 8247   3.453   0.646   2.203
 2761TIP3    H2 8248   3.389   0.706   2.326
 2762TIP3   OH2 8249   4.700   6.395   3.829
 2762TIP3    H1 8250   4.717   6.303   3.806
 2762TIP3    H2 8251   4.765   6.414   3.897
 2763TIP3   OH2 8252   2.153   1.128   0.503
 2763TIP3    H1 8253   2.227   1.144   0.560
 2763TIP3    H2 8254   2.126   1.215   0.472
 2764TIP3   OH2 8255   2.108   0.526   1.288
 2764TIP3    H1 8256   2.194   0.547   1.324
 2764TIP3    H2 8257   2.046   0.554   1.355
 2765TIP3   OH2 8258   1.732   2.104   4.667
 2765TIP3    H1 8259   1.665   2.122   4.732
 2765TIP3    H2 8260   1.790   2.179   4.671
 2766TIP3   OH2 8261   4.795   3.212   5.191
 2766TIP3    H1 8262   4.713   3.242   5.153
 2766TIP3    H2 8263   4.835   3.159   5.123
 2767TIP3   OH2 8264   2.108   2.747   5.248
 2767TIP3    H1 8265   2.159   2.811   5.298
 2767TIP3    H2 8266   2.031   2.796   5.218
 2768TIP3   OH2 8267   2.869   4.069   2.670
 2768TIP3    H1 8268   2.957   4.041   2.694
 2768TIP3    H2 8269   2.876   4.165   2.662
 2769TIP3   OH2 8270   0.086   4.323   2.495
 2769TIP3    H1 8271   0.092   4.310   2.589
 2769TIP3    H2 8272   0.128   4.246   2.457
 2770TIP3   OH2 8273   4.357   6.614   3.431
 2770TIP3    H1 8274   4.327   6.665   3.506
 2770TIP3    H2 8275   4.290   6.545   3.421
 2771TIP3   OH2 8276   4.847   3.037   0.471
 2771TIP3    H1 8277   4.848   3.018   0.378
 2771TIP3    H2 8278   4.793   3.115   0.480
 2772TIP3   OH2 8279   5.351   3.506   5.596
 2772TIP3    H1 8280   5.317   3.438   5.538
 2772TIP3    H2 8281   5.284   3.574   5.595
 2773TIP3   OH2 8282   4.597   4.034   3.406
 2773TIP3    H1 8283   4.629   4.013   3.318
 2773TIP3    H2 8284   4.504   4.053   3.394
 2774TIP3   OH2 8285   6.779   6.025   0.604
 2774TIP3    H1 8286   6.769   6.119   0.590
 2774TIP3    H2 8287   6.849   5.999   0.545
 2775TIP3   OH2 8288   1.594   1.036   5.828
 2775TIP3    H1 8289   1.641   1.007   5.906
 2775TIP3    H2 8290   1.564   0.956   5.787
 2776TIP3   OH2 8291   0.852   2.095   4.351
 2776TIP3    H1 8292   0.900   2.022   4.389
 2776TIP3    H2 8293   0.796   2.055   4.285
 2777TIP3   OH2 8294   1.326   5.977   3.431
 2777TIP3    H1 8295   1.318   5.975   3.526
 2777TIP3    H2 8296   1.403   6.031   3.414
 2778TIP3   OH2 8297   3.417   5.590   2.053
 2778TIP3    H1 8298   3.449   5.521   2.111
 2778TIP3    H2 8299   3.472   5.583   1.975
 2779TIP3   OH2 8300   0.639   1.110   5.438
 2779TIP3    H1 8301   0.553   1.073   5.422
 2779TIP3    H2 8302   0.691   1.037   5.470
 2780TIP3   OH2 8303   3.907   2.506   0.867
 2780TIP3    H1 8304   3.900   2.590   0.913
 2780TIP3    H2 8305   4.001   2.491   0.859
 2781TIP3   OH2 8306   3.433   3.429   5.298
 2781TIP3    H1 8307   3.397   3.510   5.334
 2781TIP3    H2 8308   3.368   3.362   5.320
 2782TIP3   OH2 8309   2.715   3.465   4.716
 2782TIP3    H1 8310   2.805   3.489   4.738
 2782TIP3    H2 8311   2.715   3.460   4.620
 2783TIP3   OH2 8312   4.041   5.325   2.041
 2783TIP3    H1 8313   3.982   5.369   1.980
 2783TIP3    H2 8314   4.006   5.346   2.128
 2784TIP3   OH2 8315   6.939   0.867   4.840
 2784TIP3    H1 8316   6.845   0.880   4.827
 2784TIP3    H2 8317   6.978   0.880   4.753
 2785TIP3   OH2 8318   4.282   1.214   2.815
 2785TIP3    H1 8319   4.235   1.285   2.771
 2785TIP3    H2 8320   4.292   1.244   2.905
 2786TIP3   OH2 8321   1.604   6.571   4.538
 2786TIP3    H1 8322   1.593   6.645   4.479
 2786TIP3    H2 8323   1.528   6.516   4.523
 2787TIP3   OH2 8324   5.633   3.724   3.954
 2787TIP3    H1 8325   5.590   3.692   3.875
 2787TIP3    H2 8326   5.625   3.819   3.949
 2788TIP3   OH2 8327   5.679   1.523   1.325
 2788TIP3    H1 8328   5.588   1.552   1.334
 2788TIP3    H2 8329   5.730   1.605   1.326
 2789TIP3   OH2 8330   5.611   4.474   1.430
 2789TIP3    H1 8331   5.665   4.454   1.353
 2789TIP3    H2 8332   5.597   4.389   1.472
 2790TIP3   OH2 8333   4.059   1.901   3.289
 2790TIP3    H1 8334   4.139   1.924   3.242
 2790TIP3    H2 8335   4.006   1.854   3.225
 2791TIP3   OH2 8336   2.962   6.738   5.053
 2791TIP3    H1 8337   3.041   6.688   5.033
 2791TIP3    H2 8338   2.922   6.755   4.967
 2792TIP3   OH2 8339   6.125   4.305   4.520
 2792TIP3    H1 8340   6.110   4.400   4.520
 2792TIP3    H2 8341   6.220   4.296   4.517
 2793TIP3   OH2 8342   2.247   1.969   0.737
 2793TIP3    H1 8343   2.179   1.913   0.701
 2793TIP3    H2 8344   2.200   2.040   0.781
 2794TIP3   OH2 8345  -0.006   3.664   5.101
 2794TIP3    H1 8346   0.090   3.666   5.103
 2794TIP3    H2 8347  -0.032   3.754   5.115
 2795TIP3   OH2 8348   4.819   1.963   0.574
 2795TIP3    H1 8349   4.912   1.958   0.593
 2795TIP3    H2 8350   4.784   2.018   0.644
 2796TIP3   OH2 8351   4.404   0.474   2.635
 2796TIP3    H1 8352   4.488   0.432   2.651
 2796TIP3    H2 8353   4.380   0.446   2.547
 2797TIP3   OH2 8354   4.100   3.981   0.144
 2797TIP3    H1 8355   4.186   3.940   0.146
 2797TIP3    H2 8356   4.115   4.064   0.098
 2798TIP3   OH2 8357   3.522   2.647   2.765
 2798TIP3    H1 8358   3.578   2.609   2.833
 2798TIP3    H2 8359   3.548   2.739   2.762
 2799TIP3   OH2 8360   3.120   4.691   4.286
 2799TIP3    H1 8361   3.196   4.633   4.282
 2799TIP3    H2 8362   3.089   4.683   4.376
 2800TIP3   OH2 8363   5.324   6.664   1.997
 2800TIP3    H1 8364   5.380   6.741   2.007
 2800TIP3    H2 8365   5.256   6.674   2.063
 2801TIP3   OH2 8366   5.080   6.159   3.326
 2801TIP3    H1 8367   5.165   6.143   3.287
 2801TIP3    H2 8368   5.056   6.075   3.365
 2802TIP3   OH2 8369   2.344   1.151   3.716
 2802TIP3    H1 8370   2.321   1.059   3.732
 2802TIP3    H2 8371   2.432   1.147   3.679
 2803TIP3   OH2 8372   2.398   0.573   4.301
 2803TIP3    H1 8373   2.467   0.638   4.291
 2803TIP3    H2 8374   2.317   0.624   4.308
 2804TIP3   OH2 8375   0.740   5.762   0.051
 2804TIP3    H1 8376   0.800   5.723   0.115
 2804TIP3    H2 8377   0.687   5.689   0.019
 2805TIP3   OH2 8378   2.075   1.853   4.404
 2805TIP3    H1 8379   2.050   1.761   4.410
 2805TIP3    H2 8380   2.048   1.880   4.316
 2806TIP3   OH2 8381   3.906   1.166   5.073
 2806TIP3    H1 8382   3.891   1.258   5.094
 2806TIP3    H2 8383   4.000   1.161   5.053
 2807TIP3   OH2 8384   5.156   3.457   4.983
 2807TIP3    H1 8385   5.217   3.529   4.970
 2807TIP3    H2 8386   5.069   3.498   4.986
 2808TIP3   OH2 8387   1.739   2.927   1.181
 2808TIP3    H1 8388   1.777   2.985   1.248
 2808TIP3    H2 8389   1.692   2.986   1.122
 2809TIP3   OH2 8390   0.601   3.257   2.083
 2809TIP3    H1 8391   0.685   3.211   2.092
 2809TIP3    H2 8392   0.596   3.279   1.990
 2810TIP3   OH2 8393   3.056   2.934   0.833
 2810TIP3    H1 8394   2.998   2.967   0.902
 2810TIP3    H2 8395   3.069   2.842   0.855
 2811TIP3   OH2 8396   6.495   2.989   2.297
 2811TIP3    H1 8397   6.503   3.067   2.242
 2811TIP3    H2 8398   6.573   2.938   2.277
 2812TIP3   OH2 8399   6.929   5.716   0.832
 2812TIP3    H1 8400   7.024   5.725   0.824
 2812TIP3    H2 8401   6.901   5.798   0.874
 2813TIP3   OH2 8402   5.877   2.230   4.626
 2813TIP3    H1 8403   5.793   2.208   4.666
 2813TIP3    H2 8404   5.936   2.161   4.654
 2814TIP3   OH2 8405   2.153   5.942   3.213
 2814TIP3    H1 8406   2.137   5.871   3.275
 2814TIP3    H2 8407   2.244   5.968   3.229
 2815TIP3   OH2 8408   6.334   3.903   5.196
 2815TIP3    H1 8409   6.322   3.995   5.219
 2815TIP3    H2 8410   6.394   3.905   5.121
 2816TIP3   OH2 8411   0.923   4.953   3.234
 2816TIP3    H1 8412   0.990   4.944   3.301
 2816TIP3    H2 8413   0.949   5.031   3.185
 2817TIP3   OH2 8414   4.476   2.262   0.427
 2817TIP3    H1 8415   4.461   2.272   0.521
 2817TIP3    H2 8416   4.472   2.351   0.392
 2818TIP3   OH2 8417   1.016   5.405   2.954
 2818TIP3    H1 8418   0.973   5.428   2.871
 2818TIP3    H2 8419   1.101   5.371   2.929
 2819TIP3   OH2 8420   2.116   3.865   1.057
 2819TIP3    H1 8421   2.059   3.813   1.000
 2819TIP3    H2 8422   2.169   3.801   1.103
 2820TIP3   OH2 8423   1.823   5.987   5.013
 2820TIP3    H1 8424   1.856   6.055   5.073
 2820TIP3    H2 8425   1.738   5.962   5.050
 2821TIP3   OH2 8426   3.073   0.916   3.842
 2821TIP3    H1 8427   2.994   0.862   3.849
 2821TIP3    H2 8428   3.053   0.993   3.896
 2822TIP3   OH2 8429   3.901   4.174   2.163
 2822TIP3    H1 8430   3.923   4.195   2.253
 2822TIP3    H2 8431   3.806   4.183   2.158
 2823TIP3   OH2 8432   0.146   2.916   2.518
 2823TIP3    H1 8433   0.207   2.985   2.491
 2823TIP3    H2 8434   0.169   2.899   2.610
 2824TIP3   OH2 8435   3.553   6.138   4.980
 2824TIP3    H1 8436   3.472   6.086   4.984
 2824TIP3    H2 8437   3.611   6.097   5.044
 2825TIP3   OH2 8438   1.682   4.687   0.402
 2825TIP3    H1 8439   1.672   4.629   0.477
 2825TIP3    H2 8440   1.773   4.674   0.373
 2826TIP3   OH2 8441   4.311   6.220   3.279
 2826TIP3    H1 8442   4.398   6.231   3.239
 2826TIP3    H2 8443   4.312   6.276   3.356
 2827TIP3   OH2 8444   5.175   4.136   4.941
 2827TIP3    H1 8445   5.233   4.066   4.970
 2827TIP3    H2 8446   5.231   4.212   4.931
 2828TIP3   OH2 8447   2.960   0.450   0.110
 2828TIP3    H1 8448   3.041   0.498   0.125
 2828TIP3    H2 8449   2.954   0.440   0.015
 2829TIP3   OH2 8450   3.350   5.328   0.179
 2829TIP3    H1 8451   3.257   5.324   0.156
 2829TIP3    H2 8452   3.352   5.297   0.270
 2830TIP3   OH2 8453   4.655   1.991  -0.061
 2830TIP3    H1 8454   4.742   1.990  -0.022
 2830TIP3    H2 8455   4.600   1.944   0.002
 2831TIP3   OH2 8456   0.152   1.482   1.796
 2831TIP3    H1 8457   0.215   1.488   1.868
 2831TIP3    H2 8458   0.113   1.570   1.791
 2832TIP3   OH2 8459   6.164   3.203   4.307
 2832TIP3    H1 8460   6.137   3.278   4.254
 2832TIP3    H2 8461   6.097   3.137   4.291
 2833TIP3   OH2 8462   4.372   5.104   1.136
 2833TIP3    H1 8463   4.282   5.072   1.137
 2833TIP3    H2 8464   4.400   5.096   1.045
 2834TIP3   OH2 8465   0.226   2.929   1.684
 2834TIP3    H1 8466   0.269   3.011   1.707
 2834TIP3    H2 8467   0.228   2.926   1.589
 2835TIP3   OH2 8468   5.704   3.554   4.841
 2835TIP3    H1 8469   5.776   3.604   4.879
 2835TIP3    H2 8470   5.711   3.570   4.747
 2836TIP3   OH2 8471   2.127   3.356  -0.004
 2836TIP3    H1 8472   2.118   3.425   0.062
 2836TIP3    H2 8473   2.094   3.277   0.040
 2837TIP3   OH2 8474   2.144   3.308   5.012
 2837TIP3    H1 8475   2.060   3.268   5.037
 2837TIP3    H2 8476   2.119   3.385   4.960
 2838TIP3   OH2 8477   4.064   1.042   5.789
 2838TIP3    H1 8478   4.013   0.973   5.745
 2838TIP3    H2 8479   4.046   1.121   5.738
 2839TIP3   OH2 8480   2.902   4.797   3.353
 2839TIP3    H1 8481   2.874   4.797   3.262
 2839TIP3    H2 8482   2.900   4.705   3.380
 2840TIP3   OH2 8483   2.108   3.665   3.623
 2840TIP3    H1 8484   2.139   3.747   3.585
 2840TIP3    H2 8485   2.176   3.601   3.601
 2841TIP3   OH2 8486   7.021   1.367   2.925
 2841TIP3    H1 8487   7.035   1.299   2.992
 2841TIP3    H2 8488   6.941   1.341   2.881
 2842TIP3   OH2 8489   0.716   6.473   5.161
 2842TIP3    H1 8490   0.786   6.532   5.187
 2842TIP3    H2 8491   0.700   6.494   5.069
 2843TIP3   OH2 8492   3.068   3.802   1.449
 2843TIP3    H1 8493   3.150   3.802   1.498
 2843TIP3    H2 8494   3.000   3.798   1.516
 2844TIP3   OH2 8495   0.460   0.402   4.625
 2844TIP3    H1 8496   0.403   0.366   4.694
 2844TIP3    H2 8497   0.400   0.426   4.555
 2845TIP3   OH2 8498   4.297   1.225   3.904
 2845TIP3    H1 8499   4.391   1.208   3.913
 2845TIP3    H2 8500   4.259   1.141   3.879
 2846TIP3   OH2 8501   6.881   3.337   5.723
 2846TIP3    H1 8502   6.872   3.302   5.812
 2846TIP3    H2 8503   6.830   3.417   5.724
 2847TIP3   OH2 8504   6.745   0.905   0.992
 2847TIP3    H1 8505   6.792   0.837   1.040
 2847TIP3    H2 8506   6.807   0.978   0.986
 2848TIP3   OH2 8507   5.714   1.640   5.770
 2848TIP3    H1 8508   5.741   1.600   5.687
 2848TIP3    H2 8509   5.780   1.611   5.833
 2849TIP3   OH2 8510   6.176   2.661   4.043
 2849TIP3    H1 8511   6.091   2.692   4.076
 2849TIP3    H2 8512   6.163   2.648   3.949
 2850TIP3   OH2 8513   1.896   3.278   2.846
 2850TIP3    H1 8514   1.844   3.257   2.769
 2850TIP3    H2 8515   1.867   3.366   2.871
 2851TIP3   OH2 8516  -0.008   6.455   0.667
 2851TIP3    H1 8517   0.056   6.397   0.709
 2851TIP3    H2 8518   0.025   6.543   0.684
 2852TIP3   OH2 8519   4.150   4.482   4.372
 2852TIP3    H1 8520   4.164   4.491   4.278
 2852TIP3    H2 8521   4.142   4.388   4.387
 2853TIP3   OH2 8522   1.088   1.045   4.099
 2853TIP3    H1 8523   1.140   0.965   4.094
 2853TIP3    H2 8524   1.119   1.089   4.178
 2854TIP3   OH2 8525   0.598   2.659   2.767
 2854TIP3    H1 8526   0.657   2.675   2.840
 2854TIP3    H2 8527   0.600   2.740   2.716
 2855TIP3   OH2 8528   3.910   1.105   0.214
 2855TIP3    H1 8529   3.996   1.078   0.181
 2855TIP3    H2 8530   3.859   1.123   0.136
 2856TIP3   OH2 8531   3.840   3.770   2.596
 2856TIP3    H1 8532   3.850   3.722   2.513
 2856TIP3    H2 8533   3.830   3.861   2.570
 2857TIP3   OH2 8534   2.415   5.753   3.727
 2857TIP3    H1 8535   2.417   5.841   3.691
 2857TIP3    H2 8536   2.483   5.753   3.795
 2858TIP3   OH2 8537   3.962   0.732   2.563
 2858TIP3    H1 8538   4.012   0.776   2.631
 2858TIP3    H2 8539   3.926   0.803   2.509
 2859TIP3   OH2 8540   5.903   1.540   2.058
 2859TIP3    H1 8541   5.978   1.540   2.117
 2859TIP3    H2 8542   5.836   1.590   2.105
 2860TIP3   OH2 8543   3.931   5.219   3.990
 2860TIP3    H1 8544   3.973   5.159   4.051
 2860TIP3    H2 8545   3.976   5.204   3.907
 2861TIP3   OH2 8546   1.020   6.810   5.827
 2861TIP3    H1 8547   0.945   6.775   5.874
 2861TIP3    H2 8548   1.006   6.784   5.736
 2862TIP3   OH2 8549   2.443   0.538   5.190
 2862TIP3    H1 8550   2.526   0.544   5.238
 2862TIP3    H2 8551   2.401   0.459   5.223
 2863TIP3   OH2 8552   1.628   0.000   0.241
 2863TIP3    H1 8553   1.683   0.061   0.290
 2863TIP3    H2 8554   1.683  -0.077   0.227
 2864TIP3   OH2 8555   6.319   3.974   0.332
 2864TIP3    H1 8556   6.413   3.984   0.349
 2864TIP3    H2 8557   6.298   4.047   0.273
 2865TIP3   OH2 8558   0.130   5.171   2.168
 2865TIP3    H1 8559   0.132   5.089   2.119
 2865TIP3    H2 8560   0.128   5.239   2.100
 2866TIP3   OH2 8561   0.297   2.460   3.606
 2866TIP3    H1 8562   0.307   2.392   3.673
 2866TIP3    H2 8563   0.386   2.490   3.588
 2867TIP3   OH2 8564   0.157   3.516   0.376
 2867TIP3    H1 8565   0.223   3.540   0.441
 2867TIP3    H2 8566   0.077   3.504   0.427
 2868TIP3   OH2 8567   7.136   4.034   4.266
 2868TIP3    H1 8568   7.072   4.015   4.197
 2868TIP3    H2 8569   7.220   4.036   4.220
 2869TIP3   OH2 8570   4.217   5.453   2.470
 2869TIP3    H1 8571   4.159   5.521   2.503
 2869TIP3    H2 8572   4.248   5.408   2.548
 2870TIP3   OH2 8573   2.533   0.517   5.713
 2870TIP3    H1 8574   2.539   0.577   5.639
 2870TIP3    H2 8575   2.558   0.432   5.676
 2871TIP3   OH2 8576   5.708   6.363   4.748
 2871TIP3    H1 8577   5.770   6.422   4.790
 2871TIP3    H2 8578   5.638   6.420   4.716
 2872TIP3   OH2 8579   3.051   4.949   4.609
 2872TIP3    H1 8580   2.986   4.978   4.673
 2872TIP3    H2 8581   3.003   4.887   4.554
 2873TIP3   OH2 8582   5.175   3.056   1.320
 2873TIP3    H1 8583   5.202   3.003   1.245
 2873TIP3    H2 8584   5.213   3.013   1.396
 2874TIP3   OH2 8585   1.265   6.612   3.173
 2874TIP3    H1 8586   1.308   6.594   3.257
 2874TIP3    H2 8587   1.317   6.683   3.134
 2875TIP3   OH2 8588   0.223   4.298   1.217
 2875TIP3    H1 8589   0.152   4.362   1.212
 2875TIP3    H2 8590   0.222   4.254   1.132
 2876TIP3   OH2 8591   3.279   5.344   1.854
 2876TIP3    H1 8592   3.221   5.417   1.876
 2876TIP3    H2 8593   3.326   5.374   1.776
 2877TIP3   OH2 8594  -0.023   2.325   0.345
 2877TIP3    H1 8595  -0.005   2.413   0.376
 2877TIP3    H2 8596   0.029   2.268   0.402
 2878TIP3   OH2 8597   6.519   0.496   0.635
 2878TIP3    H1 8598   6.609   0.527   0.643
 2878TIP3    H2 8599   6.506   0.486   0.541
 2879TIP3   OH2 8600   1.882   3.371   5.396
 2879TIP3    H1 8601   1.977   3.379   5.398
 2879TIP3    H2 8602   1.865   3.283   5.428
 2880TIP3   OH2 8603   3.535   5.661   4.491
 2880TIP3    H1 8604   3.568   5.574   4.472
 2880TIP3    H2 8605   3.612   5.711   4.517
 2881TIP3   OH2 8606   1.724   2.826   4.975
 2881TIP3    H1 8607   1.803   2.773   4.967
 2881TIP3    H2 8608   1.660   2.783   4.919
 2882TIP3   OH2 8609   3.088   1.150   2.361
 2882TIP3    H1 8610   3.136   1.107   2.432
 2882TIP3    H2 8611   3.144   1.137   2.284
 2883TIP3   OH2 8612   3.090   4.138   3.686
 2883TIP3    H1 8613   3.127   4.226   3.676
 2883TIP3    H2 8614   3.011   4.151   3.739
 2884TIP3   OH2 8615   6.195   2.278   0.167
 2884TIP3    H1 8616   6.274   2.292   0.115
 2884TIP3    H2 8617   6.207   2.193   0.208
 2885TIP3   OH2 8618   6.155   0.066   5.332
 2885TIP3    H1 8619   6.210   0.013   5.275
 2885TIP3    H2 8620   6.069   0.066   5.290
 2886TIP3   OH2 8621   3.976   6.714   2.557
 2886TIP3    H1 8622   4.042   6.773   2.594
 2886TIP3    H2 8623   3.892   6.752   2.584
 2887TIP3   OH2 8624   1.882   3.522   2.978
 2887TIP3    H1 8625   1.889   3.560   2.891
 2887TIP3    H2 8626   1.803   3.562   3.015
 2888TIP3   OH2 8627   6.922   3.654   5.148
 2888TIP3    H1 8628   6.965   3.723   5.199
 2888TIP3    H2 8629   6.976   3.646   5.069
 2889TIP3   OH2 8630   5.781   1.244   4.733
 2889TIP3    H1 8631   5.773   1.309   4.802
 2889TIP3    H2 8632   5.817   1.167   4.776
 2890TIP3   OH2 8633   4.372   3.681   1.469
 2890TIP3    H1 8634   4.435   3.732   1.417
 2890TIP3    H2 8635   4.288   3.696   1.427
 2891TIP3   OH2 8636   2.572   5.205   4.457
 2891TIP3    H1 8637   2.596   5.295   4.434
 2891TIP3    H2 8638   2.502   5.183   4.395
 2892TIP3   OH2 8639   0.463   2.694   0.407
 2892TIP3    H1 8640   0.455   2.692   0.312
 2892TIP3    H2 8641   0.503   2.779   0.425
 2893TIP3   OH2 8642   5.716   2.122   4.326
 2893TIP3    H1 8643   5.752   2.068   4.396
 2893TIP3    H2 8644   5.660   2.062   4.276
 2894TIP3   OH2 8645   5.567   4.485   4.784
 2894TIP3    H1 8646   5.513   4.432   4.843
 2894TIP3    H2 8647   5.504   4.521   4.721
 2895TIP3   OH2 8648   4.993   5.219   1.092
 2895TIP3    H1 8649   4.921   5.282   1.095
 2895TIP3    H2 8650   4.990   5.174   1.177
 2896TIP3   OH2 8651   1.537   6.148   3.330
 2896TIP3    H1 8652   1.550   6.072   3.273
 2896TIP3    H2 8653   1.609   6.207   3.308
 2897TIP3   OH2 8654   0.096   5.864   1.097
 2897TIP3    H1 8655   0.083   5.808   1.173
 2897TIP3    H2 8656   0.191   5.865   1.084
 2898TIP3   OH2 8657   2.829   1.131   3.419
 2898TIP3    H1 8658   2.882   1.053   3.436
 2898TIP3    H2 8659   2.893   1.199   3.398
 2899TIP3   OH2 8660   3.646   3.541   4.371
 2899TIP3    H1 8661   3.586   3.471   4.396
 2899TIP3    H2 8662   3.697   3.503   4.299
 2900TIP3   OH2 8663   6.878   1.056   2.429
 2900TIP3    H1 8664   6.885   0.966   2.459
 2900TIP3    H2 8665   6.858   1.106   2.508
 2901TIP3   OH2 8666   3.071   5.902   0.535
 2901TIP3    H1 8667   2.998   5.960   0.512
 2901TIP3    H2 8668   3.064   5.829   0.474
 2902TIP3   OH2 8669   3.367   5.555   4.975
 2902TIP3    H1 8670   3.380   5.469   5.015
 2902TIP3    H2 8671   3.274   5.573   4.987
 2903TIP3   OH2 8672   4.636   0.298   2.624
 2903TIP3    H1 8673   4.640   0.267   2.534
 2903TIP3    H2 8674   4.708   0.253   2.669
 2904TIP3   OH2 8675   4.672   4.221   2.408
 2904TIP3    H1 8676   4.722   4.139   2.409
 2904TIP3    H2 8677   4.724   4.282   2.459
 2905TIP3   OH2 8678   0.285   1.928   4.493
 2905TIP3    H1 8679   0.202   1.937   4.539
 2905TIP3    H2 8680   0.351   1.920   4.563
 2906TIP3   OH2 8681   4.202   5.262   1.296
 2906TIP3    H1 8682   4.138   5.244   1.226
 2906TIP3    H2 8683   4.287   5.246   1.255
 2907TIP3   OH2 8684   3.145   0.491   5.455
 2907TIP3    H1 8685   3.235   0.513   5.479
 2907TIP3    H2 8686   3.119   0.423   5.517
 2908TIP3   OH2 8687   1.705   3.046   4.299
 2908TIP3    H1 8688   1.767   3.116   4.275
 2908TIP3    H2 8689   1.684   3.062   4.391
 2909TIP3   OH2 8690   3.355   6.100   0.243
 2909TIP3    H1 8691   3.334   6.147   0.324
 2909TIP3    H2 8692   3.307   6.017   0.250
 2910TIP3   OH2 8693   3.532   4.928   5.704
 2910TIP3    H1 8694   3.486   4.847   5.680
 2910TIP3    H2 8695   3.471   4.974   5.761
 2911TIP3   OH2 8696   6.952   5.299   3.728
 2911TIP3    H1 8697   6.985   5.216   3.695
 2911TIP3    H2 8698   6.860   5.281   3.749
 2912TIP3   OH2 8699   6.662   0.257   1.674
 2912TIP3    H1 8700   6.627   0.169   1.683
 2912TIP3    H2 8701   6.592   0.307   1.632
 2913TIP3   OH2 8702   3.212   5.609   4.326
 2913TIP3    H1 8703   3.150   5.536   4.333
 2913TIP3    H2 8704   3.266   5.603   4.405
 2914TIP3   OH2 8705   7.160   0.247   5.568
 2914TIP3    H1 8706   7.153   0.225   5.661
 2914TIP3    H2 8707   7.236   0.198   5.537
 2915TIP3   OH2 8708   6.485   1.848   2.453
 2915TIP3    H1 8709   6.519   1.930   2.418
 2915TIP3    H2 8710   6.418   1.874   2.516
 2916TIP3   OH2 8711   5.177   2.968   4.425
 2916TIP3    H1 8712   5.107   3.029   4.401
 2916TIP3    H2 8713   5.175   2.901   4.357
 2917TIP3   OH2 8714   0.683   4.448   5.782
 2917TIP3    H1 8715   0.746   4.424   5.851
 2917TIP3    H2 8716   0.628   4.514   5.823
 2918TIP3   OH2 8717   6.969   4.450   4.852
 2918TIP3    H1 8718   6.904   4.433   4.783
 2918TIP3    H2 8719   7.049   4.410   4.819
 2919TIP3   OH2 8720   0.120   0.399   4.084
 2919TIP3    H1 8721   0.121   0.486   4.043
 2919TIP3    H2 8722   0.097   0.339   4.012
 2920TIP3   OH2 8723   3.513   2.084   5.390
 2920TIP3    H1 8724   3.486   2.059   5.479
 2920TIP3    H2 8725   3.466   2.166   5.373
 2921TIP3   OH2 8726   0.801   2.462   5.771
 2921TIP3    H1 8727   0.777   2.551   5.746
 2921TIP3    H2 8728   0.813   2.416   5.688
 2922TIP3   OH2 8729   5.635   1.850   3.045
 2922TIP3    H1 8730   5.631   1.816   3.135
 2922TIP3    H2 8731   5.544   1.846   3.014
 2923TIP3   OH2 8732   5.624   3.958   1.436
 2923TIP3    H1 8733   5.568   3.990   1.366
 2923TIP3    H2 8734   5.701   3.924   1.392
 2924TIP3   OH2 8735   0.494   0.485   1.607
 2924TIP3    H1 8736   0.464   0.573   1.632
 2924TIP3    H2 8737   0.460   0.428   1.676
 2925TIP3   OH2 8738   1.304   5.702   3.149
 2925TIP3    H1 8739   1.245   5.739   3.214
 2925TIP3    H2 8740   1.294   5.607   3.157
 2926TIP3   OH2 8741   7.246   0.792   5.450
 2926TIP3    H1 8742   7.298   0.830   5.380
 2926TIP3    H2 8743   7.243   0.699   5.430
 2927TIP3   OH2 8744   1.978   3.997   4.255
 2927TIP3    H1 8745   1.953   3.937   4.325
 2927TIP3    H2 8746   1.951   3.954   4.174
 2928TIP3   OH2 8747   5.384   2.885   2.440
 2928TIP3    H1 8748   5.463   2.933   2.465
 2928TIP3    H2 8749   5.383   2.888   2.345
 2929TIP3   OH2 8750   0.016   0.737   4.865
 2929TIP3    H1 8751   0.032   0.703   4.953
 2929TIP3    H2 8752  -0.069   0.782   4.872
 2930TIP3   OH2 8753   7.078   4.824   5.769
 2930TIP3    H1 8754   7.031   4.815   5.687
 2930TIP3    H2 8755   7.143   4.754   5.767
 2931TIP3   OH2 8756   3.107   1.042   4.232
 2931TIP3    H1 8757   3.111   1.066   4.140
 2931TIP3    H2 8758   3.027   1.083   4.264
 2932TIP3   OH2 8759   4.108   1.419   1.590
 2932TIP3    H1 8760   4.111   1.357   1.517
 2932TIP3    H2 8761   4.152   1.497   1.557
 2933TIP3   OH2 8762   1.974   5.333   0.148
 2933TIP3    H1 8763   1.881   5.333   0.171
 2933TIP3    H2 8764   2.018   5.305   0.228
 2934TIP3   OH2 8765   5.857   2.061   2.631
 2934TIP3    H1 8766   5.842   2.046   2.724
 2934TIP3    H2 8767   5.804   1.995   2.587
 2935TIP3   OH2 8768   3.300   4.516   5.810
 2935TIP3    H1 8769   3.290   4.440   5.753
 2935TIP3    H2 8770   3.211   4.548   5.824
 2936TIP3   OH2 8771   3.284   0.447   3.608
 2936TIP3    H1 8772   3.314   0.492   3.529
 2936TIP3    H2 8773   3.363   0.403   3.642
 2937TIP3   OH2 8774   6.916   0.611   3.041
 2937TIP3    H1 8775   6.943   0.695   3.003
 2937TIP3    H2 8776   6.991   0.583   3.094
 2938TIP3   OH2 8777   2.879   3.844   4.805
 2938TIP3    H1 8778   2.799   3.896   4.793
 2938TIP3    H2 8779   2.888   3.795   4.724
 2939TIP3   OH2 8780   2.211   3.064   3.934
 2939TIP3    H1 8781   2.247   3.120   4.003
 2939TIP3    H2 8782   2.122   3.043   3.965
 2940TIP3   OH2 8783   4.298   5.643   5.159
 2940TIP3    H1 8784   4.225   5.649   5.098
 2940TIP3    H2 8785   4.295   5.554   5.192
 2941TIP3   OH2 8786   6.358   1.962   5.587
 2941TIP3    H1 8787   6.345   1.871   5.557
 2941TIP3    H2 8788   6.441   1.988   5.547
 2942TIP3   OH2 8789   5.701   1.957   5.886
 2942TIP3    H1 8790   5.671   2.034   5.838
 2942TIP3    H2 8791   5.739   1.900   5.818
 2943TIP3   OH2 8792   3.881   5.292   3.725
 2943TIP3    H1 8793   3.801   5.313   3.774
 2943TIP3    H2 8794   3.950   5.337   3.774
 2944TIP3   OH2 8795   3.469   0.061   0.262
 2944TIP3    H1 8796   3.482  -0.022   0.307
 2944TIP3    H2 8797   3.428   0.118   0.327
 2945TIP3   OH2 8798   5.973   5.615   0.826
 2945TIP3    H1 8799   6.015   5.686   0.875
 2945TIP3    H2 8800   6.008   5.535   0.866
 2946TIP3   OH2 8801   6.106   1.167   3.080
 2946TIP3    H1 8802   6.158   1.190   3.003
 2946TIP3    H2 8803   6.124   1.074   3.094
 2947TIP3   OH2 8804   1.230   3.004   3.877
 2947TIP3    H1 8805   1.247   2.924   3.926
 2947TIP3    H2 8806   1.206   2.974   3.789
 2948TIP3   OH2 8807   1.163   5.665   5.091
 2948TIP3    H1 8808   1.117   5.717   5.156
 2948TIP3    H2 8809   1.160   5.718   5.011
 2949TIP3   OH2 8810   5.801   5.249   2.311
 2949TIP3    H1 8811   5.856   5.322   2.283
 2949TIP3    H2 8812   5.715   5.288   2.328
 2950TIP3   OH2 8813   1.627   2.062   4.411
 2950TIP3    H1 8814   1.632   1.970   4.385
 2950TIP3    H2 8815   1.648   2.062   4.504
 2951TIP3   OH2 8816   6.614   4.580   3.686
 2951TIP3    H1 8817   6.614   4.675   3.700
 2951TIP3    H2 8818   6.553   4.567   3.613
 2952TIP3   OH2 8819   1.651   0.922   2.768
 2952TIP3    H1 8820   1.600   0.859   2.717
 2952TIP3    H2 8821   1.684   0.871   2.842
 2953TIP3   OH2 8822   3.151   0.215   1.122
 2953TIP3    H1 8823   3.110   0.296   1.092
 2953TIP3    H2 8824   3.244   0.235   1.126
 2954TIP3   OH2 8825   1.590   5.172   2.214
 2954TIP3    H1 8826   1.633   5.183   2.299
 2954TIP3    H2 8827   1.597   5.078   2.196
 2955TIP3   OH2 8828   5.770   2.614   5.218
 2955TIP3    H1 8829   5.783   2.613   5.123
 2955TIP3    H2 8830   5.826   2.685   5.249
 2956TIP3   OH2 8831   1.827   3.046   1.424
 2956TIP3    H1 8832   1.839   2.966   1.474
 2956TIP3    H2 8833   1.776   3.104   1.481
 2957TIP3   OH2 8834   2.996   1.974   0.951
 2957TIP3    H1 8835   2.996   1.939   1.040
 2957TIP3    H2 8836   3.079   2.021   0.943
 2958TIP3   OH2 8837   6.084   3.070   1.560
 2958TIP3    H1 8838   5.994   3.048   1.586
 2958TIP3    H2 8839   6.114   3.131   1.627
 2959TIP3   OH2 8840   6.437   0.864   4.067
 2959TIP3    H1 8841   6.483   0.895   3.990
 2959TIP3    H2 8842   6.389   0.787   4.038
 2960TIP3   OH2 8843   5.568   6.262   2.112
 2960TIP3    H1 8844   5.549   6.187   2.056
 2960TIP3    H2 8845   5.573   6.336   2.052
 2961TIP3   OH2 8846   0.635   5.496   5.587
 2961TIP3    H1 8847   0.584   5.479   5.507
 2961TIP3    H2 8848   0.572   5.484   5.658
 2962TIP3   OH2 8849   6.756   1.517   0.260
 2962TIP3    H1 8850   6.661   1.506   0.258
 2962TIP3    H2 8851   6.778   1.551   0.173
 2963TIP3   OH2 8852   3.937   3.168   4.502
 2963TIP3    H1 8853   3.910   3.077   4.515
 2963TIP3    H2 8854   3.910   3.188   4.412
 2964TIP3   OH2 8855   6.462   5.981   0.493
 2964TIP3    H1 8856   6.458   5.890   0.465
 2964TIP3    H2 8857   6.372   6.002   0.519
 2965TIP3   OH2 8858   5.295   1.999   3.235
 2965TIP3    H1 8859   5.235   2.069   3.263
 2965TIP3    H2 8860   5.382   2.031   3.260
 2966TIP3   OH2 8861   0.253   1.552   1.540
 2966TIP3    H1 8862   0.246   1.514   1.628
 2966TIP3    H2 8863   0.338   1.524   1.508
 2967TIP3   OH2 8864   6.551   3.227   0.077
 2967TIP3    H1 8865   6.618   3.162   0.054
 2967TIP3    H2 8866   6.596   3.288   0.135
 2968TIP3   OH2 8867   3.346   3.029   5.042
 2968TIP3    H1 8868   3.266   3.068   5.077
 2968TIP3    H2 8869   3.320   2.940   5.018
 2969TIP3   OH2 8870   4.579   3.414   2.472
 2969TIP3    H1 8871   4.583   3.420   2.377
 2969TIP3    H2 8872   4.661   3.452   2.503
 2970TIP3   OH2 8873   1.844   2.866   4.106
 2970TIP3    H1 8874   1.800   2.946   4.135
 2970TIP3    H2 8875   1.777   2.798   4.110
 2971TIP3   OH2 8876   4.815   2.898   5.058
 2971TIP3    H1 8877   4.906   2.883   5.083
 2971TIP3    H2 8878   4.771   2.816   5.078
 2972TIP3   OH2 8879   1.560   6.611   3.194
 2972TIP3    H1 8880   1.615   6.552   3.246
 2972TIP3    H2 8881   1.547   6.565   3.111
 2973TIP3   OH2 8882   4.295   4.382   0.393
 2973TIP3    H1 8883   4.342   4.398   0.474
 2973TIP3    H2 8884   4.243   4.304   0.410
 2974TIP3   OH2 8885   3.110   1.500   2.231
 2974TIP3    H1 8886   3.166   1.559   2.181
 2974TIP3    H2 8887   3.042   1.472   2.169
 2975TIP3   OH2 8888   1.743   4.916   5.139
 2975TIP3    H1 8889   1.783   4.913   5.052
 2975TIP3    H2 8890   1.801   4.861   5.193
 2976TIP3   OH2 8891   6.390   6.460   1.709
 2976TIP3    H1 8892   6.316   6.486   1.765
 2976TIP3    H2 8893   6.371   6.500   1.624
 2977TIP3   OH2 8894   2.318   5.522   4.799
 2977TIP3    H1 8895   2.373   5.599   4.812
 2977TIP3    H2 8896   2.372   5.448   4.824
 2978TIP3   OH2 8897   4.250   5.329   2.714
 2978TIP3    H1 8898   4.296   5.246   2.723
 2978TIP3    H2 8899   4.256   5.368   2.801
 2979TIP3   OH2 8900   6.246   6.485   2.769
 2979TIP3    H1 8901   6.272   6.569   2.732
 2979TIP3    H2 8902   6.226   6.430   2.693
 2980TIP3   OH2 8903   7.053   3.194   1.943
 2980TIP3    H1 8904   7.071   3.104   1.917
 2980TIP3    H2 8905   6.965   3.191   1.981
 2981TIP3   OH2 8906   7.166   4.931   4.507
 2981TIP3    H1 8907   7.253   4.920   4.544
 2981TIP3    H2 8908   7.134   4.841   4.495
 2982TIP3   OH2 8909   1.162   0.130   3.482
 2982TIP3    H1 8910   1.176   0.104   3.573
 2982TIP3    H2 8911   1.215   0.208   3.471
 2983TIP3   OH2 8912   0.596   1.732   2.106
 2983TIP3    H1 8913   0.672   1.704   2.157
 2983TIP3    H2 8914   0.523   1.725   2.168
 2984TIP3   OH2 8915   5.374   5.895   4.876
 2984TIP3    H1 8916   5.279   5.896   4.894
 2984TIP3    H2 8917   5.409   5.964   4.933
 2985TIP3   OH2 8918   5.948   5.963   1.844
 2985TIP3    H1 8919   5.894   5.979   1.921
 2985TIP3    H2 8920   6.035   5.995   1.869
 2986TIP3   OH2 8921   1.318   0.151   0.294
 2986TIP3    H1 8922   1.307   0.240   0.327
 2986TIP3    H2 8923   1.234   0.109   0.310
 2987TIP3   OH2 8924   1.614   6.730   2.234
 2987TIP3    H1 8925   1.674   6.683   2.292
 2987TIP3    H2 8926   1.626   6.822   2.257
 2988TIP3   OH2 8927   4.441   1.707   5.380
 2988TIP3    H1 8928   4.351   1.676   5.376
 2988TIP3    H2 8929   4.493   1.629   5.398
 2989TIP3   OH2 8930   2.777   5.062   4.059
 2989TIP3    H1 8931   2.842   5.001   4.092
 2989TIP3    H2 8932   2.693   5.019   4.073
 2990TIP3   OH2 8933   6.504   5.989   1.866
 2990TIP3    H1 8934   6.543   6.024   1.946
 2990TIP3    H2 8935   6.503   6.063   1.805
 2991TIP3   OH2 8936   7.079   0.634   0.561
 2991TIP3    H1 8937   7.167   0.666   0.584
 2991TIP3    H2 8938   7.073   0.650   0.467
 2992TIP3   OH2 8939   6.822   4.416   4.618
 2992TIP3    H1 8940   6.790   4.496   4.576
 2992TIP3    H2 8941   6.870   4.371   4.549
 2993TIP3   OH2 8942   6.977   2.332   2.821
 2993TIP3    H1 8943   6.974   2.387   2.742
 2993TIP3    H2 8944   6.901   2.359   2.872
 2994TIP3   OH2 8945   3.685   4.319   3.181
 2994TIP3    H1 8946   3.604   4.289   3.140
 2994TIP3    H2 8947   3.671   4.304   3.275
 2995TIP3   OH2 8948   1.916   1.630   4.382
 2995TIP3    H1 8949   1.869   1.553   4.413
 2995TIP3    H2 8950   1.961   1.601   4.302
 2996TIP3   OH2 8951   2.866   1.310   3.842
 2996TIP3    H1 8952   2.825   1.380   3.892
 2996TIP3    H2 8953   2.871   1.344   3.753
 2997TIP3   OH2 8954   3.076   4.504   5.569
 2997TIP3    H1 8955   3.017   4.501   5.494
 2997TIP3    H2 8956   3.026   4.464   5.641
 2998TIP3   OH2 8957   2.016   2.022   2.250
 2998TIP3    H1 8958   2.105   2.007   2.216
 2998TIP3    H2 8959   1.967   2.055   2.174
 2999TIP3   OH2 8960   2.337   1.345   1.201
 2999TIP3    H1 8961   2.321   1.297   1.283
 2999TIP3    H2 8962   2.310   1.284   1.132
 3000TIP3   OH2 8963   5.462   5.805   5.214
 3000TIP3    H1 8964   5.380   5.852   5.210
 3000TIP3    H2 8965   5.477   5.790   5.308
 3001TIP3   OH2 8966   4.777   2.855   0.982
 3001TIP3    H1 8967   4.720   2.912   1.034
 3001TIP3    H2 8968   4.865   2.885   1.003
 3002TIP3   OH2 8969   2.471   3.436   2.505
 3002TIP3    H1 8970   2.468   3.405   2.596
 3002TIP3    H2 8971   2.464   3.356   2.452
 3003TIP3   OH2 8972   7.095   4.475   4.449
 3003TIP3    H1 8973   7.144   4.476   4.367
 3003TIP3    H2 8974   7.162   4.470   4.517
 3004TIP3   OH2 8975   2.218   2.475   4.671
 3004TIP3    H1 8976   2.254   2.541   4.729
 3004TIP3    H2 8977   2.166   2.418   4.728
 3005TIP3   OH2 8978   0.458   2.182   5.839
 3005TIP3    H1 8979   0.388   2.117   5.829
 3005TIP3    H2 8980   0.524   2.156   5.775
 3006TIP3   OH2 8981   6.641   3.589   4.255
 3006TIP3    H1 8982   6.675   3.500   4.246
 3006TIP3    H2 8983   6.700   3.642   4.202
 3007TIP3   OH2 8984   1.050   0.331   1.522
 3007TIP3    H1 8985   0.991   0.312   1.594
 3007TIP3    H2 8986   1.090   0.416   1.544
 3008TIP3   OH2 8987   6.578   1.546   1.535
 3008TIP3    H1 8988   6.612   1.557   1.624
 3008TIP3    H2 8989   6.596   1.454   1.514
 3009TIP3   OH2 8990   5.853   4.865   1.279
 3009TIP3    H1 8991   5.881   4.790   1.331
 3009TIP3    H2 8992   5.773   4.835   1.235
 3010TIP3   OH2 8993   3.937   3.210   0.377
 3010TIP3    H1 8994   3.979   3.136   0.334
 3010TIP3    H2 8995   3.844   3.190   0.376
 3011TIP3   OH2 8996   1.998   6.165   2.106
 3011TIP3    H1 8997   1.992   6.261   2.110
 3011TIP3    H2 8998   1.966   6.135   2.191
 3012TIP3   OH2 8999   6.492   2.511   1.812
 3012TIP3    H1 9000   6.402   2.489   1.790
 3012TIP3    H2 9001   6.534   2.528   1.728
 3013TIP3   OH2 9002   4.306   1.345   4.948
 3013TIP3    H1 9003   4.297   1.348   5.043
 3013TIP3    H2 9004   4.220   1.372   4.915
 3014TIP3   OH2 9005   6.618   2.047   3.945
 3014TIP3    H1 9006   6.697   2.094   3.916
 3014TIP3    H2 9007   6.580   2.104   4.011
 3015TIP3   OH2 9008   6.225   6.509   4.942
 3015TIP3    H1 9009   6.203   6.458   5.020
 3015TIP3    H2 9010   6.163   6.479   4.876
 3016TIP3   OH2 9011   5.988   6.432   1.563
 3016TIP3    H1 9012   5.895   6.422   1.582
 3016TIP3    H2 9013   6.013   6.348   1.525
 3017TIP3   OH2 9014   6.329   3.311   4.790
 3017TIP3    H1 9015   6.280   3.389   4.766
 3017TIP3    H2 9016   6.292   3.241   4.737
 3018TIP3   OH2 9017   4.967   0.075   5.008
 3018TIP3    H1 9018   5.037   0.071   5.072
 3018TIP3    H2 9019   4.964   0.167   4.982
 3019TIP3   OH2 9020   6.417   5.965   3.593
 3019TIP3    H1 9021   6.352   6.036   3.596
 3019TIP3    H2 9022   6.436   5.955   3.499
 3020TIP3   OH2 9023   6.294   4.931   3.332
 3020TIP3    H1 9024   6.220   4.913   3.389
 3020TIP3    H2 9025   6.266   4.899   3.246
 3021TIP3   OH2 9026   5.089   5.970   4.707
 3021TIP3    H1 9027   5.029   5.998   4.776
 3021TIP3    H2 9028   5.149   6.044   4.695
 3022TIP3   OH2 9029   3.576   3.908   4.223
 3022TIP3    H1 9030   3.580   3.851   4.300
 3022TIP3    H2 9031   3.520   3.981   4.250
 3023TIP3   OH2 9032   5.856   4.583   4.516
 3023TIP3    H1 9033   5.839   4.664   4.564
 3023TIP3    H2 9034   5.947   4.562   4.536
 3024TIP3   OH2 9035   4.332   5.889   0.781
 3024TIP3    H1 9036   4.239   5.871   0.773
 3024TIP3    H2 9037   4.342   5.928   0.868
 3025TIP3   OH2 9038   6.056   0.560   3.228
 3025TIP3    H1 9039   5.983   0.583   3.171
 3025TIP3    H2 9040   6.100   0.644   3.245
 3026TIP3   OH2 9041   1.314   4.266   0.950
 3026TIP3    H1 9042   1.353   4.337   0.899
 3026TIP3    H2 9043   1.222   4.291   0.960
 3027TIP3   OH2 9044   1.707   1.845   1.296
 3027TIP3    H1 9045   1.659   1.913   1.249
 3027TIP3    H2 9046   1.670   1.846   1.384
 3028TIP3   OH2 9047   5.247   1.757   2.088
 3028TIP3    H1 9048   5.194   1.812   2.029
 3028TIP3    H2 9049   5.196   1.754   2.169
 3029TIP3   OH2 9050   2.974   3.813   3.517
 3029TIP3    H1 9051   2.889   3.812   3.559
 3029TIP3    H2 9052   2.982   3.900   3.478
 3030TIP3   OH2 9053   1.259   2.792   4.052
 3030TIP3    H1 9054   1.321   2.811   4.123
 3030TIP3    H2 9055   1.179   2.764   4.097
 3031TIP3   OH2 9056   0.690   1.597   1.638
 3031TIP3    H1 9057   0.749   1.671   1.629
 3031TIP3    H2 9058   0.625   1.624   1.702
 3032TIP3   OH2 9059   6.408   1.473   3.416
 3032TIP3    H1 9060   6.351   1.550   3.416
 3032TIP3    H2 9061   6.353   1.403   3.452
 3033TIP3   OH2 9062   4.939   0.884   3.184
 3033TIP3    H1 9063   5.003   0.869   3.114
 3033TIP3    H2 9064   4.866   0.826   3.163
 3034TIP3   OH2 9065   0.955   6.292   5.482
 3034TIP3    H1 9066   1.031   6.236   5.468
 3034TIP3    H2 9067   0.887   6.232   5.514
 3035TIP3   OH2 9068   4.889   0.426   4.566
 3035TIP3    H1 9069   4.796   0.428   4.543
 3035TIP3    H2 9070   4.906   0.512   4.603
 3036TIP3   OH2 9071   4.316   6.588   1.648
 3036TIP3    H1 9072   4.396   6.536   1.661
 3036TIP3    H2 9073   4.345   6.661   1.593
 3037TIP3   OH2 9074   3.770   6.567   4.233
 3037TIP3    H1 9075   3.684   6.607   4.246
 3037TIP3    H2 9076   3.785   6.516   4.313
 3038TIP3   OH2 9077   3.531   4.872   0.858
 3038TIP3    H1 9078   3.550   4.902   0.947
 3038TIP3    H2 9079   3.437   4.853   0.859
 3039TIP3   OH2 9080   6.413   0.950   0.409
 3039TIP3    H1 9081   6.350   0.910   0.350
 3039TIP3    H2 9082   6.497   0.945   0.362
 3040TIP3   OH2 9083   3.823   0.571   3.553
 3040TIP3    H1 9084   3.913   0.589   3.578
 3040TIP3    H2 9085   3.773   0.645   3.587
 3041TIP3   OH2 9086   1.298   5.874   4.359
 3041TIP3    H1 9087   1.243   5.897   4.434
 3041TIP3    H2 9088   1.243   5.895   4.283
 3042TIP3   OH2 9089   3.770   6.789   0.805
 3042TIP3    H1 9090   3.694   6.798   0.862
 3042TIP3    H2 9091   3.766   6.699   0.773
 3043TIP3   OH2 9092   6.449   5.302   3.126
 3043TIP3    H1 9093   6.476   5.216   3.096
 3043TIP3    H2 9094   6.525   5.337   3.173
 3044TIP3   OH2 9095   7.106   2.360   5.716
 3044TIP3    H1 9096   7.148   2.407   5.644
 3044TIP3    H2 9097   7.172   2.298   5.746
 3045TIP3   OH2 9098   0.077   1.324   3.653
 3045TIP3    H1 9099   0.125   1.249   3.686
 3045TIP3    H2 9100   0.143   1.379   3.612
 3046TIP3   OH2 9101   0.536   2.079   2.218
 3046TIP3    H1 9102   0.512   2.097   2.309
 3046TIP3    H2 9103   0.561   2.164   2.182
 3047TIP3   OH2 9104   0.950   5.173   0.675
 3047TIP3    H1 9105   0.891   5.105   0.642
 3047TIP3    H2 9106   0.994   5.131   0.750
 3048TIP3   OH2 9107   4.086   3.933   2.243
 3048TIP3    H1 9108   4.169   3.958   2.205
 3048TIP3    H2 9109   4.020   3.981   2.193
 3049TIP3   OH2 9110   1.000   5.775   1.791
 3049TIP3    H1 9111   1.012   5.821   1.874
 3049TIP3    H2 9112   0.921   5.814   1.753
 3050TIP3   OH2 9113   1.098   5.402   2.454
 3050TIP3    H1 9114   1.109   5.309   2.476
 3050TIP3    H2 9115   1.005   5.411   2.434
 3051TIP3   OH2 9116   3.610   2.273   2.689
 3051TIP3    H1 9117   3.517   2.274   2.666
 3051TIP3    H2 9118   3.652   2.228   2.616
 3052TIP3   OH2 9119   5.523   2.579   2.211
 3052TIP3    H1 9120   5.495   2.488   2.225
 3052TIP3    H2 9121   5.583   2.597   2.284
 3053TIP3   OH2 9122   6.589   4.018   1.434
 3053TIP3    H1 9123   6.521   4.043   1.371
 3053TIP3    H2 9124   6.639   3.950   1.389
 3054TIP3   OH2 9125   1.164   4.849   3.714
 3054TIP3    H1 9126   1.079   4.884   3.742
 3054TIP3    H2 9127   1.172   4.766   3.761
 3055TIP3   OH2 9128   5.406   4.425   1.999
 3055TIP3    H1 9129   5.405   4.385   1.912
 3055TIP3    H2 9130   5.490   4.399   2.036
 3056TIP3   OH2 9131   3.005   5.522   3.132
 3056TIP3    H1 9132   3.093   5.497   3.160
 3056TIP3    H2 9133   3.001   5.494   3.040
 3057TIP3   OH2 9134   7.176   1.309   3.895
 3057TIP3    H1 9135   7.229   1.291   3.973
 3057TIP3    H2 9136   7.235   1.294   3.821
 3058TIP3   OH2 9137   1.208   5.089   4.924
 3058TIP3    H1 9138   1.245   5.038   4.996
 3058TIP3    H2 9139   1.267   5.073   4.851
 3059TIP3   OH2 9140   6.951   3.120   2.682
 3059TIP3    H1 9141   6.885   3.050   2.687
 3059TIP3    H2 9142   6.932   3.176   2.758
 3060TIP3   OH2 9143   2.081   5.762   2.932
 3060TIP3    H1 9144   2.148   5.711   2.978
 3060TIP3    H2 9145   2.035   5.697   2.879
 3061TIP3   OH2 9146   6.591   5.027   0.829
 3061TIP3    H1 9147   6.621   4.966   0.762
 3061TIP3    H2 9148   6.597   4.978   0.911
 3062TIP3   OH2 9149   5.151   1.761   2.343
 3062TIP3    H1 9150   5.134   1.846   2.383
 3062TIP3    H2 9151   5.209   1.717   2.404
 3063TIP3   OH2 9152   3.768   0.414   2.877
 3063TIP3    H1 9153   3.699   0.375   2.824
 3063TIP3    H2 9154   3.774   0.357   2.954
 3064TIP3   OH2 9155   4.446   4.913   1.318
 3064TIP3    H1 9156   4.522   4.949   1.364
 3064TIP3    H2 9157   4.427   4.977   1.250
 3065TIP3   OH2 9158   2.233   4.704   5.403
 3065TIP3    H1 9159   2.146   4.699   5.364
 3065TIP3    H2 9160   2.222   4.760   5.480
 3066TIP3   OH2 9161   1.885   4.087   5.107
 3066TIP3    H1 9162   1.979   4.081   5.092
 3066TIP3    H2 9163   1.846   4.047   5.030
 3067TIP3   OH2 9164   0.488   3.670   4.707
 3067TIP3    H1 9165   0.458   3.593   4.755
 3067TIP3    H2 9166   0.463   3.651   4.616
 3068TIP3   OH2 9167   4.232   3.201   1.100
 3068TIP3    H1 9168   4.316   3.202   1.146
 3068TIP3    H2 9169   4.213   3.293   1.083
 3069TIP3   OH2 9170   6.533   4.400   0.154
 3069TIP3    H1 9171   6.627   4.407   0.135
 3069TIP3    H2 9172   6.491   4.452   0.085
 3070TIP3   OH2 9173   4.355   3.785   2.250
 3070TIP3    H1 9174   4.286   3.777   2.184
 3070TIP3    H2 9175   4.332   3.721   2.317
 3071TIP3   OH2 9176   2.677   0.137   2.969
 3071TIP3    H1 9177   2.676   0.216   2.916
 3071TIP3    H2 9178   2.587   0.105   2.966
 3072TIP3   OH2 9179   0.292   0.484   4.366
 3072TIP3    H1 9180   0.354   0.554   4.386
 3072TIP3    H2 9181   0.208   0.529   4.355
 3073TIP3   OH2 9182   3.899   2.394   3.817
 3073TIP3    H1 9183   3.898   2.344   3.735
 3073TIP3    H2 9184   3.988   2.430   3.821
 3074TIP3   OH2 9185   4.496   0.321   5.435
 3074TIP3    H1 9186   4.523   0.412   5.448
 3074TIP3    H2 9187   4.574   0.270   5.458
 3075TIP3   OH2 9188   2.822   2.037   1.946
 3075TIP3    H1 9189   2.822   1.993   2.031
 3075TIP3    H2 9190   2.868   2.120   1.961
 3076TIP3   OH2 9191   4.666   6.190   0.098
 3076TIP3    H1 9192   4.644   6.277   0.131
 3076TIP3    H2 9193   4.588   6.161   0.051
 3077TIP3   OH2 9194   2.769   6.693   3.581
 3077TIP3    H1 9195   2.726   6.774   3.611
 3077TIP3    H2 9196   2.701   6.626   3.590
 3078TIP3   OH2 9197   6.710   1.992   3.602
 3078TIP3    H1 9198   6.636   1.932   3.595
 3078TIP3    H2 9199   6.782   1.947   3.558
 3079TIP3   OH2 9200   1.506   1.688   3.825
 3079TIP3    H1 9201   1.515   1.741   3.746
 3079TIP3    H2 9202   1.569   1.617   3.814
 3080TIP3   OH2 9203   5.226   0.630   2.702
 3080TIP3    H1 9204   5.197   0.543   2.730
 3080TIP3    H2 9205   5.177   0.647   2.621
 3081TIP3   OH2 9206   2.507   0.825   1.267
 3081TIP3    H1 9207   2.577   0.805   1.329
 3081TIP3    H2 9208   2.455   0.893   1.310
 3082TIP3   OH2 9209   3.719   5.473   3.026
 3082TIP3    H1 9210   3.709   5.378   3.031
 3082TIP3    H2 9211   3.733   5.500   3.117
 3083TIP3   OH2 9212   1.354   4.186   5.845
 3083TIP3    H1 9213   1.289   4.256   5.839
 3083TIP3    H2 9214   1.416   4.218   5.910
 3084TIP3   OH2 9215   0.219   0.750   2.813
 3084TIP3    H1 9216   0.224   0.826   2.871
 3084TIP3    H2 9217   0.126   0.731   2.806
 3085TIP3   OH2 9218   5.879   0.550   0.336
 3085TIP3    H1 9219   5.846   0.640   0.334
 3085TIP3    H2 9220   5.961   0.556   0.386
 3086TIP3   OH2 9221   2.787   5.560   1.793
 3086TIP3    H1 9222   2.763   5.519   1.876
 3086TIP3    H2 9223   2.732   5.638   1.788
 3087TIP3   OH2 9224   5.005   0.479   5.688
 3087TIP3    H1 9225   5.039   0.523   5.610
 3087TIP3    H2 9226   5.055   0.398   5.694
 3088TIP3   OH2 9227   6.426   0.662   3.734
 3088TIP3    H1 9228   6.485   0.723   3.688
 3088TIP3    H2 9229   6.358   0.642   3.669
 3089TIP3   OH2 9230   3.153   2.289   5.642
 3089TIP3    H1 9231   3.230   2.322   5.688
 3089TIP3    H2 9232   3.139   2.201   5.677
 3090TIP3   OH2 9233   5.847   6.161   0.518
 3090TIP3    H1 9234   5.779   6.140   0.454
 3090TIP3    H2 9235   5.882   6.246   0.489
 3091TIP3   OH2 9236   1.627   6.529   0.694
 3091TIP3    H1 9237   1.600   6.459   0.635
 3091TIP3    H2 9238   1.550   6.586   0.699
 3092TIP3   OH2 9239   4.497   0.051   5.750
 3092TIP3    H1 9240   4.416   0.029   5.703
 3092TIP3    H2 9241   4.472   0.052   5.842
 3093TIP3   OH2 9242   7.050   6.844   1.044
 3093TIP3    H1 9243   7.144   6.843   1.061
 3093TIP3    H2 9244   7.009   6.830   1.129
 3094TIP3   OH2 9245   4.158   6.834   5.616
 3094TIP3    H1 9246   4.238   6.859   5.662
 3094TIP3    H2 9247   4.188   6.791   5.536
 3095TIP3   OH2 9248   1.357   5.350   1.746
 3095TIP3    H1 9249   1.417   5.305   1.686
 3095TIP3    H2 9250   1.365   5.302   1.828
 3096TIP3   OH2 9251   1.272   2.587   1.013
 3096TIP3    H1 9252   1.230   2.608   1.096
 3096TIP3    H2 9253   1.209   2.614   0.946
 3097TIP3   OH2 9254   4.277   6.729   5.376
 3097TIP3    H1 9255   4.269   6.707   5.283
 3097TIP3    H2 9256   4.369   6.750   5.388
 3098TIP3   OH2 9257   4.623   6.006   4.479
 3098TIP3    H1 9258   4.550   6.011   4.416
 3098TIP3    H2 9259   4.693   5.963   4.431
 3099TIP3   OH2 9260   1.785   0.571   2.889
 3099TIP3    H1 9261   1.820   0.511   2.955
 3099TIP3    H2 9262   1.722   0.519   2.839
 3100TIP3   OH2 9263   6.928   5.132   4.112
 3100TIP3    H1 9264   6.910   5.221   4.082
 3100TIP3    H2 9265   7.002   5.103   4.060
 3101TIP3   OH2 9266   2.561   5.795   5.431
 3101TIP3    H1 9267   2.576   5.889   5.442
 3101TIP3    H2 9268   2.505   5.789   5.353
 3102TIP3   OH2 9269   2.527   0.744   3.499
 3102TIP3    H1 9270   2.442   0.708   3.474
 3102TIP3    H2 9271   2.548   0.806   3.430
 3103TIP3   OH2 9272   1.973   1.252   2.791
 3103TIP3    H1 9273   1.994   1.293   2.707
 3103TIP3    H2 9274   2.045   1.192   2.807
 3104TIP3   OH2 9275   6.727   1.496   3.937
 3104TIP3    H1 9276   6.699   1.543   4.015
 3104TIP3    H2 9277   6.809   1.453   3.963
 3105TIP3   OH2 9278   7.221   5.719   4.929
 3105TIP3    H1 9279   7.269   5.797   4.903
 3105TIP3    H2 9280   7.168   5.747   5.003
 3106TIP3   OH2 9281   1.438   0.937   3.875
 3106TIP3    H1 9282   1.532   0.923   3.879
 3106TIP3    H2 9283   1.428   1.028   3.849
 3107TIP3   OH2 9284   6.670   1.869   5.169
 3107TIP3    H1 9285   6.579   1.842   5.154
 3107TIP3    H2 9286   6.716   1.788   5.189
 3108TIP3   OH2 9287   4.040   4.089   1.596
 3108TIP3    H1 9288   3.998   4.144   1.530
 3108TIP3    H2 9289   4.122   4.062   1.555
 3109TIP3   OH2 9290   2.598   4.601   5.594
 3109TIP3    H1 9291   2.652   4.522   5.605
 3109TIP3    H2 9292   2.640   4.649   5.523
 3110TIP3   OH2 9293   3.081   5.877   4.349
 3110TIP3    H1 9294   3.100   5.785   4.332
 3110TIP3    H2 9295   3.035   5.878   4.433
 3111TIP3   OH2 9296   7.023   4.441   5.756
 3111TIP3    H1 9297   7.008   4.363   5.703
 3111TIP3    H2 9298   6.940   4.489   5.752
 3112TIP3   OH2 9299   6.271   2.856   2.319
 3112TIP3    H1 9300   6.360   2.879   2.345
 3112TIP3    H2 9301   6.272   2.860   2.224
 3113TIP3   OH2 9302   6.299   5.536   0.843
 3113TIP3    H1 9303   6.262   5.614   0.800
 3113TIP3    H2 9304   6.249   5.463   0.807
 3114TIP3   OH2 9305   5.468   2.082   2.423
 3114TIP3    H1 9306   5.440   2.054   2.510
 3114TIP3    H2 9307   5.449   2.007   2.367
 3115TIP3   OH2 9308   2.099   3.263   1.476
 3115TIP3    H1 9309   2.098   3.253   1.381
 3115TIP3    H2 9310   2.054   3.346   1.491
 3116TIP3   OH2 9311   2.916   6.302   0.683
 3116TIP3    H1 9312   2.879   6.303   0.595
 3116TIP3    H2 9313   2.955   6.389   0.693
 3117TIP3   OH2 9314   4.152   1.700   0.462
 3117TIP3    H1 9315   4.149   1.646   0.383
 3117TIP3    H2 9316   4.142   1.790   0.431
 3118TIP3   OH2 9317   1.374   4.218   4.748
 3118TIP3    H1 9318   1.447   4.221   4.686
 3118TIP3    H2 9319   1.307   4.275   4.710
 3119TIP3   OH2 9320   0.665   2.896   2.612
 3119TIP3    H1 9321   0.739   2.846   2.577
 3119TIP3    H2 9322   0.706   2.965   2.665
 3120TIP3   OH2 9323   3.950   5.813   2.625
 3120TIP3    H1 9324   3.936   5.766   2.543
 3120TIP3    H2 9325   3.936   5.905   2.603
 3121TIP3   OH2 9326   1.414   2.432   5.239
 3121TIP3    H1 9327   1.411   2.524   5.215
 3121TIP3    H2 9328   1.350   2.389   5.181
 3122TIP3   OH2 9329   3.335   4.529   2.385
 3122TIP3    H1 9330   3.272   4.597   2.363
 3122TIP3    H2 9331   3.305   4.452   2.336
 3123TIP3   OH2 9332   2.534   3.114   3.781
 3123TIP3    H1 9333   2.570   3.107   3.869
 3123TIP3    H2 9334   2.607   3.142   3.726
 3124TIP3   OH2 9335   0.590   1.318   2.843
 3124TIP3    H1 9336   0.683   1.339   2.833
 3124TIP3    H2 9337   0.548   1.404   2.850
 3125TIP3   OH2 9338   2.732   4.341   5.477
 3125TIP3    H1 9339   2.764   4.260   5.516
 3125TIP3    H2 9340   2.709   4.318   5.387
 3126TIP3   OH2 9341   6.048   1.561   4.687
 3126TIP3    H1 9342   5.981   1.557   4.756
 3126TIP3    H2 9343   6.094   1.478   4.694
 3127TIP3   OH2 9344   3.701   5.851   1.997
 3127TIP3    H1 9345   3.772   5.850   2.060
 3127TIP3    H2 9346   3.660   5.937   2.008
 3128TIP3   OH2 9347   2.313   5.006   4.480
 3128TIP3    H1 9348   2.300   5.071   4.412
 3128TIP3    H2 9349   2.253   5.030   4.550
 3129TIP3   OH2 9350   4.367   3.958   0.214
 3129TIP3    H1 9351   4.398   4.009   0.289
 3129TIP3    H2 9352   4.428   3.884   0.208
 3130TIP3   OH2 9353   0.875   3.596   4.305
 3130TIP3    H1 9354   0.820   3.581   4.382
 3130TIP3    H2 9355   0.933   3.519   4.301
 3131TIP3   OH2 9356   2.426   4.936   2.064
 3131TIP3    H1 9357   2.459   4.860   2.113
 3131TIP3    H2 9358   2.373   4.984   2.128
 3132TIP3   OH2 9359   4.510   3.565   1.933
 3132TIP3    H1 9360   4.494   3.608   1.849
 3132TIP3    H2 9361   4.545   3.635   1.988
 3133TIP3   OH2 9362   0.939   0.995   5.599
 3133TIP3    H1 9363   0.935   1.085   5.630
 3133TIP3    H2 9364   0.848   0.969   5.589
 3134TIP3   OH2 9365   2.572   6.467   3.531
 3134TIP3    H1 9366   2.505   6.496   3.469
 3134TIP3    H2 9367   2.609   6.388   3.492
 3135TIP3   OH2 9368   1.929   3.946   0.376
 3135TIP3    H1 9369   1.983   3.994   0.313
 3135TIP3    H2 9370   1.897   4.014   0.436
 3136TIP3   OH2 9371   3.211   1.866   5.300
 3136TIP3    H1 9372   3.171   1.931   5.357
 3136TIP3    H2 9373   3.305   1.883   5.307
 3137TIP3   OH2 9374   5.015   1.096   3.599
 3137TIP3    H1 9375   4.934   1.046   3.592
 3137TIP3    H2 9376   5.060   1.080   3.516
 3138TIP3   OH2 9377   4.865   3.838   3.632
 3138TIP3    H1 9378   4.843   3.915   3.684
 3138TIP3    H2 9379   4.952   3.813   3.664
 3139TIP3   OH2 9380   0.535   3.808   4.133
 3139TIP3    H1 9381   0.515   3.719   4.104
 3139TIP3    H2 9382   0.627   3.821   4.109
 3140TIP3   OH2 9383   3.249   5.096   1.197
 3140TIP3    H1 9384   3.211   5.105   1.284
 3140TIP3    H2 9385   3.282   5.006   1.194
 3141TIP3   OH2 9386   0.353   2.545   3.088
 3141TIP3    H1 9387   0.400   2.517   3.010
 3141TIP3    H2 9388   0.301   2.469   3.114
 3142TIP3   OH2 9389   3.430   4.551   3.077
 3142TIP3    H1 9390   3.417   4.490   3.005
 3142TIP3    H2 9391   3.420   4.497   3.156
 3143TIP3   OH2 9392   6.841   1.472   3.677
 3143TIP3    H1 9393   6.826   1.378   3.664
 3143TIP3    H2 9394   6.791   1.493   3.756
 3144TIP3   OH2 9395   0.903   0.823   5.358
 3144TIP3    H1 9396   0.929   0.765   5.429
 3144TIP3    H2 9397   0.984   0.843   5.312
 3145TIP3   OH2 9398   6.528   0.289   2.043
 3145TIP3    H1 9399   6.517   0.196   2.023
 3145TIP3    H2 9400   6.615   0.311   2.010
 3146TIP3   OH2 9401   0.775   6.152   2.608
 3146TIP3    H1 9402   0.788   6.077   2.666
 3146TIP3    H2 9403   0.685   6.144   2.577
 3147TIP3   OH2 9404   5.399   2.525   3.784
 3147TIP3    H1 9405   5.455   2.452   3.757
 3147TIP3    H2 9406   5.402   2.523   3.879
 3148TIP3   OH2 9407   1.883   5.615   3.955
 3148TIP3    H1 9408   1.833   5.682   3.909
 3148TIP3    H2 9409   1.961   5.602   3.902
 3149TIP3   OH2 9410   3.795   3.629   0.909
 3149TIP3    H1 9411   3.752   3.548   0.880
 3149TIP3    H2 9412   3.859   3.648   0.840
 3150TIP3   OH2 9413   5.774   3.556   2.975
 3150TIP3    H1 9414   5.690   3.549   2.930
 3150TIP3    H2 9415   5.840   3.545   2.907
 3151TIP3   OH2 9416   4.281   6.075   5.511
 3151TIP3    H1 9417   4.259   6.165   5.535
 3151TIP3    H2 9418   4.205   6.024   5.540
 3152TIP3   OH2 9419   5.299   6.402   4.001
 3152TIP3    H1 9420   5.271   6.493   3.991
 3152TIP3    H2 9421   5.350   6.384   3.922
 3153TIP3   OH2 9422   5.826   6.561   2.229
 3153TIP3    H1 9423   5.742   6.550   2.275
 3153TIP3    H2 9424   5.888   6.509   2.280
 3154TIP3   OH2 9425   1.071   2.407   3.260
 3154TIP3    H1 9426   1.004   2.368   3.317
 3154TIP3    H2 9427   1.151   2.358   3.279
 3155TIP3   OH2 9428   1.114   2.920   0.127
 3155TIP3    H1 9429   1.206   2.901   0.107
 3155TIP3    H2 9430   1.065   2.858   0.073
 3156TIP3   OH2 9431   7.028   5.189   4.775
 3156TIP3    H1 9432   7.047   5.221   4.687
 3156TIP3    H2 9433   7.051   5.262   4.833
 3157TIP3   OH2 9434   1.195   1.063   0.964
 3157TIP3    H1 9435   1.124   1.123   0.985
 3157TIP3    H2 9436   1.243   1.054   1.047
 3158TIP3   OH2 9437   0.142   5.410   2.416
 3158TIP3    H1 9438   0.070   5.402   2.354
 3158TIP3    H2 9439   0.100   5.425   2.500
 3159TIP3   OH2 9440   2.186   6.333   4.244
 3159TIP3    H1 9441   2.095   6.325   4.216
 3159TIP3    H2 9442   2.193   6.423   4.277
 3160TIP3   OH2 9443   6.710   2.669   2.259
 3160TIP3    H1 9444   6.649   2.721   2.206
 3160TIP3    H2 9445   6.775   2.732   2.289
 3161TIP3   OH2 9446   4.789   1.961   0.171
 3161TIP3    H1 9447   4.832   1.888   0.216
 3161TIP3    H2 9448   4.728   1.996   0.236
 3162TIP3   OH2 9449   6.458   4.842   0.214
 3162TIP3    H1 9450   6.491   4.858   0.126
 3162TIP3    H2 9451   6.392   4.910   0.227
 3163TIP3   OH2 9452   1.983   1.680   3.740
 3163TIP3    H1 9453   2.060   1.722   3.779
 3163TIP3    H2 9454   1.967   1.604   3.796
 3164TIP3   OH2 9455   0.561   2.715   4.631
 3164TIP3    H1 9456   0.656   2.704   4.628
 3164TIP3    H2 9457   0.527   2.639   4.583
 3165TIP3   OH2 9458   1.541   5.139   3.042
 3165TIP3    H1 9459   1.479   5.075   3.078
 3165TIP3    H2 9460   1.529   5.216   3.097
 3166TIP3   OH2 9461   0.885   6.455   0.290
 3166TIP3    H1 9462   0.820   6.420   0.351
 3166TIP3    H2 9463   0.842   6.452   0.205
 3167TIP3   OH2 9464   4.717   3.407   0.225
 3167TIP3    H1 9465   4.792   3.363   0.186
 3167TIP3    H2 9466   4.732   3.500   0.209
 3168TIP3   OH2 9467   5.145   1.031   1.427
 3168TIP3    H1 9468   5.161   1.025   1.521
 3168TIP3    H2 9469   5.050   1.026   1.418
 3169TIP3   OH2 9470   6.876   5.107   5.857
 3169TIP3    H1 9471   6.828   5.107   5.774
 3169TIP3    H2 9472   6.837   5.180   5.905
 3170TIP3   OH2 9473   5.277   2.490   4.782
 3170TIP3    H1 9474   5.245   2.405   4.813
 3170TIP3    H2 9475   5.365   2.498   4.818
 3171TIP3   OH2 9476   6.595   2.842   2.051
 3171TIP3    H1 9477   6.502   2.856   2.034
 3171TIP3    H2 9478   6.629   2.806   1.969
 3172TIP3   OH2 9479   5.368   3.755   3.538
 3172TIP3    H1 9480   5.379   3.847   3.560
 3172TIP3    H2 9481   5.427   3.709   3.598
 3173TIP3   OH2 9482   1.758   5.375   4.972
 3173TIP3    H1 9483   1.696   5.357   4.902
 3173TIP3    H2 9484   1.844   5.363   4.932
 3174TIP3   OH2 9485   0.730   4.657   2.428
 3174TIP3    H1 9486   0.664   4.630   2.492
 3174TIP3    H2 9487   0.765   4.575   2.393
 3175TIP3   OH2 9488   4.913   1.544   4.306
 3175TIP3    H1 9489   4.905   1.624   4.358
 3175TIP3    H2 9490   4.919   1.474   4.370
 3176TIP3   OH2 9491   1.684   2.465   0.985
 3176TIP3    H1 9492   1.704   2.452   1.078
 3176TIP3    H2 9493   1.639   2.385   0.959
 3177TIP3   OH2 9494   1.044   5.236   3.466
 3177TIP3    H1 9495   0.976   5.169   3.472
 3177TIP3    H2 9496   1.050   5.273   3.554
 3178TIP3   OH2 9497   6.124   4.439   4.873
 3178TIP3    H1 9498   6.109   4.523   4.831
 3178TIP3    H2 9499   6.216   4.440   4.898
 3179TIP3   OH2 9500   1.534   0.984   3.484
 3179TIP3    H1 9501   1.482   0.937   3.420
 3179TIP3    H2 9502   1.604   0.923   3.508
 3180TIP3   OH2 9503   3.960   4.956   0.889
 3180TIP3    H1 9504   3.920   5.039   0.865
 3180TIP3    H2 9505   3.912   4.928   0.967
 3181TIP3   OH2 9506   2.332   4.212   2.187
 3181TIP3    H1 9507   2.314   4.130   2.142
 3181TIP3    H2 9508   2.265   4.272   2.155
 3182TIP3   OH2 9509   4.164   0.088   4.434
 3182TIP3    H1 9510   4.257   0.109   4.423
 3182TIP3    H2 9511   4.132   0.071   4.345
 3183TIP3   OH2 9512   6.746   1.525   5.813
 3183TIP3    H1 9513   6.789   1.556   5.893
 3183TIP3    H2 9514   6.724   1.605   5.765
 3184TIP3   OH2 9515   1.052   6.758   2.234
 3184TIP3    H1 9516   1.049   6.837   2.288
 3184TIP3    H2 9517   1.112   6.781   2.163
 3185TIP3   OH2 9518   1.962   0.273   5.734
 3185TIP3    H1 9519   1.878   0.239   5.702
 3185TIP3    H2 9520   2.022   0.199   5.724
 3186TIP3   OH2 9521   1.257   1.174   2.836
 3186TIP3    H1 9522   1.339   1.224   2.833
 3186TIP3    H2 9523   1.283   1.084   2.819
 3187TIP3   OH2 9524   2.502   5.111   2.750
 3187TIP3    H1 9525   2.474   5.019   2.754
 3187TIP3    H2 9526   2.595   5.108   2.775
 3188TIP3   OH2 9527   0.182   6.571   4.049
 3188TIP3    H1 9528   0.220   6.658   4.060
 3188TIP3    H2 9529   0.257   6.512   4.048
 3189TIP3   OH2 9530   5.592  -0.003   3.287
 3189TIP3    H1 9531   5.520  -0.005   3.351
 3189TIP3    H2 9532   5.548   0.011   3.203
 3190TIP3   OH2 9533   6.993   0.100   3.111
 3190TIP3    H1 9534   7.014   0.008   3.125
 3190TIP3    H2 9535   7.073   0.138   3.076
 3191TIP3   OH2 9536   3.952   5.319   2.532
 3191TIP3    H1 9537   3.881   5.255   2.530
 3191TIP3    H2 9538   3.980   5.321   2.624
 3192TIP3   OH2 9539   4.824   1.155   2.937
 3192TIP3    H1 9540   4.817   1.064   2.908
 3192TIP3    H2 9541   4.792   1.153   3.027
 3193TIP3   OH2 9542   2.432   3.695   4.115
 3193TIP3    H1 9543   2.490   3.770   4.100
 3193TIP3    H2 9544   2.347   3.734   4.135
 3194TIP3   OH2 9545   4.545   4.497   4.233
 3194TIP3    H1 9546   4.576   4.588   4.231
 3194TIP3    H2 9547   4.456   4.501   4.197
 3195TIP3   OH2 9548   4.205   1.352   5.495
 3195TIP3    H1 9549   4.186   1.444   5.472
 3195TIP3    H2 9550   4.131   1.325   5.549
 3196TIP3   OH2 9551   1.299   2.513   3.934
 3196TIP3    H1 9552   1.323   2.596   3.975
 3196TIP3    H2 9553   1.234   2.475   3.994
 3197TIP3   OH2 9554   4.995   3.969   1.025
 3197TIP3    H1 9555   5.038   4.038   1.076
 3197TIP3    H2 9556   5.044   3.965   0.943
 3198TIP3   OH2 9557   1.281   5.201   0.625
 3198TIP3    H1 9558   1.209   5.261   0.645
 3198TIP3    H2 9559   1.259   5.121   0.673
 3199TIP3   OH2 9560   1.914   3.705   0.959
 3199TIP3    H1 9561   1.976   3.682   0.890
 3199TIP3    H2 9562   1.926   3.636   1.025
 3200TIP3   OH2 9563   2.301   3.458   0.718
 3200TIP3    H1 9564   2.207   3.465   0.735
 3200TIP3    H2 9565   2.324   3.369   0.744
 3201TIP3   OH2 9566   5.738   3.148   5.191
 3201TIP3    H1 9567   5.697   3.066   5.164
 3201TIP3    H2 9568   5.831   3.136   5.172
 3202TIP3   OH2 9569   3.939   1.582   0.181
 3202TIP3    H1 9570   3.946   1.511   0.244
 3202TIP3    H2 9571   3.860   1.629   0.207
 3203TIP3   OH2 9572   6.753   2.671   4.078
 3203TIP3    H1 9573   6.836   2.633   4.051
 3203TIP3    H2 9574   6.705   2.598   4.118
 3204TIP3   OH2 9575   3.485   5.557   0.193
 3204TIP3    H1 9576   3.467   5.574   0.285
 3204TIP3    H2 9577   3.483   5.461   0.185
 3205TIP3   OH2 9578   1.871   4.499   5.069
 3205TIP3    H1 9579   1.952   4.448   5.065
 3205TIP3    H2 9580   1.879   4.550   5.150
 3206TIP3   OH2 9581   5.056   1.431   3.868
 3206TIP3    H1 9582   5.106   1.472   3.938
 3206TIP3    H2 9583   5.053   1.338   3.893
 3207TIP3   OH2 9584   5.202   6.488   5.241
 3207TIP3    H1 9585   5.153   6.473   5.160
 3207TIP3    H2 9586   5.178   6.414   5.298
 3208TIP3   OH2 9587   4.564   1.894   2.288
 3208TIP3    H1 9588   4.526   1.948   2.218
 3208TIP3    H2 9589   4.654   1.925   2.296
 3209TIP3   OH2 9590   2.042   5.920   4.530
 3209TIP3    H1 9591   1.975   5.919   4.598
 3209TIP3    H2 9592   2.105   5.852   4.557
 3210TIP3   OH2 9593   0.484   3.430   1.744
 3210TIP3    H1 9594   0.464   3.481   1.823
 3210TIP3    H2 9595   0.420   3.458   1.680
 3211TIP3   OH2 9596   0.893   3.393   1.246
 3211TIP3    H1 9597   0.845   3.473   1.229
 3211TIP3    H2 9598   0.878   3.338   1.169
 3212TIP3   OH2 9599   6.998   4.112   1.285
 3212TIP3    H1 9600   6.968   4.100   1.195
 3212TIP3    H2 9601   7.041   4.197   1.286
 3213TIP3   OH2 9602   6.514   5.756   2.332
 3213TIP3    H1 9603   6.515   5.674   2.282
 3213TIP3    H2 9604   6.597   5.755   2.381
 3214TIP3   OH2 9605   0.651   2.949   5.270
 3214TIP3    H1 9606   0.687   2.966   5.183
 3214TIP3    H2 9607   0.655   3.034   5.315
 3215TIP3   OH2 9608   0.171   5.634   0.508
 3215TIP3    H1 9609   0.129   5.705   0.557
 3215TIP3    H2 9610   0.098   5.580   0.476
 3216TIP3   OH2 9611   5.133   0.474   5.222
 3216TIP3    H1 9612   5.181   0.549   5.186
 3216TIP3    H2 9613   5.200   0.414   5.253
 3217TIP3   OH2 9614   4.289   4.002   1.485
 3217TIP3    H1 9615   4.373   4.010   1.529
 3217TIP3    H2 9616   4.311   4.000   1.391
 3218TIP3   OH2 9617   6.363   0.635   3.987
 3218TIP3    H1 9618   6.353   0.540   3.993
 3218TIP3    H2 9619   6.407   0.649   3.903
 3219TIP3   OH2 9620   0.172   5.076   3.628
 3219TIP3    H1 9621   0.251   5.121   3.597
 3219TIP3    H2 9622   0.205   5.006   3.685
 3220TIP3   OH2 9623   0.749   1.428   0.902
 3220TIP3    H1 9624   0.811   1.487   0.943
 3220TIP3    H2 9625   0.735   1.358   0.966
 3221TIP3   OH2 9626   3.442   1.983   2.893
 3221TIP3    H1 9627   3.403   1.977   2.805
 3221TIP3    H2 9628   3.408   1.907   2.940
 3222TIP3   OH2 9629   5.102   4.647   5.317
 3222TIP3    H1 9630   5.040   4.581   5.286
 3222TIP3    H2 9631   5.163   4.658   5.244
 3223TIP3   OH2 9632   1.940   6.154   2.396
 3223TIP3    H1 9633   1.919   6.233   2.446
 3223TIP3    H2 9634   1.872   6.091   2.422
 3224TIP3   OH2 9635   4.109   3.657   5.744
 3224TIP3    H1 9636   4.068   3.715   5.679
 3224TIP3    H2 9637   4.157   3.715   5.802
 3225TIP3   OH2 9638   2.012   2.214   3.452
 3225TIP3    H1 9639   2.020   2.128   3.410
 3225TIP3    H2 9640   2.087   2.264   3.420
 3226TIP3   OH2 9641   1.338   3.796   3.667
 3226TIP3    H1 9642   1.262   3.757   3.710
 3226TIP3    H2 9643   1.306   3.878   3.630
 3227TIP3   OH2 9644   2.279   0.234   3.503
 3227TIP3    H1 9645   2.275   0.189   3.588
 3227TIP3    H2 9646   2.329   0.313   3.521
 3228TIP3   OH2 9647   4.106   1.531   3.389
 3228TIP3    H1 9648   4.081   1.456   3.443
 3228TIP3    H2 9649   4.027   1.584   3.382
 3229TIP3   OH2 9650   1.974   3.736   4.123
 3229TIP3    H1 9651   1.997   3.679   4.050
 3229TIP3    H2 9652   1.904   3.690   4.169
 3230TIP3   OH2 9653   5.250   3.907   1.310
 3230TIP3    H1 9654   5.182   3.963   1.273
 3230TIP3    H2 9655   5.202   3.844   1.363
 3231TIP3   OH2 9656   1.398   4.676   4.616
 3231TIP3    H1 9657   1.404   4.764   4.578
 3231TIP3    H2 9658   1.474   4.670   4.674
 3232TIP3   OH2 9659   0.920   4.892   0.519
 3232TIP3    H1 9660   0.860   4.897   0.594
 3232TIP3    H2 9661   0.870   4.928   0.446
 3233TIP3   OH2 9662   0.319   3.471   0.668
 3233TIP3    H1 9663   0.392   3.502   0.721
 3233TIP3    H2 9664   0.336   3.377   0.657
 3234TIP3   OH2 9665   4.814   5.351   3.606
 3234TIP3    H1 9666   4.816   5.360   3.510
 3234TIP3    H2 9667   4.842   5.260   3.621
 3235TIP3   OH2 9668   4.362   5.028   4.152
 3235TIP3    H1 9669   4.323   5.070   4.229
 3235TIP3    H2 9670   4.450   5.065   4.147
 3236TIP3   OH2 9671   0.159   3.335   4.605
 3236TIP3    H1 9672   0.138   3.307   4.694
 3236TIP3    H2 9673   0.173   3.254   4.556
 3237TIP3   OH2 9674   6.257   5.410   5.109
 3237TIP3    H1 9675   6.179   5.451   5.147
 3237TIP3    H2 9676   6.227   5.322   5.083
 3238TIP3   OH2 9677   1.496   5.665   2.534
 3238TIP3    H1 9678   1.438   5.730   2.494
 3238TIP3    H2 9679   1.437   5.604   2.578
 3239TIP3   OH2 9680   3.159   5.665   2.104
 3239TIP3    H1 9681   3.131   5.620   2.025
 3239TIP3    H2 9682   3.247   5.631   2.121
 3240TIP3   OH2 9683   1.264   2.072   3.672
 3240TIP3    H1 9684   1.253   2.166   3.685
 3240TIP3    H2 9685   1.357   2.057   3.684
 3241TIP3   OH2 9686   7.248   1.516   5.411
 3241TIP3    H1 9687   7.171   1.496   5.465
 3241TIP3    H2 9688   7.303   1.438   5.419
 3242TIP3   OH2 9689   1.108   1.464   1.211
 3242TIP3    H1 9690   1.147   1.542   1.172
 3242TIP3    H2 9691   1.152   1.456   1.296
 3243TIP3   OH2 9692   6.592   3.233   3.543
 3243TIP3    H1 9693   6.667   3.175   3.530
 3243TIP3    H2 9694   6.523   3.197   3.487
 3244TIP3   OH2 9695   6.768   0.554   4.968
 3244TIP3    H1 9696   6.713   0.510   5.033
 3244TIP3    H2 9697   6.802   0.631   5.014
 3245TIP3   OH2 9698   1.724   6.220   5.785
 3245TIP3    H1 9699   1.809   6.264   5.792
 3245TIP3    H2 9700   1.742   6.139   5.738
 3246TIP3   OH2 9701   6.984   2.784   3.956
 3246TIP3    H1 9702   6.942   2.699   3.939
 3246TIP3    H2 9703   7.077   2.765   3.960
 3247TIP3   OH2 9704   2.181   4.836   5.703
 3247TIP3    H1 9705   2.269   4.801   5.716
 3247TIP3    H2 9706   2.189   4.930   5.719
 3248TIP3   OH2 9707   3.886   1.079   0.497
 3248TIP3    H1 9708   3.888   0.990   0.534
 3248TIP3    H2 9709   3.925   1.070   0.410
 3249TIP3   OH2 9710   5.484   4.813   3.087
 3249TIP3    H1 9711   5.410   4.806   3.148
 3249TIP3    H2 9712   5.451   4.777   3.005
 3250TIP3   OH2 9713   7.132   3.021   3.503
 3250TIP3    H1 9714   7.084   3.071   3.437
 3250TIP3    H2 9715   7.142   2.934   3.466
 3251TIP3   OH2 9716   6.898   1.495   4.513
 3251TIP3    H1 9717   6.815   1.536   4.535
 3251TIP3    H2 9718   6.937   1.554   4.447
 3252TIP3   OH2 9719   3.610   5.022   1.138
 3252TIP3    H1 9720   3.536   5.059   1.186
 3252TIP3    H2 9721   3.661   5.097   1.110
 3253TIP3   OH2 9722   2.509   1.006   5.409
 3253TIP3    H1 9723   2.572   1.054   5.356
 3253TIP3    H2 9724   2.424   1.042   5.384
 3254TIP3   OH2 9725   6.770   6.318   1.577
 3254TIP3    H1 9726   6.724   6.402   1.585
 3254TIP3    H2 9727   6.735   6.279   1.497
 3255TIP3   OH2 9728   4.867   4.046   3.788
 3255TIP3    H1 9729   4.945   4.067   3.840
 3255TIP3    H2 9730   4.840   4.130   3.751
 3256TIP3   OH2 9731   2.535   1.502   3.722
 3256TIP3    H1 9732   2.569   1.568   3.661
 3256TIP3    H2 9733   2.441   1.498   3.703
 3257TIP3   OH2 9734   2.766   5.381   3.691
 3257TIP3    H1 9735   2.837   5.359   3.751
 3257TIP3    H2 9736   2.709   5.439   3.741
 3258TIP3   OH2 9737   3.741   5.725   5.075
 3258TIP3    H1 9738   3.719   5.636   5.104
 3258TIP3    H2 9739   3.701   5.732   4.988
 3259TIP3   OH2 9740   6.143   6.301   2.610
 3259TIP3    H1 9741   6.213   6.265   2.555
 3259TIP3    H2 9742   6.103   6.224   2.651
 3260TIP3   OH2 9743   2.345   0.630   1.423
 3260TIP3    H1 9744   2.425   0.596   1.463
 3260TIP3    H2 9745   2.375   0.697   1.363
 3261TIP3   OH2 9746   1.561   1.448   1.302
 3261TIP3    H1 9747   1.647   1.442   1.262
 3261TIP3    H2 9748   1.579   1.471   1.394
 3262TIP3   OH2 9749   6.921   4.508   1.020
 3262TIP3    H1 9750   6.996   4.467   0.975
 3262TIP3    H2 9751   6.864   4.434   1.043
 3263TIP3   OH2 9752   2.470   3.485   1.379
 3263TIP3    H1 9753   2.552   3.532   1.395
 3263TIP3    H2 9754   2.407   3.526   1.440
 3264TIP3   OH2 9755   2.691   6.156   3.670
 3264TIP3    H1 9756   2.718   6.066   3.688
 3264TIP3    H2 9757   2.719   6.206   3.747
 3265TIP3   OH2 9758   4.761   0.745   1.578
 3265TIP3    H1 9759   4.680   0.713   1.619
 3265TIP3    H2 9760   4.756   0.713   1.488
 3266TIP3   OH2 9761   3.683   6.659   3.658
 3266TIP3    H1 9762   3.621   6.666   3.585
 3266TIP3    H2 9763   3.727   6.744   3.660
 3267TIP3   OH2 9764   5.745   1.759   1.145
 3267TIP3    H1 9765   5.795   1.678   1.139
 3267TIP3    H2 9766   5.806   1.823   1.182
 3268TIP3   OH2 9767   7.197   0.878   3.616
 3268TIP3    H1 9768   7.290   0.889   3.637
 3268TIP3    H2 9769   7.168   0.964   3.588
 3269TIP3   OH2 9770   2.708   0.345   2.773
 3269TIP3    H1 9771   2.704   0.323   2.680
 3269TIP3    H2 9772   2.723   0.439   2.775
 3270TIP3   OH2 9773   0.851   2.100   0.893
 3270TIP3    H1 9774   0.775   2.050   0.921
 3270TIP3    H2 9775   0.822   2.146   0.814
 3271TIP3   OH2 9776   3.511   0.714   3.644
 3271TIP3    H1 9777   3.489   0.690   3.735
 3271TIP3    H2 9778   3.481   0.639   3.593
 3272TIP3   OH2 9779   4.903   3.013   3.139
 3272TIP3    H1 9780   4.858   3.036   3.058
 3272TIP3    H2 9781   4.927   3.098   3.177
 3273TIP3   OH2 9782   0.970   2.156   0.345
 3273TIP3    H1 9783   0.930   2.216   0.283
 3273TIP3    H2 9784   1.018   2.212   0.406
 3274TIP3   OH2 9785   1.718   4.405   3.392
 3274TIP3    H1 9786   1.666   4.342   3.342
 3274TIP3    H2 9787   1.807   4.396   3.358
 3275TIP3   OH2 9788   4.267   1.488   3.807
 3275TIP3    H1 9789   4.200   1.525   3.864
 3275TIP3    H2 9790   4.289   1.404   3.846
 3276TIP3   OH2 9791   1.853   5.467   4.225
 3276TIP3    H1 9792   1.933   5.520   4.230
 3276TIP3    H2 9793   1.815   5.490   4.140
 3277TIP3   OH2 9794   5.520   3.396   4.447
 3277TIP3    H1 9795   5.523   3.328   4.514
 3277TIP3    H2 9796   5.427   3.412   4.433
 3278TIP3   OH2 9797   2.736   3.862   1.103
 3278TIP3    H1 9798   2.689   3.837   1.024
 3278TIP3    H2 9799   2.749   3.957   1.094
 3279TIP3   OH2 9800   5.268   2.185   1.151
 3279TIP3    H1 9801   5.230   2.151   1.070
 3279TIP3    H2 9802   5.213   2.260   1.175
 3280TIP3   OH2 9803   3.981   6.562   2.327
 3280TIP3    H1 9804   3.887   6.576   2.316
 3280TIP3    H2 9805   4.002   6.605   2.410
 3281TIP3   OH2 9806   4.797   5.945   4.295
 3281TIP3    H1 9807   4.859   5.877   4.271
 3281TIP3    H2 9808   4.850   6.025   4.300
 3282TIP3   OH2 9809   6.800   4.382   2.405
 3282TIP3    H1 9810   6.880   4.435   2.400
 3282TIP3    H2 9811   6.784   4.372   2.499
 3283TIP3   OH2 9812   5.510   3.787   4.233
 3283TIP3    H1 9813   5.433   3.818   4.187
 3283TIP3    H2 9814   5.536   3.708   4.185
 3284TIP3   OH2 9815   4.622   4.954   3.927
 3284TIP3    H1 9816   4.664   5.016   3.868
 3284TIP3    H2 9817   4.529   4.959   3.905
 3285TIP3   OH2 9818   1.797   3.957   0.991
 3285TIP3    H1 9819   1.717   3.916   1.024
 3285TIP3    H2 9820   1.852   3.884   0.962
 3286TIP3   OH2 9821   0.712   2.585   5.463
 3286TIP3    H1 9822   0.772   2.619   5.397
 3286TIP3    H2 9823   0.707   2.491   5.446
 3287TIP3   OH2 9824   3.832   2.811   3.983
 3287TIP3    H1 9825   3.860   2.896   3.948
 3287TIP3    H2 9826   3.855   2.814   4.076
 3288TIP3   OH2 9827   0.798   3.036   3.890
 3288TIP3    H1 9828   0.706   3.061   3.882
 3288TIP3    H2 9829   0.815   2.981   3.813
 3289TIP3   OH2 9830   5.267   4.218   0.540
 3289TIP3    H1 9831   5.358   4.200   0.517
 3289TIP3    H2 9832   5.218   4.208   0.458
 3290TIP3   OH2 9833   3.331   5.602   4.665
 3290TIP3    H1 9834   3.364   5.532   4.721
 3290TIP3    H2 9835   3.401   5.618   4.602
 3291TIP3   OH2 9836   2.812   1.490   0.128
 3291TIP3    H1 9837   2.872   1.444   0.069
 3291TIP3    H2 9838   2.752   1.537   0.070
 3292TIP3   OH2 9839   1.483   4.802   1.962
 3292TIP3    H1 9840   1.523   4.739   1.903
 3292TIP3    H2 9841   1.406   4.757   1.997
 3293TIP3   OH2 9842   2.307   2.968   5.329
 3293TIP3    H1 9843   2.281   2.926   5.411
 3293TIP3    H2 9844   2.393   3.005   5.347
 3294TIP3   OH2 9845   4.305   2.111   2.173
 3294TIP3    H1 9846   4.363   2.061   2.115
 3294TIP3    H2 9847   4.297   2.196   2.131
 3295TIP3   OH2 9848   5.574   1.006   3.853
 3295TIP3    H1 9849   5.511   1.003   3.925
 3295TIP3    H2 9850   5.540   0.942   3.790
 3296TIP3   OH2 9851   7.014   3.969   1.712
 3296TIP3    H1 9852   7.002   3.955   1.619
 3296TIP3    H2 9853   6.943   4.028   1.738
 3297TIP3   OH2 9854   0.506   2.079   3.173
 3297TIP3    H1 9855   0.536   1.988   3.162
 3297TIP3    H2 9856   0.483   2.107   3.084
 3298TIP3   OH2 9857   4.426   2.516   5.334
 3298TIP3    H1 9858   4.455   2.427   5.313
 3298TIP3    H2 9859   4.331   2.509   5.341
 3299TIP3   OH2 9860   6.407   1.363   2.425
 3299TIP3    H1 9861   6.324   1.385   2.467
 3299TIP3    H2 9862   6.449   1.302   2.486
 3300TIP3   OH2 9863   1.127   0.131   3.908
 3300TIP3    H1 9864   1.106   0.162   3.996
 3300TIP3    H2 9865   1.071   0.183   3.850
 3301TIP3   OH2 9866   2.520   0.339   1.610
 3301TIP3    H1 9867   2.523   0.339   1.514
 3301TIP3    H2 9868   2.538   0.249   1.635
 3302TIP3   OH2 9869   3.230   2.614   2.179
 3302TIP3    H1 9870   3.270   2.640   2.262
 3302TIP3    H2 9871   3.292   2.643   2.112
 3303TIP3   OH2 9872   6.282   1.774   3.430
 3303TIP3    H1 9873   6.205   1.792   3.482
 3303TIP3    H2 9874   6.274   1.832   3.354
 3304TIP3   OH2 9875   5.819   0.805   0.525
 3304TIP3    H1 9876   5.742   0.856   0.548
 3304TIP3    H2 9877   5.840   0.831   0.435
 3305TIP3   OH2 9878   1.535   6.651   0.354
 3305TIP3    H1 9879   1.447   6.688   0.368
 3305TIP3    H2 9880   1.591   6.699   0.414
 3306TIP3   OH2 9881   1.584   5.893   4.374
 3306TIP3    H1 9882   1.495   5.862   4.357
 3306TIP3    H2 9883   1.637   5.851   4.306
 3307TIP3   OH2 9884   3.056   3.831   1.186
 3307TIP3    H1 9885   3.041   3.823   1.280
 3307TIP3    H2 9886   2.979   3.791   1.145
 3308TIP3   OH2 9887   3.600   6.172   4.631
 3308TIP3    H1 9888   3.632   6.225   4.704
 3308TIP3    H2 9889   3.661   6.192   4.560
 3309TIP3   OH2 9890   4.191   0.308   1.586
 3309TIP3    H1 9891   4.125   0.239   1.583
 3309TIP3    H2 9892   4.194   0.334   1.678
 3310TIP3   OH2 9893   2.295   4.818   3.284
 3310TIP3    H1 9894   2.344   4.843   3.362
 3310TIP3    H2 9895   2.210   4.787   3.317
 3311TIP3   OH2 9896   2.594   4.164   4.195
 3311TIP3    H1 9897   2.651   4.168   4.272
 3311TIP3    H2 9898   2.524   4.227   4.214
 3312TIP3   OH2 9899   3.786   0.655   1.098
 3312TIP3    H1 9900   3.863   0.645   1.042
 3312TIP3    H2 9901   3.712   0.630   1.043
 3313TIP3   OH2 9902   1.163   3.570   5.376
 3313TIP3    H1 9903   1.140   3.578   5.468
 3313TIP3    H2 9904   1.258   3.587   5.374
 3314TIP3   OH2 9905   2.778   1.656   5.101
 3314TIP3    H1 9906   2.687   1.639   5.079
 3314TIP3    H2 9907   2.775   1.690   5.191
 3315TIP3   OH2 9908   4.207   3.634   2.984
 3315TIP3    H1 9909   4.150   3.571   2.941
 3315TIP3    H2 9910   4.248   3.683   2.913
 3316TIP3   OH2 9911   1.854   4.003   4.000
 3316TIP3    H1 9912   1.919   4.013   3.931
 3316TIP3    H2 9913   1.794   3.935   3.968
 3317TIP3   OH2 9914   0.164   6.087   5.191
 3317TIP3    H1 9915   0.117   6.031   5.253
 3317TIP3    H2 9916   0.096   6.128   5.138
 3318TIP3   OH2 9917   3.161   4.072   1.678
 3318TIP3    H1 9918   3.186   3.980   1.667
 3318TIP3    H2 9919   3.227   4.120   1.627
 3319TIP3   OH2 9920   2.528   0.423   3.395
 3319TIP3    H1 9921   2.572   0.488   3.341
 3319TIP3    H2 9922   2.515   0.468   3.479
 3320TIP3   OH2 9923   5.704   3.983   4.197
 3320TIP3    H1 9924   5.697   4.048   4.268
 3320TIP3    H2 9925   5.624   3.931   4.205
 3321TIP3   OH2 9926   2.829   3.688   3.781
 3321TIP3    H1 9927   2.878   3.674   3.862
 3321TIP3    H2 9928   2.818   3.600   3.744
 3322TIP3   OH2 9929   1.224   6.255   3.425
 3322TIP3    H1 9930   1.160   6.195   3.387
 3322TIP3    H2 9931   1.308   6.210   3.413
 3323TIP3   OH2 9932   6.577   2.116   4.721
 3323TIP3    H1 9933   6.615   2.106   4.808
 3323TIP3    H2 9934   6.581   2.210   4.703
 3324TIP3   OH2 9935   6.033   1.310   4.442
 3324TIP3    H1 9936   6.045   1.405   4.446
 3324TIP3    H2 9937   5.974   1.295   4.368
 3325TIP3   OH2 9938   6.049   0.628   1.138
 3325TIP3    H1 9939   6.028   0.721   1.130
 3325TIP3    H2 9940   6.080   0.602   1.051
 3326TIP3   OH2 9941   5.767   5.274   1.863
 3326TIP3    H1 9942   5.807   5.262   1.776
 3326TIP3    H2 9943   5.812   5.351   1.899
 3327TIP3   OH2 9944   5.007   3.367   5.676
 3327TIP3    H1 9945   5.092   3.324   5.664
 3327TIP3    H2 9946   4.950   3.325   5.611
 3328TIP3   OH2 9947   1.030   5.289   1.774
 3328TIP3    H1 9948   1.046   5.330   1.689
 3328TIP3    H2 9949   1.011   5.362   1.833
 3329TIP3   OH2 9950   3.762   3.648   1.740
 3329TIP3    H1 9951   3.794   3.561   1.716
 3329TIP3    H2 9952   3.820   3.709   1.694
 3330TIP3   OH2 9953   2.467   3.141   2.182
 3330TIP3    H1 9954   2.426   3.202   2.121
 3330TIP3    H2 9955   2.467   3.057   2.136
 3331TIP3   OH2 9956   2.507   2.565   5.009
 3331TIP3    H1 9957   2.440   2.594   4.946
 3331TIP3    H2 9958   2.577   2.630   5.002
 3332TIP3   OH2 9959   7.145   0.911   1.757
 3332TIP3    H1 9960   7.235   0.942   1.757
 3332TIP3    H2 9961   7.150   0.822   1.791
 3333TIP3   OH2 9962   5.186   1.893   3.694
 3333TIP3    H1 9963   5.105   1.844   3.681
 3333TIP3    H2 9964   5.157   1.984   3.707
 3334TIP3   OH2 9965   4.360   3.373   4.688
 3334TIP3    H1 9966   4.418   3.407   4.620
 3334TIP3    H2 9967   4.273   3.405   4.663
 3335TIP3   OH2 9968   3.088   6.417   2.431
 3335TIP3    H1 9969   3.032   6.342   2.409
 3335TIP3    H2 9970   3.080   6.475   2.355
 3336TIP3   OH2 9971   1.918   4.935   1.719
 3336TIP3    H1 9972   1.914   4.843   1.745
 3336TIP3    H2 9973   1.938   4.982   1.800
 3337TIP3   OH2 9974   1.910   3.195   5.087
 3337TIP3    H1 9975   1.843   3.132   5.115
 3337TIP3    H2 9976   1.876   3.280   5.117
 3338TIP3   OH2 9977   3.764   0.788   5.249
 3338TIP3    H1 9978   3.801   0.711   5.207
 3338TIP3    H2 9979   3.679   0.800   5.209
 3339TIP3   OH2 9980   6.232   4.852   4.334
 3339TIP3    H1 9981   6.219   4.838   4.428
 3339TIP3    H2 9982   6.153   4.900   4.307
 3340TIP3   OH2 9983   2.854   1.103   2.230
 3340TIP3    H1 9984   2.933   1.100   2.284
 3340TIP3    H2 9985   2.785   1.131   2.290
 3341TIP3   OH2 9986   0.817   3.342   5.053
 3341TIP3    H1 9987   0.906   3.366   5.076
 3341TIP3    H2 9988   0.775   3.424   5.026
 3342TIP3   OH2 9989   7.055   6.455   1.969
 3342TIP3    H1 9990   7.111   6.500   2.032
 3342TIP3    H2 9991   6.986   6.519   1.948
 3343TIP3   OH2 9992   6.559   6.817   5.281
 3343TIP3    H1 9993   6.491   6.752   5.301
 3343TIP3    H2 9994   6.595   6.789   5.197
 3344TIP3   OH2 9995   4.589   6.385   5.195
 3344TIP3    H1 9996   4.494   6.377   5.197
 3344TIP3    H2 9997   4.609   6.429   5.113
 3345TIP3   OH2 9998   0.434   1.358   3.068
 3345TIP3    H1 9999   0.462   1.326   2.983
 3345TIP3    H210000   0.406   1.280   3.116
 3346TIP3   OH210001   2.881   3.434   3.136
 3346TIP3    H110002   2.929   3.384   3.202
 3346TIP3    H210003   2.792   3.398   3.139
 3347TIP3   OH210004   1.392   4.652   3.793
 3347TIP3    H110005   1.383   4.631   3.700
 3347TIP3    H210006   1.353   4.578   3.838
 3348TIP3   OH210007   6.449   1.685   5.220
 3348TIP3    H110008   6.420   1.608   5.172
 3348TIP3    H210009   6.440   1.661   5.313
 3349TIP3   OH210010   5.460   0.801   3.688
 3349TIP3    H110011   5.492   0.715   3.662
 3349TIP3    H210012   5.462   0.853   3.607
 3350TIP3   OH210013   0.356   6.688   4.939
 3350TIP3    H110014   0.414   6.635   4.884
 3350TIP3    H210015   0.314   6.625   4.998
 3351TIP3   OH210016   5.733   5.935   5.306
 3351TIP3    H110017   5.708   5.949   5.398
 3351TIP3    H210018   5.761   5.844   5.302
 3352TIP3   OH210019   6.880   1.691   4.832
 3352TIP3    H110020   6.831   1.621   4.789
 3352TIP3    H210021   6.894   1.756   4.763
 3353TIP3   OH210022   4.887   5.328   2.625
 3353TIP3    H110023   4.860   5.253   2.573
 3353TIP3    H210024   4.980   5.339   2.606
 3354TIP3   OH210025   5.298   2.224   5.526
 3354TIP3    H110026   5.291   2.223   5.430
 3354TIP3    H210027   5.335   2.311   5.545
 3355TIP3   OH210028   1.013   3.233   2.724
 3355TIP3    H110029   0.999   3.257   2.633
 3355TIP3    H210030   1.107   3.249   2.739
 3356TIP3   OH210031   3.489   0.616   1.248
 3356TIP3    H110032   3.484   0.642   1.340
 3356TIP3    H210033   3.410   0.565   1.233
 3357TIP3   OH210034   0.532   1.774   3.734
 3357TIP3    H110035   0.622   1.759   3.703
 3357TIP3    H210036   0.477   1.731   3.670
 3358TIP3   OH210037   3.394   0.487   4.657
 3358TIP3    H110038   3.381   0.392   4.650
 3358TIP3    H210039   3.372   0.507   4.748
 3359TIP3   OH210040   6.881   6.317   0.045
 3359TIP3    H110041   6.940   6.258   0.092
 3359TIP3    H210042   6.918   6.404   0.060
 3360TIP3   OH210043   0.991   1.705   1.866
 3360TIP3    H110044   0.958   1.767   1.931
 3360TIP3    H210045   1.072   1.671   1.904
 3361TIP3   OH210046   4.434   4.251   2.742
 3361TIP3    H110047   4.455   4.166   2.703
 3361TIP3    H210048   4.515   4.301   2.735
 3362TIP3   OH210049   0.034   2.672   1.479
 3362TIP3    H110050   0.001   2.759   1.454
 3362TIP3    H210051  -0.045   2.618   1.488
 3363TIP3   OH210052   0.261   2.315   0.733
 3363TIP3    H110053   0.298   2.394   0.695
 3363TIP3    H210054   0.335   2.271   0.776
 3364TIP3   OH210055   6.813   3.812   2.446
 3364TIP3    H110056   6.908   3.823   2.439
 3364TIP3    H210057   6.777   3.895   2.412
 3365TIP3   OH210058   3.419   1.197   0.289
 3365TIP3    H110059   3.424   1.107   0.320
 3365TIP3    H210060   3.338   1.201   0.239
 3366TIP3   OH210061   6.818   1.080   5.638
 3366TIP3    H110062   6.826   1.175   5.650
 3366TIP3    H210063   6.889   1.057   5.578
 3367TIP3   OH210064   4.586   0.731   4.195
 3367TIP3    H110065   4.663   0.754   4.248
 3367TIP3    H210066   4.517   0.788   4.229
 3368TIP3   OH210067   0.806   4.981   1.877
 3368TIP3    H110068   0.792   4.972   1.971
 3368TIP3    H210069   0.861   4.906   1.853
 3369TIP3   OH210070   0.467   1.311   1.138
 3369TIP3    H110071   0.495   1.393   1.097
 3369TIP3    H210072   0.412   1.268   1.073
 3370TIP3   OH210073   6.338   3.354   2.437
 3370TIP3    H110074   6.422   3.333   2.477
 3370TIP3    H210075   6.285   3.276   2.449
 3371TIP3   OH210076   6.061   5.020   1.161
 3371TIP3    H110077   5.992   4.968   1.202
 3371TIP3    H210078   6.101   5.069   1.233
 3372TIP3   OH210079   0.505   6.558   0.251
 3372TIP3    H110080   0.561   6.571   0.175
 3372TIP3    H210081   0.566   6.545   0.324
 3373TIP3   OH210082   0.422   2.494   4.136
 3373TIP3    H110083   0.391   2.444   4.211
 3373TIP3    H210084   0.354   2.484   4.070
 3374TIP3   OH210085   4.378   0.877   0.528
 3374TIP3    H110086   4.307   0.815   0.511
 3374TIP3    H210087   4.448   0.850   0.470
 3375TIP3   OH210088   3.484   0.906   2.066
 3375TIP3    H110089   3.479   0.831   2.126
 3375TIP3    H210090   3.525   0.871   1.987
 3376TIP3   OH210091   1.220   0.361   2.301
 3376TIP3    H110092   1.273   0.391   2.228
 3376TIP3    H210093   1.141   0.415   2.298
 3377TIP3   OH210094   2.538   6.013   2.649
 3377TIP3    H110095   2.580   5.946   2.703
 3377TIP3    H210096   2.444   5.994   2.658
 3378TIP3   OH210097   2.391   1.010   4.299
 3378TIP3    H110098   2.469   1.031   4.249
 3378TIP3    H210099   2.414   0.931   4.348
 3379TIP3   OH210100   3.954   3.033   5.726
 3379TIP3    H110101   3.994   3.059   5.809
 3379TIP3    H210102   4.012   3.069   5.659
 3380TIP3   OH210103   3.281   0.739   1.420
 3380TIP3    H110104   3.337   0.817   1.421
 3380TIP3    H210105   3.210   0.760   1.480
 3381TIP3   OH210106   4.559   5.917   3.214
 3381TIP3    H110107   4.472   5.920   3.255
 3381TIP3    H210108   4.591   6.007   3.220
 3382TIP3   OH210109   3.283   6.678   4.037
 3382TIP3    H110110   3.223   6.610   4.007
 3382TIP3    H210111   3.367   6.654   3.997
 3383TIP3   OH210112   1.446   3.809   0.178
 3383TIP3    H110113   1.470   3.851   0.261
 3383TIP3    H210114   1.358   3.773   0.194
 3384TIP3   OH210115   7.043   3.708   2.752
 3384TIP3    H110116   6.996   3.782   2.791
 3384TIP3    H210117   7.081   3.662   2.827
 3385TIP3   OH210118   6.832   1.547   1.775
 3385TIP3    H110119   6.852   1.640   1.790
 3385TIP3    H210120   6.741   1.538   1.803
 3386TIP3   OH210121   4.167   5.352   0.346
 3386TIP3    H110122   4.129   5.269   0.315
 3386TIP3    H210123   4.091   5.402   0.377
 3387TIP3   OH210124   3.674   5.001   3.902
 3387TIP3    H110125   3.640   4.929   3.955
 3387TIP3    H210126   3.717   4.959   3.827
 3388TIP3   OH210127   4.107   6.356   1.125
 3388TIP3    H110128   4.076   6.292   1.189
 3388TIP3    H210129   4.117   6.437   1.174
 3389TIP3   OH210130   4.447   5.379   4.890
 3389TIP3    H110131   4.453   5.440   4.816
 3389TIP3    H210132   4.536   5.374   4.924
 3390TIP3   OH210133   4.647   2.969   2.999
 3390TIP3    H110134   4.650   3.047   2.943
 3390TIP3    H210135   4.706   2.907   2.956
 3391TIP3   OH210136   6.325   3.465   4.119
 3391TIP3    H110137   6.366   3.427   4.197
 3391TIP3    H210138   6.231   3.455   4.134
 3392TIP3   OH210139   0.369   3.161   1.716
 3392TIP3    H110140   0.396   3.249   1.741
 3392TIP3    H210141   0.451   3.113   1.704
 3393TIP3   OH210142   1.288   3.603   2.117
 3393TIP3    H110143   1.287   3.608   2.021
 3393TIP3    H210144   1.197   3.608   2.143
 3394TIP3   OH210145   0.222   1.785   3.170
 3394TIP3    H110146   0.141   1.818   3.130
 3394TIP3    H210147   0.219   1.690   3.154
 3395TIP3   OH210148   5.883   0.044   1.190
 3395TIP3    H110149   5.804   0.096   1.182
 3395TIP3    H210150   5.894   0.003   1.104
 3396TIP3   OH210151   3.617   1.578   1.717
 3396TIP3    H110152   3.711   1.571   1.731
 3396TIP3    H210153   3.587   1.640   1.784
 3397TIP3   OH210154   0.350   1.734   2.263
 3397TIP3    H110155   0.313   1.743   2.175
 3397TIP3    H210156   0.306   1.801   2.315
 3398TIP3   OH210157   2.091   1.730   2.075
 3398TIP3    H110158   2.157   1.746   2.007
 3398TIP3    H210159   2.136   1.751   2.157
 3399TIP3   OH210160   5.412   1.091   5.875
 3399TIP3    H110161   5.408   1.180   5.909
 3399TIP3    H210162   5.373   1.037   5.944
 3400TIP3   OH210163   0.133   6.721   4.583
 3400TIP3    H110164   0.205   6.711   4.520
 3400TIP3    H210165   0.077   6.788   4.545
 3401TIP3   OH210166   2.368   3.270   1.559
 3401TIP3    H110167   2.436   3.253   1.494
 3401TIP3    H210168   2.290   3.289   1.508
 3402TIP3   OH210169   6.592   6.382   1.960
 3402TIP3    H110170   6.652   6.332   1.904
 3402TIP3    H210171   6.620   6.473   1.951
 3403TIP3   OH210172   1.103   1.720   0.498
 3403TIP3    H110173   1.135   1.635   0.468
 3403TIP3    H210174   1.058   1.758   0.422
 3404TIP3   OH210175   3.978   5.632   2.417
 3404TIP3    H110176   3.978   5.539   2.397
 3404TIP3    H210177   3.973   5.675   2.332
 3405TIP3   OH210178   0.642   0.390   5.877
 3405TIP3    H110179   0.663   0.465   5.933
 3405TIP3    H210180   0.707   0.392   5.807
 3406TIP3   OH210181   0.612   1.749   1.115
 3406TIP3    H110182   0.695   1.703   1.132
 3406TIP3    H210183   0.561   1.735   1.195
 3407TIP3   OH210184   1.088   4.311   1.639
 3407TIP3    H110185   1.019   4.341   1.579
 3407TIP3    H210186   1.091   4.216   1.625
 3408TIP3   OH210187   1.149   5.455   2.153
 3408TIP3    H110188   1.179   5.374   2.111
 3408TIP3    H210189   1.149   5.434   2.246
 3409TIP3   OH210190   4.380   3.038   0.466
 3409TIP3    H110191   4.430   3.062   0.544
 3409TIP3    H210192   4.363   3.122   0.422
 3410TIP3   OH210193   6.027   4.924   2.479
 3410TIP3    H110194   6.033   4.971   2.396
 3410TIP3    H210195   6.069   4.839   2.461
 3411TIP3   OH210196   5.704   3.346   1.153
 3411TIP3    H110197   5.655   3.426   1.171
 3411TIP3    H210198   5.772   3.343   1.220
 3412TIP3   OH210199   5.066   2.026   0.644
 3412TIP3    H110200   5.088   2.114   0.613
 3412TIP3    H210201   5.097   2.023   0.735
 3413TIP3   OH210202   4.513   6.703   0.663
 3413TIP3    H110203   4.577   6.754   0.714
 3413TIP3    H210204   4.433   6.756   0.666
 3414TIP3   OH210205   0.407   2.976   0.067
 3414TIP3    H110206   0.414   2.897   0.120
 3414TIP3    H210207   0.362   2.947  -0.013
 3415TIP3   OH210208   7.068   4.267   2.298
 3415TIP3    H110209   7.149   4.314   2.319
 3415TIP3    H210210   7.026   4.319   2.230
 3416TIP3   OH210211   4.397   1.617   4.829
 3416TIP3    H110212   4.436   1.668   4.758
 3416TIP3    H210213   4.316   1.582   4.792
 3417TIP3   OH210214   2.899   2.908   3.149
 3417TIP3    H110215   2.923   2.861   3.069
 3417TIP3    H210216   2.858   2.989   3.118
 3418TIP3   OH210217   7.206   1.861   3.001
 3418TIP3    H110218   7.152   1.939   2.995
 3418TIP3    H210219   7.148   1.789   2.977
 3419TIP3   OH210220   4.795   3.986   2.347
 3419TIP3    H110221   4.777   4.014   2.257
 3419TIP3    H210222   4.884   3.950   2.344
 3420TIP3   OH210223   5.991   3.260   5.788
 3420TIP3    H110224   5.941   3.337   5.815
 3420TIP3    H210225   5.966   3.191   5.849
 3421TIP3   OH210226   3.079   5.409   5.168
 3421TIP3    H110227   2.993   5.392   5.207
 3421TIP3    H210228   3.081   5.504   5.155
 3422TIP3   OH210229   7.028   6.091   3.069
 3422TIP3    H110230   7.057   5.999   3.071
 3422TIP3    H210231   7.084   6.135   3.133
 3423TIP3   OH210232   7.019   5.380   3.420
 3423TIP3    H110233   6.940   5.360   3.472
 3423TIP3    H210234   7.091   5.366   3.481
 3424TIP3   OH210235   0.045   4.840   2.563
 3424TIP3    H110236   0.077   4.782   2.632
 3424TIP3    H210237  -0.043   4.808   2.544
 3425TIP3   OH210238   6.273   6.840   1.841
 3425TIP3    H110239   6.244   6.787   1.915
 3425TIP3    H210240   6.267   6.782   1.765
 3426TIP3   OH210241   6.640   4.814   5.866
 3426TIP3    H110242   6.618   4.897   5.908
 3426TIP3    H210243   6.715   4.781   5.916
 3427TIP3   OH210244   4.614   6.460   0.149
 3427TIP3    H110245   4.638   6.529   0.211
 3427TIP3    H210246   4.518   6.460   0.149
 3428TIP3   OH210247   5.344   2.325   3.306
 3428TIP3    H110248   5.367   2.282   3.224
 3428TIP3    H210249   5.347   2.418   3.287
 3429TIP3   OH210250   2.462   1.922   4.204
 3429TIP3    H110251   2.512   1.994   4.164
 3429TIP3    H210252   2.390   1.964   4.250
 3430TIP3   OH210253   0.123   0.077   0.238
 3430TIP3    H110254   0.160   0.055   0.153
 3430TIP3    H210255   0.036   0.111   0.219
 3431TIP3   OH210256   6.276   1.123   5.742
 3431TIP3    H110257   6.225   1.144   5.820
 3431TIP3    H210258   6.217   1.068   5.689
 3432TIP3   OH210259   4.600   2.698   4.640
 3432TIP3    H110260   4.649   2.616   4.646
 3432TIP3    H210261   4.546   2.699   4.718
 3433TIP3   OH210262   4.092   6.657   0.213
 3433TIP3    H110263   4.027   6.716   0.177
 3433TIP3    H210264   4.172   6.710   0.221
 3434TIP3   OH210265   5.626   3.016   2.444
 3434TIP3    H110266   5.662   3.092   2.490
 3434TIP3    H210267   5.647   3.031   2.352
 3435TIP3   OH210268   3.762   0.214   0.474
 3435TIP3    H110269   3.831   0.224   0.539
 3435TIP3    H210270   3.711   0.295   0.480
 3436TIP3   OH210271   5.972   3.515   1.372
 3436TIP3    H110272   5.948   3.422   1.365
 3436TIP3    H210273   6.057   3.515   1.416
 3437TIP3   OH210274   3.126   4.991   0.313
 3437TIP3    H110275   3.114   5.085   0.294
 3437TIP3    H210276   3.156   4.954   0.230
 3438TIP3   OH210277   7.079   6.545   3.532
 3438TIP3    H110278   7.018   6.480   3.497
 3438TIP3    H210279   7.023   6.618   3.561
 3439TIP3   OH210280   2.461   0.975   1.532
 3439TIP3    H110281   2.538   0.960   1.588
 3439TIP3    H210282   2.395   0.914   1.567
 3440TIP3   OH210283   0.859   6.670   5.290
 3440TIP3    H110284   0.849   6.746   5.233
 3440TIP3    H210285   0.831   6.700   5.376
 3441TIP3   OH210286   1.321   6.234   4.441
 3441TIP3    H110287   1.316   6.269   4.353
 3441TIP3    H210288   1.301   6.141   4.431
 3442TIP3   OH210289   5.905   3.975   2.286
 3442TIP3    H110290   5.967   4.014   2.347
 3442TIP3    H210291   5.952   3.902   2.247
 3443TIP3   OH210292   6.580   3.099   5.598
 3443TIP3    H110293   6.621   3.171   5.549
 3443TIP3    H210294   6.489   3.126   5.608
 3444TIP3   OH210295   5.790   1.480   1.583
 3444TIP3    H110296   5.704   1.487   1.626
 3444TIP3    H210297   5.770   1.481   1.490
 3445TIP3   OH210298   3.328   4.763   1.981
 3445TIP3    H110299   3.382   4.694   1.942
 3445TIP3    H210300   3.328   4.833   1.916
 3446TIP3   OH210301   4.422   5.455   5.573
 3446TIP3    H110302   4.442   5.386   5.511
 3446TIP3    H210303   4.363   5.414   5.636
 3447TIP3   OH210304   5.648   3.288   4.928
 3447TIP3    H110305   5.650   3.376   4.892
 3447TIP3    H210306   5.704   3.292   5.005
 3448TIP3   OH210307   2.219   6.101   4.958
 3448TIP3    H110308   2.210   6.122   5.051
 3448TIP3    H210309   2.183   6.013   4.950
 3449TIP3   OH210310   0.348   4.020   0.690
 3449TIP3    H110311   0.287   3.996   0.759
 3449TIP3    H210312   0.412   4.077   0.733
 3450TIP3   OH210313   4.441   0.745   1.455
 3450TIP3    H110314   4.365   0.695   1.486
 3450TIP3    H210315   4.403   0.824   1.415
 3451TIP3   OH210316   4.878   5.906   1.825
 3451TIP3    H110317   4.942   5.916   1.896
 3451TIP3    H210318   4.920   5.846   1.763
 3452TIP3   OH210319   6.928   5.915   4.651
 3452TIP3    H110320   6.871   5.851   4.608
 3452TIP3    H210321   7.000   5.863   4.686
 3453TIP3   OH210322   2.122   2.239   0.461
 3453TIP3    H110323   2.096   2.152   0.432
 3453TIP3    H210324   2.217   2.242   0.447
 3454TIP3   OH210325   1.131   0.119   0.945
 3454TIP3    H110326   1.138   0.065   1.023
 3454TIP3    H210327   1.099   0.204   0.977
 3455TIP3   OH210328   5.989   3.708   2.170
 3455TIP3    H110329   6.051   3.667   2.110
 3455TIP3    H210330   5.957   3.636   2.225
 3456TIP3   OH210331   1.449   5.173   4.587
 3456TIP3    H110332   1.521   5.183   4.524
 3456TIP3    H210333   1.472   5.229   4.660
 3457TIP3   OH210334   6.199   1.850   4.915
 3457TIP3    H110335   6.262   1.778   4.924
 3457TIP3    H210336   6.194   1.889   5.003
 3458TIP3   OH210337   1.760   1.842   5.061
 3458TIP3    H110338   1.698   1.871   4.994
 3458TIP3    H210339   1.786   1.754   5.032
 3459TIP3   OH210340   4.440   1.751   0.899
 3459TIP3    H110341   4.469   1.661   0.911
 3459TIP3    H210342   4.395   1.751   0.815
 3460TIP3   OH210343   5.777   1.282   0.680
 3460TIP3    H110344   5.693   1.288   0.635
 3460TIP3    H210345   5.762   1.222   0.753
 3461TIP3   OH210346   2.713   4.546   1.955
 3461TIP3    H110347   2.796   4.517   1.917
 3461TIP3    H210348   2.655   4.556   1.880
 3462TIP3   OH210349   4.088   3.136   5.501
 3462TIP3    H110350   4.172   3.160   5.462
 3462TIP3    H210351   4.023   3.157   5.434
 3463TIP3   OH210352   3.024   0.402   3.539
 3463TIP3    H110353   2.993   0.316   3.567
 3463TIP3    H210354   3.112   0.409   3.578
 3464TIP3   OH210355   4.926   3.593   2.887
 3464TIP3    H110356   4.981   3.643   2.948
 3464TIP3    H210357   4.955   3.502   2.899
 3465TIP3   OH210358   3.564   5.675   3.332
 3465TIP3    H110359   3.610   5.597   3.364
 3465TIP3    H210360   3.600   5.747   3.384
 3466TIP3   OH210361   5.215   2.145   1.544
 3466TIP3    H110362   5.214   2.238   1.565
 3466TIP3    H210363   5.292   2.134   1.489
 3467TIP3   OH210364   5.731   4.719   3.345
 3467TIP3    H110365   5.775   4.718   3.260
 3467TIP3    H210366   5.711   4.812   3.361
 3468TIP3   OH210367   1.366   0.287   5.638
 3468TIP3    H110368   1.348   0.292   5.545
 3468TIP3    H210369   1.281   0.299   5.680
 3469TIP3   OH210370   0.144   2.167   0.523
 3469TIP3    H110371   0.180   2.224   0.592
 3469TIP3    H210372   0.115   2.089   0.570
 3470TIP3   OH210373   6.661   5.102   5.658
 3470TIP3    H110374   6.605   5.109   5.736
 3470TIP3    H210375   6.605   5.128   5.585
 3471TIP3   OH210376   1.754   5.316   0.374
 3471TIP3    H110377   1.675   5.324   0.428
 3471TIP3    H210378   1.775   5.406   0.349
 3472TIP3   OH210379   2.689   1.409   5.412
 3472TIP3    H110380   2.610   1.394   5.359
 3472TIP3    H210381   2.718   1.321   5.436
 3473TIP3   OH210382   4.759   5.159   0.263
 3473TIP3    H110383   4.747   5.242   0.309
 3473TIP3    H210384   4.806   5.103   0.325
 3474TIP3   OH210385   0.752   6.554   4.882
 3474TIP3    H110386   0.671   6.503   4.888
 3474TIP3    H210387   0.730   6.626   4.823
 3475TIP3   OH210388   5.127   0.768   4.489
 3475TIP3    H110389   5.108   0.770   4.395
 3475TIP3    H210390   5.215   0.732   4.494
 3476TIP3   OH210391   4.456   1.605   2.200
 3476TIP3    H110392   4.497   1.687   2.227
 3476TIP3    H210393   4.530   1.548   2.178
 3477TIP3   OH210394   0.755   2.287   0.208
 3477TIP3    H110395   0.712   2.208   0.176
 3477TIP3    H210396   0.702   2.315   0.283
 3478TIP3   OH210397   3.589   0.931   0.764
 3478TIP3    H110398   3.513   0.977   0.799
 3478TIP3    H210399   3.655   0.937   0.833
 3479TIP3   OH210400   3.867   5.194   1.741
 3479TIP3    H110401   3.853   5.100   1.756
 3479TIP3    H210402   3.930   5.199   1.670
 3480TIP3   OH210403   3.754   3.344   0.137
 3480TIP3    H110404   3.709   3.423   0.168
 3480TIP3    H210405   3.773   3.361   0.045
 3481TIP3   OH210406   0.386   6.260   2.342
 3481TIP3    H110407   0.294   6.281   2.359
 3481TIP3    H210408   0.384   6.187   2.281
 3482TIP3   OH210409   4.816   2.744   3.815
 3482TIP3    H110410   4.761   2.805   3.863
 3482TIP3    H210411   4.847   2.682   3.881
 3483TIP3   OH210412   6.061   0.256   0.895
 3483TIP3    H110413   6.106   0.338   0.914
 3483TIP3    H210414   5.970   0.282   0.877
 3484TIP3   OH210415   3.231   6.351   3.012
 3484TIP3    H110416   3.211   6.437   3.048
 3484TIP3    H210417   3.191   6.289   3.073
 3485TIP3   OH210418   1.025   3.817   4.355
 3485TIP3    H110419   0.981   3.743   4.314
 3485TIP3    H210420   1.118   3.794   4.354
 3486TIP3   OH210421   1.525   6.711   5.752
 3486TIP3    H110422   1.575   6.642   5.796
 3486TIP3    H210423   1.592   6.765   5.709
 3487TIP3   OH210424   4.805   5.319   1.592
 3487TIP3    H110425   4.825   5.256   1.662
 3487TIP3    H210426   4.888   5.334   1.548
 3488TIP3   OH210427   0.123   6.635   1.532
 3488TIP3    H110428   0.201   6.585   1.506
 3488TIP3    H210429   0.080   6.580   1.598
 3489TIP3   OH210430   3.063   4.359   1.021
 3489TIP3    H110431   2.985   4.335   0.971
 3489TIP3    H210432   3.096   4.275   1.055
 3490TIP3   OH210433   6.434   3.851   2.324
 3490TIP3    H110434   6.362   3.864   2.263
 3490TIP3    H210435   6.486   3.780   2.285
 3491TIP3   OH210436   5.025   5.134   2.093
 3491TIP3    H110437   5.076   5.211   2.116
 3491TIP3    H210438   5.088   5.074   2.053
 3492TIP3   OH210439   0.100   4.459   0.499
 3492TIP3    H110440   0.093   4.553   0.487
 3492TIP3    H210441   0.010   4.427   0.497
 3493TIP3   OH210442   6.934   2.166   4.060
 3493TIP3    H110443   6.931   2.243   4.004
 3493TIP3    H210444   6.912   2.093   4.002
 3494TIP3   OH210445   0.614   2.527   4.904
 3494TIP3    H110446   0.582   2.570   4.983
 3494TIP3    H210447   0.707   2.511   4.921
 3495TIP3   OH210448   3.235   3.221   3.789
 3495TIP3    H110449   3.242   3.189   3.879
 3495TIP3    H210450   3.152   3.269   3.787
 3496TIP3   OH210451   0.190   1.153   2.655
 3496TIP3    H110452   0.283   1.136   2.641
 3496TIP3    H210453   0.148   1.123   2.574
 3497TIP3   OH210454   6.085   0.727   5.413
 3497TIP3    H110455   6.022   0.744   5.483
 3497TIP3    H210456   6.166   0.770   5.444
 3498TIP3   OH210457   2.014   6.580   2.706
 3498TIP3    H110458   2.097   6.614   2.740
 3498TIP3    H210459   1.949   6.643   2.735
 3499TIP3   OH210460   5.408   0.275   5.894
 3499TIP3    H110461   5.395   0.270   5.799
 3499TIP3    H210462   5.379   0.363   5.918
 3500TIP3   OH210463   2.046   1.956   0.420
 3500TIP3    H110464   1.959   1.923   0.396
 3500TIP3    H210465   2.074   1.898   0.491
 3501TIP3   OH210466   4.192   4.621   2.881
 3501TIP3    H110467   4.160   4.535   2.856
 3501TIP3    H210468   4.159   4.634   2.971
 3502TIP3   OH210469   1.449   0.222   4.356
 3502TIP3    H110470   1.420   0.154   4.417
 3502TIP3    H210471   1.420   0.191   4.271
 3503TIP3   OH210472   1.904   4.050   2.154
 3503TIP3    H110473   1.888   4.121   2.216
 3503TIP3    H210474   1.819   4.034   2.113
 3504TIP3   OH210475   2.768   1.033   1.437
 3504TIP3    H110476   2.692   1.050   1.382
 3504TIP3    H210477   2.775   0.938   1.441
 3505TIP3   OH210478   0.011   4.618   5.755
 3505TIP3    H110479  -0.029   4.536   5.726
 3505TIP3    H210480   0.099   4.616   5.719
 3506TIP3   OH210481   0.844   6.556   2.388
 3506TIP3    H110482   0.910   6.618   2.419
 3506TIP3    H210483   0.870   6.473   2.427
 3507TIP3   OH210484   4.443   3.441   1.571
 3507TIP3    H110485   4.504   3.427   1.643
 3507TIP3    H210486   4.426   3.535   1.572
 3508TIP3   OH210487   2.594   6.331   2.795
 3508TIP3    H110488   2.685   6.357   2.812
 3508TIP3    H210489   2.601   6.246   2.752
 3509TIP3   OH210490   0.815   0.707   4.881
 3509TIP3    H110491   0.908   0.684   4.887
 3509TIP3    H210492   0.782   0.695   4.970
 3510TIP3   OH210493   0.182   1.250   2.047
 3510TIP3    H110494   0.093   1.248   2.011
 3510TIP3    H210495   0.217   1.163   2.028
 3511TIP3   OH210496   4.303   1.716   2.669
 3511TIP3    H110497   4.304   1.638   2.613
 3511TIP3    H210498   4.307   1.789   2.608
 3512TIP3   OH210499   7.249   3.669   3.688
 3512TIP3    H110500   7.301   3.620   3.624
 3512TIP3    H210501   7.301   3.747   3.708
 3513TIP3   OH210502   2.115   3.896   1.655
 3513TIP3    H110503   2.121   3.934   1.568
 3513TIP3    H210504   2.047   3.829   1.647
 3514TIP3   OH210505   3.266   5.440   3.173
 3514TIP3    H110506   3.312   5.524   3.178
 3514TIP3    H210507   3.330   5.375   3.203
 3515TIP3   OH210508   4.045   6.664   2.916
 3515TIP3    H110509   4.065   6.665   3.010
 3515TIP3    H210510   4.052   6.571   2.891
 3516TIP3   OH210511   5.181   2.131   5.772
 3516TIP3    H110512   5.236   2.136   5.850
 3516TIP3    H210513   5.242   2.130   5.699
 3517TIP3   OH210514   5.408   0.795   0.675
 3517TIP3    H110515   5.397   0.870   0.616
 3517TIP3    H210516   5.369   0.824   0.758
 3518TIP3   OH210517   0.962   1.166   0.764
 3518TIP3    H110518   1.030   1.183   0.830
 3518TIP3    H210519   1.011   1.144   0.685
 3519TIP3   OH210520   3.828   1.765   0.508
 3519TIP3    H110521   3.861   1.676   0.498
 3519TIP3    H210522   3.733   1.756   0.506
 3520TIP3   OH210523   1.905   6.666   1.223
 3520TIP3    H110524   1.938   6.719   1.150
 3520TIP3    H210525   1.882   6.582   1.182
 3521TIP3   OH210526   1.451   0.816   5.704
 3521TIP3    H110527   1.364   0.839   5.672
 3521TIP3    H210528   1.439   0.735   5.753
 3522TIP3   OH210529   1.720   3.373   4.729
 3522TIP3    H110530   1.754   3.289   4.762
 3522TIP3    H210531   1.742   3.436   4.798
 3523TIP3   OH210532   5.894   2.772   1.252
 3523TIP3    H110533   5.828   2.739   1.192
 3523TIP3    H210534   5.873   2.730   1.336
 3524TIP3   OH210535   0.793   0.693   0.075
 3524TIP3    H110536   0.776   0.601   0.053
 3524TIP3    H210537   0.795   0.695   0.170
 3525TIP3   OH210538   5.172   3.210   0.151
 3525TIP3    H110539   5.180   3.169   0.065
 3525TIP3    H210540   5.203   3.143   0.212
 3526TIP3   OH210541   1.514   1.881   4.062
 3526TIP3    H110542   1.589   1.837   4.022
 3526TIP3    H210543   1.439   1.824   4.041
 3527TIP3   OH210544   1.683   1.321   3.367
 3527TIP3    H110545   1.675   1.309   3.272
 3527TIP3    H210546   1.593   1.333   3.398
 3528TIP3   OH210547   2.482   3.124   2.439
 3528TIP3    H110548   2.493   3.145   2.346
 3528TIP3    H210549   2.389   3.105   2.449
 3529TIP3   OH210550   5.055   0.017   3.239
 3529TIP3    H110551   5.048   0.112   3.247
 3529TIP3    H210552   5.125   0.003   3.175
 3530TIP3   OH210553   1.631   3.315   0.620
 3530TIP3    H110554   1.644   3.230   0.578
 3530TIP3    H210555   1.668   3.378   0.559
 3531TIP3   OH210556   3.770   2.224   1.325
 3531TIP3    H110557   3.676   2.239   1.316
 3531TIP3    H210558   3.810   2.307   1.297
 3532TIP3   OH210559   0.906   2.635   3.420
 3532TIP3    H110560   0.902   2.576   3.496
 3532TIP3    H210561   0.897   2.578   3.344
 3533TIP3   OH210562   6.485   6.421   5.278
 3533TIP3    H110563   6.509   6.338   5.237
 3533TIP3    H210564   6.569   6.457   5.308
 3534TIP3   OH210565   3.540   1.526   1.466
 3534TIP3    H110566   3.445   1.529   1.480
 3534TIP3    H210567   3.577   1.543   1.553
 3535TIP3   OH210568   5.618   1.631   0.482
 3535TIP3    H110569   5.628   1.726   0.478
 3535TIP3    H210570   5.567   1.609   0.403
 3536TIP3   OH210571   4.849   5.190   1.832
 3536TIP3    H110572   4.807   5.130   1.894
 3536TIP3    H210573   4.835   5.277   1.869
 3537TIP3   OH210574   2.753   6.637   2.098
 3537TIP3    H110575   2.775   6.566   2.158
 3537TIP3    H210576   2.684   6.686   2.143
 3538TIP3   OH210577   3.779   5.766   4.578
 3538TIP3    H110578   3.809   5.691   4.630
 3538TIP3    H210579   3.798   5.842   4.633
 3539TIP3   OH210580   0.692   5.544   1.931
 3539TIP3    H110581   0.783   5.517   1.922
 3539TIP3    H210582   0.684   5.620   1.873
 3540TIP3   OH210583   5.456   4.261   0.020
 3540TIP3    H110584   5.517   4.334   0.035
 3540TIP3    H210585   5.453   4.251  -0.075
 3541TIP3   OH210586   2.834   1.622   1.908
 3541TIP3    H110587   2.812   1.612   1.815
 3541TIP3    H210588   2.917   1.669   1.908
 3542TIP3   OH210589   6.285   2.367   5.021
 3542TIP3    H110590   6.272   2.297   4.957
 3542TIP3    H210591   6.359   2.337   5.075
 3543TIP3   OH210592   1.916   1.141   5.364
 3543TIP3    H110593   2.002   1.183   5.375
 3543TIP3    H210594   1.927   1.085   5.287
 3544TIP3   OH210595   6.338   3.258   3.701
 3544TIP3    H110596   6.310   3.346   3.727
 3544TIP3    H210597   6.408   3.274   3.637
 3545TIP3   OH210598   2.897   5.982   1.302
 3545TIP3    H110599   2.945   5.981   1.219
 3545TIP3    H210600   2.912   6.070   1.338
 3546TIP3   OH210601   3.540   1.682   0.522
 3546TIP3    H110602   3.505   1.622   0.456
 3546TIP3    H210603   3.482   1.758   0.517
 3547TIP3   OH210604   4.919   5.294   0.764
 3547TIP3    H110605   4.852   5.362   0.770
 3547TIP3    H210606   5.001   5.341   0.781
 3548TIP3   OH210607   3.146   4.008   0.113
 3548TIP3    H110608   3.179   4.088   0.072
 3548TIP3    H210609   3.118   4.035   0.200
 3549TIP3   OH210610   5.381   1.278   5.353
 3549TIP3    H110611   5.424   1.230   5.283
 3549TIP3    H210612   5.405   1.369   5.338
 3550TIP3   OH210613   6.635   3.710   0.138
 3550TIP3    H110614   6.636   3.661   0.220
 3550TIP3    H210615   6.727   3.718   0.113
 3551TIP3   OH210616   7.064   4.101   0.817
 3551TIP3    H110617   7.111   4.069   0.740
 3551TIP3    H210618   6.974   4.069   0.805
 3552TIP3   OH210619   3.201   0.665   1.896
 3552TIP3    H110620   3.113   0.674   1.933
 3552TIP3    H210621   3.244   0.599   1.950
 3553TIP3   OH210622   5.229   4.972   2.011
 3553TIP3    H110623   5.243   5.047   1.953
 3553TIP3    H210624   5.184   4.908   1.955
 3554TIP3   OH210625   1.357   4.787   2.997
 3554TIP3    H110626   1.377   4.844   3.071
 3554TIP3    H210627   1.431   4.726   2.993
 3555TIP3   OH210628   2.788   2.748   4.195
 3555TIP3    H110629   2.738   2.749   4.113
 3555TIP3    H210630   2.776   2.835   4.232
 3556TIP3   OH210631   2.550   2.476   4.685
 3556TIP3    H110632   2.622   2.526   4.725
 3556TIP3    H210633   2.471   2.522   4.712
 3557TIP3   OH210634   1.261   3.133   2.962
 3557TIP3    H110635   1.277   3.172   3.048
 3557TIP3    H210636   1.230   3.044   2.981
 3558TIP3   OH210637   2.452   6.086   5.710
 3558TIP3    H110638   2.421   6.164   5.756
 3558TIP3    H210639   2.420   6.012   5.763
 3559TIP3   OH210640   5.135   5.203   5.076
 3559TIP3    H110641   5.184   5.285   5.079
 3559TIP3    H210642   5.168   5.159   4.998
 3560TIP3   OH210643   6.672   0.594   3.532
 3560TIP3    H110644   6.762   0.562   3.542
 3560TIP3    H210645   6.659   0.599   3.437
 3561TIP3   OH210646   3.210   5.127   0.913
 3561TIP3    H110647   3.190   5.219   0.926
 3561TIP3    H210648   3.246   5.098   0.998
 3562TIP3   OH210649   5.181   2.620   3.511
 3562TIP3    H110650   5.106   2.570   3.477
 3562TIP3    H210651   5.144   2.675   3.579
 3563TIP3   OH210652   1.287   5.470   5.237
 3563TIP3    H110653   1.226   5.533   5.200
 3563TIP3    H210654   1.370   5.489   5.194
 3564TIP3   OH210655   3.248   1.358   2.917
 3564TIP3    H110656   3.196   1.304   2.977
 3564TIP3    H210657   3.282   1.296   2.853
 3565TIP3   OH210658   5.159   5.670   3.755
 3565TIP3    H110659   5.069   5.659   3.787
 3565TIP3    H210660   5.159   5.626   3.670
 3566TIP3   OH210661   4.041   6.137   1.899
 3566TIP3    H110662   3.964   6.087   1.872
 3566TIP3    H210663   4.005   6.217   1.937
 3567TIP3   OH210664   3.746   1.408   0.558
 3567TIP3    H110665   3.827   1.458   0.571
 3567TIP3    H210666   3.708   1.401   0.646
 3568TIP3   OH210667   1.551   4.756   5.238
 3568TIP3    H110668   1.493   4.781   5.166
 3568TIP3    H210669   1.636   4.792   5.214
 3569TIP3   OH210670   3.454   4.455   4.022
 3569TIP3    H110671   3.482   4.495   3.939
 3569TIP3    H210672   3.489   4.366   4.019
 3570TIP3   OH210673   5.424   0.928   2.040
 3570TIP3    H110674   5.402   0.904   1.950
 3570TIP3    H210675   5.423   0.846   2.088
 3571TIP3   OH210676   5.937   0.044   2.975
 3571TIP3    H110677   5.950   0.135   2.950
 3571TIP3    H210678   6.007  -0.003   2.928
 3572TIP3   OH210679   4.775   6.328   0.723
 3572TIP3    H110680   4.828   6.394   0.768
 3572TIP3    H210681   4.827   6.248   0.726
 3573TIP3   OH210682   0.065   0.083   5.024
 3573TIP3    H110683   0.107   0.017   5.079
 3573TIP3    H210684  -0.024   0.052   5.012
 3574TIP3   OH210685   6.937   2.498   3.933
 3574TIP3    H110686   6.864   2.438   3.915
 3574TIP3    H210687   7.009   2.463   3.881
 3575TIP3   OH210688   2.344   0.322   4.213
 3575TIP3    H110689   2.352   0.418   4.215
 3575TIP3    H210690   2.310   0.300   4.300
 3576TIP3   OH210691   4.893   0.677   5.468
 3576TIP3    H110692   4.832   0.668   5.395
 3576TIP3    H210693   4.978   0.692   5.427
 3577TIP3   OH210694   7.111   2.242   2.213
 3577TIP3    H110695   7.153   2.325   2.232
 3577TIP3    H210696   7.027   2.266   2.174
 3578TIP3   OH210697   5.725   4.513   1.942
 3578TIP3    H110698   5.689   4.461   1.871
 3578TIP3    H210699   5.753   4.595   1.901
 3579TIP3   OH210700   4.109   1.968   3.954
 3579TIP3    H110701   4.109   2.064   3.957
 3579TIP3    H210702   4.019   1.945   3.928
 3580TIP3   OH210703   2.153   1.556   1.813
 3580TIP3    H110704   2.201   1.631   1.849
 3580TIP3    H210705   2.128   1.584   1.724
 3581TIP3   OH210706   0.337   4.631   0.309
 3581TIP3    H110707   0.253   4.614   0.267
 3581TIP3    H210708   0.401   4.583   0.256
 3582TIP3   OH210709   0.702   1.026   4.631
 3582TIP3    H110710   0.617   1.011   4.672
 3582TIP3    H210711   0.684   1.086   4.559
 3583TIP3   OH210712   4.332   0.836   3.085
 3583TIP3    H110713   4.393   0.903   3.054
 3583TIP3    H210714   4.279   0.814   3.008
 3584TIP3   OH210715   5.126   1.662   0.578
 3584TIP3    H110716   5.137   1.721   0.503
 3584TIP3    H210717   5.208   1.670   0.627
 3585TIP3   OH210718   4.941   2.750   5.500
 3585TIP3    H110719   4.958   2.837   5.463
 3585TIP3    H210720   5.016   2.697   5.474
 3586TIP3   OH210721   2.684   0.897   0.608
 3586TIP3    H110722   2.778   0.905   0.621
 3586TIP3    H210723   2.656   0.837   0.677
 3587TIP3   OH210724   3.656   0.715   2.869
 3587TIP3    H110725   3.730   0.671   2.911
 3587TIP3    H210726   3.602   0.643   2.835
 3588TIP3   OH210727   1.933   5.839   0.828
 3588TIP3    H110728   1.885   5.785   0.891
 3588TIP3    H210729   1.992   5.778   0.784
 3589TIP3   OH210730   0.495   4.939   1.125
 3589TIP3    H110731   0.472   4.906   1.212
 3589TIP3    H210732   0.414   4.932   1.075
 3590TIP3   OH210733   6.944   6.583   0.061
 3590TIP3    H110734   6.938   6.647   0.131
 3590TIP3    H210735   6.868   6.600   0.006
 3591TIP3   OH210736   7.061   5.005   0.881
 3591TIP3    H110737   7.032   4.915   0.870
 3591TIP3    H210738   6.983   5.058   0.863
 3592TIP3   OH210739   0.790   2.423   3.228
 3592TIP3    H110740   0.752   2.337   3.214
 3592TIP3    H210741   0.714   2.480   3.244
 3593TIP3   OH210742   1.105   3.936   3.270
 3593TIP3    H110743   1.189   3.929   3.225
 3593TIP3    H210744   1.088   3.848   3.304
 3594TIP3   OH210745   3.756   2.020   1.133
 3594TIP3    H110746   3.766   2.088   1.201
 3594TIP3    H210747   3.844   2.009   1.097
 3595TIP3   OH210748   0.757   2.908   5.838
 3595TIP3    H110749   0.838   2.861   5.861
 3595TIP3    H210750   0.706   2.844   5.788
 3596TIP3   OH210751   3.037   1.692   4.804
 3596TIP3    H110752   2.962   1.748   4.787
 3596TIP3    H210753   3.083   1.735   4.877
 3597TIP3   OH210754   6.004   1.619   5.630
 3597TIP3    H110755   6.013   1.704   5.675
 3597TIP3    H210756   6.078   1.567   5.662
 3598TIP3   OH210757   5.217   2.319   0.895
 3598TIP3    H110758   5.304   2.361   0.898
 3598TIP3    H210759   5.155   2.391   0.904
 3599TIP3   OH210760   0.633   6.228   5.325
 3599TIP3    H110761   0.637   6.285   5.401
 3599TIP3    H210762   0.678   6.277   5.256
 3600TIP3   OH210763   0.487   6.636   3.899
 3600TIP3    H110764   0.423   6.569   3.877
 3600TIP3    H210765   0.562   6.617   3.842
 3601TIP3   OH210766   5.731   4.202   1.510
 3601TIP3    H110767   5.799   4.175   1.572
 3601TIP3    H210768   5.680   4.122   1.494
 3602TIP3   OH210769   1.719   0.419   1.645
 3602TIP3    H110770   1.812   0.421   1.670
 3602TIP3    H210771   1.675   0.377   1.720
 3603TIP3   OH210772   3.635   0.251   2.291
 3603TIP3    H110773   3.681   0.168   2.280
 3603TIP3    H210774   3.704   0.314   2.312
 3604TIP3   OH210775   1.462   4.886   1.225
 3604TIP3    H110776   1.476   4.931   1.308
 3604TIP3    H210777   1.549   4.853   1.200
 3605TIP3   OH210778   7.184   0.434   0.776
 3605TIP3    H110779   7.090   0.441   0.792
 3605TIP3    H210780   7.193   0.437   0.681
 3606TIP3   OH210781   4.018   6.729   4.331
 3606TIP3    H110782   3.994   6.679   4.253
 3606TIP3    H210783   3.950   6.708   4.395
 3607TIP3   OH210784   0.747   0.400   5.611
 3607TIP3    H110785   0.806   0.475   5.608
 3607TIP3    H210786   0.798   0.328   5.575
 3608TIP3   OH210787   7.177  -0.051   5.746
 3608TIP3    H110788   7.217   0.031   5.774
 3608TIP3    H210789   7.093  -0.054   5.793
 3609TIP3   OH210790   2.462   3.670   5.335
 3609TIP3    H110791   2.421   3.627   5.410
 3609TIP3    H210792   2.554   3.645   5.340
 3610TIP3   OH210793   3.883   1.537   4.015
 3610TIP3    H110794   3.891   1.446   3.986
 3610TIP3    H210795   3.811   1.572   3.963
 3611TIP3   OH210796   3.528   2.945   3.390
 3611TIP3    H110797   3.433   2.942   3.400
 3611TIP3    H210798   3.559   2.866   3.434
 3612TIP3   OH210799   0.116   3.054   4.943
 3612TIP3    H110800   0.093   3.142   4.912
 3612TIP3    H210801   0.065   3.042   5.023
 3613TIP3   OH210802   0.913   2.772   5.369
 3613TIP3    H110803   0.958   2.800   5.290
 3613TIP3    H210804   0.852   2.842   5.389
 3614TIP3   OH210805   3.844   3.770   3.121
 3614TIP3    H110806   3.863   3.843   3.062
 3614TIP3    H210807   3.904   3.781   3.194
 3615TIP3   OH210808   4.565   3.136   0.689
 3615TIP3    H110809   4.608   3.185   0.620
 3615TIP3    H210810   4.544   3.201   0.756
 3616TIP3   OH210811   1.494   4.510   2.718
 3616TIP3    H110812   1.507   4.603   2.734
 3616TIP3    H210813   1.425   4.484   2.779
 3617TIP3   OH210814   0.230   0.816   4.667
 3617TIP3    H110815   0.160   0.812   4.732
 3617TIP3    H210816   0.270   0.729   4.670
 3618TIP3   OH210817   4.634   2.150   3.333
 3618TIP3    H110818   4.540   2.156   3.318
 3618TIP3    H210819   4.645   2.181   3.423
 3619TIP3   OH210820   1.068   3.423   1.614
 3619TIP3    H110821   1.033   3.512   1.612
 3619TIP3    H210822   1.161   3.433   1.596
 3620TIP3   OH210823   2.489   0.908   5.711
 3620TIP3    H110824   2.397   0.912   5.737
 3620TIP3    H210825   2.502   0.818   5.682
 3621TIP3   OH210826   2.336   4.753   4.405
 3621TIP3    H110827   2.325   4.834   4.454
 3621TIP3    H210828   2.276   4.691   4.446
 3622TIP3   OH210829   5.702   5.773   0.353
 3622TIP3    H110830   5.692   5.856   0.400
 3622TIP3    H210831   5.762   5.722   0.407
 3623TIP3   OH210832   6.234   3.529   5.546
 3623TIP3    H110833   6.291   3.606   5.543
 3623TIP3    H210834   6.263   3.480   5.623
 3624TIP3   OH210835   4.744   1.655   5.448
 3624TIP3    H110836   4.831   1.616   5.451
 3624TIP3    H210837   4.724   1.661   5.354
 3625TIP3   OH210838   1.854   1.731   0.188
 3625TIP3    H110839   1.826   1.743   0.097
 3625TIP3    H210840   1.853   1.636   0.201
 3626TIP3   OH210841   5.695   5.935   4.794
 3626TIP3    H110842   5.626   5.992   4.827
 3626TIP3    H210843   5.773   5.990   4.791
 3627TIP3   OH210844   1.328   2.726   4.707
 3627TIP3    H110845   1.382   2.775   4.644
 3627TIP3    H210846   1.251   2.780   4.719
 3628TIP3   OH210847   0.371   4.397   1.558
 3628TIP3    H110848   0.282   4.411   1.525
 3628TIP3    H210849   0.365   4.416   1.652
 3629TIP3   OH210850   2.347   5.901   4.328
 3629TIP3    H110851   2.260   5.928   4.298
 3629TIP3    H210852   2.384   5.980   4.367
 3630TIP3   OH210853   5.141   4.767   3.204
 3630TIP3    H110854   5.115   4.685   3.247
 3630TIP3    H210855   5.192   4.739   3.128
 3631TIP3   OH210856   6.862   4.739   3.321
 3631TIP3    H110857   6.775   4.699   3.312
 3631TIP3    H210858   6.849   4.810   3.384
 3632TIP3   OH210859   7.121   1.141   3.544
 3632TIP3    H110860   7.078   1.133   3.629
 3632TIP3    H210861   7.170   1.223   3.548
 3633TIP3   OH210862   0.061   3.425   4.177
 3633TIP3    H110863  -0.002   3.365   4.217
 3633TIP3    H210864   0.032   3.432   4.086
 3634TIP3   OH210865   0.189   3.240   1.357
 3634TIP3    H110866   0.187   3.170   1.293
 3634TIP3    H210867   0.281   3.267   1.361
 3635TIP3   OH210868   6.889   1.667   0.070
 3635TIP3    H110869   6.946   1.684  -0.005
 3635TIP3    H210870   6.946   1.680   0.146
 3636TIP3   OH210871   3.898   1.517   2.024
 3636TIP3    H110872   3.895   1.518   1.928
 3636TIP3    H210873   3.875   1.428   2.048
 3637TIP3   OH210874   1.978   4.238   4.407
 3637TIP3    H110875   2.053   4.239   4.347
 3637TIP3    H210876   1.956   4.145   4.416
 3638TIP3   OH210877   3.543   6.079   2.827
 3638TIP3    H110878   3.613   6.145   2.830
 3638TIP3    H210879   3.580   6.008   2.775
 3639TIP3   OH210880   5.608   3.624   1.860
 3639TIP3    H110881   5.584   3.655   1.772
 3639TIP3    H210882   5.698   3.596   1.852
 3640TIP3   OH210883   2.776   2.838   2.434
 3640TIP3    H110884   2.756   2.895   2.360
 3640TIP3    H210885   2.871   2.824   2.428
 3641TIP3   OH210886   7.195   2.067   5.790
 3641TIP3    H110887   7.113   2.085   5.837
 3641TIP3    H210888   7.169   2.007   5.719
 3642TIP3   OH210889   2.011   5.631   1.215
 3642TIP3    H110890   1.947   5.635   1.144
 3642TIP3    H210891   2.069   5.706   1.199
 3643TIP3   OH210892   4.391   0.259   3.194
 3643TIP3    H110893   4.329   0.332   3.204
 3643TIP3    H210894   4.384   0.210   3.276
 3644TIP3   OH210895   1.450   3.815   5.526
 3644TIP3    H110896   1.420   3.816   5.435
 3644TIP3    H210897   1.379   3.857   5.575
 3645TIP3   OH210898   2.872   4.663   3.060
 3645TIP3    H110899   2.825   4.588   3.097
 3645TIP3    H210900   2.958   4.660   3.100
 3646TIP3   OH210901   2.357   1.259   0.655
 3646TIP3    H110902   2.432   1.214   0.694
 3646TIP3    H210903   2.362   1.348   0.688
 3647TIP3   OH210904   0.502   5.015   1.871
 3647TIP3    H110905   0.594   4.991   1.860
 3647TIP3    H210906   0.502   5.083   1.938
 3648TIP3   OH210907   6.572   3.336   4.923
 3648TIP3    H110908   6.525   3.418   4.932
 3648TIP3    H210909   6.505   3.268   4.933
 3649TIP3   OH210910   6.917   0.472   3.525
 3649TIP3    H110911   6.932   0.391   3.477
 3649TIP3    H210912   7.002   0.494   3.563
 3650TIP3   OH210913   4.305   0.694   2.801
 3650TIP3    H110914   4.211   0.687   2.819
 3650TIP3    H210915   4.322   0.630   2.732
 3651TIP3   OH210916   4.772   4.619   0.505
 3651TIP3    H110917   4.767   4.552   0.436
 3651TIP3    H210918   4.734   4.576   0.582
 3652TIP3   OH210919   5.805   3.891   5.281
 3652TIP3    H110920   5.713   3.918   5.283
 3652TIP3    H210921   5.819   3.847   5.364
 3653TIP3   OH210922   1.067   4.527   0.461
 3653TIP3    H110923   1.142   4.536   0.402
 3653TIP3    H210924   1.008   4.467   0.416
 3654TIP3   OH210925   5.211   2.101   4.155
 3654TIP3    H110926   5.241   2.171   4.098
 3654TIP3    H210927   5.256   2.023   4.122
 3655TIP3   OH210928   4.042   6.586   3.712
 3655TIP3    H110929   3.967   6.545   3.754
 3655TIP3    H210930   4.016   6.596   3.620
 3656TIP3   OH210931   5.535   5.886   3.393
 3656TIP3    H110932   5.547   5.922   3.481
 3656TIP3    H210933   5.441   5.892   3.378
 3657TIP3   OH210934   0.845   4.630   0.287
 3657TIP3    H110935   0.885   4.660   0.206
 3657TIP3    H210936   0.888   4.682   0.356
 3658TIP3   OH210937   0.800   4.567   0.949
 3658TIP3    H110938   0.829   4.486   0.991
 3658TIP3    H210939   0.759   4.617   1.019
 3659TIP3   OH210940   3.878   3.396   1.695
 3659TIP3    H110941   3.947   3.420   1.633
 3659TIP3    H210942   3.881   3.300   1.697
 3660TIP3   OH210943   6.641   6.314   0.803
 3660TIP3    H110944   6.607   6.225   0.798
 3660TIP3    H210945   6.731   6.308   0.774
 3661TIP3   OH210946   1.629   0.545   0.050
 3661TIP3    H110947   1.665   0.565   0.137
 3661TIP3    H210948   1.538   0.521   0.067
 3662TIP3   OH210949   1.370   2.171   5.530
 3662TIP3    H110950   1.412   2.107   5.473
 3662TIP3    H210951   1.396   2.256   5.494
 3663TIP3   OH210952   3.945   0.995   4.023
 3663TIP3    H110953   3.934   1.003   3.929
 3663TIP3    H210954   3.926   1.082   4.057
 3664TIP3   OH210955   6.308   3.145   0.172
 3664TIP3    H110956   6.323   3.063   0.219
 3664TIP3    H210957   6.390   3.160   0.124
 3665TIP3   OH210958   4.210   6.172   1.694
 3665TIP3    H110959   4.180   6.250   1.646
 3665TIP3    H210960   4.160   6.173   1.775
 3666TIP3   OH210961   6.634   5.072   1.778
 3666TIP3    H110962   6.681   5.019   1.842
 3666TIP3    H210963   6.669   5.044   1.694
 3667TIP3   OH210964   6.632   2.396   2.017
 3667TIP3    H110965   6.567   2.445   1.968
 3667TIP3    H210966   6.627   2.307   1.982
 3668TIP3   OH210967   4.607   5.852   0.049
 3668TIP3    H110968   4.678   5.810   0.001
 3668TIP3    H210969   4.642   5.867   0.137
 3669TIP3   OH210970   2.975   1.981   1.704
 3669TIP3    H110971   2.954   1.986   1.798
 3669TIP3    H210972   2.971   1.888   1.684
 3670TIP3   OH210973   4.148   2.679   3.393
 3670TIP3    H110974   4.117   2.590   3.409
 3670TIP3    H210975   4.239   2.668   3.365
 3671TIP3   OH210976   2.443   6.001   3.586
 3671TIP3    H110977   2.523   6.049   3.605
 3671TIP3    H210978   2.376   6.046   3.638
 3672TIP3   OH210979   1.929   4.343   0.870
 3672TIP3    H110980   1.988   4.362   0.943
 3672TIP3    H210981   1.987   4.331   0.794
 3673TIP3   OH210982   5.431   1.073   2.340
 3673TIP3    H110983   5.422   0.984   2.375
 3673TIP3    H210984   5.357   1.083   2.280
 3674TIP3   OH210985   0.908   5.650   0.248
 3674TIP3    H110986   0.967   5.715   0.287
 3674TIP3    H210987   0.932   5.567   0.289
 3675TIP3   OH210988   4.324   0.883   4.599
 3675TIP3    H110989   4.322   0.973   4.633
 3675TIP3    H210990   4.315   0.828   4.677
 3676TIP3   OH210991   3.660   6.571   5.352
 3676TIP3    H110992   3.631   6.489   5.390
 3676TIP3    H210993   3.670   6.552   5.258
 3677TIP3   OH210994   1.992   3.926   3.764
 3677TIP3    H110995   2.077   3.931   3.808
 3677TIP3    H210996   2.012   3.942   3.672
 3678TIP3   OH210997   0.250   4.980   0.463
 3678TIP3    H110998   0.333   4.932   0.456
 3678TIP3    H210999   0.248   5.009   0.554
 3679TIP3   OH211000   5.266   4.907   1.315
 3679TIP3    H111001   5.339   4.902   1.378
 3679TIP3    H211002   5.306   4.942   1.235
 3680TIP3   OH211003   3.531   0.378   3.679
 3680TIP3    H111004   3.603   0.316   3.664
 3680TIP3    H211005   3.568   0.441   3.740
 3681TIP3   OH211006   1.880   2.115   0.807
 3681TIP3    H111007   1.842   2.142   0.723
 3681TIP3    H211008   1.953   2.175   0.821
 3682TIP3   OH211009   1.589   5.095   3.391
 3682TIP3    H111010   1.630   5.010   3.377
 3682TIP3    H211011   1.597   5.110   3.485
 3683TIP3   OH211012   6.345   5.441   1.109
 3683TIP3    H111013   6.250   5.445   1.104
 3683TIP3    H211014   6.373   5.417   1.020
 3684TIP3   OH211015   5.893   5.167   5.239
 3684TIP3    H111016   5.834   5.228   5.283
 3684TIP3    H211017   5.834   5.107   5.192
 3685TIP3   OH211018   7.142   5.232   0.015
 3685TIP3    H111019   7.163   5.258   0.104
 3685TIP3    H211020   7.225   5.202  -0.022
 3686TIP3   OH211021   7.101   6.188   0.170
 3686TIP3    H111022   7.145   6.118   0.122
 3686TIP3    H211023   7.124   6.172   0.262
 3687TIP3   OH211024   4.278   4.970   2.527
 3687TIP3    H111025   4.371   4.969   2.545
 3687TIP3    H211026   4.251   4.879   2.533
 3688TIP3   OH211027   3.053   1.124   0.854
 3688TIP3    H111028   3.063   1.200   0.798
 3688TIP3    H211029   3.093   1.150   0.937
 3689TIP3   OH211030   2.643   6.657   4.303
 3689TIP3    H111031   2.577   6.615   4.247
 3689TIP3    H211032   2.619   6.630   4.392
 3690TIP3   OH211033   7.206   0.632   0.165
 3690TIP3    H111034   7.226   0.720   0.198
 3690TIP3    H211035   7.251   0.573   0.225
 3691TIP3   OH211036   3.190   3.420   2.404
 3691TIP3    H111037   3.228   3.481   2.340
 3691TIP3    H211038   3.106   3.395   2.366
 3692TIP3   OH211039   6.930   2.669   0.970
 3692TIP3    H111040   7.012   2.622   0.982
 3692TIP3    H211041   6.900   2.689   1.059
 3693TIP3   OH211042   6.995   3.243   5.506
 3693TIP3    H111043   6.930   3.258   5.438
 3693TIP3    H211044   6.950   3.266   5.588
 3694TIP3   OH211045   7.108   3.950   1.037
 3694TIP3    H111046   7.032   3.894   1.056
 3694TIP3    H211047   7.077   4.010   0.969
 3695TIP3   OH211048   2.954   5.459   4.184
 3695TIP3    H111049   2.923   5.544   4.213
 3695TIP3    H211050   2.875   5.405   4.180
 3696TIP3   OH211051   3.772   2.152   5.311
 3696TIP3    H111052   3.772   2.200   5.228
 3696TIP3    H211053   3.685   2.167   5.348
 3697TIP3   OH211054   5.221   6.191   4.673
 3697TIP3    H111055   5.200   6.265   4.616
 3697TIP3    H211056   5.303   6.155   4.638
 3698TIP3   OH211057   6.255   1.285   5.482
 3698TIP3    H111058   6.266   1.269   5.575
 3698TIP3    H211059   6.343   1.276   5.445
 3699TIP3   OH211060   0.805   0.931   1.758
 3699TIP3    H111061   0.895   0.904   1.772
 3699TIP3    H211062   0.805   0.973   1.672
 3700TIP3   OH211063   4.629   1.566   5.090
 3700TIP3    H111064   4.584   1.501   5.036
 3700TIP3    H211065   4.674   1.515   5.157
 3701TIP3   OH211066   3.786   1.886   4.113
 3701TIP3    H111067   3.800   1.888   4.018
 3701TIP3    H211068   3.825   1.968   4.145
 3702TIP3   OH211069   0.878   5.777   3.834
 3702TIP3    H111070   0.789   5.806   3.855
 3702TIP3    H211071   0.870   5.735   3.748
 3703TIP3   OH211072   1.592   5.895   5.589
 3703TIP3    H111073   1.533   5.820   5.591
 3703TIP3    H211074   1.604   5.914   5.496
 3704TIP3   OH211075   0.415   3.427   3.728
 3704TIP3    H111076   0.446   3.493   3.666
 3704TIP3    H211077   0.328   3.458   3.754
 3705TIP3   OH211078   2.722   4.447   0.505
 3705TIP3    H111079   2.665   4.488   0.570
 3705TIP3    H211080   2.761   4.373   0.552
 3706TIP3   OH211081   2.259   6.306   2.766
 3706TIP3    H111082   2.311   6.254   2.827
 3706TIP3    H211083   2.177   6.324   2.813
 3707TIP3   OH211084   1.570   0.603   4.041
 3707TIP3    H111085   1.622   0.682   4.031
 3707TIP3    H211086   1.480   0.631   4.029
 3708TIP3   OH211087   3.778   5.138   0.298
 3708TIP3    H111088   3.791   5.066   0.359
 3708TIP3    H211089   3.782   5.098   0.212
 3709TIP3   OH211090   0.173   0.290   5.179
 3709TIP3    H111091   0.264   0.311   5.157
 3709TIP3    H211092   0.144   0.232   5.109
 3710TIP3   OH211093   5.057   3.265   0.505
 3710TIP3    H111094   5.036   3.173   0.517
 3710TIP3    H211095   5.008   3.311   0.573
 3711TIP3   OH211096   5.465   2.474   0.878
 3711TIP3    H111097   5.511   2.483   0.794
 3711TIP3    H211098   5.518   2.414   0.929
 3712TIP3   OH211099   0.106   5.085   3.984
 3712TIP3    H111100   0.021   5.041   3.975
 3712TIP3    H211101   0.164   5.037   3.925
 3713TIP3   OH211102   3.957   5.249   3.246
 3713TIP3    H111103   3.995   5.162   3.259
 3713TIP3    H211104   3.875   5.232   3.200
 3714TIP3   OH211105   0.654   2.682   5.721
 3714TIP3    H111106   0.561   2.672   5.741
 3714TIP3    H211107   0.660   2.661   5.627
 3715TIP3   OH211108   5.909   1.973   5.041
 3715TIP3    H111109   6.000   2.002   5.039
 3715TIP3    H211110   5.883   1.983   5.133
 3716TIP3   OH211111   2.089   5.364   3.973
 3716TIP3    H111112   2.168   5.384   3.924
 3716TIP3    H211113   2.021   5.420   3.934
 3717TIP3   OH211114   4.110   3.074   1.862
 3717TIP3    H111115   4.138   3.154   1.907
 3717TIP3    H211116   4.190   3.043   1.818
 3718TIP3   OH211117   0.321   0.963   3.380
 3718TIP3    H111118   0.356   0.873   3.377
 3718TIP3    H211119   0.228   0.952   3.401
 3719TIP3   OH211120   4.648   0.205   2.321
 3719TIP3    H111121   4.698   0.190   2.241
 3719TIP3    H211122   4.587   0.132   2.325
 3720TIP3   OH211123   3.658   3.239   5.334
 3720TIP3    H111124   3.699   3.240   5.420
 3720TIP3    H211125   3.627   3.328   5.320
 3721TIP3   OH211126   2.574   5.824   4.181
 3721TIP3    H111127   2.643   5.814   4.247
 3721TIP3    H211128   2.496   5.847   4.232
 3722TIP3   OH211129   4.401   3.084   1.344
 3722TIP3    H111130   4.404   3.001   1.297
 3722TIP3    H211131   4.493   3.106   1.361
 3723TIP3   OH211132   3.406   3.388   4.376
 3723TIP3    H111133   3.359   3.405   4.458
 3723TIP3    H211134   3.393   3.294   4.361
 3724TIP3   OH211135   5.826   0.963   0.271
 3724TIP3    H111136   5.883   1.028   0.312
 3724TIP3    H211137   5.763   1.015   0.221
 3725TIP3   OH211138   2.916   3.466   2.801
 3725TIP3    H111139   2.910   3.477   2.896
 3725TIP3    H211140   2.958   3.380   2.789
 3726TIP3   OH211141   3.314   3.345   4.651
 3726TIP3    H111142   3.289   3.357   4.743
 3726TIP3    H211143   3.351   3.257   4.647
 3727TIP3   OH211144   1.831   6.444   1.088
 3727TIP3    H111145   1.813   6.435   0.994
 3727TIP3    H211146   1.749   6.419   1.130
 3728TIP3   OH211147   6.376   2.059   1.926
 3728TIP3    H111148   6.341   2.028   2.009
 3728TIP3    H211149   6.341   2.148   1.918
 3729TIP3   OH211150   6.508   2.323   5.179
 3729TIP3    H111151   6.566   2.287   5.246
 3729TIP3    H211152   6.553   2.403   5.149
 3730TIP3   OH211153   3.312   3.968   2.293
 3730TIP3    H111154   3.279   3.893   2.342
 3730TIP3    H211155   3.355   4.022   2.358
 3731TIP3   OH211156   1.400   3.951   2.626
 3731TIP3    H111157   1.368   3.864   2.650
 3731TIP3    H211158   1.389   4.003   2.706
 3732TIP3   OH211159   1.198   6.027   3.146
 3732TIP3    H111160   1.234   6.022   3.235
 3732TIP3    H211161   1.236   6.107   3.110
 3733TIP3   OH211162   6.209   0.232   0.578
 3733TIP3    H111163   6.185   0.324   0.585
 3733TIP3    H211164   6.244   0.210   0.665
 3734TIP3   OH211165   2.978   4.820   0.882
 3734TIP3    H111166   2.969   4.859   0.969
 3734TIP3    H211167   3.072   4.808   0.871
 3735TIP3   OH211168   2.106   3.513   4.853
 3735TIP3    H111169   2.087   3.603   4.826
 3735TIP3    H211170   2.074   3.459   4.781
 3736TIP3   OH211171   4.613   3.739   2.124
 3736TIP3    H111172   4.537   3.751   2.180
 3736TIP3    H211173   4.649   3.827   2.113
 3737TIP3   OH211174   1.731   0.792   0.462
 3737TIP3    H111175   1.776   0.874   0.479
 3737TIP3    H211176   1.752   0.737   0.538
 3738TIP3   OH211177   6.545   4.623   1.088
 3738TIP3    H111178   6.578   4.537   1.062
 3738TIP3    H211179   6.489   4.605   1.164
 3739TIP3   OH211180   4.845   1.470   5.677
 3739TIP3    H111181   4.864   1.381   5.647
 3739TIP3    H211182   4.804   1.513   5.602
 3740TIP3   OH211183   5.014   1.520   3.614
 3740TIP3    H111184   5.042   1.485   3.699
 3740TIP3    H211185   4.953   1.454   3.581
 3741TIP3   OH211186   3.376   4.726   2.625
 3741TIP3    H111187   3.313   4.712   2.695
 3741TIP3    H211188   3.429   4.800   2.653
 3742TIP3   OH211189   2.676   4.736   1.653
 3742TIP3    H111190   2.606   4.695   1.705
 3742TIP3    H211191   2.754   4.684   1.673
 3743TIP3   OH211192   2.816   3.504   0.931
 3743TIP3    H111193   2.858   3.504   1.017
 3743TIP3    H211194   2.801   3.411   0.912
 3744TIP3   OH211195   3.814   6.320   3.992
 3744TIP3    H111196   3.908   6.304   4.002
 3744TIP3    H211197   3.809   6.405   3.948
 3745TIP3   OH211198   7.169   2.574   4.905
 3745TIP3    H111199   7.252   2.531   4.882
 3745TIP3    H211200   7.102   2.509   4.882
 3746TIP3   OH211201   0.481   1.574   4.635
 3746TIP3    H111202   0.556   1.515   4.631
 3746TIP3    H211203   0.507   1.642   4.698
 3747TIP3   OH211204   6.679   4.243   5.227
 3747TIP3    H111205   6.707   4.192   5.151
 3747TIP3    H211206   6.695   4.184   5.301
 3748TIP3   OH211207   0.079   1.266   0.597
 3748TIP3    H111208   0.036   1.187   0.629
 3748TIP3    H211209   0.168   1.262   0.634
 3749TIP3   OH211210   4.121   5.080   2.115
 3749TIP3    H111211   4.129   5.106   2.207
 3749TIP3    H211212   4.087   5.158   2.071
 3750TIP3   OH211213   4.815   5.503   1.309
 3750TIP3    H111214   4.904   5.488   1.340
 3750TIP3    H211215   4.789   5.420   1.269
 3751TIP3   OH211216   2.466   5.506   3.847
 3751TIP3    H111217   2.419   5.514   3.764
 3751TIP3    H211218   2.506   5.592   3.861
 3752TIP3   OH211219   6.301   1.943   0.187
 3752TIP3    H111220   6.247   1.952   0.265
 3752TIP3    H211221   6.388   1.973   0.214
 3753TIP3   OH211222   1.424   3.010   2.529
 3753TIP3    H111223   1.437   3.072   2.457
 3753TIP3    H211224   1.421   3.065   2.608
 3754TIP3   OH211225   0.367   2.082   3.552
 3754TIP3    H111226   0.359   2.148   3.483
 3754TIP3    H211227   0.383   2.001   3.505
 3755TIP3   OH211228   0.533   6.064   4.921
 3755TIP3    H111229   0.533   6.006   4.997
 3755TIP3    H211230   0.527   6.005   4.846
 3756TIP3   OH211231   2.412   4.013   1.576
 3756TIP3    H111232   2.344   4.042   1.638
 3756TIP3    H211233   2.386   4.051   1.493
 3757TIP3   OH211234   5.318   3.330   0.414
 3757TIP3    H111235   5.222   3.330   0.420
 3757TIP3    H211236   5.341   3.422   0.403
 3758TIP3   OH211237   3.528   6.699   1.654
 3758TIP3    H111238   3.442   6.736   1.675
 3758TIP3    H211239   3.510   6.610   1.623
 3759TIP3   OH211240   3.661   5.120   4.577
 3759TIP3    H111241   3.753   5.116   4.606
 3759TIP3    H211242   3.651   5.044   4.520
 3760TIP3   OH211243   6.981   4.299   2.602
 3760TIP3    H111244   7.062   4.255   2.629
 3760TIP3    H211245   6.976   4.284   2.507
 3761TIP3   OH211246   5.351   5.231   1.332
 3761TIP3    H111247   5.270   5.280   1.347
 3761TIP3    H211248   5.407   5.255   1.406
 3762TIP3   OH211249   0.729   0.252   2.821
 3762TIP3    H111250   0.731   0.326   2.759
 3762TIP3    H211251   0.726   0.293   2.907
 3763TIP3   OH211252   2.430   6.634   5.235
 3763TIP3    H111253   2.434   6.666   5.325
 3763TIP3    H211254   2.401   6.709   5.183
 3764TIP3   OH211255   0.167   2.847   5.325
 3764TIP3    H111256   0.255   2.880   5.309
 3764TIP3    H211257   0.143   2.804   5.242
 3765TIP3   OH211258   5.068   5.180   4.690
 3765TIP3    H111259   4.994   5.126   4.661
 3765TIP3    H211260   5.060   5.261   4.639
 3766TIP3   OH211261   0.761   4.845   1.026
 3766TIP3    H111262   0.671   4.874   1.040
 3766TIP3    H211263   0.814   4.923   1.044
 3767TIP3   OH211264   0.326   6.394   3.843
 3767TIP3    H111265   0.246   6.390   3.791
 3767TIP3    H211266   0.338   6.304   3.874
 3768TIP3   OH211267   6.249   2.395   2.815
 3768TIP3    H111268   6.174   2.344   2.846
 3768TIP3    H211269   6.236   2.482   2.852
 3769TIP3   OH211270   6.500   2.132   1.445
 3769TIP3    H111271   6.525   2.155   1.356
 3769TIP3    H211272   6.529   2.042   1.456
 3770TIP3   OH211273   6.044   2.087   1.899
 3770TIP3    H111274   6.002   2.085   1.812
 3770TIP3    H211275   6.024   2.174   1.933
 3771TIP3   OH211276   5.418   2.300   0.264
 3771TIP3    H111277   5.447   2.358   0.194
 3771TIP3    H211278   5.436   2.212   0.231
 3772TIP3   OH211279   6.834   0.824   3.663
 3772TIP3    H111280   6.873   0.851   3.746
 3772TIP3    H211281   6.764   0.764   3.688
 3773TIP3   OH211282   7.063   2.310   3.254
 3773TIP3    H111283   7.042   2.329   3.346
 3773TIP3    H211284   7.022   2.382   3.205
 3774TIP3   OH211285   0.259   1.752   3.808
 3774TIP3    H111286   0.234   1.814   3.878
 3774TIP3    H211287   0.354   1.758   3.804
 3775TIP3   OH211288   2.906   0.095   0.683
 3775TIP3    H111289   2.989   0.144   0.683
 3775TIP3    H211290   2.874   0.104   0.593
 3776TIP3   OH211291   3.122   0.736   1.134
 3776TIP3    H111292   3.133   0.669   1.201
 3776TIP3    H211293   3.032   0.724   1.102
 3777TIP3   OH211294   2.558   5.263   0.692
 3777TIP3    H111295   2.557   5.332   0.759
 3777TIP3    H211296   2.650   5.237   0.686
 3778TIP3   OH211297   2.749   4.319   1.463
 3778TIP3    H111298   2.701   4.356   1.389
 3778TIP3    H211299   2.699   4.346   1.540
 3779TIP3   OH211300   6.147   0.078   1.104
 3779TIP3    H111301   6.121   0.149   1.046
 3779TIP3    H211302   6.067   0.055   1.151
 3780TIP3   OH211303   5.937   0.983   2.173
 3780TIP3    H111304   5.843   0.970   2.161
 3780TIP3    H211305   5.944   1.069   2.213
 3781TIP3   OH211306   7.103   0.452   1.266
 3781TIP3    H111307   7.020   0.498   1.254
 3781TIP3    H211308   7.116   0.449   1.360
 3782TIP3   OH211309   6.232   1.911   0.906
 3782TIP3    H111310   6.183   1.830   0.893
 3782TIP3    H211311   6.280   1.897   0.988
 3783TIP3   OH211312   6.992   2.214   1.245
 3783TIP3    H111313   6.915   2.233   1.192
 3783TIP3    H211314   6.960   2.158   1.315
 3784TIP3   OH211315   5.876   2.659   0.162
 3784TIP3    H111316   5.916   2.654   0.076
 3784TIP3    H211317   5.864   2.567   0.188
 3785TIP3   OH211318   0.832   1.118   4.929
 3785TIP3    H111319   0.768   1.101   4.999
 3785TIP3    H211320   0.789   1.087   4.849
 3786TIP3   OH211321   3.700   5.491   2.609
 3786TIP3    H111322   3.785   5.464   2.576
 3786TIP3    H211323   3.652   5.520   2.531
 3787TIP3   OH211324   7.120   6.168   3.624
 3787TIP3    H111325   7.028   6.157   3.597
 3787TIP3    H211326   7.138   6.090   3.676
 3788TIP3   OH211327   4.712   4.994   5.919
 3788TIP3    H111328   4.657   5.070   5.897
 3788TIP3    H211329   4.800   5.031   5.929
 3789TIP3   OH211330   2.367   5.182   4.281
 3789TIP3    H111331   2.322   5.137   4.210
 3789TIP3    H211332   2.319   5.265   4.291
 3790TIP3   OH211333   2.528   0.508   2.405
 3790TIP3    H111334   2.577   0.497   2.323
 3790TIP3    H211335   2.511   0.418   2.434
 3791TIP3   OH211336   0.735   1.217   1.072
 3791TIP3    H111337   0.740   1.121   1.081
 3791TIP3    H211338   0.666   1.242   1.133
 3792TIP3   OH211339   5.554   3.048   4.222
 3792TIP3    H111340   5.476   3.101   4.202
 3792TIP3    H211341   5.545   2.971   4.165
 3793TIP3   OH211342   6.473   3.683   1.452
 3793TIP3    H111343   6.411   3.730   1.396
 3793TIP3    H211344   6.428   3.673   1.535
 3794TIP3   OH211345   2.251   6.741   3.930
 3794TIP3    H111346   2.220   6.806   3.993
 3794TIP3    H211347   2.251   6.787   3.847
 3795TIP3   OH211348   3.787   4.085   3.928
 3795TIP3    H111349   3.736   4.017   3.885
 3795TIP3    H211350   3.843   4.038   3.990
 3796TIP3   OH211351   3.757   2.097   4.429
 3796TIP3    H111352   3.798   2.100   4.343
 3796TIP3    H211353   3.667   2.069   4.412
 3797TIP3   OH211354   5.059   3.910   3.407
 3797TIP3    H111355   4.994   3.957   3.461
 3797TIP3    H211356   5.057   3.820   3.440
 3798TIP3   OH211357   3.684   0.863   1.868
 3798TIP3    H111358   3.717   0.773   1.867
 3798TIP3    H211359   3.675   0.886   1.776
 3799TIP3   OH211360   1.406   0.232   5.364
 3799TIP3    H111361   1.446   0.173   5.301
 3799TIP3    H211362   1.419   0.319   5.326
 3800TIP3   OH211363   3.130   4.069   5.048
 3800TIP3    H111364   3.168   3.987   5.079
 3800TIP3    H211365   3.094   4.110   5.128
 3801TIP3   OH211366   3.648   3.904   2.247
 3801TIP3    H111367   3.700   3.946   2.315
 3801TIP3    H211368   3.575   3.864   2.295
 3802TIP3   OH211369   7.022   5.740   0.222
 3802TIP3    H111370   7.052   5.775   0.138
 3802TIP3    H211371   6.927   5.739   0.214
 3803TIP3   OH211372   2.381   5.399   1.886
 3803TIP3    H111373   2.383   5.495   1.887
 3803TIP3    H211374   2.301   5.378   1.839
 3804TIP3   OH211375   2.201   4.772   1.822
 3804TIP3    H111376   2.172   4.725   1.744
 3804TIP3    H211377   2.177   4.863   1.806
 3805TIP3   OH211378   1.997   2.899   2.187
 3805TIP3    H111379   2.033   2.987   2.176
 3805TIP3    H211380   2.003   2.881   2.281
 3806TIP3   OH211381   0.815   3.012   3.256
 3806TIP3    H111382   0.820   3.015   3.161
 3806TIP3    H211383   0.898   3.049   3.285
 3807TIP3   OH211384   5.111   0.085   5.375
 3807TIP3    H111385   5.138  -0.001   5.343
 3807TIP3    H211386   5.026   0.071   5.416
 3808TIP3   OH211387   0.583   3.428   3.287
 3808TIP3    H111388   0.558   3.494   3.351
 3808TIP3    H211389   0.502   3.410   3.238
 3809TIP3   OH211390   5.778   0.220   5.390
 3809TIP3    H111391   5.807   0.308   5.416
 3809TIP3    H211392   5.808   0.163   5.460
 3810TIP3   OH211393   1.904   0.936   0.900
 3810TIP3    H111394   1.909   0.977   0.814
 3810TIP3    H211395   1.954   0.854   0.891
 3811TIP3   OH211396   5.174   3.581   0.622
 3811TIP3    H111397   5.257   3.580   0.575
 3811TIP3    H211398   5.198   3.570   0.714
 3812TIP3   OH211399   1.113   0.588   5.124
 3812TIP3    H111400   1.127   0.621   5.035
 3812TIP3    H211401   1.137   0.662   5.180
 3813TIP3   OH211402   5.030   6.270   5.298
 3813TIP3    H111403   5.026   6.218   5.378
 3813TIP3    H211404   5.034   6.205   5.228
 3814TIP3   OH211405   4.423   4.654   5.452
 3814TIP3    H111406   4.346   4.618   5.409
 3814TIP3    H211407   4.466   4.706   5.384
 3815TIP3   OH211408   4.681   6.428   3.102
 3815TIP3    H111409   4.719   6.516   3.095
 3815TIP3    H211410   4.756   6.369   3.099
 3816TIP3   OH211411   6.750   1.184   0.423
 3816TIP3    H111412   6.720   1.233   0.499
 3816TIP3    H211413   6.763   1.095   0.455
 3817TIP3   OH211414   4.203   3.314   1.960
 3817TIP3    H111415   4.210   3.395   1.910
 3817TIP3    H211416   4.294   3.285   1.971
 3818TIP3   OH211417   5.478   2.554   3.240
 3818TIP3    H111418   5.558   2.562   3.188
 3818TIP3    H211419   5.495   2.605   3.319
 3819TIP3   OH211420   3.262   5.350   5.355
 3819TIP3    H111421   3.312   5.277   5.318
 3819TIP3    H211422   3.176   5.343   5.312
 3820TIP3   OH211423   5.125   4.463   1.862
 3820TIP3    H111424   5.174   4.416   1.794
 3820TIP3    H211425   5.193   4.494   1.923
 3821TIP3   OH211426   1.249   1.151   3.259
 3821TIP3    H111427   1.322   1.141   3.198
 3821TIP3    H211428   1.279   1.216   3.323
 3822TIP3   OH211429   0.604   6.400   1.694
 3822TIP3    H111430   0.594   6.492   1.716
 3822TIP3    H211431   0.577   6.394   1.602
 3823TIP3   OH211432   2.369   1.234   1.502
 3823TIP3    H111433   2.430   1.162   1.518
 3823TIP3    H211434   2.343   1.264   1.589
 3824TIP3   OH211435   4.433   1.610   1.826
 3824TIP3    H111436   4.498   1.557   1.780
 3824TIP3    H211437   4.474   1.696   1.833
 3825TIP3   OH211438   6.606   6.505   0.996
 3825TIP3    H111439   6.642   6.447   0.929
 3825TIP3    H211440   6.551   6.566   0.947
 3826TIP3   OH211441   4.840   1.310   3.457
 3826TIP3    H111442   4.851   1.224   3.498
 3826TIP3    H211443   4.746   1.319   3.444
 3827TIP3   OH211444   0.258   4.279   2.764
 3827TIP3    H111445   0.206   4.199   2.771
 3827TIP3    H211446   0.341   4.258   2.806
 3828TIP3   OH211447   2.393   2.184   4.866
 3828TIP3    H111448   2.439   2.108   4.830
 3828TIP3    H211449   2.301   2.168   4.845
 3829TIP3   OH211450   3.666   6.544   5.082
 3829TIP3    H111451   3.707   6.582   5.004
 3829TIP3    H211452   3.581   6.512   5.051
 3830TIP3   OH211453   1.754   2.233   3.018
 3830TIP3    H111454   1.752   2.328   3.014
 3830TIP3    H211455   1.797   2.206   2.937
 3831TIP3   OH211456   0.285   6.087   2.711
 3831TIP3    H111457   0.338   6.062   2.635
 3831TIP3    H211458   0.198   6.053   2.691
 3832TIP3   OH211459   5.950   1.599   3.816
 3832TIP3    H111460   5.968   1.554   3.899
 3832TIP3    H211461   5.983   1.688   3.829
 3833TIP3   OH211462   4.871   1.321   4.829
 3833TIP3    H111463   4.846   1.348   4.741
 3833TIP3    H211464   4.790   1.329   4.880
 3834TIP3   OH211465   6.555   6.705   4.995
 3834TIP3    H111466   6.537   6.635   4.933
 3834TIP3    H211467   6.589   6.776   4.940
 3835TIP3   OH211468   6.618   4.073   0.271
 3835TIP3    H111469   6.687   4.018   0.234
 3835TIP3    H211470   6.566   4.099   0.195
 3836TIP3   OH211471   0.924   4.367   0.294
 3836TIP3    H111472   0.897   4.315   0.218
 3836TIP3    H211473   0.875   4.448   0.287
 3837TIP3   OH211474   4.678   3.830   2.553
 3837TIP3    H111475   4.695   3.922   2.576
 3837TIP3    H211476   4.688   3.826   2.458
 3838TIP3   OH211477   1.849   1.487   0.824
 3838TIP3    H111478   1.772   1.515   0.875
 3838TIP3    H211479   1.820   1.409   0.778
 3839TIP3   OH211480   4.398   3.046   0.136
 3839TIP3    H111481   4.357   3.121   0.178
 3839TIP3    H211482   4.487   3.076   0.116
 3840TIP3   OH211483   4.271   6.772   4.544
 3840TIP3    H111484   4.332   6.703   4.573
 3840TIP3    H211485   4.208   6.726   4.488
 3841TIP3   OH211486   0.883   4.590   5.456
 3841TIP3    H111487   0.871   4.682   5.435
 3841TIP3    H211488   0.845   4.542   5.383
 3842TIP3   OH211489   3.351   1.747   3.566
 3842TIP3    H111490   3.350   1.660   3.527
 3842TIP3    H211491   3.383   1.804   3.496
 3843TIP3   OH211492   3.666   4.715   3.162
 3843TIP3    H111493   3.708   4.688   3.080
 3843TIP3    H211494   3.585   4.664   3.165
 3844TIP3   OH211495   0.812   1.695   3.727
 3844TIP3    H111496   0.872   1.713   3.799
 3844TIP3    H211497   0.788   1.603   3.738
 3845TIP3   OH211498   3.841   1.688   4.818
 3845TIP3    H111499   3.801   1.768   4.784
 3845TIP3    H211500   3.799   1.675   4.903
 3846TIP3   OH211501   1.675   1.287   1.776
 3846TIP3    H111502   1.769   1.292   1.759
 3846TIP3    H211503   1.668   1.243   1.861
 3847TIP3   OH211504   0.439   5.414   2.294
 3847TIP3    H111505   0.432   5.507   2.272
 3847TIP3    H211506   0.384   5.371   2.228
 3848TIP3   OH211507   1.227   3.340   0.483
 3848TIP3    H111508   1.232   3.246   0.502
 3848TIP3    H211509   1.214   3.344   0.388
 3849TIP3   OH211510   0.153   2.675   3.674
 3849TIP3    H111511   0.210   2.610   3.715
 3849TIP3    H211512   0.180   2.677   3.582
 3850TIP3   OH211513   0.380   0.973   5.610
 3850TIP3    H111514   0.405   0.898   5.664
 3850TIP3    H211515   0.287   0.987   5.629
 3851TIP3   OH211516   3.444   2.884   0.593
 3851TIP3    H111517   3.357   2.908   0.625
 3851TIP3    H211518   3.460   2.797   0.629
 3852TIP3   OH211519   6.960   1.043   5.894
 3852TIP3    H111520   6.984   1.006   5.809
 3852TIP3    H211521   6.897   1.112   5.874
 3853TIP3   OH211522   1.265   1.651   2.605
 3853TIP3    H111523   1.272   1.612   2.518
 3853TIP3    H211524   1.320   1.730   2.601
 3854TIP3   OH211525   1.640   6.071   1.496
 3854TIP3    H111526   1.668   6.120   1.573
 3854TIP3    H211527   1.592   5.996   1.531
 3855TIP3   OH211528   2.830   0.539   1.951
 3855TIP3    H111529   2.807   0.590   1.873
 3855TIP3    H211530   2.854   0.453   1.917
 3856TIP3   OH211531   0.749   5.142   2.257
 3856TIP3    H111532   0.733   5.050   2.236
 3856TIP3    H211533   0.832   5.162   2.214
 3857TIP3   OH211534   4.471   2.086   1.143
 3857TIP3    H111535   4.559   2.063   1.173
 3857TIP3    H211536   4.470   2.062   1.051
 3858TIP3   OH211537   0.751   4.108   1.920
 3858TIP3    H111538   0.798   4.189   1.940
 3858TIP3    H211539   0.659   4.135   1.910
 3859TIP3   OH211540   4.560   2.021   0.284
 3859TIP3    H111541   4.538   2.096   0.338
 3859TIP3    H211542   4.496   2.023   0.212
 3860TIP3   OH211543   2.379   3.986   0.364
 3860TIP3    H111544   2.372   3.890   0.368
 3860TIP3    H211545   2.452   4.007   0.422
 3861TIP3   OH211546   6.131   1.671   1.014
 3861TIP3    H111547   6.065   1.705   1.074
 3861TIP3    H211548   6.093   1.590   0.979
 3862TIP3   OH211549   3.239   1.414   5.193
 3862TIP3    H111550   3.206   1.418   5.103
 3862TIP3    H211551   3.192   1.484   5.238
 3863TIP3   OH211552   3.827   3.315   3.644
 3863TIP3    H111553   3.849   3.359   3.562
 3863TIP3    H211554   3.816   3.223   3.620
 3864TIP3   OH211555   2.970   0.262   1.463
 3864TIP3    H111556   2.934   0.272   1.375
 3864TIP3    H211557   2.910   0.312   1.519
 3865TIP3   OH211558   2.952   3.922   1.957
 3865TIP3    H111559   2.861   3.897   1.946
 3865TIP3    H211560   2.956   4.014   1.932
 3866TIP3   OH211561   1.045   0.914   4.387
 3866TIP3    H111562   0.968   0.858   4.394
 3866TIP3    H211563   1.119   0.855   4.401
 3867TIP3   OH211564   0.781   5.029   0.316
 3867TIP3    H111565   0.716   5.091   0.349
 3867TIP3    H211566   0.775   5.037   0.221
 3868TIP3   OH211567   1.888   4.461   0.479
 3868TIP3    H111568   1.966   4.413   0.506
 3868TIP3    H211569   1.885   4.449   0.384
 3869TIP3   OH211570   5.598   4.733   4.527
 3869TIP3    H111571   5.586   4.639   4.518
 3869TIP3    H211572   5.592   4.768   4.438
 3870TIP3   OH211573   3.484   4.655   5.059
 3870TIP3    H111574   3.528   4.576   5.090
 3870TIP3    H211575   3.411   4.623   5.006
 3871TIP3   OH211576   6.224   0.858   0.712
 3871TIP3    H111577   6.260   0.776   0.745
 3871TIP3    H211578   6.294   0.895   0.658
 3872TIP3   OH211579   3.448   4.688   5.615
 3872TIP3    H111580   3.453   4.644   5.530
 3872TIP3    H211581   3.440   4.616   5.678
 3873TIP3   OH211582   0.974   3.927   1.779
 3873TIP3    H111583   0.888   3.962   1.803
 3873TIP3    H211584   1.007   3.888   1.860
 3874TIP3   OH211585   6.664   4.885   1.047
 3874TIP3    H111586   6.755   4.866   1.069
 3874TIP3    H211587   6.618   4.803   1.067
 3875TIP3   OH211588   1.985   0.187   4.357
 3875TIP3    H111589   1.928   0.110   4.348
 3875TIP3    H211590   2.030   0.174   4.441
 3876TIP3   OH211591   0.700   6.719   3.224
 3876TIP3    H111592   0.727   6.772   3.299
 3876TIP3    H211593   0.620   6.761   3.193
 3877TIP3   OH211594   6.444   1.057   0.890
 3877TIP3    H111595   6.401   0.998   0.951
 3877TIP3    H211596   6.446   1.008   0.807
 3878TIP3   OH211597   1.115   1.474   2.069
 3878TIP3    H111598   1.065   1.393   2.070
 3878TIP3    H211599   1.052   1.543   2.091
 3879TIP3   OH211600   6.372   2.748   0.716
 3879TIP3    H111601   6.431   2.690   0.669
 3879TIP3    H211602   6.384   2.725   0.808
 3880TIP3   OH211603   6.846   5.418   5.681
 3880TIP3    H111604   6.797   5.368   5.747
 3880TIP3    H211605   6.929   5.438   5.723
 3881TIP3   OH211606   2.425   0.634   0.954
 3881TIP3    H111607   2.405   0.640   0.861
 3881TIP3    H211608   2.410   0.542   0.976
 3882TIP3   OH211609   2.486   4.473   3.704
 3882TIP3    H111610   2.411   4.494   3.648
 3882TIP3    H211611   2.458   4.500   3.792
 3883TIP3   OH211612   1.826   1.163   4.947
 3883TIP3    H111613   1.732   1.165   4.967
 3883TIP3    H211614   1.835   1.217   4.869
 3884TIP3   OH211615   1.136   2.256   1.057
 3884TIP3    H111616   1.073   2.192   1.087
 3884TIP3    H211617   1.145   2.317   1.130
 3885TIP3   OH211618   2.322   5.405   5.843
 3885TIP3    H111619   2.370   5.434   5.766
 3885TIP3    H211620   2.354   5.460   5.914
 3886TIP3   OH211621   1.652   5.913   3.228
 3886TIP3    H111622   1.593   5.843   3.200
 3886TIP3    H211623   1.726   5.908   3.167
 3887TIP3   OH211624   3.366   4.724   0.115
 3887TIP3    H111625   3.297   4.790   0.110
 3887TIP3    H211626   3.410   4.728   0.030
 3888TIP3   OH211627   6.688   2.495   2.511
 3888TIP3    H111628   6.697   2.579   2.555
 3888TIP3    H211629   6.678   2.517   2.418
 3889TIP3   OH211630   4.519   5.040   0.904
 3889TIP3    H111631   4.573   4.961   0.902
 3889TIP3    H211632   4.532   5.080   0.817
 3890TIP3   OH211633   2.443   1.948   5.036
 3890TIP3    H111634   2.358   1.935   4.994
 3890TIP3    H211635   2.424   2.000   5.114
 3891TIP3   OH211636   2.125   5.763   1.582
 3891TIP3    H111637   2.109   5.763   1.677
 3891TIP3    H211638   2.195   5.826   1.569
 3892TIP3   OH211639   1.357   2.773   5.643
 3892TIP3    H111640   1.385   2.767   5.552
 3892TIP3    H211641   1.261   2.770   5.638
 3893TIP3   OH211642   3.326   1.590   2.744
 3893TIP3    H111643   3.259   1.571   2.679
 3893TIP3    H211644   3.322   1.516   2.806
 3894TIP3   OH211645   4.787   0.161   1.200
 3894TIP3    H111646   4.734   0.111   1.138
 3894TIP3    H211647   4.828   0.094   1.255
 3895TIP3   OH211648   2.972   6.292   5.435
 3895TIP3    H111649   3.063   6.262   5.425
 3895TIP3    H211650   2.979   6.370   5.491
 3896TIP3   OH211651   4.884   4.642   0.793
 3896TIP3    H111652   4.890   4.556   0.753
 3896TIP3    H211653   4.927   4.633   0.877
 3897TIP3   OH211654   3.860   4.339   2.975
 3897TIP3    H111655   3.892   4.249   2.972
 3897TIP3    H211656   3.794   4.338   3.044
 3898TIP3   OH211657   2.304   3.559   3.191
 3898TIP3    H111658   2.301   3.555   3.287
 3898TIP3    H211659   2.242   3.493   3.162
 3899TIP3   OH211660   6.209   6.314   0.363
 3899TIP3    H111661   6.285   6.362   0.394
 3899TIP3    H211662   6.137   6.345   0.417
 3900TIP3   OH211663   2.196   1.971   1.435
 3900TIP3    H111664   2.101   1.968   1.445
 3900TIP3    H211665   2.227   2.012   1.516
 3901TIP3   OH211666   2.298   3.098   5.618
 3901TIP3    H111667   2.388   3.105   5.585
 3901TIP3    H211668   2.286   3.005   5.636
 3902TIP3   OH211669   6.672   1.143   2.123
 3902TIP3    H111670   6.717   1.212   2.172
 3902TIP3    H211671   6.581   1.173   2.120
 3903TIP3   OH211672   3.933   5.791   2.994
 3903TIP3    H111673   3.844   5.766   2.969
 3903TIP3    H211674   3.987   5.715   2.971
 3904TIP3   OH211675   0.236   4.645   1.318
 3904TIP3    H111676   0.205   4.578   1.378
 3904TIP3    H211677   0.242   4.601   1.233
 3905TIP3   OH211678   1.247   1.369   4.795
 3905TIP3    H111679   1.325   1.314   4.802
 3905TIP3    H211680   1.225   1.367   4.702
 3906TIP3   OH211681   2.079   6.019   3.631
 3906TIP3    H111682   2.038   5.969   3.701
 3906TIP3    H211683   2.160   6.053   3.670
 3907TIP3   OH211684   5.089   4.024   0.683
 3907TIP3    H111685   5.119   4.098   0.629
 3907TIP3    H211686   5.052   3.963   0.620
 3908TIP3   OH211687   5.090   1.422   4.133
 3908TIP3    H111688   5.164   1.385   4.180
 3908TIP3    H211689   5.045   1.476   4.197
 3909TIP3   OH211690   1.061   1.322   2.638
 3909TIP3    H111691   1.114   1.293   2.712
 3909TIP3    H211692   1.024   1.406   2.667
 3910TIP3   OH211693   4.751   6.723   2.956
 3910TIP3    H111694   4.798   6.692   3.034
 3910TIP3    H211695   4.770   6.659   2.889
 3911TIP3   OH211696   4.867   5.256   5.162
 3911TIP3    H111697   4.896   5.347   5.174
 3911TIP3    H211698   4.947   5.205   5.176
 3912TIP3   OH211699   2.848   5.911   3.852
 3912TIP3    H111700   2.818   5.948   3.935
 3912TIP3    H211701   2.943   5.918   3.856
 3913TIP3   OH211702   4.148   0.031   0.800
 3913TIP3    H111703   4.177   0.112   0.840
 3913TIP3    H211704   4.076   0.001   0.855
 3914TIP3   OH211705   3.639   6.784   5.875
 3914TIP3    H111706   3.637   6.699   5.831
 3914TIP3    H211707   3.728   6.791   5.911
 3915TIP3   OH211708   5.453   6.320   3.770
 3915TIP3    H111709   5.433   6.407   3.735
 3915TIP3    H211710   5.392   6.262   3.725
 3916TIP3   OH211711   3.656   4.267   0.487
 3916TIP3    H111712   3.595   4.219   0.431
 3916TIP3    H211713   3.624   4.357   0.486
 3917TIP3   OH211714   3.555   0.693   3.200
 3917TIP3    H111715   3.558   0.788   3.195
 3917TIP3    H211716   3.565   0.663   3.109
 3918TIP3   OH211717   0.354   2.933   5.111
 3918TIP3    H111718   0.334   2.976   5.028
 3918TIP3    H211719   0.379   2.844   5.087
 3919TIP3   OH211720   4.512   6.821   1.771
 3919TIP3    H111721   4.482   6.796   1.859
 3919TIP3    H211722   4.599   6.783   1.764
 3920TIP3   OH211723   7.171   5.874   5.647
 3920TIP3    H111724   7.252   5.913   5.678
 3920TIP3    H211725   7.132   5.835   5.725
 3921TIP3   OH211726   1.857   5.870   2.085
 3921TIP3    H111727   1.925   5.865   2.152
 3921TIP3    H211728   1.786   5.816   2.120
 3922TIP3   OH211729   3.497   3.333   2.021
 3922TIP3    H111730   3.580   3.353   1.978
 3922TIP3    H211731   3.473   3.247   1.986
 3923TIP3   OH211732   5.577   1.219   1.699
 3923TIP3    H111733   5.540   1.131   1.694
 3923TIP3    H211734   5.565   1.255   1.611
 3924TIP3   OH211735   5.672   4.428   5.450
 3924TIP3    H111736   5.754   4.380   5.439
 3924TIP3    H211737   5.678   4.501   5.388
 3925TIP3   OH211738   2.258   4.596   0.510
 3925TIP3    H111739   2.215   4.574   0.427
 3925TIP3    H211740   2.213   4.676   0.539
 3926TIP3   OH211741   4.945   2.756   1.809
 3926TIP3    H111742   5.037   2.748   1.832
 3926TIP3    H211743   4.936   2.845   1.775
 3927TIP3   OH211744   3.378   0.201   4.176
 3927TIP3    H111745   3.391   0.276   4.234
 3927TIP3    H211746   3.313   0.147   4.222
 3928TIP3   OH211747   4.957   2.043   1.598
 3928TIP3    H111748   4.954   2.124   1.649
 3928TIP3    H211749   5.039   2.048   1.550
 3929TIP3   OH211750   3.758   1.342   2.786
 3929TIP3    H111751   3.810   1.406   2.835
 3929TIP3    H211752   3.804   1.259   2.800
 3930TIP3   OH211753   6.123   2.504   1.557
 3930TIP3    H111754   6.199   2.524   1.501
 3930TIP3    H211755   6.049   2.498   1.497
 3931TIP3   OH211756   6.325   5.491   2.483
 3931TIP3    H111757   6.378   5.530   2.553
 3931TIP3    H211758   6.382   5.493   2.406
 3932TIP3   OH211759   2.545   0.752   3.779
 3932TIP3    H111760   2.572   0.766   3.689
 3932TIP3    H211761   2.449   0.761   3.778
 3933TIP3   OH211762   6.123   1.770   2.992
 3933TIP3    H111763   6.214   1.785   2.966
 3933TIP3    H211764   6.125   1.685   3.037
 3934TIP3   OH211765   1.708   0.788   1.245
 3934TIP3    H111766   1.707   0.694   1.226
 3934TIP3    H211767   1.790   0.803   1.292
 3935TIP3   OH211768   2.848   6.540   3.833
 3935TIP3    H111769   2.855   6.615   3.774
 3935TIP3    H211770   2.833   6.578   3.919
 3936TIP3   OH211771   2.426   3.534   0.967
 3936TIP3    H111772   2.384   3.518   0.882
 3936TIP3    H211773   2.502   3.588   0.946
 3937TIP3   OH211774   5.272   5.208   1.023
 3937TIP3    H111775   5.303   5.285   1.071
 3937TIP3    H211776   5.192   5.183   1.068
 3938TIP3   OH211777   1.747   5.675   1.861
 3938TIP3    H111778   1.748   5.584   1.832
 3938TIP3    H211779   1.703   5.673   1.945
 3939TIP3   OH211780   0.805   6.110   5.607
 3939TIP3    H111781   0.741   6.152   5.665
 3939TIP3    H211782   0.847   6.043   5.662
 3940TIP3   OH211783   0.896   2.372   3.591
 3940TIP3    H111784   0.889   2.280   3.565
 3940TIP3    H211785   0.805   2.400   3.604
 3941TIP3   OH211786   5.899   3.880   1.249
 3941TIP3    H111787   5.879   3.790   1.222
 3941TIP3    H211788   5.995   3.882   1.257
 3942TIP3   OH211789   6.674   6.645   2.568
 3942TIP3    H111790   6.712   6.620   2.484
 3942TIP3    H211791   6.748   6.679   2.619
 3943TIP3   OH211792   5.552   2.482   1.539
 3943TIP3    H111793   5.522   2.391   1.534
 3943TIP3    H211794   5.485   2.532   1.492
 3944TIP3   OH211795   4.239   1.354   1.835
 3944TIP3    H111796   4.191   1.389   1.760
 3944TIP3    H211797   4.225   1.260   1.831
 3945TIP3   OH211798   2.970   6.056   3.382
 3945TIP3    H111799   2.999   6.020   3.466
 3945TIP3    H211800   3.051   6.078   3.336
 3946TIP3   OH211801   3.753   0.200   3.026
 3946TIP3    H111802   3.716   0.147   3.097
 3946TIP3    H211803   3.739   0.146   2.948
 3947TIP3   OH211804   2.284   0.616   3.368
 3947TIP3    H111805   2.350   0.630   3.300
 3947TIP3    H211806   2.260   0.524   3.361
 3948TIP3   OH211807   7.168   4.692   3.005
 3948TIP3    H111808   7.106   4.683   2.933
 3948TIP3    H211809   7.123   4.655   3.080
 3949TIP3   OH211810   4.800   5.528   1.889
 3949TIP3    H111811   4.890   5.530   1.923
 3949TIP3    H211812   4.756   5.599   1.935
 3950TIP3   OH211813   4.366   3.228   4.927
 3950TIP3    H111814   4.343   3.288   4.856
 3950TIP3    H211815   4.288   3.226   4.982
 3951TIP3   OH211816   6.701   5.206   4.285
 3951TIP3    H111817   6.793   5.183   4.275
 3951TIP3    H211818   6.665   5.135   4.339
 3952TIP3   OH211819   5.577   6.321   4.452
 3952TIP3    H111820   5.551   6.304   4.361
 3952TIP3    H211821   5.499   6.358   4.493
 3953TIP3   OH211822   3.573   3.092   3.667
 3953TIP3    H111823   3.658   3.058   3.694
 3953TIP3    H211824   3.510   3.044   3.721
 3954TIP3   OH211825   2.949   1.469   4.662
 3954TIP3    H111826   2.983   1.548   4.705
 3954TIP3    H211827   3.018   1.404   4.675
 3955TIP3   OH211828   3.592   1.833   1.881
 3955TIP3    H111829   3.499   1.853   1.872
 3955TIP3    H211830   3.637   1.907   1.841
 3956TIP3   OH211831   0.954   4.597   3.131
 3956TIP3    H111832   0.949   4.502   3.142
 3956TIP3    H211833   0.882   4.631   3.184
 3957TIP3   OH211834   3.729   0.865   3.607
 3957TIP3    H111835   3.701   0.956   3.615
 3957TIP3    H211836   3.647   0.814   3.608
 3958TIP3   OH211837   4.278   2.943   2.475
 3958TIP3    H111838   4.359   2.908   2.513
 3958TIP3    H211839   4.300   3.033   2.452
 3959TIP3   OH211840   7.212   4.999   1.103
 3959TIP3    H111841   7.136   5.003   1.046
 3959TIP3    H211842   7.237   5.090   1.118
 3960TIP3   OH211843   5.974   5.832   5.787
 3960TIP3    H111844   5.883   5.839   5.815
 3960TIP3    H211845   5.998   5.742   5.806
 3961TIP3   OH211846   2.562   0.367   1.958
 3961TIP3    H111847   2.638   0.315   1.930
 3961TIP3    H211848   2.493   0.303   1.971
 3962TIP3   OH211849   4.157   1.061   5.071
 3962TIP3    H111850   4.251   1.077   5.067
 3962TIP3    H211851   4.142   1.029   5.160
 3963TIP3   OH211852   7.144   0.844   1.026
 3963TIP3    H111853   7.057   0.870   0.996
 3963TIP3    H211854   7.146   0.749   1.014
 3964TIP3   OH211855   2.341   0.065   4.428
 3964TIP3    H111856   2.292   0.037   4.351
 3964TIP3    H211857   2.277   0.063   4.500
 3965TIP3   OH211858   3.552   6.604   3.925
 3965TIP3    H111859   3.586   6.601   3.836
 3965TIP3    H211860   3.520   6.515   3.942
 3966TIP3   OH211861   2.305   2.998   4.473
 3966TIP3    H111862   2.321   2.978   4.381
 3966TIP3    H211863   2.331   2.919   4.520
 3967TIP3   OH211864   2.148   4.293   1.068
 3967TIP3    H111865   2.221   4.234   1.047
 3967TIP3    H211866   2.090   4.239   1.122
 3968TIP3   OH211867   4.501   3.054   3.464
 3968TIP3    H111868   4.450   3.011   3.396
 3968TIP3    H211869   4.589   3.016   3.457
 3969TIP3   OH211870   1.270   1.670   2.338
 3969TIP3    H111871   1.209   1.683   2.265
 3969TIP3    H211872   1.341   1.618   2.300
 3970TIP3   OH211873   0.668   5.829   3.398
 3970TIP3    H111874   0.586   5.855   3.438
 3970TIP3    H211875   0.648   5.821   3.304
 3971TIP3   OH211876   0.819   3.161   1.053
 3971TIP3    H111877   0.866   3.201   0.979
 3971TIP3    H211878   0.730   3.148   1.020
 3972TIP3   OH211879   2.706   4.021   4.690
 3972TIP3    H111880   2.619   3.990   4.664
 3972TIP3    H211881   2.752   4.035   4.607
 3973TIP3   OH211882   5.081   0.201   5.758
 3973TIP3    H111883   5.059   0.136   5.691
 3973TIP3    H211884   5.083   0.151   5.840
 3974TIP3   OH211885   1.464   2.274   2.933
 3974TIP3    H111886   1.509   2.257   3.016
 3974TIP3    H211887   1.391   2.331   2.956
 3975TIP3   OH211888   4.909   1.705   0.209
 3975TIP3    H111889   4.880   1.643   0.276
 3975TIP3    H211890   4.854   1.685   0.132
 3976TIP3   OH211891   5.616   4.810   4.046
 3976TIP3    H111892   5.671   4.839   3.974
 3976TIP3    H211893   5.631   4.716   4.052
 3977TIP3   OH211894   4.821   1.099   0.152
 3977TIP3    H111895   4.728   1.075   0.145
 3977TIP3    H211896   4.838   1.151   0.074
 3978TIP3   OH211897   6.992   4.113   5.199
 3978TIP3    H111898   7.020   4.029   5.235
 3978TIP3    H211899   6.903   4.097   5.167
 3979TIP3   OH211900   5.193   2.931   2.885
 3979TIP3    H111901   5.286   2.947   2.867
 3979TIP3    H211902   5.166   3.007   2.938
 3980TIP3   OH211903   1.077   5.820   0.367
 3980TIP3    H111904   1.038   5.888   0.423
 3980TIP3    H211905   1.131   5.869   0.305
 3981TIP3   OH211906   1.519   2.665   5.883
 3981TIP3    H111907   1.482   2.583   5.916
 3981TIP3    H211908   1.476   2.678   5.798
 3982TIP3   OH211909   6.708   6.345   2.289
 3982TIP3    H111910   6.616   6.323   2.301
 3982TIP3    H211911   6.726   6.324   2.197
 3983TIP3   OH211912   3.838   5.768   5.884
 3983TIP3    H111913   3.787   5.703   5.932
 3983TIP3    H211914   3.927   5.732   5.880
 3984TIP3   OH211915   3.359   2.874   4.611
 3984TIP3    H111916   3.365   2.927   4.531
 3984TIP3    H211917   3.449   2.870   4.644
 3985TIP3   OH211918   3.272   6.662   3.660
 3985TIP3    H111919   3.326   6.740   3.655
 3985TIP3    H211920   3.184   6.695   3.675
 3986TIP3   OH211921   3.382   2.169   4.536
 3986TIP3    H111922   3.408   2.261   4.538
 3986TIP3    H211923   3.359   2.148   4.626
 3987TIP3   OH211924   6.087   2.622   2.271
 3987TIP3    H111925   6.152   2.577   2.218
 3987TIP3    H211926   6.135   2.691   2.317
 3988TIP3   OH211927   4.152   2.661   1.795
 3988TIP3    H111928   4.076   2.615   1.830
 3988TIP3    H211929   4.116   2.717   1.726
 3989TIP3   OH211930   3.050   2.886   1.528
 3989TIP3    H111931   3.107   2.922   1.460
 3989TIP3    H211932   3.105   2.827   1.578
 3990TIP3   OH211933   6.722   2.548   5.667
 3990TIP3    H111934   6.662   2.563   5.594
 3990TIP3    H211935   6.769   2.631   5.677
 3991TIP3   OH211936   4.514   5.493   2.048
 3991TIP3    H111937   4.514   5.543   2.129
 3991TIP3    H211938   4.514   5.560   1.979
 3992TIP3   OH211939   3.066   3.763   0.459
 3992TIP3    H111940   3.076   3.719   0.374
 3992TIP3    H211941   2.976   3.745   0.484
 3993TIP3   OH211942   6.021   5.515   5.238
 3993TIP3    H111943   6.006   5.442   5.297
 3993TIP3    H211944   5.936   5.531   5.198
 3994TIP3   OH211945   3.001   0.648   5.294
 3994TIP3    H111946   3.026   0.647   5.202
 3994TIP3    H211947   3.077   0.612   5.340
 3995TIP3   OH211948   1.145   5.535   5.505
 3995TIP3    H111949   1.209   5.560   5.438
 3995TIP3    H211950   1.062   5.529   5.458
 3996TIP3   OH211951   7.147   3.431   0.475
 3996TIP3    H111952   7.211   3.389   0.533
 3996TIP3    H211953   7.065   3.384   0.491
 3997TIP3   OH211954   0.966   5.499   4.089
 3997TIP3    H111955   0.908   5.565   4.126
 3997TIP3    H211956   1.054   5.525   4.118
 3998TIP3   OH211957   5.980   3.631   1.011
 3998TIP3    H111958   6.051   3.585   1.057
 3998TIP3    H211959   5.911   3.565   1.002
 3999TIP3   OH211960   4.412   5.315   0.431
 3999TIP3    H111961   4.461   5.396   0.444
 3999TIP3    H211962   4.326   5.344   0.402
 4000TIP3   OH211963   0.081   5.549   5.841
 4000TIP3    H111964   0.035   5.633   5.841
 4000TIP3    H211965   0.076   5.519   5.750
 4001TIP3   OH211966   3.247   2.370   1.312
 4001TIP3    H111967   3.182   2.380   1.242
 4001TIP3    H211968   3.204   2.404   1.390
 4002TIP3   OH211969   6.734   0.664   3.917
 4002TIP3    H111970   6.799   0.665   3.987
 4002TIP3    H211971   6.687   0.747   3.925
 4003TIP3   OH211972   2.476   6.119   3.980
 4003TIP3    H111973   2.493   6.202   4.024
 4003TIP3    H211974   2.550   6.063   4.005
 4004TIP3   OH211975   5.289   6.013   3.483
 4004TIP3    H111976   5.310   6.048   3.397
 4004TIP3    H211977   5.220   5.949   3.468
 4005TIP3   OH211978   5.571   1.046   0.156
 4005TIP3    H111979   5.596   1.137   0.172
 4005TIP3    H211980   5.495   1.032   0.211
 4006TIP3   OH211981   1.567   2.082   1.163
 4006TIP3    H111982   1.585   2.147   1.095
 4006TIP3    H211983   1.505   2.021   1.121
 4007TIP3   OH211984   1.692   0.287   5.268
 4007TIP3    H111985   1.727   0.200   5.287
 4007TIP3    H211986   1.664   0.321   5.354
 4008TIP3   OH211987   2.471   5.796   0.045
 4008TIP3    H111988   2.408   5.848  -0.005
 4008TIP3    H211989   2.555   5.815   0.004
 4009TIP3   OH211990   2.832   6.668   5.272
 4009TIP3    H111991   2.881   6.722   5.210
 4009TIP3    H211992   2.784   6.606   5.217
 4010TIP3   OH211993   0.757   1.857   0.789
 4010TIP3    H111994   0.770   1.774   0.743
 4010TIP3    H211995   0.669   1.850   0.826
 4011TIP3   OH211996   3.342   0.767   0.834
 4011TIP3    H111997   3.330   0.859   0.813
 4011TIP3    H211998   3.357   0.764   0.928
 4012TIP3   OH211999   6.465   2.480   2.226
 4012TIP3    H112000   6.536   2.449   2.170
 4012TIP3    H212001   6.396   2.507   2.165
 4013TIP3   OH212002   2.692   2.662   1.227
 4013TIP3    H112003   2.699   2.757   1.229
 4013TIP3    H212004   2.751   2.632   1.296
 4014TIP3   OH212005   0.100   0.031   3.699
 4014TIP3    H112006   0.051   0.001   3.776
 4014TIP3    H212007   0.063   0.117   3.680
 4015TIP3   OH212008   7.014   1.791   5.737
 4015TIP3    H112009   6.943   1.734   5.768
 4015TIP3    H212010   6.970   1.861   5.690
 4016TIP3   OH212011   6.216   0.055   4.687
 4016TIP3    H112012   6.240   0.119   4.620
 4016TIP3    H212013   6.205   0.107   4.767
 4017TIP3   OH212014   1.641   1.755   1.744
 4017TIP3    H112015   1.623   1.686   1.808
 4017TIP3    H212016   1.732   1.780   1.762
 4018TIP3   OH212017   2.952   1.337   2.489
 4018TIP3    H112018   2.965   1.396   2.415
 4018TIP3    H212019   2.973   1.250   2.454
 4019TIP3   OH212020   4.609   4.274   5.531
 4019TIP3    H112021   4.524   4.302   5.567
 4019TIP3    H212022   4.599   4.283   5.436
 4020TIP3   OH212023   5.632   2.298   1.039
 4020TIP3    H112024   5.689   2.268   0.968
 4020TIP3    H212025   5.658   2.245   1.114
 4021TIP3   OH212026   0.783   1.900   2.309
 4021TIP3    H112027   0.793   1.991   2.281
 4021TIP3    H212028   0.690   1.881   2.293
 4022TIP3   OH212029   2.043   4.998   3.315
 4022TIP3    H112030   1.988   5.071   3.288
 4022TIP3    H212031   2.076   5.024   3.401
 4023TIP3   OH212032   0.531   1.116   2.073
 4023TIP3    H112033   0.612   1.073   2.101
 4023TIP3    H212034   0.518   1.187   2.135
 4024TIP3   OH212035   3.980   6.492   4.648
 4024TIP3    H112036   4.069   6.479   4.616
 4024TIP3    H212037   3.933   6.529   4.573
 4025TIP3   OH212038   1.757   4.482   5.648
 4025TIP3    H112039   1.795   4.569   5.664
 4025TIP3    H212040   1.722   4.456   5.733
 4026TIP3   OH212041   0.797   1.902   5.676
 4026TIP3    H112042   0.774   1.949   5.596
 4026TIP3    H212043   0.716   1.896   5.725
 4027TIP3   OH212044   6.347   2.648   0.974
 4027TIP3    H112045   6.270   2.651   1.031
 4027TIP3    H212046   6.343   2.561   0.933
 4028TIP3   OH212047   0.233   3.429   2.076
 4028TIP3    H112048   0.316   3.455   2.036
 4028TIP3    H212049   0.166   3.471   2.021
 4029TIP3   OH212050   3.141   0.995   4.599
 4029TIP3    H112051   3.150   0.939   4.676
 4029TIP3    H212052   3.052   0.979   4.568
 4030TIP3   OH212053   3.788   6.293   1.603
 4030TIP3    H112054   3.773   6.285   1.697
 4030TIP3    H212055   3.835   6.213   1.579
 4031TIP3   OH212056   2.714   6.178   0.122
 4031TIP3    H112057   2.722   6.177   0.027
 4031TIP3    H212058   2.787   6.232   0.152
 4032TIP3   OH212059   5.143   3.816   3.775
 4032TIP3    H112060   5.193   3.896   3.760
 4032TIP3    H212061   5.200   3.762   3.829
 4033TIP3   OH212062   2.040   1.734   3.217
 4033TIP3    H112063   2.117   1.767   3.170
 4033TIP3    H212064   1.967   1.749   3.156
 4034TIP3   OH212065   2.452   2.832   2.481
 4034TIP3    H112066   2.489   2.920   2.476
 4034TIP3    H212067   2.436   2.808   2.389
 4035TIP3   OH212068   2.100   5.640   4.212
 4035TIP3    H112069   2.169   5.654   4.147
 4035TIP3    H212070   2.035   5.707   4.193
 4036TIP3   OH212071   6.490   1.475   0.345
 4036TIP3    H112072   6.472   1.504   0.435
 4036TIP3    H212073   6.438   1.396   0.335
 4037TIP3   OH212074   0.818   1.081   1.501
 4037TIP3    H112075   0.785   1.171   1.507
 4037TIP3    H212076   0.806   1.058   1.408
 4038TIP3   OH212077   5.718   5.828   5.911
 4038TIP3    H112078   5.741   5.905   5.962
 4038TIP3    H212079   5.632   5.802   5.945
 4039TIP3   OH212080   0.173   3.534   2.442
 4039TIP3    H112081   0.154   3.468   2.374
 4039TIP3    H212082   0.099   3.529   2.502
 4040TIP3   OH212083   2.097   3.124   1.914
 4040TIP3    H112084   2.187   3.134   1.947
 4040TIP3    H212085   2.108   3.089   1.825
 4041TIP3   OH212086   7.111   4.995   0.302
 4041TIP3    H112087   7.113   4.930   0.232
 4041TIP3    H212088   7.132   5.077   0.258
 4042TIP3   OH212089   1.951   0.620   1.529
 4042TIP3    H112090   1.992   0.558   1.589
 4042TIP3    H212091   1.859   0.622   1.555
 4043TIP3   OH212092   2.346   3.380   2.795
 4043TIP3    H112093   2.315   3.459   2.840
 4043TIP3    H212094   2.441   3.384   2.801
 4044TIP3   OH212095   1.101   3.641   2.584
 4044TIP3    H112096   1.176   3.645   2.643
 4044TIP3    H212097   1.071   3.732   2.579
 4045TIP3   OH212098   4.368   1.369   0.742
 4045TIP3    H112099   4.365   1.293   0.683
 4045TIP3    H212100   4.391   1.442   0.685
 4046TIP3   OH212101   3.355   2.572   3.838
 4046TIP3    H112102   3.324   2.563   3.747
 4046TIP3    H212103   3.296   2.637   3.876
 4047TIP3   OH212104   6.406   1.582   0.919
 4047TIP3    H112105   6.337   1.640   0.953
 4047TIP3    H212106   6.471   1.642   0.883
 4048TIP3   OH212107   0.560   5.044   4.549
 4048TIP3    H112108   0.620   4.996   4.606
 4048TIP3    H212109   0.539   4.982   4.479
 4049TIP3   OH212110   6.950   4.923   0.511
 4049TIP3    H112111   6.872   4.977   0.519
 4049TIP3    H212112   7.001   4.963   0.441
 4050TIP3   OH212113   7.100   3.808   2.511
 4050TIP3    H112114   7.159   3.741   2.476
 4050TIP3    H212115   7.074   3.775   2.596
 4051TIP3   OH212116   3.074   5.179   4.966
 4051TIP3    H112117   3.148   5.122   4.943
 4051TIP3    H212118   3.115   5.263   4.985
 4052TIP3   OH212119   1.245   3.417   2.910
 4052TIP3    H112120   1.259   3.326   2.883
 4052TIP3    H212121   1.309   3.433   2.979
 4053TIP3   OH212122   2.652   5.319   5.914
 4053TIP3    H112123   2.566   5.295   5.879
 4053TIP3    H212124   2.714   5.271   5.860
 4054TIP3   OH212125   5.959   0.299   1.563
 4054TIP3    H112126   5.969   0.300   1.468
 4054TIP3    H212127   6.048   0.287   1.596
 4055TIP3   OH212128   1.547   5.619   4.078
 4055TIP3    H112129   1.629   5.651   4.116
 4055TIP3    H212130   1.496   5.698   4.061
 4056TIP3   OH212131   2.707   2.042   0.354
 4056TIP3    H112132   2.653   2.062   0.277
 4056TIP3    H212133   2.644   2.026   0.424
 4057TIP3   OH212134   5.298   0.973   0.249
 4057TIP3    H112135   5.212   0.980   0.291
 4057TIP3    H212136   5.285   1.013   0.163
 4058TIP3   OH212137   5.959   0.507   2.053
 4058TIP3    H112138   5.869   0.498   2.021
 4058TIP3    H212139   5.977   0.423   2.095
 4059TIP3   OH212140   1.026   0.395   0.374
 4059TIP3    H112141   1.000   0.312   0.335
 4059TIP3    H212142   0.962   0.409   0.444
 4060TIP3   OH212143   1.216   1.122   5.357
 4060TIP3    H112144   1.130   1.084   5.339
 4060TIP3    H212145   1.239   1.089   5.444
 4061TIP3   OH212146   0.543   1.314   3.986
 4061TIP3    H112147   0.614   1.320   4.049
 4061TIP3    H212148   0.578   1.259   3.916
 4062TIP3   OH212149   0.108   4.363   3.508
 4062TIP3    H112150   0.031   4.415   3.485
 4062TIP3    H212151   0.177   4.396   3.449
 4063TIP3   OH212152   2.261   1.376   4.668
 4063TIP3    H112153   2.237   1.311   4.602
 4063TIP3    H212154   2.233   1.337   4.751
 4064TIP3   OH212155   5.560   6.522   1.955
 4064TIP3    H112156   5.487   6.572   1.991
 4064TIP3    H212157   5.607   6.584   1.900
 4065TIP3   OH212158   3.049   4.120   3.396
 4065TIP3    H112159   3.059   4.129   3.490
 4065TIP3    H212160   2.955   4.111   3.382
 4066TIP3   OH212161   3.991   4.896   2.586
 4066TIP3    H112162   4.054   4.825   2.576
 4066TIP3    H212163   4.028   4.953   2.653
 4067TIP3   OH212164   4.485   0.404   1.248
 4067TIP3    H112165   4.402   0.432   1.210
 4067TIP3    H212166   4.469   0.314   1.277
 4068TIP3   OH212167   3.879   1.367   3.748
 4068TIP3    H112168   3.936   1.356   3.672
 4068TIP3    H212169   3.883   1.282   3.793
 4069TIP3   OH212170   0.428   4.184   5.780
 4069TIP3    H112171   0.359   4.239   5.743
 4069TIP3    H212172   0.501   4.244   5.797
 4070TIP3   OH212173   4.396   0.906   3.627
 4070TIP3    H112174   4.472   0.962   3.637
 4070TIP3    H212175   4.346   0.917   3.708
 4071TIP3   OH212176   4.828   0.306   0.373
 4071TIP3    H112177   4.886   0.229   0.379
 4071TIP3    H212178   4.741   0.272   0.394
 4072TIP3   OH212179   0.905   0.013   0.776
 4072TIP3    H112180   0.957   0.079   0.822
 4072TIP3    H212181   0.883  -0.051   0.844
 4073TIP3   OH212182   6.853   0.353   0.493
 4073TIP3    H112183   6.806   0.324   0.570
 4073TIP3    H212184   6.819   0.441   0.475
 4074TIP3   OH212185   1.561   1.727   5.518
 4074TIP3    H112186   1.569   1.775   5.435
 4074TIP3    H212187   1.488   1.769   5.563
 4075TIP3   OH212188   5.054   4.534   1.025
 4075TIP3    H112189   5.075   4.584   1.104
 4075TIP3    H212190   4.976   4.484   1.048
 4076TIP3   OH212191   4.391   5.055   3.154
 4076TIP3    H112192   4.485   5.074   3.158
 4076TIP3    H212193   4.386   4.960   3.169
 4077TIP3   OH212194   7.160   1.737   4.579
 4077TIP3    H112195   7.136   1.763   4.490
 4077TIP3    H212196   7.214   1.809   4.612
 4078TIP3   OH212197   4.192   3.516   0.918
 4078TIP3    H112198   4.270   3.572   0.920
 4078TIP3    H212199   4.149   3.538   0.835
 4079TIP3   OH212200   3.680   0.946   4.159
 4079TIP3    H112201   3.740   1.021   4.154
 4079TIP3    H212202   3.726   0.882   4.213
 4080TIP3   OH212203   5.198   4.458   0.282
 4080TIP3    H112204   5.141   4.408   0.222
 4080TIP3    H212205   5.137   4.512   0.333
 4081TIP3   OH212206   2.722   2.923   1.273
 4081TIP3    H112207   2.750   2.918   1.364
 4081TIP3    H212208   2.641   2.975   1.276
 4082TIP3   OH212209   3.419   1.328   4.237
 4082TIP3    H112210   3.436   1.239   4.207
 4082TIP3    H212211   3.505   1.360   4.264
 4083TIP3   OH212212   5.671   5.842   1.288
 4083TIP3    H112213   5.695   5.927   1.326
 4083TIP3    H212214   5.746   5.818   1.234
 4084TIP3   OH212215   2.320   0.126   4.905
 4084TIP3    H112216   2.371   0.207   4.901
 4084TIP3    H212217   2.384   0.059   4.931
 4085TIP3   OH212218   5.880   4.134   0.269
 4085TIP3    H112219   5.900   4.056   0.217
 4085TIP3    H212220   5.910   4.207   0.215
 4086TIP3   OH212221   3.908   1.233   1.805
 4086TIP3    H112222   3.959   1.156   1.780
 4086TIP3    H212223   3.885   1.218   1.897
 4087TIP3   OH212224   2.165   4.475   0.271
 4087TIP3    H112225   2.212   4.499   0.191
 4087TIP3    H212226   2.183   4.382   0.282
 4088TIP3   OH212227   6.756   3.857   3.646
 4088TIP3    H112228   6.710   3.811   3.717
 4088TIP3    H212229   6.740   3.950   3.663
 4089TIP3   OH212230   3.344   4.543   4.244
 4089TIP3    H112231   3.362   4.534   4.151
 4089TIP3    H212232   3.429   4.564   4.283
 4090TIP3   OH212233   6.415   4.164   1.271
 4090TIP3    H112234   6.407   4.207   1.357
 4090TIP3    H212235   6.335   4.189   1.224
 4091TIP3   OH212236   3.916   2.998   5.066
 4091TIP3    H112237   3.880   2.914   5.039
 4091TIP3    H212238   3.969   3.026   4.991
 4092TIP3   OH212239   4.662   6.166   3.297
 4092TIP3    H112240   4.742   6.195   3.341
 4092TIP3    H212241   4.591   6.211   3.344
 4093TIP3   OH212242   3.421   4.125   5.133
 4093TIP3    H112243   3.451   4.085   5.214
 4093TIP3    H212244   3.406   4.052   5.074
 4094TIP3   OH212245   0.338   3.827   0.220
 4094TIP3    H112246   0.323   3.919   0.242
 4094TIP3    H212247   0.362   3.786   0.304
 4095TIP3   OH212248   1.527   4.157   0.272
 4095TIP3    H112249   1.560   4.247   0.274
 4095TIP3    H212250   1.597   4.108   0.228
 4096TIP3   OH212251   0.986   1.359   4.850
 4096TIP3    H112252   1.074   1.367   4.813
 4096TIP3    H212253   0.968   1.266   4.850
 4097TIP3   OH212254   4.256   3.523   5.342
 4097TIP3    H112255   4.300   3.439   5.353
 4097TIP3    H212256   4.242   3.530   5.248
 4098TIP3   OH212257   2.356   5.064   1.570
 4098TIP3    H112258   2.423   5.095   1.630
 4098TIP3    H212259   2.280   5.119   1.588
 4099TIP3   OH212260   6.296   2.851   1.505
 4099TIP3    H112261   6.322   2.859   1.413
 4099TIP3    H212262   6.229   2.918   1.517
 4100TIP3   OH212263   3.749   3.644   2.057
 4100TIP3    H112264   3.783   3.604   1.977
 4100TIP3    H212265   3.654   3.634   2.051
 4101TIP3   OH212266   1.904   1.056   3.756
 4101TIP3    H112267   1.904   1.013   3.841
 4101TIP3    H212268   1.878   0.986   3.695
 4102TIP3   OH212269   5.809   5.206   4.775
 4102TIP3    H112270   5.807   5.296   4.808
 4102TIP3    H212271   5.890   5.200   4.725
 4103TIP3   OH212272   2.282   5.123   5.822
 4103TIP3    H112273   2.292   5.212   5.856
 4103TIP3    H212274   2.370   5.099   5.792
 4104TIP3   OH212275   1.717   5.793   2.779
 4104TIP3    H112276   1.642   5.847   2.801
 4104TIP3    H212277   1.680   5.705   2.765
 4105TIP3   OH212278   5.487   1.757   1.315
 4105TIP3    H112279   5.439   1.840   1.325
 4105TIP3    H212280   5.553   1.776   1.247
 4106TIP3   OH212281   6.249   5.673   5.437
 4106TIP3    H112282   6.293   5.688   5.520
 4106TIP3    H212283   6.206   5.588   5.447
 4107TIP3   OH212284   5.041   4.906   0.057
 4107TIP3    H112285   4.978   4.854   0.106
 4107TIP3    H212286   4.998   4.924  -0.027
 4108TIP3   OH212287   2.266   6.001   5.535
 4108TIP3    H112288   2.223   5.916   5.541
 4108TIP3    H212289   2.295   6.019   5.625
 4109TIP3   OH212290   6.885   5.991   5.070
 4109TIP3    H112291   6.851   5.904   5.092
 4109TIP3    H212292   6.822   6.026   5.007
 4110TIP3   OH212293   1.302   5.081   3.640
 4110TIP3    H112294   1.252   5.003   3.617
 4110TIP3    H212295   1.245   5.131   3.698
 4111TIP3   OH212296   4.562   0.767   0.359
 4111TIP3    H112297   4.520   0.728   0.283
 4111TIP3    H212298   4.641   0.714   0.373
 4112TIP3   OH212299   5.371   0.900   1.471
 4112TIP3    H112300   5.298   0.947   1.430
 4112TIP3    H212301   5.424   0.870   1.397
 4113TIP3   OH212302   2.214   6.112   0.718
 4113TIP3    H112303   2.276   6.067   0.777
 4113TIP3    H212304   2.222   6.065   0.635
 4114TIP3   OH212305   6.359   4.481   1.912
 4114TIP3    H112306   6.381   4.574   1.917
 4114TIP3    H212307   6.373   4.448   2.000
 4115TIP3   OH212308   4.419   1.234   1.548
 4115TIP3    H112309   4.480   1.171   1.510
 4115TIP3    H212310   4.334   1.210   1.510
 4116TIP3   OH212311   1.688   5.871   1.177
 4116TIP3    H112312   1.752   5.883   1.247
 4116TIP3    H212313   1.612   5.832   1.220
 4117TIP3   OH212314   1.681   5.428   1.036
 4117TIP3    H112315   1.674   5.463   1.125
 4117TIP3    H212316   1.705   5.336   1.048
 4118TIP3   OH212317   6.810   4.208   5.790
 4118TIP3    H112318   6.737   4.270   5.781
 4118TIP3    H212319   6.801   4.149   5.716
 4119TIP3   OH212320   2.049   0.019   0.205
 4119TIP3    H112321   2.078   0.104   0.172
 4119TIP3    H212322   2.071   0.020   0.298
 4120TIP3   OH212323   5.863   4.778   5.833
 4120TIP3    H112324   5.887   4.721   5.760
 4120TIP3    H212325   5.863   4.720   5.909
 4121TIP3   OH212326   3.495   1.251   5.422
 4121TIP3    H112327   3.539   1.293   5.348
 4121TIP3    H212328   3.418   1.209   5.384
 4122TIP3   OH212329   2.248   6.348   3.488
 4122TIP3    H112330   2.269   6.281   3.553
 4122TIP3    H212331   2.225   6.425   3.540
 4123TIP3   OH212332   2.838   3.722   0.282
 4123TIP3    H112333   2.798   3.635   0.276
 4123TIP3    H212334   2.925   3.711   0.244
 4124TIP3   OH212335   0.827   4.475   0.694
 4124TIP3    H112336   0.834   4.513   0.781
 4124TIP3    H212337   0.911   4.432   0.680
 4125TIP3   OH212338   1.923   0.283   5.061
 4125TIP3    H112339   1.915   0.345   4.988
 4125TIP3    H212340   1.836   0.280   5.100
 4126TIP3   OH212341   0.844   4.344   2.033
 4126TIP3    H112342   0.835   4.438   2.044
 4126TIP3    H212343   0.935   4.331   2.007
 4127TIP3   OH212344   1.613   3.758   2.547
 4127TIP3    H112345   1.706   3.768   2.526
 4127TIP3    H212346   1.584   3.846   2.572
 4128TIP3   OH212347   0.934   3.961   0.548
 4128TIP3    H112348   0.954   4.048   0.513
 4128TIP3    H212349   0.851   3.937   0.506
 4129TIP3   OH212350   2.776   1.660   5.370
 4129TIP3    H112351   2.748   1.569   5.364
 4129TIP3    H212352   2.764   1.683   5.462
 4130TIP3   OH212353   5.134   3.763   2.093
 4130TIP3    H112354   5.161   3.693   2.152
 4130TIP3    H212355   5.041   3.776   2.112
 4131TIP3   OH212356   4.111   0.655   3.625
 4131TIP3    H112357   4.150   0.630   3.709
 4131TIP3    H212358   4.176   0.627   3.560
 4132TIP3   OH212359   6.642   1.219   1.017
 4132TIP3    H112360   6.722   1.203   0.969
 4132TIP3    H212361   6.585   1.146   0.995
 4133TIP3   OH212362   4.267   4.048   5.413
 4133TIP3    H112363   4.173   4.046   5.398
 4133TIP3    H212364   4.302   3.983   5.353
 4134TIP3   OH212365   6.860   6.332   4.730
 4134TIP3    H112366   6.776   6.294   4.754
 4134TIP3    H212367   6.844   6.426   4.727
 4135TIP3   OH212368   4.107   1.173   4.745
 4135TIP3    H112369   4.106   1.120   4.825
 4135TIP3    H212370   4.065   1.255   4.771
 4136TIP3   OH212371   0.563   0.961   0.163
 4136TIP3    H112372   0.641   0.971   0.217
 4136TIP3    H212373   0.489   0.978   0.222
 4137TIP3   OH212374   2.370   1.102   2.385
 4137TIP3    H112375   2.353   1.020   2.432
 4137TIP3    H212376   2.326   1.091   2.301
 4138TIP3   OH212377   4.605   1.127   1.778
 4138TIP3    H112378   4.528   1.169   1.741
 4138TIP3    H212379   4.578   1.036   1.792
 4139TIP3   OH212380   2.520   3.934   4.415
 4139TIP3    H112381   2.519   3.946   4.320
 4139TIP3    H212382   2.434   3.965   4.444
 4140TIP3   OH212383   2.518   1.974   2.624
 4140TIP3    H112384   2.425   1.997   2.617
 4140TIP3    H212385   2.557   2.045   2.675
 4141TIP3   OH212386   7.034   1.885   0.504
 4141TIP3    H112387   7.122   1.920   0.517
 4141TIP3    H212388   7.006   1.918   0.419
 4142TIP3   OH212389   2.485   2.366   2.449
 4142TIP3    H112390   2.485   2.354   2.354
 4142TIP3    H212391   2.564   2.323   2.480
 4143TIP3   OH212392   3.987   4.018   2.961
 4143TIP3    H112393   4.067   4.047   2.916
 4143TIP3    H212394   3.922   4.010   2.892
 4144TIP3   OH212395   6.782   6.681   5.582
 4144TIP3    H112396   6.783   6.768   5.543
 4144TIP3    H212397   6.723   6.630   5.527
 4145TIP3   OH212398   1.974   6.702   0.807
 4145TIP3    H112399   1.880   6.717   0.822
 4145TIP3    H212400   1.976   6.645   0.729
 4146TIP3   OH212401   2.884   4.586   0.768
 4146TIP3    H112402   2.938   4.646   0.819
 4146TIP3    H212403   2.813   4.640   0.734
 4147TIP3   OH212404   4.249   1.072   1.798
 4147TIP3    H112405   4.306   1.001   1.767
 4147TIP3    H212406   4.161   1.047   1.770
 4148TIP3   OH212407   0.203   5.308   3.848
 4148TIP3    H112408   0.200   5.260   3.765
 4148TIP3    H212409   0.165   5.248   3.912
 4149TIP3   OH212410   4.173   2.465   3.809
 4149TIP3    H112411   4.208   2.546   3.846
 4149TIP3    H212412   4.239   2.437   3.745
 4150TIP3   OH212413   5.256   0.586   1.204
 4150TIP3    H112414   5.326   0.650   1.217
 4150TIP3    H212415   5.193   0.630   1.147
 4151TIP3   OH212416  -0.006   2.495   2.315
 4151TIP3    H112417   0.000   2.444   2.395
 4151TIP3    H212418   0.042   2.576   2.335
 4152TIP3   OH212419   0.429   6.600   5.317
 4152TIP3    H112420   0.491   6.529   5.338
 4152TIP3    H212421   0.368   6.600   5.391
 4153TIP3   OH212422   2.268   2.521   4.286
 4153TIP3    H112423   2.187   2.554   4.326
 4153TIP3    H212424   2.275   2.431   4.317
 4154TIP3   OH212425   4.494   5.761   1.964
 4154TIP3    H112426   4.510   5.829   1.899
 4154TIP3    H212427   4.488   5.808   2.047
 4155TIP3   OH212428   0.465   4.970   5.670
 4155TIP3    H112429   0.524   4.920   5.613
 4155TIP3    H212430   0.522   5.033   5.715
 4156TIP3   OH212431   4.629   2.214   3.603
 4156TIP3    H112432   4.540   2.249   3.609
 4156TIP3    H212433   4.631   2.144   3.668
 4157TIP3   OH212434   3.053   0.797   1.537
 4157TIP3    H112435   2.978   0.782   1.480
 4157TIP3    H212436   3.055   0.720   1.595
 4158TIP3   OH212437   5.962   0.764   5.743
 4158TIP3    H112438   6.004   0.790   5.826
 4158TIP3    H212439   5.948   0.670   5.752
 4159TIP3   OH212440   6.798   2.141   0.671
 4159TIP3    H112441   6.881   2.185   0.650
 4159TIP3    H212442   6.768   2.106   0.588
 4160TIP3   OH212443   3.337   2.643   0.167
 4160TIP3    H112444   3.428   2.651   0.196
 4160TIP3    H212445   3.305   2.733   0.164
 4161TIP3   OH212446   5.104   4.380   1.350
 4161TIP3    H112447   5.085   4.472   1.370
 4161TIP3    H212448   5.186   4.382   1.301
 4162TIP3   OH212449   2.972   0.378   4.387
 4162TIP3    H112450   2.947   0.290   4.414
 4162TIP3    H212451   2.891   0.416   4.351
 4163TIP3   OH212452   6.081   6.357   1.275
 4163TIP3    H112453   6.111   6.404   1.197
 4163TIP3    H212454   6.072   6.266   1.246
 4164TIP3   OH212455   6.298   0.975   4.498
 4164TIP3    H112456   6.225   0.914   4.512
 4164TIP3    H212457   6.311   1.016   4.584
 4165TIP3   OH212458   6.095   2.645   1.101
 4165TIP3    H112459   6.091   2.549   1.104
 4165TIP3    H212460   6.058   2.673   1.185
 4166TIP3   OH212461   2.104   0.665   0.359
 4166TIP3    H112462   2.055   0.748   0.361
 4166TIP3    H212463   2.179   0.681   0.415
 4167TIP3   OH212464   0.708   0.554   1.466
 4167TIP3    H112465   0.796   0.532   1.497
 4167TIP3    H212466   0.649   0.525   1.536
 4168TIP3   OH212467   0.213   2.875   3.960
 4168TIP3    H112468   0.156   2.944   3.927
 4168TIP3    H212469   0.153   2.810   3.995
 4169TIP3   OH212470   6.221   0.362   3.129
 4169TIP3    H112471   6.171   0.435   3.165
 4169TIP3    H212472   6.283   0.340   3.199
 4170TIP3   OH212473   3.439   1.920   4.077
 4170TIP3    H112474   3.478   1.959   3.999
 4170TIP3    H212475   3.405   1.836   4.047
 4171TIP3   OH212476   2.025   2.269   1.461
 4171TIP3    H112477   1.975   2.201   1.416
 4171TIP3    H212478   1.959   2.326   1.500
 4172TIP3   OH212479   0.281   5.405   5.380
 4172TIP3    H112480   0.346   5.376   5.316
 4172TIP3    H212481   0.320   5.383   5.465
 4173TIP3   OH212482   0.469   1.891   4.695
 4173TIP3    H112483   0.458   1.844   4.778
 4173TIP3    H212484   0.558   1.871   4.667
 4174TIP3   OH212485   0.163   1.292   0.342
 4174TIP3    H112486   0.146   1.302   0.435
 4174TIP3    H212487   0.124   1.370   0.302
 4175TIP3   OH212488   2.800   4.988   4.719
 4175TIP3    H112489   2.720   4.940   4.697
 4175TIP3    H212490   2.769   5.073   4.749
 4176TIP3   OH212491   2.516   0.641   0.295
 4176TIP3    H112492   2.448   0.583   0.328
 4176TIP3    H212493   2.496   0.726   0.335
 4177TIP3   OH212494   1.033   1.408   4.499
 4177TIP3    H112495   1.122   1.373   4.501
 4177TIP3    H212496   0.978   1.333   4.475
 4178TIP3   OH212497   1.700   4.980   4.085
 4178TIP3    H112498   1.640   5.015   4.151
 4178TIP3    H212499   1.645   4.921   4.032
 4179TIP3   OH212500   3.283   4.961   3.262
 4179TIP3    H112501   3.325   4.897   3.320
 4179TIP3    H212502   3.294   4.925   3.174
 4180TIP3   OH212503   5.349   1.365   5.655
 4180TIP3    H112504   5.380   1.414   5.579
 4180TIP3    H212505   5.277   1.418   5.690
 4181TIP3   OH212506   3.053   3.440   5.028
 4181TIP3    H112507   2.968   3.400   5.048
 4181TIP3    H212508   3.032   3.527   4.996
 4182TIP3   OH212509   3.081   3.434   5.587
 4182TIP3    H112510   3.071   3.453   5.680
 4182TIP3    H212511   3.155   3.489   5.559
 4183TIP3   OH212512   4.279   4.675   2.228
 4183TIP3    H112513   4.224   4.619   2.174
 4183TIP3    H212514   4.224   4.698   2.303
 4184TIP3   OH212515   2.037   3.144   5.694
 4184TIP3    H112516   2.128   3.120   5.675
 4184TIP3    H212517   2.003   3.072   5.746
 4185TIP3   OH212518   6.794   4.776   2.827
 4185TIP3    H112519   6.730   4.774   2.756
 4185TIP3    H212520   6.869   4.823   2.791
 4186TIP3   OH212521   6.865   0.197   4.535
 4186TIP3    H112522   6.895   0.171   4.447
 4186TIP3    H212523   6.845   0.114   4.579
 4187TIP3   OH212524   2.768   2.634   1.937
 4187TIP3    H112525   2.701   2.600   1.995
 4187TIP3    H212526   2.838   2.664   1.995
 4188TIP3   OH212527   5.025   5.511   3.031
 4188TIP3    H112528   4.964   5.585   3.033
 4188TIP3    H212529   5.065   5.514   2.945
 4189TIP3   OH212530   5.526   1.512   5.341
 4189TIP3    H112531   5.485   1.586   5.296
 4189TIP3    H212532   5.619   1.535   5.344
 4190TIP3   OH212533   5.322   0.230   0.791
 4190TIP3    H112534   5.333   0.204   0.699
 4190TIP3    H212535   5.406   0.210   0.831
 4191TIP3   OH212536   0.193   1.000   4.956
 4191TIP3    H112537   0.106   1.007   4.918
 4191TIP3    H212538   0.238   1.080   4.929
 4192TIP3   OH212539   4.635   3.656   1.074
 4192TIP3    H112540   4.724   3.687   1.086
 4192TIP3    H212541   4.628   3.579   1.130
 4193TIP3   OH212542   3.599   2.752   3.867
 4193TIP3    H112543   3.558   2.719   3.946
 4193TIP3    H212544   3.686   2.781   3.895
 4194TIP3   OH212545   6.636   0.247   3.431
 4194TIP3    H112546   6.579   0.227   3.505
 4194TIP3    H212547   6.725   0.238   3.466
 4195TIP3   OH212548   0.033   5.739   4.319
 4195TIP3    H112549  -0.019   5.802   4.369
 4195TIP3    H212550   0.098   5.707   4.381
 4196TIP3   OH212551   5.889   2.456   3.433
 4196TIP3    H112552   5.833   2.392   3.478
 4196TIP3    H212553   5.942   2.403   3.374
 4197TIP3   OH212554   6.236   6.786   4.830
 4197TIP3    H112555   6.152   6.816   4.863
 4197TIP3    H212556   6.245   6.697   4.863
 4198TIP3   OH212557   4.524   6.396   3.336
 4198TIP3    H112558   4.482   6.470   3.380
 4198TIP3    H212559   4.575   6.435   3.266
 4199TIP3   OH212560   5.108   6.618   2.202
 4199TIP3    H112561   5.038   6.625   2.267
 4199TIP3    H212562   5.086   6.539   2.151
 4200TIP3   OH212563   7.051   2.662   2.143
 4200TIP3    H112564   7.034   2.600   2.071
 4200TIP3    H212565   7.104   2.612   2.205
 4201TIP3   OH212566   0.179   0.671   0.834
 4201TIP3    H112567   0.094   0.631   0.818
 4201TIP3    H212568   0.191   0.667   0.928
 4202TIP3   OH212569   3.627   5.885   5.329
 4202TIP3    H112570   3.592   5.802   5.297
 4202TIP3    H212571   3.708   5.897   5.280
 4203TIP3   OH212572   1.394   5.460   5.840
 4203TIP3    H112573   1.415   5.391   5.903
 4203TIP3    H212574   1.417   5.421   5.755
 4204TIP3   OH212575   5.242   0.114   1.421
 4204TIP3    H112576   5.239   0.161   1.338
 4204TIP3    H212577   5.258   0.183   1.486
 4205TIP3   OH212578   5.090   4.910   1.065
 4205TIP3    H112579   5.095   4.928   0.971
 4205TIP3    H212580   5.017   4.964   1.096
 4206TIP3   OH212581   0.418   1.339   2.522
 4206TIP3    H112582   0.446   1.406   2.584
 4206TIP3    H212583   0.349   1.381   2.471
 4207TIP3   OH212584   5.002   2.565   2.238
 4207TIP3    H112585   5.031   2.656   2.239
 4207TIP3    H212586   4.978   2.546   2.328
 4208TIP3   OH212587   4.996   2.105   3.414
 4208TIP3    H112588   4.951   2.095   3.330
 4208TIP3    H212589   4.935   2.070   3.479
 4209TIP3   OH212590   2.138   5.662   3.855
 4209TIP3    H112591   2.190   5.655   3.775
 4209TIP3    H212592   2.202   5.663   3.926
 4210TIP3   OH212593   6.171   0.557   5.120
 4210TIP3    H112594   6.089   0.546   5.072
 4210TIP3    H212595   6.162   0.642   5.164
 4211TIP3   OH212596   4.980   3.070   2.758
 4211TIP3    H112597   4.908   3.007   2.756
 4211TIP3    H212598   5.055   3.019   2.787
 4212TIP3   OH212599   4.668   2.363   5.847
 4212TIP3    H112600   4.706   2.321   5.770
 4212TIP3    H212601   4.597   2.417   5.812
 4213TIP3   OH212602   4.521   2.007   5.828
 4213TIP3    H112603   4.565   2.064   5.766
 4213TIP3    H212604   4.439   2.052   5.848
 4214TIP3   OH212605   6.895   2.364   0.021
 4214TIP3    H112606   6.804   2.338   0.036
 4214TIP3    H212607   6.911   2.433   0.086
 4215TIP3   OH212608   3.055   1.983   4.049
 4215TIP3    H112609   3.022   1.893   4.045
 4215TIP3    H212610   3.150   1.974   4.038
 4216TIP3   OH212611   0.798   3.647   0.413
 4216TIP3    H112612   0.891   3.630   0.432
 4216TIP3    H212613   0.798   3.732   0.370
 4217TIP3   OH212614   1.848   3.405   0.153
 4217TIP3    H112615   1.880   3.490   0.122
 4217TIP3    H212616   1.786   3.377   0.086
 4218TIP3   OH212617   3.885   3.657   4.465
 4218TIP3    H112618   3.898   3.665   4.559
 4218TIP3    H212619   3.812   3.596   4.455
 4219TIP3   OH212620   4.301   2.364   4.449
 4219TIP3    H112621   4.289   2.425   4.521
 4219TIP3    H212622   4.345   2.415   4.381
 4220TIP3   OH212623   6.352   1.980   5.889
 4220TIP3    H112624   6.333   1.975   5.796
 4220TIP3    H212625   6.272   1.950   5.932
 4221TIP3   OH212626   4.502   5.668   4.236
 4221TIP3    H112627   4.499   5.591   4.292
 4221TIP3    H212628   4.557   5.641   4.162
 4222TIP3   OH212629   3.354   5.159   0.396
 4222TIP3    H112630   3.260   5.174   0.396
 4222TIP3    H212631   3.364   5.069   0.425
 4223TIP3   OH212632   6.265   1.962   4.638
 4223TIP3    H112633   6.313   1.917   4.708
 4223TIP3    H212634   6.330   1.977   4.570
 4224TIP3   OH212635   6.361   3.711   1.702
 4224TIP3    H112636   6.290   3.776   1.705
 4224TIP3    H212637   6.413   3.729   1.781
 4225TIP3   OH212638   3.440   0.914   5.552
 4225TIP3    H112639   3.520   0.957   5.579
 4225TIP3    H212640   3.377   0.985   5.540
 4226TIP3   OH212641   2.786   2.163   5.268
 4226TIP3    H112642   2.696   2.187   5.244
 4226TIP3    H212643   2.776   2.114   5.350
 4227TIP3   OH212644   4.813   4.393   5.635
 4227TIP3    H112645   4.752   4.338   5.585
 4227TIP3    H212646   4.875   4.425   5.569
 4228TIP3   OH212647   2.974   0.114   0.043
 4228TIP3    H112648   2.893   0.164   0.052
 4228TIP3    H212649   2.948   0.032   0.002
 4229TIP3   OH212650   1.679   0.879   5.310
 4229TIP3    H112651   1.696   0.786   5.301
 4229TIP3    H212652   1.707   0.917   5.226
 4230TIP3   OH212653   4.313   4.706   5.124
 4230TIP3    H112654   4.334   4.785   5.172
 4230TIP3    H212655   4.392   4.652   5.131
 4231TIP3   OH212656   4.125   5.378   5.681
 4231TIP3    H112657   4.070   5.307   5.648
 4231TIP3    H212658   4.124   5.443   5.610
 4232TIP3   OH212659   0.634   4.263   0.643
 4232TIP3    H112660   0.677   4.348   0.655
 4232TIP3    H212661   0.691   4.216   0.581
 4233TIP3   OH212662   0.179   4.436   3.851
 4233TIP3    H112663   0.246   4.499   3.824
 4233TIP3    H212664   0.100   4.464   3.804
 4234TIP3   OH212665   0.187   6.623   3.221
 4234TIP3    H112666   0.216   6.579   3.141
 4234TIP3    H212667   0.094   6.640   3.207
 4235TIP3   OH212668   0.159   1.314   1.232
 4235TIP3    H112669   0.209   1.232   1.223
 4235TIP3    H212670   0.068   1.285   1.242
 4236TIP3   OH212671   5.933   5.382   3.500
 4236TIP3    H112672   5.935   5.456   3.439
 4236TIP3    H212673   5.842   5.379   3.530
 4237TIP3   OH212674   4.101   6.299  -0.017
 4237TIP3    H112675   4.094   6.336   0.071
 4237TIP3    H212676   4.042   6.223  -0.016
 4238TIP3   OH212677   5.137   5.481   1.144
 4238TIP3    H112678   5.137   5.412   1.211
 4238TIP3    H212679   5.120   5.561   1.194
 4239TIP3   OH212680   2.265   6.836   4.650
 4239TIP3    H112681   2.236   6.746   4.636
 4239TIP3    H212682   2.346   6.827   4.699
 4240TIP3   OH212683   3.725   6.415   2.601
 4240TIP3    H112684   3.724   6.366   2.683
 4240TIP3    H212685   3.653   6.477   2.609
 4241TIP3   OH212686   4.723   4.679   5.473
 4241TIP3    H112687   4.751   4.703   5.562
 4241TIP3    H212688   4.629   4.660   5.483
 4242TIP3   OH212689   0.779   1.424   0.022
 4242TIP3    H112690   0.812   1.335   0.035
 4242TIP3    H212691   0.839   1.480   0.071
 4243TIP3   OH212692   2.721   1.172   0.589
 4243TIP3    H112693   2.684   1.153   0.675
 4243TIP3    H212694   2.700   1.095   0.536
 4244TIP3   OH212695   6.091   4.170   1.245
 4244TIP3    H112696   6.131   4.101   1.298
 4244TIP3    H212697   6.066   4.126   1.163
 4245TIP3   OH212698   0.956   2.550   2.086
 4245TIP3    H112699   0.941   2.644   2.093
 4245TIP3    H212700   0.996   2.525   2.169
 4246TIP3   OH212701   2.711   3.029   2.223
 4246TIP3    H112702   2.643   3.097   2.226
 4246TIP3    H212703   2.743   3.032   2.133
 4247TIP3   OH212704   2.680   4.310   3.598
 4247TIP3    H112705   2.609   4.344   3.652
 4247TIP3    H212706   2.639   4.288   3.515
 4248TIP3   OH212707   0.243   6.497   0.026
 4248TIP3    H112708   0.242   6.585   0.063
 4248TIP3    H212709   0.151   6.470   0.025
 4249TIP3   OH212710   1.941   6.395   0.262
 4249TIP3    H112711   1.857   6.411   0.305
 4249TIP3    H212712   2.001   6.375   0.334
 4250TIP3   OH212713   0.779   5.360   3.293
 4250TIP3    H112714   0.832   5.416   3.350
 4250TIP3    H212715   0.725   5.421   3.243
 4251TIP3   OH212716   1.523   0.860   0.709
 4251TIP3    H112717   1.589   0.791   0.722
 4251TIP3    H212718   1.446   0.829   0.757
 4252TIP3   OH212719   3.555   4.886   1.619
 4252TIP3    H112720   3.494   4.960   1.623
 4252TIP3    H212721   3.573   4.866   1.711
 4253TIP3   OH212722   0.168   1.016   4.472
 4253TIP3    H112723   0.219   0.938   4.496
 4253TIP3    H212724   0.088   0.981   4.431
 4254TIP3   OH212725   2.633   2.570   2.164
 4254TIP3    H112726   2.538   2.560   2.165
 4254TIP3    H212727   2.659   2.560   2.255
 4255TIP3   OH212728   5.103   3.229   5.230
 4255TIP3    H112729   5.092   3.317   5.196
 4255TIP3    H212730   5.014   3.198   5.246
 4256TIP3   OH212731   3.233   3.092   1.353
 4256TIP3    H112732   3.224   3.152   1.426
 4256TIP3    H212733   3.325   3.065   1.354
 4257TIP3   OH212734   5.730   6.657   4.263
 4257TIP3    H112735   5.797   6.725   4.269
 4257TIP3    H212736   5.764   6.585   4.317
 4258TIP3   OH212737   6.211   4.016   1.427
 4258TIP3    H112738   6.219   4.003   1.522
 4258TIP3    H212739   6.250   3.938   1.389
 4259TIP3   OH212740   2.847   5.025   2.425
 4259TIP3    H112741   2.838   5.099   2.485
 4259TIP3    H212742   2.913   5.054   2.361
 4260TIP3   OH212743   6.431   2.004   5.017
 4260TIP3    H112744   6.427   1.918   4.975
 4260TIP3    H212745   6.355   2.052   4.983
 4261TIP3   OH212746   4.341   4.820   3.301
 4261TIP3    H112747   4.247   4.824   3.289
 4261TIP3    H212748   4.357   4.870   3.382
 4262TIP3   OH212749   2.965   5.511   1.323
 4262TIP3    H112750   3.003   5.470   1.400
 4262TIP3    H212751   2.941   5.599   1.352
 4263TIP3   OH212752   2.600   0.259   4.156
 4263TIP3    H112753   2.509   0.281   4.174
 4263TIP3    H212754   2.599   0.218   4.070
 4264TIP3   OH212755   6.088   0.842   3.696
 4264TIP3    H112756   6.089   0.886   3.611
 4264TIP3    H212757   6.174   0.861   3.733
 4265TIP3   OH212758   3.116   3.170   5.156
 4265TIP3    H112759   3.108   3.251   5.106
 4265TIP3    H212760   3.134   3.199   5.246
 4266TIP3   OH212761   3.443   5.820   0.056
 4266TIP3    H112762   3.412   5.856   0.139
 4266TIP3    H212763   3.431   5.725   0.064
 4267TIP3   OH212764  -0.028   0.247   5.847
 4267TIP3    H112765  -0.085   0.308   5.894
 4267TIP3    H212766   0.058   0.288   5.850
 4268TIP3   OH212767   1.812   2.738   1.924
 4268TIP3    H112768   1.864   2.792   1.865
 4268TIP3    H212769   1.724   2.739   1.887
 4269TIP3   OH212770   4.894   4.436   2.103
 4269TIP3    H112771   4.913   4.479   2.186
 4269TIP3    H212772   4.978   4.432   2.057
 4270TIP3   OH212773   3.771   3.788   4.941
 4270TIP3    H112774   3.835   3.763   4.874
 4270TIP3    H212775   3.755   3.881   4.925
 4271TIP3   OH212776   1.607   4.249   4.614
 4271TIP3    H112777   1.645   4.280   4.532
 4271TIP3    H212778   1.665   4.284   4.682
 4272TIP3   OH212779   5.488   1.241   1.960
 4272TIP3    H112780   5.439   1.160   1.947
 4272TIP3    H212781   5.542   1.249   1.881
 4273TIP3   OH212782   5.841   3.277   1.916
 4273TIP3    H112783   5.896   3.268   1.994
 4273TIP3    H212784   5.793   3.194   1.910
 4274TIP3   OH212785   4.805   0.503   4.952
 4274TIP3    H112786   4.842   0.519   4.865
 4274TIP3    H212787   4.714   0.476   4.935
 4275TIP3   OH212788   0.625   5.134   3.320
 4275TIP3    H112789   0.665   5.215   3.352
 4275TIP3    H212790   0.610   5.151   3.227
 4276TIP3   OH212791   7.119   0.186   0.131
 4276TIP3    H112792   7.035   0.169   0.174
 4276TIP3    H212793   7.096   0.205   0.040
 4277TIP3   OH212794   2.131   0.629   4.932
 4277TIP3    H112795   2.220   0.598   4.917
 4277TIP3    H212796   2.122   0.706   4.876
 4278TIP3   OH212797   2.847   6.547   0.925
 4278TIP3    H112798   2.864   6.623   0.982
 4278TIP3    H212799   2.886   6.473   0.972
 4279TIP3   OH212800   6.260   6.189   3.528
 4279TIP3    H112801   6.201   6.178   3.453
 4279TIP3    H212802   6.326   6.252   3.498
 4280TIP3   OH212803   5.093   2.028   2.998
 4280TIP3    H112804   4.999   2.010   2.993
 4280TIP3    H212805   5.098   2.122   3.018
 4281TIP3   OH212806   4.655   1.693   0.635
 4281TIP3    H112807   4.694   1.685   0.722
 4281TIP3    H212808   4.653   1.787   0.618
 4282TIP3   OH212809   0.234   5.514   4.475
 4282TIP3    H112810   0.249   5.569   4.552
 4282TIP3    H212811   0.173   5.447   4.505
 4283TIP3   OH212812   4.844   0.647   4.731
 4283TIP3    H112813   4.891   0.698   4.665
 4283TIP3    H212814   4.837   0.707   4.806
 4284TIP3   OH212815   5.846   4.627   2.281
 4284TIP3    H112816   5.821   4.542   2.245
 4284TIP3    H212817   5.885   4.674   2.207
 4285TIP3   OH212818   3.675   6.637   1.378
 4285TIP3    H112819   3.610   6.590   1.326
 4285TIP3    H212820   3.627   6.664   1.457
 4286TIP3   OH212821   0.890   0.758   2.060
 4286TIP3    H112822   0.837   0.679   2.060
 4286TIP3    H212823   0.896   0.783   1.968
 4287TIP3   OH212824   3.330   1.334   2.070
 4287TIP3    H112825   3.241   1.329   2.036
 4287TIP3    H212826   3.320   1.328   2.165
 4288TIP3   OH212827   0.465   6.054   2.494
 4288TIP3    H112828   0.508   5.998   2.429
 4288TIP3    H212829   0.463   6.140   2.452
 4289TIP3   OH212830   2.834   2.494   2.397
 4289TIP3    H112831   2.826   2.543   2.479
 4289TIP3    H212832   2.794   2.409   2.415
 4290TIP3   OH212833   4.822   0.892   2.400
 4290TIP3    H112834   4.790   0.947   2.471
 4290TIP3    H212835   4.908   0.929   2.378
 4291TIP3   OH212836   4.665   3.316   4.329
 4291TIP3    H112837   4.728   3.388   4.337
 4291TIP3    H212838   4.633   3.303   4.419
 4292TIP3   OH212839   0.644   5.432   1.328
 4292TIP3    H112840   0.679   5.347   1.353
 4292TIP3    H212841   0.721   5.485   1.307
 4293TIP3   OH212842   3.899   3.505   3.057
 4293TIP3    H112843   3.865   3.586   3.095
 4293TIP3    H212844   3.838   3.438   3.087
 4294TIP3   OH212845   3.711   0.902   0.998
 4294TIP3    H112846   3.728   0.971   1.063
 4294TIP3    H212847   3.787   0.844   1.004
 4295TIP3   OH212848   3.847   1.934   2.562
 4295TIP3    H112849   3.806   1.849   2.545
 4295TIP3    H212850   3.845   1.943   2.658
 4296TIP3   OH212851   4.636   1.204   0.370
 4296TIP3    H112852   4.732   1.202   0.368
 4296TIP3    H212853   4.614   1.297   0.373
 4297TIP3   OH212854   1.828   1.101   3.028
 4297TIP3    H112855   1.836   1.019   2.979
 4297TIP3    H212856   1.796   1.074   3.114
 4298TIP3   OH212857   0.033   3.258   2.657
 4298TIP3    H112858   0.017   3.352   2.649
 4298TIP3    H212859   0.004   3.235   2.745
 4299TIP3   OH212860   0.163   6.881   1.729
 4299TIP3    H112861   0.198   6.834   1.653
 4299TIP3    H212862   0.103   6.818   1.770
 4300TIP3   OH212863   2.005   2.181   4.177
 4300TIP3    H112864   2.046   2.155   4.095
 4300TIP3    H212865   1.918   2.140   4.174
 4301TIP3   OH212866   6.679   0.875   3.319
 4301TIP3    H112867   6.592   0.870   3.359
 4301TIP3    H212868   6.730   0.929   3.379
 4302TIP3   OH212869   6.004   2.018   4.736
 4302TIP3    H112870   6.087   1.970   4.739
 4302TIP3    H212871   5.943   1.965   4.787
 4303TIP3   OH212872   0.670   0.136   1.081
 4303TIP3    H112873   0.713   0.067   1.132
 4303TIP3    H212874   0.663   0.210   1.141
 4304TIP3   OH212875   3.238   4.931   5.147
 4304TIP3    H112876   3.254   4.917   5.054
 4304TIP3    H212877   3.142   4.938   5.153
 4305TIP3   OH212878   0.138   4.553   1.063
 4305TIP3    H112879   0.110   4.467   1.033
 4305TIP3    H212880   0.177   4.594   0.985
 4306TIP3   OH212881   1.835   1.386   2.107
 4306TIP3    H112882   1.820   1.473   2.143
 4306TIP3    H212883   1.838   1.400   2.012
 4307TIP3   OH212884   0.456   0.965   4.416
 4307TIP3    H112885   0.443   1.059   4.428
 4307TIP3    H212886   0.525   0.959   4.350
 4308TIP3   OH212887   0.573   2.655   3.722
 4308TIP3    H112888   0.650   2.650   3.779
 4308TIP3    H212889   0.582   2.581   3.662
 4309TIP3   OH212890   0.293   0.549   3.546
 4309TIP3    H112891   0.322   0.630   3.504
 4309TIP3    H212892   0.246   0.502   3.478
 4310TIP3   OH212893   3.902   5.081   4.687
 4310TIP3    H112894   3.985   5.129   4.679
 4310TIP3    H212895   3.928   4.990   4.698
 4311TIP3   OH212896   5.846   2.898   0.291
 4311TIP3    H112897   5.824   2.807   0.270
 4311TIP3    H212898   5.778   2.926   0.352
 4312TIP3   OH212899   3.996   4.312   5.427
 4312TIP3    H112900   3.980   4.270   5.512
 4312TIP3    H212901   3.912   4.309   5.383
 4313TIP3   OH212902   6.012   1.782   1.569
 4313TIP3    H112903   5.941   1.725   1.542
 4313TIP3    H212904   6.004   1.787   1.664
 4314TIP3   OH212905   5.521   1.278   4.619
 4314TIP3    H112906   5.610   1.297   4.647
 4314TIP3    H212907   5.471   1.357   4.640
 4315TIP3   OH212908   6.684   4.027   2.355
 4315TIP3    H112909   6.630   3.958   2.315
 4315TIP3    H212910   6.716   4.078   2.281
 4316TIP3   OH212911   5.217   5.044   3.216
 4316TIP3    H112912   5.206   4.949   3.220
 4316TIP3    H212913   5.248   5.061   3.126
 4317TIP3   OH212914   2.726   5.241   1.076
 4317TIP3    H112915   2.722   5.199   1.162
 4317TIP3    H212916   2.780   5.183   1.023
 4318TIP3   OH212917   0.200   6.113   5.586
 4318TIP3    H112918   0.194   6.208   5.595
 4318TIP3    H212919   0.145   6.092   5.511
 4319TIP3   OH212920   4.709   4.755   1.685
 4319TIP3    H112921   4.753   4.722   1.607
 4319TIP3    H212922   4.752   4.839   1.702
 4320TIP3   OH212923   2.302   1.447   3.099
 4320TIP3    H112924   2.331   1.535   3.123
 4320TIP3    H212925   2.336   1.390   3.169
 4321TIP3   OH212926   3.565   1.034   0.463
 4321TIP3    H112927   3.497   1.064   0.523
 4321TIP3    H212928   3.638   1.095   0.476
 4322TIP3   OH212929   6.811   1.139   2.898
 4322TIP3    H112930   6.867   1.164   2.972
 4322TIP3    H212931   6.746   1.081   2.937
 4323TIP3   OH212932   6.391   0.715   2.635
 4323TIP3    H112933   6.309   0.721   2.585
 4323TIP3    H212934   6.383   0.633   2.683
 4324TIP3   OH212935   4.578   1.474   0.283
 4324TIP3    H112936   4.522   1.549   0.302
 4324TIP3    H212937   4.531   1.427   0.213
 4325TIP3   OH212938   2.972   5.727   0.341
 4325TIP3    H112939   2.981   5.785   0.265
 4325TIP3    H212940   2.878   5.726   0.360
 4326TIP3   OH212941   4.907   2.840   4.395
 4326TIP3    H112942   4.894   2.903   4.324
 4326TIP3    H212943   4.934   2.893   4.469
 4327TIP3   OH212944   4.474   5.597   1.641
 4327TIP3    H112945   4.446   5.605   1.549
 4327TIP3    H212946   4.510   5.509   1.647
 4328TIP3   OH212947   0.375   1.078   5.367
 4328TIP3    H112948   0.318   1.029   5.307
 4328TIP3    H212949   0.366   1.033   5.451
 4329TIP3   OH212950   1.257   6.311   3.061
 4329TIP3    H112951   1.161   6.312   3.064
 4329TIP3    H212952   1.282   6.403   3.070
 4330TIP3   OH212953   4.783   0.381   1.705
 4330TIP3    H112954   4.844   0.452   1.723
 4330TIP3    H212955   4.698   0.424   1.691
 4331TIP3   OH212956   6.041   3.331   0.845
 4331TIP3    H112957   5.954   3.358   0.875
 4331TIP3    H212958   6.058   3.249   0.892
 4332TIP3   OH212959   1.453   6.740   4.758
 4332TIP3    H112960   1.479   6.670   4.817
 4332TIP3    H212961   1.463   6.703   4.671
 4333TIP3   OH212962   3.913   4.596   4.442
 4333TIP3    H112963   3.995   4.553   4.419
 4333TIP3    H212964   3.939   4.673   4.492
 4334TIP3   OH212965   0.925   0.213   5.499
 4334TIP3    H112966   0.997   0.264   5.461
 4334TIP3    H212967   0.903   0.149   5.431
 4335TIP3   OH212968   4.377   5.550   2.891
 4335TIP3    H112969   4.395   5.485   2.959
 4335TIP3    H212970   4.452   5.546   2.833
 4336TIP3   OH212971   5.628   2.389   0.659
 4336TIP3    H112972   5.570   2.433   0.596
 4336TIP3    H212973   5.621   2.296   0.637
 4337TIP3   OH212974   0.488   5.718   2.901
 4337TIP3    H112975   0.424   5.716   2.830
 4337TIP3    H212976   0.452   5.780   2.965
 4338TIP3   OH212977   0.294   4.551   2.613
 4338TIP3    H112978   0.278   4.464   2.650
 4338TIP3    H212979   0.223   4.605   2.645
 4339TIP3   OH212980   1.054   6.659   0.435
 4339TIP3    H112981   1.086   6.618   0.516
 4339TIP3    H212982   1.038   6.585   0.376
 4340TIP3   OH212983   4.806   4.352   1.038
 4340TIP3    H112984   4.836   4.292   0.970
 4340TIP3    H212985   4.720   4.382   1.008
 4341TIP3   OH212986   3.750   1.097   1.191
 4341TIP3    H112987   3.704   1.180   1.175
 4341TIP3    H212988   3.839   1.123   1.214
 4342TIP3   OH212989   2.668   3.041   2.599
 4342TIP3    H112990   2.594   3.076   2.549
 4342TIP3    H212991   2.711   2.980   2.539
 4343TIP3   OH212992   5.897   1.322   5.567
 4343TIP3    H112993   5.938   1.403   5.599
 4343TIP3    H212994   5.811   1.321   5.610
 4344TIP3   OH212995   5.870   6.431   3.321
 4344TIP3    H112996   5.817   6.509   3.306
 4344TIP3    H212997   5.846   6.402   3.410
 4345TIP3   OH212998   5.678   6.626   0.568
 4345TIP3    H112999   5.760   6.580   0.583
 4345TIP3    H213000   5.679   6.698   0.632
 4346TIP3   OH213001   3.393   2.934   3.797
 4346TIP3    H113002   3.306   2.933   3.837
 4346TIP3    H213003   3.443   2.868   3.846
 4347TIP3   OH213004   3.476   4.911   0.318
 4347TIP3    H113005   3.455   4.829   0.273
 4347TIP3    H213006   3.563   4.934   0.287
 4348TIP3   OH213007   3.115   0.235   4.883
 4348TIP3    H113008   3.133   0.317   4.930
 4348TIP3    H213009   3.173   0.237   4.807
 4349TIP3   OH213010   5.686   5.431   2.751
 4349TIP3    H113011   5.777   5.418   2.726
 4349TIP3    H213012   5.652   5.495   2.689
 4350TIP3   OH213013   3.034   2.009   4.876
 4350TIP3    H113014   2.953   2.031   4.829
 4350TIP3    H213015   3.005   1.954   4.949
 4351TIP3   OH213016   4.255   6.432   5.287
 4351TIP3    H113017   4.200   6.362   5.251
 4351TIP3    H213018   4.263   6.495   5.215
 4352TIP3   OH213019   2.848   2.557   1.030
 4352TIP3    H113020   2.804   2.472   1.028
 4352TIP3    H213021   2.791   2.612   1.084
 4353TIP3   OH213022   6.979   6.006   0.417
 4353TIP3    H113023   6.941   6.026   0.332
 4353TIP3    H213024   7.059   5.958   0.396
 4354TIP3   OH213025   3.886   6.427   3.440
 4354TIP3    H113026   3.832   6.467   3.372
 4354TIP3    H213027   3.866   6.334   3.437
 4355TIP3   OH213028   4.910   3.465   3.927
 4355TIP3    H113029   4.912   3.490   3.835
 4355TIP3    H213030   4.824   3.423   3.938
 4356TIP3   OH213031   0.613   6.727   2.501
 4356TIP3    H113032   0.668   6.754   2.427
 4356TIP3    H213033   0.583   6.639   2.478
 4357TIP3   OH213034   2.828   2.012   5.500
 4357TIP3    H113035   2.806   2.058   5.581
 4357TIP3    H213036   2.785   1.926   5.508
 4358TIP3   OH213037   2.797   6.628   2.415
 4358TIP3    H113038   2.770   6.626   2.507
 4358TIP3    H213039   2.842   6.712   2.405
 4359TIP3   OH213040   3.859   0.493   3.289
 4359TIP3    H113041   3.770   0.466   3.265
 4359TIP3    H213042   3.849   0.537   3.373
 4360TIP3   OH213043   1.573   1.854   3.493
 4360TIP3    H113044   1.610   1.769   3.471
 4360TIP3    H213045   1.650   1.908   3.515
 4361TIP3   OH213046   2.942   2.640   2.197
 4361TIP3    H113047   2.914   2.597   2.278
 4361TIP3    H213048   3.037   2.641   2.202
 4362TIP3   OH213049   2.718   2.927   1.940
 4362TIP3    H113050   2.788   2.972   1.892
 4362TIP3    H213051   2.740   2.834   1.931
 4363TIP3   OH213052   1.980   1.029   2.272
 4363TIP3    H113053   2.075   1.038   2.278
 4363TIP3    H213054   1.960   1.044   2.179
 4364TIP3   OH213055   6.392   6.864   3.292
 4364TIP3    H113056   6.358   6.815   3.217
 4364TIP3    H213057   6.374   6.807   3.367
 4365TIP3   OH213058   3.709   0.982   2.913
 4365TIP3    H113059   3.698   0.894   2.878
 4365TIP3    H213060   3.765   1.027   2.849
 4366TIP3   OH213061   4.712   2.059   1.276
 4366TIP3    H113062   4.719   2.066   1.372
 4366TIP3    H213063   4.799   2.082   1.244
 4367TIP3   OH213064   3.922   2.880   4.254
 4367TIP3    H113065   3.926   2.887   4.350
 4367TIP3    H213066   4.013   2.884   4.226
 4368TIP3   OH213067   2.318   3.657   2.901
 4368TIP3    H113068   2.340   3.651   2.994
 4368TIP3    H213069   2.398   3.689   2.859
 4369TIP3   OH213070   5.146   6.075   0.097
 4369TIP3    H113071   5.087   6.150   0.086
 4369TIP3    H213072   5.165   6.074   0.191
 4370TIP3   OH213073   3.438   5.846   2.175
 4370TIP3    H113074   3.422   5.786   2.248
 4370TIP3    H213075   3.463   5.790   2.102
 4371TIP3   OH213076   1.565   6.450   1.378
 4371TIP3    H113077   1.606   6.491   1.454
 4371TIP3    H213078   1.622   6.376   1.358
 4372TIP3   OH213079   5.873   4.251   4.197
 4372TIP3    H113080   5.945   4.278   4.140
 4372TIP3    H213081   5.909   4.178   4.248
 4373TIP3   OH213082   0.701   6.219   0.218
 4373TIP3    H113083   0.673   6.128   0.224
 4373TIP3    H213084   0.736   6.228   0.129
 4374TIP3   OH213085   0.084   3.262   0.617
 4374TIP3    H113086   0.063   3.258   0.710
 4374TIP3    H213087   0.180   3.259   0.615
 4375TIP3   OH213088   2.554   0.596   4.022
 4375TIP3    H113089   2.614   0.527   3.995
 4375TIP3    H213090   2.541   0.649   3.943
 4376TIP3   OH213091   6.780   3.478   2.700
 4376TIP3    H113092   6.815   3.425   2.772
 4376TIP3    H213093   6.856   3.522   2.663
 4377TIP3   OH213094   6.834   3.895   0.772
 4377TIP3    H113095   6.804   3.882   0.682
 4377TIP3    H213096   6.882   3.815   0.793
 4378TIP3   OH213097   5.827   3.465   2.662
 4378TIP3    H113098   5.921   3.462   2.679
 4378TIP3    H213099   5.808   3.557   2.646
 4379TIP3   OH213100   6.595   3.646   4.692
 4379TIP3    H113101   6.620   3.553   4.690
 4379TIP3    H213102   6.551   3.660   4.608
 4380TIP3   OH213103   5.800   6.046   0.780
 4380TIP3    H113104   5.828   6.092   0.701
 4380TIP3    H213105   5.862   6.074   0.848
 4381TIP3   OH213106   2.399   5.080   0.325
 4381TIP3    H113107   2.369   5.126   0.404
 4381TIP3    H213108   2.363   5.131   0.253
 4382TIP3   OH213109   3.535   3.375   5.870
 4382TIP3    H113110   3.519   3.460   5.829
 4382TIP3    H213111   3.454   3.326   5.857
 4383TIP3   OH213112   1.950   0.897   5.008
 4383TIP3    H113113   2.044   0.877   5.015
 4383TIP3    H213114   1.947   0.990   4.986
 4384TIP3   OH213115   1.089   3.399   4.194
 4384TIP3    H113116   1.163   3.457   4.179
 4384TIP3    H213117   1.122   3.312   4.170
 4385TIP3   OH213118   6.175   3.944   1.075
 4385TIP3    H113119   6.163   3.871   1.014
 4385TIP3    H213120   6.124   4.015   1.038
 4386TIP3   OH213121   3.419   4.175   1.536
 4386TIP3    H113122   3.461   4.142   1.615
 4386TIP3    H213123   3.488   4.177   1.470
 4387TIP3   OH213124   5.929   6.421   5.680
 4387TIP3    H113125   5.974   6.337   5.682
 4387TIP3    H213126   5.966   6.467   5.605
 4388TIP3   OH213127   3.590   6.268   5.384
 4388TIP3    H113128   3.643   6.217   5.445
 4388TIP3    H213129   3.542   6.203   5.333
 4389TIP3   OH213130   0.703   4.980   5.086
 4389TIP3    H113131   0.795   4.995   5.067
 4389TIP3    H213132   0.672   5.064   5.122
 4390TIP3   OH213133   6.003   0.377   1.296
 4390TIP3    H113134   6.025   0.462   1.258
 4390TIP3    H213135   5.924   0.350   1.250
 4391TIP3   OH213136   1.402   4.791   3.459
 4391TIP3    H113137   1.337   4.775   3.528
 4391TIP3    H213138   1.485   4.799   3.506
 4392TIP3   OH213139   2.491   2.680   0.872
 4392TIP3    H113140   2.409   2.691   0.920
 4392TIP3    H213141   2.467   2.696   0.780
 4393TIP3   OH213142   5.012   4.854   0.690
 4393TIP3    H113143   4.952   4.784   0.719
 4393TIP3    H213144   4.988   4.929   0.743
 4394TIP3   OH213145   3.863   2.485   4.581
 4394TIP3    H113146   3.839   2.478   4.488
 4394TIP3    H213147   3.858   2.579   4.600
 4395TIP3   OH213148   6.960   0.724   1.267
 4395TIP3    H113149   6.963   0.818   1.286
 4395TIP3    H213150   6.967   0.719   1.171
 4396TIP3   OH213151   2.913   0.624   2.210
 4396TIP3    H113152   2.980   0.692   2.213
 4396TIP3    H213153   2.887   0.619   2.118
 4397TIP3   OH213154   3.305   0.989   3.204
 4397TIP3    H113155   3.377   0.952   3.152
 4397TIP3    H213156   3.237   0.921   3.202
 4398TIP3   OH213157   1.360   2.804   2.837
 4398TIP3    H113158   1.374   2.709   2.835
 4398TIP3    H213159   1.356   2.826   2.931
 4399TIP3   OH213160   1.449   3.216   3.759
 4399TIP3    H113161   1.478   3.178   3.842
 4399TIP3    H213162   1.527   3.217   3.704
 4400TIP3   OH213163   1.904   3.760   5.070
 4400TIP3    H113164   1.815   3.792   5.085
 4400TIP3    H213165   1.932   3.725   5.154
 4401TIP3   OH213166   0.668   3.655   1.550
 4401TIP3    H113167   0.643   3.572   1.591
 4401TIP3    H213168   0.715   3.702   1.619
 4402TIP3   OH213169   0.319   1.943   0.944
 4402TIP3    H113170   0.361   1.971   1.026
 4402TIP3    H213171   0.378   1.975   0.876
 4403TIP3   OH213172   1.068   0.797   1.786
 4403TIP3    H113173   1.127   0.843   1.846
 4403TIP3    H213174   1.116   0.794   1.703
 4404TIP3   OH213175   0.441   0.891   4.980
 4404TIP3    H113176   0.467   0.829   4.913
 4404TIP3    H213177   0.346   0.901   4.969
 4405TIP3   OH213178   1.562   3.574   4.412
 4405TIP3    H113179   1.478   3.546   4.376
 4405TIP3    H213180   1.542   3.600   4.502
 4406TIP3   OH213181   4.301   5.574   4.453
 4406TIP3    H113182   4.216   5.552   4.491
 4406TIP3    H213183   4.280   5.627   4.376
 4407TIP3   OH213184   6.193   2.764   1.728
 4407TIP3    H113185   6.247   2.785   1.651
 4407TIP3    H213186   6.240   2.802   1.802
 4408TIP3   OH213187   1.654   3.266   3.553
 4408TIP3    H113188   1.664   3.215   3.473
 4408TIP3    H213189   1.681   3.355   3.530
 4409TIP3   OH213190   7.075   1.015   4.353
 4409TIP3    H113191   7.039   0.951   4.291
 4409TIP3    H213192   7.112   1.084   4.297
 4410TIP3   OH213193   6.974   6.536   4.034
 4410TIP3    H113194   6.898   6.515   3.981
 4410TIP3    H213195   7.048   6.499   3.986
 4411TIP3   OH213196   4.343   6.011   3.583
 4411TIP3    H113197   4.325   5.960   3.504
 4411TIP3    H213198   4.438   6.008   3.592
 4412TIP3   OH213199   2.138   0.667   1.871
 4412TIP3    H113200   2.069   0.667   1.805
 4412TIP3    H213201   2.219   0.678   1.821
 4413TIP3   OH213202   2.956   6.711   1.853
 4413TIP3    H113203   2.876   6.728   1.803
 4413TIP3    H213204   3.002   6.645   1.802
 4414TIP3   OH213205   2.136   2.860   3.586
 4414TIP3    H113206   2.161   2.884   3.497
 4414TIP3    H213207   2.218   2.865   3.636
 4415TIP3   OH213208   2.379   4.370   1.395
 4415TIP3    H113209   2.453   4.403   1.344
 4415TIP3    H213210   2.381   4.275   1.383
 4416TIP3   OH213211   2.203   4.211   0.327
 4416TIP3    H113212   2.273   4.149   0.346
 4416TIP3    H213213   2.164   4.231   0.413
 4417TIP3   OH213214   1.280   3.541   0.653
 4417TIP3    H113215   1.317   3.628   0.640
 4417TIP3    H213216   1.254   3.513   0.566
 4418TIP3   OH213217   6.035   1.689   2.540
 4418TIP3    H113218   6.040   1.748   2.615
 4418TIP3    H213219   5.985   1.737   2.474
 4419TIP3   OH213220   4.395   0.064   3.395
 4419TIP3    H113221   4.376   0.133   3.458
 4419TIP3    H213222   4.488   0.044   3.408
 4420TIP3   OH213223   0.267   1.720   0.582
 4420TIP3    H113224   0.285   1.682   0.668
 4420TIP3    H213225   0.351   1.715   0.536
 4421TIP3   OH213226   6.849   5.908   1.200
 4421TIP3    H113227   6.895   5.991   1.190
 4421TIP3    H213228   6.786   5.907   1.128
 4422TIP3   OH213229   4.010   5.851   0.664
 4422TIP3    H113230   3.990   5.791   0.736
 4422TIP3    H213231   4.048   5.796   0.596
 4423TIP3   OH213232   5.264   1.562   3.479
 4423TIP3    H113233   5.194   1.543   3.541
 4423TIP3    H213234   5.251   1.500   3.408
 4424TIP3   OH213235   1.004   0.656   5.793
 4424TIP3    H113236   1.008   0.598   5.869
 4424TIP3    H213237   1.064   0.727   5.814
 4425TIP3   OH213238   1.276   6.536   2.316
 4425TIP3    H113239   1.211   6.607   2.317
 4425TIP3    H213240   1.287   6.515   2.223
 4426TIP3   OH213241   1.871   4.319   1.980
 4426TIP3    H113242   1.911   4.249   2.031
 4426TIP3    H213243   1.942   4.350   1.924
 4427TIP3   OH213244   2.800   5.841   4.827
 4427TIP3    H113245   2.754   5.855   4.910
 4427TIP3    H213246   2.858   5.767   4.844
 4428TIP3   OH213247   2.528   0.332   1.342
 4428TIP3    H113248   2.483   0.295   1.266
 4428TIP3    H213249   2.571   0.410   1.309
 4429TIP3   OH213250   6.850   3.965   0.181
 4429TIP3    H113251   6.886   4.046   0.145
 4429TIP3    H213252   6.879   3.897   0.120
 4430TIP3   OH213253   5.650   4.795   5.552
 4430TIP3    H113254   5.712   4.819   5.483
 4430TIP3    H213255   5.565   4.825   5.521
 4431TIP3   OH213256   0.496   2.762   1.210
 4431TIP3    H113257   0.533   2.701   1.275
 4431TIP3    H213258   0.553   2.838   1.214
 4432TIP3   OH213259   2.400   0.670   4.967
 4432TIP3    H113260   2.427   0.639   5.054
 4432TIP3    H213261   2.470   0.731   4.940
 4433TIP3   OH213262   1.689   5.774   0.543
 4433TIP3    H113263   1.716   5.837   0.476
 4433TIP3    H213264   1.662   5.697   0.493
 4434TIP3   OH213265   4.582   1.018   5.320
 4434TIP3    H113266   4.613   0.931   5.296
 4434TIP3    H213267   4.640   1.045   5.391
 4435TIP3   OH213268   6.885   5.144   5.119
 4435TIP3    H113269   6.819   5.202   5.157
 4435TIP3    H213270   6.837   5.066   5.094
 4436TIP3   OH213271   7.194   5.605   4.616
 4436TIP3    H113272   7.150   5.539   4.561
 4436TIP3    H213273   7.241   5.554   4.681
 4437TIP3   OH213274   1.639   1.888   5.314
 4437TIP3    H113275   1.674   1.861   5.229
 4437TIP3    H213276   1.562   1.941   5.293
 4438TIP3   OH213277   6.912   3.280   0.473
 4438TIP3    H113278   6.856   3.217   0.427
 4438TIP3    H213279   6.902   3.258   0.566
 4439TIP3   OH213280   5.021   4.108   2.887
 4439TIP3    H113281   5.008   4.188   2.938
 4439TIP3    H213282   5.040   4.040   2.952
 4440TIP3   OH213283   6.242   6.296   2.997
 4440TIP3    H113284   6.233   6.209   2.957
 4440TIP3    H213285   6.279   6.350   2.927
 4441TIP3   OH213286   6.199   5.906   4.465
 4441TIP3    H113287   6.114   5.904   4.510
 4441TIP3    H213288   6.253   5.842   4.512
 4442TIP3   OH213289   6.281   0.048   3.735
 4442TIP3    H113290   6.347  -0.007   3.777
 4442TIP3    H213291   6.232   0.086   3.807
 4443TIP3   OH213292   6.486   6.734   2.367
 4443TIP3    H113293   6.430   6.657   2.382
 4443TIP3    H213294   6.545   6.736   2.442
 4444TIP3   OH213295   0.410   3.572   5.308
 4444TIP3    H113296   0.417   3.666   5.319
 4444TIP3    H213297   0.355   3.561   5.230
 4445TIP3   OH213298   1.119   2.872   4.462
 4445TIP3    H113299   1.092   2.936   4.396
 4445TIP3    H213300   1.213   2.888   4.473
 4446TIP3   OH213301   2.207   3.741   0.341
 4446TIP3    H113302   2.159   3.762   0.421
 4446TIP3    H213303   2.235   3.650   0.354
 4447TIP3   OH213304   1.851   4.082   3.477
 4447TIP3    H113305   1.897   3.998   3.474
 4447TIP3    H213306   1.776   4.066   3.536
 4448TIP3   OH213307   6.134   6.259   2.214
 4448TIP3    H113308   6.197   6.197   2.179
 4448TIP3    H213309   6.094   6.214   2.288
 4449TIP3   OH213310   0.632   2.207   4.531
 4449TIP3    H113311   0.618   2.125   4.483
 4449TIP3    H213312   0.653   2.179   4.620
 4450TIP3   OH213313   0.672   1.275   2.479
 4450TIP3    H113314   0.719   1.332   2.417
 4450TIP3    H213315   0.582   1.305   2.476
 4451TIP3   OH213316   7.197   4.265   5.293
 4451TIP3    H113317   7.171   4.348   5.254
 4451TIP3    H213318   7.120   4.209   5.285
 4452TIP3   OH213319   2.572   6.522   1.193
 4452TIP3    H113320   2.602   6.440   1.153
 4452TIP3    H213321   2.534   6.495   1.277
 4453TIP3   OH213322   3.551   3.876   5.545
 4453TIP3    H113323   3.601   3.860   5.625
 4453TIP3    H213324   3.543   3.790   5.504
 4454TIP3   OH213325   5.541   3.647   2.140
 4454TIP3    H113326   5.486   3.570   2.126
 4454TIP3    H213327   5.564   3.676   2.052
 4455TIP3   OH213328   5.615   1.803   3.317
 4455TIP3    H113329   5.568   1.773   3.395
 4455TIP3    H213330   5.588   1.894   3.306
 4456TIP3   OH213331   5.357   1.768   0.680
 4456TIP3    H113332   5.440   1.788   0.723
 4456TIP3    H213333   5.364   1.810   0.594
 4457TIP3   OH213334   5.082   5.455   4.632
 4457TIP3    H113335   5.060   5.491   4.718
 4457TIP3    H213336   5.177   5.460   4.627
 4458TIP3   OH213337   1.749   6.478   4.175
 4458TIP3    H113338   1.699   6.529   4.240
 4458TIP3    H213339   1.683   6.448   4.113
 4459TIP3   OH213340   4.404   1.746   4.553
 4459TIP3    H113341   4.325   1.784   4.514
 4459TIP3    H213342   4.457   1.718   4.479
 4460TIP3   OH213343   3.658   2.707   3.192
 4460TIP3    H113344   3.738   2.744   3.229
 4460TIP3    H213345   3.608   2.677   3.268
 4461TIP3   OH213346   2.077   5.368   5.611
 4461TIP3    H113347   2.008   5.303   5.601
 4461TIP3    H213348   2.158   5.322   5.587
 4462TIP3   OH213349   0.894   1.813   1.634
 4462TIP3    H113350   0.943   1.895   1.633
 4462TIP3    H213351   0.920   1.770   1.715
 4463TIP3   OH213352   1.337   4.068   1.185
 4463TIP3    H113353   1.266   4.119   1.224
 4463TIP3    H213354   1.352   4.108   1.100
 4464TIP3   OH213355   0.202   3.477   0.102
 4464TIP3    H113356   0.140   3.496   0.172
 4464TIP3    H213357   0.280   3.444   0.147
 4465TIP3   OH213358   5.909   2.738   4.154
 4465TIP3    H113359   5.832   2.721   4.210
 4465TIP3    H213360   5.873   2.750   4.067
 4466TIP3   OH213361   5.356   5.315   4.557
 4466TIP3    H113362   5.317   5.376   4.494
 4466TIP3    H213363   5.376   5.237   4.505
 4467TIP3   OH213364   2.161   0.106   5.253
 4467TIP3    H113365   2.245   0.130   5.213
 4467TIP3    H213366   2.116   0.055   5.186
 4468TIP3   OH213367   6.750   0.329   5.724
 4468TIP3    H113368   6.773   0.236   5.726
 4468TIP3    H213369   6.814   0.368   5.664
 4469TIP3   OH213370   0.413   0.687   1.797
 4469TIP3    H113371   0.487   0.713   1.852
 4469TIP3    H213372   0.371   0.616   1.846
 4470TIP3   OH213373   5.740   3.571   4.528
 4470TIP3    H113374   5.667   3.561   4.466
 4470TIP3    H213375   5.761   3.482   4.555
 4471TIP3   OH213376   5.191   0.265   4.759
 4471TIP3    H113377   5.280   0.251   4.790
 4471TIP3    H213378   5.144   0.300   4.835
 4472TIP3   OH213379   0.387   1.886   2.972
 4472TIP3    H113380   0.348   1.838   3.044
 4472TIP3    H213381   0.480   1.862   2.974
 4473TIP3   OH213382   6.567   5.623   0.830
 4473TIP3    H113383   6.494   5.561   0.823
 4473TIP3    H213384   6.577   5.658   0.741
 4474TIP3   OH213385   1.848   0.698   4.292
 4474TIP3    H113386   1.879   0.628   4.349
 4474TIP3    H213387   1.759   0.716   4.322
 4475TIP3   OH213388   4.477   2.535   0.587
 4475TIP3    H113389   4.448   2.462   0.641
 4475TIP3    H213390   4.440   2.517   0.501
 4476TIP3   OH213391   5.114   2.838   2.443
 4476TIP3    H113392   5.200   2.853   2.483
 4476TIP3    H213393   5.134   2.799   2.358
 4477TIP3   OH213394   5.774   1.130   4.480
 4477TIP3    H113395   5.865   1.139   4.453
 4477TIP3    H213396   5.773   1.162   4.571
 4478TIP3   OH213397   6.599   4.367   0.437
 4478TIP3    H113398   6.689   4.336   0.433
 4478TIP3    H213399   6.574   4.382   0.346
 4479TIP3   OH213400   3.979   3.748   4.774
 4479TIP3    H113401   4.056   3.696   4.796
 4479TIP3    H213402   3.997   3.834   4.814
 4480TIP3   OH213403   4.518   1.394   1.980
 4480TIP3    H113404   4.585   1.376   1.914
 4480TIP3    H213405   4.511   1.313   2.029
 4481TIP3   OH213406   4.334   5.291   2.241
 4481TIP3    H113407   4.271   5.221   2.228
 4481TIP3    H213408   4.322   5.317   2.332
 4482TIP3   OH213409   3.434   1.363   1.743
 4482TIP3    H113410   3.497   1.433   1.727
 4482TIP3    H213411   3.479   1.302   1.801
 4483TIP3   OH213412   2.650   1.041   4.185
 4483TIP3    H113413   2.670   1.073   4.097
 4483TIP3    H213414   2.724   1.068   4.238
 4484TIP3   OH213415   6.287   4.620   5.561
 4484TIP3    H113416   6.288   4.561   5.635
 4484TIP3    H213417   6.376   4.656   5.557
 4485TIP3   OH213418   0.679   3.977   1.088
 4485TIP3    H113419   0.737   4.035   1.039
 4485TIP3    H213420   0.673   4.016   1.175
 4486TIP3   OH213421   2.592   4.429   1.244
 4486TIP3    H113422   2.639   4.497   1.195
 4486TIP3    H213423   2.614   4.348   1.198
 4487TIP3   OH213424   4.668   4.473   3.958
 4487TIP3    H113425   4.646   4.383   3.932
 4487TIP3    H213426   4.727   4.463   4.033
 4488TIP3   OH213427   0.245   5.244   0.358
 4488TIP3    H113428   0.264   5.153   0.379
 4488TIP3    H213429   0.208   5.281   0.438
 4489TIP3   OH213430   4.212   2.553   1.477
 4489TIP3    H113431   4.291   2.506   1.452
 4489TIP3    H213432   4.242   2.622   1.535
 4490TIP3   OH213433   6.129   3.403   3.016
 4490TIP3    H113434   6.060   3.346   3.049
 4490TIP3    H213435   6.105   3.420   2.925
 4491TIP3   OH213436   4.020   1.870   1.231
 4491TIP3    H113437   4.106   1.846   1.267
 4491TIP3    H213438   4.040   1.903   1.143
 4492TIP3   OH213439   6.043   1.394   1.540
 4492TIP3    H113440   6.102   1.467   1.561
 4492TIP3    H213441   5.956   1.432   1.549
 4493TIP3   OH213442   2.716   1.372   4.229
 4493TIP3    H113443   2.704   1.415   4.144
 4493TIP3    H213444   2.637   1.395   4.279
 4494TIP3   OH213445   2.481   2.130   0.218
 4494TIP3    H113446   2.455   2.183   0.293
 4494TIP3    H213447   2.479   2.191   0.144
 4495TIP3   OH213448   4.194   0.366   1.850
 4495TIP3    H113449   4.240   0.401   1.926
 4495TIP3    H213450   4.187   0.272   1.867
 4496TIP3   OH213451   6.668   2.767   0.854
 4496TIP3    H113452   6.708   2.785   0.939
 4496TIP3    H213453   6.653   2.672   0.855
 4497TIP3   OH213454   0.693   0.117   2.306
 4497TIP3    H113455   0.672   0.049   2.371
 4497TIP3    H213456   0.786   0.134   2.319
 4498TIP3   OH213457   4.072   5.438   1.025
 4498TIP3    H113458   4.031   5.356   1.054
 4498TIP3    H213459   4.153   5.410   0.983
 4499TIP3   OH213460   5.261   4.762   2.917
 4499TIP3    H113461   5.196   4.741   2.849
 4499TIP3    H213462   5.250   4.856   2.933
 4500TIP3   OH213463   1.183   0.619   3.227
 4500TIP3    H113464   1.256   0.582   3.176
 4500TIP3    H213465   1.110   0.622   3.165
 4501TIP3   OH213466   6.714   0.518   2.767
 4501TIP3    H113467   6.624   0.496   2.791
 4501TIP3    H213468   6.755   0.543   2.849
 4502TIP3   OH213469   5.994   3.417   0.592
 4502TIP3    H113470   6.006   3.376   0.677
 4502TIP3    H213471   6.075   3.399   0.545
 4503TIP3   OH213472   6.990   0.904   3.245
 4503TIP3    H113473   7.038   0.835   3.291
 4503TIP3    H213474   6.907   0.911   3.293
 4504TIP3   OH213475   3.069   2.340   4.213
 4504TIP3    H113476   3.147   2.298   4.250
 4504TIP3    H213477   3.066   2.427   4.254
 4505TIP3   OH213478   1.196   3.314   3.775
 4505TIP3    H113479   1.138   3.240   3.754
 4505TIP3    H213480   1.281   3.274   3.793
 4506TIP3   OH213481   6.241   5.354   2.122
 4506TIP3    H113482   6.156   5.340   2.162
 4506TIP3    H213483   6.226   5.421   2.056
 4507TIP3   OH213484   6.622   4.959   2.466
 4507TIP3    H113485   6.600   5.006   2.385
 4507TIP3    H213486   6.553   4.984   2.527
 4508TIP3   OH213487   2.842   1.185   5.779
 4508TIP3    H113488   2.858   1.221   5.866
 4508TIP3    H213489   2.748   1.196   5.765
 4509TIP3   OH213490   4.675   2.928   5.408
 4509TIP3    H113491   4.770   2.928   5.417
 4509TIP3    H213492   4.651   2.835   5.409
 4510TIP3   OH213493   0.570   6.159   4.355
 4510TIP3    H113494   0.535   6.139   4.442
 4510TIP3    H213495   0.492   6.178   4.302
 4511TIP3   OH213496   5.878   5.716   5.390
 4511TIP3    H113497   5.815   5.673   5.448
 4511TIP3    H213498   5.930   5.644   5.354
 4512TIP3   OH213499   1.311   3.765   2.388
 4512TIP3    H113500   1.250   3.744   2.458
 4512TIP3    H213501   1.323   3.860   2.394
 4513TIP3   OH213502   4.987   1.765   4.790
 4513TIP3    H113503   5.039   1.741   4.867
 4513TIP3    H213504   4.901   1.727   4.807
 4514TIP3   OH213505   3.488   2.109   1.803
 4514TIP3    H113506   3.570   2.082   1.762
 4514TIP3    H213507   3.434   2.030   1.803
 4515TIP3   OH213508   0.963   2.257   1.935
 4515TIP3    H113509   0.912   2.338   1.933
 4515TIP3    H213510   1.054   2.285   1.923
 4516TIP3   OH213511   3.675   3.119   0.374
 4516TIP3    H113512   3.611   3.188   0.392
 4516TIP3    H213513   3.669   3.105   0.279
 4517TIP3   OH213514   1.842   4.616   3.018
 4517TIP3    H113515   1.753   4.609   2.985
 4517TIP3    H213516   1.849   4.547   3.084
 4518TIP3   OH213517   2.635   3.032   4.532
 4518TIP3    H113518   2.657   3.077   4.614
 4518TIP3    H213519   2.598   3.099   4.476
 4519TIP3   OH213520   5.286   1.091   3.115
 4519TIP3    H113521   5.274   1.174   3.068
 4519TIP3    H213522   5.381   1.081   3.122
 4520TIP3   OH213523   5.139   2.925   4.708
 4520TIP3    H113524   5.051   2.963   4.711
 4520TIP3    H213525   5.174   2.953   4.623
 4521TIP3   OH213526   2.029   3.994   0.654
 4521TIP3    H113527   1.972   4.041   0.594
 4521TIP3    H213528   1.990   3.907   0.662
 4522TIP3   OH213529   1.323   3.497   3.442
 4522TIP3    H113530   1.343   3.579   3.487
 4522TIP3    H213531   1.376   3.499   3.363
 4523TIP3   OH213532   2.633   2.003   1.543
 4523TIP3    H113533   2.664   1.927   1.592
 4523TIP3    H213534   2.587   1.966   1.468
 4524TIP3   OH213535   2.023   6.678   4.939
 4524TIP3    H113536   1.999   6.592   4.904
 4524TIP3    H213537   2.082   6.658   5.012
 4525TIP3   OH213538   6.072   3.843   3.568
 4525TIP3    H113539   6.061   3.935   3.544
 4525TIP3    H213540   6.095   3.799   3.486
 4526TIP3   OH213541   3.651   5.571   2.298
 4526TIP3    H113542   3.728   5.533   2.258
 4526TIP3    H213543   3.599   5.496   2.327
 4527TIP3   OH213544   1.888   3.863   2.434
 4527TIP3    H113545   1.961   3.867   2.495
 4527TIP3    H213546   1.924   3.820   2.356
 4528TIP3   OH213547   7.034   2.480   4.321
 4528TIP3    H113548   7.119   2.477   4.279
 4528TIP3    H213549   7.016   2.574   4.333
 4529TIP3   OH213550   2.714   4.284   5.203
 4529TIP3    H113551   2.707   4.379   5.196
 4529TIP3    H213552   2.752   4.257   5.119
 4530TIP3   OH213553   1.711   1.898   2.046
 4530TIP3    H113554   1.675   1.885   1.958
 4530TIP3    H213555   1.774   1.970   2.036
 4531TIP3   OH213556   0.957   4.013   1.132
 4531TIP3    H113557   0.992   3.936   1.086
 4531TIP3    H213558   0.969   4.085   1.070
 4532TIP3   OH213559   6.807   3.272   1.718
 4532TIP3    H113560   6.769   3.196   1.761
 4532TIP3    H213561   6.816   3.337   1.788
 4533TIP3   OH213562   4.743   6.698   4.346
 4533TIP3    H113563   4.820   6.691   4.403
 4533TIP3    H213564   4.726   6.793   4.341
 4534TIP3   OH213565   3.187   5.485   0.588
 4534TIP3    H113566   3.179   5.404   0.539
 4534TIP3    H213567   3.100   5.525   0.584
 4535TIP3   OH213568   2.516   2.765   3.060
 4535TIP3    H113569   2.535   2.825   2.989
 4535TIP3    H213570   2.534   2.815   3.140
 4536TIP3   OH213571   2.106   4.444   1.485
 4536TIP3    H113572   2.056   4.366   1.461
 4536TIP3    H213573   2.197   4.421   1.467
 4537TIP3   OH213574   7.111   6.402   3.842
 4537TIP3    H113575   7.203   6.379   3.831
 4537TIP3    H213576   7.065   6.318   3.843
 4538TIP3   OH213577   0.687   1.609   2.641
 4538TIP3    H113578   0.738   1.679   2.682
 4538TIP3    H213579   0.731   1.528   2.668
 4539TIP3   OH213580   0.020   1.909   0.981
 4539TIP3    H113581   0.008   1.991   1.028
 4539TIP3    H213582  -0.058   1.900   0.927
 4540TIP3   OH213583   3.902   4.567   2.437
 4540TIP3    H113584   3.839   4.634   2.464
 4540TIP3    H213585   3.897   4.501   2.505
 4541TIP3   OH213586   3.304   4.977   1.576
 4541TIP3    H113587   3.262   5.018   1.499
 4541TIP3    H213588   3.289   4.883   1.564
 4542TIP3   OH213589   2.491   2.925   4.753
 4542TIP3    H113590   2.541   2.957   4.678
 4542TIP3    H213591   2.552   2.931   4.827
 4543TIP3   OH213592   0.033   1.850   5.589
 4543TIP3    H113593   0.087   1.784   5.545
 4543TIP3    H213594  -0.033   1.800   5.637
 4544TIP3   OH213595   3.653   4.859   4.463
 4544TIP3    H113596   3.633   4.781   4.411
 4544TIP3    H213597   3.605   4.846   4.545
 4545TIP3   OH213598   6.127   6.088   0.199
 4545TIP3    H113599   6.165   6.143   0.267
 4545TIP3    H213600   6.070   6.147   0.150
 4546TIP3   OH213601   0.052   2.769   5.622
 4546TIP3    H113602   0.054   2.796   5.530
 4546TIP3    H213603   0.117   2.825   5.665
 4547TIP3   OH213604   6.045   0.839   5.144
 4547TIP3    H113605   5.957   0.813   5.172
 4547TIP3    H213606   6.031   0.894   5.067
 4548TIP3   OH213607   6.455   3.339   4.324
 4548TIP3    H113608   6.421   3.317   4.411
 4548TIP3    H213609   6.546   3.309   4.325
 4549TIP3   OH213610   1.037   5.434   0.654
 4549TIP3    H113611   1.089   5.461   0.729
 4549TIP3    H213612   1.010   5.344   0.674
 4550TIP3   OH213613   2.593   2.485   5.821
 4550TIP3    H113614   2.653   2.543   5.867
 4550TIP3    H213615   2.551   2.434   5.890
 4551TIP3   OH213616   5.388   6.233   1.727
 4551TIP3    H113617   5.383   6.213   1.820
 4551TIP3    H213618   5.312   6.190   1.689
 4552TIP3   OH213619   6.783   3.221   3.779
 4552TIP3    H113620   6.747   3.138   3.811
 4552TIP3    H213621   6.816   3.200   3.691
 4553TIP3   OH213622   6.147   5.137   3.811
 4553TIP3    H113623   6.110   5.129   3.723
 4553TIP3    H213624   6.149   5.231   3.828
 4554TIP3   OH213625   5.230   3.676   3.073
 4554TIP3    H113626   5.248   3.757   3.025
 4554TIP3    H213627   5.304   3.665   3.132
 4555TIP3   OH213628   0.613   3.635   2.737
 4555TIP3    H113629   0.604   3.716   2.788
 4555TIP3    H213630   0.604   3.663   2.646
 4556TIP3   OH213631   6.686   0.268   0.698
 4556TIP3    H113632   6.701   0.175   0.712
 4556TIP3    H213633   6.596   0.283   0.726
 4557TIP3   OH213634   1.384   1.693   1.465
 4557TIP3    H113635   1.421   1.739   1.540
 4557TIP3    H213636   1.435   1.612   1.460
 4558TIP3   OH213637   1.190   5.127   3.273
 4558TIP3    H113638   1.119   5.173   3.228
 4558TIP3    H213639   1.166   5.132   3.365
 4559TIP3   OH213640   6.380   1.951   0.675
 4559TIP3    H113641   6.314   1.934   0.742
 4559TIP3    H213642   6.461   1.914   0.711
 4560TIP3   OH213643   0.970   1.690   5.105
 4560TIP3    H113644   0.986   1.641   5.024
 4560TIP3    H213645   1.043   1.668   5.162
 4561TIP3   OH213646   2.730   2.188   5.688
 4561TIP3    H113647   2.750   2.277   5.658
 4561TIP3    H213648   2.759   2.186   5.779
 4562TIP3   OH213649   4.997   2.335   5.022
 4562TIP3    H113650   5.090   2.321   5.003
 4562TIP3    H213651   4.956   2.251   5.003
 4563TIP3   OH213652   4.198   2.883   4.192
 4563TIP3    H113653   4.241   2.913   4.112
 4563TIP3    H213654   4.238   2.935   4.262
 4564TIP3   OH213655   3.131   1.927   4.380
 4564TIP3    H113656   3.047   1.900   4.343
 4564TIP3    H213657   3.130   1.894   4.470
 4565TIP3   OH213658   0.604   3.069   4.258
 4565TIP3    H113659   0.597   3.151   4.210
 4565TIP3    H213660   0.669   3.018   4.211
 4566TIP3   OH213661   2.456   5.490   2.217
 4566TIP3    H113662   2.444   5.471   2.124
 4566TIP3    H213663   2.368   5.506   2.250
 4567TIP3   OH213664   4.098   5.247   0.664
 4567TIP3    H113665   4.002   5.252   0.668
 4567TIP3    H213666   4.124   5.322   0.611
 4568TIP3   OH213667   6.799   2.723   2.622
 4568TIP3    H113668   6.836   2.745   2.537
 4568TIP3    H213669   6.829   2.793   2.680
 4569TIP3   OH213670   2.480   5.738   3.249
 4569TIP3    H113671   2.460   5.706   3.337
 4569TIP3    H213672   2.559   5.690   3.223
 4570TIP3   OH213673   6.301   6.741   0.615
 4570TIP3    H113674   6.216   6.737   0.657
 4570TIP3    H213675   6.293   6.812   0.551
 4571TIP3   OH213676   7.117   4.369   1.221
 4571TIP3    H113677   7.130   4.386   1.127
 4571TIP3    H213678   7.063   4.443   1.251
 4572TIP3   OH213679   5.342   5.017   1.733
 4572TIP3    H113680   5.400   5.062   1.795
 4572TIP3    H213681   5.278   5.083   1.707
 4573TIP3   OH213682   6.048   1.571   4.347
 4573TIP3    H113683   6.087   1.617   4.421
 4573TIP3    H213684   5.955   1.597   4.349
 4574TIP3   OH213685   4.029   3.043   0.171
 4574TIP3    H113686   3.976   3.025   0.093
 4574TIP3    H213687   4.119   3.025   0.143
 4575TIP3   OH213688   5.145   5.003   2.695
 4575TIP3    H113689   5.189   4.945   2.632
 4575TIP3    H213690   5.093   5.062   2.640
 4576TIP3   OH213691   7.016   4.736   2.520
 4576TIP3    H113692   6.934   4.688   2.528
 4576TIP3    H213693   7.010   4.806   2.584
 4577TIP3   OH213694   6.098   2.132   2.512
 4577TIP3    H113695   6.101   2.226   2.499
 4577TIP3    H213696   6.022   2.118   2.568
 4578TIP3   OH213697   2.591   3.913   4.072
 4578TIP3    H113698   2.656   3.927   4.004
 4578TIP3    H213699   2.585   3.997   4.117
 4579TIP3   OH213700   0.632   3.171   3.433
 4579TIP3    H113701   0.657   3.253   3.474
 4579TIP3    H213702   0.714   3.137   3.396
 4580TIP3   OH213703   2.747   4.871   1.935
 4580TIP3    H113704   2.655   4.855   1.952
 4580TIP3    H213705   2.747   4.927   1.858
 4581TIP3   OH213706   5.403   6.590   3.746
 4581TIP3    H113707   5.481   6.646   3.746
 4581TIP3    H213708   5.356   6.614   3.826
 4582TIP3   OH213709   6.584   1.703   5.491
 4582TIP3    H113710   6.579   1.788   5.446
 4582TIP3    H213711   6.609   1.726   5.581
 4583TIP3   OH213712   0.972   1.859   1.317
 4583TIP3    H113713   0.882   1.845   1.346
 4583TIP3    H213714   0.964   1.917   1.241
 4584TIP3   OH213715   1.160   6.742   1.523
 4584TIP3    H113716   1.162   6.755   1.428
 4584TIP3    H213717   1.078   6.695   1.539
 4585TIP3   OH213718   3.080   1.704   2.447
 4585TIP3    H113719   3.113   1.791   2.427
 4585TIP3    H213720   3.095   1.653   2.368
 4586TIP3   OH213721   4.492   0.174   1.586
 4586TIP3    H113722   4.452   0.246   1.635
 4586TIP3    H213723   4.477   0.196   1.494
 4587TIP3   OH213724   2.998   5.910   5.105
 4587TIP3    H113725   2.965   5.984   5.055
 4587TIP3    H213726   3.014   5.946   5.192
 4588TIP3   OH213727   3.407   0.767   0.489
 4588TIP3    H113728   3.371   0.687   0.527
 4588TIP3    H213729   3.446   0.813   0.563
 4589TIP3   OH213730   5.701   4.040   3.932
 4589TIP3    H113731   5.779   4.083   3.896
 4589TIP3    H213732   5.723   4.025   4.024
 4590TIP3   OH213733   6.489   5.669   2.911
 4590TIP3    H113734   6.448   5.728   2.848
 4590TIP3    H213735   6.451   5.694   2.996
 4591TIP3   OH213736   4.058   2.417   3.373
 4591TIP3    H113737   3.988   2.390   3.432
 4591TIP3    H213738   4.024   2.400   3.286
 4592TIP3   OH213739   6.741   0.138   3.683
 4592TIP3    H113740   6.681   0.101   3.747
 4592TIP3    H213741   6.758   0.227   3.715
 4593TIP3   OH213742   2.818   0.322   1.241
 4593TIP3    H113743   2.894   0.357   1.196
 4593TIP3    H213744   2.756   0.396   1.245
 4594TIP3   OH213745   0.546   2.376   1.398
 4594TIP3    H113746   0.505   2.299   1.359
 4594TIP3    H213747   0.510   2.380   1.487
 4595TIP3   OH213748   6.380   5.037   1.708
 4595TIP3    H113749   6.469   5.051   1.740
 4595TIP3    H213750   6.331   5.112   1.742
 4596TIP3   OH213751   3.755   2.955   2.596
 4596TIP3    H113752   3.812   2.922   2.666
 4596TIP3    H213753   3.671   2.970   2.639
 4597TIP3   OH213754   2.847   0.904   5.388
 4597TIP3    H113755   2.896   0.834   5.346
 4597TIP3    H213756   2.776   0.924   5.327
 4598TIP3   OH213757   0.938   0.049   5.197
 4598TIP3    H113758   0.913  -0.016   5.262
 4598TIP3    H213759   1.024   0.079   5.225
 4599TIP3   OH213760   4.098   5.671   0.861
 4599TIP3    H113761   4.058   5.603   0.914
 4599TIP3    H213762   4.146   5.623   0.793
 4600TIP3   OH213763   1.452   5.576   4.430
 4600TIP3    H113764   1.545   5.557   4.427
 4600TIP3    H213765   1.444   5.651   4.488
 4601TIP3   OH213766   4.602   2.427   0.906
 4601TIP3    H113767   4.638   2.339   0.908
 4601TIP3    H213768   4.679   2.484   0.915
 4602TIP3   OH213769   2.395   5.334   2.610
 4602TIP3    H113770   2.370   5.408   2.666
 4602TIP3    H213771   2.448   5.278   2.667
 4603TIP3   OH213772   0.243   1.117   3.708
 4603TIP3    H113773   0.300   1.051   3.668
 4603TIP3    H213774   0.275   1.124   3.798
 4604TIP3   OH213775   2.216   1.616   4.536
 4604TIP3    H113776   2.293   1.672   4.539
 4604TIP3    H213777   2.246   1.532   4.573
 4605TIP3   OH213778   3.689   0.981   0.097
 4605TIP3    H113779   3.603   0.958   0.131
 4605TIP3    H213780   3.751   0.949   0.163
 4606TIP3   OH213781   6.129   2.686   5.112
 4606TIP3    H113782   6.080   2.729   5.041
 4606TIP3    H213783   6.105   2.735   5.190
 4607TIP3   OH213784   4.322   5.294   1.949
 4607TIP3    H113785   4.229   5.315   1.961
 4607TIP3    H213786   4.330   5.273   1.856
 4608TIP3   OH213787   3.138   2.423   3.962
 4608TIP3    H113788   3.092   2.371   4.028
 4608TIP3    H213789   3.230   2.419   3.987
 4609TIP3   OH213790   3.104   5.834   5.804
 4609TIP3    H113791   3.136   5.904   5.746
 4609TIP3    H213792   3.122   5.867   5.893
 4610TIP3   OH213793   5.321   5.442   4.948
 4610TIP3    H113794   5.283   5.523   4.913
 4610TIP3    H213795   5.392   5.420   4.887
 4611TIP3   OH213796   0.049   6.395   5.543
 4611TIP3    H113797   0.025   6.402   5.635
 4611TIP3    H213798  -0.026   6.350   5.502
 4612TIP3   OH213799   0.075   4.135   4.996
 4612TIP3    H113800   0.056   4.128   5.089
 4612TIP3    H213801   0.101   4.046   4.971
 4613TIP3   OH213802   1.932   2.499   1.834
 4613TIP3    H113803   1.872   2.563   1.871
 4613TIP3    H213804   1.897   2.414   1.860
 4614TIP3   OH213805   4.928   4.153   2.067
 4614TIP3    H113806   5.019   4.177   2.048
 4614TIP3    H213807   4.888   4.236   2.094
 4615TIP3   OH213808   6.878   5.602   5.439
 4615TIP3    H113809   6.961   5.590   5.393
 4615TIP3    H213810   6.845   5.513   5.450
 4616TIP3   OH213811   2.713   2.968   4.924
 4616TIP3    H113812   2.757   2.996   5.004
 4616TIP3    H213813   2.706   3.048   4.871
 4617TIP3   OH213814   5.471   4.803   4.288
 4617TIP3    H113815   5.515   4.822   4.205
 4617TIP3    H213816   5.389   4.854   4.284
 4618TIP3   OH213817   4.556   2.568   5.694
 4618TIP3    H113818   4.479   2.617   5.725
 4618TIP3    H213819   4.575   2.606   5.608
 4619TIP3   OH213820   5.820   1.618   3.175
 4619TIP3    H113821   5.783   1.647   3.258
 4619TIP3    H213822   5.848   1.528   3.191
 4620TIP3   OH213823   0.799   0.451   0.919
 4620TIP3    H113824   0.842   0.536   0.911
 4620TIP3    H213825   0.719   0.469   0.969
 4621TIP3   OH213826   2.842   0.147   4.052
 4621TIP3    H113827   2.831   0.148   3.957
 4621TIP3    H213828   2.793   0.223   4.082
 4622TIP3   OH213829   2.842   6.165   2.619
 4622TIP3    H113830   2.852   6.217   2.700
 4622TIP3    H213831   2.853   6.075   2.648
 4623TIP3   OH213832   6.089   6.153   3.279
 4623TIP3    H113833   6.014   6.160   3.220
 4623TIP3    H213834   6.087   6.063   3.311
 4624TIP3   OH213835   0.268   2.982   1.418
 4624TIP3    H113836   0.227   3.065   1.443
 4624TIP3    H213837   0.249   2.973   1.325
 4625TIP3   OH213838   7.053   3.684   0.394
 4625TIP3    H113839   6.970   3.655   0.357
 4625TIP3    H213840   7.098   3.603   0.418
 4626TIP3   OH213841   7.100   4.451   5.114
 4626TIP3    H113842   7.123   4.540   5.088
 4626TIP3    H213843   7.052   4.416   5.039
 4627TIP3   OH213844   0.188   6.194   3.189
 4627TIP3    H113845   0.257   6.185   3.255
 4627TIP3    H213846   0.107   6.197   3.239
 4628TIP3   OH213847   6.064   4.116   3.495
 4628TIP3    H113848   6.030   4.205   3.493
 4628TIP3    H213849   6.146   4.121   3.446
 4629TIP3   OH213850   6.110   3.667   3.841
 4629TIP3    H113851   6.153   3.639   3.922
 4629TIP3    H213852   6.125   3.761   3.836
 4630TIP3   OH213853   0.482   4.951   3.484
 4630TIP3    H113854   0.444   5.028   3.524
 4630TIP3    H213855   0.548   4.985   3.424
 4631TIP3   OH213856   3.182   6.629   4.976
 4631TIP3    H113857   3.185   6.577   4.896
 4631TIP3    H213858   3.216   6.571   5.045
 4632TIP3   OH213859   3.074   0.731   2.673
 4632TIP3    H113860   3.069   0.636   2.683
 4632TIP3    H213861   3.030   0.748   2.589
 4633TIP3   OH213862   0.322   4.783   5.809
 4633TIP3    H113863   0.282   4.733   5.738
 4633TIP3    H213864   0.362   4.858   5.766
 4634TIP3   OH213865   5.546   5.253   1.511
 4634TIP3    H113866   5.565   5.324   1.571
 4634TIP3    H213867   5.613   5.187   1.530
 4635TIP3   OH213868   4.193   1.655   2.943
 4635TIP3    H113869   4.208   1.686   2.854
 4635TIP3    H213870   4.281   1.648   2.981
 4636TIP3   OH213871   1.800   5.069   3.073
 4636TIP3    H113872   1.777   5.005   3.141
 4636TIP3    H213873   1.715   5.098   3.038
 4637TIP3   OH213874   2.025   4.125   0.144
 4637TIP3    H113875   2.075   4.147   0.066
 4637TIP3    H213876   2.079   4.155   0.217
 4638TIP3   OH213877   4.329   4.019   3.350
 4638TIP3    H113878   4.235   4.028   3.332
 4638TIP3    H213879   4.335   3.945   3.411
 4639TIP3   OH213880   6.229   2.897   4.503
 4639TIP3    H113881   6.138   2.875   4.518
 4639TIP3    H213882   6.273   2.878   4.586
 4640TIP3   OH213883   2.221   0.913   4.923
 4640TIP3    H113884   2.247   0.927   4.832
 4640TIP3    H213885   2.281   0.844   4.954
 4641TIP3   OH213886   0.945   3.476   4.836
 4641TIP3    H113887   0.903   3.553   4.874
 4641TIP3    H213888   0.903   3.401   4.879
 4642TIP3   OH213889   2.533   5.734   4.729
 4642TIP3    H113890   2.559   5.677   4.656
 4642TIP3    H213891   2.569   5.820   4.705
 4643TIP3   OH213892   5.168   6.459   1.918
 4643TIP3    H113893   5.218   6.540   1.910
 4643TIP3    H213894   5.135   6.443   1.829
 4644TIP3   OH213895   3.517   6.771   0.915
 4644TIP3    H113896   3.522   6.675   0.917
 4644TIP3    H213897   3.453   6.789   0.846
 4645TIP3   OH213898   5.335   1.689   5.576
 4645TIP3    H113899   5.277   1.734   5.516
 4645TIP3    H213900   5.277   1.646   5.639
 4646TIP3   OH213901   4.146   3.271   5.085
 4646TIP3    H113902   4.092   3.209   5.034
 4646TIP3    H213903   4.118   3.257   5.176
 4647TIP3   OH213904   1.078   0.913   3.157
 4647TIP3    H113905   1.008   0.925   3.093
 4647TIP3    H213906   1.152   0.882   3.104
 4648TIP3   OH213907   0.435   5.897   0.183
 4648TIP3    H113908   0.372   5.966   0.203
 4648TIP3    H213909   0.515   5.923   0.230
 4649TIP3   OH213910   6.828   5.358   1.162
 4649TIP3    H113911   6.795   5.268   1.161
 4649TIP3    H213912   6.805   5.393   1.076
 4650TIP3   OH213913   3.608   5.569   4.138
 4650TIP3    H113914   3.676   5.558   4.071
 4650TIP3    H213915   3.610   5.488   4.188
 4651TIP3   OH213916   1.470   0.550   3.115
 4651TIP3    H113917   1.444   0.555   3.023
 4651TIP3    H213918   1.503   0.460   3.125
 4652TIP3   OH213919   4.662   2.215   5.000
 4652TIP3    H113920   4.601   2.288   4.987
 4652TIP3    H213921   4.724   2.222   4.928
 4653TIP3   OH213922   5.332   3.240   4.237
 4653TIP3    H113923   5.316   3.200   4.322
 4653TIP3    H213924   5.308   3.331   4.248
 4654TIP3   OH213925   1.482   3.120   2.775
 4654TIP3    H113926   1.550   3.098   2.840
 4654TIP3    H213927   1.399   3.100   2.819
 4655TIP3   OH213928   6.030   2.248   3.271
 4655TIP3    H113929   6.073   2.245   3.356
 4655TIP3    H213930   6.054   2.165   3.229
 4656TIP3   OH213931   2.417   1.711   0.987
 4656TIP3    H113932   2.501   1.678   0.955
 4656TIP3    H213933   2.423   1.806   0.974
 4657TIP3   OH213934   3.293   2.563   5.358
 4657TIP3    H113935   3.340   2.604   5.286
 4657TIP3    H213936   3.338   2.594   5.437
 4658TIP3   OH213937   3.451   3.603   2.044
 4658TIP3    H113938   3.392   3.627   1.973
 4658TIP3    H213939   3.452   3.507   2.043
 4659TIP3   OH213940   2.512   2.112   5.295
 4659TIP3    H113941   2.518   2.194   5.246
 4659TIP3    H213942   2.443   2.127   5.359
 4660TIP3   OH213943   5.743   6.137   2.281
 4660TIP3    H113944   5.672   6.088   2.322
 4660TIP3    H213945   5.701   6.184   2.209
 4661TIP3   OH213946   6.599   0.013   3.923
 4661TIP3    H113947   6.551   0.092   3.949
 4661TIP3    H213948   6.591  -0.045   3.999
 4662TIP3   OH213949   2.745   3.752   3.106
 4662TIP3    H113950   2.731   3.724   3.015
 4662TIP3    H213951   2.831   3.794   3.105
 4663TIP3   OH213952   5.371   5.829   5.467
 4663TIP3    H113953   5.421   5.901   5.504
 4663TIP3    H213954   5.281   5.844   5.496
 4664TIP3   OH213955   4.088   5.017   4.108
 4664TIP3    H113956   4.184   5.016   4.116
 4664TIP3    H213957   4.058   4.976   4.189
 4665TIP3   OH213958   2.859   0.277   4.991
 4665TIP3    H113959   2.939   0.261   4.941
 4665TIP3    H213960   2.850   0.200   5.047
 4666TIP3   OH213961   4.292   5.284   1.680
 4666TIP3    H113962   4.360   5.331   1.631
 4666TIP3    H213963   4.280   5.203   1.631
 4667TIP3   OH213964   4.206   6.444   5.851
 4667TIP3    H113965   4.146   6.490   5.793
 4667TIP3    H213966   4.169   6.356   5.861
 4668TIP3   OH213967   6.499   5.625   2.627
 4668TIP3    H113968   6.513   5.643   2.720
 4668TIP3    H213969   6.581   5.651   2.585
 4669TIP3   OH213970   5.231   4.824   0.321
 4669TIP3    H113971   5.198   4.894   0.378
 4669TIP3    H213972   5.169   4.752   0.333
 4670TIP3   OH213973   0.764   3.412   5.489
 4670TIP3    H113974   0.703   3.345   5.521
 4670TIP3    H213975   0.745   3.419   5.396
 4671TIP3   OH213976   5.072   5.712   0.979
 4671TIP3    H113977   5.044   5.774   1.046
 4671TIP3    H213978   5.086   5.630   1.025
 4672TIP3   OH213979   4.316   5.874   3.005
 4672TIP3    H113980   4.358   5.960   2.996
 4672TIP3    H213981   4.269   5.862   2.923
 4673TIP3   OH213982   2.334   0.742   1.693
 4673TIP3    H113983   2.334   0.726   1.598
 4673TIP3    H213984   2.399   0.681   1.727
 4674TIP3   OH213985   5.416   6.204   1.041
 4674TIP3    H113986   5.350   6.137   1.060
 4674TIP3    H213987   5.446   6.232   1.127
 4675TIP3   OH213988   2.995   3.707   4.037
 4675TIP3    H113989   3.068   3.645   4.024
 4675TIP3    H213990   3.032   3.791   4.012
 4676TIP3   OH213991   2.126   6.446   0.449
 4676TIP3    H113992   2.173   6.397   0.517
 4676TIP3    H213993   2.081   6.516   0.497
 4677TIP3   OH213994   4.404   4.338   2.408
 4677TIP3    H113995   4.477   4.282   2.434
 4677TIP3    H213996   4.445   4.418   2.375
 4678TIP3   OH213997   2.170   0.062   4.643
 4678TIP3    H113998   2.239   0.091   4.703
 4678TIP3    H213999   2.089   0.095   4.681
 4679TIP3   OH214000   2.366   1.620   5.269
 4679TIP3    H114001   2.381   1.698   5.321
 4679TIP3    H214002   2.391   1.547   5.326
 4680TIP3   OH214003   2.198   4.172   0.764
 4680TIP3    H114004   2.195   4.157   0.859
 4680TIP3    H214005   2.140   4.105   0.728
 4681TIP3   OH214006   3.780   1.752   0.832
 4681TIP3    H114007   3.851   1.755   0.768
 4681TIP3    H214008   3.754   1.843   0.844
 4682TIP3   OH214009   5.450   0.510   0.659
 4682TIP3    H114010   5.428   0.603   0.653
 4682TIP3    H214011   5.389   0.475   0.725
 4683TIP3   OH214012   5.561   5.096   4.690
 4683TIP3    H114013   5.565   5.023   4.752
 4683TIP3    H214014   5.649   5.133   4.691
 4684TIP3   OH214015   0.632   5.115   5.873
 4684TIP3    H114016   0.704   5.121   5.936
 4684TIP3    H214017   0.642   5.193   5.818
 4685TIP3   OH214018   0.977   0.217   4.714
 4685TIP3    H114019   0.882   0.226   4.703
 4685TIP3    H214020   0.996   0.260   4.796
 4686TIP3   OH214021   4.245   0.638   3.877
 4686TIP3    H114022   4.220   0.599   3.960
 4686TIP3    H214023   4.337   0.662   3.888
 4687TIP3   OH214024   2.569   3.668   2.291
 4687TIP3    H114025   2.569   3.721   2.211
 4687TIP3    H214026   2.479   3.637   2.300
 4688TIP3   OH214027   3.083   0.637   0.761
 4688TIP3    H114028   3.118   0.576   0.697
 4688TIP3    H214029   3.160   0.676   0.802
 4689TIP3   OH214030   5.931   1.561   3.537
 4689TIP3    H114031   5.998   1.495   3.554
 4689TIP3    H214032   5.890   1.576   3.622
 4690TIP3   OH214033   4.098   0.086   5.621
 4690TIP3    H114034   4.184   0.052   5.596
 4690TIP3    H214035   4.098   0.177   5.590
 4691TIP3   OH214036   0.115   3.831   1.895
 4691TIP3    H114037   0.089   3.897   1.832
 4691TIP3    H214038   0.166   3.768   1.844
 4692TIP3   OH214039   5.475   5.182   0.810
 4692TIP3    H114040   5.559   5.216   0.841
 4692TIP3    H214041   5.419   5.184   0.888
 4693TIP3   OH214042   5.599   4.050   5.361
 4693TIP3    H114043   5.594   4.134   5.315
 4693TIP3    H214044   5.512   4.037   5.399
 4694TIP3   OH214045   2.029   4.457   2.316
 4694TIP3    H114046   2.047   4.473   2.224
 4694TIP3    H214047   2.085   4.519   2.363
 4695TIP3   OH214048   4.285   5.940   3.336
 4695TIP3    H114049   4.291   6.029   3.302
 4695TIP3    H214050   4.195   5.912   3.316
 4696TIP3   OH214051   3.045   5.898   2.013
 4696TIP3    H114052   2.988   5.821   2.014
 4696TIP3    H214053   3.123   5.871   2.063
 4697TIP3   OH214054   0.877   2.501   1.726
 4697TIP3    H114055   0.795   2.549   1.738
 4697TIP3    H214056   0.938   2.565   1.689
 4698TIP3   OH214057   2.287   1.804   3.094
 4698TIP3    H114058   2.331   1.846   3.021
 4698TIP3    H214059   2.357   1.759   3.142
 4699TIP3   OH214060   2.638   0.550   2.147
 4699TIP3    H114061   2.611   0.496   2.072
 4699TIP3    H214062   2.718   0.593   2.118
 4700TIP3   OH214063   4.721   3.726   3.431
 4700TIP3    H114064   4.711   3.791   3.362
 4700TIP3    H214065   4.785   3.766   3.491
 4701TIP3   OH214066   1.599   5.999   1.845
 4701TIP3    H114067   1.619   6.085   1.807
 4701TIP3    H214068   1.607   5.938   1.771
 4702TIP3   OH214069   1.466   5.249   0.894
 4702TIP3    H114070   1.494   5.190   0.963
 4702TIP3    H214071   1.545   5.264   0.842
 4703TIP3   OH214072   5.016   0.418   3.721
 4703TIP3    H114073   4.963   0.444   3.796
 4703TIP3    H214074   5.032   0.500   3.673
 4704TIP3   OH214075   1.764   2.991   3.360
 4704TIP3    H114076   1.849   3.021   3.329
 4704TIP3    H214077   1.782   2.906   3.400
 4705TIP3   OH214078   2.945   6.329   0.153
 4705TIP3    H114079   2.940   6.425   0.163
 4705TIP3    H214080   2.999   6.316   0.075
 4706TIP3   OH214081   5.169   4.311   5.856
 4706TIP3    H114082   5.221   4.364   5.795
 4706TIP3    H214083   5.089   4.361   5.870
 4707TIP3   OH214084   3.919   3.091   1.667
 4707TIP3    H114085   3.982   3.085   1.595
 4707TIP3    H214086   3.972   3.078   1.746
 4708TIP3   OH214087   4.707   6.365   4.879
 4708TIP3    H114088   4.703   6.279   4.920
 4708TIP3    H214089   4.616   6.393   4.872
 4709TIP3   OH214090   3.798   6.249   2.827
 4709TIP3    H114091   3.876   6.304   2.821
 4709TIP3    H214092   3.827   6.171   2.873
 4710TIP3   OH214093   6.799   0.617   0.610
 4710TIP3    H114094   6.893   0.620   0.625
 4710TIP3    H214095   6.788   0.644   0.519
 4711TIP3   OH214096   4.316   0.629   1.031
 4711TIP3    H114097   4.239   0.643   0.976
 4711TIP3    H214098   4.292   0.666   1.116
 4712TIP3   OH214099   5.696   2.303   3.250
 4712TIP3    H114100   5.788   2.285   3.268
 4712TIP3    H214101   5.662   2.336   3.333
 4713TIP3   OH214102   6.313   2.146   5.309
 4713TIP3    H114103   6.382   2.126   5.246
 4713TIP3    H214104   6.351   2.212   5.367
 4714TIP3   OH214105   5.577   4.265   2.208
 4714TIP3    H114106   5.537   4.240   2.291
 4714TIP3    H214107   5.572   4.186   2.154
 4715TIP3   OH214108   4.066   0.765   5.109
 4715TIP3    H114109   4.011   0.686   5.104
 4715TIP3    H214110   4.023   0.819   5.176
 4716TIP3   OH214111   7.217   2.462   4.125
 4716TIP3    H114112   7.156   2.491   4.057
 4716TIP3    H214113   7.237   2.371   4.102
 4717TIP3   OH214114   7.111   0.154   2.249
 4717TIP3    H114115   7.071   0.223   2.301
 4717TIP3    H214116   7.168   0.108   2.311
 4718TIP3   OH214117   4.150   1.646   0.056
 4718TIP3    H114118   4.073   1.626   0.109
 4718TIP3    H214119   4.170   1.738   0.077
 4719TIP3   OH214120   3.182   6.262   0.421
 4719TIP3    H114121   3.107   6.230   0.372
 4719TIP3    H214122   3.166   6.234   0.511
 4720TIP3   OH214123   6.386   1.744   2.939
 4720TIP3    H114124   6.471   1.712   2.971
 4720TIP3    H214125   6.371   1.695   2.858
 4721TIP3   OH214126   2.224   0.689   5.348
 4721TIP3    H114127   2.208   0.608   5.299
 4721TIP3    H214128   2.312   0.678   5.383
 4722TIP3   OH214129   3.602   3.479   4.733
 4722TIP3    H114130   3.574   3.555   4.683
 4722TIP3    H214131   3.623   3.514   4.820
 4723TIP3   OH214132   1.400   5.598   3.817
 4723TIP3    H114133   1.349   5.527   3.778
 4723TIP3    H214134   1.418   5.569   3.906
 4724TIP3   OH214135   6.567   4.354   3.872
 4724TIP3    H114136   6.616   4.279   3.837
 4724TIP3    H214137   6.592   4.427   3.815
 4725TIP3   OH214138   1.390   3.324   4.401
 4725TIP3    H114139   1.308   3.339   4.449
 4725TIP3    H214140   1.375   3.240   4.356
 4726TIP3   OH214141   4.957   6.727   1.036
 4726TIP3    H114142   4.903   6.744   1.113
 4726TIP3    H214143   5.036   6.781   1.049
 4727TIP3   OH214144   6.122   4.923   2.123
 4727TIP3    H114145   6.047   4.957   2.075
 4727TIP3    H214146   6.107   4.828   2.126
 4728TIP3   OH214147   1.204   5.620   4.180
 4728TIP3    H114148   1.237   5.547   4.232
 4728TIP3    H214149   1.221   5.697   4.234
 4729TIP3   OH214150   3.048   1.155   3.981
 4729TIP3    H114151   3.129   1.205   3.990
 4729TIP3    H214152   2.998   1.200   3.913
 4730TIP3   OH214153   6.097   1.047   5.539
 4730TIP3    H114154   6.098   1.137   5.505
 4730TIP3    H214155   6.165   1.002   5.488
 4731TIP3   OH214156   1.552   1.530   4.243
 4731TIP3    H114157   1.607   1.471   4.294
 4731TIP3    H214158   1.611   1.600   4.215
 4732TIP3   OH214159   0.064   1.438   5.029
 4732TIP3    H114160   0.046   1.482   4.946
 4732TIP3    H214161   0.128   1.493   5.073
 4733TIP3   OH214162   0.126   5.503   1.117
 4733TIP3    H114163   0.104   5.490   1.024
 4733TIP3    H214164   0.052   5.464   1.164
 4734TIP3   OH214165   6.041   1.827   1.869
 4734TIP3    H114166   6.068   1.916   1.893
 4734TIP3    H214167   5.962   1.811   1.922
 4735TIP3   OH214168   6.721   3.989   5.052
 4735TIP3    H114169   6.687   3.916   5.105
 4735TIP3    H214170   6.681   3.975   4.965
 4736TIP3   OH214171   0.450   1.613   5.423
 4736TIP3    H114172   0.380   1.631   5.486
 4736TIP3    H214173   0.403   1.594   5.341
 4737TIP3   OH214174   4.174   4.405   5.876
 4737TIP3    H114175   4.123   4.359   5.942
 4737TIP3    H214176   4.264   4.402   5.908
 4738TIP3   OH214177   3.813   4.843   2.391
 4738TIP3    H114178   3.880   4.878   2.449
 4738TIP3    H214179   3.819   4.897   2.312
 4739TIP3   OH214180   3.811   2.224   5.695
 4739TIP3    H114181   3.735   2.267   5.735
 4739TIP3    H214182   3.862   2.192   5.769
 4740TIP3   OH214183   1.793   1.925   3.930
 4740TIP3    H114184   1.878   1.892   3.959
 4740TIP3    H214185   1.796   1.921   3.835
 4741TIP3   OH214186   6.867   3.109   3.549
 4741TIP3    H114187   6.891   3.075   3.463
 4741TIP3    H214188   6.925   3.064   3.610
 4742TIP3   OH214189   5.768   5.757   3.455
 4742TIP3    H114190   5.676   5.772   3.436
 4742TIP3    H214191   5.809   5.843   3.443
 4743TIP3   OH214192   4.185   4.339   2.852
 4743TIP3    H114193   4.202   4.335   2.946
 4743TIP3    H214194   4.264   4.306   2.811
 4744TIP3   OH214195   6.102   0.708   3.978
 4744TIP3    H114196   6.190   0.688   4.012
 4744TIP3    H214197   6.116   0.720   3.883
 4745TIP3   OH214198   0.558   2.773   0.726
 4745TIP3    H114199   0.573   2.697   0.783
 4745TIP3    H214200   0.644   2.795   0.692
 4746TIP3   OH214201   0.486   5.661   4.195
 4746TIP3    H114202   0.498   5.648   4.101
 4746TIP3    H214203   0.409   5.717   4.202
 4747TIP3   OH214204   2.019   3.298   3.921
 4747TIP3    H114205   2.014   3.243   3.999
 4747TIP3    H214206   1.956   3.259   3.860
 4748TIP3   OH214207   3.395   6.398   5.575
 4748TIP3    H114208   3.335   6.458   5.531
 4748TIP3    H214209   3.451   6.365   5.505
 4749TIP3   OH214210   0.546   4.241   2.160
 4749TIP3    H114211   0.454   4.213   2.156
 4749TIP3    H214212   0.595   4.160   2.171
 4750TIP3   OH214213   1.367   1.426   4.068
 4750TIP3    H114214   1.430   1.474   4.121
 4750TIP3    H214215   1.383   1.334   4.089
 4751TIP3   OH214216   0.744   2.107   3.934
 4751TIP3    H114217   0.768   2.193   3.968
 4751TIP3    H214218   0.815   2.084   3.874
 4752TIP3   OH214219   2.353   2.958   0.418
 4752TIP3    H114220   2.258   2.965   0.421
 4752TIP3    H214221   2.374   2.944   0.326
 4753TIP3   OH214222   6.994   3.593   4.856
 4753TIP3    H114223   6.938   3.518   4.878
 4753TIP3    H214224   7.032   3.570   4.772
 4754TIP3   OH214225   6.456   0.524   4.569
 4754TIP3    H114226   6.442   0.597   4.629
 4754TIP3    H214227   6.505   0.561   4.495
 4755TIP3   OH214228   6.900   2.720   5.063
 4755TIP3    H114229   6.917   2.648   5.003
 4755TIP3    H214230   6.927   2.688   5.149
 4756TIP3   OH214231   6.093   3.450   2.734
 4756TIP3    H114232   6.118   3.360   2.713
 4756TIP3    H214233   6.165   3.503   2.700
 4757TIP3   OH214234   5.879   2.650   2.660
 4757TIP3    H114235   5.877   2.640   2.755
 4757TIP3    H214236   5.972   2.661   2.639
 4758TIP3   OH214237   0.959   2.503   4.442
 4758TIP3    H114238   0.910   2.550   4.375
 4758TIP3    H214239   0.947   2.555   4.522
 4759TIP3   OH214240   3.238   0.812   0.087
 4759TIP3    H114241   3.160   0.858   0.119
 4759TIP3    H214242   3.207   0.760   0.014
 4760TIP3   OH214243   5.125   3.224   1.655
 4760TIP3    H114244   5.137   3.175   1.736
 4760TIP3    H214245   5.214   3.242   1.624
 4761TIP3   OH214246   3.642   4.236   2.721
 4761TIP3    H114247   3.591   4.186   2.657
 4761TIP3    H214248   3.674   4.170   2.782
 4762TIP3   OH214249   5.748   2.435   5.764
 4762TIP3    H114250   5.677   2.405   5.821
 4762TIP3    H214251   5.758   2.365   5.700
 4763TIP3   OH214252   3.252   4.711   1.495
 4763TIP3    H114253   3.294   4.641   1.545
 4763TIP3    H214254   3.163   4.679   1.480
 4764TIP3   OH214255   3.753   4.473   4.146
 4764TIP3    H114256   3.773   4.438   4.059
 4764TIP3    H214257   3.777   4.403   4.206
 4765TIP3   OH214258   5.577   5.714   2.079
 4765TIP3    H114259   5.506   5.672   2.127
 4765TIP3    H214260   5.577   5.671   1.993
 4766TIP3   OH214261   4.362   4.624   4.800
 4766TIP3    H114262   4.404   4.545   4.834
 4766TIP3    H214263   4.352   4.608   4.706
 4767TIP3   OH214264   0.940   2.410   0.870
 4767TIP3    H114265   0.935   2.500   0.902
 4767TIP3    H214266   0.993   2.365   0.936
 4768TIP3   OH214267   4.497   2.528   3.712
 4768TIP3    H114268   4.457   2.613   3.728
 4768TIP3    H214269   4.539   2.505   3.795
 4769TIP3   OH214270   5.868   2.956   1.672
 4769TIP3    H114271   5.821   2.975   1.753
 4769TIP3    H214272   5.872   2.860   1.668
 4770TIP3   OH214273   5.812   3.460   5.105
 4770TIP3    H114274   5.803   3.508   5.023
 4770TIP3    H214275   5.747   3.498   5.163
 4771TIP3   OH214276   3.644   0.471   5.528
 4771TIP3    H114277   3.701   0.545   5.511
 4771TIP3    H214278   3.565   0.489   5.477
 4772TIP3   OH214279   0.283   2.204   3.289
 4772TIP3    H114280   0.199   2.178   3.251
 4772TIP3    H214281   0.348   2.157   3.237
 4773TIP3   OH214282   2.336   3.079   2.752
 4773TIP3    H114283   2.332   3.174   2.754
 4773TIP3    H214284   2.259   3.053   2.703
 4774TIP3   OH214285   2.500   5.375   0.316
 4774TIP3    H114286   2.430   5.340   0.260
 4774TIP3    H214287   2.548   5.297   0.345
 4775TIP3   OH214288   7.015   4.956   3.205
 4775TIP3    H114289   6.934   4.915   3.237
 4775TIP3    H214290   6.991   5.048   3.193
 4776TIP3   OH214291   2.866   4.882   3.821
 4776TIP3    H114292   2.909   4.961   3.788
 4776TIP3    H214293   2.927   4.811   3.799
 4777TIP3   OH214294   2.800   3.996   0.329
 4777TIP3    H114295   2.803   3.902   0.311
 4777TIP3    H214296   2.784   4.002   0.423
 4778TIP3   OH214297   2.460   5.375   2.954
 4778TIP3    H114298   2.450   5.281   2.941
 4778TIP3    H214299   2.443   5.388   3.048
 4779TIP3   OH214300   4.501   5.505   2.565
 4779TIP3    H114301   4.548   5.493   2.648
 4779TIP3    H214302   4.433   5.570   2.585
 4780TIP3   OH214303   6.516   3.236   1.587
 4780TIP3    H114304   6.471   3.156   1.615
 4780TIP3    H214305   6.536   3.282   1.669
 4781TIP3   OH214306   4.790   2.602   0.937
 4781TIP3    H114307   4.776   2.693   0.965
 4781TIP3    H214308   4.885   2.591   0.937
 4782TIP3   OH214309   1.806   3.300   0.850
 4782TIP3    H114310   1.738   3.281   0.915
 4782TIP3    H214311   1.764   3.282   0.766
 4783TIP3   OH214312   0.787   5.656   4.231
 4783TIP3    H114313   0.801   5.639   4.324
 4783TIP3    H214314   0.692   5.650   4.220
 4784TIP3   OH214315   6.754   3.034   1.852
 4784TIP3    H114316   6.803   2.951   1.859
 4784TIP3    H214317   6.778   3.083   1.931
 4785TIP3   OH214318   2.572   5.601   4.959
 4785TIP3    H114319   2.667   5.592   4.960
 4785TIP3    H214320   2.554   5.661   4.887
 4786TIP3   OH214321   6.708   3.254   4.389
 4786TIP3    H114322   6.747   3.167   4.396
 4786TIP3    H214323   6.758   3.298   4.320
 4787TIP3   OH214324   6.082   4.151   2.411
 4787TIP3    H114325   6.020   4.220   2.434
 4787TIP3    H214326   6.149   4.156   2.479
 4788TIP3   OH214327   5.054   1.754  -0.013
 4788TIP3    H114328   5.051   1.847   0.007
 4788TIP3    H214329   5.029   1.710   0.069
 4789TIP3   OH214330   0.045   5.913   5.384
 4789TIP3    H114331   0.001   5.891   5.467
 4789TIP3    H214332   0.050   5.829   5.338
 4790TIP3   OH214333   1.726   3.398   1.403
 4790TIP3    H114334   1.667   3.459   1.359
 4790TIP3    H214335   1.671   3.322   1.424
 4791TIP3   OH214336   2.329   1.093   5.115
 4791TIP3    H114337   2.273   1.093   5.192
 4791TIP3    H214338   2.289   1.028   5.057
 4792TIP3   OH214339   6.930   2.449   4.609
 4792TIP3    H114340   6.989   2.522   4.587
 4792TIP3    H214341   6.901   2.415   4.525
 4793TIP3   OH214342   4.877   0.167   4.517
 4793TIP3    H114343   4.808   0.139   4.577
 4793TIP3    H214344   4.886   0.261   4.533
 4794TIP3   OH214345   3.201   1.213   0.097
 4794TIP3    H114346   3.113   1.205   0.133
 4794TIP3    H214347   3.195   1.174   0.009
 4795TIP3   OH214348   5.761   4.357   4.657
 4795TIP3    H114349   5.807   4.427   4.609
 4795TIP3    H214350   5.678   4.397   4.682
 4796TIP3   OH214351   4.099   4.289   0.164
 4796TIP3    H114352   4.167   4.328   0.219
 4796TIP3    H214353   4.147   4.245   0.094
 4797TIP3   OH214354   5.691   6.483   0.259
 4797TIP3    H114355   5.632   6.546   0.300
 4797TIP3    H214356   5.707   6.518   0.172
 4798TIP3   OH214357   1.182   2.393   1.559
 4798TIP3    H114358   1.206   2.406   1.467
 4798TIP3    H214359   1.093   2.358   1.555
 4799TIP3   OH214360   0.720   3.601   1.262
 4799TIP3    H114361   0.638   3.631   1.223
 4799TIP3    H214362   0.706   3.609   1.356
 4800TIP3   OH214363   6.552   0.075   1.437
 4800TIP3    H114364   6.478   0.068   1.376
 4800TIP3    H214365   6.513   0.060   1.523
 4801TIP3   OH214366   5.395   3.437   1.705
 4801TIP3    H114367   5.354   3.383   1.772
 4801TIP3    H214368   5.447   3.500   1.754
 4802TIP3   OH214369   2.739   6.625   2.695
 4802TIP3    H114370   2.730   6.709   2.739
 4802TIP3    H214371   2.652   6.608   2.658
 4803TIP3   OH214372   3.874   4.905   3.111
 4803TIP3    H114373   3.893   4.925   3.203
 4803TIP3    H214374   3.808   4.836   3.115
 4804TIP3   OH214375   2.789   2.470   3.583
 4804TIP3    H114376   2.792   2.563   3.604
 4804TIP3    H214377   2.860   2.431   3.634
 4805TIP3   OH214378   3.508   3.924   1.759
 4805TIP3    H114379   3.495   3.884   1.845
 4805TIP3    H214380   3.549   4.009   1.779
 4806TIP3   OH214381   7.106   6.009   1.571
 4806TIP3    H114382   7.050   5.963   1.509
 4806TIP3    H214383   7.076   6.100   1.567
 4807TIP3   OH214384   1.143   1.835   3.593
 4807TIP3    H114385   1.104   1.828   3.680
 4807TIP3    H214386   1.205   1.907   3.600
 4808TIP3   OH214387   6.658   1.458   2.757
 4808TIP3    H114388   6.674   1.516   2.683
 4808TIP3    H214389   6.676   1.512   2.834
 4809TIP3   OH214390   2.737   0.230   0.037
 4809TIP3    H114391   2.726   0.289   0.112
 4809TIP3    H214392   2.648   0.202   0.015
 4810TIP3   OH214393   5.530   4.964  -0.013
 4810TIP3    H114394   5.562   4.874  -0.019
 4810TIP3    H214395   5.583   5.004   0.056
 4811TIP3   OH214396   6.947   1.562   1.321
 4811TIP3    H114397   6.949   1.607   1.237
 4811TIP3    H214398   6.914   1.628   1.382
 4812TIP3   OH214399   1.682   6.702   3.888
 4812TIP3    H114400   1.732   6.640   3.835
 4812TIP3    H214401   1.632   6.647   3.948
 4813TIP3   OH214402   5.896   2.536   2.936
 4813TIP3    H114403   5.853   2.458   2.972
 4813TIP3    H214404   5.980   2.504   2.904
 4814TIP3   OH214405   2.730   5.895   3.611
 4814TIP3    H114406   2.783   5.879   3.689
 4814TIP3    H214407   2.742   5.816   3.558
 4815TIP3   OH214408   5.513   1.539   0.218
 4815TIP3    H114409   5.421   1.561   0.203
 4815TIP3    H214410   5.516   1.443   0.215
 4816TIP3   OH214411   4.470   2.395   4.916
 4816TIP3    H114412   4.423   2.353   4.844
 4816TIP3    H214413   4.406   2.399   4.987
 4817TIP3   OH214414   4.706   6.179   5.088
 4817TIP3    H114415   4.729   6.105   5.144
 4817TIP3    H214416   4.671   6.245   5.148
 4818TIP3   OH214417   5.934   0.296   3.281
 4818TIP3    H114418   5.973   0.378   3.250
 4818TIP3    H214419   5.881   0.266   3.208
 4819TIP3   OH214420   3.904   4.254   0.907
 4819TIP3    H114421   3.917   4.287   0.996
 4819TIP3    H214422   3.811   4.232   0.903
 4820TIP3   OH214423   4.762   5.005   5.576
 4820TIP3    H114424   4.769   4.978   5.668
 4820TIP3    H214425   4.725   5.093   5.580
 4821TIP3   OH214426   2.774   3.361   5.173
 4821TIP3    H114427   2.769   3.266   5.165
 4821TIP3    H214428   2.719   3.394   5.102
 4822TIP3   OH214429   4.829   2.841   2.824
 4822TIP3    H114430   4.811   2.792   2.744
 4822TIP3    H214431   4.903   2.796   2.864
 4823TIP3   OH214432   5.404   3.419   2.121
 4823TIP3    H114433   5.406   3.351   2.054
 4823TIP3    H214434   5.447   3.378   2.197
 4824TIP3   OH214435   1.756   6.472   5.088
 4824TIP3    H114436   1.820   6.529   5.044
 4824TIP3    H214437   1.802   6.439   5.165
 4825TIP3   OH214438   7.036   2.097   2.959
 4825TIP3    H114439   6.970   2.099   3.028
 4825TIP3    H214440   7.006   2.162   2.895
 4826TIP3   OH214441   7.004   4.721   4.561
 4826TIP3    H114442   7.017   4.640   4.512
 4826TIP3    H214443   7.019   4.697   4.652
 4827TIP3   OH214444   0.213   0.305   0.861
 4827TIP3    H114445   0.145   0.371   0.848
 4827TIP3    H214446   0.169   0.222   0.841
 4828TIP3   OH214447   0.764   5.558   4.494
 4828TIP3    H114448   0.837   5.546   4.555
 4828TIP3    H214449   0.719   5.474   4.494
 4829TIP3   OH214450   3.614   5.329   4.292
 4829TIP3    H114451   3.642   5.353   4.380
 4829TIP3    H214452   3.650   5.241   4.278
 4830TIP3   OH214453   6.570   0.914   2.675
 4830TIP3    H114454   6.506   0.844   2.661
 4830TIP3    H214455   6.520   0.985   2.716
 4831TIP3   OH214456   2.951   4.517   4.157
 4831TIP3    H114457   3.011   4.448   4.130
 4831TIP3    H214458   3.007   4.583   4.198
 4832TIP3   OH214459   0.077   1.925   0.627
 4832TIP3    H114460   0.147   1.864   0.607
 4832TIP3    H214461   0.056   1.908   0.719
 4833TIP3   OH214462   4.811   1.273   3.917
 4833TIP3    H114463   4.800   1.349   3.975
 4833TIP3    H214464   4.793   1.307   3.829
 4834TIP3   OH214465   4.855   0.657   0.062
 4834TIP3    H114466   4.942   0.697   0.062
 4834TIP3    H214467   4.795   0.729   0.080
 4835TIP3   OH214468   4.888   4.789   2.555
 4835TIP3    H114469   4.832   4.738   2.614
 4835TIP3    H214470   4.885   4.878   2.591
 4836TIP3   OH214471  -0.011   2.136   1.103
 4836TIP3    H114472   0.037   2.219   1.100
 4836TIP3    H214473  -0.101   2.161   1.126
 4837TIP3   OH214474   3.438   3.108   1.753
 4837TIP3    H114475   3.380   3.177   1.785
 4837TIP3    H214476   3.462   3.136   1.664
 4838TIP3   OH214477   2.319   3.532   3.507
 4838TIP3    H114478   2.289   3.441   3.512
 4838TIP3    H214479   2.391   3.537   3.569
 4839TIP3   OH214480   2.988   0.499   3.936
 4839TIP3    H114481   3.059   0.455   3.983
 4839TIP3    H214482   3.032   0.553   3.870
 4840TIP3   OH214483   2.964   1.585   2.748
 4840TIP3    H114484   2.975   1.574   2.654
 4840TIP3    H214485   2.916   1.507   2.776
 4841TIP3   OH214486   3.336   5.632   0.418
 4841TIP3    H114487   3.369   5.677   0.495
 4841TIP3    H214488   3.277   5.564   0.453
 4842TIP3   OH214489   4.657   4.755   4.123
 4842TIP3    H114490   4.636   4.836   4.078
 4842TIP3    H214491   4.690   4.697   4.054
 4843TIP3   OH214492   3.668   4.171   1.413
 4843TIP3    H114493   3.716   4.176   1.331
 4843TIP3    H214494   3.684   4.082   1.445
 4844TIP3   OH214495   1.239   4.018   0.817
 4844TIP3    H114496   1.180   3.958   0.864
 4844TIP3    H214497   1.251   4.092   0.876
 4845TIP3   OH214498   0.403   4.756   1.748
 4845TIP3    H114499   0.440   4.817   1.812
 4845TIP3    H214500   0.464   4.683   1.748
 4846TIP3   OH214501   4.230   2.401   5.043
 4846TIP3    H114502   4.205   2.424   5.133
 4846TIP3    H214503   4.148   2.381   5.000
 4847TIP3   OH214504   3.853   1.980   5.557
 4847TIP3    H114505   3.828   2.072   5.563
 4847TIP3    H214506   3.772   1.932   5.577
 4848TIP3   OH214507   6.776   6.070   5.625
 4848TIP3    H114508   6.830   5.998   5.594
 4848TIP3    H214509   6.691   6.057   5.583
 4849TIP3   OH214510   4.947   0.769   0.754
 4849TIP3    H114511   4.873   0.719   0.789
 4849TIP3    H214512   5.003   0.703   0.713
 4850TIP3   OH214513   0.896   5.594   1.294
 4850TIP3    H114514   0.851   5.583   1.210
 4850TIP3    H214515   0.987   5.570   1.276
 4851TIP3   OH214516   2.029   5.059   1.485
 4851TIP3    H114517   2.079   5.135   1.513
 4851TIP3    H214518   1.994   5.021   1.566
 4852TIP3   OH214519   2.311   0.935   3.932
 4852TIP3    H114520   2.260   0.969   4.005
 4852TIP3    H214521   2.402   0.935   3.963
 4853TIP3   OH214522   2.948   6.328   4.189
 4853TIP3    H114523   3.040   6.307   4.178
 4853TIP3    H214524   2.943   6.423   4.179
 4854TIP3   OH214525   4.767   1.504   4.088
 4854TIP3    H114526   4.837   1.513   4.153
 4854TIP3    H214527   4.764   1.589   4.044
 4855TIP3   OH214528   0.216   0.987   1.323
 4855TIP3    H114529   0.272   0.963   1.249
 4855TIP3    H214530   0.138   0.932   1.314
 4856TIP3   OH214531   7.052   6.356   4.221
 4856TIP3    H114532   6.970   6.308   4.209
 4856TIP3    H214533   7.033   6.444   4.188
 4857TIP3   OH214534   3.243   2.356   2.080
 4857TIP3    H114535   3.331   2.322   2.063
 4857TIP3    H214536   3.258   2.437   2.129
 4858TIP3   OH214537   2.810   1.853   4.751
 4858TIP3    H114538   2.792   1.877   4.660
 4858TIP3    H214539   2.744   1.899   4.802
 4859TIP3   OH214540   6.319   4.123   2.572
 4859TIP3    H114541   6.377   4.050   2.552
 4859TIP3    H214542   6.377   4.200   2.570
 4860TIP3   OH214543   1.427   6.191   4.697
 4860TIP3    H114544   1.384   6.234   4.623
 4860TIP3    H214545   1.386   6.229   4.774
 4861TIP3   OH214546   2.032   4.662   4.239
 4861TIP3    H114547   1.980   4.742   4.249
 4861TIP3    H214548   2.080   4.654   4.321
 4862TIP3   OH214549   6.364   4.938   1.180
 4862TIP3    H114550   6.363   4.844   1.200
 4862TIP3    H214551   6.277   4.955   1.144
 4863TIP3   OH214552   5.130   2.393   1.248
 4863TIP3    H114553   5.083   2.434   1.321
 4863TIP3    H214554   5.217   2.433   1.250
 4864TIP3   OH214555   1.373   3.806   1.412
 4864TIP3    H114556   1.295   3.784   1.463
 4864TIP3    H214557   1.340   3.857   1.339
 4865TIP3   OH214558   6.836   3.926   2.046
 4865TIP3    H114559   6.879   3.977   2.115
 4865TIP3    H214560   6.850   3.978   1.966
 4866TIP3   OH214561   5.199   0.339   2.713
 4866TIP3    H114562   5.160   0.324   2.800
 4866TIP3    H214563   5.290   0.311   2.723
 4867TIP3   OH214564   0.425   4.068   1.865
 4867TIP3    H114565   0.384   4.104   1.786
 4867TIP3    H214566   0.377   4.108   1.937
 4868TIP3   OH214567   4.813   2.677   5.809
 4868TIP3    H114568   4.840   2.716   5.727
 4868TIP3    H214569   4.728   2.638   5.790
 4869TIP3   OH214570   0.870   5.661   3.354
 4869TIP3    H114571   0.904   5.720   3.287
 4869TIP3    H214572   0.787   5.700   3.381
 4870TIP3   OH214573   4.311   1.938   5.591
 4870TIP3    H114574   4.245   1.869   5.591
 4870TIP3    H214575   4.269   2.012   5.548
 4871TIP3   OH214576   1.327   4.350   1.526
 4871TIP3    H114577   1.337   4.336   1.432
 4871TIP3    H214578   1.233   4.368   1.537
 4872TIP3   OH214579   3.619   4.686   4.714
 4872TIP3    H114580   3.681   4.679   4.787
 4872TIP3    H214581   3.651   4.622   4.650
 4873TIP3   OH214582   4.787   6.618   4.949
 4873TIP3    H114583   4.754   6.530   4.928
 4873TIP3    H214584   4.724   6.677   4.908
 4874TIP3   OH214585   6.363   6.449   1.409
 4874TIP3    H114586   6.267   6.445   1.405
 4874TIP3    H214587   6.393   6.396   1.335
 4875TIP3   OH214588   5.293   0.057   4.329
 4875TIP3    H114589   5.323   0.117   4.397
 4875TIP3    H214590   5.217   0.013   4.366
 4876TIP3   OH214591   2.836   1.605   2.375
 4876TIP3    H114592   2.913   1.642   2.416
 4876TIP3    H214593   2.788   1.564   2.447
 4877TIP3   OH214594   2.166   4.751   3.563
 4877TIP3    H114595   2.233   4.818   3.554
 4877TIP3    H214596   2.213   4.668   3.554
 4878TIP3   OH214597   0.401   6.159   3.368
 4878TIP3    H114598   0.428   6.067   3.367
 4878TIP3    H214599   0.345   6.166   3.446
 4879TIP3   OH214600   0.648   4.212   0.342
 4879TIP3    H114601   0.562   4.197   0.381
 4879TIP3    H214602   0.654   4.147   0.272
 4880TIP3   OH214603   3.644   4.747   0.133
 4880TIP3    H114604   3.694   4.680   0.086
 4880TIP3    H214605   3.568   4.700   0.167
 4881TIP3   OH214606   5.550   5.061   3.967
 4881TIP3    H114607   5.564   4.970   3.993
 4881TIP3    H214608   5.561   5.111   4.047
 4882TIP3   OH214609   4.219   0.956   0.207
 4882TIP3    H114610   4.184   0.909   0.283
 4882TIP3    H214611   4.211   0.894   0.135
 4883TIP3   OH214612   3.761   0.019   2.354
 4883TIP3    H114613   3.829  -0.048   2.340
 4883TIP3    H214614   3.731   0.004   2.443
 4884TIP3   OH214615   5.574   6.173   4.900
 4884TIP3    H114616   5.511   6.233   4.942
 4884TIP3    H214617   5.644   6.230   4.870
 4885TIP3   OH214618   2.822   5.253   4.854
 4885TIP3    H114619   2.913   5.222   4.856
 4885TIP3    H214620   2.805   5.271   4.761
 4886TIP3   OH214621   5.732   0.887   3.540
 4886TIP3    H114622   5.753   0.849   3.626
 4886TIP3    H214623   5.778   0.832   3.477
 4887TIP3   OH214624   6.481   6.734   4.545
 4887TIP3    H114625   6.576   6.723   4.541
 4887TIP3    H214626   6.466   6.779   4.629
 4888TIP3   OH214627   3.063   2.047   5.717
 4888TIP3    H114628   2.968   2.055   5.729
 4888TIP3    H214629   3.082   1.955   5.732
 4889TIP3   OH214630   5.822   5.939   2.942
 4889TIP3    H114631   5.903   5.909   2.984
 4889TIP3    H214632   5.756   5.874   2.969
 4890TIP3   OH214633   5.747   6.233   0.100
 4890TIP3    H114634   5.676   6.265   0.044
 4890TIP3    H214635   5.737   6.283   0.181
 4891TIP3   OH214636   1.445   2.474   0.587
 4891TIP3    H114637   1.450   2.454   0.680
 4891TIP3    H214638   1.535   2.489   0.560
 4892TIP3   OH214639   2.736   0.491   5.072
 4892TIP3    H114640   2.781   0.412   5.043
 4892TIP3    H214641   2.747   0.553   5.000
 4893TIP3   OH214642   2.911   1.749   4.025
 4893TIP3    H114643   2.821   1.740   3.994
 4893TIP3    H214644   2.924   1.674   4.083
 4894TIP3   OH214645   6.371   2.996   4.090
 4894TIP3    H114646   6.330   2.978   4.006
 4894TIP3    H214647   6.400   3.087   4.083
 4895TIP3   OH214648   5.867   5.596   0.574
 4895TIP3    H114649   5.900   5.686   0.573
 4895TIP3    H214650   5.890   5.564   0.661
 4896TIP3   OH214651   0.494   5.321   1.135
 4896TIP3    H114652   0.412   5.301   1.180
 4896TIP3    H214653   0.541   5.378   1.196
 4897TIP3   OH214654   3.025   2.633   0.671
 4897TIP3    H114655   3.059   2.646   0.760
 4897TIP3    H214656   2.935   2.665   0.676
 4898TIP3   OH214657   1.701   4.021   5.493
 4898TIP3    H114658   1.631   4.064   5.541
 4898TIP3    H214659   1.662   3.997   5.409
 4899TIP3   OH214660   2.997   3.785   4.337
 4899TIP3    H114661   2.980   3.873   4.303
 4899TIP3    H214662   2.966   3.726   4.269
 4900TIP3   OH214663   0.673   6.394   0.441
 4900TIP3    H114664   0.712   6.373   0.526
 4900TIP3    H214665   0.677   6.311   0.392
 4901TIP3   OH214666   2.135   6.678   3.052
 4901TIP3    H114667   2.179   6.612   3.106
 4901TIP3    H214668   2.048   6.686   3.091
 4902TIP3   OH214669   6.183   6.623   3.772
 4902TIP3    H114670   6.277   6.623   3.791
 4902TIP3    H214671   6.166   6.709   3.735
 4903TIP3   OH214672   6.560   5.708   3.373
 4903TIP3    H114673   6.558   5.617   3.346
 4903TIP3    H214674   6.606   5.753   3.301
 4904TIP3   OH214675   1.274   2.041   1.917
 4904TIP3    H114676   1.331   1.985   1.969
 4904TIP3    H214677   1.247   2.111   1.977
 4905TIP3   OH214678   0.795   3.592   2.352
 4905TIP3    H114679   0.748   3.509   2.354
 4905TIP3    H214680   0.727   3.659   2.352
 4906TIP3   OH214681   6.225   3.220   1.733
 4906TIP3    H114682   6.243   3.293   1.792
 4906TIP3    H214683   6.237   3.142   1.787
 4907TIP3   OH214684   6.853   5.129   2.158
 4907TIP3    H114685   6.918   5.060   2.169
 4907TIP3    H214686   6.770   5.088   2.183
 4908TIP3   OH214687   2.119   6.645   5.363
 4908TIP3    H114688   2.164   6.719   5.324
 4908TIP3    H214689   2.091   6.591   5.289
 4909TIP3   OH214690   1.529   3.548   2.397
 4909TIP3    H114691   1.581   3.615   2.441
 4909TIP3    H214692   1.444   3.590   2.383
 4910TIP3   OH214693   1.245   5.689   1.053
 4910TIP3    H114694   1.202   5.625   0.996
 4910TIP3    H214695   1.330   5.704   1.012
 4911TIP3   OH214696   0.172   4.106   4.196
 4911TIP3    H114697   0.215   4.024   4.220
 4911TIP3    H214698   0.215   4.132   4.115
 4912TIP3   OH214699   2.477   1.103   4.717
 4912TIP3    H114700   2.457   1.187   4.759
 4912TIP3    H214701   2.454   1.116   4.625
 4913TIP3   OH214702   6.289   1.700   2.299
 4913TIP3    H114703   6.365   1.740   2.340
 4913TIP3    H214704   6.213   1.739   2.343
 4914TIP3   OH214705   5.568   3.745   1.627
 4914TIP3    H114706   5.578   3.825   1.576
 4914TIP3    H214707   5.476   3.722   1.618
 4915TIP3   OH214708   0.647   5.648   1.671
 4915TIP3    H114709   0.583   5.715   1.645
 4915TIP3    H214710   0.624   5.571   1.619
 4916TIP3   OH214711   4.375   0.365   2.049
 4916TIP3    H114712   4.445   0.303   2.026
 4916TIP3    H214713   4.416   0.425   2.111
 4917TIP3   OH214714   4.187   1.622   0.976
 4917TIP3    H114715   4.251   1.635   1.045
 4917TIP3    H214716   4.209   1.687   0.910
 4918TIP3   OH214717   1.486   6.430   2.447
 4918TIP3    H114718   1.556   6.495   2.432
 4918TIP3    H214719   1.407   6.472   2.413
 4919TIP3   OH214720   1.732   3.058   2.118
 4919TIP3    H114721   1.661   2.994   2.114
 4919TIP3    H214722   1.811   3.007   2.102
 4920TIP3   OH214723   1.607   3.176   5.399
 4920TIP3    H114724   1.577   3.096   5.442
 4920TIP3    H214725   1.659   3.146   5.325
 4921TIP3   OH214726   6.008   2.183   1.600
 4921TIP3    H114727   6.099   2.200   1.576
 4921TIP3    H214728   5.975   2.267   1.631
 4922TIP3   OH214729   1.863   5.632   1.508
 4922TIP3    H114730   1.894   5.566   1.570
 4922TIP3    H214731   1.888   5.715   1.547
 4923TIP3   OH214732   0.742   2.576   0.136
 4923TIP3    H114733   0.667   2.627   0.166
 4923TIP3    H214734   0.767   2.522   0.212
 4924TIP3   OH214735   5.910   4.969   1.656
 4924TIP3    H114736   5.982   4.949   1.596
 4924TIP3    H214737   5.915   4.901   1.723
 4925TIP3   OH214738   0.140   2.679   3.319
 4925TIP3    H114739   0.165   2.632   3.239
 4925TIP3    H214740   0.052   2.713   3.301
 4926TIP3   OH214741   3.706   0.097   5.871
 4926TIP3    H114742   3.614   0.096   5.845
 4926TIP3    H214743   3.725   0.005   5.892
 4927TIP3   OH214744   3.871   6.548   1.836
 4927TIP3    H114745   3.966   6.558   1.826
 4927TIP3    H214746   3.836   6.637   1.828
 4928TIP3   OH214747   6.143   2.120   5.640
 4928TIP3    H114748   6.209   2.060   5.606
 4928TIP3    H214749   6.172   2.207   5.611
 4929TIP3   OH214750   1.049   3.057   1.963
 4929TIP3    H114751   1.036   3.137   1.911
 4929TIP3    H214752   1.144   3.047   1.968
 4930TIP3   OH214753   3.748   3.305   3.131
 4930TIP3    H114754   3.661   3.329   3.162
 4930TIP3    H214755   3.731   3.253   3.052
 4931TIP3   OH214756   6.515   1.804   3.583
 4931TIP3    H114757   6.491   1.772   3.670
 4931TIP3    H214758   6.435   1.795   3.531
 4932TIP3   OH214759   1.100   1.869   5.811
 4932TIP3    H114760   1.076   1.848   5.901
 4932TIP3    H214761   1.039   1.938   5.786
 4933TIP3   OH214762   0.058   0.541   5.128
 4933TIP3    H114763   0.108   0.474   5.175
 4933TIP3    H214764  -0.033   0.527   5.157
 4934TIP3   OH214765   2.772   4.010   2.948
 4934TIP3    H114766   2.765   4.044   2.859
 4934TIP3    H214767   2.859   3.970   2.952
 4935TIP3   OH214768   5.673   3.155   3.252
 4935TIP3    H114769   5.617   3.228   3.278
 4935TIP3    H214770   5.683   3.103   3.332
 4936TIP3   OH214771   1.297   5.383   4.314
 4936TIP3    H114772   1.353   5.444   4.363
 4936TIP3    H214773   1.248   5.336   4.382
 4937TIP3   OH214774   4.597   4.555   2.068
 4937TIP3    H114775   4.692   4.544   2.077
 4937TIP3    H214776   4.576   4.627   2.128
 4938TIP3   OH214777   6.936   6.789   3.512
 4938TIP3    H114778   6.986   6.866   3.485
 4938TIP3    H214779   6.869   6.779   3.444
 4939TIP3   OH214780   2.515   2.298   5.096
 4939TIP3    H114781   2.469   2.248   5.028
 4939TIP3    H214782   2.536   2.381   5.054
 4940TIP3   OH214783   4.266   5.031   1.522
 4940TIP3    H114784   4.287   4.986   1.440
 4940TIP3    H214785   4.215   4.967   1.571
 4941TIP3   OH214786   2.449   4.213   5.745
 4941TIP3    H114787   2.544   4.220   5.759
 4941TIP3    H214788   2.421   4.302   5.724
 4942TIP3   OH214789   4.894   5.847   1.471
 4942TIP3    H114790   4.958   5.855   1.542
 4942TIP3    H214791   4.835   5.777   1.499
 4943TIP3   OH214792   5.943   5.351   2.680
 4943TIP3    H114793   5.974   5.395   2.760
 4943TIP3    H214794   5.986   5.398   2.609
 4944TIP3   OH214795   3.502   1.178   4.794
 4944TIP3    H114796   3.570   1.113   4.781
 4944TIP3    H214797   3.439   1.136   4.853
 4945TIP3   OH214798   2.612   3.393   2.754
 4945TIP3    H114799   2.688   3.337   2.735
 4945TIP3    H214800   2.650   3.479   2.773
 4946TIP3   OH214801   6.846   5.122   2.558
 4946TIP3    H114802   6.815   5.043   2.512
 4946TIP3    H214803   6.767   5.162   2.593
 4947TIP3   OH214804   2.688   1.287   4.973
 4947TIP3    H114805   2.768   1.340   4.964
 4947TIP3    H214806   2.626   1.327   4.913
 4948TIP3   OH214807   3.635   2.198   0.589
 4948TIP3    H114808   3.633   2.289   0.618
 4948TIP3    H214809   3.624   2.203   0.494
 4949TIP3   OH214810   2.612   4.679   5.003
 4949TIP3    H114811   2.554   4.628   4.946
 4949TIP3    H214812   2.562   4.692   5.083
 4950TIP3   OH214813   6.501   0.250   2.946
 4950TIP3    H114814   6.451   0.193   3.004
 4950TIP3    H214815   6.507   0.333   2.992
 4951TIP3   OH214816   1.707   0.278   2.981
 4951TIP3    H114817   1.617   0.252   2.960
 4951TIP3    H214818   1.747   0.295   2.896
 4952TIP3   OH214819   2.166   4.615   4.944
 4952TIP3    H114820   2.109   4.688   4.968
 4952TIP3    H214821   2.157   4.553   5.017
 4953TIP3   OH214822   0.460   0.266   2.600
 4953TIP3    H114823   0.522   0.340   2.601
 4953TIP3    H214824   0.514   0.191   2.575
 4954TIP3   OH214825   2.327   6.660   1.181
 4954TIP3    H114826   2.414   6.621   1.170
 4954TIP3    H214827   2.275   6.591   1.224
 4955TIP3   OH214828   4.660   1.411   2.579
 4955TIP3    H114829   4.682   1.421   2.672
 4955TIP3    H214830   4.672   1.498   2.542
 4956TIP3   OH214831   4.778   4.384   0.350
 4956TIP3    H114832   4.697   4.366   0.302
 4956TIP3    H214833   4.838   4.417   0.283
 4957TIP3   OH214834   3.340   1.322   1.348
 4957TIP3    H114835   3.422   1.311   1.395
 4957TIP3    H214836   3.276   1.345   1.416
 4958TIP3   OH214837   2.260   4.875   4.166
 4958TIP3    H114838   2.167   4.872   4.186
 4958TIP3    H214839   2.303   4.856   4.249
 4959TIP3   OH214840   4.406   6.323   1.827
 4959TIP3    H114841   4.430   6.233   1.848
 4959TIP3    H214842   4.332   6.316   1.767
 4960TIP3   OH214843   6.049   5.326   0.941
 4960TIP3    H114844   6.099   5.273   1.003
 4960TIP3    H214845   5.987   5.265   0.901
 4961TIP3   OH214846   5.286   4.143   3.116
 4961TIP3    H114847   5.342   4.205   3.070
 4961TIP3    H214848   5.206   4.193   3.134
 4962TIP3   OH214849   0.600   5.825   3.868
 4962TIP3    H114850   0.570   5.746   3.823
 4962TIP3    H214851   0.540   5.834   3.942
 4963TIP3   OH214852   4.259   4.055   2.082
 4963TIP3    H114853   4.323   3.984   2.071
 4963TIP3    H214854   4.266   4.107   2.003
 4964TIP3   OH214855   1.893   1.936   3.341
 4964TIP3    H114856   1.928   1.861   3.293
 4964TIP3    H214857   1.882   1.904   3.431
 4965TIP3   OH214858   2.891   6.607   5.833
 4965TIP3    H114859   2.806   6.638   5.802
 4965TIP3    H214860   2.874   6.517   5.862
 4966TIP3   OH214861   2.983   0.433   0.972
 4966TIP3    H114862   2.944   0.415   0.886
 4966TIP3    H214863   2.938   0.511   1.003
 4967TIP3   OH214864   4.977   3.416   4.369
 4967TIP3    H114865   4.930   3.490   4.407
 4967TIP3    H214866   4.983   3.437   4.276
 4968TIP3   OH214867   3.257   4.619   4.930
 4968TIP3    H114868   3.213   4.704   4.927
 4968TIP3    H214869   3.263   4.592   4.838
 4969TIP3   OH214870   5.414   3.800  -0.002
 4969TIP3    H114871   5.499   3.841  -0.016
 4969TIP3    H214872   5.434   3.711   0.025
 4970TIP3   OH214873   1.603   3.383   5.561
 4970TIP3    H114874   1.586   3.306   5.507
 4970TIP3    H214875   1.676   3.356   5.618
 4971TIP3   OH214876   0.835   0.767   0.351
 4971TIP3    H114877   0.924   0.731   0.341
 4971TIP3    H214878   0.838   0.814   0.434
 4972TIP3   OH214879   4.044   5.655   0.152
 4972TIP3    H114880   3.956   5.664   0.188
 4972TIP3    H214881   4.031   5.656   0.057
 4973TIP3   OH214882   1.323   5.971   3.705
 4973TIP3    H114883   1.408   6.010   3.726
 4973TIP3    H214884   1.259   6.035   3.737
 4974TIP3   OH214885   1.142   1.076   4.993
 4974TIP3    H114886   1.120   1.152   5.047
 4974TIP3    H214887   1.060   1.051   4.950
 4975TIP3   OH214888   5.962   6.657   0.572
 4975TIP3    H114889   5.975   6.711   0.650
 4975TIP3    H214890   5.965   6.719   0.499
 4976TIP3   OH214891   6.518   1.275   5.401
 4976TIP3    H114892   6.558   1.337   5.340
 4976TIP3    H214893   6.578   1.273   5.476
 4977TIP3   OH214894   7.150   4.552   3.698
 4977TIP3    H114895   7.066   4.596   3.712
 4977TIP3    H214896   7.132   4.460   3.718
 4978TIP3   OH214897   4.342   6.037   2.447
 4978TIP3    H114898   4.395   5.964   2.416
 4978TIP3    H214899   4.386   6.066   2.527
 4979TIP3   OH214900   5.284   6.787   2.840
 4979TIP3    H114901   5.196   6.751   2.841
 4979TIP3    H214902   5.273   6.879   2.863
 4980TIP3   OH214903   7.252   2.202   0.112
 4980TIP3    H114904   7.246   2.240   0.200
 4980TIP3    H214905   7.236   2.276   0.053
 4981TIP3   OH214906  -0.015   5.664   2.851
 4981TIP3    H114907   0.065   5.688   2.804
 4981TIP3    H214908   0.005   5.681   2.943
 4982TIP3   OH214909   2.857   0.784   0.389
 4982TIP3    H114910   2.923   0.818   0.449
 4982TIP3    H214911   2.774   0.807   0.430
 4983TIP3   OH214912   0.153   3.881   3.818
 4983TIP3    H114913   0.095   3.957   3.823
 4983TIP3    H214914   0.234   3.909   3.861
 4984TIP3   OH214915   6.135   5.158   5.091
 4984TIP3    H114916   6.116   5.103   5.015
 4984TIP3    H214917   6.053   5.160   5.140
 4985TIP3   OH214918   1.029   4.131   0.350
 4985TIP3    H114919   1.026   4.089   0.264
 4985TIP3    H214920   1.020   4.224   0.331
 4986TIP3   OH214921   7.076   6.237   5.430
 4986TIP3    H114922   7.103   6.233   5.338
 4986TIP3    H214923   6.986   6.205   5.430
 4987TIP3   OH214924   2.701   1.441   1.760
 4987TIP3    H114925   2.688   1.430   1.854
 4987TIP3    H214926   2.787   1.404   1.743
 4988TIP3   OH214927   4.938   3.125   4.975
 4988TIP3    H114928   4.886   3.045   4.976
 4988TIP3    H214929   4.898   3.179   4.907
 4989TIP3   OH214930   2.854   1.830   2.663
 4989TIP3    H114931   2.888   1.764   2.724
 4989TIP3    H214932   2.927   1.890   2.649
 4990TIP3   OH214933   2.668   1.304   3.296
 4990TIP3    H114934   2.724   1.243   3.345
 4990TIP3    H214935   2.615   1.346   3.363
 4991TIP3   OH214936   2.929   3.801   2.401
 4991TIP3    H114937   3.003   3.820   2.343
 4991TIP3    H214938   2.959   3.728   2.455
 4992TIP3   OH214939   2.731   5.094   0.364
 4992TIP3    H114940   2.735   5.097   0.459
 4992TIP3    H214941   2.722   5.001   0.343
 4993TIP3   OH214942   2.486   3.193   0.073
 4993TIP3    H114943   2.526   3.115   0.035
 4993TIP3    H214944   2.455   3.243  -0.003
 4994TIP3   OH214945   0.501   1.385   0.100
 4994TIP3    H114946   0.587   1.407   0.065
 4994TIP3    H214947   0.441   1.399   0.027
 4995TIP3   OH214948   2.821   3.407   5.565
 4995TIP3    H114949   2.916   3.397   5.558
 4995TIP3    H214950   2.797   3.350   5.638
 4996TIP3   OH214951   0.715   0.276   1.353
 4996TIP3    H114952   0.648   0.344   1.364
 4996TIP3    H214953   0.675   0.197   1.387
 4997TIP3   OH214954   0.475   3.705   1.188
 4997TIP3    H114955   0.489   3.781   1.132
 4997TIP3    H214956   0.408   3.732   1.250
 4998TIP3   OH214957   7.204   0.499   5.424
 4998TIP3    H114958   7.159   0.465   5.346
 4998TIP3    H214959   7.174   0.442   5.495
 4999TIP3   OH214960   1.556   3.975   2.994
 4999TIP3    H114961   1.612   3.918   2.942
 4999TIP3    H214962   1.545   4.053   2.940
 5000TIP3   OH214963   4.186   4.115   0.411
 5000TIP3    H114964   4.101   4.134   0.450
 5000TIP3    H214965   4.166   4.078   0.325
 5001TIP3   OH214966   3.514   5.710   5.808
 5001TIP3    H114967   3.483   5.660   5.733
 5001TIP3    H214968   3.569   5.779   5.771
 5002TIP3   OH214969   4.841   3.412   2.244
 5002TIP3    H114970   4.750   3.392   2.225
 5002TIP3    H214971   4.890   3.368   2.175
 5003TIP3   OH214972   1.601   3.680   4.061
 5003TIP3    H114973   1.668   3.667   4.128
 5003TIP3    H214974   1.650   3.700   3.982
 5004TIP3   OH214975   1.029   5.257   0.197
 5004TIP3    H114976   0.973   5.281   0.123
 5004TIP3    H214977   1.001   5.314   0.268
 5005TIP3   OH214978   5.454   0.238   2.890
 5005TIP3    H114979   5.519   0.185   2.938
 5005TIP3    H214980   5.433   0.309   2.950
 5006TIP3   OH214981   1.455  -0.030   1.052
 5006TIP3    H114982   1.458  -0.016   1.146
 5006TIP3    H214983   1.446   0.057   1.014
 5007TIP3   OH214984   5.853   3.907   1.808
 5007TIP3    H114985   5.877   3.821   1.842
 5007TIP3    H214986   5.867   3.967   1.881
 5008TIP3   OH214987   0.005   1.912   0.312
 5008TIP3    H114988   0.037   1.972   0.243
 5008TIP3    H214989   0.047   1.943   0.392
 5009TIP3   OH214990   1.144   4.306   4.219
 5009TIP3    H114991   1.218   4.251   4.195
 5009TIP3    H214992   1.077   4.286   4.154
 5010TIP3   OH214993   4.132   5.947   4.483
 5010TIP3    H114994   4.211   5.930   4.433
 5010TIP3    H214995   4.060   5.926   4.423
 5011TIP3   OH214996   2.261   6.298   0.964
 5011TIP3    H114997   2.313   6.266   1.038
 5011TIP3    H214998   2.289   6.244   0.890
 5012TIP3   OH214999   1.270   4.621   2.103
 5012TIP3    H115000   1.237   4.603   2.015
 5012TIP3    H215001   1.319   4.543   2.127
 5013TIP3   OH215002   1.671   2.663   4.043
 5013TIP3    H115003   1.631   2.666   3.957
 5013TIP3    H215004   1.716   2.578   4.046
 5014TIP3   OH215005   1.674   0.235   4.740
 5014TIP3    H115006   1.613   0.301   4.707
 5014TIP3    H215007   1.673   0.247   4.835
 5015TIP3   OH215008   6.071   4.814   0.275
 5015TIP3    H115009   5.999   4.847   0.222
 5015TIP3    H215010   6.148   4.823   0.218
 5016TIP3   OH215011   1.109   2.771   3.549
 5016TIP3    H115012   1.193   2.725   3.553
 5016TIP3    H215013   1.062   2.728   3.478
 5017TIP3   OH215014   6.601   5.838   0.987
 5017TIP3    H115015   6.574   5.765   0.932
 5017TIP3    H215016   6.691   5.858   0.959
 5018TIP3   OH215017   7.024   2.874   1.928
 5018TIP3    H115018   6.957   2.815   1.962
 5018TIP3    H215019   7.107   2.836   1.957
 5019TIP3   OH215020   0.051   0.173   3.415
 5019TIP3    H115021   0.042   0.104   3.481
 5019TIP3    H215022   0.101   0.132   3.344
 5020TIP3   OH215023   0.732   5.939   5.332
 5020TIP3    H115024   0.698   6.007   5.390
 5020TIP3    H215025   0.660   5.877   5.322
 5021TIP3   OH215026   0.371   4.107   5.325
 5021TIP3    H115027   0.289   4.097   5.373
 5021TIP3    H215028   0.400   4.017   5.307
 5022TIP3   OH215029   5.412   5.037   3.578
 5022TIP3    H115030   5.376   5.108   3.526
 5022TIP3    H215031   5.385   4.957   3.531
 5023TIP3   OH215032   7.212   3.328   0.848
 5023TIP3    H115033   7.172   3.241   0.847
 5023TIP3    H215034   7.152   3.383   0.898
 5024TIP3   OH215035   4.723   6.680   1.489
 5024TIP3    H115036   4.771   6.702   1.568
 5024TIP3    H215037   4.633   6.664   1.519
 5025TIP3   OH215038   6.467   3.443   5.279
 5025TIP3    H115039   6.500   3.501   5.211
 5025TIP3    H215040   6.417   3.501   5.337
 5026TIP3   OH215041   0.207   4.623   4.832
 5026TIP3    H115042   0.295   4.587   4.845
 5026TIP3    H215043   0.213   4.712   4.866
 5027TIP3   OH215044   6.578   5.142   4.046
 5027TIP3    H115045   6.560   5.054   4.079
 5027TIP3    H215046   6.628   5.184   4.116
 5028TIP3   OH215047   3.902   1.748   3.136
 5028TIP3    H115048   3.883   1.698   3.215
 5028TIP3    H215049   3.946   1.686   3.078
 5029TIP3   OH215050   0.152   4.136   4.588
 5029TIP3    H115051   0.125   4.070   4.523
 5029TIP3    H215052   0.070   4.169   4.624
 5030TIP3   OH215053   6.997   1.938   4.393
 5030TIP3    H115054   6.984   1.872   4.326
 5030TIP3    H215055   6.998   2.021   4.345
 5031TIP3   OH215056   0.521   2.082   1.286
 5031TIP3    H115057   0.438   2.096   1.331
 5031TIP3    H215058   0.560   2.007   1.331
 5032TIP3   OH215059   4.903   0.519   3.947
 5032TIP3    H115060   4.903   0.531   4.042
 5032TIP3    H215061   4.871   0.602   3.912
 5033TIP3   OH215062   1.048   0.108   0.473
 5033TIP3    H115063   1.023   0.064   0.392
 5033TIP3    H215064   0.965   0.130   0.515
 5034TIP3   OH215065   6.841   6.031   2.287
 5034TIP3    H115066   6.902   5.988   2.348
 5034TIP3    H215067   6.856   6.125   2.300
 5035TIP3   OH215068   5.900   6.201   3.919
 5035TIP3    H115069   5.911   6.107   3.931
 5035TIP3    H215070   5.904   6.237   4.008
 5036TIP3   OH215071   1.715   2.040   1.700
 5036TIP3    H115072   1.671   1.971   1.650
 5036TIP3    H215073   1.644   2.087   1.743
 5037TIP3   OH215074   6.224   3.199   1.361
 5037TIP3    H115075   6.301   3.253   1.381
 5037TIP3    H215076   6.216   3.140   1.436
 5038TIP3   OH215077   1.887   1.449   5.173
 5038TIP3    H115078   1.832   1.503   5.229
 5038TIP3    H215079   1.891   1.497   5.090
 5039TIP3   OH215080   6.647   4.559   4.471
 5039TIP3    H115081   6.627   4.539   4.380
 5039TIP3    H215082   6.571   4.608   4.502
 5040TIP3   OH215083   4.505   1.595   4.346
 5040TIP3    H115084   4.454   1.623   4.270
 5040TIP3    H215085   4.578   1.546   4.309
 5041TIP3   OH215086   0.172   4.915   5.114
 5041TIP3    H115087   0.179   4.953   5.202
 5041TIP3    H215088   0.085   4.941   5.084
 5042TIP3   OH215089   5.374   1.384   0.764
 5042TIP3    H115090   5.377   1.317   0.832
 5042TIP3    H215091   5.286   1.421   0.770
 5043TIP3   OH215092   0.902   5.089   2.862
 5043TIP3    H115093   0.959   5.013   2.876
 5043TIP3    H215094   0.873   5.113   2.950
 5044TIP3   OH215095   6.416   0.408   3.362
 5044TIP3    H115096   6.423   0.353   3.441
 5044TIP3    H215097   6.494   0.386   3.311
 5045TIP3   OH215098   6.028   5.173   5.606
 5045TIP3    H115099   6.117   5.166   5.639
 5045TIP3    H215100   5.974   5.140   5.678
 5046TIP3   OH215101   1.694   5.311   4.400
 5046TIP3    H115102   1.650   5.238   4.355
 5046TIP3    H215103   1.749   5.351   4.332
 5047TIP3   OH215104   3.952   6.477   5.332
 5047TIP3    H115105   3.999   6.550   5.372
 5047TIP3    H215106   3.891   6.447   5.399
 5048TIP3   OH215107   0.708   1.882   1.402
 5048TIP3    H115108   0.644   1.811   1.396
 5048TIP3    H215109   0.735   1.883   1.494
 5049TIP3   OH215110   5.275   1.721   3.252
 5049TIP3    H115111   5.281   1.816   3.251
 5049TIP3    H215112   5.264   1.698   3.344
 5050TIP3   OH215113   1.245   4.852   1.051
 5050TIP3    H115114   1.249   4.760   1.027
 5050TIP3    H215115   1.328   4.869   1.095
 5051TIP3   OH215116   1.882   2.223   5.256
 5051TIP3    H115117   1.808   2.202   5.313
 5051TIP3    H215118   1.940   2.276   5.311
 5052TIP3   OH215119   5.285   4.221   4.624
 5052TIP3    H115120   5.331   4.184   4.549
 5052TIP3    H215121   5.194   4.194   4.613
 5053TIP3   OH215122   5.636   0.449   4.785
 5053TIP3    H115123   5.572   0.378   4.781
 5053TIP3    H215124   5.607   0.504   4.858
 5054TIP3   OH215125   4.697   6.374   5.610
 5054TIP3    H115126   4.703   6.294   5.558
 5054TIP3    H215127   4.607   6.377   5.640
 5055TIP3   OH215128   6.296   4.214   4.903
 5055TIP3    H115129   6.241   4.257   4.838
 5055TIP3    H215130   6.317   4.284   4.965
 5056TIP3   OH215131   5.711   1.236   1.187
 5056TIP3    H115132   5.741   1.209   1.100
 5056TIP3    H215133   5.720   1.332   1.187
 5057TIP3   OH215134   7.226   2.302   2.530
 5057TIP3    H115135   7.172   2.379   2.552
 5057TIP3    H215136   7.210   2.241   2.602
 5058TIP3   OH215137   5.306   6.859   0.208
 5058TIP3    H115138   5.237   6.878   0.271
 5058TIP3    H215139   5.365   6.800   0.253
 5059TIP3   OH215140   1.782   4.418   3.680
 5059TIP3    H115141   1.865   4.383   3.649
 5059TIP3    H215142   1.731   4.434   3.600
 5060TIP3   OH215143   2.765   0.788   4.500
 5060TIP3    H115144   2.827   0.716   4.513
 5060TIP3    H215145   2.712   0.761   4.426
 5061TIP3   OH215146   1.587   1.307   0.936
 5061TIP3    H115147   1.501   1.298   0.895
 5061TIP3    H215148   1.624   1.387   0.899
 5062TIP3   OH215149   5.294   6.017   0.686
 5062TIP3    H115150   5.379   6.060   0.697
 5062TIP3    H215151   5.307   5.929   0.720
 5063TIP3   OH215152   1.263   6.467   5.394
 5063TIP3    H115153   1.241   6.539   5.453
 5063TIP3    H215154   1.203   6.478   5.320
 5064TIP3   OH215155   3.241   3.644   4.753
 5064TIP3    H115156   3.272   3.732   4.772
 5064TIP3    H215157   3.215   3.646   4.661
 5065TIP3   OH215158   5.348   2.612   0.236
 5065TIP3    H115159   5.329   2.693   0.188
 5065TIP3    H215160   5.393   2.557   0.172
 5066TIP3   OH215161   1.346   4.971   4.718
 5066TIP3    H115162   1.407   5.009   4.655
 5066TIP3    H215163   1.402   4.926   4.781
 5067TIP3   OH215164   0.757   1.883   3.508
 5067TIP3    H115165   0.714   1.817   3.454
 5067TIP3    H215166   0.797   1.833   3.580
 5068TIP3   OH215167   6.914   2.743   4.305
 5068TIP3    H115168   6.838   2.708   4.258
 5068TIP3    H215169   6.883   2.826   4.341
 5069TIP3   OH215170   3.521   3.052   4.085
 5069TIP3    H115171   3.429   3.079   4.084
 5069TIP3    H215172   3.518   2.957   4.090
 5070TIP3   OH215173   0.879   5.788   3.110
 5070TIP3    H115174   0.815   5.859   3.111
 5070TIP3    H215175   0.947   5.817   3.050
 5071TIP3   OH215176   3.322   4.235   5.763
 5071TIP3    H115177   3.280   4.184   5.694
 5071TIP3    H215178   3.261   4.231   5.837
 5072TIP3   OH215179   4.193   0.384   1.287
 5072TIP3    H115180   4.250   0.328   1.339
 5072TIP3    H215181   4.111   0.335   1.280
 5073TIP3   OH215182   2.416   2.360   2.086
 5073TIP3    H115183   2.320   2.354   2.086
 5073TIP3    H215184   2.437   2.401   2.002
 5074TIP3   OH215185   3.828   6.159   2.382
 5074TIP3    H115186   3.868   6.239   2.416
 5074TIP3    H215187   3.794   6.114   2.459
 5075TIP3   OH215188   3.195   4.766   3.661
 5075TIP3    H115189   3.170   4.705   3.730
 5075TIP3    H215190   3.174   4.720   3.579
 5076TIP3   OH215191   2.901   3.365   3.682
 5076TIP3    H115192   2.822   3.387   3.731
 5076TIP3    H215193   2.971   3.413   3.726
 5077TIP3   OH215194   3.750   3.515   5.296
 5077TIP3    H115195   3.722   3.606   5.291
 5077TIP3    H215196   3.838   3.519   5.335
 5078TIP3   OH215197   6.871   3.620   5.770
 5078TIP3    H115198   6.841   3.708   5.745
 5078TIP3    H215199   6.807   3.592   5.836
 5079TIP3   OH215200   4.445   6.484   2.978
 5079TIP3    H115201   4.496   6.468   3.057
 5079TIP3    H215202   4.354   6.475   3.006
 5080TIP3   OH215203   6.798   2.782   3.339
 5080TIP3    H115204   6.835   2.755   3.255
 5080TIP3    H215205   6.764   2.870   3.323
 5081TIP3   OH215206   3.009   0.325   1.840
 5081TIP3    H115207   3.087   0.270   1.829
 5081TIP3    H215208   2.940   0.264   1.867
 5082TIP3   OH215209   5.368   5.589   2.805
 5082TIP3    H115210   5.273   5.582   2.798
 5082TIP3    H215211   5.388   5.561   2.894
 5083TIP3   OH215212   1.010   6.038   3.789
 5083TIP3    H115213   1.026   6.122   3.745
 5083TIP3    H215214   0.919   6.017   3.769
 5084TIP3   OH215215   0.411   3.145   4.803
 5084TIP3    H115216   0.444   3.056   4.814
 5084TIP3    H215217   0.322   3.143   4.839
 5085TIP3   OH215218   1.555   4.234   3.248
 5085TIP3    H115219   1.589   4.168   3.187
 5085TIP3    H215220   1.498   4.184   3.307
 5086TIP3   OH215221   4.257   2.951   3.933
 5086TIP3    H115222   4.228   3.042   3.934
 5086TIP3    H215223   4.325   2.949   3.865
 5087TIP3   OH215224   6.244   4.833   2.650
 5087TIP3    H115225   6.243   4.876   2.564
 5087TIP3    H215226   6.204   4.897   2.709
 5088TIP3   OH215227   6.350   2.651   5.896
 5088TIP3    H115228   6.278   2.711   5.918
 5088TIP3    H215229   6.429   2.695   5.927
 5089TIP3   OH215230   4.915   5.399   5.594
 5089TIP3    H115231   4.976   5.400   5.520
 5089TIP3    H215232   4.873   5.485   5.591
 5090TIP3   OH215233   4.089   6.055   2.329
 5090TIP3    H115234   4.020   6.088   2.387
 5090TIP3    H215235   4.164   6.042   2.386
 5091TIP3   OH215236   6.224   5.529   4.520
 5091TIP3    H115237   6.311   5.536   4.559
 5091TIP3    H215238   6.240   5.523   4.426
 5092TIP3   OH215239   1.673   4.862   2.910
 5092TIP3    H115240   1.663   4.799   2.981
 5092TIP3    H215241   1.610   4.835   2.844
 5093TIP3   OH215242   6.743   5.893   3.514
 5093TIP3    H115243   6.816   5.833   3.501
 5093TIP3    H215244   6.665   5.840   3.494
 5094TIP3   OH215245   1.933   2.425   0.377
 5094TIP3    H115246   1.915   2.397   0.287
 5094TIP3    H215247   1.982   2.352   0.415
 5095TIP3   OH215248   5.213   3.152   5.679
 5095TIP3    H115249   5.280   3.093   5.646
 5095TIP3    H215250   5.165   3.100   5.744
 5096TIP3   OH215251   2.221   1.054   2.123
 5096TIP3    H115252   2.315   1.046   2.113
 5096TIP3    H215253   2.189   1.072   2.035
 5097TIP3   OH215254   2.060   5.836   2.323
 5097TIP3    H115255   2.009   5.860   2.400
 5097TIP3    H215256   2.142   5.885   2.332
 5098TIP3   OH215257   2.400   4.332   1.886
 5098TIP3    H115258   2.424   4.302   1.973
 5098TIP3    H215259   2.315   4.292   1.869
 5099TIP3   OH215260   0.315   4.136   3.961
 5099TIP3    H115261   0.348   4.131   3.871
 5099TIP3    H215262   0.356   4.215   3.997
 5100TIP3   OH215263   0.526   6.200   1.851
 5100TIP3    H115264   0.435   6.209   1.879
 5100TIP3    H215265   0.534   6.259   1.776
 5101TIP3   OH215266   6.568   6.016   2.818
 5101TIP3    H115267   6.539   6.083   2.880
 5101TIP3    H215268   6.489   5.967   2.796
 5102TIP3   OH215269   6.007   1.821   3.507
 5102TIP3    H115270   5.987   1.728   3.516
 5102TIP3    H215271   5.980   1.843   3.418
 5103TIP3   OH215272   5.528   2.779   1.788
 5103TIP3    H115273   5.585   2.770   1.863
 5103TIP3    H215274   5.440   2.787   1.825
 5104TIP3   OH215275   2.093   4.696   1.588
 5104TIP3    H115276   2.108   4.627   1.523
 5104TIP3    H215277   2.027   4.753   1.548
 5105TIP3   OH215278   3.259   1.840   3.076
 5105TIP3    H115279   3.217   1.754   3.065
 5105TIP3    H215280   3.340   1.821   3.123
 5106TIP3   OH215281   2.214   6.775   3.465
 5106TIP3    H115282   2.185   6.704   3.522
 5106TIP3    H215283   2.309   6.761   3.457
 5107TIP3   OH215284   4.743   4.037   1.242
 5107TIP3    H115285   4.738   4.008   1.151
 5107TIP3    H215286   4.818   4.097   1.244
 5108TIP3   OH215287   6.312   5.732   2.163
 5108TIP3    H115288   6.357   5.789   2.227
 5108TIP3    H215289   6.370   5.657   2.153
 5109TIP3   OH215290   1.981   2.007   5.098
 5109TIP3    H115291   1.960   2.083   5.152
 5109TIP3    H215292   1.908   1.947   5.112
 5110TIP3   OH215293   4.791   5.359   2.293
 5110TIP3    H115294   4.742   5.438   2.269
 5110TIP3    H215295   4.882   5.388   2.299
 5111TIP3   OH215296   0.691   0.533   2.009
 5111TIP3    H115297   0.654   0.504   2.092
 5111TIP3    H215298   0.661   0.467   1.946
 5112TIP3   OH215299   2.723   5.441   2.033
 5112TIP3    H115300   2.641   5.399   2.059
 5112TIP3    H215301   2.733   5.513   2.094
 5113TIP3   OH215302   3.517   1.947   4.461
 5113TIP3    H115303   3.471   2.029   4.478
 5113TIP3    H215304   3.479   1.915   4.379
 5114TIP3   OH215305   3.138   1.975   2.013
 5114TIP3    H115306   3.126   2.053   1.959
 5114TIP3    H215307   3.081   1.989   2.088
 5115TIP3   OH215308   3.884   1.195   1.523
 5115TIP3    H115309   3.898   1.216   1.615
 5115TIP3    H215310   3.856   1.278   1.483
 5116TIP3   OH215311   6.034   1.320   3.752
 5116TIP3    H115312   6.007   1.400   3.798
 5116TIP3    H215313   5.993   1.249   3.801
 5117TIP3   OH215314   2.236   2.210   5.275
 5117TIP3    H115315   2.181   2.224   5.198
 5117TIP3    H215316   2.237   2.295   5.319
 5118TIP3   OH215317   2.481   2.888   2.058
 5118TIP3    H115318   2.438   2.861   1.976
 5118TIP3    H215319   2.573   2.865   2.045
 5119TIP3   OH215320   1.329   6.713   5.176
 5119TIP3    H115321   1.296   6.775   5.241
 5119TIP3    H215322   1.250   6.682   5.131
 5120TIP3   OH215323   1.048   1.863   0.871
 5120TIP3    H115324   0.985   1.826   0.809
 5120TIP3    H215325   1.020   1.954   0.882
 5121TIP3   OH215326   6.348   6.591   5.630
 5121TIP3    H115327   6.429   6.608   5.678
 5121TIP3    H215328   6.282   6.644   5.676
 5122TIP3   OH215329   0.155   0.836   5.213
 5122TIP3    H115330   0.199   0.751   5.203
 5122TIP3    H215331   0.191   0.890   5.142
 5123TIP3   OH215332   4.503   5.113   4.801
 5123TIP3    H115333   4.441   5.054   4.843
 5123TIP3    H215334   4.491   5.196   4.846
 5124TIP3   OH215335   7.116   2.012   2.467
 5124TIP3    H115336   7.183   2.068   2.429
 5124TIP3    H215337   7.124   2.026   2.561
 5125TIP3   OH215338   4.363   6.554   1.255
 5125TIP3    H115339   4.362   6.498   1.177
 5125TIP3    H215340   4.270   6.564   1.278
 5126TIP3   OH215341   1.297   3.717   2.764
 5126TIP3    H115342   1.260   3.769   2.836
 5126TIP3    H215343   1.334   3.640   2.807
 5127TIP3   OH215344   6.861   5.533   5.050
 5127TIP3    H115345   6.795   5.476   5.091
 5127TIP3    H215346   6.839   5.621   5.080
 5128TIP3   OH215347   1.179   1.795   5.559
 5128TIP3    H115348   1.161   1.817   5.651
 5128TIP3    H215349   1.188   1.879   5.516
 5129TIP3   OH215350   0.859   2.430   4.935
 5129TIP3    H115351   0.819   2.347   4.907
 5129TIP3    H215352   0.923   2.404   5.002
 5130TIP3   OH215353   0.029   5.099   2.684
 5130TIP3    H115354   0.033   5.017   2.634
 5130TIP3    H215355  -0.023   5.158   2.629
 5131TIP3   OH215356   4.969   3.012   1.638
 5131TIP3    H115357   5.027   3.086   1.656
 5131TIP3    H215358   4.881   3.046   1.655
 5132TIP3   OH215359   0.230   4.405   5.273
 5132TIP3    H115360   0.232   4.332   5.335
 5132TIP3    H215361   0.137   4.428   5.267
 5133TIP3   OH215362   4.867   2.847   4.696
 5133TIP3    H115363   4.789   2.799   4.667
 5133TIP3    H215364   4.902   2.794   4.767
 5134TIP3   OH215365   2.982   6.148   2.968
 5134TIP3    H115366   2.901   6.143   3.019
 5134TIP3    H215367   3.032   6.071   2.994
 5135TIP3   OH215368   5.003   6.425   3.293
 5135TIP3    H115369   5.027   6.449   3.204
 5135TIP3    H215370   4.979   6.333   3.288
 5136TIP3   OH215371   0.313   3.654   3.915
 5136TIP3    H115372   0.243   3.670   3.978
 5136TIP3    H215373   0.280   3.687   3.832
 5137TIP3   OH215374   3.904   2.745   2.744
 5137TIP3    H115375   3.849   2.697   2.805
 5137TIP3    H215376   3.902   2.694   2.663
 5138TIP3   OH215377   5.976   0.290   5.970
 5138TIP3    H115378   5.932   0.220   6.018
 5138TIP3    H215379   6.008   0.248   5.890
 5139TIP3   OH215380   3.460   6.027   3.261
 5139TIP3    H115381   3.429   5.994   3.345
 5139TIP3    H215382   3.429   6.117   3.257
 5140TIP3   OH215383   3.502   3.682   2.365
 5140TIP3    H115384   3.420   3.718   2.398
 5140TIP3    H215385   3.540   3.638   2.441
 5141TIP3   OH215386   1.770   1.693   4.129
 5141TIP3    H115387   1.764   1.780   4.090
 5141TIP3    H215388   1.861   1.667   4.116
 5142TIP3   OH215389   6.368   3.952   4.383
 5142TIP3    H115390   6.340   3.888   4.449
 5142TIP3    H215391   6.287   3.988   4.349
 5143TIP3   OH215392   3.912   0.144   1.926
 5143TIP3    H115393   3.884   0.068   1.977
 5143TIP3    H215394   4.002   0.125   1.900
 5144TIP3   OH215395   6.726   2.697   1.362
 5144TIP3    H115396   6.694   2.607   1.356
 5144TIP3    H215397   6.687   2.732   1.442
 5145TIP3   OH215398   2.061   1.264   0.149
 5145TIP3    H115399   2.062   1.170   0.131
 5145TIP3    H215400   2.153   1.286   0.165
 5146TIP3   OH215401   3.460   6.273   2.239
 5146TIP3    H115402   3.417   6.192   2.211
 5146TIP3    H215403   3.428   6.288   2.327
 5147TIP3   OH215404   4.326   1.942   3.233
 5147TIP3    H115405   4.369   2.025   3.257
 5147TIP3    H215406   4.372   1.913   3.154
 5148TIP3   OH215407   5.611   3.633   5.861
 5148TIP3    H115408   5.546   3.593   5.918
 5148TIP3    H215409   5.564   3.654   5.781
 5149TIP3   OH215410   7.064   1.849   4.977
 5149TIP3    H115411   7.022   1.798   4.908
 5149TIP3    H215412   7.106   1.784   5.034
 5150TIP3   OH215413   3.719   1.797   0.142
 5150TIP3    H115414   3.760   1.880   0.168
 5150TIP3    H215415   3.725   1.796   0.047
 5151TIP3   OH215416   1.550   1.337   4.660
 5151TIP3    H115417   1.619   1.286   4.702
 5151TIP3    H215418   1.593   1.380   4.587
 5152TIP3   OH215419   6.379   4.227   4.476
 5152TIP3    H115420   6.387   4.136   4.447
 5152TIP3    H215421   6.453   4.240   4.536
 5153TIP3   OH215422   5.065   1.078   0.379
 5153TIP3    H115423   4.993   1.138   0.361
 5153TIP3    H215424   5.053   1.054   0.471
 5154TIP3   OH215425   4.661   3.878   5.332
 5154TIP3    H115426   4.583   3.841   5.375
 5154TIP3    H215427   4.630   3.909   5.248
 5155TIP3   OH215428   3.318   0.130   2.965
 5155TIP3    H115429   3.358   0.049   2.996
 5155TIP3    H215430   3.231   0.104   2.936
 5156TIP3   OH215431   2.164   5.970   2.016
 5156TIP3    H115432   2.226   5.959   2.088
 5156TIP3    H215433   2.107   6.042   2.044
 5157TIP3   OH215434   0.196   2.052   1.673
 5157TIP3    H115435   0.166   2.122   1.732
 5157TIP3    H215436   0.290   2.044   1.691
 5158TIP3   OH215437   3.487   5.896   4.712
 5158TIP3    H115438   3.459   5.882   4.621
 5158TIP3    H215439   3.506   5.990   4.717
 5159TIP3   OH215440   1.265   4.475   3.989
 5159TIP3    H115441   1.255   4.546   4.054
 5159TIP3    H215442   1.355   4.445   4.000
 5160TIP3   OH215443   0.978   1.596   2.713
 5160TIP3    H115444   1.064   1.624   2.684
 5160TIP3    H215445   0.936   1.675   2.747
 5161TIP3   OH215446   1.355   4.435   2.942
 5161TIP3    H115447   1.278   4.490   2.935
 5161TIP3    H215448   1.329   4.364   3.001
 5162TIP3   OH215449   6.844   6.465   1.164
 5162TIP3    H115450   6.888   6.493   1.083
 5162TIP3    H215451   6.751   6.461   1.140
 5163TIP3   OH215452   5.662   1.556   3.994
 5163TIP3    H115453   5.653   1.460   3.990
 5163TIP3    H215454   5.673   1.583   3.903
 5164TIP3   OH215455   5.805   5.100   2.550
 5164TIP3    H115456   5.811   5.180   2.498
 5164TIP3    H215457   5.895   5.068   2.555
 5165TIP3   OH215458   5.617   3.954   1.016
 5165TIP3    H115459   5.676   4.004   1.072
 5165TIP3    H215460   5.629   3.992   0.929
 5166TIP3   OH215461   1.661   6.352   2.121
 5166TIP3    H115462   1.737   6.376   2.173
 5166TIP3    H215463   1.662   6.256   2.119
 5167TIP3   OH215464   4.990   4.235   4.549
 5167TIP3    H115465   4.998   4.202   4.460
 5167TIP3    H215466   4.895   4.237   4.566
 5168TIP3   OH215467   6.157   5.181   1.360
 5168TIP3    H115468   6.111   5.258   1.396
 5168TIP3    H215469   6.244   5.213   1.337
 5169TIP3   OH215470   6.137   6.529   1.076
 5169TIP3    H115471   6.066   6.537   1.012
 5169TIP3    H215472   6.180   6.614   1.074
 5170TIP3   OH215473   5.564   4.860   2.129
 5170TIP3    H115474   5.555   4.912   2.050
 5170TIP3    H215475   5.654   4.826   2.127
 5171TIP3   OH215476   3.412   0.828   4.142
 5171TIP3    H115477   3.380   0.908   4.184
 5171TIP3    H215478   3.505   0.825   4.162
 5172TIP3   OH215479   6.412   2.364   3.687
 5172TIP3    H115480   6.469   2.428   3.730
 5172TIP3    H215481   6.365   2.322   3.759
 5173TIP3   OH215482   5.572   0.099   0.658
 5173TIP3    H115483   5.569   0.053   0.742
 5173TIP3    H215484   5.653   0.149   0.661
 5174TIP3   OH215485   5.518   2.469   0.072
 5174TIP3    H115486   5.598   2.417   0.078
 5174TIP3    H215487   5.495   2.468  -0.021
 5175TIP3   OH215488   4.762   3.084   4.582
 5175TIP3    H115489   4.785   2.994   4.605
 5175TIP3    H215490   4.843   3.122   4.551
 5176TIP3   OH215491   3.289   4.383   5.177
 5176TIP3    H115492   3.294   4.291   5.154
 5176TIP3    H215493   3.298   4.429   5.093
 5177TIP3   OH215494   4.848   3.629   0.091
 5177TIP3    H115495   4.858   3.610  -0.002
 5177TIP3    H215496   4.935   3.655   0.120
 5178TIP3   OH215497   4.038   2.374   2.401
 5178TIP3    H115498   4.070   2.346   2.316
 5178TIP3    H215499   4.116   2.404   2.448
 5179TIP3   OH215500   4.361   4.331   3.602
 5179TIP3    H115501   4.366   4.325   3.506
 5179TIP3    H215502   4.399   4.249   3.633
 5180TIP3   OH215503   5.725   5.447   1.276
 5180TIP3    H115504   5.682   5.486   1.352
 5180TIP3    H215505   5.674   5.369   1.256
 5181TIP3   OH215506   2.240   4.123   1.749
 5181TIP3    H115507   2.256   4.103   1.841
 5181TIP3    H215508   2.198   4.044   1.715
 5182TIP3   OH215509   4.193   3.085   3.613
 5182TIP3    H115510   4.171   3.092   3.706
 5182TIP3    H215511   4.273   3.136   3.604
 5183TIP3   OH215512   1.378   4.639   5.418
 5183TIP3    H115513   1.434   4.688   5.357
 5183TIP3    H215514   1.375   4.693   5.497
 5184TIP3   OH215515   3.499   3.667   0.509
 5184TIP3    H115516   3.450   3.612   0.570
 5184TIP3    H215517   3.589   3.636   0.515
 5185TIP3   OH215518   3.390   5.312   4.027
 5185TIP3    H115519   3.380   5.297   4.120
 5185TIP3    H215520   3.483   5.299   4.010
 5186TIP3   OH215521   2.428   2.071   3.269
 5186TIP3    H115522   2.467   2.158   3.277
 5186TIP3    H215523   2.339   2.087   3.238
 5187TIP3   OH215524   6.269   1.688   4.192
 5187TIP3    H115525   6.331   1.699   4.265
 5187TIP3    H215526   6.184   1.680   4.235
 5188TIP3   OH215527   4.510   1.002   2.924
 5188TIP3    H115528   4.561   1.060   2.980
 5188TIP3    H215529   4.448   1.059   2.879
 5189TIP3   OH215530   5.750   2.747   3.908
 5189TIP3    H115531   5.777   2.663   3.871
 5189TIP3    H215532   5.683   2.780   3.848
 5190TIP3   OH215533   6.115   0.232   4.890
 5190TIP3    H115534   6.205   0.265   4.887
 5190TIP3    H215535   6.061   0.310   4.879
 5191TIP3   OH215536   1.508   0.768   3.294
 5191TIP3    H115537   1.503   0.673   3.288
 5191TIP3    H215538   1.478   0.800   3.209
 5192TIP3   OH215539   4.515   4.721   0.172
 5192TIP3    H115540   4.591   4.776   0.151
 5192TIP3    H215541   4.548   4.632   0.164
 5193TIP3   OH215542   4.681   4.905   0.433
 5193TIP3    H115543   4.608   4.878   0.376
 5193TIP3    H215544   4.716   4.822   0.467
 5194TIP3   OH215545   1.977   4.859   3.002
 5194TIP3    H115546   1.934   4.941   3.030
 5194TIP3    H215547   1.910   4.792   3.016
 5195TIP3   OH215548   0.545   4.205   4.582
 5195TIP3    H115549   0.598   4.178   4.657
 5195TIP3    H215550   0.502   4.125   4.553
 5196TIP3   OH215551   3.061   4.182   5.523
 5196TIP3    H115552   3.155   4.199   5.518
 5196TIP3    H215553   3.031   4.232   5.600
 5197TIP3   OH215554   5.626   2.980   0.451
 5197TIP3    H115555   5.583   3.061   0.424
 5197TIP3    H215556   5.559   2.912   0.440
 5198TIP3   OH215557   5.921   3.247   3.532
 5198TIP3    H115558   6.010   3.238   3.497
 5198TIP3    H215559   5.899   3.158   3.562
 5199TIP3   OH215560   6.252   1.521   5.743
 5199TIP3    H115561   6.202   1.538   5.823
 5199TIP3    H215562   6.342   1.507   5.774
 5200TIP3   OH215563   4.712   2.663   4.341
 5200TIP3    H115564   4.791   2.717   4.347
 5200TIP3    H215565   4.669   2.674   4.426
 5201TIP3   OH215566   5.009   1.779   4.508
 5201TIP3    H115567   5.027   1.793   4.601
 5201TIP3    H215568   5.093   1.753   4.471
 5202TIP3   OH215569   2.825   2.273   4.142
 5202TIP3    H115570   2.777   2.318   4.211
 5202TIP3    H215571   2.916   2.271   4.171
 5203TIP3   OH215572   6.155   3.198   1.109
 5203TIP3    H115573   6.115   3.115   1.082
 5203TIP3    H215574   6.180   3.184   1.200
 5204TIP3   OH215575   5.539   2.058   3.608
 5204TIP3    H115576   5.509   1.968   3.594
 5204TIP3    H215577   5.634   2.053   3.595
 5205TIP3   OH215578   3.806   2.868   0.120
 5205TIP3    H115579   3.779   2.949   0.077
 5205TIP3    H215580   3.899   2.880   0.139
 5206TIP3   OH215581   3.530   0.319   0.749
 5206TIP3    H115582   3.460   0.369   0.707
 5206TIP3    H215583   3.492   0.233   0.765
 5207TIP3   OH215584   3.395   3.857   0.092
 5207TIP3    H115585   3.437   3.796   0.152
 5207TIP3    H215586   3.331   3.904   0.146
 5208TIP3   OH215587   2.896   5.119   5.190
 5208TIP3    H115588   2.875   5.202   5.232
 5208TIP3    H215589   2.954   5.142   5.118
 5209TIP3   OH215590   6.431   4.178   0.555
 5209TIP3    H115591   6.484   4.235   0.499
 5209TIP3    H215592   6.479   4.096   0.559
 5210TIP3   OH215593   2.009   4.471   2.649
 5210TIP3    H115594   1.991   4.551   2.599
 5210TIP3    H215595   2.021   4.502   2.739
 5211TIP3   OH215596   5.424   4.866   5.435
 5211TIP3    H115597   5.407   4.939   5.376
 5211TIP3    H215598   5.337   4.835   5.461
 5212TIP3   OH215599   5.078   4.558   3.377
 5212TIP3    H115600   5.130   4.540   3.455
 5212TIP3    H215601   4.989   4.570   3.409
 5213TIP3   OH215602   0.606   1.039   2.799
 5213TIP3    H115603   0.568   0.981   2.865
 5213TIP3    H215604   0.608   1.125   2.840
 5214TIP3   OH215605   3.775   4.795   0.696
 5214TIP3    H115606   3.777   4.706   0.732
 5214TIP3    H215607   3.729   4.846   0.762
 5215TIP3   OH215608   2.167   0.908   0.738
 5215TIP3    H115609   2.104   0.980   0.743
 5215TIP3    H215610   2.230   0.927   0.808
 5216TIP3   OH215611   3.439   5.576   5.586
 5216TIP3    H115612   3.497   5.538   5.520
 5216TIP3    H215613   3.355   5.533   5.571
 5217TIP3   OH215614   6.954   1.899   3.456
 5217TIP3    H115615   6.913   1.815   3.475
 5217TIP3    H215616   7.012   1.915   3.530
 5218TIP3   OH215617   2.262   3.483   4.130
 5218TIP3    H115618   2.181   3.515   4.089
 5218TIP3    H215619   2.330   3.541   4.098
 5219TIP3   OH215620   3.156   3.112   3.087
 5219TIP3    H115621   3.249   3.131   3.098
 5219TIP3    H215622   3.155   3.027   3.043
 5220TIP3   OH215623   6.936   4.700   5.489
 5220TIP3    H115624   6.900   4.769   5.433
 5220TIP3    H215625   6.910   4.618   5.446
 5221TIP3   OH215626   4.874   1.023   3.992
 5221TIP3    H115627   4.829   1.107   3.983
 5221TIP3    H215628   4.906   1.023   4.082
 5222TIP3   OH215629   4.453   2.950   4.819
 5222TIP3    H115630   4.479   2.874   4.871
 5222TIP3    H215631   4.454   3.023   4.881
 5223TIP3   OH215632   1.328   4.497   2.479
 5223TIP3    H115633   1.378   4.511   2.560
 5223TIP3    H215634   1.254   4.442   2.505
 5224TIP3   OH215635   0.851   3.676   5.288
 5224TIP3    H115636   0.803   3.605   5.246
 5224TIP3    H215637   0.813   3.682   5.376
 5225TIP3   OH215638   4.076   2.312   4.254
 5225TIP3    H115639   4.127   2.298   4.335
 5225TIP3    H215640   4.139   2.298   4.184
 5226TIP3   OH215641   1.472   4.046   5.182
 5226TIP3    H115642   1.509   4.129   5.213
 5226TIP3    H215643   1.497   4.042   5.090
 5227TIP3   OH215644   2.954   6.138   0.350
 5227TIP3    H115645   2.950   6.187   0.268
 5227TIP3    H215646   2.879   6.170   0.400
 5228TIP3   OH215647   1.185   0.573   2.071
 5228TIP3    H115648   1.224   0.655   2.042
 5228TIP3    H215649   1.231   0.505   2.020
 5229TIP3   OH215650   7.035   6.260   1.657
 5229TIP3    H115651   6.939   6.261   1.662
 5229TIP3    H215652   7.063   6.218   1.738
 5230TIP3   OH215653   6.264   5.803   0.713
 5230TIP3    H115654   6.199   5.814   0.782
 5230TIP3    H215655   6.231   5.854   0.640
 5231TIP3   OH215656   6.209   0.088   3.437
 5231TIP3    H115657   6.147   0.050   3.374
 5231TIP3    H215658   6.154   0.128   3.504
 5232TIP3   OH215659   0.420   5.988   3.132
 5232TIP3    H115660   0.408   6.081   3.151
 5232TIP3    H215661   0.346   5.965   3.076
 5233TIP3   OH215662   0.686   5.975   1.824
 5233TIP3    H115663   0.652   5.921   1.753
 5233TIP3    H215664   0.649   6.062   1.809
 5234TIP3   OH215665   3.056   1.614   5.250
 5234TIP3    H115666   2.961   1.614   5.242
 5234TIP3    H215667   3.081   1.707   5.247
 5235TIP3   OH215668   2.250   1.272   0.962
 5235TIP3    H115669   2.261   1.254   0.868
 5235TIP3    H215670   2.193   1.349   0.965
 5236TIP3   OH215671   1.668   1.287   5.657
 5236TIP3    H115672   1.761   1.274   5.677
 5236TIP3    H215673   1.622   1.227   5.715
 5237TIP3   OH215674   1.180   3.533   0.914
 5237TIP3    H115675   1.089   3.513   0.895
 5237TIP3    H215676   1.225   3.528   0.830
 5238TIP3   OH215677   5.798   5.503   2.012
 5238TIP3    H115678   5.850   5.472   2.087
 5238TIP3    H215679   5.851   5.573   1.974
 5239TIP3   OH215680   0.198   0.588   0.373
 5239TIP3    H115681   0.200   0.493   0.363
 5239TIP3    H215682   0.263   0.620   0.311
 5240TIP3   OH215683   6.680   5.515  -0.029
 5240TIP3    H115684   6.676   5.594   0.024
 5240TIP3    H215685   6.609   5.525  -0.093
 5241TIP3   OH215686   0.506   5.738   4.461
 5241TIP3    H115687   0.576   5.679   4.488
 5241TIP3    H215688   0.487   5.713   4.370
 5242TIP3   OH215689   3.236   3.744   0.907
 5242TIP3    H115690   3.331   3.739   0.916
 5242TIP3    H215691   3.202   3.681   0.971
 5243TIP3   OH215692   6.268   2.340   1.121
 5243TIP3    H115693   6.288   2.373   1.034
 5243TIP3    H215694   6.189   2.288   1.109
 5244TIP3   OH215695   3.341   0.178   2.044
 5244TIP3    H115696   3.434   0.171   2.021
 5244TIP3    H215697   3.294   0.156   1.964
 5245TIP3   OH215698   3.066   5.453   3.485
 5245TIP3    H115699   3.150   5.500   3.486
 5245TIP3    H215700   3.063   5.412   3.399
 5246TIP3   OH215701   6.022   4.630   0.470
 5246TIP3    H115702   6.040   4.711   0.424
 5246TIP3    H215703   6.032   4.562   0.404
 5247TIP3   OH215704   4.852   1.812   5.173
 5247TIP3    H115705   4.784   1.872   5.143
 5247TIP3    H215706   4.838   1.733   5.122
 5248TIP3   OH215707   0.422   5.195   3.610
 5248TIP3    H115708   0.401   5.276   3.565
 5248TIP3    H215709   0.513   5.204   3.637
 5249TIP3   OH215710   1.097   6.486   0.084
 5249TIP3    H115711   1.067   6.477   0.175
 5249TIP3    H215712   1.060   6.410   0.039
 5250TIP3   OH215713   0.029   5.490   5.553
 5250TIP3    H115714   0.092   5.463   5.486
 5250TIP3    H215715  -0.035   5.543   5.506
 5251TIP3   OH215716   2.329   4.200   3.476
 5251TIP3    H115717   2.377   4.118   3.464
 5251TIP3    H215718   2.268   4.182   3.547
 5252TIP3   OH215719   7.137   3.627   3.387
 5252TIP3    H115720   7.078   3.566   3.431
 5252TIP3    H215721   7.080   3.688   3.341
 5253TIP3   OH215722   1.561   3.169   5.820
 5253TIP3    H115723   1.505   3.149   5.745
 5253TIP3    H215724   1.511   3.137   5.895
 5254TIP3   OH215725   4.325   0.120   3.947
 5254TIP3    H115726   4.250   0.133   3.889
 5254TIP3    H215727   4.324   0.026   3.968
 5255TIP3   OH215728   3.360   2.894   2.624
 5255TIP3    H115729   3.343   2.983   2.593
 5255TIP3    H215730   3.324   2.893   2.713
 5256TIP3   OH215731   5.086   0.115   4.129
 5256TIP3    H115732   5.105   0.057   4.203
 5256TIP3    H215733   5.093   0.203   4.165
 5257TIP3   OH215734   6.800   3.060   0.338
 5257TIP3    H115735   6.705   3.075   0.341
 5257TIP3    H215736   6.811   2.993   0.270
 5258TIP3   OH215737   3.982   6.355   2.529
 5258TIP3    H115738   4.045   6.417   2.567
 5258TIP3    H215739   3.896   6.396   2.544
 5259TIP3   OH215740   2.005   2.658   4.585
 5259TIP3    H115741   2.058   2.581   4.606
 5259TIP3    H215742   2.000   2.658   4.489
 5260TIP3   OH215743   7.024   6.517   5.351
 5260TIP3    H115744   6.941   6.554   5.382
 5260TIP3    H215745   7.043   6.447   5.413
 5261TIP3   OH215746   6.859   2.408   1.082
 5261TIP3    H115747   6.861   2.343   1.011
 5261TIP3    H215748   6.947   2.447   1.080
 5262TIP3   OH215749   2.413   4.348   0.471
 5262TIP3    H115750   2.324   4.383   0.468
 5262TIP3    H215751   2.458   4.391   0.398
 5263TIP3   OH215752   7.188   6.114   5.882
 5263TIP3    H115753   7.202   6.205   5.856
 5263TIP3    H215754   7.096   6.111   5.909
 5264TIP3   OH215755   6.883   2.987   4.445
 5264TIP3    H115756   6.972   3.023   4.438
 5264TIP3    H215757   6.883   2.938   4.527
 5265TIP3   OH215758   3.673   4.321   4.842
 5265TIP3    H115759   3.633   4.364   4.917
 5265TIP3    H215760   3.766   4.315   4.864
 5266TIP3   OH215761   1.045   3.443   5.150
 5266TIP3    H115762   1.065   3.459   5.242
 5266TIP3    H215763   0.993   3.518   5.123
 5267TIP3   OH215764   1.042   6.322   1.468
 5267TIP3    H115765   1.029   6.402   1.520
 5267TIP3    H215766   1.126   6.337   1.424
 5268TIP3   OH215767   4.203   1.802   0.752
 5268TIP3    H115768   4.214   1.753   0.671
 5268TIP3    H215769   4.113   1.836   0.747
 5269TIP3   OH215770   2.298   2.221   3.673
 5269TIP3    H115771   2.341   2.237   3.757
 5269TIP3    H215772   2.303   2.304   3.626
 5270TIP3   OH215773   3.953   2.713   5.494
 5270TIP3    H115774   3.990   2.726   5.407
 5270TIP3    H215775   4.027   2.688   5.549
 5271TIP3   OH215776   2.471   4.595   1.822
 5271TIP3    H115777   2.400   4.645   1.863
 5271TIP3    H215778   2.450   4.504   1.839
 5272TIP3   OH215779   2.582   6.751   3.891
 5272TIP3    H115780   2.578   6.784   3.980
 5272TIP3    H215781   2.550   6.823   3.837
 5273TIP3   OH215782   5.522   0.947   0.991
 5273TIP3    H115783   5.609   0.941   1.030
 5273TIP3    H215784   5.512   0.866   0.941
 5274TIP3   OH215785   1.619   1.346   0.020
 5274TIP3    H115786   1.665   1.289  -0.042
 5274TIP3    H215787   1.529   1.316   0.019
 5275TIP3   OH215788   1.492   5.594   0.901
 5275TIP3    H115789   1.551   5.538   0.951
 5275TIP3    H215790   1.485   5.551   0.816
 5276TIP3   OH215791   1.502   6.616   1.143
 5276TIP3    H115792   1.471   6.555   1.076
 5276TIP3    H215793   1.539   6.560   1.211
 5277TIP3   OH215794   3.801   6.012   5.817
 5277TIP3    H115795   3.827   5.920   5.812
 5277TIP3    H215796   3.778   6.025   5.909
 5278TIP3   OH215797   5.198   4.239   2.061
 5278TIP3    H115798   5.293   4.247   2.051
 5278TIP3    H215799   5.179   4.283   2.143
 5279TIP3   OH215800   1.728   0.523   3.434
 5279TIP3    H115801   1.664   0.488   3.496
 5279TIP3    H215802   1.813   0.496   3.470
 5280TIP3   OH215803   0.702   2.960   2.924
 5280TIP3    H115804   0.705   3.046   2.884
 5280TIP3    H215805   0.775   2.913   2.885
 5281TIP3   OH215806   6.770   0.719   5.534
 5281TIP3    H115807   6.824   0.691   5.607
 5281TIP3    H215808   6.726   0.639   5.504
 5282TIP3   OH215809   1.788   4.379   1.557
 5282TIP3    H115810   1.718   4.387   1.492
 5282TIP3    H215811   1.831   4.296   1.537
 5283TIP3   OH215812   5.082   0.408   1.458
 5283TIP3    H115813   5.098   0.502   1.461
 5283TIP3    H215814   5.130   0.378   1.381
 5284TIP3   OH215815   1.241   6.480   1.116
 5284TIP3    H115816   1.225   6.387   1.105
 5284TIP3    H215817   1.279   6.509   1.033
 5285TIP3   OH215818   2.638   1.462   3.963
 5285TIP3    H115819   2.588   1.467   3.882
 5285TIP3    H215820   2.599   1.530   4.019
 5286TIP3   OH215821   1.758   4.793   2.477
 5286TIP3    H115822   1.679   4.843   2.457
 5286TIP3    H215823   1.739   4.705   2.445
 5287TIP3   OH215824   2.169   1.290   5.657
 5287TIP3    H115825   2.186   1.280   5.563
 5287TIP3    H215826   2.204   1.377   5.679
 5288TIP3   OH215827   1.923   6.682   4.081
 5288TIP3    H115828   2.003   6.680   4.134
 5288TIP3    H215829   1.888   6.593   4.088
 5289TIP3   OH215830   3.443   3.230   3.456
 5289TIP3    H115831   3.365   3.175   3.442
 5289TIP3    H215832   3.494   3.183   3.521
 5290TIP3   OH215833   2.041   3.509   1.129
 5290TIP3    H115834   2.130   3.543   1.135
 5290TIP3    H215835   2.052   3.417   1.106
 5291TIP3   OH215836   7.113   5.535   0.415
 5291TIP3    H115837   7.036   5.536   0.471
 5291TIP3    H215838   7.103   5.612   0.359
 5292TIP3   OH215839   0.370   5.316   5.642
 5292TIP3    H115840   0.315   5.254   5.690
 5292TIP3    H215841   0.373   5.394   5.698
 5293TIP3   OH215842   2.350   4.136   2.642
 5293TIP3    H115843   2.282   4.177   2.588
 5293TIP3    H215844   2.403   4.086   2.580
 5294TIP3   OH215845   5.785   5.534   2.996
 5294TIP3    H115846   5.743   5.620   3.001
 5294TIP3    H215847   5.727   5.482   2.942
 5295TIP3   OH215848   2.230   4.066   1.379
 5295TIP3    H115849   2.149   4.111   1.357
 5295TIP3    H215850   2.212   3.974   1.362
 5296TIP3   OH215851   1.521   3.361   2.933
 5296TIP3    H115852   1.517   3.429   2.866
 5296TIP3    H215853   1.525   3.279   2.884
 5297TIP3   OH215854   1.551   3.876   3.369
 5297TIP3    H115855   1.533   3.961   3.409
 5297TIP3    H215856   1.601   3.828   3.435
 5298TIP3   OH215857   0.974   2.652   4.781
 5298TIP3    H115858   0.929   2.687   4.704
 5298TIP3    H215859   0.927   2.571   4.801
 5299TIP3   OH215860   6.715   4.780   0.739
 5299TIP3    H115861   6.628   4.770   0.777
 5299TIP3    H215862   6.722   4.707   0.677
 5300TIP3   OH215863   5.462   0.202   2.310
 5300TIP3    H115864   5.547   0.243   2.327
 5300TIP3    H215865   5.476   0.151   2.230
 5301TIP3   OH215866   0.513   4.560   5.545
 5301TIP3    H115867   0.565   4.633   5.580
 5301TIP3    H215868   0.570   4.483   5.555
 5302TIP3   OH215869   4.937   4.031   4.877
 5302TIP3    H115870   5.024   4.054   4.909
 5302TIP3    H215871   4.886   4.112   4.882
 5303TIP3   OH215872   4.135   2.857   4.891
 5303TIP3    H115873   4.092   2.773   4.882
 5303TIP3    H215874   4.216   2.838   4.939
 5304TIP3   OH215875   2.144   4.541   4.483
 5304TIP3    H115876   2.178   4.458   4.518
 5304TIP3    H215877   2.053   4.543   4.513
 5305TIP3   OH215878   6.258   3.721   0.152
 5305TIP3    H115879   6.242   3.719   0.246
 5305TIP3    H215880   6.313   3.797   0.138
 5306TIP3   OH215881   2.760   2.911   5.698
 5306TIP3    H115882   2.677   2.865   5.710
 5306TIP3    H215883   2.765   2.972   5.771
 5307TIP3   OH215884   4.870   3.668   2.106
 5307TIP3    H115885   4.870   3.596   2.169
 5307TIP3    H215886   4.778   3.682   2.084
 5308TIP3   OH215887   5.472   3.847   2.353
 5308TIP3    H115888   5.433   3.794   2.423
 5308TIP3    H215889   5.480   3.786   2.280
 5309TIP3   OH215890   3.305   3.788   3.094
 5309TIP3    H115891   3.279   3.738   3.172
 5309TIP3    H215892   3.282   3.878   3.115
 5310TIP3   OH215893   1.226   2.498   2.052
 5310TIP3    H115894   1.245   2.561   2.122
 5310TIP3    H215895   1.134   2.511   2.032
 5311TIP3   OH215896   6.664   0.866   0.224
 5311TIP3    H115897   6.699   0.848   0.136
 5311TIP3    H215898   6.652   0.779   0.263
 5312TIP3   OH215899   1.181   1.875   3.314
 5312TIP3    H115900   1.142   1.963   3.310
 5312TIP3    H215901   1.268   1.885   3.275
 5313TIP3   OH215902   0.669   5.303   4.526
 5313TIP3    H115903   0.618   5.226   4.551
 5313TIP3    H215904   0.733   5.270   4.464
 5314TIP3   OH215905   7.047   4.376   3.019
 5314TIP3    H115906   6.965   4.331   3.040
 5314TIP3    H215907   7.059   4.439   3.090
 5315TIP3   OH215908   0.410   6.533   2.181
 5315TIP3    H115909   0.393   6.497   2.268
 5315TIP3    H215910   0.453   6.462   2.134
 5316TIP3   OH215911   5.768   1.880   3.917
 5316TIP3    H115912   5.863   1.870   3.904
 5316TIP3    H215913   5.730   1.807   3.869
 5317TIP3   OH215914   6.669   0.424   3.769
 5317TIP3    H115915   6.694   0.482   3.841
 5317TIP3    H215916   6.650   0.484   3.696
 5318TIP3   OH215917   5.749   5.643   2.297
 5318TIP3    H115918   5.837   5.618   2.269
 5318TIP3    H215919   5.709   5.682   2.220
 5319TIP3   OH215920   3.245   3.610   2.219
 5319TIP3    H115921   3.332   3.613   2.179
 5319TIP3    H215922   3.216   3.702   2.220
 5320TIP3   OH215923   0.603   4.372   4.165
 5320TIP3    H115924   0.641   4.309   4.104
 5320TIP3    H215925   0.515   4.389   4.130
 5321TIP3   OH215926   3.397   5.211   3.257
 5321TIP3    H115927   3.333   5.145   3.229
 5321TIP3    H215928   3.425   5.181   3.344
 5322TIP3   OH215929   1.897   2.107   2.486
 5322TIP3    H115930   1.866   2.047   2.553
 5322TIP3    H215931   1.920   2.051   2.412
 5323TIP3   OH215932   3.368   4.790   4.466
 5323TIP3    H115933   3.332   4.879   4.461
 5323TIP3    H215934   3.386   4.766   4.375
 5324TIP3   OH215935  -0.066   4.037   0.568
 5324TIP3    H115936   0.015   4.002   0.531
 5324TIP3    H215937  -0.114   4.070   0.492
 5325TIP3   OH215938   6.918   6.078   3.403
 5325TIP3    H115939   6.863   6.120   3.336
 5325TIP3    H215940   6.858   6.023   3.453
 5326TIP3   OH215941   6.550   3.496   1.770
 5326TIP3    H115942   6.521   3.430   1.834
 5326TIP3    H215943   6.471   3.545   1.749
 5327TIP3   OH215944   6.095   5.237   0.421
 5327TIP3    H115945   6.096   5.330   0.398
 5327TIP3    H215946   6.021   5.228   0.481
 5328TIP3   OH215947   2.180   2.409   1.756
 5328TIP3    H115948   2.229   2.443   1.830
 5328TIP3    H215949   2.093   2.447   1.764
 5329TIP3   OH215950   5.962   5.659   1.444
 5329TIP3    H115951   5.993   5.739   1.487
 5329TIP3    H215952   5.930   5.688   1.359
 5330TIP3   OH215953   3.528   1.758   3.253
 5330TIP3    H115954   3.603   1.711   3.217
 5330TIP3    H215955   3.469   1.689   3.284
 5331TIP3   OH215956   7.000   0.452   2.359
 5331TIP3    H115957   6.923   0.484   2.405
 5331TIP3    H215958   7.072   0.465   2.421
 5332TIP3   OH215959   4.636   2.729   1.974
 5332TIP3    H115960   4.543   2.710   1.960
 5332TIP3    H215961   4.664   2.664   2.039
 5333TIP3   OH215962   0.261   4.626   0.820
 5333TIP3    H115963   0.324   4.609   0.750
 5333TIP3    H215964   0.176   4.614   0.779
 5334TIP3   OH215965   1.522   1.146   2.866
 5334TIP3    H115966   1.598   1.201   2.883
 5334TIP3    H215967   1.554   1.081   2.803
 5335TIP3   OH215968   6.501   0.607   1.942
 5335TIP3    H115969   6.421   0.656   1.963
 5335TIP3    H215970   6.485   0.520   1.979
 5336TIP3   OH215971   2.925   4.950   1.513
 5336TIP3    H115972   2.871   4.980   1.586
 5336TIP3    H215973   2.919   4.854   1.516
 5337TIP3   OH215974   6.737   1.442   5.218
 5337TIP3    H115975   6.789   1.372   5.178
 5337TIP3    H215976   6.768   1.521   5.175
 5338TIP3   OH215977   5.673   2.712   2.004
 5338TIP3    H115978   5.628   2.639   2.046
 5338TIP3    H215979   5.766   2.692   2.014
 5339TIP3   OH215980   1.732   2.036   0.067
 5339TIP3    H115981   1.749   1.981  -0.010
 5339TIP3    H215982   1.650   2.003   0.102
 5340TIP3   OH215983   0.467   3.554   2.476
 5340TIP3    H115984   0.374   3.544   2.499
 5340TIP3    H215985   0.478   3.648   2.462
 5341TIP3   OH215986   2.030   0.665   0.731
 5341TIP3    H115987   2.061   0.753   0.711
 5341TIP3    H215988   2.103   0.624   0.778
 5342TIP3   OH215989   3.920   6.486   0.346
 5342TIP3    H115990   3.952   6.400   0.320
 5342TIP3    H215991   3.980   6.548   0.305
 5343TIP3   OH215992   5.596   5.948   0.157
 5343TIP3    H115993   5.608   6.027   0.209
 5343TIP3    H215994   5.513   5.962   0.112
 5344TIP3   OH215995   5.030   4.317   2.596
 5344TIP3    H115996   5.084   4.375   2.650
 5344TIP3    H215997   4.943   4.320   2.637
 5345TIP3   OH215998   1.538   2.584   2.616
 5345TIP3    H115999   1.452   2.554   2.647
 5345TIP3    H216000   1.591   2.505   2.613
 5346TIP3   OH216001   5.211   0.383   3.941
 5346TIP3    H116002   5.166   0.362   3.859
 5346TIP3    H216003   5.222   0.478   3.938
 5347TIP3   OH216004   0.600   4.249   5.503
 5347TIP3    H116005   0.516   4.205   5.511
 5347TIP3    H216006   0.621   4.246   5.409
 5348TIP3   OH216007   6.981   6.263   5.162
 5348TIP3    H116008   6.932   6.328   5.111
 5348TIP3    H216009   6.962   6.180   5.119
 5349TIP3   OH216010   6.271   3.480   1.858
 5349TIP3    H116011   6.268   3.570   1.826
 5349TIP3    H216012   6.254   3.487   1.952
 5350TIP3   OH216013   0.884   6.412   1.746
 5350TIP3    H116014   0.918   6.327   1.775
 5350TIP3    H216015   0.790   6.399   1.737
 5351TIP3   OH216016   5.187   4.453   0.661
 5351TIP3    H116017   5.207   4.375   0.610
 5351TIP3    H216018   5.092   4.463   0.656
 5352TIP3   OH216019   3.586   5.452   0.676
 5352TIP3    H116020   3.522   5.419   0.739
 5352TIP3    H216021   3.585   5.388   0.605
 5353TIP3   OH216022   4.064   1.795   5.587
 5353TIP3    H116023   3.995   1.859   5.575
 5353TIP3    H216024   4.038   1.746   5.665
 5354TIP3   OH216025   0.437   0.876   1.167
 5354TIP3    H116026   0.365   0.813   1.160
 5354TIP3    H216027   0.472   0.882   1.078
 5355TIP3   OH216028   5.349   3.698   1.157
 5355TIP3    H116029   5.375   3.730   1.071
 5355TIP3    H216030   5.338   3.777   1.210
 5356TIP3   OH216031   1.487   5.924   4.634
 5356TIP3    H116032   1.532   5.914   4.550
 5356TIP3    H216033   1.468   6.017   4.641
 5357TIP3   OH216034   2.646   4.518   3.171
 5357TIP3    H116035   2.616   4.575   3.242
 5357TIP3    H216036   2.571   4.512   3.112
 5358TIP3   OH216037   5.723   2.857   4.743
 5358TIP3    H116038   5.727   2.780   4.800
 5358TIP3    H216039   5.704   2.822   4.656
 5359TIP3   OH216040   0.988   5.146   2.138
 5359TIP3    H116041   1.012   5.090   2.212
 5359TIP3    H216042   0.995   5.089   2.061
 5360TIP3   OH216043   1.528   3.536   2.726
 5360TIP3    H116044   1.537   3.627   2.697
 5360TIP3    H216045   1.602   3.491   2.684
 5361TIP3   OH216046   4.256   5.783   2.608
 5361TIP3    H116047   4.163   5.801   2.601
 5361TIP3    H216048   4.290   5.792   2.519
 5362TIP3   OH216049   2.584   2.380   5.432
 5362TIP3    H116050   2.630   2.460   5.457
 5362TIP3    H216051   2.527   2.406   5.359
 5363TIP3   OH216052   7.055   3.972   2.298
 5363TIP3    H116053   7.022   4.062   2.296
 5363TIP3    H216054   7.080   3.958   2.389
 5364TIP3   OH216055   6.511   2.510   5.454
 5364TIP3    H116056   6.443   2.565   5.493
 5364TIP3    H216057   6.523   2.545   5.366
 5365TIP3   OH216058   1.406   3.235   5.204
 5365TIP3    H116059   1.422   3.303   5.139
 5365TIP3    H216060   1.467   3.256   5.275
 5366TIP3   OH216061   5.340   0.102   3.396
 5366TIP3    H116062   5.282   0.174   3.421
 5366TIP3    H216063   5.283   0.025   3.394
 5367TIP3   OH216064   1.845   3.591   2.682
 5367TIP3    H116065   1.813   3.569   2.595
 5367TIP3    H216066   1.940   3.578   2.677
 5368TIP3   OH216067   4.145   2.227   3.981
 5368TIP3    H116068   4.092   2.307   3.979
 5368TIP3    H216069   4.229   2.253   3.942
 5369TIP3   OH216070   2.917   6.786   4.754
 5369TIP3    H116071   2.946   6.704   4.715
 5369TIP3    H216072   2.852   6.821   4.693
 5370TIP3   OH216073   3.374   3.657   0.271
 5370TIP3    H116074   3.438   3.604   0.223
 5370TIP3    H216075   3.408   3.661   0.360
 5371TIP3   OH216076   5.285   5.530   4.396
 5371TIP3    H116077   5.323   5.526   4.308
 5371TIP3    H216078   5.205   5.582   4.385
 5372TIP3   OH216079   3.260   1.363   3.929
 5372TIP3    H116080   3.210   1.443   3.947
 5372TIP3    H216081   3.341   1.374   3.979
 5373TIP3   OH216082   2.843   4.796   2.180
 5373TIP3    H116083   2.776   4.810   2.247
 5373TIP3    H216084   2.795   4.800   2.098
 5374TIP3   OH216085   2.937   1.047   1.669
 5374TIP3    H116086   2.960   0.963   1.629
 5374TIP3    H216087   2.855   1.072   1.627
 5375TIP3   OH216088   6.905   3.050   5.248
 5375TIP3    H116089   6.815   3.019   5.243
 5375TIP3    H216090   6.908   3.125   5.188
 5376TIP3   OH216091   3.889   6.809   1.995
 5376TIP3    H116092   3.884   6.891   2.044
 5376TIP3    H216093   3.857   6.831   1.908
 5377TIP3   OH216094   7.212   3.474   3.891
 5377TIP3    H116095   7.204   3.569   3.897
 5377TIP3    H216096   7.123   3.443   3.874
 5378TIP3   OH216097   5.710   1.287   0.183
 5378TIP3    H116098   5.730   1.300   0.090
 5378TIP3    H216099   5.745   1.365   0.226
 5379TIP3   OH216100   6.847   3.763   4.214
 5379TIP3    H116101   6.818   3.852   4.232
 5379TIP3    H216102   6.911   3.744   4.283
 5380TIP3   OH216103   0.276   6.227   1.949
 5380TIP3    H116104   0.260   6.150   2.005
 5380TIP3    H216105   0.192   6.273   1.949
 5381TIP3   OH216106   7.035   4.345   1.886
 5381TIP3    H116107   6.999   4.385   1.966
 5381TIP3    H216108   7.058   4.420   1.831
 5382TIP3   OH216109   2.474   6.188   4.928
 5382TIP3    H116110   2.476   6.251   5.000
 5382TIP3    H216111   2.381   6.167   4.916
 5383TIP3   OH216112   2.179   3.911   3.519
 5383TIP3    H116113   2.271   3.935   3.531
 5383TIP3    H216114   2.156   3.944   3.432
 5384TIP3   OH216115   6.523   5.317   0.646
 5384TIP3    H116116   6.593   5.366   0.603
 5384TIP3    H216117   6.521   5.233   0.600
 5385TIP3   OH216118   6.129   3.589   0.383
 5385TIP3    H116119   6.160   3.521   0.323
 5385TIP3    H216120   6.038   3.566   0.400
 5386TIP3   OH216121   0.632   6.621   2.968
 5386TIP3    H116122   0.727   6.632   2.965
 5386TIP3    H216123   0.607   6.644   3.057
 5387TIP3   OH216124   6.502   6.056   1.189
 5387TIP3    H116125   6.485   5.987   1.253
 5387TIP3    H216126   6.529   6.009   1.110
 5388TIP3   OH216127   6.188   0.001   1.744
 5388TIP3    H116128   6.114  -0.049   1.709
 5388TIP3    H216129   6.162   0.093   1.735
 5389TIP3   OH216130   6.124   2.818   5.379
 5389TIP3    H116131   6.034   2.841   5.356
 5389TIP3    H216132   6.129   2.835   5.473
 5390TIP3   OH216133   1.930   4.696   0.285
 5390TIP3    H116134   2.007   4.691   0.229
 5390TIP3    H216135   1.958   4.748   0.360
 5391TIP3   OH216136   6.020   6.077   3.698
 5391TIP3    H116137   5.996   6.143   3.763
 5391TIP3    H216138   6.080   6.122   3.638
 5392TIP3   OH216139   3.439   5.317   5.070
 5392TIP3    H116140   3.504   5.262   5.028
 5392TIP3    H216141   3.414   5.269   5.149
 5393TIP3   OH216142   2.736   1.101   1.972
 5393TIP3    H116143   2.794   1.092   2.047
 5393TIP3    H216144   2.709   1.193   1.973
 5394TIP3   OH216145   3.131   6.499   2.161
 5394TIP3    H116146   3.049   6.542   2.136
 5394TIP3    H216147   3.171   6.473   2.078
 5395TIP3   OH216148   0.448   2.641   5.089
 5395TIP3    H116149   0.444   2.545   5.093
 5395TIP3    H216150   0.460   2.667   5.181
 5396TIP3   OH216151   1.952   6.233   0.055
 5396TIP3    H116152   1.967   6.306   0.115
 5396TIP3    H216153   1.881   6.183   0.095
 5397TIP3   OH216154   5.404   3.612   0.407
 5397TIP3    H116155   5.370   3.694   0.370
 5397TIP3    H216156   5.499   3.626   0.412
 5398TIP3   OH216157   2.962   5.868   1.689
 5398TIP3    H116158   2.940   5.852   1.781
 5398TIP3    H216159   2.994   5.958   1.688
 5399TIP3   OH216160   3.505   6.533   5.821
 5399TIP3    H116161   3.500   6.484   5.904
 5399TIP3    H216162   3.468   6.473   5.756
 5400TIP3   OH216163   0.252   4.945   0.929
 5400TIP3    H116164   0.222   5.006   0.862
 5400TIP3    H216165   0.179   4.883   0.939
 5401TIP3   OH216166   3.913   0.149   4.575
 5401TIP3    H116167   3.992   0.122   4.529
 5401TIP3    H216168   3.903   0.085   4.645
 5402TIP3   OH216169   0.013   0.486   2.516
 5402TIP3    H116170   0.070   0.435   2.574
 5402TIP3    H216171  -0.013   0.562   2.567
 5403TIP3   OH216172   6.228   1.704   0.613
 5403TIP3    H116173   6.247   1.694   0.520
 5403TIP3    H216174   6.236   1.798   0.629
 5404TIP3   OH216175   5.286   5.842   5.775
 5404TIP3    H116176   5.223   5.793   5.722
 5404TIP3    H216177   5.256   5.933   5.771
 5405TIP3   OH216178   0.504   6.406   0.949
 5405TIP3    H116179   0.530   6.475   0.887
 5405TIP3    H216180   0.444   6.450   1.009
 5406TIP3   OH216181   0.382   5.905   1.134
 5406TIP3    H116182   0.428   5.944   1.060
 5406TIP3    H216183   0.395   5.811   1.125
 5407TIP3   OH216184   4.413   2.812   0.278
 5407TIP3    H116185   4.328   2.770   0.263
 5407TIP3    H216186   4.393   2.906   0.284
 5408TIP3   OH216187   0.750   0.670   1.177
 5408TIP3    H116188   0.726   0.609   1.246
 5408TIP3    H216189   0.841   0.649   1.156
 5409TIP3   OH216190   0.020   5.937   0.234
 5409TIP3    H116191  -0.050   5.872   0.226
 5409TIP3    H216192   0.100   5.885   0.244
 5410TIP3   OH216193   1.788   6.178   2.809
 5410TIP3    H116194   1.841   6.102   2.835
 5410TIP3    H216195   1.724   6.187   2.879
 5411TIP3   OH216196   0.713   6.063   3.746
 5411TIP3    H116197   0.662   6.144   3.748
 5411TIP3    H216198   0.671   6.007   3.811
 5412TIP3   OH216199   3.004   3.200   2.843
 5412TIP3    H116200   3.084   3.179   2.891
 5412TIP3    H216201   2.933   3.167   2.899
 5413TIP3   OH216202   2.819   6.073   4.068
 5413TIP3    H116203   2.839   6.162   4.040
 5413TIP3    H216204   2.793   6.081   4.159
 5414TIP3   OH216205   3.290   2.738   1.539
 5414TIP3    H116206   3.251   2.654   1.563
 5414TIP3    H216207   3.372   2.715   1.495
 5415TIP3   OH216208   5.648   0.638   3.251
 5415TIP3    H116209   5.725   0.683   3.286
 5415TIP3    H216210   5.582   0.707   3.244
 5416TIP3   OH216211   4.352   5.908   4.287
 5416TIP3    H116212   4.405   5.974   4.243
 5416TIP3    H216213   4.403   5.827   4.279
 5417TIP3   OH216214   6.139   5.647   4.864
 5417TIP3    H116215   6.092   5.697   4.797
 5417TIP3    H216216   6.123   5.556   4.841
 5418TIP3   OH216217   0.690   2.980   1.228
 5418TIP3    H116218   0.724   3.066   1.203
 5418TIP3    H216219   0.764   2.920   1.212
 5419TIP3   OH216220   3.440   6.272   3.400
 5419TIP3    H116221   3.398   6.312   3.476
 5419TIP3    H216222   3.516   6.227   3.435
 5420TIP3   OH216223   4.871   4.599   3.068
 5420TIP3    H116224   4.942   4.545   3.033
 5420TIP3    H216225   4.791   4.559   3.033
 5421TIP3   OH216226   0.412   2.886   3.377
 5421TIP3    H116227   0.352   2.813   3.391
 5421TIP3    H216228   0.495   2.855   3.414
 5422TIP3   OH216229   5.459   6.568   2.898
 5422TIP3    H116230   5.485   6.567   2.990
 5422TIP3    H216231   5.400   6.643   2.891
 5423TIP3   OH216232   6.643   2.561   0.141
 5423TIP3    H116233   6.654   2.653   0.166
 5423TIP3    H216234   6.634   2.563   0.046
 5424TIP3   OH216235   2.796   0.964   2.907
 5424TIP3    H116236   2.704   0.989   2.921
 5424TIP3    H216237   2.805   0.881   2.955
 5425TIP3   OH216238   5.411   0.102   2.661
 5425TIP3    H116239   5.414   0.009   2.683
 5425TIP3    H216240   5.427   0.147   2.744
 5426TIP3   OH216241   2.121   6.078   5.801
 5426TIP3    H116242   2.112   6.052   5.893
 5426TIP3    H216243   2.070   6.012   5.753
 5427TIP3   OH216244   3.125   2.162   2.263
 5427TIP3    H116245   3.154   2.152   2.172
 5427TIP3    H216246   3.197   2.209   2.305
 5428TIP3   OH216247   1.354   0.546   5.835
 5428TIP3    H116248   1.298   0.576   5.907
 5428TIP3    H216249   1.411   0.480   5.875
 5429TIP3   OH216250   3.302   5.359   2.906
 5429TIP3    H116251   3.264   5.373   2.993
 5429TIP3    H216252   3.252   5.285   2.871
 5430TIP3   OH216253   6.536   1.250   3.916
 5430TIP3    H116254   6.571   1.292   3.837
 5430TIP3    H216255   6.540   1.319   3.982
 5431TIP3   OH216256   5.147   6.433   1.330
 5431TIP3    H116257   5.174   6.471   1.246
 5431TIP3    H216258   5.052   6.443   1.332
 5432TIP3   OH216259   3.040   3.094   4.880
 5432TIP3    H116260   3.135   3.106   4.881
 5432TIP3    H216261   3.006   3.176   4.844
 5433TIP3   OH216262   6.879   5.568   0.591
 5433TIP3    H116263   6.853   5.626   0.663
 5433TIP3    H216264   6.801   5.561   0.536
 5434TIP3   OH216265   2.122   5.503   0.024
 5434TIP3    H116266   2.164   5.556   0.091
 5434TIP3    H216267   2.054   5.454   0.070
 5435TIP3   OH216268   0.108   1.185   5.156
 5435TIP3    H116269   0.111   1.274   5.120
 5435TIP3    H216270   0.083   1.130   5.081
 5436TIP3   OH216271   6.260   6.706   1.604
 5436TIP3    H116272   6.355   6.722   1.600
 5436TIP3    H216273   6.222   6.781   1.558
 5437TIP3   OH216274   4.842   5.465   0.387
 5437TIP3    H116275   4.813   5.424   0.469
 5437TIP3    H216276   4.799   5.550   0.385
 5438TIP3   OH216277   0.517   1.459   0.604
 5438TIP3    H116278   0.502   1.419   0.518
 5438TIP3    H216279   0.609   1.441   0.623
 5439TIP3   OH216280   4.582   5.900   5.738
 5439TIP3    H116281   4.537   5.887   5.822
 5439TIP3    H216282   4.556   5.825   5.685
 5440TIP3   OH216283   6.340   2.833   2.769
 5440TIP3    H116284   6.303   2.874   2.846
 5440TIP3    H216285   6.413   2.781   2.802
 5441TIP3   OH216286   3.220   5.545   2.721
 5441TIP3    H116287   3.243   5.625   2.768
 5441TIP3    H216288   3.229   5.476   2.786
 5442TIP3   OH216289   3.636   6.435   2.936
 5442TIP3    H116290   3.691   6.359   2.917
 5442TIP3    H216291   3.588   6.411   3.015
 5443TIP3   OH216292   3.745   1.981   5.903
 5443TIP3    H116293   3.719   1.890   5.894
 5443TIP3    H216294   3.835   1.978   5.934
 5444TIP3   OH216295   2.088   4.575   2.887
 5444TIP3    H116296   2.007   4.600   2.931
 5444TIP3    H216297   2.156   4.626   2.931
 5445TIP3   OH216298   4.192   5.988   0.058
 5445TIP3    H116299   4.104   6.026   0.063
 5445TIP3    H216300   4.218   5.975   0.149
 5446TIP3   OH216301   2.056   1.585   5.479
 5446TIP3    H116302   1.982   1.620   5.429
 5446TIP3    H216303   2.115   1.659   5.490
 5447TIP3   OH216304   3.481   6.445   4.908
 5447TIP3    H116305   3.408   6.457   4.848
 5447TIP3    H216306   3.555   6.423   4.852
 5448TIP3   OH216307   1.376   6.011   1.095
 5448TIP3    H116308   1.472   6.009   1.087
 5448TIP3    H216309   1.345   5.954   1.024
 5449TIP3   OH216310   2.999   4.954   2.998
 5449TIP3    H116311   2.977   4.917   2.913
 5449TIP3    H216312   3.062   4.892   3.035
 5450TIP3   OH216313   0.580   1.898   0.040
 5450TIP3    H116314   0.640   1.918  -0.032
 5450TIP3    H216315   0.638   1.869   0.111
 5451TIP3   OH216316   4.059   6.371   2.857
 5451TIP3    H116317   4.098   6.331   2.934
 5451TIP3    H216318   4.130   6.374   2.793
 5452TIP3   OH216319   7.051   5.659   4.123
 5452TIP3    H116320   7.105   5.698   4.192
 5452TIP3    H216321   6.971   5.711   4.123
 5453TIP3   OH216322   3.990   0.959   1.757
 5453TIP3    H116323   3.911   0.920   1.721
 5453TIP3    H216324   4.051   0.886   1.767
 5454TIP3   OH216325   4.243   5.190   3.738
 5454TIP3    H116326   4.265   5.216   3.827
 5454TIP3    H216327   4.302   5.241   3.683
 5455TIP3   OH216328   3.568   1.176   3.357
 5455TIP3    H116329   3.557   1.101   3.416
 5455TIP3    H216330   3.479   1.195   3.325
 5456TIP3   OH216331   6.670   1.650   2.562
 5456TIP3    H116332   6.747   1.698   2.533
 5456TIP3    H216333   6.599   1.682   2.505
 5457TIP3   OH216334   4.034   4.971   3.366
 5457TIP3    H116335   4.028   5.026   3.444
 5457TIP3    H216336   4.046   4.882   3.400
 5458TIP3   OH216337   4.091   2.952   1.495
 5458TIP3    H116338   4.123   2.945   1.405
 5458TIP3    H216339   4.162   2.917   1.549
 5459TIP3   OH216340   3.760   1.692   2.853
 5459TIP3    H116341   3.819   1.765   2.833
 5459TIP3    H216342   3.817   1.616   2.858
 5460TIP3   OH216343   3.028   2.811   4.932
 5460TIP3    H116344   2.998   2.899   4.910
 5460TIP3    H216345   3.124   2.818   4.933
 5461TIP3   OH216346   2.048   5.809   5.646
 5461TIP3    H116347   2.025   5.725   5.605
 5461TIP3    H216348   2.077   5.785   5.734
 5462TIP3   OH216349   7.159   0.946   0.106
 5462TIP3    H116350   7.179   0.906   0.022
 5462TIP3    H216351   7.117   1.029   0.085
 5463TIP3   OH216352   1.435   3.279   2.446
 5463TIP3    H116353   1.341   3.281   2.462
 5463TIP3    H216354   1.461   3.371   2.442
 5464TIP3   OH216355   2.938   3.764   5.359
 5464TIP3    H116356   2.914   3.824   5.289
 5464TIP3    H216357   2.882   3.687   5.345
 5465TIP3   OH216358   0.426   6.421   0.627
 5465TIP3    H116359   0.380   6.503   0.610
 5465TIP3    H216360   0.497   6.419   0.563
 5466TIP3   OH216361   1.914   5.586   0.645
 5466TIP3    H116362   1.844   5.645   0.615
 5466TIP3    H216363   1.978   5.587   0.574
 5467TIP3   OH216364   5.689   5.953   1.710
 5467TIP3    H116365   5.668   5.861   1.725
 5467TIP3    H216366   5.773   5.966   1.754
 5468TIP3   OH216367   6.841   0.688   5.218
 5468TIP3    H116368   6.799   0.704   5.302
 5468TIP3    H216369   6.922   0.739   5.221
 5469TIP3   OH216370   1.934   1.090   5.654
 5469TIP3    H116371   1.893   1.106   5.569
 5469TIP3    H216372   2.010   1.036   5.635
 5470TIP3   OH216373   0.228   5.734   2.702
 5470TIP3    H116374   0.262   5.663   2.647
 5470TIP3    H216375   0.203   5.802   2.639
 5471TIP3   OH216376   5.314   3.259   1.925
 5471TIP3    H116377   5.379   3.192   1.944
 5471TIP3    H216378   5.232   3.223   1.959
 5472TIP3   OH216379   5.809   0.793   4.684
 5472TIP3    H116380   5.824   0.842   4.765
 5472TIP3    H216381   5.729   0.829   4.648
 5473TIP3   OH216382   1.269   2.160   0.081
 5473TIP3    H116383   1.219   2.093   0.129
 5473TIP3    H216384   1.204   2.203   0.026
 5474TIP3   OH216385   0.746   1.002   2.196
 5474TIP3    H116386   0.813   0.962   2.140
 5474TIP3    H216387   0.789   1.015   2.280
 5475TIP3   OH216388   1.827   3.231   2.305
 5475TIP3    H116389   1.781   3.163   2.257
 5475TIP3    H216390   1.920   3.218   2.284
 5476TIP3   OH216391   6.993   1.149   1.765
 5476TIP3    H116392   7.045   1.069   1.773
 5476TIP3    H216393   6.907   1.126   1.798
 5477TIP3   OH216394   6.389   2.639   4.580
 5477TIP3    H116395   6.482   2.623   4.598
 5477TIP3    H216396   6.385   2.652   4.486
 5478TIP3   OH216397   7.224   5.464   3.208
 5478TIP3    H116398   7.230   5.490   3.300
 5478TIP3    H216399   7.157   5.395   3.207
 5479TIP3   OH216400   1.614   0.438   2.737
 5479TIP3    H116401   1.568   0.358   2.711
 5479TIP3    H216402   1.587   0.503   2.672
 5480TIP3   OH216403   5.490   4.606   1.129
 5480TIP3    H116404   5.474   4.630   1.220
 5480TIP3    H216405   5.563   4.545   1.132
 5481TIP3   OH216406   0.691   2.137   5.070
 5481TIP3    H116407   0.750   2.071   5.034
 5481TIP3    H216408   0.611   2.128   5.019
 5482TIP3   OH216409   6.501   4.691   4.812
 5482TIP3    H116410   6.476   4.688   4.904
 5482TIP3    H216411   6.595   4.712   4.813
 5483TIP3   OH216412   5.009   0.547   3.028
 5483TIP3    H116413   4.948   0.540   2.954
 5483TIP3    H216414   4.963   0.509   3.102
 5484TIP3   OH216415   6.775   1.572   0.544
 5484TIP3    H116416   6.727   1.559   0.463
 5484TIP3    H216417   6.867   1.572   0.517
 5485TIP3   OH216418   2.366   2.575   3.160
 5485TIP3    H116419   2.312   2.554   3.084
 5485TIP3    H216420   2.417   2.652   3.133
 5486TIP3   OH216421   0.404   5.695   2.265
 5486TIP3    H116422   0.420   5.712   2.358
 5486TIP3    H216423   0.310   5.679   2.260
 5487TIP3   OH216424   1.699   6.251   1.717
 5487TIP3    H116425   1.790   6.227   1.731
 5487TIP3    H216426   1.696   6.345   1.735
 5488TIP3   OH216427   5.583   4.166   2.705
 5488TIP3    H116428   5.619   4.100   2.646
 5488TIP3    H216429   5.632   4.155   2.787
 5489TIP3   OH216430   0.963   1.969   3.796
 5489TIP3    H116431   0.942   1.906   3.865
 5489TIP3    H216432   1.059   1.974   3.797
 5490TIP3   OH216433   6.063   3.936   0.461
 5490TIP3    H116434   6.156   3.925   0.442
 5490TIP3    H216435   6.019   3.924   0.377
 5491TIP3   OH216436   0.685   5.579   3.118
 5491TIP3    H116437   0.708   5.532   3.038
 5491TIP3    H216438   0.745   5.654   3.121
 5492TIP3   OH216439   6.615   1.075   5.095
 5492TIP3    H116440   6.556   1.110   5.162
 5492TIP3    H216441   6.695   1.053   5.142
 5493TIP3   OH216442   4.863   4.674   1.911
 5493TIP3    H116443   4.785   4.685   1.858
 5493TIP3    H216444   4.854   4.587   1.950
 5494TIP3   OH216445   0.267   2.319   2.724
 5494TIP3    H116446   0.253   2.225   2.724
 5494TIP3    H216447   0.181   2.356   2.704
 5495TIP3   OH216448   6.002   2.198   5.329
 5495TIP3    H116449   6.070   2.261   5.350
 5495TIP3    H216450   6.048   2.126   5.287
 5496TIP3   OH216451   3.566   1.190   2.047
 5496TIP3    H116452   3.571   1.133   1.971
 5496TIP3    H216453   3.485   1.239   2.036
 5497TIP3   OH216454   6.762   5.268   1.441
 5497TIP3    H116455   6.796   5.281   1.353
 5497TIP3    H216456   6.701   5.340   1.455
 5498TIP3   OH216457   2.227   6.370   4.895
 5498TIP3    H116458   2.160   6.402   4.835
 5498TIP3    H216459   2.206   6.278   4.908
 5499TIP3   OH216460   3.394   6.518   4.384
 5499TIP3    H116461   3.433   6.442   4.427
 5499TIP3    H216462   3.304   6.521   4.416
 5500TIP3   OH216463   5.807   4.304   0.497
 5500TIP3    H116464   5.827   4.224   0.449
 5500TIP3    H216465   5.786   4.368   0.430
 5501TIP3   OH216466   5.857   2.751   3.392
 5501TIP3    H116467   5.865   2.659   3.414
 5501TIP3    H216468   5.763   2.767   3.390
 5502TIP3   OH216469   5.008   1.544   5.447
 5502TIP3    H116470   5.035   1.466   5.398
 5502TIP3    H216471   5.083   1.604   5.440
 5503TIP3   OH216472   1.801   2.630   3.288
 5503TIP3    H116473   1.722   2.681   3.310
 5503TIP3    H216474   1.802   2.559   3.352
 5504TIP3   OH216475   6.009   4.098   4.395
 5504TIP3    H116476   5.955   4.032   4.438
 5504TIP3    H216477   6.043   4.152   4.467
 5505TIP3   OH216478   0.615   4.695   5.042
 5505TIP3    H116479   0.526   4.683   5.075
 5505TIP3    H216480   0.629   4.790   5.044
 5506TIP3   OH216481   0.117   2.203   5.402
 5506TIP3    H116482   0.166   2.285   5.407
 5506TIP3    H216483   0.030   2.225   5.434
 5507TIP3   OH216484   1.937   5.488   2.207
 5507TIP3    H116485   1.854   5.492   2.255
 5507TIP3    H216486   2.000   5.534   2.262
 5508TIP3   OH216487   0.531   0.506   1.081
 5508TIP3    H116488   0.446   0.501   1.125
 5508TIP3    H216489   0.568   0.589   1.110
 5509TIP3   OH216490   4.021   4.482   0.521
 5509TIP3    H116491   3.934   4.469   0.560
 5509TIP3    H216492   4.082   4.452   0.588
 5510TIP3   OH216493   6.650   0.849   4.292
 5510TIP3    H116494   6.610   0.935   4.307
 5510TIP3    H216495   6.583   0.799   4.245
 5511TIP3   OH216496   5.567   2.066   3.308
 5511TIP3    H116497   5.579   2.147   3.257
 5511TIP3    H216498   5.622   2.078   3.385
 5512TIP3   OH216499   5.925   0.587   1.466
 5512TIP3    H116500   5.967   0.504   1.443
 5512TIP3    H216501   5.841   0.585   1.421
 5513TIP3   OH216502   3.119   6.142   0.662
 5513TIP3    H116503   3.030   6.161   0.690
 5513TIP3    H216504   3.119   6.047   0.647
 5514TIP3   OH216505   1.242   1.053   1.817
 5514TIP3    H116506   1.196   1.084   1.739
 5514TIP3    H216507   1.330   1.091   1.809
 5515TIP3   OH216508   1.760   0.770   4.861
 5515TIP3    H116509   1.800   0.794   4.945
 5515TIP3    H216510   1.829   0.784   4.797
 5516TIP3   OH216511   2.885   3.401   0.350
 5516TIP3    H116512   2.804   3.351   0.353
 5516TIP3    H216513   2.874   3.469   0.416
 5517TIP3   OH216514   5.611   5.428   4.352
 5517TIP3    H116515   5.535   5.471   4.312
 5517TIP3    H216516   5.675   5.498   4.362
 5518TIP3   OH216517   1.821   2.663   2.188
 5518TIP3    H116518   1.880   2.736   2.206
 5518TIP3    H216519   1.805   2.667   2.094
 5519TIP3   OH216520   5.478   3.091   2.045
 5519TIP3    H116521   5.565   3.079   2.008
 5519TIP3    H216522   5.480   3.044   2.128
 5520TIP3   OH216523   3.017   2.125   2.614
 5520TIP3    H116524   2.991   2.101   2.703
 5520TIP3    H216525   2.983   2.214   2.602
 5521TIP3   OH216526   3.887   5.486   1.430
 5521TIP3    H116527   3.955   5.532   1.479
 5521TIP3    H216528   3.884   5.399   1.470
 5522TIP3   OH216529   3.987   5.944   5.522
 5522TIP3    H116530   4.018   5.912   5.437
 5522TIP3    H216531   3.951   6.031   5.503
 5523TIP3   OH216532   3.484   4.123   0.340
 5523TIP3    H116533   3.409   4.177   0.316
 5523TIP3    H216534   3.447   4.052   0.391
 5524TIP3   OH216535   0.366   2.756   4.853
 5524TIP3    H116536   0.426   2.754   4.778
 5524TIP3    H216537   0.410   2.703   4.919
 5525TIP3   OH216538   7.098   5.812   5.166
 5525TIP3    H116539   7.072   5.904   5.167
 5525TIP3    H216540   7.041   5.770   5.231
 5526TIP3   OH216541   0.708   4.886   5.559
 5526TIP3    H116542   0.795   4.908   5.593
 5526TIP3    H216543   0.724   4.849   5.473
 5527TIP3   OH216544   0.635   6.472   5.927
 5527TIP3    H116545   0.659   6.513   5.844
 5527TIP3    H216546   0.705   6.408   5.942
 5528TIP3   OH216547   1.217   0.814   2.933
 5528TIP3    H116548   1.184   0.827   2.844
 5528TIP3    H216549   1.271   0.735   2.927
 5529TIP3   OH216550   3.384   4.760   3.393
 5529TIP3    H116551   3.396   4.666   3.377
 5529TIP3    H216552   3.372   4.767   3.488
 5530TIP3   OH216553   1.630   4.219   3.855
 5530TIP3    H116554   1.694   4.269   3.804
 5530TIP3    H216555   1.548   4.228   3.806
 5531TIP3   OH216556   5.090   4.901   5.723
 5531TIP3    H116557   5.156   4.834   5.740
 5531TIP3    H216558   5.007   4.852   5.718
 5532TIP3   OH216559   2.930   4.241   1.995
 5532TIP3    H116560   2.841   4.225   1.963
 5532TIP3    H216561   2.921   4.248   2.090
 5533TIP3   OH216562   1.416   3.989  -0.022
 5533TIP3    H116563   1.449   3.929   0.045
 5533TIP3    H216564   1.455   3.957  -0.103
 5534TIP3   OH216565   3.467   4.498   1.935
 5534TIP3    H116566   3.402   4.459   1.994
 5534TIP3    H216567   3.551   4.461   1.963
 5535TIP3   OH216568   3.762   3.524   0.504
 5535TIP3    H116569   3.856   3.523   0.487
 5535TIP3    H216570   3.753   3.489   0.592
 5536TIP3   OH216571   6.250   6.670   2.070
 5536TIP3    H116572   6.178   6.607   2.065
 5536TIP3    H216573   6.329   6.616   2.068
 5537TIP3   OH216574   5.288   5.740   1.998
 5537TIP3    H116575   5.283   5.828   1.962
 5537TIP3    H216576   5.257   5.683   1.927
 5538TIP3   OH216577   0.483   2.022   0.733
 5538TIP3    H116578   0.572   2.055   0.737
 5538TIP3    H216579   0.459   2.029   0.640
 5539TIP3   OH216580   3.030   6.018   1.026
 5539TIP3    H116581   3.019   5.938   0.974
 5539TIP3    H216582   3.123   6.020   1.049
 5540TIP3   OH216583   1.935   4.882   3.576
 5540TIP3    H116584   1.955   4.949   3.641
 5540TIP3    H216585   2.013   4.827   3.574
 5541TIP3   OH216586   6.363   2.120   3.837
 5541TIP3    H116587   6.316   2.043   3.870
 5541TIP3    H216588   6.453   2.089   3.823
 5542TIP3   OH216589   2.575   0.811   2.242
 5542TIP3    H116590   2.582   0.726   2.200
 5542TIP3    H216591   2.634   0.806   2.317
 5543TIP3   OH216592   0.481   2.286   1.906
 5543TIP3    H116593   0.453   2.330   1.986
 5543TIP3    H216594   0.562   2.330   1.882
 5544TIP3   OH216595   7.234   2.051   3.404
 5544TIP3    H116596   7.287   2.115   3.451
 5544TIP3    H216597   7.146   2.089   3.402
 5545TIP3   OH216598   3.189   1.802   5.021
 5545TIP3    H116599   3.242   1.878   4.995
 5545TIP3    H216600   3.178   1.813   5.116
 5546TIP3   OH216601   3.371   3.653   4.295
 5546TIP3    H116602   3.403   3.564   4.284
 5546TIP3    H216603   3.362   3.687   4.206
 5547TIP3   OH216604   6.124   4.892   3.948
 5547TIP3    H116605   6.143   4.978   3.913
 5547TIP3    H216606   6.207   4.864   3.988
 5548TIP3   OH216607   4.757   5.231   0.538
 5548TIP3    H116608   4.683   5.178   0.566
 5548TIP3    H216609   4.820   5.225   0.609
 5549TIP3   OH216610   5.094   3.469   4.119
 5549TIP3    H116611   5.040   3.430   4.050
 5549TIP3    H216612   5.155   3.526   4.072
 5550TIP3   OH216613   6.019   2.747   3.173
 5550TIP3    H116614   6.071   2.667   3.178
 5550TIP3    H216615   5.968   2.748   3.254
 5551TIP3   OH216616   2.901   5.119   3.652
 5551TIP3    H116617   2.952   5.084   3.579
 5551TIP3    H216618   2.899   5.213   3.637
 5552TIP3   OH216619   2.691   6.079   3.042
 5552TIP3    H116620   2.665   6.000   2.994
 5552TIP3    H216621   2.628   6.145   3.015
 5553TIP3   OH216622   0.308   0.020   4.113
 5553TIP3    H116623   0.252   0.052   4.182
 5553TIP3    H216624   0.368   0.092   4.094
 5554TIP3   OH216625   7.038   2.183   5.465
 5554TIP3    H116626   7.023   2.270   5.502
 5554TIP3    H216627   6.964   2.131   5.495
 5555TIP3   OH216628   1.011   3.019   3.633
 5555TIP3    H116629   1.000   3.089   3.569
 5555TIP3    H216630   1.044   2.945   3.582
 5556TIP3   OH216631   3.348   1.860   2.650
 5556TIP3    H116632   3.305   1.899   2.574
 5556TIP3    H216633   3.366   1.770   2.625
 5557TIP3   OH216634   6.485   0.292   0.161
 5557TIP3    H116635   6.558   0.261   0.106
 5557TIP3    H216636   6.408   0.282   0.106
 5558TIP3   OH216637   4.206   5.587   3.598
 5558TIP3    H116638   4.152   5.667   3.603
 5558TIP3    H216639   4.188   5.552   3.511
 5559TIP3   OH216640   2.714   5.267   3.143
 5559TIP3    H116641   2.767   5.243   3.218
 5559TIP3    H216642   2.652   5.332   3.177
 5560TIP3   OH216643   0.092   2.735   5.077
 5560TIP3    H116644   0.030   2.681   5.029
 5560TIP3    H216645   0.130   2.794   5.012
 5561TIP3   OH216646   6.986   1.224   4.920
 5561TIP3    H116647   6.891   1.222   4.907
 5561TIP3    H216648   7.020   1.263   4.839
 5562TIP3   OH216649   2.498   3.913   0.874
 5562TIP3    H116650   2.526   3.822   0.884
 5562TIP3    H216651   2.575   3.958   0.837
 5563TIP3   OH216652   5.161   4.494   3.628
 5563TIP3    H116653   5.106   4.493   3.707
 5563TIP3    H216654   5.229   4.558   3.647
 5564TIP3   OH216655   6.320   4.763   1.955
 5564TIP3    H116656   6.295   4.840   2.005
 5564TIP3    H216657   6.352   4.797   1.872
 5565TIP3   OH216658   2.685   0.074   5.776
 5565TIP3    H116659   2.730   0.133   5.716
 5565TIP3    H216660   2.749   0.059   5.846
 5566TIP3   OH216661   6.588   4.274   4.660
 5566TIP3    H116662   6.601   4.281   4.755
 5566TIP3    H216663   6.670   4.307   4.623
 5567TIP3   OH216664   5.586   1.263   4.001
 5567TIP3    H116665   5.597   1.244   4.094
 5567TIP3    H216666   5.557   1.181   3.962
 5568TIP3   OH216667   0.346   3.193   3.477
 5568TIP3    H116668   0.337   3.138   3.554
 5568TIP3    H216669   0.437   3.182   3.449
 5569TIP3   OH216670   5.626   0.566   1.052
 5569TIP3    H116671   5.589   0.485   1.016
 5569TIP3    H216672   5.641   0.622   0.976
 5570TIP3   OH216673   4.607   5.213   2.146
 5570TIP3    H116674   4.635   5.148   2.081
 5570TIP3    H216675   4.687   5.233   2.195
 5571TIP3   OH216676   2.735   1.954   2.431
 5571TIP3    H116677   2.659   1.948   2.489
 5571TIP3    H216678   2.806   1.913   2.481
 5572TIP3   OH216679   1.250   4.314   3.290
 5572TIP3    H116680   1.247   4.402   3.253
 5572TIP3    H216681   1.168   4.306   3.340
 5573TIP3   OH216682   2.870   3.587   0.574
 5573TIP3    H116683   2.782   3.570   0.607
 5573TIP3    H216684   2.928   3.553   0.642
 5574TIP3   OH216685   0.768   1.379   1.999
 5574TIP3    H116686   0.763   1.301   1.945
 5574TIP3    H216687   0.753   1.452   1.938
 5575TIP3   OH216688   4.688   1.380   3.691
 5575TIP3    H116689   4.735   1.449   3.644
 5575TIP3    H216690   4.605   1.372   3.644
 5576TIP3   OH216691   1.393   4.992   4.134
 5576TIP3    H116692   1.299   4.999   4.113
 5576TIP3    H216693   1.428   4.933   4.067
 5577TIP3   OH216694   1.395   3.658   1.060
 5577TIP3    H116695   1.349   3.643   0.978
 5577TIP3    H216696   1.357   3.596   1.121
 5578TIP3   OH216697   5.491   5.600   4.565
 5578TIP3    H116698   5.422   5.580   4.502
 5578TIP3    H216699   5.522   5.514   4.594
 5579TIP3   OH216700   1.669   5.488   2.401
 5579TIP3    H116701   1.623   5.550   2.458
 5579TIP3    H216702   1.602   5.459   2.339
 5580TIP3   OH216703   5.261   2.853   5.759
 5580TIP3    H116704   5.275   2.865   5.853
 5580TIP3    H216705   5.203   2.778   5.753
 5581TIP3   OH216706   5.844   3.495   5.891
 5581TIP3    H116707   5.863   3.479   5.984
 5581TIP3    H216708   5.761   3.543   5.892
 5582TIP3   OH216709   5.810   4.221   3.569
 5582TIP3    H116710   5.847   4.171   3.496
 5582TIP3    H216711   5.838   4.311   3.553
 5583TIP3   OH216712   4.599   0.776   3.458
 5583TIP3    H116713   4.536   0.802   3.525
 5583TIP3    H216714   4.551   0.714   3.403
 5584TIP3   OH216715   1.029  -0.031   2.464
 5584TIP3    H116716   1.059   0.016   2.386
 5584TIP3    H216717   0.983   0.036   2.516
 5585TIP3   OH216718   0.976   5.824   2.343
 5585TIP3    H116719   1.005   5.827   2.434
 5585TIP3    H216720   0.908   5.757   2.341
 5586TIP3   OH216721   2.389   4.338   4.265
 5586TIP3    H116722   2.310   4.285   4.257
 5586TIP3    H216723   2.373   4.415   4.212
 5587TIP3   OH216724   0.957   1.652   3.410
 5587TIP3    H116725   0.877   1.645   3.358
 5587TIP3    H216726   0.937   1.609   3.492
 5588TIP3   OH216727   5.486   1.313   1.439
 5588TIP3    H116728   5.432   1.384   1.404
 5588TIP3    H216729   5.559   1.305   1.378
 5589TIP3   OH216730   4.988   0.789   4.993
 5589TIP3    H116731   4.961   0.874   4.960
 5589TIP3    H216732   5.008   0.804   5.085
 5590TIP3   OH216733   2.416   0.682   0.035
 5590TIP3    H116734   2.467   0.622  -0.020
 5590TIP3    H216735   2.457   0.676   0.121
 5591TIP3   OH216736   2.175   3.937   3.196
 5591TIP3    H116737   2.132   3.865   3.149
 5591TIP3    H216738   2.266   3.909   3.205
 5592TIP3   OH216739   4.139   0.077   1.841
 5592TIP3    H116740   4.216   0.021   1.826
 5592TIP3    H216741   4.087   0.067   1.761
 5593TIP3   OH216742   4.179   4.129   2.577
 5593TIP3    H116743   4.252   4.106   2.520
 5593TIP3    H216744   4.207   4.100   2.664
 5594TIP3   OH216745   0.760   6.094   5.076
 5594TIP3    H116746   0.747   6.085   5.170
 5594TIP3    H216747   0.678   6.065   5.037
 5595TIP3   OH216748   4.325   3.652   4.401
 5595TIP3    H116749   4.342   3.683   4.313
 5595TIP3    H216750   4.322   3.556   4.393
 5596TIP3   OH216751   0.871   2.731   2.561
 5596TIP3    H116752   0.956   2.771   2.542
 5596TIP3    H216753   0.891   2.640   2.583
 5597TIP3   OH216754   6.733   4.141   3.850
 5597TIP3    H116755   6.794   4.076   3.885
 5597TIP3    H216756   6.650   4.094   3.843
 5598TIP3   OH216757   6.902   3.603   3.106
 5598TIP3    H116758   6.919   3.600   3.200
 5598TIP3    H216759   6.867   3.691   3.090
 5599TIP3   OH216760   2.010   0.471   4.504
 5599TIP3    H116761   2.059   0.412   4.561
 5599TIP3    H216762   1.926   0.428   4.492
 5600TIP3   OH216763   4.185   6.381   3.102
 5600TIP3    H116764   4.228   6.321   3.162
 5600TIP3    H216765   4.167   6.459   3.154
 5601TIP3   OH216766   1.709   6.082   2.550
 5601TIP3    H116767   1.623   6.123   2.558
 5601TIP3    H216768   1.751   6.096   2.635
 5602TIP3   OH216769   3.569   3.755   5.250
 5602TIP3    H116770   3.495   3.701   5.278
 5602TIP3    H216771   3.545   3.786   5.163
 5603TIP3   OH216772   4.518   6.113   4.197
 5603TIP3    H116773   4.604   6.154   4.203
 5603TIP3    H216774   4.480   6.149   4.117
 5604TIP3   OH216775   1.322   5.652   1.864
 5604TIP3    H116776   1.284   5.565   1.878
 5604TIP3    H216777   1.348   5.652   1.772
 5605TIP3   OH216778   0.625   3.671   3.830
 5605TIP3    H116779   0.530   3.658   3.822
 5605TIP3    H216780   0.661   3.583   3.823
 5606TIP3   OH216781   6.097   2.266   3.537
 5606TIP3    H116782   6.101   2.184   3.586
 5606TIP3    H216783   6.133   2.332   3.596
 5607TIP3   OH216784   0.681   2.982   4.797
 5607TIP3    H116785   0.694   3.025   4.712
 5607TIP3    H216786   0.658   2.892   4.775
 5608TIP3   OH216787   3.512   2.272   1.336
 5608TIP3    H116788   3.423   2.298   1.357
 5608TIP3    H216789   3.517   2.180   1.360
 5609TIP3   OH216790   0.085   2.131   3.126
 5609TIP3    H116791  -0.007   2.157   3.119
 5609TIP3    H216792   0.086   2.038   3.102
 5610TIP3   OH216793   3.086   2.737   5.595
 5610TIP3    H116794   3.036   2.727   5.514
 5610TIP3    H216795   3.075   2.654   5.641
 5611TIP3   OH216796   7.042   2.669   3.658
 5611TIP3    H116797   7.111   2.610   3.686
 5611TIP3    H216798   7.056   2.748   3.712
 5612TIP3   OH216799   2.597   3.055   0.527
 5612TIP3    H116800   2.630   2.979   0.479
 5612TIP3    H216801   2.503   3.055   0.510
 5613TIP3   OH216802   6.247   4.561   2.539
 5613TIP3    H116803   6.156   4.537   2.527
 5613TIP3    H216804   6.255   4.647   2.498
 5614TIP3   OH216805   0.299   0.185   4.323
 5614TIP3    H116806   0.215   0.230   4.329
 5614TIP3    H216807   0.363   0.255   4.308
 5615TIP3   OH216808   6.379   6.603   0.867
 5615TIP3    H116809   6.336   6.638   0.789
 5615TIP3    H216810   6.330   6.640   0.940
 5616TIP3   OH216811   0.874   3.497   5.735
 5616TIP3    H116812   0.848   3.450   5.656
 5616TIP3    H216813   0.961   3.463   5.756
 5617TIP3   OH216814   1.628   1.219   5.382
 5617TIP3    H116815   1.646   1.291   5.444
 5617TIP3    H216816   1.711   1.173   5.374
 5618TIP3   OH216817   6.807   5.467   0.893
 5618TIP3    H116818   6.853   5.551   0.886
 5618TIP3    H216819   6.719   5.485   0.860
 5619TIP3   OH216820   6.569   6.135   0.282
 5619TIP3    H116821   6.546   6.079   0.356
 5619TIP3    H216822   6.587   6.221   0.320
 5620TIP3   OH216823   0.009   3.946   5.663
 5620TIP3    H116824  -0.087   3.945   5.659
 5620TIP3    H216825   0.029   3.970   5.753
 5621TIP3   OH216826   0.272   1.626   5.635
 5621TIP3    H116827   0.294   1.647   5.726
 5621TIP3    H216828   0.187   1.584   5.639
 5622TIP3   OH216829   1.716   1.309   2.603
 5622TIP3    H116830   1.784   1.270   2.548
 5622TIP3    H216831   1.764   1.340   2.680
 5623TIP3   OH216832   2.684   0.546   5.328
 5623TIP3    H116833   2.708   0.522   5.238
 5623TIP3    H216834   2.767   0.550   5.375
 5624TIP3   OH216835   1.300   4.168   3.054
 5624TIP3    H116836   1.285   4.075   3.073
 5624TIP3    H216837   1.288   4.212   3.138
 5625TIP3   OH216838   4.159   1.970   5.220
 5625TIP3    H116839   4.149   2.035   5.290
 5625TIP3    H216840   4.224   2.008   5.161
 5626TIP3   OH216841   0.862   2.765   4.556
 5626TIP3    H116842   0.817   2.746   4.474
 5626TIP3    H216843   0.915   2.842   4.537
 5627TIP3   OH216844   1.791   5.792   5.239
 5627TIP3    H116845   1.845   5.818   5.164
 5627TIP3    H216846   1.801   5.697   5.242
 5628TIP3   OH216847   1.167   5.862   5.391
 5628TIP3    H116848   1.162   5.944   5.441
 5628TIP3    H216849   1.201   5.798   5.454
 5629TIP3   OH216850   0.764   3.600   4.565
 5629TIP3    H116851   0.799   3.514   4.587
 5629TIP3    H216852   0.683   3.607   4.616
 5630TIP3   OH216853   6.485   3.026   1.763
 5630TIP3    H116854   6.559   3.011   1.822
 5630TIP3    H216855   6.408   3.006   1.815
 5631TIP3   OH216856   2.615   4.526   2.806
 5631TIP3    H116857   2.540   4.546   2.750
 5631TIP3    H216858   2.578   4.476   2.879
 5632TIP3   OH216859   0.375   0.046   1.763
 5632TIP3    H116860   0.351   0.132   1.797
 5632TIP3    H216861   0.320  -0.015   1.812
 5633TIP3   OH216862   1.042   1.858   4.319
 5633TIP3    H116863   1.127   1.836   4.280
 5633TIP3    H216864   1.026   1.787   4.382
 5634TIP3   OH216865   3.529   2.391   4.591
 5634TIP3    H116866   3.480   2.468   4.562
 5634TIP3    H216867   3.613   2.397   4.545
 5635TIP3   OH216868   7.048   4.927   5.261
 5635TIP3    H116869   7.035   5.009   5.213
 5635TIP3    H216870   7.107   4.950   5.333
 5636TIP3   OH216871   2.326   4.235   5.483
 5636TIP3    H116872   2.392   4.218   5.550
 5636TIP3    H216873   2.278   4.312   5.514
 5637TIP3   OH216874   4.090   5.836   3.623
 5637TIP3    H116875   4.143   5.901   3.669
 5637TIP3    H216876   4.078   5.872   3.535
 5638TIP3   OH216877   3.538   5.284   2.740
 5638TIP3    H116878   3.598   5.353   2.714
 5638TIP3    H216879   3.469   5.329   2.789
 5639TIP3   OH216880   4.370   1.684   1.171
 5639TIP3    H116881   4.348   1.751   1.236
 5639TIP3    H216882   4.435   1.725   1.115
 5640TIP3   OH216883   5.835   1.533   4.850
 5640TIP3    H116884   5.788   1.606   4.891
 5640TIP3    H216885   5.855   1.474   4.923
 5641TIP3   OH216886   6.544   6.617   1.271
 5641TIP3    H116887   6.495   6.546   1.312
 5641TIP3    H216888   6.567   6.583   1.185
 5642TIP3   OH216889   2.926   4.553   2.474
 5642TIP3    H116890   2.919   4.648   2.472
 5642TIP3    H216891   2.984   4.532   2.401
 5643TIP3   OH216892   6.903   2.018   5.098
 5643TIP3    H116893   6.831   1.972   5.142
 5643TIP3    H216894   6.951   1.949   5.053
 5644TIP3   OH216895   5.867   1.782   0.882
 5644TIP3    H116896   5.791   1.815   0.833
 5644TIP3    H216897   5.833   1.708   0.932
 5645TIP3   OH216898   2.552   4.280   0.086
 5645TIP3    H116899   2.538   4.341   0.158
 5645TIP3    H216900   2.546   4.334   0.007
 5646TIP3   OH216901   3.523   4.643   3.772
 5646TIP3    H116902   3.481   4.722   3.738
 5646TIP3    H216903   3.593   4.676   3.828
 5647TIP3   OH216904   2.227   3.867   4.149
 5647TIP3    H116905   2.134   3.846   4.149
 5647TIP3    H216906   2.244   3.903   4.062
 5648TIP3   OH216907   6.000   6.778   4.223
 5648TIP3    H116908   5.980   6.700   4.170
 5648TIP3    H216909   6.091   6.799   4.200
 5649TIP3   OH216910   1.620   3.354   4.126
 5649TIP3    H116911   1.668   3.368   4.045
 5649TIP3    H216912   1.687   3.336   4.191
 5650TIP3   OH216913   5.825   0.805   3.786
 5650TIP3    H116914   5.815   0.823   3.880
 5650TIP3    H216915   5.919   0.795   3.774
 5651TIP3   OH216916   4.133   3.409   3.793
 5651TIP3    H116917   4.159   3.501   3.798
 5651TIP3    H216918   4.061   3.408   3.730
 5652TIP3   OH216919   5.623   5.645   1.459
 5652TIP3    H116920   5.527   5.642   1.462
 5652TIP3    H216921   5.643   5.698   1.382
 5653TIP3   OH216922   0.836   3.720   3.365
 5653TIP3    H116923   0.834   3.657   3.293
 5653TIP3    H216924   0.825   3.666   3.444
 5654TIP3   OH216925   0.361   2.596   1.036
 5654TIP3    H116926   0.447   2.593   0.995
 5654TIP3    H216927   0.375   2.642   1.119
 5655TIP3   OH216928   4.534   5.075   3.551
 5655TIP3    H116929   4.603   5.009   3.548
 5655TIP3    H216930   4.455   5.029   3.522
 5656TIP3   OH216931   4.108   0.131   3.753
 5656TIP3    H116932   4.100   0.039   3.776
 5656TIP3    H216933   4.096   0.133   3.658
 5657TIP3   OH216934   2.389   2.018   1.870
 5657TIP3    H116935   2.395   2.061   1.785
 5657TIP3    H216936   2.313   2.058   1.912
 5658TIP3   OH216937   6.917   1.445   2.461
 5658TIP3    H116938   6.865   1.397   2.525
 5658TIP3    H216939   6.969   1.506   2.514
 5659TIP3   OH216940   4.769   1.783   1.280
 5659TIP3    H116941   4.807   1.777   1.368
 5659TIP3    H216942   4.701   1.850   1.287
 5660TIP3   OH216943   4.039   0.192   5.873
 5660TIP3    H116944   4.093   0.152   5.805
 5660TIP3    H216945   4.103   0.227   5.936
 5661TIP3   OH216946   3.062   4.126   0.343
 5661TIP3    H116947   3.064   4.221   0.332
 5661TIP3    H216948   2.969   4.103   0.337
 5662TIP3   OH216949   5.754   5.012   2.823
 5662TIP3    H116950   5.775   5.077   2.755
 5662TIP3    H216951   5.714   4.940   2.775
 5663TIP3   OH216952   0.976   5.886   1.372
 5663TIP3    H116953   1.012   5.918   1.289
 5663TIP3    H216954   0.924   5.809   1.347
 5664TIP3   OH216955   7.185   3.187   5.847
 5664TIP3    H116956   7.196   3.138   5.765
 5664TIP3    H216957   7.127   3.131   5.900
 5665TIP3   OH216958   3.791   6.581   1.140
 5665TIP3    H116959   3.787   6.668   1.099
 5665TIP3    H216960   3.771   6.597   1.232
 5666TIP3   OH216961   5.032   5.066   1.324
 5666TIP3    H116962   5.032   5.141   1.383
 5666TIP3    H216963   5.123   5.036   1.324
 5667TIP3   OH216964   1.228   1.671   3.871
 5667TIP3    H116965   1.226   1.621   3.789
 5667TIP3    H216966   1.320   1.695   3.881
 5668TIP3   OH216967   2.322   1.030   0.228
 5668TIP3    H116968   2.354   1.031   0.319
 5668TIP3    H216969   2.249   0.968   0.229
 5669TIP3   OH216970   3.315   2.389   3.267
 5669TIP3    H116971   3.352   2.302   3.250
 5669TIP3    H216972   3.220   2.376   3.265
 5670TIP3   OH216973   0.597   5.232   2.031
 5670TIP3    H116974   0.681   5.276   2.038
 5670TIP3    H216975   0.578   5.203   2.121
 5671TIP3   OH216976   3.148   2.318   2.957
 5671TIP3    H116977   3.224   2.276   2.997
 5671TIP3    H216978   3.079   2.311   3.023
 5672TIP3   OH216979   5.301   3.900   5.093
 5672TIP3    H116980   5.326   3.857   5.175
 5672TIP3    H216981   5.383   3.914   5.047
 5673TIP3   OH216982   4.529   3.738   0.160
 5673TIP3    H116983   4.596   3.776   0.103
 5673TIP3    H216984   4.519   3.648   0.128
 5674TIP3   OH216985   4.076   3.374   0.126
 5674TIP3    H116986   4.100   3.466   0.136
 5674TIP3    H216987   3.989   3.367   0.166
 5675TIP3   OH216988   0.520   1.393   2.220
 5675TIP3    H116989   0.446   1.415   2.276
 5675TIP3    H216990   0.594   1.441   2.259
 5676TIP3   OH216991   5.291   6.663   3.986
 5676TIP3    H116992   5.229   6.710   4.041
 5676TIP3    H216993   5.374   6.669   4.033
 5677TIP3   OH216994   1.152   1.578   4.146
 5677TIP3    H116995   1.209   1.607   4.218
 5677TIP3    H216996   1.209   1.524   4.091
 5678TIP3   OH216997   2.540   4.718   2.179
 5678TIP3    H116998   2.600   4.647   2.201
 5678TIP3    H216999   2.571   4.793   2.230
 5679TIP3   OH217000   5.391   0.837   2.495
 5679TIP3    H117001   5.315   0.862   2.548
 5679TIP3    H217002   5.456   0.808   2.559
 5680TIP3   OH217003   0.995   2.443   2.819
 5680TIP3    H117004   1.056   2.406   2.882
 5680TIP3    H217005   0.938   2.500   2.871
 5681TIP3   OH217006   0.183   2.954   4.233
 5681TIP3    H117007   0.196   2.883   4.295
 5681TIP3    H217008   0.214   2.919   4.149
 5682TIP3   OH217009   4.572   6.076   2.631
 5682TIP3    H117010   4.642   6.124   2.587
 5682TIP3    H217011   4.540   6.136   2.698
 5683TIP3   OH217012   1.820   3.534   4.906
 5683TIP3    H117013   1.909   3.552   4.938
 5683TIP3    H217014   1.771   3.512   4.985
 5684TIP3   OH217015   5.638   4.522   2.526
 5684TIP3    H117016   5.663   4.430   2.527
 5684TIP3    H217017   5.687   4.559   2.453
 5685TIP3   OH217018   6.723   1.297   1.511
 5685TIP3    H117019   6.762   1.285   1.424
 5685TIP3    H217020   6.690   1.210   1.534
 5686TIP3   OH217021   7.018   5.809   1.783
 5686TIP3    H117022   6.983   5.723   1.808
 5686TIP3    H217023   7.040   5.800   1.690
 5687TIP3   OH217024   5.117   1.835   4.176
 5687TIP3    H117025   5.026   1.826   4.205
 5687TIP3    H217026   5.113   1.895   4.102
 5688TIP3   OH217027   2.997   2.475   5.122
 5688TIP3    H117028   3.069   2.481   5.060
 5688TIP3    H217029   2.922   2.511   5.075
 5689TIP3   OH217030   5.962   0.242   2.157
 5689TIP3    H117031   6.056   0.227   2.171
 5689TIP3    H217032   5.920   0.205   2.234
 5690TIP3   OH217033   0.655   5.307   0.159
 5690TIP3    H117034   0.722   5.328   0.094
 5690TIP3    H217035   0.689   5.344   0.241
 5691TIP3   OH217036   1.369   4.983   0.107
 5691TIP3    H117037   1.384   4.936   0.189
 5691TIP3    H217038   1.442   5.044   0.100
 5692TIP3   OH217039   3.823   5.550   4.732
 5692TIP3    H117040   3.740   5.584   4.766
 5692TIP3    H217041   3.870   5.520   4.809
 5693TIP3   OH217042   1.385   4.905   5.529
 5693TIP3    H117043   1.449   4.888   5.598
 5693TIP3    H217044   1.429   4.965   5.469
 5694TIP3   OH217045   0.432   2.923   2.890
 5694TIP3    H117046   0.522   2.915   2.922
 5694TIP3    H217047   0.432   3.004   2.839
 5695TIP3   OH217048   1.265   5.755   5.818
 5695TIP3    H117049   1.305   5.695   5.880
 5695TIP3    H217050   1.226   5.699   5.751
 5696TIP3   OH217051   0.403   2.890   0.980
 5696TIP3    H117052   0.398   2.885   1.076
 5696TIP3    H217053   0.399   2.798   0.952
 5697TIP3   OH217054   4.973   3.566   1.842
 5697TIP3    H117055   4.937   3.624   1.909
 5697TIP3    H217056   5.068   3.580   1.847
 5698TIP3   OH217057   6.589   6.753   2.896
 5698TIP3    H117058   6.583   6.659   2.877
 5698TIP3    H217059   6.618   6.757   2.988
 5699TIP3   OH217060   0.241   3.725   1.656
 5699TIP3    H117061   0.286   3.762   1.580
 5699TIP3    H217062   0.234   3.632   1.636
 5700TIP3   OH217063   5.889   2.546   3.786
 5700TIP3    H117064   5.834   2.480   3.743
 5700TIP3    H217065   5.956   2.568   3.721
 5701TIP3   OH217066   4.670   0.523   4.468
 5701TIP3    H117067   4.695   0.612   4.443
 5701TIP3    H217068   4.576   0.528   4.485
 5702TIP3   OH217069   6.282   6.707   2.629
 5702TIP3    H117070   6.272   6.705   2.534
 5702TIP3    H217071   6.366   6.750   2.644
 5703TIP3   OH217072   2.307   1.482   0.272
 5703TIP3    H117073   2.378   1.510   0.330
 5703TIP3    H217074   2.303   1.549   0.204
 5704TIP3   OH217075   2.735   6.197   0.845
 5704TIP3    H117076   2.800   6.267   0.839
 5704TIP3    H217077   2.683   6.206   0.765
 5705TIP3   OH217078   4.710   0.930   1.138
 5705TIP3    H117079   4.653   0.855   1.155
 5705TIP3    H217080   4.729   0.924   1.044
 5706TIP3   OH217081   4.407   0.245   4.333
 5706TIP3    H117082   4.460   0.199   4.268
 5706TIP3    H217083   4.431   0.337   4.324
 5707TIP3   OH217084   5.081   3.090   1.915
 5707TIP3    H117085   5.094   3.004   1.874
 5707TIP3    H217086   5.059   3.070   2.006
 5708TIP3   OH217087   5.109   2.292   3.000
 5708TIP3    H117088   5.024   2.310   3.041
 5708TIP3    H217089   5.168   2.358   3.036
 5709TIP3   OH217090   5.165   3.174   4.007
 5709TIP3    H117091   5.254   3.190   4.038
 5709TIP3    H217092   5.112   3.240   4.050
 5710TIP3   OH217093   6.744   5.184   3.523
 5710TIP3    H117094   6.765   5.267   3.568
 5710TIP3    H217095   6.663   5.155   3.564
 5711TIP3   OH217096   2.945   3.110   3.913
 5711TIP3    H117097   3.007   3.142   3.978
 5711TIP3    H217098   2.859   3.127   3.952
 5712TIP3   OH217099   1.852   4.263   2.333
 5712TIP3    H117100   1.797   4.310   2.396
 5712TIP3    H217101   1.915   4.327   2.303
 5713TIP3   OH217102   2.473   1.974   2.927
 5713TIP3    H117103   2.432   2.058   2.950
 5713TIP3    H217104   2.557   1.999   2.888
 5714TIP3   OH217105   6.171   4.601   0.124
 5714TIP3    H117106   6.121   4.520   0.136
 5714TIP3    H217107   6.218   4.612   0.207
 5715TIP3   OH217108   3.563   4.456   1.510
 5715TIP3    H117109   3.489   4.445   1.570
 5715TIP3    H217110   3.596   4.367   1.497
 5716TIP3   OH217111   6.156   5.368   4.788
 5716TIP3    H117112   6.229   5.392   4.730
 5716TIP3    H217113   6.097   5.317   4.733
 5717TIP3   OH217114   0.837   5.451   2.439
 5717TIP3    H117115   0.778   5.389   2.483
 5717TIP3    H217116   0.780   5.500   2.379
 5718TIP3   OH217117   1.715   3.638   2.156
 5718TIP3    H117118   1.631   3.681   2.166
 5718TIP3    H217119   1.750   3.671   2.074
 5719TIP3   OH217120   0.919   4.797   2.800
 5719TIP3    H117121   0.910   4.702   2.810
 5719TIP3    H217122   0.909   4.812   2.706
 5720TIP3   OH217123   4.652   0.279   0.117
 5720TIP3    H117124   4.574   0.259   0.065
 5720TIP3    H217125   4.722   0.227   0.077
 5721TIP3   OH217126   5.968   3.662   4.402
 5721TIP3    H117127   5.988   3.736   4.459
 5721TIP3    H217128   5.883   3.629   4.433
 5722TIP3   OH217129   4.635   1.125   1.312
 5722TIP3    H117130   4.544   1.100   1.299
 5722TIP3    H217131   4.685   1.059   1.264
 5723TIP3   OH217132   2.931   6.343   2.803
 5723TIP3    H117133   2.990   6.411   2.832
 5723TIP3    H217134   2.945   6.271   2.864
 5724TIP3   OH217135   6.114   5.478   5.560
 5724TIP3    H117136   6.118   5.416   5.633
 5724TIP3    H217137   6.020   5.490   5.544
 5725TIP3   OH217138   7.241   6.277   5.032
 5725TIP3    H117139   7.181   6.309   5.100
 5725TIP3    H217140   7.183   6.248   4.961
 5726TIP3   OH217141   2.735   1.584   1.158
 5726TIP3    H117142   2.676   1.604   1.086
 5726TIP3    H217143   2.744   1.488   1.156
 5727TIP3   OH217144   3.735   1.359   5.483
 5727TIP3    H117145   3.643   1.385   5.484
 5727TIP3    H217146   3.778   1.421   5.542
 5728TIP3   OH217147   0.749   3.907   0.348
 5728TIP3    H117148   0.679   3.946   0.401
 5728TIP3    H217149   0.746   3.956   0.265
 5729TIP3   OH217150   4.845   5.283   0.005
 5729TIP3    H117151   4.843   5.273   0.101
 5729TIP3    H217152   4.754   5.292  -0.020
 5730TIP3   OH217153   0.158   5.040   5.648
 5730TIP3    H117154   0.249   5.033   5.620
 5730TIP3    H217155   0.162   5.087   5.731
 5731TIP3   OH217156   6.260   6.070   1.460
 5731TIP3    H117157   6.217   6.018   1.528
 5731TIP3    H217158   6.290   6.148   1.505
 5732TIP3   OH217159   1.209   3.255   5.392
 5732TIP3    H117160   1.281   3.267   5.330
 5732TIP3    H217161   1.167   3.341   5.397
 5733TIP3   OH217162   6.297   2.405   0.829
 5733TIP3    H117163   6.354   2.339   0.789
 5733TIP3    H217164   6.221   2.410   0.770
 5734TIP3   OH217165   7.063   4.504   2.781
 5734TIP3    H117166   7.012   4.442   2.729
 5734TIP3    H217167   7.054   4.474   2.871
 5735TIP3   OH217168   3.395   5.951   3.537
 5735TIP3    H117169   3.332   6.014   3.573
 5735TIP3    H217170   3.435   5.912   3.615
 5736TIP3   OH217171   5.337   1.014   0.566
 5736TIP3    H117172   5.247   1.018   0.597
 5736TIP3    H217173   5.335   1.059   0.481
 5737TIP3   OH217174   3.138   3.115   0.223
 5737TIP3    H117175   3.162   3.195   0.176
 5737TIP3    H217176   3.110   3.144   0.309
 5738TIP3   OH217177   4.827   4.940   1.186
 5738TIP3    H117178   4.891   4.965   1.252
 5738TIP3    H217179   4.742   4.947   1.230
 5739TIP3   OH217180   2.686   3.101   4.001
 5739TIP3    H117181   2.738   3.034   4.045
 5739TIP3    H217182   2.636   3.143   4.071
 5740TIP3   OH217183   3.194   2.206   4.724
 5740TIP3    H117184   3.147   2.233   4.644
 5740TIP3    H217185   3.128   2.156   4.773
 5741TIP3   OH217186   2.009   6.445   4.762
 5741TIP3    H117187   1.964   6.496   4.695
 5741TIP3    H217188   1.959   6.363   4.767
 5742TIP3   OH217189   5.609   5.202   1.224
 5742TIP3    H117190   5.516   5.192   1.244
 5742TIP3    H217191   5.654   5.143   1.286
 5743TIP3   OH217192   5.937   6.627   0.896
 5743TIP3    H117193   5.856   6.646   0.943
 5743TIP3    H217194   5.974   6.713   0.875
 5744TIP3   OH217195   1.232   3.446   4.831
 5744TIP3    H117196   1.245   3.353   4.812
 5744TIP3    H217197   1.140   3.452   4.859
 5745TIP3   OH217198   0.544   6.404   1.411
 5745TIP3    H117199   0.466   6.362   1.374
 5745TIP3    H217200   0.612   6.389   1.345
 5746TIP3   OH217201   5.399   2.047   2.711
 5746TIP3    H117202   5.347   2.120   2.678
 5746TIP3    H217203   5.339   1.998   2.768
 5747TIP3   OH217204   4.754   0.407   1.078
 5747TIP3    H117205   4.765   0.325   1.127
 5747TIP3    H217206   4.663   0.405   1.048
 5748TIP3   OH217207   1.439   0.800   5.395
 5748TIP3    H117208   1.466   0.807   5.486
 5748TIP3    H217209   1.517   0.820   5.344
 5749TIP3   OH217210   6.467   1.635   3.818
 5749TIP3    H117211   6.526   1.569   3.783
 5749TIP3    H217212   6.416   1.589   3.885
 5750TIP3   OH217213   2.961   5.410   2.840
 5750TIP3    H117214   2.955   5.419   2.745
 5750TIP3    H217215   2.872   5.423   2.871
 5751TIP3   OH217216   0.901   4.769   0.054
 5751TIP3    H117217   0.883   4.740  -0.036
 5751TIP3    H217218   0.977   4.827   0.045
 5752TIP3   OH217219   3.337   2.813   1.183
 5752TIP3    H117220   3.381   2.873   1.242
 5752TIP3    H217221   3.379   2.729   1.198
 5753TIP3   OH217222   3.581   2.735   0.384
 5753TIP3    H117223   3.624   2.820   0.397
 5753TIP3    H217224   3.495   2.745   0.426
 5754TIP3   OH217225   4.432   4.430   0.654
 5754TIP3    H117226   4.416   4.369   0.725
 5754TIP3    H217227   4.438   4.516   0.696
 5755TIP3   OH217228   6.892   0.417   0.838
 5755TIP3    H117229   6.866   0.356   0.908
 5755TIP3    H217230   6.834   0.395   0.765
 5756TIP3   OH217231   1.116   5.252   5.180
 5756TIP3    H117232   1.171   5.178   5.203
 5756TIP3    H217233   1.175   5.328   5.182
 5757TIP3   OH217234   3.403   3.314   0.207
 5757TIP3    H117235   3.435   3.249   0.145
 5757TIP3    H217236   3.463   3.308   0.281
 5758TIP3   OH217237   2.619   1.173   3.605
 5758TIP3    H117238   2.692   1.144   3.549
 5758TIP3    H217239   2.655   1.245   3.656
 5759TIP3   OH217240   6.817   2.985   4.934
 5759TIP3    H117241   6.857   3.052   4.989
 5759TIP3    H217242   6.804   2.910   4.992
 5760TIP3   OH217243   2.270   5.465   3.679
 5760TIP3    H117244   2.178   5.460   3.655
 5760TIP3    H217245   2.292   5.378   3.711
 5761TIP3   OH217246   3.806   2.396   0.430
 5761TIP3    H117247   3.847   2.380   0.345
 5761TIP3    H217248   3.879   2.398   0.492
 5762TIP3   OH217249   0.837   0.973   3.026
 5762TIP3    H117250   0.851   1.040   3.093
 5762TIP3    H217251   0.748   0.942   3.042
 5763TIP3   OH217252   1.862   4.704   4.886
 5763TIP3    H117253   1.860   4.615   4.921
 5763TIP3    H217254   1.955   4.721   4.868
 5764TIP3   OH217255   3.900   6.726   5.170
 5764TIP3    H117256   3.897   6.730   5.074
 5764TIP3    H217257   3.867   6.639   5.191
 5765TIP3   OH217258   3.377   6.110   0.923
 5765TIP3    H117259   3.330   6.050   0.866
 5765TIP3    H217260   3.422   6.053   0.985
 5766TIP3   OH217261   3.620   4.629   4.333
 5766TIP3    H117262   3.640   4.577   4.411
 5766TIP3    H217263   3.664   4.582   4.262
 5767TIP3   OH217264   0.658   4.232   3.921
 5767TIP3    H117265   0.658   4.141   3.890
 5767TIP3    H217266   0.617   4.281   3.849
 5768TIP3   OH217267   5.930   0.562   4.323
 5768TIP3    H117268   5.882   0.542   4.403
 5768TIP3    H217269   6.021   0.546   4.344
 5769TIP3   OH217270   1.740   1.872   0.392
 5769TIP3    H117271   1.731   1.798   0.451
 5769TIP3    H217272   1.772   1.835   0.310
 5770TIP3   OH217273   5.890   4.570   5.624
 5770TIP3    H117274   5.851   4.483   5.625
 5770TIP3    H217275   5.935   4.575   5.540
 5771TIP3   OH217276   0.361   5.114   4.344
 5771TIP3    H117277   0.373   5.199   4.302
 5771TIP3    H217278   0.436   5.106   4.403
 5772TIP3   OH217279   2.151   6.570   5.623
 5772TIP3    H117280   2.061   6.565   5.653
 5772TIP3    H217281   2.144   6.579   5.527
 5773TIP3   OH217282   4.997   3.138   3.510
 5773TIP3    H117283   4.925   3.192   3.542
 5773TIP3    H217284   5.014   3.076   3.581
 5774TIP3   OH217285   5.762   3.600   2.308
 5774TIP3    H117286   5.678   3.616   2.265
 5774TIP3    H217287   5.755   3.645   2.392
 5775TIP3   OH217288   1.863   6.795   2.110
 5775TIP3    H117289   1.773   6.760   2.107
 5775TIP3    H217290   1.851   6.890   2.117
 5776TIP3   OH217291   5.590   1.898   0.428
 5776TIP3    H117292   5.496   1.911   0.411
 5776TIP3    H217293   5.623   1.986   0.445
 5777TIP3   OH217294   3.110   1.536   5.516
 5777TIP3    H117295   3.065   1.530   5.432
 5777TIP3    H217296   3.162   1.616   5.510
 5778TIP3   OH217297   3.087   3.243   0.469
 5778TIP3    H117298   3.140   3.309   0.513
 5778TIP3    H217299   3.015   3.292   0.429
 5779TIP3   OH217300   5.687   0.345   1.652
 5779TIP3    H117301   5.781   0.331   1.639
 5779TIP3    H217302   5.657   0.266   1.697
 5780TIP3   OH217303   1.824   5.085   0.514
 5780TIP3    H117304   1.810   5.169   0.470
 5780TIP3    H217305   1.751   5.078   0.576
 5781TIP3   OH217306   2.738   4.119   0.956
 5781TIP3    H117307   2.677   4.180   0.916
 5781TIP3    H217308   2.774   4.166   1.031
 5782TIP3   OH217309   6.434   6.361   5.772
 5782TIP3    H117310   6.510   6.364   5.715
 5782TIP3    H217311   6.373   6.425   5.734
 5783TIP3   OH217312   5.723   2.135   4.853
 5783TIP3    H117313   5.646   2.080   4.868
 5783TIP3    H217314   5.779   2.118   4.929
 5784TIP3   OH217315   1.317   4.307   1.895
 5784TIP3    H117316   1.228   4.281   1.919
 5784TIP3    H217317   1.367   4.226   1.899
 5785TIP3   OH217318   4.706   3.935   0.796
 5785TIP3    H117319   4.682   3.883   0.719
 5785TIP3    H217320   4.792   3.900   0.821
 5786TIP3   OH217321   3.991   3.497   2.801
 5786TIP3    H117322   4.014   3.584   2.768
 5786TIP3    H217323   3.943   3.514   2.883
 5787TIP3   OH217324   1.419   2.535   1.313
 5787TIP3    H117325   1.494   2.486   1.280
 5787TIP3    H217326   1.377   2.571   1.235
 5788TIP3   OH217327   0.349   4.900   4.880
 5788TIP3    H117328   0.414   4.965   4.856
 5788TIP3    H217329   0.319   4.928   4.967
 5789TIP3   OH217330   1.835   1.855   4.631
 5789TIP3    H117331   1.783   1.935   4.644
 5789TIP3    H217332   1.912   1.885   4.584
 5790TIP3   OH217333   1.283   6.790   1.236
 5790TIP3    H117334   1.322   6.704   1.223
 5790TIP3    H217335   1.349   6.841   1.283
 5791TIP3   OH217336   5.712   2.634   4.953
 5791TIP3    H117337   5.625   2.602   4.929
 5791TIP3    H217338   5.772   2.572   4.912
 5792TIP3   OH217339   5.298   6.041   5.094
 5792TIP3    H117340   5.312   6.116   5.037
 5792TIP3    H217341   5.203   6.036   5.106
 5793TIP3   OH217342   6.779   4.907   4.119
 5793TIP3    H117343   6.753   4.900   4.211
 5793TIP3    H217344   6.823   4.991   4.113
 5794TIP3   OH217345   1.131   3.988   4.042
 5794TIP3    H117346   1.053   4.043   4.032
 5794TIP3    H217347   1.192   4.043   4.093
 5795TIP3   OH217348   5.548   5.621   2.615
 5795TIP3    H117349   5.486   5.620   2.542
 5795TIP3    H217350   5.493   5.619   2.694
 5796TIP3   OH217351   3.195   1.451   4.909
 5796TIP3    H117352   3.164   1.396   4.838
 5796TIP3    H217353   3.273   1.494   4.874
 5797TIP3   OH217354   4.687   5.345   4.996
 5797TIP3    H117355   4.720   5.434   5.010
 5797TIP3    H217356   4.735   5.291   5.059
 5798TIP3   OH217357   1.104   0.332   5.760
 5798TIP3    H117358   1.066   0.373   5.838
 5798TIP3    H217359   1.098   0.400   5.692
 5799TIP3   OH217360   1.070   0.035   5.738
 5799TIP3    H117361   0.978   0.012   5.720
 5799TIP3    H217362   1.069   0.130   5.745
 5800TIP3   OH217363   0.633   5.000   3.827
 5800TIP3    H117364   0.643   5.086   3.785
 5800TIP3    H217365   0.621   5.020   3.920
 5801TIP3   OH217366   6.546   0.995   3.859
 5801TIP3    H117367   6.473   0.989   3.796
 5801TIP3    H217368   6.555   1.089   3.876
 5802TIP3   OH217369   0.383   2.755   5.729
 5802TIP3    H117370   0.343   2.828   5.683
 5802TIP3    H217371   0.329   2.679   5.707
 5803TIP3   OH217372   6.284   0.226   2.161
 5803TIP3    H117373   6.282   0.224   2.256
 5803TIP3    H217374   6.369   0.267   2.140
 5804TIP3   OH217375   3.982   0.805   4.816
 5804TIP3    H117376   3.919   0.874   4.798
 5804TIP3    H217377   4.004   0.817   4.909
 5805TIP3   OH217378   5.936   0.178   2.687
 5805TIP3    H117379   5.988   0.127   2.625
 5805TIP3    H217380   5.846   0.150   2.670
 5806TIP3   OH217381   2.703   4.035   5.301
 5806TIP3    H117382   2.689   4.127   5.279
 5806TIP3    H217383   2.620   3.993   5.283
 5807TIP3   OH217384   0.934   5.069   5.648
 5807TIP3    H117385   0.862   5.132   5.642
 5807TIP3    H217386   0.991   5.089   5.574
 5808TIP3   OH217387   0.246   4.504   3.336
 5808TIP3    H117388   0.215   4.522   3.247
 5808TIP3    H217389   0.262   4.591   3.373
 5809TIP3   OH217390   3.149   0.032   0.259
 5809TIP3    H117391   3.069   0.080   0.283
 5809TIP3    H217392   3.144   0.023   0.164
 5810TIP3   OH217393   6.014   0.472   0.558
 5810TIP3    H117394   6.010   0.542   0.623
 5810TIP3    H217395   5.972   0.397   0.599
 5811TIP3   OH217396   6.268   3.322   5.770
 5811TIP3    H117397   6.282   3.267   5.692
 5811TIP3    H217398   6.182   3.296   5.802
 5812TIP3   OH217399   1.770   5.902   0.265
 5812TIP3    H117400   1.783   5.959   0.341
 5812TIP3    H217401   1.856   5.900   0.222
 5813TIP3   OH217402   1.386   4.127   3.433
 5813TIP3    H117403   1.327   4.171   3.371
 5813TIP3    H217404   1.327   4.074   3.488
 5814TIP3   OH217405   5.997   4.467   2.487
 5814TIP3    H117406   5.950   4.509   2.415
 5814TIP3    H217407   5.933   4.407   2.526
 5815TIP3   OH217408   4.356   6.408   1.032
 5815TIP3    H117409   4.412   6.331   1.037
 5815TIP3    H217410   4.270   6.378   1.063
 5816TIP3   OH217411   5.232   1.082   2.151
 5816TIP3    H117412   5.298   1.046   2.091
 5816TIP3    H217413   5.157   1.101   2.095
 5817TIP3   OH217414   0.486   1.680   1.347
 5817TIP3    H117415   0.475   1.735   1.424
 5817TIP3    H217416   0.474   1.591   1.379
 5818TIP3   OH217417   4.907   1.797   1.027
 5818TIP3    H117418   4.998   1.824   1.039
 5818TIP3    H217419   4.868   1.807   1.114
 5819TIP3   OH217420   3.137   0.822   2.261
 5819TIP3    H117421   3.140   0.910   2.224
 5819TIP3    H217422   3.218   0.781   2.231
 5820TIP3   OH217423   4.970   1.240   5.566
 5820TIP3    H117424   5.045   1.182   5.583
 5820TIP3    H217425   4.997   1.292   5.491
 5821TIP3   OH217426   4.859   2.163   3.137
 5821TIP3    H117427   4.845   2.250   3.098
 5821TIP3    H217428   4.777   2.142   3.180
 5822TIP3   OH217429   7.240   0.772   1.327
 5822TIP3    H117430   7.187   0.806   1.255
 5822TIP3    H217431   7.177   0.751   1.395
 5823TIP3   OH217432   2.023   4.822   4.470
 5823TIP3    H117433   1.967   4.797   4.544
 5823TIP3    H217434   1.972   4.888   4.423
 5824TIP3   OH217435   6.271   3.368   3.263
 5824TIP3    H117436   6.254   3.385   3.171
 5824TIP3    H217437   6.342   3.428   3.286
 5825TIP3   OH217438   2.044   6.806   2.304
 5825TIP3    H117439   2.051   6.724   2.352
 5825TIP3    H217440   1.973   6.792   2.242
 5826TIP3   OH217441   2.250   1.719   4.200
 5826TIP3    H117442   2.326   1.776   4.190
 5826TIP3    H217443   2.262   1.678   4.286
 5827TIP3   OH217444   3.359   0.268   2.309
 5827TIP3    H117445   3.455   0.275   2.309
 5827TIP3    H217446   3.338   0.226   2.225
 5828TIP3   OH217447   4.721   4.343   2.766
 5828TIP3    H117448   4.737   4.387   2.849
 5828TIP3    H217449   4.747   4.407   2.700
 5829TIP3   OH217450   5.224   4.581   3.966
 5829TIP3    H117451   5.262   4.643   3.903
 5829TIP3    H217452   5.148   4.627   4.002
 5830TIP3   OH217453   1.841   2.577   3.720
 5830TIP3    H117454   1.765   2.595   3.774
 5830TIP3    H217455   1.809   2.517   3.653
 5831TIP3   OH217456   1.065   3.827   0.949
 5831TIP3    H117457   1.045   3.772   0.873
 5831TIP3    H217458   1.096   3.766   1.016
 5832TIP3   OH217459   7.136   5.370   2.220
 5832TIP3    H117460   7.125   5.321   2.139
 5832TIP3    H217461   7.118   5.306   2.290
 5833TIP3   OH217462   5.114   5.443   0.298
 5833TIP3    H117463   5.042   5.443   0.361
 5833TIP3    H217464   5.108   5.356   0.257
 5834TIP3   OH217465   4.230   0.620   5.270
 5834TIP3    H117466   4.212   0.685   5.202
 5834TIP3    H217467   4.184   0.542   5.241
 5835TIP3   OH217468   6.409   3.071   4.407
 5835TIP3    H117469   6.379   3.131   4.340
 5835TIP3    H217470   6.339   3.007   4.416
 5836TIP3   OH217471   0.960   2.654   0.984
 5836TIP3    H117472   0.916   2.657   1.068
 5836TIP3    H217473   0.960   2.744   0.953
 5837TIP3   OH217474   6.893   1.979   3.194
 5837TIP3    H117475   6.933   1.974   3.280
 5837TIP3    H217476   6.862   1.890   3.176
 5838TIP3   OH217477   3.407   4.491   3.379
 5838TIP3    H117478   3.327   4.438   3.373
 5838TIP3    H217479   3.459   4.448   3.447
 5839TIP3   OH217480   1.678   4.222   5.220
 5839TIP3    H117481   1.713   4.284   5.283
 5839TIP3    H217482   1.755   4.176   5.186
 5840TIP3   OH217483   0.202   6.613   5.486
 5840TIP3    H117484   0.163   6.531   5.516
 5840TIP3    H217485   0.128   6.672   5.472
 5841TIP3   OH217486   2.887   1.464   3.622
 5841TIP3    H117487   2.895   1.556   3.600
 5841TIP3    H217488   2.910   1.418   3.541
 5842TIP3   OH217489   1.890   2.886   5.464
 5842TIP3    H117490   1.829   2.894   5.537
 5842TIP3    H217491   1.958   2.952   5.481
 5843TIP3   OH217492   5.762   2.964   1.418
 5843TIP3    H117493   5.828   2.917   1.365
 5843TIP3    H217494   5.806   2.981   1.501
 5844TIP3   OH217495   3.377   4.079   5.493
 5844TIP3    H117496   3.298   4.030   5.472
 5844TIP3    H217497   3.442   4.012   5.516
 5845TIP3   OH217498   6.129   6.229   5.697
 5845TIP3    H117499   6.198   6.284   5.734
 5845TIP3    H217500   6.142   6.143   5.736
 5846TIP3   OH217501   5.291   4.047   3.369
 5846TIP3    H117502   5.228   3.975   3.372
 5846TIP3    H217503   5.308   4.060   3.275
 5847TIP3   OH217504   6.564   1.966   5.394
 5847TIP3    H117505   6.581   1.941   5.303
 5847TIP3    H217506   6.625   2.039   5.410
 5848TIP3   OH217507   5.712   1.520   2.940
 5848TIP3    H117508   5.636   1.478   2.982
 5848TIP3    H217509   5.757   1.565   3.012
 5849TIP3   OH217510   5.563   0.705   5.440
 5849TIP3    H117511   5.607   0.626   5.470
 5849TIP3    H217512   5.544   0.754   5.520
 5850TIP3   OH217513   6.392   3.706   5.401
 5850TIP3    H117514   6.359   3.766   5.334
 5850TIP3    H217515   6.478   3.741   5.424
 5851TIP3   OH217516   3.538   4.317   0.749
 5851TIP3    H117517   3.596   4.282   0.682
 5851TIP3    H217518   3.454   4.273   0.734
 5852TIP3   OH217519   4.263   0.075   3.014
 5852TIP3    H117520   4.230   0.156   3.052
 5852TIP3    H217521   4.245   0.008   3.082
 5853TIP3   OH217522   2.883   3.953   5.823
 5853TIP3    H117523   2.965   3.934   5.778
 5853TIP3    H217524   2.815   3.930   5.759
 5854TIP3   OH217525   3.546   1.651   5.371
 5854TIP3    H117526   3.634   1.683   5.354
 5854TIP3    H217527   3.502   1.656   5.285
 5855TIP3   OH217528   1.721   6.241   1.288
 5855TIP3    H117529   1.708   6.177   1.358
 5855TIP3    H217530   1.809   6.275   1.302
 5856TIP3   OH217531   3.452   0.345   4.422
 5856TIP3    H117532   3.532   0.396   4.410
 5856TIP3    H217533   3.480   0.269   4.473
 5857TIP3   OH217534   3.827   1.605   3.348
 5857TIP3    H117535   3.779   1.636   3.425
 5857TIP3    H217536   3.762   1.556   3.297
 5858TIP3   OH217537   6.659   3.450   0.631
 5858TIP3    H117538   6.596   3.505   0.679
 5858TIP3    H217539   6.739   3.454   0.684
 5859TIP3   OH217540   7.167   6.677   3.812
 5859TIP3    H117541   7.113   6.611   3.767
 5859TIP3    H217542   7.238   6.627   3.851
 5860TIP3   OH217543   3.743   1.794   4.544
 5860TIP3    H117544   3.737   1.740   4.466
 5860TIP3    H217545   3.671   1.856   4.536
 5861TIP3   OH217546   4.859   4.617   3.531
 5861TIP3    H117547   4.789   4.554   3.546
 5861TIP3    H217548   4.908   4.619   3.614
 5862TIP3   OH217549   5.076   1.077   2.382
 5862TIP3    H117550   5.109   1.128   2.308
 5862TIP3    H217551   4.997   1.123   2.410
 5863TIP3   OH217552   0.719   4.297   1.300
 5863TIP3    H117553   0.632   4.338   1.305
 5863TIP3    H217554   0.701   4.204   1.312
 5864TIP3   OH217555   5.543   3.209   4.674
 5864TIP3    H117556   5.519   3.116   4.679
 5864TIP3    H217557   5.605   3.221   4.746
 5865TIP3   OH217558   1.885   4.195   5.872
 5865TIP3    H117559   1.954   4.130   5.883
 5865TIP3    H217560   1.899   4.231   5.785
 5866TIP3   OH217561   6.491   2.822   5.107
 5866TIP3    H117562   6.429   2.779   5.048
 5866TIP3    H217563   6.443   2.830   5.190
 5867TIP3   OH217564   2.561   5.676   2.679
 5867TIP3    H117565   2.485   5.693   2.623
 5867TIP3    H217566   2.635   5.672   2.618
 5868TIP3   OH217567   6.278   4.243   1.773
 5868TIP3    H117568   6.352   4.183   1.761
 5868TIP3    H217569   6.318   4.324   1.805
 5869TIP3   OH217570   6.759   4.767   4.872
 5869TIP3    H117571   6.853   4.757   4.855
 5869TIP3    H217572   6.753   4.779   4.967
 5870TIP3   OH217573   1.175   6.053   2.554
 5870TIP3    H117574   1.244   6.077   2.617
 5870TIP3    H217575   1.190   6.111   2.479
 5871TIP3   OH217576   4.549   4.469   0.986
 5871TIP3    H117577   4.551   4.546   0.929
 5871TIP3    H217578   4.529   4.505   1.073
 5872TIP3   OH217579   6.621   2.158   1.902
 5872TIP3    H117580   6.687   2.102   1.943
 5872TIP3    H217581   6.538   2.118   1.925
 5873TIP3   OH217582   2.656   4.461   4.709
 5873TIP3    H117583   2.570   4.497   4.731
 5873TIP3    H217584   2.670   4.487   4.618
 5874TIP3   OH217585   3.745   4.732   5.869
 5874TIP3    H117586   3.685   4.659   5.886
 5874TIP3    H217587   3.703   4.781   5.798
 5875TIP3   OH217588   2.478   2.517   1.152
 5875TIP3    H117589   2.420   2.569   1.096
 5875TIP3    H217590   2.551   2.576   1.172
 5876TIP3   OH217591   5.919   0.693   2.638
 5876TIP3    H117592   5.825   0.705   2.628
 5876TIP3    H217593   5.956   0.722   2.555
 5877TIP3   OH217594   5.956   2.621   5.830
 5877TIP3    H117595   5.968   2.662   5.745
 5877TIP3    H217596   5.887   2.555   5.815
 5878TIP3   OH217597   5.808   3.639   1.572
 5878TIP3    H117598   5.838   3.615   1.485
 5878TIP3    H217599   5.716   3.664   1.561
 5879TIP3   OH217600   7.252   1.586   3.725
 5879TIP3    H117601   7.171   1.636   3.713
 5879TIP3    H217602   7.223   1.497   3.745
 5880TIP3   OH217603   1.058   6.288   4.242
 5880TIP3    H117604   1.057   6.251   4.153
 5880TIP3    H217605   0.990   6.240   4.289
 5881TIP3   OH217606   0.776   0.861   5.872
 5881TIP3    H117607   0.851   0.830   5.820
 5881TIP3    H217608   0.816   0.914   5.941
 5882TIP3   OH217609   4.235   6.054   2.081
 5882TIP3    H117610   4.205   6.109   2.009
 5882TIP3    H217611   4.185   6.084   2.157
 5883TIP3   OH217612   1.840   5.005   2.297
 5883TIP3    H117613   1.815   4.923   2.341
 5883TIP3    H217614   1.857   5.065   2.369
 5884TIP3   OH217615   4.863   4.176   1.787
 5884TIP3    H117616   4.776   4.208   1.761
 5884TIP3    H217617   4.864   4.186   1.883
 5885TIP3   OH217618   1.558   4.640   3.265
 5885TIP3    H117619   1.551   4.703   3.336
 5885TIP3    H217620   1.474   4.594   3.264
 5886TIP3   OH217621   1.121   5.772   0.749
 5886TIP3    H117622   1.058   5.837   0.720
 5886TIP3    H217623   1.179   5.759   0.674
 5887TIP3   OH217624   2.395   3.272   4.868
 5887TIP3    H117625   2.364   3.326   4.941
 5887TIP3    H217626   2.327   3.205   4.857
 5888TIP3   OH217627   1.934   2.938   3.838
 5888TIP3    H117628   1.912   2.887   3.917
 5888TIP3    H217629   2.007   2.891   3.799
 5889TIP3   OH217630   6.583   1.175   3.229
 5889TIP3    H117631   6.564   1.113   3.159
 5889TIP3    H217632   6.669   1.210   3.208
 5890TIP3   OH217633   2.477   5.678   4.467
 5890TIP3    H117634   2.419   5.706   4.396
 5890TIP3    H217635   2.532   5.610   4.429
 5891TIP3   OH217636   4.466   0.848   2.070
 5891TIP3    H117637   4.480   0.771   2.015
 5891TIP3    H217638   4.541   0.849   2.130
 5892TIP3   OH217639   0.503   0.879   0.875
 5892TIP3    H117640   0.586   0.924   0.861
 5892TIP3    H217641   0.504   0.807   0.811
 5893TIP3   OH217642   0.363   4.419   4.074
 5893TIP3    H117643   0.303   4.434   4.001
 5893TIP3    H217644   0.352   4.496   4.131
 5894TIP3   OH217645   0.784   2.694   4.322
 5894TIP3    H117646   0.740   2.611   4.303
 5894TIP3    H217647   0.747   2.756   4.259
 5895TIP3   OH217648   7.182   4.173   1.527
 5895TIP3    H117649   7.107   4.229   1.547
 5895TIP3    H217650   7.166   4.142   1.438
 5896TIP3   OH217651   4.665   5.187   3.787
 5896TIP3    H117652   4.607   5.164   3.714
 5896TIP3    H217653   4.704   5.270   3.761
 5897TIP3   OH217654   2.780   0.176   1.872
 5897TIP3    H117655   2.709   0.126   1.832
 5897TIP3    H217656   2.832   0.111   1.918
 5898TIP3   OH217657   0.056   6.130   0.718
 5898TIP3    H117658   0.125   6.129   0.784
 5898TIP3    H217659   0.095   6.176   0.643
 5899TIP3   OH217660   3.635   2.888   0.902
 5899TIP3    H117661   3.570   2.847   0.844
 5899TIP3    H217662   3.689   2.815   0.932
 5900TIP3   OH217663   1.054   4.047   1.538
 5900TIP3    H117664   1.040   4.005   1.622
 5900TIP3    H217665   1.021   3.984   1.474
 5901TIP3   OH217666   2.556   5.916   2.378
 5901TIP3    H117667   2.541   5.976   2.451
 5901TIP3    H217668   2.624   5.958   2.325
 5902TIP3   OH217669   2.876   0.407   0.717
 5902TIP3    H117670   2.794   0.360   0.701
 5902TIP3    H217671   2.906   0.432   0.630
 5903TIP3   OH217672   6.528   2.526   1.533
 5903TIP3    H117673   6.592   2.462   1.504
 5903TIP3    H217674   6.472   2.541   1.457
 5904TIP3   OH217675   5.405   4.362   2.571
 5904TIP3    H117676   5.455   4.443   2.569
 5904TIP3    H217677   5.459   4.302   2.622
 5905TIP3   OH217678   4.613   3.798   4.698
 5905TIP3    H117679   4.534   3.834   4.738
 5905TIP3    H217680   4.680   3.805   4.766
 5906TIP3   OH217681   5.192   2.232   2.718
 5906TIP3    H117682   5.132   2.211   2.790
 5906TIP3    H217683   5.203   2.327   2.722
 5907TIP3   OH217684   2.235   0.472   0.114
 5907TIP3    H117685   2.286   0.549   0.090
 5907TIP3    H217686   2.294   0.420   0.169
 5908TIP3   OH217687   3.260   3.295   1.819
 5908TIP3    H117688   3.182   3.263   1.864
 5908TIP3    H217689   3.252   3.390   1.820
 5909TIP3   OH217690   5.071   3.210   0.864
 5909TIP3    H117691   5.044   3.141   0.803
 5909TIP3    H217692   5.151   3.246   0.826
 5910TIP3   OH217693   4.084   5.469   1.672
 5910TIP3    H117694   4.142   5.532   1.715
 5910TIP3    H217695   4.140   5.395   1.652
 5911TIP3   OH217696   3.004   5.362   2.059
 5911TIP3    H117697   2.928   5.383   2.005
 5911TIP3    H217698   2.996   5.269   2.078
 5912TIP3   OH217699   6.379   5.222   4.861
 5912TIP3    H117700   6.317   5.292   4.880
 5912TIP3    H217701   6.461   5.251   4.901
 5913TIP3   OH217702   5.090   3.675   2.642
 5913TIP3    H117703   5.057   3.666   2.731
 5913TIP3    H217704   5.071   3.591   2.600
 5914TIP3   OH217705   5.703   0.378   3.862
 5914TIP3    H117706   5.664   0.295   3.890
 5914TIP3    H217707   5.792   0.354   3.835
 5915TIP3   OH217708   1.521   5.100   5.395
 5915TIP3    H117709   1.602   5.051   5.405
 5915TIP3    H217710   1.530   5.145   5.311
 5916TIP3   OH217711   2.646   5.900   5.048
 5916TIP3    H117712   2.574   5.844   5.075
 5916TIP3    H217713   2.669   5.949   5.128
 5917TIP3   OH217714   1.879   5.015   4.346
 5917TIP3    H117715   1.791   4.992   4.318
 5917TIP3    H217716   1.912   5.072   4.276
 5918TIP3   OH217717   4.833   6.541   2.063
 5918TIP3    H117718   4.763   6.605   2.071
 5918TIP3    H217719   4.871   6.537   2.151
 5919TIP3   OH217720   1.446   4.053   2.360
 5919TIP3    H117721   1.416   4.053   2.451
 5919TIP3    H217722   1.538   4.079   2.364
 5920TIP3   OH217723   6.540   0.937   1.927
 5920TIP3    H117724   6.532   0.881   1.850
 5920TIP3    H217725   6.453   0.975   1.939
 5921TIP3   OH217726   0.560   2.519   0.850
 5921TIP3    H117727   0.581   2.457   0.920
 5921TIP3    H217728   0.538   2.464   0.775
 5922TIP3   OH217729   4.049   5.100   2.808
 5922TIP3    H117730   4.050   5.192   2.836
 5922TIP3    H217731   4.141   5.074   2.810
 5923TIP3   OH217732   0.443   0.118   4.960
 5923TIP3    H117733   0.538   0.108   4.957
 5923TIP3    H217734   0.413   0.048   5.018
 5924TIP3   OH217735   3.664   0.499   4.599
 5924TIP3    H117736   3.600   0.428   4.596
 5924TIP3    H217737   3.660   0.531   4.689
 5925TIP3   OH217738   2.598   2.380   2.748
 5925TIP3    H117739   2.574   2.445   2.681
 5925TIP3    H217740   2.602   2.431   2.829
 5926TIP3   OH217741   6.022   3.126   5.221
 5926TIP3    H117742   6.094   3.118   5.158
 5926TIP3    H217743   6.024   3.218   5.248
 5927TIP3   OH217744   4.399   4.853   3.788
 5927TIP3    H117745   4.337   4.833   3.718
 5927TIP3    H217746   4.397   4.776   3.845
 5928TIP3   OH217747   5.053   1.155   2.767
 5928TIP3    H117748   4.988   1.164   2.837
 5928TIP3    H217749   5.113   1.229   2.781
 5929TIP3   OH217750   3.270   6.612   5.489
 5929TIP3    H117751   3.346   6.646   5.443
 5929TIP3    H217752   3.215   6.688   5.506
 5930TIP3   OH217753   6.128   1.466   5.332
 5930TIP3    H117754   6.171   1.397   5.382
 5930TIP3    H217755   6.044   1.478   5.375
 5931TIP3   OH217756   6.239   5.218   2.707
 5931TIP3    H117757   6.205   5.308   2.711
 5931TIP3    H217758   6.160   5.163   2.704
 5932TIP3   OH217759   6.538   4.360   0.998
 5932TIP3    H117760   6.568   4.377   0.909
 5932TIP3    H217761   6.461   4.304   0.988
 5933TIP3   OH217762   1.227   1.749   1.252
 5933TIP3    H117763   1.140   1.790   1.253
 5933TIP3    H217764   1.240   1.719   1.342
 5934TIP3   OH217765   6.822   1.694   3.161
 5934TIP3    H117766   6.904   1.650   3.186
 5934TIP3    H217767   6.763   1.677   3.234
 5935TIP3   OH217768   3.497   1.814   4.772
 5935TIP3    H117769   3.492   1.839   4.679
 5935TIP3    H217770   3.426   1.751   4.784
 5936TIP3   OH217771   2.992   2.252   1.135
 5936TIP3    H117772   2.905   2.279   1.105
 5936TIP3    H217773   3.049   2.265   1.059
 5937TIP3   OH217774   5.763   5.753   4.301
 5937TIP3    H117775   5.751   5.698   4.223
 5937TIP3    H217776   5.823   5.703   4.357
 5938TIP3   OH217777   0.929   1.658   2.206
 5938TIP3    H117778   0.893   1.719   2.271
 5938TIP3    H217779   0.998   1.708   2.162
 5939TIP3   OH217780   2.787   1.494   2.141
 5939TIP3    H117781   2.802   1.528   2.229
 5939TIP3    H217782   2.798   1.570   2.084
 5940TIP3   OH217783   4.949   6.253   0.024
 5940TIP3    H117784   4.869   6.201   0.025
 5940TIP3    H217785   4.921   6.342   0.045
 5941TIP3   OH217786   1.798   5.592   0.328
 5941TIP3    H117787   1.890   5.599   0.352
 5941TIP3    H217788   1.783   5.667   0.270
 5942TIP3   OH217789   1.686   0.396   2.102
 5942TIP3    H117790   1.680   0.343   2.181
 5942TIP3    H217791   1.681   0.487   2.133
 5943TIP3   OH217792   6.584   2.494   0.915
 5943TIP3    H117793   6.539   2.568   0.955
 5943TIP3    H217794   6.584   2.427   0.984
 5944TIP3   OH217795   4.049   0.450   0.563
 5944TIP3    H117796   3.998   0.527   0.541
 5944TIP3    H217797   4.085   0.420   0.479
 5945TIP3   OH217798   0.359   4.612   3.668
 5945TIP3    H117799   0.340   4.669   3.593
 5945TIP3    H217800   0.387   4.672   3.737
 5946TIP3   OH217801   4.039   4.021   4.889
 5946TIP3    H117802   3.947   4.029   4.916
 5946TIP3    H217803   4.087   4.072   4.954
 5947TIP3   OH217804   1.510   5.700   3.570
 5947TIP3    H117805   1.474   5.685   3.658
 5947TIP3    H217806   1.443   5.666   3.511
 5948TIP3   OH217807   1.508   5.358   4.082
 5948TIP3    H117808   1.451   5.340   4.157
 5948TIP3    H217809   1.532   5.450   4.092
 5949TIP3   OH217810   0.381   3.198   0.649
 5949TIP3    H117811   0.470   3.202   0.613
 5949TIP3    H217812   0.384   3.128   0.714
 5950TIP3   OH217813   0.925   0.311   3.244
 5950TIP3    H117814   1.002   0.259   3.222
 5950TIP3    H217815   0.958   0.378   3.304
 5951TIP3   OH217816   6.732   0.107   3.081
 5951TIP3    H117817   6.715   0.201   3.069
 5951TIP3    H217818   6.827   0.102   3.092
 5952TIP3   OH217819   5.946   3.851   4.134
 5952TIP3    H117820   5.872   3.911   4.144
 5952TIP3    H217821   5.917   3.769   4.174
 5953TIP3   OH217822   5.300   2.628   2.540
 5953TIP3    H117823   5.376   2.575   2.564
 5953TIP3    H217824   5.336   2.715   2.521
 5954TIP3   OH217825   4.995   4.883   4.705
 5954TIP3    H117826   4.939   4.851   4.634
 5954TIP3    H217827   5.083   4.883   4.668
 5955TIP3   OH217828   4.817   2.382   5.431
 5955TIP3    H117829   4.803   2.295   5.394
 5955TIP3    H217830   4.862   2.431   5.361
 5956TIP3   OH217831   2.265   1.553   5.732
 5956TIP3    H117832   2.240   1.616   5.665
 5956TIP3    H217833   2.357   1.536   5.716
 5957TIP3   OH217834   6.335   4.560   0.640
 5957TIP3    H117835   6.244   4.555   0.670
 5957TIP3    H217836   6.373   4.633   0.691
 5958TIP3   OH217837   1.757   1.136   1.341
 5958TIP3    H117838   1.828   1.071   1.336
 5958TIP3    H217839   1.730   1.148   1.250
 5959TIP3   OH217840   0.822   3.996   0.804
 5959TIP3    H117841   0.840   4.022   0.714
 5959TIP3    H217842   0.906   4.005   0.849
 5960TIP3   OH217843   2.910   5.722   2.902
 5960TIP3    H117844   2.878   5.633   2.886
 5960TIP3    H217845   2.884   5.742   2.992
 5961TIP3   OH217846   0.448   0.632   4.812
 5961TIP3    H117847   0.536   0.622   4.848
 5961TIP3    H217848   0.434   0.553   4.761
 5962TIP3   OH217849   4.919   6.668   3.496
 5962TIP3    H117850   4.932   6.731   3.566
 5962TIP3    H217851   5.001   6.619   3.491
 5963TIP3   OH217852   2.502   2.890   3.298
 5963TIP3    H117853   2.589   2.876   3.335
 5963TIP3    H217854   2.478   2.978   3.325
 5964TIP3   OH217855   2.436   1.711   1.432
 5964TIP3    H117856   2.387   1.655   1.373
 5964TIP3    H217857   2.418   1.676   1.519
 5965TIP3   OH217858   3.262   2.067   0.990
 5965TIP3    H117859   3.303   2.154   0.990
 5965TIP3    H217860   3.332   2.008   1.017
 5966TIP3   OH217861  -0.001   6.570   2.157
 5966TIP3    H117862   0.059   6.502   2.186
 5966TIP3    H217863   0.055   6.646   2.142
 5967TIP3   OH217864   4.725   3.788   1.841
 5967TIP3    H117865   4.659   3.822   1.902
 5967TIP3    H217866   4.802   3.843   1.856
 5968TIP3   OH217867   1.644   6.710   3.533
 5968TIP3    H117868   1.551   6.697   3.547
 5968TIP3    H217869   1.649   6.779   3.467
 5969TIP3   OH217870   2.011   6.496   3.866
 5969TIP3    H117871   2.091   6.482   3.916
 5969TIP3    H217872   1.964   6.563   3.915
 5970TIP3   OH217873   4.393   2.712   4.433
 5970TIP3    H117874   4.470   2.731   4.486
 5970TIP3    H217875   4.322   2.761   4.475
 5971TIP3   OH217876   1.411   0.567   5.009
 5971TIP3    H117877   1.455   0.550   5.092
 5971TIP3    H217878   1.397   0.661   5.007
 5972TIP3   OH217879   1.134   0.535   0.678
 5972TIP3    H117880   1.134   0.563   0.770
 5972TIP3    H217881   1.043   0.513   0.659
 5973TIP3   OH217882   5.538   5.162   3.315
 5973TIP3    H117883   5.592   5.219   3.260
 5973TIP3    H217884   5.451   5.203   3.314
 5974TIP3   OH217885   0.144   4.171   5.506
 5974TIP3    H117886   0.083   4.185   5.434
 5974TIP3    H217887   0.091   4.134   5.576
 5975TIP3   OH217888   2.424  -0.010   5.734
 5975TIP3    H117889   2.512   0.028   5.732
 5975TIP3    H217890   2.398  -0.017   5.643
 5976TIP3   OH217891   2.573   6.231   2.139
 5976TIP3    H117892   2.613   6.211   2.054
 5976TIP3    H217893   2.644   6.270   2.190
 5977TIP3   OH217894   3.708   3.910   1.568
 5977TIP3    H117895   3.700   3.819   1.537
 5977TIP3    H217896   3.666   3.909   1.654
 5978TIP3   OH217897   6.606   1.868   1.429
 5978TIP3    H117898   6.555   1.851   1.508
 5978TIP3    H217899   6.688   1.821   1.443
 5979TIP3   OH217900   1.301   2.682   1.502
 5979TIP3    H117901   1.349   2.614   1.454
 5979TIP3    H217902   1.369   2.729   1.551
 5980TIP3   OH217903   6.454   3.232   3.980
 5980TIP3    H117904   6.422   3.250   3.891
 5980TIP3    H217905   6.448   3.316   4.025
 5981TIP3   OH217906   6.732   4.839   0.254
 5981TIP3    H117907   6.746   4.931   0.279
 5981TIP3    H217908   6.638   4.834   0.237
 5982TIP3   OH217909   6.212   5.930   5.309
 5982TIP3    H117910   6.171   5.899   5.390
 5982TIP3    H217911   6.166   5.883   5.240
 5983TIP3   OH217912   2.402   4.421   5.199
 5983TIP3    H117913   2.437   4.363   5.131
 5983TIP3    H217914   2.389   4.364   5.275
 5984TIP3   OH217915   3.869   4.347   3.900
 5984TIP3    H117916   3.920   4.351   3.819
 5984TIP3    H217917   3.861   4.253   3.918
 5985TIP3   OH217918   3.874   4.350   1.766
 5985TIP3    H117919   3.911   4.331   1.679
 5985TIP3    H217920   3.947   4.333   1.826
 5986TIP3   OH217921   6.017   5.525   3.736
 5986TIP3    H117922   6.075   5.451   3.753
 5986TIP3    H217923   5.934   5.485   3.709
 5987TIP3   OH217924   0.087   4.707   3.940
 5987TIP3    H117925   0.126   4.629   3.978
 5987TIP3    H217926  -0.007   4.689   3.939
 5988TIP3   OH217927   0.805   0.786   4.318
 5988TIP3    H117928   0.838   0.770   4.230
 5988TIP3    H217929   0.747   0.862   4.308
 5989TIP3   OH217930   5.549   4.945   4.925
 5989TIP3    H117931   5.616   4.882   4.898
 5989TIP3    H217932   5.466   4.899   4.911
 5990TIP3   OH217933   4.979   4.192   5.197
 5990TIP3    H117934   5.005   4.197   5.289
 5990TIP3    H217935   5.006   4.105   5.170
 5991TIP3   OH217936   3.838   3.965   1.076
 5991TIP3    H117937   3.902   3.911   1.028
 5991TIP3    H217938   3.814   4.034   1.014
 5992TIP3   OH217939   3.007   0.019   5.808
 5992TIP3    H117940   3.085   0.008   5.754
 5992TIP3    H217941   3.041   0.036   5.896
 5993TIP3   OH217942   5.662   4.550   4.095
 5993TIP3    H117943   5.570   4.541   4.122
 5993TIP3    H217944   5.675   4.479   4.033
 5994TIP3   OH217945   0.354   1.606   0.298
 5994TIP3    H117946   0.411   1.631   0.371
 5994TIP3    H217947   0.389   1.522   0.268
 5995TIP3   OH217948   6.802   3.198   2.066
 5995TIP3    H117949   6.725   3.253   2.055
 5995TIP3    H217950   6.804   3.177   2.159
 5996TIP3   OH217951   1.332   6.096   0.686
 5996TIP3    H117952   1.306   6.025   0.628
 5996TIP3    H217953   1.375   6.053   0.760
 5997TIP3   OH217954   5.849   4.731   1.803
 5997TIP3    H117955   5.797   4.715   1.723
 5997TIP3    H217956   5.926   4.674   1.793
 5998TIP3   OH217957   1.181   2.548   0.576
 5998TIP3    H117958   1.271   2.515   0.575
 5998TIP3    H217959   1.167   2.581   0.487
 5999TIP3   OH217960   2.201   1.256   4.891
 5999TIP3    H117961   2.113   1.261   4.929
 5999TIP3    H217962   2.260   1.252   4.966
 6000TIP3   OH217963   6.760   1.692   3.495
 6000TIP3    H117964   6.668   1.719   3.501
 6000TIP3    H217965   6.767   1.618   3.556
 6001TIP3   OH217966   1.331   0.729   4.732
 6001TIP3    H117967   1.416   0.772   4.724
 6001TIP3    H217968   1.323   0.676   4.653
 6002TIP3   OH217969   4.008   3.537   5.445
 6002TIP3    H117970   4.018   3.630   5.464
 6002TIP3    H217971   4.091   3.512   5.404
 6003TIP3   OH217972   0.722   0.714   2.399
 6003TIP3    H117973   0.627   0.726   2.393
 6003TIP3    H217974   0.758   0.801   2.381
 6004TIP3   OH217975   3.615   2.522   0.588
 6004TIP3    H117976   3.691   2.484   0.546
 6004TIP3    H217977   3.565   2.561   0.515
 6005TIP3   OH217978   1.471   1.834   5.802
 6005TIP3    H117979   1.410   1.904   5.824
 6005TIP3    H217980   1.526   1.825   5.879
 6006TIP3   OH217981   4.152   4.758   0.743
 6006TIP3    H117982   4.173   4.710   0.823
 6006TIP3    H217983   4.089   4.825   0.771
 6007TIP3   OH217984   2.873   3.231   0.053
 6007TIP3    H117985   2.950   3.243   0.108
 6007TIP3    H217986   2.809   3.294   0.086
 6008TIP3   OH217987   2.283   1.159   5.881
 6008TIP3    H117988   2.256   1.070   5.858
 6008TIP3    H217989   2.240   1.214   5.816
 6009TIP3   OH217990   3.150   4.768   5.605
 6009TIP3    H117991   3.107   4.683   5.593
 6009TIP3    H217992   3.243   4.747   5.611
 6010TIP3   OH217993   4.062   4.814   3.889
 6010TIP3    H117994   4.066   4.896   3.938
 6010TIP3    H217995   4.030   4.750   3.951
 6011TIP3   OH217996   2.828   3.478   4.106
 6011TIP3    H117997   2.892   3.549   4.103
 6011TIP3    H217998   2.862   3.418   4.172
 6012TIP3   OH217999   6.068   3.987   5.288
 6012TIP3    H118000   6.106   3.987   5.200
 6012TIP3    H218001   5.983   3.944   5.278
 6013TIP3   OH218002   1.734   2.495   0.546
 6013TIP3    H118003   1.783   2.548   0.610
 6013TIP3    H218004   1.802   2.453   0.493
 6014TIP3   OH218005   0.220   5.988   4.432
 6014TIP3    H118006   0.291   6.015   4.490
 6014TIP3    H218007   0.144   6.039   4.461
 6015TIP3   OH218008   2.969   2.115   2.864
 6015TIP3    H118009   3.023   2.187   2.898
 6015TIP3    H218010   2.961   2.054   2.938
 6016TIP3   OH218011   6.614   2.389   0.405
 6016TIP3    H118012   6.610   2.432   0.320
 6016TIP3    H218013   6.686   2.327   0.397
 6017TIP3   OH218014   5.273   5.229   3.412
 6017TIP3    H118015   5.256   5.158   3.351
 6017TIP3    H218016   5.230   5.306   3.373
 6018TIP3   OH218017   1.947   6.168   5.168
 6018TIP3    H118018   1.970   6.258   5.192
 6018TIP3    H218019   2.022   6.116   5.196
 6019TIP3   OH218020   4.573   3.046   4.365
 6019TIP3    H118021   4.625   3.120   4.334
 6019TIP3    H218022   4.596   3.037   4.457
 6020TIP3   OH218023   1.337   2.067   5.820
 6020TIP3    H118024   1.258   2.034   5.863
 6020TIP3    H218025   1.314   2.072   5.728
 6021TIP3   OH218026   3.684   0.454   4.181
 6021TIP3    H118027   3.592   0.481   4.193
 6021TIP3    H218028   3.704   0.474   4.090
 6022TIP3   OH218029   3.170   0.726   3.147
 6022TIP3    H118030   3.150   0.761   3.060
 6022TIP3    H218031   3.125   0.641   3.150
 6023TIP3   OH218032   6.362   1.546   2.099
 6023TIP3    H118033   6.281   1.530   2.050
 6023TIP3    H218034   6.334   1.598   2.174
 6024TIP3   OH218035   4.024   3.444   4.330
 6024TIP3    H118036   3.931   3.453   4.311
 6024TIP3    H218037   4.067   3.510   4.275
 6025TIP3   OH218038   2.519   5.111   3.081
 6025TIP3    H118039   2.559   5.033   3.042
 6025TIP3    H218040   2.593   5.169   3.098
 6026TIP3   OH218041   4.503   5.332   0.727
 6026TIP3    H118042   4.518   5.283   0.646
 6026TIP3    H218043   4.566   5.405   0.722
 6027TIP3   OH218044   2.123   2.930   0.958
 6027TIP3    H118045   2.095   3.021   0.955
 6027TIP3    H218046   2.206   2.928   0.912
 6028TIP3   OH218047   3.914   4.640   5.579
 6028TIP3    H118048   3.853   4.622   5.651
 6028TIP3    H218049   3.859   4.638   5.501
 6029TIP3   OH218050   0.123   1.793   3.526
 6029TIP3    H118051   0.164   1.794   3.440
 6029TIP3    H218052   0.055   1.861   3.522
 6030TIP3   OH218053   3.658   5.599   3.825
 6030TIP3    H118054   3.722   5.579   3.756
 6030TIP3    H218055   3.610   5.517   3.838
 6031TIP3   OH218056   1.274   6.036   5.887
 6031TIP3    H118057   1.260   5.941   5.891
 6031TIP3    H218058   1.350   6.047   5.830
 6032TIP3   OH218059   2.209   2.871   3.291
 6032TIP3    H118060   2.293   2.885   3.247
 6032TIP3    H218061   2.184   2.781   3.269
 6033TIP3   OH218062   4.192   1.619   1.976
 6033TIP3    H118063   4.125   1.553   1.996
 6033TIP3    H218064   4.142   1.697   1.953
 6034TIP3   OH218065   6.830   4.140   1.850
 6034TIP3    H118066   6.893   4.211   1.843
 6034TIP3    H218067   6.779   4.143   1.769
 6035TIP3   OH218068   1.290   6.411   1.370
 6035TIP3    H118069   1.262   6.455   1.290
 6035TIP3    H218070   1.384   6.394   1.356
 6036TIP3   OH218071   0.657   6.254   3.236
 6036TIP3    H118072   0.569   6.289   3.250
 6036TIP3    H218073   0.716   6.322   3.268
 6037TIP3   OH218074   5.861   6.514   2.516
 6037TIP3    H118075   5.775   6.488   2.482
 6037TIP3    H218076   5.861   6.609   2.512
 6038TIP3   OH218077   3.151   2.092   1.375
 6038TIP3    H118078   3.115   2.071   1.289
 6038TIP3    H218079   3.177   2.184   1.367
 6039TIP3   OH218080   4.234   4.155   4.128
 6039TIP3    H118081   4.190   4.074   4.106
 6039TIP3    H218082   4.326   4.131   4.135
 6040TIP3   OH218083   6.431   2.203   2.812
 6040TIP3    H118084   6.447   2.215   2.719
 6040TIP3    H218085   6.376   2.277   2.837
 6041TIP3   OH218086   3.442   4.755   0.542
 6041TIP3    H118087   3.469   4.825   0.601
 6041TIP3    H218088   3.445   4.795   0.455
 6042TIP3   OH218089   1.224   5.482   0.875
 6042TIP3    H118090   1.283   5.431   0.931
 6042TIP3    H218091   1.280   5.516   0.805
 6043TIP3   OH218092   0.353   4.298   5.033
 6043TIP3    H118093   0.340   4.349   5.113
 6043TIP3    H218094   0.271   4.251   5.021
 6044TIP3   OH218095   2.527   2.007   0.618
 6044TIP3    H118096   2.443   1.963   0.632
 6044TIP3    H218097   2.591   1.952   0.664
 6045TIP3   OH218098   0.821   2.246   5.273
 6045TIP3    H118099   0.902   2.285   5.241
 6045TIP3    H218100   0.784   2.201   5.197
 6046TIP3   OH218101   3.884   1.644   1.266
 6046TIP3    H118102   3.828   1.640   1.189
 6046TIP3    H218103   3.931   1.727   1.258
 6047TIP3   OH218104   6.150   4.043   2.790
 6047TIP3    H118105   6.059   4.030   2.762
 6047TIP3    H218106   6.201   4.044   2.709
 6048TIP3   OH218107   4.762   1.385   5.264
 6048TIP3    H118108   4.737   1.302   5.223
 6048TIP3    H218109   4.837   1.415   5.212
 6049TIP3   OH218110   5.033   0.111   1.035
 6049TIP3    H118111   4.950   0.135   1.077
 6049TIP3    H218112   5.074   0.194   1.013
 6050TIP3   OH218113   6.796   5.114   0.285
 6050TIP3    H118114   6.783   5.115   0.380
 6050TIP3    H218115   6.792   5.206   0.259
 6051TIP3   OH218116   1.326   6.470   1.643
 6051TIP3    H118117   1.357   6.386   1.678
 6051TIP3    H218118   1.316   6.454   1.549
 6052TIP3   OH218119   5.841   4.048   2.032
 6052TIP3    H118120   5.746   4.044   2.035
 6052TIP3    H218121   5.869   4.040   2.124
 6053TIP3   OH218122   2.278   5.533   2.771
 6053TIP3    H118123   2.305   5.504   2.858
 6053TIP3    H218124   2.302   5.626   2.769
 6054TIP3   OH218125   0.825   6.473   3.287
 6054TIP3    H118126   0.848   6.464   3.380
 6054TIP3    H218127   0.764   6.547   3.284
 6055TIP3   OH218128   2.934   4.497   4.748
 6055TIP3    H118129   2.982   4.433   4.801
 6055TIP3    H218130   2.842   4.471   4.758
 6056TIP3   OH218131   1.412   1.372   1.630
 6056TIP3    H118132   1.483   1.436   1.629
 6056TIP3    H218133   1.392   1.361   1.723
 6057TIP3   OH218134   4.696   1.023   4.458
 6057TIP3    H118135   4.688   1.043   4.365
 6057TIP3    H218136   4.776   0.971   4.465
 6058TIP3   OH218137   2.995   5.633   2.340
 6058TIP3    H118138   3.069   5.654   2.282
 6058TIP3    H218139   2.936   5.582   2.286
 6059TIP3   OH218140   3.444   0.429   3.030
 6059TIP3    H118141   3.442   0.469   2.943
 6059TIP3    H218142   3.403   0.343   3.018
 6060TIP3   OH218143   3.153   3.868   3.738
 6060TIP3    H118144   3.164   3.963   3.735
 6060TIP3    H218145   3.096   3.848   3.664
 6061TIP3   OH218146   3.657   2.612   0.843
 6061TIP3    H118147   3.631   2.575   0.759
 6061TIP3    H218148   3.741   2.569   0.862
 6062TIP3   OH218149   1.189   1.094   2.183
 6062TIP3    H118150   1.221   1.032   2.249
 6062TIP3    H218151   1.154   1.167   2.234
 6063TIP3   OH218152   4.827   0.128   2.748
 6063TIP3    H118153   4.884   0.144   2.673
 6063TIP3    H218154   4.882   0.145   2.824
 6064TIP3   OH218155   0.658   2.655   2.343
 6064TIP3    H118156   0.651   2.664   2.248
 6064TIP3    H218157   0.735   2.706   2.366
 6065TIP3   OH218158   4.833   1.932   1.982
 6065TIP3    H118159   4.919   1.954   1.944
 6065TIP3    H218160   4.846   1.942   2.076
 6066TIP3   OH218161   2.901   1.874   0.041
 6066TIP3    H118162   2.889   1.919   0.125
 6066TIP3    H218163   2.835   1.805   0.041
 6067TIP3   OH218164   1.713   4.139   1.832
 6067TIP3    H118165   1.718   4.231   1.859
 6067TIP3    H218166   1.686   4.092   1.912
 6068TIP3   OH218167   1.665   5.111   0.112
 6068TIP3    H118168   1.643   5.185   0.169
 6068TIP3    H218169   1.676   5.037   0.173
 6069TIP3   OH218170   6.914   5.875   5.516
 6069TIP3    H118171   6.899   5.781   5.503
 6069TIP3    H218172   6.991   5.879   5.573
 6070TIP3   OH218173   1.025   4.167   5.641
 6070TIP3    H118174   1.021   4.260   5.622
 6070TIP3    H218175   1.115   4.152   5.669
 6071TIP3   OH218176   1.481   0.217   2.679
 6071TIP3    H118177   1.559   0.168   2.655
 6071TIP3    H218178   1.422   0.206   2.605
 6072TIP3   OH218179   2.762   2.575   0.484
 6072TIP3    H118180   2.770   2.518   0.407
 6072TIP3    H218181   2.766   2.515   0.559
 6073TIP3   OH218182   5.084   2.561   0.937
 6073TIP3    H118183   5.137   2.592   0.863
 6073TIP3    H218184   5.116   2.611   1.012
 6074TIP3   OH218185   3.430   3.040   2.156
 6074TIP3    H118186   3.371   3.049   2.081
 6074TIP3    H218187   3.498   2.979   2.125
 6075TIP3   OH218188   0.734   5.835   2.074
 6075TIP3    H118189   0.828   5.824   2.062
 6075TIP3    H218190   0.706   5.888   2.000
 6076TIP3   OH218191   5.096   6.053   1.699
 6076TIP3    H118192   5.012   6.095   1.719
 6076TIP3    H218193   5.125   6.095   1.617
 6077TIP3   OH218194   3.615   0.079   3.686
 6077TIP3    H118195   3.578   0.105   3.771
 6077TIP3    H218196   3.701   0.120   3.684
 6078TIP3   OH218197   6.922   1.531   5.405
 6078TIP3    H118198   6.861   1.516   5.333
 6078TIP3    H218199   7.007   1.544   5.362
 6079TIP3   OH218200   5.533   2.151   5.701
 6079TIP3    H118201   5.528   2.218   5.633
 6079TIP3    H218202   5.491   2.074   5.662
 6080TIP3   OH218203   4.179   0.755   1.797
 6080TIP3    H118204   4.179   0.717   1.885
 6080TIP3    H218205   4.220   0.688   1.742
 6081TIP3   OH218206   4.344   4.347   5.612
 6081TIP3    H118207   4.342   4.426   5.557
 6081TIP3    H218208   4.306   4.375   5.695
 6082TIP3   OH218209   4.876   3.735   1.130
 6082TIP3    H118210   4.919   3.811   1.090
 6082TIP3    H218211   4.918   3.725   1.215
 6083TIP3   OH218212   6.187   0.438   1.876
 6083TIP3    H118213   6.255   0.502   1.898
 6083TIP3    H218214   6.120   0.450   1.943
 6084TIP3   OH218215   2.143   5.472   5.226
 6084TIP3    H118216   2.219   5.491   5.280
 6084TIP3    H218217   2.130   5.377   5.235
 6085TIP3   OH218218   6.625   1.601   3.001
 6085TIP3    H118219   6.577   1.548   3.065
 6085TIP3    H218220   6.690   1.648   3.052
 6086TIP3   OH218221   5.299   5.380   1.865
 6086TIP3    H118222   5.279   5.386   1.958
 6086TIP3    H218223   5.226   5.331   1.828
 6087TIP3   OH218224   1.408   0.008   1.333
 6087TIP3    H118225   1.348  -0.065   1.348
 6087TIP3    H218226   1.359   0.085   1.363
 6088TIP3   OH218227   5.990   4.327   1.911
 6088TIP3    H118228   6.039   4.409   1.903
 6088TIP3    H218229   5.963   4.324   2.003
 6089TIP3   OH218230   1.888   1.450   1.842
 6089TIP3    H118231   1.866   1.503   1.766
 6089TIP3    H218232   1.981   1.464   1.855
 6090TIP3   OH218233   6.155   4.507   3.777
 6090TIP3    H118234   6.163   4.453   3.855
 6090TIP3    H218235   6.067   4.544   3.782
 6091TIP3   OH218236   4.880   2.225   3.675
 6091TIP3    H118237   4.864   2.140   3.633
 6091TIP3    H218238   4.809   2.281   3.644
 6092TIP3   OH218239   6.871   1.808   1.187
 6092TIP3    H118240   6.966   1.812   1.196
 6092TIP3    H218241   6.837   1.860   1.260
 6093TIP3   OH218242   6.761   1.119   4.134
 6093TIP3    H118243   6.794   1.088   4.219
 6093TIP3    H218244   6.667   1.104   4.138
 6094TIP3   OH218245   0.774   5.618   4.944
 6094TIP3    H118246   0.825   5.587   4.869
 6094TIP3    H218247   0.799   5.560   5.016
 6095TIP3   OH218248   0.747   5.304   5.348
 6095TIP3    H118249   0.757   5.376   5.285
 6095TIP3    H218250   0.656   5.277   5.338
 6096TIP3   OH218251   1.422   3.314   0.809
 6096TIP3    H118252   1.356   3.367   0.765
 6096TIP3    H218253   1.498   3.316   0.750
 6097TIP3   OH218254   1.056   3.160   3.198
 6097TIP3    H118255   1.026   3.240   3.155
 6097TIP3    H218256   1.057   3.094   3.129
 6098TIP3   OH218257   0.967   0.507   3.452
 6098TIP3    H118258   0.952   0.600   3.440
 6098TIP3    H218259   0.881   0.469   3.467
 6099TIP3   OH218260   0.283   5.388   4.218
 6099TIP3    H118261   0.376   5.378   4.196
 6099TIP3    H218262   0.284   5.435   4.301
 6100TIP3   OH218263   0.551   2.566   3.303
 6100TIP3    H118264   0.492   2.581   3.229
 6100TIP3    H218265   0.549   2.648   3.352
 6101TIP3   OH218266   1.248   0.250   4.630
 6101TIP3    H118267   1.202   0.206   4.701
 6101TIP3    H218268   1.268   0.181   4.567
 6102TIP3   OH218269   3.449   1.933   0.180
 6102TIP3    H118270   3.465   1.841   0.158
 6102TIP3    H218271   3.388   1.963   0.112
 6103TIP3   OH218272   0.241   5.876   2.455
 6103TIP3    H118273   0.208   5.912   2.373
 6103TIP3    H218274   0.312   5.934   2.480
 6104TIP3   OH218275   2.938   0.530   0.457
 6104TIP3    H118276   2.890   0.611   0.441
 6104TIP3    H218277   3.003   0.527   0.387
 6105TIP3   OH218278   3.169   4.175   4.157
 6105TIP3    H118279   3.255   4.164   4.199
 6105TIP3    H218280   3.190   4.202   4.067
 6106TIP3   OH218281   5.140   0.856   2.836
 6106TIP3    H118282   5.159   0.771   2.795
 6106TIP3    H218283   5.159   0.921   2.769
 6107TIP3   OH218284   3.093   2.834   5.862
 6107TIP3    H118285   3.073   2.802   5.774
 6107TIP3    H218286   3.007   2.844   5.903
 6108TIP3   OH218287   6.862   5.208   0.817
 6108TIP3    H118288   6.795   5.149   0.850
 6108TIP3    H218289   6.845   5.292   0.860
 6109TIP3   OH218290   2.171   4.417   2.068
 6109TIP3    H118291   2.133   4.416   1.980
 6109TIP3    H218292   2.225   4.496   2.070
 6110TIP3   OH218293   1.468   5.358   3.638
 6110TIP3    H118294   1.432   5.271   3.621
 6110TIP3    H218295   1.439   5.411   3.563
 6111TIP3   OH218296   0.356   3.229   2.232
 6111TIP3    H118297   0.303   3.290   2.181
 6111TIP3    H218298   0.444   3.237   2.195
 6112TIP3   OH218299   0.494   3.424   1.076
 6112TIP3    H118300   0.405   3.403   1.045
 6112TIP3    H218301   0.482   3.502   1.131
 6113TIP3   OH218302   4.117   0.538   4.471
 6113TIP3    H118303   4.135   0.558   4.563
 6113TIP3    H218304   4.034   0.491   4.472
 6114TIP3   OH218305   2.496   5.407   3.264
 6114TIP3    H118306   2.403   5.423   3.278
 6114TIP3    H218307   2.539   5.451   3.337
 6115TIP3   OH218308   0.703   6.154   1.108
 6115TIP3    H118309   0.633   6.180   1.168
 6115TIP3    H218310   0.756   6.234   1.099
 6116TIP3   OH218311   5.873   1.133   3.877
 6116TIP3    H118312   5.820   1.069   3.830
 6116TIP3    H218313   5.809   1.190   3.920
 6117TIP3   OH218314   0.643   2.373   2.784
 6117TIP3    H118315   0.652   2.467   2.769
 6117TIP3    H218316   0.662   2.332   2.699
 6118TIP3   OH218317   4.014   1.763   5.869
 6118TIP3    H118318   3.923   1.744   5.893
 6118TIP3    H218319   4.036   1.841   5.919
 6119TIP3   OH218320   2.841   0.322   3.182
 6119TIP3    H118321   2.932   0.295   3.187
 6119TIP3    H218322   2.798   0.253   3.131
 6120TIP3   OH218323   0.313   4.238   3.649
 6120TIP3    H118324   0.276   4.152   3.669
 6120TIP3    H218325   0.247   4.280   3.594
 6121TIP3   OH218326   5.811   4.330   2.612
 6121TIP3    H118327   5.881   4.322   2.676
 6121TIP3    H218328   5.736   4.286   2.652
 6122TIP3   OH218329   4.582   0.658   1.918
 6122TIP3    H118330   4.677   0.643   1.915
 6122TIP3    H218331   4.547   0.581   1.962
 6123TIP3   OH218332   3.847   0.533   1.353
 6123TIP3    H118333   3.824   0.567   1.267
 6123TIP3    H218334   3.766   0.494   1.386
 6124TIP3   OH218335   2.141   0.635   1.019
 6124TIP3    H118336   2.234   0.652   1.000
 6124TIP3    H218337   2.143   0.576   1.095
 6125TIP3   OH218338   1.999   2.781   2.435
 6125TIP3    H118339   1.981   2.818   2.522
 6125TIP3    H218340   2.063   2.712   2.452
 6126TIP3   OH218341   1.423   1.900   2.114
 6126TIP3    H118342   1.419   1.805   2.124
 6126TIP3    H218343   1.516   1.920   2.106
 6127TIP3   OH218344   1.172   0.453   3.656
 6127TIP3    H118345   1.251   0.446   3.603
 6127TIP3    H218346   1.101   0.444   3.592
 6128TIP3   OH218347   3.469   3.385   2.312
 6128TIP3    H118348   3.461   3.349   2.224
 6128TIP3    H218349   3.496   3.476   2.299
 6129TIP3   OH218350   4.426   6.125   2.978
 6129TIP3    H118351   4.363   6.137   2.907
 6129TIP3    H218352   4.508   6.161   2.945
 6130TIP3   OH218353   5.094   2.074   4.406
 6130TIP3    H118354   5.052   1.989   4.420
 6130TIP3    H218355   5.143   2.063   4.325
 6131TIP3   OH218356   1.352   6.390   3.698
 6131TIP3    H118357   1.323   6.475   3.730
 6131TIP3    H218358   1.385   6.408   3.610
 6132TIP3   OH218359   6.931   0.324   5.470
 6132TIP3    H118360   6.998   0.271   5.513
 6132TIP3    H218361   6.980   0.378   5.408
 6133TIP3   OH218362   3.548   1.428   0.360
 6133TIP3    H118363   3.618   1.401   0.420
 6133TIP3    H218364   3.509   1.345   0.331
 6134TIP3   OH218365   3.853   1.560   2.399
 6134TIP3    H118366   3.879   1.543   2.490
 6134TIP3    H218367   3.784   1.626   2.406
 6135TIP3   OH218368   2.001   5.067   3.830
 6135TIP3    H118369   1.922   5.120   3.846
 6135TIP3    H218370   2.000   5.001   3.899
 6136TIP3   OH218371   4.042   6.503   5.652
 6136TIP3    H118372   3.955   6.463   5.651
 6136TIP3    H218373   4.028   6.591   5.616
 6137TIP3   OH218374   7.093   5.084   3.624
 6137TIP3    H118375   7.076   5.008   3.568
 6137TIP3    H218376   7.187   5.081   3.640
 6138TIP3   OH218377  -0.005   6.525   0.316
 6138TIP3    H118378  -0.003   6.482   0.230
 6138TIP3    H218379   0.082   6.513   0.352
 6139TIP3   OH218380   3.527   2.191   0.264
 6139TIP3    H118381   3.505   2.099   0.247
 6139TIP3    H218382   3.576   2.219   0.187
 6140TIP3   OH218383   1.615   3.034   3.939
 6140TIP3    H118384   1.683   3.094   3.909
 6140TIP3    H218385   1.587   2.988   3.860
 6141TIP3   OH218386   5.053   4.449   2.949
 6141TIP3    H118387   5.123   4.408   3.001
 6141TIP3    H218388   5.099   4.509   2.891
 6142TIP3   OH218389   2.846   1.802   3.695
 6142TIP3    H118390   2.941   1.806   3.701
 6142TIP3    H218391   2.815   1.799   3.785
 6143TIP3   OH218392   2.031   1.204   5.114
 6143TIP3    H118393   2.003   1.287   5.152
 6143TIP3    H218394   1.960   1.179   5.055
 6144TIP3   OH218395   3.418   0.316   1.118
 6144TIP3    H118396   3.436   0.354   1.205
 6144TIP3    H218397   3.382   0.389   1.068
 6145TIP3   OH218398   3.844   3.380   3.372
 6145TIP3    H118399   3.814   3.432   3.297
 6145TIP3    H218400   3.817   3.291   3.352
 6146TIP3   OH218401   4.480   6.507   4.975
 6146TIP3    H118402   4.414   6.462   4.923
 6146TIP3    H218403   4.447   6.596   4.984
 6147TIP3   OH218404   5.144   2.596   5.786
 6147TIP3    H118405   5.155   2.504   5.761
 6147TIP3    H218406   5.052   2.615   5.767
 6148TIP3   OH218407   4.765   5.961   3.965
 6148TIP3    H118408   4.725   6.030   3.912
 6148TIP3    H218409   4.809   6.006   4.036
 6149TIP3   OH218410   0.358   5.639   1.062
 6149TIP3    H118411   0.386   5.605   0.976
 6149TIP3    H218412   0.283   5.584   1.085
 6150TIP3   OH218413   3.069   2.617   4.711
 6150TIP3    H118414   3.065   2.708   4.741
 6150TIP3    H218415   3.123   2.573   4.776
 6151TIP3   OH218416   4.797   5.844   3.324
 6151TIP3    H118417   4.771   5.754   3.308
 6151TIP3    H218418   4.730   5.897   3.280
 6152TIP3   OH218419   1.404   0.110   4.102
 6152TIP3    H118420   1.395   0.193   4.055
 6152TIP3    H218421   1.461   0.057   4.047
 6153TIP3   OH218422   6.957   3.728   0.087
 6153TIP3    H118423   6.959   3.635   0.064
 6153TIP3    H218424   7.049   3.751   0.100
 6154TIP3   OH218425   6.625   2.720   4.858
 6154TIP3    H118426   6.624   2.709   4.953
 6154TIP3    H218427   6.588   2.807   4.843
 6155TIP3   OH218428   4.148   4.123   5.104
 6155TIP3    H118429   4.173   4.215   5.114
 6155TIP3    H218430   4.229   4.074   5.117
 6156TIP3   OH218431   6.972   0.969   5.475
 6156TIP3    H118432   7.046   0.965   5.414
 6156TIP3    H218433   6.973   0.884   5.519
 6157TIP3   OH218434   5.264   4.736   0.608
 6157TIP3    H118435   5.179   4.772   0.634
 6157TIP3    H218436   5.299   4.800   0.546
 6158TIP3   OH218437   6.078   4.426   4.061
 6158TIP3    H118438   6.154   4.469   4.100
 6158TIP3    H218439   6.002   4.475   4.095
 6159TIP3   OH218440   5.005   3.283   3.196
 6159TIP3    H118441   4.987   3.293   3.103
 6159TIP3    H218442   4.974   3.366   3.235
 6160TIP3   OH218443   0.925   4.273   4.771
 6160TIP3    H118444   1.002   4.216   4.768
 6160TIP3    H218445   0.958   4.356   4.806
 6161TIP3   OH218446   5.700   0.459   1.904
 6161TIP3    H118447   5.691   0.367   1.929
 6161TIP3    H218448   5.701   0.457   1.808
 6162TIP3   OH218449   0.022   2.444   0.773
 6162TIP3    H118450   0.103   2.396   0.756
 6162TIP3    H218451   0.038   2.532   0.739
 6163TIP3   OH218452   1.243   6.332   5.893
 6163TIP3    H118453   1.285   6.333   5.807
 6163TIP3    H218454   1.211   6.242   5.902
 6164TIP3   OH218455   2.469   3.071   5.069
 6164TIP3    H118456   2.421   2.994   5.098
 6164TIP3    H218457   2.400   3.130   5.036
 6165TIP3   OH218458   6.208   0.690   2.905
 6165TIP3    H118459   6.292   0.718   2.870
 6165TIP3    H218460   6.188   0.753   2.975
 6166TIP3   OH218461   6.468   1.582   0.018
 6166TIP3    H118462   6.511   1.654   0.064
 6166TIP3    H218463   6.469   1.510   0.081
 6167TIP3   OH218464   3.145   6.187   5.711
 6167TIP3    H118465   3.134   6.282   5.718
 6167TIP3    H218466   3.144   6.170   5.616
 6168TIP3   OH218467   3.560   3.889   1.172
 6168TIP3    H118468   3.525   3.832   1.105
 6168TIP3    H218469   3.651   3.906   1.146
 6169TIP3   OH218470   4.623   6.742   3.982
 6169TIP3    H118471   4.603   6.747   3.889
 6169TIP3    H218472   4.714   6.713   3.986
 6170TIP3   OH218473   0.943   0.216   2.361
 6170TIP3    H118474   0.901   0.290   2.406
 6170TIP3    H218475   0.984   0.256   2.284
 6171TIP3   OH218476   6.036   0.562   0.078
 6171TIP3    H118477   5.942   0.580   0.065
 6171TIP3    H218478   6.080   0.639   0.043
 6172TIP3   OH218479   2.446   5.603   1.352
 6172TIP3    H118480   2.373   5.663   1.364
 6172TIP3    H218481   2.470   5.613   1.260
 6173TIP3   OH218482   0.172   0.073   2.727
 6173TIP3    H118483   0.091   0.066   2.778
 6173TIP3    H218484   0.233   0.118   2.785
 6174TIP3   OH218485   5.027   0.769   1.650
 6174TIP3    H118486   5.070   0.688   1.621
 6174TIP3    H218487   4.934   0.749   1.646
 6175TIP3   OH218488   4.265   1.392   2.138
 6175TIP3    H118489   4.241   1.453   2.208
 6175TIP3    H218490   4.313   1.322   2.183
 6176TIP3   OH218491   3.139   5.669   5.015
 6176TIP3    H118492   3.092   5.741   5.057
 6176TIP3    H218493   3.113   5.673   4.923
 6177TIP3   OH218494   2.426   5.663   1.901
 6177TIP3    H118495   2.512   5.678   1.862
 6177TIP3    H218496   2.414   5.738   1.960
 6178TIP3   OH218497   6.002   2.915   2.368
 6178TIP3    H118498   6.006   2.960   2.453
 6178TIP3    H218499   6.093   2.894   2.348
 6179TIP3   OH218500   5.916   3.358   1.664
 6179TIP3    H118501   5.881   3.316   1.742
 6179TIP3    H218502   5.843   3.358   1.602
 6180TIP3   OH218503   0.469   0.104   5.481
 6180TIP3    H118504   0.475   0.009   5.489
 6180TIP3    H218505   0.519   0.125   5.402
 6181TIP3   OH218506   7.034   0.311   1.820
 6181TIP3    H118507   7.108   0.312   1.881
 6181TIP3    H218508   7.027   0.219   1.793
 6182TIP3   OH218509   1.981   2.185   0.080
 6182TIP3    H118510   2.048   2.133   0.125
 6182TIP3    H218511   1.923   2.120   0.040
 6183TIP3   OH218512   3.692   3.548   4.981
 6183TIP3    H118513   3.700   3.642   4.993
 6183TIP3    H218514   3.726   3.510   5.062
 6184TIP3   OH218515   1.145   6.227   3.987
 6184TIP3    H118516   1.092   6.187   3.918
 6184TIP3    H218517   1.230   6.243   3.946
 6185TIP3   OH218518   6.443   4.726   0.842
 6185TIP3    H118519   6.473   4.666   0.910
 6185TIP3    H218520   6.369   4.772   0.881
 6186TIP3   OH218521   0.786   1.284   4.116
 6186TIP3    H118522   0.839   1.278   4.196
 6186TIP3    H218523   0.849   1.272   4.045
 6187TIP3   OH218524   2.126   2.371   2.146
 6187TIP3    H118525   2.095   2.457   2.118
 6187TIP3    H218526   2.064   2.345   2.215
 6188TIP3   OH218527   3.156   5.658   1.600
 6188TIP3    H118528   3.221   5.728   1.599
 6188TIP3    H218529   3.084   5.690   1.545
 6189TIP3   OH218530   5.201   4.638   4.487
 6189TIP3    H118531   5.160   4.580   4.550
 6189TIP3    H218532   5.165   4.610   4.402
 6190TIP3   OH218533   1.528   3.888   0.412
 6190TIP3    H118534   1.522   3.982   0.398
 6190TIP3    H218535   1.450   3.866   0.462
 6191TIP3   OH218536   2.444   2.242   5.606
 6191TIP3    H118537   2.529   2.283   5.588
 6191TIP3    H218538   2.380   2.309   5.583
 6192TIP3   OH218539   1.608   3.574   1.627
 6192TIP3    H118540   1.649   3.551   1.544
 6192TIP3    H218541   1.641   3.508   1.688
 6193TIP3   OH218542   2.208   5.409   0.842
 6193TIP3    H118543   2.127   5.406   0.894
 6193TIP3    H218544   2.275   5.374   0.900
 6194TIP3   OH218545   6.127   3.043   4.848
 6194TIP3    H118546   6.036   3.057   4.823
 6194TIP3    H218547   6.143   2.950   4.829
 6195TIP3   OH218548   3.882   0.700  -0.019
 6195TIP3    H118549   3.855   0.609  -0.032
 6195TIP3    H218550   3.868   0.716   0.074
 6196TIP3   OH218551   5.038   0.296   3.247
 6196TIP3    H118552   5.117   0.330   3.291
 6196TIP3    H218553   4.967   0.316   3.308
 6197TIP3   OH218554   1.455   1.616   3.183
 6197TIP3    H118555   1.478   1.570   3.102
 6197TIP3    H218556   1.535   1.616   3.235
 6198TIP3   OH218557   5.463   2.491   0.468
 6198TIP3    H118558   5.469   2.407   0.423
 6198TIP3    H218559   5.439   2.553   0.399
 6199TIP3   OH218560   1.301   6.768   0.425
 6199TIP3    H118561   1.207   6.755   0.438
 6199TIP3    H218562   1.313   6.863   0.427
 6200TIP3   OH218563   4.174   4.474   3.398
 6200TIP3    H118564   4.163   4.459   3.492
 6200TIP3    H218565   4.087   4.500   3.367
 6201TIP3   OH218566   6.062   4.215   0.022
 6201TIP3    H118567   6.061   4.294  -0.032
 6201TIP3    H218568   6.148   4.216   0.064
 6202TIP3   OH218569   2.626   4.314   1.699
 6202TIP3    H118570   2.676   4.244   1.741
 6202TIP3    H218571   2.546   4.321   1.751
 6203TIP3   OH218572   5.999   1.733   0.355
 6203TIP3    H118573   6.047   1.720   0.273
 6203TIP3    H218574   6.044   1.807   0.398
 6204TIP3   OH218575   6.707   3.605   1.125
 6204TIP3    H118576   6.730   3.515   1.148
 6204TIP3    H218577   6.611   3.605   1.121
 6205TIP3   OH218578   4.802   1.550   0.435
 6205TIP3    H118579   4.718   1.528   0.395
 6205TIP3    H218580   4.778   1.605   0.510
 6206TIP3   OH218581   0.773   1.364   0.642
 6206TIP3    H118582   0.749   1.367   0.735
 6206TIP3    H218583   0.825   1.284   0.634
 6207TIP3   OH218584   5.485   2.990   2.805
 6207TIP3    H118585   5.545   3.059   2.776
 6207TIP3    H218586   5.520   2.910   2.766
 6208TIP3   OH218587   6.853   2.044   1.424
 6208TIP3    H118588   6.781   2.083   1.475
 6208TIP3    H218589   6.923   2.033   1.488
 6209TIP3   OH218590   6.747   3.508   3.613
 6209TIP3    H118591   6.724   3.423   3.650
 6209TIP3    H218592   6.663   3.550   3.597
 6210TIP3   OH218593   5.296   3.416   2.993
 6210TIP3    H118594   5.383   3.432   2.956
 6210TIP3    H218595   5.260   3.504   3.008
 6211TIP3   OH218596   0.894   5.989   4.820
 6211TIP3    H118597   0.847   6.021   4.898
 6211TIP3    H218598   0.946   6.065   4.792
 6212TIP3   OH218599   5.198   4.036   5.743
 6212TIP3    H118600   5.178   4.120   5.784
 6212TIP3    H218601   5.116   3.986   5.748
 6213TIP3   OH218602   2.697   0.340   4.744
 6213TIP3    H118603   2.603   0.341   4.761
 6213TIP3    H218604   2.736   0.373   4.825
 6214TIP3   OH218605   4.051   5.095   0.316
 6214TIP3    H118606   4.077   5.111   0.225
 6214TIP3    H218607   3.960   5.124   0.320
 6215TIP3   OH218608   5.397   3.213   5.890
 6215TIP3    H118609   5.315   3.202   5.842
 6215TIP3    H218610   5.463   3.228   5.822
 6216TIP3   OH218611   0.616   4.253   5.224
 6216TIP3    H118612   0.648   4.183   5.167
 6216TIP3    H218613   0.523   4.260   5.204
 6217TIP3   OH218614   2.725   5.084   5.494
 6217TIP3    H118615   2.811   5.115   5.467
 6217TIP3    H218616   2.727   4.990   5.477
 6218TIP3   OH218617   2.857   1.084   2.670
 6218TIP3    H118618   2.831   1.031   2.746
 6218TIP3    H218619   2.921   1.030   2.624
 6219TIP3   OH218620   3.734   2.820   5.345
 6219TIP3    H118621   3.680   2.844   5.419
 6219TIP3    H218622   3.807   2.771   5.383
 6220TIP3   OH218623   7.153   3.573   2.955
 6220TIP3    H118624   7.120   3.551   3.042
 6220TIP3    H218625   7.240   3.533   2.952
 6221TIP3   OH218626   6.623   2.043   5.698
 6221TIP3    H118627   6.643   2.060   5.791
 6221TIP3    H218628   6.566   2.115   5.672
 6222TIP3   OH218629   1.015   5.882   2.047
 6222TIP3    H118630   1.085   5.945   2.063
 6222TIP3    H218631   0.980   5.863   2.134
 6223TIP3   OH218632   0.620   0.274   0.156
 6223TIP3    H118633   0.560   0.200   0.165
 6223TIP3    H218634   0.590   0.338   0.221
 6224TIP3   OH218635   0.807   6.405   2.133
 6224TIP3    H118636   0.713   6.397   2.120
 6224TIP3    H218637   0.816   6.470   2.203
 6225TIP3   OH218638   6.873   6.333   5.763
 6225TIP3    H118639   6.827   6.341   5.847
 6225TIP3    H218640   6.866   6.240   5.740
 6226TIP3   OH218641   0.850   2.675   1.268
 6226TIP3    H118642   0.764   2.656   1.305
 6226TIP3    H218643   0.905   2.697   1.344
 6227TIP3   OH218644   4.372   4.264   0.857
 6227TIP3    H118645   4.383   4.174   0.885
 6227TIP3    H218646   4.409   4.317   0.928
 6228TIP3   OH218647   3.394   0.588   3.391
 6228TIP3    H118648   3.370   0.671   3.434
 6228TIP3    H218649   3.431   0.615   3.307
 6229TIP3   OH218650   0.323   1.228   4.434
 6229TIP3    H118651   0.260   1.158   4.450
 6229TIP3    H218652   0.276   1.291   4.379
 6230TIP3   OH218653   3.323   2.604   4.551
 6230TIP3    H118654   3.238   2.591   4.592
 6230TIP3    H218655   3.340   2.698   4.557
 6231TIP3   OH218656   3.268   0.964   1.186
 6231TIP3    H118657   3.343   0.919   1.148
 6231TIP3    H218658   3.197   0.900   1.184
 6232TIP3   OH218659   3.883   2.141   4.156
 6232TIP3    H118660   3.825   2.180   4.091
 6232TIP3    H218661   3.951   2.208   4.171
 6233TIP3   OH218662   3.980   5.869   1.317
 6233TIP3    H118663   3.982   5.842   1.409
 6233TIP3    H218664   3.958   5.789   1.269
 6234TIP3   OH218665   0.514   6.652   0.799
 6234TIP3    H118666   0.443   6.605   0.754
 6234TIP3    H218667   0.516   6.738   0.757
 6235TIP3   OH218668   6.332   2.522   1.321
 6235TIP3    H118669   6.358   2.475   1.242
 6235TIP3    H218670   6.333   2.615   1.296
 6236TIP3   OH218671   5.158   2.565   5.464
 6236TIP3    H118672   5.239   2.557   5.514
 6236TIP3    H218673   5.184   2.552   5.373
 6237TIP3   OH218674   2.634   6.613   1.549
 6237TIP3    H118675   2.649   6.626   1.643
 6237TIP3    H218676   2.722   6.606   1.512
 6238TIP3   OH218677   1.831   5.155   2.050
 6238TIP3    H118678   1.750   5.186   2.089
 6238TIP3    H218679   1.849   5.072   2.094
 6239TIP3   OH218680   3.977   1.265   5.631
 6239TIP3    H118681   3.907   1.262   5.565
 6239TIP3    H218682   3.953   1.338   5.688
 6240TIP3   OH218683   6.413   2.431   0.191
 6240TIP3    H118684   6.431   2.390   0.107
 6240TIP3    H218685   6.469   2.509   0.192
 6241TIP3   OH218686   2.100   6.592   4.297
 6241TIP3    H118687   2.049   6.595   4.378
 6241TIP3    H218688   2.188   6.620   4.323
 6242TIP3   OH218689   5.681   0.718   2.044
 6242TIP3    H118690   5.696   0.640   1.990
 6242TIP3    H218691   5.730   0.788   2.001
 6243TIP3   OH218692   2.208   3.614   1.446
 6243TIP3    H118693   2.251   3.669   1.512
 6243TIP3    H218694   2.138   3.570   1.494
 6244TIP3   OH218695   0.394   0.680   0.173
 6244TIP3    H118696   0.422   0.627   0.098
 6244TIP3    H218697   0.362   0.761   0.134
 6245TIP3   OH218698   3.158   4.425   3.965
 6245TIP3    H118699   3.241   4.419   4.012
 6245TIP3    H218700   3.182   4.423   3.873
 6246TIP3   OH218701   3.726   5.144   2.464
 6246TIP3    H118702   3.706   5.146   2.370
 6246TIP3    H218703   3.743   5.051   2.483
 6247TIP3   OH218704   5.784   5.513   5.095
 6247TIP3    H118705   5.744   5.428   5.076
 6247TIP3    H218706   5.742   5.573   5.033
 6248TIP3   OH218707   6.609   1.803   0.706
 6248TIP3    H118708   6.683   1.781   0.648
 6248TIP3    H218709   6.648   1.810   0.793
 6249TIP3   OH218710   5.491   1.894   5.534
 6249TIP3    H118711   5.467   1.908   5.442
 6249TIP3    H218712   5.440   1.817   5.561
 6250TIP3   OH218713   4.954   3.010   5.436
 6250TIP3    H118714   4.929   3.100   5.458
 6250TIP3    H218715   5.049   3.010   5.440
 6251TIP3   OH218716   3.416   6.057   5.325
 6251TIP3    H118717   3.341   6.003   5.301
 6251TIP3    H218718   3.484   5.993   5.348
 6252TIP3   OH218719   2.465   3.744   4.776
 6252TIP3    H118720   2.377   3.758   4.741
 6252TIP3    H218721   2.509   3.691   4.709
 6253TIP3   OH218722   4.514   0.574   5.165
 6253TIP3    H118723   4.420   0.565   5.184
 6253TIP3    H218724   4.530   0.513   5.093
 6254TIP3   OH218725   2.763   6.307   3.891
 6254TIP3    H118726   2.825   6.379   3.882
 6254TIP3    H218727   2.694   6.343   3.947
 6255TIP3   OH218728   6.013   5.164   4.607
 6255TIP3    H118729   6.082   5.165   4.541
 6255TIP3    H218730   5.932   5.157   4.558
 6256TIP3   OH218731   1.812   2.382   1.583
 6256TIP3    H118732   1.726   2.419   1.564
 6256TIP3    H218733   1.796   2.314   1.648
 6257TIP3   OH218734   3.713   0.813   1.355
 6257TIP3    H118735   3.706   0.736   1.412
 6257TIP3    H218736   3.718   0.776   1.267
 6258TIP3   OH218737   4.518   0.237   2.929
 6258TIP3    H118738   4.508   0.244   2.834
 6258TIP3    H218739   4.437   0.197   2.959
 6259TIP3   OH218740   3.556   4.424   5.431
 6259TIP3    H118741   3.477   4.468   5.401
 6259TIP3    H218742   3.544   4.417   5.526
 6260TIP3   OH218743   6.079   3.737   1.619
 6260TIP3    H118744   6.110   3.647   1.629
 6260TIP3    H218745   5.987   3.729   1.595
 6261TIP3   OH218746   3.374   5.709   2.403
 6261TIP3    H118747   3.347   5.620   2.425
 6261TIP3    H218748   3.388   5.751   2.488
 6262TIP3   OH218749   2.762   5.378   3.423
 6262TIP3    H118750   2.837   5.325   3.399
 6262TIP3    H218751   2.763   5.378   3.519
 6263TIP3   OH218752   1.243   0.582   3.918
 6263TIP3    H118753   1.219   0.521   3.848
 6263TIP3    H218754   1.257   0.526   3.995
 6264TIP3   OH218755   6.962   5.807   1.428
 6264TIP3    H118756   6.948   5.860   1.350
 6264TIP3    H218757   6.969   5.717   1.395
 6265TIP3   OH218758   5.011   0.771   0.383
 6265TIP3    H118759   5.049   0.817   0.308
 6265TIP3    H218760   4.959   0.837   0.428
 6266TIP3   OH218761   7.202   5.734   2.506
 6266TIP3    H118762   7.284   5.694   2.474
 6266TIP3    H218763   7.133   5.678   2.470
 6267TIP3   OH218764   0.977   6.325   2.505
 6267TIP3    H118765   0.920   6.250   2.520
 6267TIP3    H218766   1.059   6.287   2.474
 6268TIP3   OH218767   6.601   2.971   0.673
 6268TIP3    H118768   6.619   3.050   0.723
 6268TIP3    H218769   6.616   2.899   0.734
 6269TIP3   OH218770   1.702   2.323   1.938
 6269TIP3    H118771   1.633   2.270   1.900
 6269TIP3    H218772   1.657   2.396   1.980
 6270TIP3   OH218773   1.609   0.264   1.842
 6270TIP3    H118774   1.626   0.285   1.934
 6270TIP3    H218775   1.564   0.179   1.845
 6271TIP3   OH218776   4.618   5.562   2.320
 6271TIP3    H118777   4.625   5.655   2.343
 6271TIP3    H218778   4.590   5.520   2.401
 6272TIP3   OH218779   0.712   5.647   2.268
 6272TIP3    H118780   0.751   5.695   2.196
 6272TIP3    H218781   0.621   5.633   2.240
 6273TIP3   OH218782   6.519   6.054   0.785
 6273TIP3    H118783   6.545   6.020   0.700
 6273TIP3    H218784   6.550   5.989   0.848
 6274TIP3   OH218785   1.879   0.376   0.811
 6274TIP3    H118786   1.934   0.326   0.872
 6274TIP3    H218787   1.941   0.433   0.764
 6275TIP3   OH218788   3.789   6.277   5.012
 6275TIP3    H118789   3.750   6.343   5.071
 6275TIP3    H218790   3.716   6.218   4.992
 6276TIP3   OH218791   1.339   5.845   0.523
 6276TIP3    H118792   1.387   5.834   0.441
 6276TIP3    H218793   1.387   5.792   0.587
 6277TIP3   OH218794   4.411   6.747   4.908
 6277TIP3    H118795   4.348   6.817   4.894
 6277TIP3    H218796   4.479   6.786   4.962
 6278TIP3   OH218797   6.062   0.739   2.181
 6278TIP3    H118798   6.003   0.812   2.198
 6278TIP3    H218799   6.004   0.663   2.173
 6279TIP3   OH218800   4.727   3.131   1.704
 6279TIP3    H118801   4.658   3.113   1.639
 6279TIP3    H218802   4.722   3.226   1.718
 6280TIP3   OH218803   4.088   0.649   5.846
 6280TIP3    H118804   4.037   0.579   5.805
 6280TIP3    H218805   4.177   0.636   5.814
 6281TIP3   OH218806   3.382   1.342   5.643
 6281TIP3    H118807   3.302   1.290   5.645
 6281TIP3    H218808   3.431   1.307   5.569
 6282TIP3   OH218809   1.276   2.364   5.018
 6282TIP3    H118810   1.268   2.269   5.008
 6282TIP3    H218811   1.292   2.396   4.930
 6283TIP3   OH218812   0.857   6.389   1.016
 6283TIP3    H118813   0.941   6.359   0.981
 6283TIP3    H218814   0.834   6.465   0.962
 6284TIP3   OH218815   6.418   3.849   5.678
 6284TIP3    H118816   6.382   3.916   5.620
 6284TIP3    H218817   6.354   3.841   5.748
 6285TIP3   OH218818   4.694   5.586   3.234
 6285TIP3    H118819   4.613   5.602   3.282
 6285TIP3    H218820   4.672   5.604   3.142
 6286TIP3   OH218821   1.409   2.034   5.281
 6286TIP3    H118822   1.392   2.054   5.189
 6286TIP3    H218823   1.324   2.041   5.324
 6287TIP3   OH218824   0.847   6.399   0.656
 6287TIP3    H118825   0.790   6.455   0.709
 6287TIP3    H218826   0.932   6.443   0.657
 6288TIP3   OH218827   3.097   0.542   1.648
 6288TIP3    H118828   3.098   0.559   1.742
 6288TIP3    H218829   3.033   0.472   1.637
 6289TIP3   OH218830   6.226   1.322   3.562
 6289TIP3    H118831   6.241   1.240   3.516
 6289TIP3    H218832   6.143   1.309   3.609
 6290TIP3   OH218833   4.923   1.315   0.344
 6290TIP3    H118834   4.932   1.327   0.249
 6290TIP3    H218835   4.875   1.393   0.373
 6291TIP3   OH218836   7.112   3.692   4.430
 6291TIP3    H118837   7.194   3.645   4.420
 6291TIP3    H218838   7.082   3.671   4.519
 6292TIP3   OH218839   4.691   1.839   2.607
 6292TIP3    H118840   4.727   1.773   2.548
 6292TIP3    H218841   4.602   1.854   2.575
 6293TIP3   OH218842   3.202   4.635   2.821
 6293TIP3    H118843   3.231   4.546   2.841
 6293TIP3    H218844   3.107   4.631   2.822
 6294TIP3   OH218845   2.716   3.128   3.311
 6294TIP3    H118846   2.684   3.101   3.397
 6294TIP3    H218847   2.777   3.059   3.285
 6295TIP3   OH218848   1.895   5.895   1.367
 6295TIP3    H118849   1.923   5.809   1.398
 6295TIP3    H218850   1.815   5.914   1.418
 6296TIP3   OH218851   5.515   6.107   5.224
 6296TIP3    H118852   5.432   6.076   5.186
 6296TIP3    H218853   5.579   6.040   5.201
 6297TIP3   OH218854   1.463   1.115   5.194
 6297TIP3    H118855   1.499   1.148   5.276
 6297TIP3    H218856   1.384   1.067   5.219
 6298TIP3   OH218857   5.597   4.141   3.350
 6298TIP3    H118858   5.593   4.236   3.366
 6298TIP3    H218859   5.517   4.107   3.389
 6299TIP3   OH218860   0.121   0.873   2.470
 6299TIP3    H118861   0.166   0.823   2.402
 6299TIP3    H218862   0.139   0.964   2.448
 6300TIP3   OH218863   2.447   3.229   4.474
 6300TIP3    H118864   2.397   3.307   4.450
 6300TIP3    H218865   2.380   3.162   4.490
 6301TIP3   OH218866   0.721   2.960   1.974
 6301TIP3    H118867   0.796   2.909   1.944
 6301TIP3    H218868   0.750   2.998   2.057
 6302TIP3   OH218869   3.984   0.886   3.540
 6302TIP3    H118870   3.899   0.864   3.578
 6302TIP3    H218871   4.043   0.817   3.571
 6303TIP3   OH218872   6.818   6.639   2.340
 6303TIP3    H118873   6.748   6.634   2.274
 6303TIP3    H218874   6.889   6.685   2.295
 6304TIP3   OH218875   5.982   3.378   5.326
 6304TIP3    H118876   6.054   3.441   5.320
 6304TIP3    H218877   5.915   3.414   5.267
 6305TIP3   OH218878   2.143   5.190   3.546
 6305TIP3    H118879   2.219   5.204   3.491
 6305TIP3    H218880   2.177   5.188   3.636
 6306TIP3   OH218881   6.152   4.904   4.612
 6306TIP3    H118882   6.059   4.915   4.632
 6306TIP3    H218883   6.197   4.919   4.695
 6307TIP3   OH218884   6.439   1.205   1.354
 6307TIP3    H118885   6.343   1.199   1.363
 6307TIP3    H218886   6.452   1.275   1.290
 6308TIP3   OH218887   5.160   6.112   3.022
 6308TIP3    H118888   5.123   6.034   3.063
 6308TIP3    H218889   5.197   6.080   2.939
 6309TIP3   OH218890   1.396   3.311   1.765
 6309TIP3    H118891   1.468   3.264   1.809
 6309TIP3    H218892   1.364   3.249   1.699
 6310TIP3   OH218893   1.049   4.422   4.438
 6310TIP3    H118894   0.961   4.386   4.450
 6310TIP3    H218895   1.081   4.381   4.358
 6311TIP3   OH218896   2.839   5.090   5.856
 6311TIP3    H118897   2.922   5.083   5.809
 6311TIP3    H218898   2.849   5.167   5.912
 6312TIP3   OH218899   1.152   4.584   1.691
 6312TIP3    H118900   1.129   4.494   1.713
 6312TIP3    H218901   1.248   4.585   1.694
 6313TIP3   OH218902   2.945   0.876   0.667
 6313TIP3    H118903   3.007   0.813   0.703
 6313TIP3    H218904   2.986   0.961   0.683
 6314TIP3   OH218905   5.869   4.572   3.809
 6314TIP3    H118906   5.810   4.497   3.819
 6314TIP3    H218907   5.818   4.647   3.840
 6315TIP3   OH218908   0.299   6.754   0.186
 6315TIP3    H118909   0.381   6.705   0.198
 6315TIP3    H218910   0.314   6.837   0.230
 6316TIP3   OH218911   5.391   4.803   3.457
 6316TIP3    H118912   5.392   4.719   3.410
 6316TIP3    H218913   5.480   4.836   3.447
 6317TIP3   OH218914   0.774   2.188   4.802
 6317TIP3    H118915   0.680   2.189   4.819
 6317TIP3    H218916   0.799   2.096   4.810
 6318TIP3   OH218917   1.987   0.316   0.428
 6318TIP3    H118918   2.003   0.294   0.336
 6318TIP3    H218919   1.910   0.373   0.425
 6319TIP3   OH218920   4.641   0.608   1.348
 6319TIP3    H118921   4.608   0.543   1.286
 6319TIP3    H218922   4.564   0.659   1.372
 6320TIP3   OH218923   2.670   3.825   3.582
 6320TIP3    H118924   2.657   3.762   3.512
 6320TIP3    H218925   2.696   3.773   3.658
 6321TIP3   OH218926   2.239   1.588   1.185
 6321TIP3    H118927   2.289   1.633   1.117
 6321TIP3    H218928   2.273   1.499   1.184
 6322TIP3   OH218929   6.537   5.060   1.376
 6322TIP3    H118930   6.493   5.144   1.389
 6322TIP3    H218931   6.491   5.020   1.303
 6323TIP3   OH218932   6.075   6.553   3.056
 6323TIP3    H118933   6.006   6.565   3.122
 6323TIP3    H218934   6.027   6.533   2.976
 6324TIP3   OH218935   7.145   4.983   5.501
 6324TIP3    H118936   7.118   5.073   5.516
 6324TIP3    H218937   7.214   4.967   5.565
 6325TIP3   OH218938   6.028   6.492   2.056
 6325TIP3    H118939   6.058   6.425   2.116
 6325TIP3    H218940   5.933   6.481   2.053
 6326TIP3   OH218941   6.049   5.377   4.261
 6326TIP3    H118942   5.997   5.386   4.181
 6326TIP3    H218943   5.993   5.413   4.330
 6327TIP3   OH218944   1.730   2.829   4.642
 6327TIP3    H118945   1.814   2.816   4.597
 6327TIP3    H218946   1.710   2.743   4.680
 6328TIP3   OH218947   5.737   2.949   2.176
 6328TIP3    H118948   5.798   2.961   2.103
 6328TIP3    H218949   5.720   2.855   2.178
 6329TIP3   OH218950   0.833   0.180   3.852
 6329TIP3    H118951   0.760   0.237   3.877
 6329TIP3    H218952   0.792   0.099   3.823
 6330TIP3   OH218953   5.362   4.002   3.722
 6330TIP3    H118954   5.437   4.060   3.712
 6330TIP3    H218955   5.379   3.955   3.804
 6331TIP3   OH218956   5.409   0.735   2.222
 6331TIP3    H118957   5.346   0.662   2.213
 6331TIP3    H218958   5.400   0.764   2.312
 6332TIP3   OH218959   3.688   3.411   0.743
 6332TIP3    H118960   3.765   3.359   0.764
 6332TIP3    H218961   3.626   3.348   0.706
 6333TIP3   OH218962   5.028   4.659   0.348
 6333TIP3    H118963   4.957   4.648   0.411
 6333TIP3    H218964   4.990   4.632   0.264
 6334TIP3   OH218965   5.095   4.368   0.025
 6334TIP3    H118966   5.031   4.339  -0.041
 6334TIP3    H218967   5.180   4.346  -0.013
 6335TIP3   OH218968   3.897   5.388   5.266
 6335TIP3    H118969   3.917   5.442   5.343
 6335TIP3    H218970   3.871   5.303   5.303
 6336TIP3   OH218971   2.598   0.038   0.873
 6336TIP3    H118972   2.693   0.042   0.868
 6336TIP3    H218973   2.575   0.091   0.950
 6337TIP3   OH218974   0.948   4.739   4.059
 6337TIP3    H118975   0.889   4.707   4.127
 6337TIP3    H218976   1.035   4.711   4.087
 6338TIP3   OH218977   4.365   4.935   2.121
 6338TIP3    H118978   4.292   4.989   2.152
 6338TIP3    H218979   4.334   4.845   2.130
 6339TIP3   OH218980   6.862   3.506   0.833
 6339TIP3    H118981   6.935   3.567   0.819
 6339TIP3    H218982   6.862   3.490   0.928
 6340TIP3   OH218983   7.161   6.188   2.514
 6340TIP3    H118984   7.074   6.229   2.514
 6340TIP3    H218985   7.145   6.096   2.493
 6341TIP3   OH218986   4.034   5.761   5.081
 6341TIP3    H118987   3.972   5.712   5.027
 6341TIP3    H218988   4.050   5.842   5.032
 6342TIP3   OH218989   5.770   4.939   5.103
 6342TIP3    H118990   5.681   4.971   5.086
 6342TIP3    H218991   5.759   4.870   5.167
 6343TIP3   OH218992   1.688   3.012   1.697
 6343TIP3    H118993   1.753   2.942   1.686
 6343TIP3    H218994   1.608   2.966   1.721
 6344TIP3   OH218995   6.776   0.569   2.508
 6344TIP3    H118996   6.695   0.553   2.459
 6344TIP3    H218997   6.751   0.561   2.600
 6345TIP3   OH218998   4.760   1.002   3.515
 6345TIP3    H118999   4.732   0.915   3.485
 6345TIP3    H219000   4.695   1.026   3.582
 6346TIP3   OH219001   6.660   4.827   3.066
 6346TIP3    H119002   6.716   4.815   2.990
 6346TIP3    H219003   6.692   4.906   3.108
 6347TIP3   OH219004   0.611   0.327   3.926
 6347TIP3    H119005   0.536   0.311   3.984
 6347TIP3    H219006   0.571   0.356   3.844
 6348TIP3   OH219007   0.304   3.188   2.986
 6348TIP3    H119008   0.324   3.145   2.903
 6348TIP3    H219009   0.349   3.135   3.052
 6349TIP3   OH219010   6.688   6.767   3.662
 6349TIP3    H119011   6.695   6.835   3.729
 6349TIP3    H219012   6.777   6.737   3.648
 6350TIP3   OH219013   6.888   3.219   0.739
 6350TIP3    H119014   6.819   3.178   0.790
 6350TIP3    H219015   6.885   3.312   0.764
 6351TIP3   OH219016   2.074   5.262   2.113
 6351TIP3    H119017   2.066   5.353   2.143
 6351TIP3    H219018   1.986   5.227   2.120
 6352TIP3   OH219019   4.322   1.853   1.674
 6352TIP3    H119020   4.361   1.906   1.743
 6352TIP3    H219021   4.266   1.914   1.626
 6353TIP3   OH219022   4.376   2.631   1.943
 6353TIP3    H119023   4.326   2.594   2.015
 6353TIP3    H219024   4.310   2.660   1.879
 6354TIP3   OH219025   3.650   2.473   5.769
 6354TIP3    H119026   3.669   2.565   5.748
 6354TIP3    H219027   3.715   2.451   5.836
 6355TIP3   OH219028   5.631   5.113   3.043
 6355TIP3    H119029   5.683   5.065   2.978
 6355TIP3    H219030   5.561   5.053   3.068
 6356TIP3   OH219031   0.262   6.362   2.663
 6356TIP3    H119032   0.345   6.398   2.692
 6356TIP3    H219033   0.266   6.270   2.688
 6357TIP3   OH219034   3.431   0.901   2.840
 6357TIP3    H119035   3.456   0.964   2.772
 6357TIP3    H219036   3.509   0.846   2.850
 6358TIP3   OH219037   3.406   4.341   2.841
 6358TIP3    H119038   3.333   4.321   2.782
 6358TIP3    H219039   3.484   4.310   2.796
 6359TIP3   OH219040   0.880   1.076   3.696
 6359TIP3    H119041   0.910   1.088   3.606
 6359TIP3    H219042   0.961   1.071   3.747
 6360TIP3   OH219043   6.767   2.563   2.839
 6360TIP3    H119044   6.824   2.616   2.784
 6360TIP3    H219045   6.684   2.558   2.791
 6361TIP3   OH219046   0.618   4.050   1.341
 6361TIP3    H119047   0.526   4.076   1.338
 6361TIP3    H219048   0.631   4.020   1.431
 6362TIP3   OH219049   0.495   0.569   5.288
 6362TIP3    H119050   0.407   0.555   5.323
 6362TIP3    H219051   0.487   0.544   5.196
 6363TIP3   OH219052   5.299   3.920   2.980
 6363TIP3    H119053   5.287   4.013   3.001
 6363TIP3    H219054   5.389   3.901   3.008
 6364TIP3   OH219055   4.137   2.967   1.207
 6364TIP3    H119056   4.157   3.055   1.173
 6364TIP3    H219057   4.166   2.908   1.138
 6365TIP3   OH219058   6.130   6.267   1.761
 6365TIP3    H119059   6.056   6.249   1.820
 6365TIP3    H219060   6.116   6.356   1.730
 6366TIP3   OH219061   6.132   0.221   5.694
 6366TIP3    H119062   6.190   0.147   5.714
 6366TIP3    H219063   6.177   0.268   5.624
 6367TIP3   OH219064   6.992   5.391   4.131
 6367TIP3    H119065   7.064   5.333   4.107
 6367TIP3    H219066   7.027   5.479   4.119
 6368TIP3   OH219067   0.860   0.700   3.983
 6368TIP3    H119068   0.887   0.615   4.016
 6368TIP3    H219069   0.864   0.692   3.888
 6369TIP3   OH219070   1.593   3.678   3.592
 6369TIP3    H119071   1.514   3.728   3.611
 6369TIP3    H219072   1.581   3.596   3.640
 6370TIP3   OH219073   6.580   3.975   1.741
 6370TIP3    H119074   6.572   4.070   1.747
 6370TIP3    H219075   6.562   3.955   1.649
 6371TIP3   OH219076   6.446   3.081   0.477
 6371TIP3    H119077   6.494   3.058   0.556
 6371TIP3    H219078   6.404   2.999   0.450
 6372TIP3   OH219079   6.667   3.032   3.948
 6372TIP3    H119080   6.672   2.994   4.037
 6372TIP3    H219081   6.583   3.076   3.945
 6373TIP3   OH219082   2.869   2.656   0.196
 6373TIP3    H119083   2.892   2.749   0.193
 6373TIP3    H219084   2.929   2.617   0.259
 6374TIP3   OH219085   7.023   1.517   3.990
 6374TIP3    H119086   7.084   1.471   3.932
 6374TIP3    H219087   7.009   1.457   4.063
 6375TIP3   OH219088   0.174   3.434   2.903
 6375TIP3    H119089   0.241   3.494   2.934
 6375TIP3    H219090   0.216   3.348   2.903
 6376TIP3   OH219091   5.891   2.590   4.456
 6376TIP3    H119092   5.868   2.581   4.364
 6376TIP3    H219093   5.807   2.595   4.501
 6377TIP3   OH219094   4.039   2.331   1.736
 6377TIP3    H119095   4.035   2.367   1.825
 6377TIP3    H219096   4.122   2.363   1.701
 6378TIP3   OH219097   5.370   0.393   1.498
 6378TIP3    H119098   5.428   0.442   1.558
 6378TIP3    H219099   5.300   0.454   1.478
 6379TIP3   OH219100   4.665   5.037   1.448
 6379TIP3    H119101   4.703   5.122   1.426
 6379TIP3    H219102   4.730   4.995   1.504
 6380TIP3   OH219103   0.858   0.491   2.403
 6380TIP3    H119104   0.942   0.528   2.377
 6380TIP3    H219105   0.794   0.560   2.381
 6381TIP3   OH219106   7.012   5.922   2.455
 6381TIP3    H119107   6.972   5.924   2.542
 6381TIP3    H219108   7.090   5.867   2.465
 6382TIP3   OH219109   5.899   6.052   2.700
 6382TIP3    H119110   5.815   6.066   2.656
 6382TIP3    H219111   5.875   6.026   2.789
 6383TIP3   OH219112   6.761   0.434   4.432
 6383TIP3    H119113   6.773   0.345   4.466
 6383TIP3    H219114   6.780   0.491   4.506
 6384TIP3   OH219115   0.757   3.160   2.754
 6384TIP3    H119116   0.713   3.241   2.729
 6384TIP3    H219117   0.850   3.184   2.758
 6385TIP3   OH219118   4.434   0.385   3.840
 6385TIP3    H119119   4.398   0.305   3.877
 6385TIP3    H219120   4.411   0.453   3.903
 6386TIP3   OH219121   5.376   5.720   0.403
 6386TIP3    H119122   5.403   5.675   0.483
 6386TIP3    H219123   5.455   5.724   0.349
 6387TIP3   OH219124   5.294   6.002   1.891
 6387TIP3    H119125   5.264   6.042   1.972
 6387TIP3    H219126   5.220   6.010   1.830
 6388TIP3   OH219127   4.865   1.944   2.886
 6388TIP3    H119128   4.869   1.877   2.818
 6388TIP3    H219129   4.786   1.995   2.867
 6389TIP3   OH219130   0.129   4.338   4.328
 6389TIP3    H119131   0.208   4.350   4.380
 6389TIP3    H219132   0.149   4.265   4.269
 6390TIP3   OH219133   2.409   4.895   0.513
 6390TIP3    H119134   2.445   4.969   0.464
 6390TIP3    H219135   2.421   4.919   0.605
 6391TIP3   OH219136   2.678   2.117   2.801
 6391TIP3    H119137   2.774   2.119   2.803
 6391TIP3    H219138   2.653   2.209   2.801
 6392TIP3   OH219139   4.381   2.087   4.490
 6392TIP3    H119140   4.328   2.066   4.412
 6392TIP3    H219141   4.383   2.182   4.493
 6393TIP3   OH219142   3.120   5.954   3.751
 6393TIP3    H119143   3.209   5.949   3.786
 6393TIP3    H219144   3.123   5.903   3.670
 6394TIP3   OH219145   1.375   5.839   0.859
 6394TIP3    H119146   1.294   5.802   0.825
 6394TIP3    H219147   1.435   5.764   0.865
 6395TIP3   OH219148   2.179   3.330   4.364
 6395TIP3    H119149   2.229   3.384   4.302
 6395TIP3    H219150   2.132   3.394   4.418
 6396TIP3   OH219151   6.726   3.821   3.090
 6396TIP3    H119152   6.705   3.844   3.181
 6396TIP3    H219153   6.671   3.744   3.072
 6397TIP3   OH219154   2.195   4.967   1.282
 6397TIP3    H119155   2.132   5.014   1.337
 6397TIP3    H219156   2.244   4.912   1.344
 6398TIP3   OH219157   4.736   2.462   4.682
 6398TIP3    H119158   4.770   2.373   4.674
 6398TIP3    H219159   4.756   2.487   4.772
 6399TIP3   OH219160   3.993   0.250   2.726
 6399TIP3    H119161   3.916   0.292   2.686
 6399TIP3    H219162   3.963   0.222   2.812
 6400TIP3   OH219163   0.413   0.300   1.376
 6400TIP3    H119164   0.429   0.369   1.441
 6400TIP3    H219165   0.318   0.295   1.369
 6401TIP3   OH219166   3.831   2.729   4.925
 6401TIP3    H119167   3.741   2.729   4.957
 6401TIP3    H219168   3.823   2.747   4.831
 6402TIP3   OH219169   0.292   5.311   0.888
 6402TIP3    H119170   0.311   5.242   0.825
 6402TIP3    H219171   0.379   5.342   0.916
 6403TIP3   OH219172   5.406   4.101   2.386
 6403TIP3    H119173   5.376   4.096   2.477
 6403TIP3    H219174   5.421   4.010   2.361
 6404TIP3   OH219175   6.576   2.062   2.342
 6404TIP3    H119176   6.671   2.057   2.327
 6404TIP3    H219177   6.563   2.146   2.386
 6405TIP3   OH219178   0.909   6.778   4.000
 6405TIP3    H119179   0.853   6.744   4.070
 6405TIP3    H219180   0.854   6.843   3.955
 6406TIP3   OH219181   1.597   1.031   4.295
 6406TIP3    H119182   1.652   1.106   4.273
 6406TIP3    H219183   1.628   1.002   4.381
 6407TIP3   OH219184   4.481   3.202   3.696
 6407TIP3    H119185   4.440   3.280   3.659
 6407TIP3    H219186   4.500   3.146   3.620
 6408TIP3   OH219187   4.539   0.506   0.526
 6408TIP3    H119188   4.604   0.544   0.468
 6408TIP3    H219189   4.458   0.552   0.505
 6409TIP3   OH219190   2.759   1.056   0.248
 6409TIP3    H119191   2.789   1.054   0.157
 6409TIP3    H219192   2.831   1.095   0.297
 6410TIP3   OH219193   3.923   2.329   3.138
 6410TIP3    H119194   3.928   2.279   3.056
 6410TIP3    H219195   3.830   2.326   3.162
 6411TIP3   OH219196   0.734   0.829   3.707
 6411TIP3    H119197   0.786   0.748   3.711
 6411TIP3    H219198   0.795   0.898   3.733
 6412TIP3   OH219199   0.042   6.388   3.018
 6412TIP3    H119200   0.075   6.326   3.083
 6412TIP3    H219201   0.022   6.335   2.941
 6413TIP3   OH219202   3.881   3.079   1.102
 6413TIP3    H119203   3.889   3.149   1.167
 6413TIP3    H219204   3.942   3.012   1.131
 6414TIP3   OH219205   5.985   5.520   3.220
 6414TIP3    H119206   5.915   5.510   3.156
 6414TIP3    H219207   6.055   5.462   3.189
 6415TIP3   OH219208   3.510   2.250   2.937
 6415TIP3    H119209   3.491   2.157   2.950
 6415TIP3    H219210   3.545   2.255   2.848
 6416TIP3   OH219211   1.518   6.389   5.652
 6416TIP3    H119212   1.586   6.372   5.716
 6416TIP3    H219213   1.565   6.423   5.576
 6417TIP3   OH219214   1.986   1.478   3.924
 6417TIP3    H119215   2.035   1.405   3.886
 6417TIP3    H219216   1.900   1.441   3.945
 6418TIP3   OH219217   2.058   0.941   0.338
 6418TIP3    H119218   1.974   0.984   0.324
 6418TIP3    H219219   2.105   0.999   0.398
 6419TIP3   OH219220   5.113   5.655   0.502
 6419TIP3    H119221   5.087   5.593   0.435
 6419TIP3    H219222   5.170   5.717   0.457
 6420TIP3   OH219223   2.014   3.504   0.789
 6420TIP3    H119224   1.989   3.552   0.710
 6420TIP3    H219225   1.934   3.460   0.817
 6421TIP3   OH219226   2.055   0.310   2.388
 6421TIP3    H119227   2.024   0.389   2.345
 6421TIP3    H219228   2.021   0.238   2.334
 6422TIP3   OH219229   4.612   6.354   2.450
 6422TIP3    H119230   4.627   6.445   2.474
 6422TIP3    H219231   4.519   6.340   2.466
 6423TIP3   OH219232   5.666   4.056   0.765
 6423TIP3    H119233   5.743   4.007   0.735
 6423TIP3    H219234   5.606   4.055   0.690
 6424TIP3   OH219235   7.150   1.935   5.347
 6424TIP3    H119236   7.191   1.907   5.429
 6424TIP3    H219237   7.115   2.022   5.366
 6425TIP3   OH219238   3.924   2.503   5.118
 6425TIP3    H119239   3.844   2.454   5.134
 6425TIP3    H219240   3.906   2.551   5.037
 6426TIP3   OH219241   1.993   3.618   5.296
 6426TIP3    H119242   2.000   3.654   5.384
 6426TIP3    H219243   1.941   3.538   5.306
 6427TIP3   OH219244   5.385   1.393   3.840
 6427TIP3    H119245   5.334   1.320   3.805
 6427TIP3    H219246   5.439   1.354   3.909
 6428TIP3   OH219247   3.243   3.306   1.534
 6428TIP3    H119248   3.338   3.307   1.529
 6428TIP3    H219249   3.223   3.306   1.628
 6429TIP3   OH219250   3.019   3.621   2.587
 6429TIP3    H119251   2.955   3.552   2.565
 6429TIP3    H219252   3.019   3.623   2.683
 6430TIP3   OH219253   6.267   0.606   3.473
 6430TIP3    H119254   6.172   0.592   3.477
 6430TIP3    H219255   6.301   0.526   3.432
 6431TIP3   OH219256   6.517   0.088   2.725
 6431TIP3    H119257   6.486   0.013   2.776
 6431TIP3    H219258   6.514   0.162   2.786
 6432TIP3   OH219259   5.750   1.915   5.297
 6432TIP3    H119260   5.664   1.875   5.286
 6432TIP3    H219261   5.807   1.843   5.323
 6433TIP3   OH219262   3.191   1.667   1.460
 6433TIP3    H119263   3.219   1.704   1.377
 6433TIP3    H219264   3.103   1.633   1.443
 6434TIP3   OH219265   6.511   0.479   0.362
 6434TIP3    H119266   6.513   0.406   0.300
 6434TIP3    H219267   6.419   0.500   0.373
 6435TIP3   OH219268   2.703   2.664   1.652
 6435TIP3    H119269   2.662   2.581   1.630
 6435TIP3    H219270   2.745   2.649   1.737
 6436TIP3   OH219271   4.567   0.146   4.105
 6436TIP3    H119272   4.614   0.216   4.059
 6436TIP3    H219273   4.479   0.148   4.067
 6437TIP3   OH219274   6.820   3.514   0.399
 6437TIP3    H119275   6.841   3.423   0.378
 6437TIP3    H219276   6.765   3.508   0.477
 6438TIP3   OH219277   6.629   4.039   1.124
 6438TIP3    H119278   6.552   4.070   1.171
 6438TIP3    H219279   6.621   4.076   1.036
 6439TIP3   OH219280   0.993   1.335   5.744
 6439TIP3    H119281   0.902   1.307   5.742
 6439TIP3    H219282   0.992   1.425   5.711
 6440TIP3   OH219283   3.324   1.879   1.835
 6440TIP3    H119284   3.284   1.854   1.752
 6440TIP3    H219285   3.253   1.923   1.883
 6441TIP3   OH219286   6.851   0.268   5.109
 6441TIP3    H119287   6.761   0.262   5.141
 6441TIP3    H219288   6.843   0.282   5.015
 6442TIP3   OH219289   1.299   3.147   0.267
 6442TIP3    H119290   1.353   3.147   0.188
 6442TIP3    H219291   1.212   3.121   0.237
 6443TIP3   OH219292   0.523   4.861   2.641
 6443TIP3    H119293   0.452   4.874   2.704
 6443TIP3    H219294   0.563   4.778   2.666
 6444TIP3   OH219295   6.161   3.602   3.406
 6444TIP3    H119296   6.153   3.550   3.326
 6444TIP3    H219297   6.201   3.542   3.470
 6445TIP3   OH219298   2.312   3.331   0.272
 6445TIP3    H119299   2.381   3.286   0.224
 6445TIP3    H219300   2.236   3.272   0.266
 6446TIP3   OH219301   6.319   2.370   0.473
 6446TIP3    H119302   6.320   2.363   0.377
 6446TIP3    H219303   6.409   2.393   0.496
 6447TIP3   OH219304   4.330   5.391   5.213
 6447TIP3    H119305   4.288   5.350   5.290
 6447TIP3    H219306   4.329   5.323   5.146
 6448TIP3   OH219307   5.353   1.187   5.073
 6448TIP3    H119308   5.345   1.096   5.101
 6448TIP3    H219309   5.435   1.189   5.023
 6449TIP3   OH219310   6.175   6.380   5.399
 6449TIP3    H119311   6.190   6.286   5.384
 6449TIP3    H219312   6.262   6.417   5.412
 6450TIP3   OH219313   1.507   2.159   1.820
 6450TIP3    H119314   1.435   2.106   1.855
 6450TIP3    H219315   1.466   2.242   1.796
 6451TIP3   OH219316   2.195   5.951   0.511
 6451TIP3    H119317   2.136   5.903   0.452
 6451TIP3    H219318   2.282   5.917   0.492
 6452TIP3   OH219319   1.728   6.380   4.675
 6452TIP3    H119320   1.670   6.445   4.637
 6452TIP3    H219321   1.776   6.344   4.600
 6453TIP3   OH219322   2.333   5.927   1.525
 6453TIP3    H119323   2.317   5.988   1.453
 6453TIP3    H219324   2.425   5.940   1.548
 6454TIP3   OH219325   5.518   3.294   2.627
 6454TIP3    H119326   5.481   3.362   2.683
 6454TIP3    H219327   5.599   3.268   2.672
 6455TIP3   OH219328   6.407   5.307   1.368
 6455TIP3    H119329   6.398   5.356   1.286
 6455TIP3    H219330   6.440   5.370   1.431
 6456TIP3   OH219331   3.816   0.124   1.451
 6456TIP3    H119332   3.746   0.090   1.506
 6456TIP3    H219333   3.895   0.117   1.504
 6457TIP3   OH219334   0.851   6.021   3.510
 6457TIP3    H119335   0.790   5.966   3.461
 6457TIP3    H219336   0.796   6.066   3.575
 6458TIP3   OH219337   1.904   0.112   1.795
 6458TIP3    H119338   1.834   0.171   1.824
 6458TIP3    H219339   1.944   0.081   1.877
 6459TIP3   OH219340   4.188   4.425   2.564
 6459TIP3    H119341   4.156   4.348   2.610
 6459TIP3    H219342   4.258   4.393   2.508
 6460TIP3   OH219343   5.474   2.339   3.556
 6460TIP3    H119344   5.476   2.243   3.563
 6460TIP3    H219345   5.420   2.356   3.478
 6461TIP3   OH219346   3.077   5.250   0.160
 6461TIP3    H119347   3.054   5.242   0.068
 6461TIP3    H219348   3.056   5.341   0.182
 6462TIP3   OH219349   2.500   4.127   1.255
 6462TIP3    H119350   2.568   4.069   1.289
 6462TIP3    H219351   2.470   4.085   1.175
 6463TIP3   OH219352   6.080   2.082   4.403
 6463TIP3    H119353   6.057   2.175   4.397
 6463TIP3    H219354   6.065   2.059   4.495
 6464TIP3   OH219355   3.052   2.339   0.066
 6464TIP3    H119356   3.002   2.396   0.007
 6464TIP3    H219357   3.074   2.263   0.012
 6465TIP3   OH219358   7.006   6.416   3.186
 6465TIP3    H119359   6.956   6.437   3.108
 6465TIP3    H219360   7.094   6.449   3.167
 6466TIP3   OH219361   1.017   3.213   1.444
 6466TIP3    H119362   0.977   3.248   1.365
 6466TIP3    H219363   1.036   3.289   1.498
 6467TIP3   OH219364   5.518   3.996   4.915
 6467TIP3    H119365   5.588   4.012   4.852
 6467TIP3    H219366   5.564   3.984   4.998
 6468TIP3   OH219367   4.911   0.773   3.848
 6468TIP3    H119368   4.994   0.791   3.805
 6468TIP3    H219369   4.892   0.853   3.897
 6469TIP3   OH219370   6.523   6.023   2.456
 6469TIP3    H119371   6.584   6.037   2.528
 6469TIP3    H219372   6.551   5.940   2.416
 6470TIP3   OH219373   5.647   0.798   2.661
 6470TIP3    H119374   5.641   0.879   2.711
 6470TIP3    H219375   5.613   0.731   2.721
 6471TIP3   OH219376   6.526   2.281   5.654
 6471TIP3    H119377   6.474   2.317   5.726
 6471TIP3    H219378   6.509   2.340   5.581
 6472TIP3   OH219379   3.358   0.164   2.581
 6472TIP3    H119380   3.346   0.209   2.497
 6472TIP3    H219381   3.326   0.226   2.646
 6473TIP3   OH219382   4.535   1.796   1.503
 6473TIP3    H119383   4.621   1.815   1.539
 6473TIP3    H219384   4.475   1.807   1.577
 6474TIP3   OH219385   1.476   3.457   3.213
 6474TIP3    H119386   1.562   3.493   3.231
 6474TIP3    H219387   1.481   3.427   3.122
 6475TIP3   OH219388   2.755   6.220   1.378
 6475TIP3    H119389   2.731   6.307   1.410
 6475TIP3    H219390   2.725   6.219   1.287
 6476TIP3   OH219391   0.867   0.479   0.582
 6476TIP3    H119392   0.826   0.565   0.593
 6476TIP3    H219393   0.825   0.424   0.649
 6477TIP3   OH219394   5.308   1.950   1.280
 6477TIP3    H119395   5.312   2.029   1.226
 6477TIP3    H219396   5.230   1.904   1.249
 6478TIP3   OH219397   0.539   3.566   0.794
 6478TIP3    H119398   0.583   3.649   0.810
 6478TIP3    H219399   0.542   3.519   0.877
 6479TIP3   OH219400   2.281   5.264   0.165
 6479TIP3    H119401   2.257   5.266   0.072
 6479TIP3    H219402   2.197   5.257   0.211
 6480TIP3   OH219403   0.312   1.908   0.289
 6480TIP3    H119404   0.280   1.820   0.309
 6480TIP3    H219405   0.328   1.908   0.195
 6481TIP3   OH219406   5.859   5.390   4.061
 6481TIP3    H119407   5.870   5.362   3.970
 6481TIP3    H219408   5.816   5.475   4.055
 6482TIP3   OH219409   4.117   2.172   2.616
 6482TIP3    H119410   4.078   2.220   2.689
 6482TIP3    H219411   4.101   2.227   2.539
 6483TIP3   OH219412   4.571   2.006   3.803
 6483TIP3    H119413   4.571   1.910   3.801
 6483TIP3    H219414   4.563   2.029   3.895
 6484TIP3   OH219415   3.118   0.063   3.456
 6484TIP3    H119416   3.169   0.049   3.536
 6484TIP3    H219417   3.032   0.026   3.476
 6485TIP3   OH219418   1.677   1.492   3.707
 6485TIP3    H119419   1.710   1.433   3.774
 6485TIP3    H219420   1.748   1.499   3.643
 6486TIP3   OH219421   6.460   6.679   3.503
 6486TIP3    H119422   6.429   6.644   3.587
 6486TIP3    H219423   6.547   6.714   3.523
 6487TIP3   OH219424   3.824   1.721   5.382
 6487TIP3    H119425   3.875   1.668   5.320
 6487TIP3    H219426   3.861   1.809   5.373
 6488TIP3   OH219427   0.265   6.490   0.380
 6488TIP3    H119428   0.293   6.570   0.426
 6488TIP3    H219429   0.318   6.489   0.300
 6489TIP3   OH219430   4.908   6.710   3.946
 6489TIP3    H119431   4.943   6.623   3.925
 6489TIP3    H219432   4.970   6.746   4.009
 6490TIP3   OH219433   0.885   0.033   2.773
 6490TIP3    H119434   0.967   0.077   2.796
 6490TIP3    H219435   0.819   0.103   2.773
 6491TIP3   OH219436   4.414   0.044   2.606
 6491TIP3    H119437   4.480   0.049   2.675
 6491TIP3    H219438   4.464   0.029   2.526
 6492TIP3   OH219439   6.790   5.782   5.231
 6492TIP3    H119440   6.804   5.740   5.316
 6492TIP3    H219441   6.696   5.804   5.230
 6493TIP3   OH219442   4.680   1.523   1.380
 6493TIP3    H119443   4.680   1.619   1.374
 6493TIP3    H219444   4.726   1.495   1.301
 6494TIP3   OH219445   4.249   6.380   2.674
 6494TIP3    H119446   4.255   6.375   2.579
 6494TIP3    H219447   4.328   6.428   2.700
 6495TIP3   OH219448   6.155   2.516   3.227
 6495TIP3    H119449   6.139   2.428   3.193
 6495TIP3    H219450   6.233   2.508   3.282
 6496TIP3   OH219451   0.969   4.275   3.737
 6496TIP3    H119452   0.994   4.218   3.810
 6496TIP3    H219453   0.974   4.364   3.774
 6497TIP3   OH219454   0.142   2.204   3.622
 6497TIP3    H119455   0.218   2.147   3.608
 6497TIP3    H219456   0.146   2.266   3.549
 6498TIP3   OH219457   0.756   5.247   1.752
 6498TIP3    H119458   0.846   5.251   1.784
 6498TIP3    H219459   0.713   5.183   1.809
 6499TIP3   OH219460   4.223   6.649   5.095
 6499TIP3    H119461   4.192   6.735   5.067
 6499TIP3    H219462   4.162   6.587   5.054
 6500TIP3   OH219463   5.296   0.293   5.356
 6500TIP3    H119464   5.220   0.236   5.350
 6500TIP3    H219465   5.345   0.276   5.274
 6501TIP3   OH219466   4.900   6.061   4.911
 6501TIP3    H119467   4.850   5.980   4.897
 6501TIP3    H219468   4.834   6.125   4.936
 6502TIP3   OH219469   6.843   4.543   4.030
 6502TIP3    H119470   6.830   4.577   4.118
 6502TIP3    H219471   6.802   4.608   3.973
 6503TIP3   OH219472   4.296   2.205   1.318
 6503TIP3    H119473   4.355   2.171   1.251
 6503TIP3    H219474   4.350   2.263   1.371
 6504TIP3   OH219475   3.174   0.837   2.901
 6504TIP3    H119476   3.145   0.795   2.821
 6504TIP3    H219477   3.259   0.876   2.879
 6505TIP3   OH219478   2.678   1.799   1.322
 6505TIP3    H119479   2.602   1.777   1.377
 6505TIP3    H219480   2.696   1.718   1.274
 6506TIP3   OH219481   2.756   6.230   1.903
 6506TIP3    H119482   2.834   6.214   1.955
 6506TIP3    H219483   2.773   6.185   1.820
 6507TIP3   OH219484   3.425   2.646   1.975
 6507TIP3    H119485   3.437   2.716   1.911
 6507TIP3    H219486   3.469   2.570   1.936
 6508TIP3   OH219487   6.443   1.058   4.863
 6508TIP3    H119488   6.465   1.059   4.956
 6508TIP3    H219489   6.419   1.149   4.844
 6509TIP3   OH219490   6.167   5.631   3.401
 6509TIP3    H119491   6.091   5.591   3.358
 6509TIP3    H219492   6.131   5.669   3.482
 6510TIP3   OH219493   2.914   3.540   1.243
 6510TIP3    H119494   2.846   3.592   1.285
 6510TIP3    H219495   2.967   3.507   1.316
 6511TIP3   OH219496   3.420   3.678   5.844
 6511TIP3    H119497   3.505   3.716   5.824
 6511TIP3    H219498   3.360   3.753   5.846
 6512TIP3   OH219499   4.668   3.308   3.918
 6512TIP3    H119500   4.589   3.362   3.922
 6512TIP3    H219501   4.636   3.218   3.918
 6513TIP3   OH219502   0.347   6.079   3.970
 6513TIP3    H119503   0.430   6.057   4.013
 6513TIP3    H219504   0.353   6.037   3.884
 6514TIP3   OH219505   2.569   3.127   5.619
 6514TIP3    H119506   2.662   3.105   5.615
 6514TIP3    H219507   2.562   3.213   5.577
 6515TIP3   OH219508   7.033   3.865   3.616
 6515TIP3    H119509   7.072   3.786   3.654
 6515TIP3    H219510   6.941   3.844   3.605
 6516TIP3   OH219511   4.824   4.707   5.716
 6516TIP3    H119512   4.789   4.733   5.801
 6516TIP3    H219513   4.860   4.619   5.731
 6517TIP3   OH219514   4.791   3.801   4.901
 6517TIP3    H119515   4.841   3.723   4.926
 6517TIP3    H219516   4.858   3.869   4.887
 6518TIP3   OH219517   4.311   1.446   1.306
 6518TIP3    H119518   4.350   1.486   1.384
 6518TIP3    H219519   4.319   1.513   1.238
 6519TIP3   OH219520   1.069   0.146   1.958
 6519TIP3    H119521   1.084   0.085   2.030
 6519TIP3    H219522   1.055   0.231   2.000
 6520TIP3   OH219523   6.405   0.842   3.353
 6520TIP3    H119524   6.330   0.854   3.295
 6520TIP3    H219525   6.389   0.758   3.396
 6521TIP3   OH219526   5.431   0.458   3.031
 6521TIP3    H119527   5.345   0.489   3.058
 6521TIP3    H219528   5.474   0.433   3.114
 6522TIP3   OH219529   0.898   5.215   4.774
 6522TIP3    H119530   0.891   5.155   4.848
 6522TIP3    H219531   0.920   5.159   4.699
 6523TIP3   OH219532   1.717   0.120   5.725
 6523TIP3    H119533   1.645   0.143   5.783
 6523TIP3    H219534   1.713   0.024   5.718
 6524TIP3   OH219535   7.221   4.770   4.271
 6524TIP3    H119536   7.242   4.790   4.180
 6524TIP3    H219537   7.199   4.855   4.309
 6525TIP3   OH219538   6.850   3.571   3.364
 6525TIP3    H119539   6.801   3.653   3.354
 6525TIP3    H219540   6.832   3.543   3.454
 6526TIP3   OH219541   7.004   0.465   3.839
 6526TIP3    H119542   7.033   0.556   3.833
 6526TIP3    H219543   6.908   0.469   3.832
 6527TIP3   OH219544   5.011   6.087   5.512
 6527TIP3    H119545   4.929   6.099   5.559
 6527TIP3    H219546   5.021   5.993   5.502
 6528TIP3   OH219547   1.949   6.174   4.795
 6528TIP3    H119548   1.871   6.162   4.849
 6528TIP3    H219549   1.989   6.087   4.792
 6529TIP3   OH219550   1.899   4.762   3.850
 6529TIP3    H119551   1.858   4.677   3.868
 6529TIP3    H219552   1.898   4.768   3.754
 6530TIP3   OH219553   6.444   6.334   4.300
 6530TIP3    H119554   6.402   6.420   4.298
 6530TIP3    H219555   6.380   6.275   4.262
 6531TIP3   OH219556   0.515   4.129   2.882
 6531TIP3    H119557   0.526   4.179   2.963
 6531TIP3    H219558   0.603   4.124   2.845
 6532TIP3   OH219559   1.312   0.997   1.227
 6532TIP3    H119560   1.343   1.075   1.272
 6532TIP3    H219561   1.391   0.957   1.190
 6533TIP3   OH219562   7.114   3.722   1.183
 6533TIP3    H119563   7.067   3.733   1.266
 6533TIP3    H219564   7.123   3.810   1.148
 6534TIP3   OH219565   0.444   1.017   4.714
 6534TIP3    H119566   0.373   0.967   4.674
 6534TIP3    H219567   0.414   1.033   4.803
 6535TIP3   OH219568   3.193   3.130   2.625
 6535TIP3    H119569   3.205   3.163   2.536
 6535TIP3    H219570   3.117   3.178   2.658
 6536TIP3   OH219571   5.775   3.443   0.919
 6536TIP3    H119572   5.701   3.498   0.892
 6536TIP3    H219573   5.742   3.394   0.994
 6537TIP3   OH219574   4.939   1.774   3.765
 6537TIP3    H119575   4.936   1.687   3.727
 6537TIP3    H219576   4.912   1.762   3.856
 6538TIP3   OH219577   6.796   1.264   1.240
 6538TIP3    H119578   6.734   1.211   1.189
 6538TIP3    H219579   6.802   1.346   1.191
 6539TIP3   OH219580   5.716   2.243   0.157
 6539TIP3    H119581   5.800   2.276   0.190
 6539TIP3    H219582   5.739   2.167   0.104
 6540TIP3   OH219583   4.679   0.658   3.740
 6540TIP3    H119584   4.643   0.715   3.672
 6540TIP3    H219585   4.765   0.695   3.759
 6541TIP3   OH219586   2.831   0.073   2.599
 6541TIP3    H119587   2.897   0.015   2.562
 6541TIP3    H219588   2.831   0.052   2.692
 6542TIP3   OH219589   2.491   2.527   1.867
 6542TIP3    H119590   2.521   2.494   1.783
 6542TIP3    H219591   2.470   2.619   1.851
 6543TIP3   OH219592   3.059   2.815   2.399
 6543TIP3    H119593   3.061   2.907   2.374
 6543TIP3    H219594   3.101   2.769   2.326
 6544TIP3   OH219595   1.097   2.699   5.014
 6544TIP3    H119596   1.043   2.686   4.936
 6544TIP3    H219597   1.060   2.776   5.057
 6545TIP3   OH219598   6.926   3.395   2.902
 6545TIP3    H119599   7.020   3.402   2.889
 6545TIP3    H219600   6.903   3.468   2.959
 6546TIP3   OH219601   6.481   3.801   1.931
 6546TIP3    H119602   6.515   3.876   1.883
 6546TIP3    H219603   6.556   3.769   1.981
 6547TIP3   OH219604   4.009   4.013   5.663
 6547TIP3    H119605   4.014   3.992   5.756
 6547TIP3    H219606   4.015   4.108   5.659
 6548TIP3   OH219607   1.467   3.800   1.694
 6548TIP3    H119608   1.493   3.722   1.645
 6548TIP3    H219609   1.457   3.868   1.627
 6549TIP3   OH219610   0.429   0.256   5.735
 6549TIP3    H119611   0.443   0.173   5.689
 6549TIP3    H219612   0.517   0.291   5.747
 6550TIP3   OH219613   3.372   3.685   4.007
 6550TIP3    H119614   3.324   3.768   4.005
 6550TIP3    H219615   3.424   3.685   3.927
 6551TIP3   OH219616   1.764   0.099   1.224
 6551TIP3    H119617   1.761   0.137   1.312
 6551TIP3    H219618   1.763   0.005   1.238
 6552TIP3   OH219619   7.116   1.235   1.997
 6552TIP3    H119620   7.084   1.267   1.913
 6552TIP3    H219621   7.077   1.294   2.062
 6553TIP3   OH219622   0.115   5.689   0.024
 6553TIP3    H119623   0.159   5.681   0.109
 6553TIP3    H219624   0.035   5.739   0.043
 6554TIP3   OH219625   2.675   6.756   0.044
 6554TIP3    H119626   2.581   6.744   0.028
 6554TIP3    H219627   2.685   6.850   0.058
 6555TIP3   OH219628   5.105   4.866   1.618
 6555TIP3    H119629   5.092   4.848   1.711
 6555TIP3    H219630   5.187   4.916   1.615
 6556TIP3   OH219631   5.857   4.795   5.343
 6556TIP3    H119632   5.916   4.853   5.295
 6556TIP3    H219633   5.915   4.736   5.391
 6557TIP3   OH219634   0.882   6.512   4.539
 6557TIP3    H119635   0.810   6.478   4.592
 6557TIP3    H219636   0.848   6.513   4.450
 6558TIP3   OH219637   0.655   6.776   1.155
 6558TIP3    H119638   0.666   6.870   1.170
 6558TIP3    H219639   0.725   6.753   1.094
 6559TIP3   OH219640   1.734   3.100   4.821
 6559TIP3    H119641   1.763   3.107   4.912
 6559TIP3    H219642   1.763   3.013   4.793
 6560TIP3   OH219643   1.501   2.517   1.987
 6560TIP3    H119644   1.418   2.470   1.985
 6560TIP3    H219645   1.490   2.589   1.925
 6561TIP3   OH219646   1.433   6.679   2.026
 6561TIP3    H119647   1.506   6.678   2.089
 6561TIP3    H219648   1.391   6.594   2.037
 6562TIP3   OH219649   2.024   1.803   4.102
 6562TIP3    H119650   2.039   1.895   4.080
 6562TIP3    H219651   2.103   1.777   4.149
 6563TIP3   OH219652   6.243   3.734   0.613
 6563TIP3    H119653   6.236   3.680   0.535
 6563TIP3    H219654   6.162   3.786   0.614
 6564TIP3   OH219655   5.679   3.596   5.295
 6564TIP3    H119656   5.593   3.555   5.295
 6564TIP3    H219657   5.693   3.622   5.387
 6565TIP3   OH219658   1.531   6.297   0.553
 6565TIP3    H119659   1.568   6.250   0.627
 6565TIP3    H219660   1.500   6.228   0.494
 6566TIP3   OH219661   2.453   1.844   5.422
 6566TIP3    H119662   2.501   1.915   5.379
 6566TIP3    H219663   2.484   1.845   5.512
 6567TIP3   OH219664   0.148   0.324   1.318
 6567TIP3    H119665   0.126   0.246   1.369
 6567TIP3    H219666   0.063   0.359   1.289
 6568TIP3   OH219667   3.162   1.543   1.865
 6568TIP3    H119668   3.194   1.598   1.937
 6568TIP3    H219669   3.102   1.482   1.906
 6569TIP3   OH219670   4.054   1.291   3.084
 6569TIP3    H119671   4.147   1.307   3.096
 6569TIP3    H219672   4.035   1.214   3.136
 6570TIP3   OH219673   3.530   6.482   0.834
 6570TIP3    H119674   3.540   6.439   0.920
 6570TIP3    H219675   3.581   6.427   0.774
 6571TIP3   OH219676   1.090   6.519   5.190
 6571TIP3    H119677   1.049   6.453   5.133
 6571TIP3    H219678   1.016   6.570   5.223
 6572TIP3   OH219679   1.499   4.798   2.706
 6572TIP3    H119680   1.530   4.840   2.626
 6572TIP3    H219681   1.406   4.817   2.710
 6573TIP3   OH219682   2.638   5.872   2.019
 6573TIP3    H119683   2.656   5.829   1.936
 6573TIP3    H219684   2.564   5.931   2.001
 6574TIP3   OH219685   6.804   1.843   3.886
 6574TIP3    H119686   6.715   1.837   3.920
 6574TIP3    H219687   6.806   1.927   3.840
 6575TIP3   OH219688   3.894   1.184   0.815
 6575TIP3    H119689   3.930   1.248   0.753
 6575TIP3    H219690   3.802   1.209   0.824
 6576TIP3   OH219691   3.179   1.971   2.447
 6576TIP3    H119692   3.164   2.018   2.365
 6576TIP3    H219693   3.141   2.028   2.514
 6577TIP3   OH219694   2.441   1.942   3.834
 6577TIP3    H119695   2.422   1.951   3.740
 6577TIP3    H219696   2.396   2.016   3.875
 6578TIP3   OH219697   1.858   5.519   5.272
 6578TIP3    H119698   1.778   5.468   5.255
 6578TIP3    H219699   1.928   5.465   5.236
 6579TIP3   OH219700   2.588   1.313   0.279
 6579TIP3    H119701   2.674   1.354   0.274
 6579TIP3    H219702   2.607   1.219   0.276
 6580TIP3   OH219703   2.342   2.456   0.798
 6580TIP3    H119704   2.403   2.388   0.770
 6580TIP3    H219705   2.397   2.529   0.825
 6581TIP3   OH219706   3.071   6.549   1.638
 6581TIP3    H119707   3.006   6.589   1.580
 6581TIP3    H219708   3.087   6.462   1.600
 6582TIP3   OH219709   5.593   1.623   0.757
 6582TIP3    H119710   5.536   1.548   0.775
 6582TIP3    H219711   5.591   1.631   0.661
 6583TIP3   OH219712   4.619   6.720   4.729
 6583TIP3    H119713   4.570   6.668   4.666
 6583TIP3    H219714   4.553   6.751   4.791
 6584TIP3   OH219715   4.682   2.769   0.370
 6584TIP3    H119716   4.672   2.754   0.464
 6584TIP3    H219717   4.592   2.775   0.337
 6585TIP3   OH219718   4.787   0.519   3.240
 6585TIP3    H119719   4.711   0.512   3.183
 6585TIP3    H219720   4.783   0.442   3.296
 6586TIP3   OH219721   2.035   1.250   4.305
 6586TIP3    H119722   1.950   1.257   4.350
 6586TIP3    H219723   2.045   1.333   4.259
 6587TIP3   OH219724   6.912   2.472   5.863
 6587TIP3    H119725   6.981   2.444   5.803
 6587TIP3    H219726   6.860   2.534   5.812
 6588TIP3   OH219727   4.712   1.838   3.362
 6588TIP3    H119728   4.741   1.813   3.275
 6588TIP3    H219729   4.668   1.922   3.350
 6589TIP3   OH219730   3.849   3.027   3.147
 6589TIP3    H119731   3.805   3.028   3.232
 6589TIP3    H219732   3.912   2.955   3.153
 6590TIP3   OH219733   5.353   6.612   1.426
 6590TIP3    H119734   5.298   6.689   1.421
 6590TIP3    H219735   5.295   6.539   1.401
 6591TIP3   OH219736   4.739   0.474   5.757
 6591TIP3    H119737   4.834   0.466   5.761
 6591TIP3    H219738   4.714   0.502   5.845
 6592TIP3   OH219739   2.828   6.301   5.144
 6592TIP3    H119740   2.873   6.325   5.225
 6592TIP3    H219741   2.760   6.239   5.171
 6593TIP3   OH219742   4.427   3.652   0.868
 6593TIP3    H119743   4.472   3.571   0.842
 6593TIP3    H219744   4.485   3.692   0.932
 6594TIP3   OH219745   5.485   4.043   1.217
 6594TIP3    H119746   5.521   4.025   1.130
 6594TIP3    H219747   5.400   3.998   1.217
 6595TIP3   OH219748   0.031   3.754   0.100
 6595TIP3    H119749   0.118   3.790   0.083
 6595TIP3    H219750   0.025   3.678   0.041
 6596TIP3   OH219751   4.877   1.034   1.624
 6596TIP3    H119752   4.849   0.942   1.629
 6596TIP3    H219753   4.829   1.070   1.550
 6597TIP3   OH219754   0.098   1.570   1.320
 6597TIP3    H119755   0.129   1.489   1.278
 6597TIP3    H219756   0.158   1.583   1.393
 6598TIP3   OH219757   6.365   0.379   3.829
 6598TIP3    H119758   6.455   0.411   3.821
 6598TIP3    H219759   6.372   0.301   3.884
 6599TIP3   OH219760   6.370   0.387   2.674
 6599TIP3    H119761   6.417   0.335   2.740
 6599TIP3    H219762   6.280   0.392   2.707
 6600TIP3   OH219763   0.250   0.589   5.408
 6600TIP3    H119764   0.170   0.538   5.420
 6600TIP3    H219765   0.282   0.603   5.497
 6601TIP3   OH219766   6.677   3.846   5.730
 6601TIP3    H119767   6.679   3.919   5.667
 6601TIP3    H219768   6.589   3.809   5.721
 6602TIP3   OH219769   6.047   5.512   2.871
 6602TIP3    H119770   5.970   5.534   2.924
 6602TIP3    H219771   6.078   5.596   2.838
 6603TIP3   OH219772   1.513   2.570   4.477
 6603TIP3    H119773   1.428   2.544   4.513
 6603TIP3    H219774   1.492   2.604   4.390
 6604TIP3   OH219775   5.439   4.120   4.339
 6604TIP3    H119776   5.465   4.121   4.247
 6604TIP3    H219777   5.493   4.188   4.380
 6605TIP3   OH219778   2.475   1.441   4.848
 6605TIP3    H119779   2.491   1.500   4.922
 6605TIP3    H219780   2.380   1.439   4.839
 6606TIP3   OH219781   4.436   2.247   5.271
 6606TIP3    H119782   4.506   2.187   5.298
 6606TIP3    H219783   4.416   2.222   5.181
 6607TIP3   OH219784   2.247   0.944   1.237
 6607TIP3    H119785   2.171   0.888   1.220
 6607TIP3    H219786   2.210   1.032   1.249
 6608TIP3   OH219787   1.947   3.331   1.968
 6608TIP3    H119788   2.023   3.273   1.973
 6608TIP3    H219789   1.873   3.275   1.989
 6609TIP3   OH219790   0.761   5.507   1.061
 6609TIP3    H119791   0.725   5.419   1.047
 6609TIP3    H219792   0.794   5.534   0.976
 6610TIP3   OH219793   0.837   0.960   4.031
 6610TIP3    H119794   0.924   0.999   4.032
 6610TIP3    H219795   0.852   0.871   3.996
 6611TIP3   OH219796   2.785   6.115   1.678
 6611TIP3    H119797   2.830   6.039   1.641
 6611TIP3    H219798   2.722   6.141   1.611
 6612TIP3   OH219799   2.997   1.565   3.239
 6612TIP3    H119800   3.051   1.562   3.160
 6612TIP3    H219801   3.012   1.480   3.282
 6613TIP3   OH219802   2.030   2.752   1.152
 6613TIP3    H119803   1.965   2.822   1.151
 6613TIP3    H219804   2.078   2.763   1.070
 6614TIP3   OH219805   5.093   6.328   4.436
 6614TIP3    H119806   5.006   6.292   4.451
 6614TIP3    H219807   5.143   6.255   4.399
 6615TIP3   OH219808   0.764   0.933   0.614
 6615TIP3    H119809   0.706   0.858   0.624
 6615TIP3    H219810   0.765   0.975   0.701
 6616TIP3   OH219811   7.003   0.053   3.671
 6616TIP3    H119812   6.911   0.062   3.645
 6616TIP3    H219813   7.016  -0.041   3.684
 6617TIP3   OH219814   1.344   3.471   1.536
 6617TIP3    H119815   1.410   3.538   1.519
 6617TIP3    H219816   1.391   3.403   1.584
 6618TIP3   OH219817   3.832   1.568   5.615
 6618TIP3    H119818   3.796   1.601   5.697
 6618TIP3    H219819   3.816   1.638   5.552
 6619TIP3   OH219820   3.953   3.898   0.494
 6619TIP3    H119821   3.947   3.989   0.467
 6619TIP3    H219822   3.939   3.848   0.414
 6620TIP3   OH219823   6.195   0.262   1.683
 6620TIP3    H119824   6.183   0.314   1.762
 6620TIP3    H219825   6.287   0.274   1.660
 6621TIP3   OH219826   4.298   2.843   3.564
 6621TIP3    H119827   4.248   2.923   3.581
 6621TIP3    H219828   4.240   2.791   3.508
 6622TIP3   OH219829   5.082   2.388   3.356
 6622TIP3    H119830   5.063   2.295   3.372
 6622TIP3    H219831   5.175   2.390   3.335
 6623TIP3   OH219832   2.808   5.241   4.290
 6623TIP3    H119833   2.724   5.209   4.323
 6623TIP3    H219834   2.835   5.175   4.226
 6624TIP3   OH219835   2.780   3.965   0.736
 6624TIP3    H119836   2.803   4.036   0.794
 6624TIP3    H219837   2.846   3.897   0.752
 6625TIP3   OH219838   4.976   1.522   1.596
 6625TIP3    H119839   4.924   1.476   1.662
 6625TIP3    H219840   5.055   1.469   1.586
 6626TIP3   OH219841   6.519   0.542   2.988
 6626TIP3    H119842   6.580   0.537   3.063
 6626TIP3    H219843   6.440   0.583   3.024
 6627TIP3   OH219844   6.779   1.247   5.895
 6627TIP3    H119845   6.789   1.340   5.876
 6627TIP3    H219846   6.693   1.239   5.936
 6628TIP3   OH219847   5.987   2.429   1.262
 6628TIP3    H119848   5.998   2.355   1.202
 6628TIP3    H219849   5.896   2.454   1.253
 6629TIP3   OH219850   5.628   4.457   3.436
 6629TIP3    H119851   5.683   4.528   3.402
 6629TIP3    H219852   5.538   4.489   3.424
 6630TIP3   OH219853   0.047   1.493   3.322
 6630TIP3    H119854   0.080   1.408   3.293
 6630TIP3    H219855   0.104   1.517   3.395
 6631TIP3   OH219856   2.279   5.099   2.225
 6631TIP3    H119857   2.201   5.148   2.201
 6631TIP3    H219858   2.345   5.166   2.243
 6632TIP3   OH219859   3.994   3.699   0.725
 6632TIP3    H119860   3.936   3.744   0.663
 6632TIP3    H219861   4.082   3.711   0.688
 6633TIP3   OH219862   5.264   5.207   0.641
 6633TIP3    H119863   5.213   5.282   0.671
 6633TIP3    H219864   5.345   5.212   0.691
 6634TIP3   OH219865   6.438   4.677   3.014
 6634TIP3    H119866   6.388   4.752   2.982
 6634TIP3    H219867   6.521   4.715   3.044
 6635TIP3   OH219868   5.999   1.530   0.640
 6635TIP3    H119869   5.950   1.611   0.634
 6635TIP3    H219870   6.091   1.557   0.647
 6636TIP3   OH219871   7.010   1.173   0.011
 6636TIP3    H119872   6.925   1.146   0.045
 6636TIP3    H219873   7.025   1.260   0.050
 6637TIP3   OH219874   2.439   4.790   5.718
 6637TIP3    H119875   2.504   4.743   5.666
 6637TIP3    H219876   2.482   4.872   5.743
 6638TIP3   OH219877   1.949   4.082   4.733
 6638TIP3    H119878   1.987   4.167   4.754
 6638TIP3    H219879   1.871   4.076   4.787
 6639TIP3   OH219880   4.819   1.808   4.000
 6639TIP3    H119881   4.744   1.831   3.946
 6639TIP3    H219882   4.825   1.877   4.065
 6640TIP3   OH219883   3.566   3.460   2.569
 6640TIP3    H119884   3.509   3.451   2.646
 6640TIP3    H219885   3.517   3.418   2.498
 6641TIP3   OH219886   2.516   4.102   2.397
 6641TIP3    H119887   2.473   4.125   2.315
 6641TIP3    H219888   2.584   4.040   2.371
 6642TIP3   OH219889   3.515   3.054   5.674
 6642TIP3    H119890   3.510   3.028   5.581
 6642TIP3    H219891   3.429   3.090   5.694
 6643TIP3   OH219892   5.596   1.059   3.158
 6643TIP3    H119893   5.584   1.151   3.182
 6643TIP3    H219894   5.690   1.048   3.147
 6644TIP3   OH219895   7.048   3.502   1.033
 6644TIP3    H119896   7.103   3.452   1.094
 6644TIP3    H219897   7.067   3.594   1.052
 6645TIP3   OH219898   3.778   0.278   2.567
 6645TIP3    H119899   3.745   0.188   2.570
 6645TIP3    H219900   3.702   0.331   2.544
 6646TIP3   OH219901   3.948   0.261   1.262
 6646TIP3    H119902   3.926   0.344   1.305
 6646TIP3    H219903   3.885   0.198   1.298
 6647TIP3   OH219904   4.042   0.333   5.520
 6647TIP3    H119905   4.014   0.384   5.443
 6647TIP3    H219906   4.122   0.377   5.549
 6648TIP3   OH219907   4.233   3.611   4.068
 6648TIP3    H119908   4.260   3.702   4.055
 6648TIP3    H219909   4.139   3.617   4.086
 6649TIP3   OH219910   3.034   4.610   4.529
 6649TIP3    H119911   3.109   4.572   4.576
 6649TIP3    H219912   2.958   4.589   4.583
 6650TIP3   OH219913   1.987   3.732   1.862
 6650TIP3    H119914   1.975   3.647   1.905
 6650TIP3    H219915   2.026   3.788   1.929
 6651TIP3   OH219916   6.631   3.534   5.595
 6651TIP3    H119917   6.640   3.463   5.531
 6651TIP3    H219918   6.643   3.614   5.543
 6652TIP3   OH219919   3.880   0.576   5.109
 6652TIP3    H119920   3.856   0.495   5.154
 6652TIP3    H219921   3.897   0.550   5.019
 6653TIP3   OH219922   6.723   2.183   4.395
 6653TIP3    H119923   6.692   2.148   4.479
 6653TIP3    H219924   6.818   2.186   4.403
 6654TIP3   OH219925   0.766   4.340   4.529
 6654TIP3    H119926   0.675   4.312   4.538
 6654TIP3    H219927   0.808   4.314   4.610
 6655TIP3   OH219928   6.367   4.426   1.539
 6655TIP3    H119929   6.384   4.480   1.616
 6655TIP3    H219930   6.305   4.360   1.570
 6656TIP3   OH219931   3.130   1.196   3.219
 6656TIP3    H119932   3.187   1.119   3.228
 6656TIP3    H219933   3.063   1.168   3.157
 6657TIP3   OH219934   3.005   3.190   5.810
 6657TIP3    H119935   2.995   3.280   5.842
 6657TIP3    H219936   2.925   3.146   5.836
 6658TIP3   OH219937   6.622   2.391   4.768
 6658TIP3    H119938   6.629   2.459   4.701
 6658TIP3    H219939   6.545   2.415   4.818
 6659TIP3   OH219940   0.011   4.530   4.167
 6659TIP3    H119941   0.024   4.622   4.190
 6659TIP3    H219942   0.069   4.482   4.225
 6660TIP3   OH219943   5.785   1.907   4.518
 6660TIP3    H119944   5.876   1.883   4.533
 6660TIP3    H219945   5.734   1.841   4.567
 6661TIP3   OH219946   6.465   3.132   3.229
 6661TIP3    H119947   6.391   3.192   3.226
 6661TIP3    H219948   6.426   3.045   3.225
 6662TIP3   OH219949   4.607   4.482   3.607
 6662TIP3    H119950   4.536   4.426   3.576
 6662TIP3    H219951   4.586   4.569   3.574
 6663TIP3   OH219952   2.561   2.977   2.846
 6663TIP3    H119953   2.482   3.004   2.799
 6663TIP3    H219954   2.619   2.943   2.778
 6664TIP3   OH219955   5.798   1.146   0.918
 6664TIP3    H119956   5.769   1.059   0.947
 6664TIP3    H219957   5.893   1.138   0.912
 6665TIP3   OH219958   5.480   2.937   1.263
 6665TIP3    H119959   5.468   2.997   1.189
 6665TIP3    H219960   5.573   2.944   1.285
 6666TIP3   OH219961   3.211   4.402   3.682
 6666TIP3    H119962   3.304   4.382   3.673
 6666TIP3    H219963   3.187   4.438   3.597
 6667TIP3   OH219964   5.671   1.084   5.005
 6667TIP3    H119965   5.597   1.043   4.960
 6667TIP3    H219966   5.749   1.044   4.966
 6668TIP3   OH219967   2.945   1.324   1.703
 6668TIP3    H119968   3.033   1.346   1.672
 6668TIP3    H219969   2.944   1.228   1.707
 6669TIP3   OH219970   2.849   0.218   5.618
 6669TIP3    H119971   2.927   0.210   5.673
 6669TIP3    H219972   2.880   0.261   5.538
 6670TIP3   OH219973   5.756   4.346   0.748
 6670TIP3    H119974   5.780   4.331   0.656
 6670TIP3    H219975   5.713   4.265   0.775
 6671TIP3   OH219976   0.437   2.158   0.463
 6671TIP3    H119977   0.460   2.121   0.378
 6671TIP3    H219978   0.342   2.147   0.470
 6672TIP3   OH219979   2.420   0.286   0.796
 6672TIP3    H119980   2.481   0.272   0.724
 6672TIP3    H219981   2.357   0.350   0.762
 6673TIP3   OH219982   3.694   0.359   1.102
 6673TIP3    H119983   3.602   0.340   1.088
 6673TIP3    H219984   3.705   0.355   1.197
 6674TIP3   OH219985   6.071   3.240   0.096
 6674TIP3    H119986   6.153   3.190   0.102
 6674TIP3    H219987   6.022   3.198   0.025
 6675TIP3   OH219988   6.510   6.480   4.816
 6675TIP3    H119989   6.519   6.409   4.753
 6675TIP3    H219990   6.424   6.465   4.857
 6676TIP3   OH219991   5.955   5.571   4.473
 6676TIP3    H119992   5.896   5.605   4.541
 6676TIP3    H219993   6.042   5.575   4.513
 6677TIP3   OH219994   1.189   5.988   4.126
 6677TIP3    H119995   1.197   6.061   4.065
 6677TIP3    H219996   1.095   5.972   4.132
 6678TIP3   OH219997   0.043   5.507   0.840
 6678TIP3    H119998   0.093   5.438   0.796
 6678TIP3    H219999  -0.048   5.482   0.828
 6679TIP3   OH220000   5.666   5.789   3.139
 6679TIP3    H120001   5.586   5.842   3.133
 6679TIP3    H220002   5.683   5.782   3.233
 6680TIP3   OH220003   5.201   6.030   2.349
 6680TIP3    H120004   5.150   6.037   2.268
 6680TIP3    H220005   5.268   6.098   2.341
 6681TIP3   OH220006   5.116   3.682   5.564
 6681TIP3    H120007   5.048   3.649   5.623
 6681TIP3    H220008   5.087   3.770   5.541
 6682TIP3   OH220009   3.564   4.715   2.364
 6682TIP3    H120010   3.534   4.724   2.273
 6682TIP3    H220011   3.656   4.741   2.360
 6683TIP3   OH220012   4.252   6.766   4.169
 6683TIP3    H120013   4.334   6.722   4.191
 6683TIP3    H220014   4.184   6.711   4.209
 6684TIP3   OH220015   1.553   5.328   3.255
 6684TIP3    H120016   1.543   5.248   3.306
 6684TIP3    H220017   1.627   5.374   3.296
 6685TIP3   OH220018   3.920   3.646  -0.046
 6685TIP3    H120019   3.867   3.661  -0.124
 6685TIP3    H220020   3.857   3.625   0.022
 6686TIP3   OH220021   3.362   0.413   1.626
 6686TIP3    H120022   3.280   0.439   1.667
 6686TIP3    H220023   3.430   0.451   1.680
 6687TIP3   OH220024   2.009   2.251   4.445
 6687TIP3    H120025   2.012   2.227   4.353
 6687TIP3    H220026   2.097   2.230   4.478
 6688TIP3   OH220027   3.820   3.432   2.293
 6688TIP3    H120028   3.828   3.512   2.344
 6688TIP3    H220029   3.759   3.455   2.222
 6689TIP3   OH220030   4.582   0.731   0.995
 6689TIP3    H120031   4.488   0.715   1.005
 6689TIP3    H220032   4.587   0.797   0.926
 6690TIP3   OH220033   2.867   2.199   4.989
 6690TIP3    H120034   2.827   2.201   5.076
 6690TIP3    H220035   2.961   2.192   5.006
 6691TIP3   OH220036   3.827   0.349   5.706
 6691TIP3    H120037   3.745   0.354   5.658
 6691TIP3    H220038   3.894   0.339   5.639
 6692TIP3   OH220039   7.041   2.551   5.231
 6692TIP3    H120040   7.037   2.484   5.163
 6692TIP3    H220041   7.134   2.573   5.238
 6693TIP3   OH220042   1.410   0.233   2.934
 6693TIP3    H120043   1.449   0.201   2.853
 6693TIP3    H220044   1.356   0.161   2.965
 6694TIP3   OH220045   6.852   5.665   4.550
 6694TIP3    H120046   6.897   5.585   4.578
 6694TIP3    H220047   6.761   5.652   4.576
 6695TIP3   OH220048   4.362   4.498   4.555
 6695TIP3    H120049   4.375   4.414   4.600
 6695TIP3    H220050   4.278   4.488   4.510
 6696TIP3   OH220051   6.663   2.267   3.525
 6696TIP3    H120052   6.573   2.282   3.554
 6696TIP3    H220053   6.679   2.174   3.540
 6697TIP3   OH220054   2.322   4.240   4.532
 6697TIP3    H120055   2.291   4.157   4.494
 6697TIP3    H220056   2.391   4.269   4.472
 6698TIP3   OH220057   2.093   1.235   3.603
 6698TIP3    H120058   2.028   1.199   3.663
 6698TIP3    H220059   2.177   1.216   3.644
 6699TIP3   OH220060   1.703   6.178   3.679
 6699TIP3    H120061   1.686   6.126   3.758
 6699TIP3    H220062   1.641   6.143   3.615
 6700TIP3   OH220063   5.950   6.436   0.444
 6700TIP3    H120064   5.965   6.508   0.505
 6700TIP3    H220065   5.889   6.472   0.379
 6701TIP3   OH220066   2.112   1.676   1.438
 6701TIP3    H120067   2.121   1.655   1.345
 6701TIP3    H220068   2.181   1.739   1.456
 6702TIP3   OH220069   1.432   3.935   3.893
 6702TIP3    H120070   1.480   3.864   3.937
 6702TIP3    H220071   1.390   3.893   3.818
 6703TIP3   OH220072   0.116   0.853   4.191
 6703TIP3    H120073   0.203   0.822   4.164
 6703TIP3    H220074   0.073   0.775   4.226
 6704TIP3   OH220075   2.128   3.032   1.650
 6704TIP3    H120076   2.141   3.118   1.611
 6704TIP3    H220077   2.145   2.971   1.578
 6705TIP3   OH220078   4.423   2.748   2.780
 6705TIP3    H120079   4.474   2.784   2.707
 6705TIP3    H220080   4.338   2.793   2.774
 6706TIP3   OH220081   6.660   3.978   4.270
 6706TIP3    H120082   6.646   4.067   4.238
 6706TIP3    H220083   6.575   3.951   4.303
 6707TIP3   OH220084   6.055   5.821   5.125
 6707TIP3    H120085   6.099   5.744   5.089
 6707TIP3    H220086   5.964   5.812   5.096
 6708TIP3   OH220087   3.701   0.760   2.210
 6708TIP3    H120088   3.771   0.789   2.152
 6708TIP3    H220089   3.746   0.713   2.281
 6709TIP3   OH220090   1.544   2.345   3.924
 6709TIP3    H120091   1.616   2.358   3.986
 6709TIP3    H220092   1.466   2.376   3.971
 6710TIP3   OH220093   1.445   3.484   5.775
 6710TIP3    H120094   1.436   3.425   5.700
 6710TIP3    H220095   1.519   3.540   5.752
 6711TIP3   OH220096   3.309   2.809   4.879
 6711TIP3    H120097   3.355   2.733   4.915
 6711TIP3    H220098   3.323   2.804   4.785
 6712TIP3   OH220099   3.967   1.291   1.207
 6712TIP3    H120100   3.971   1.349   1.131
 6712TIP3    H220101   3.905   1.333   1.267
 6713TIP3   OH220102   0.472   4.420   1.258
 6713TIP3    H120103   0.466   4.422   1.163
 6713TIP3    H220104   0.399   4.365   1.286
 6714TIP3   OH220105   4.885   2.053   5.688
 6714TIP3    H120106   4.901   1.979   5.629
 6714TIP3    H220107   4.793   2.076   5.674
 6715TIP3   OH220108   7.114   1.686   1.576
 6715TIP3    H120109   7.163   1.632   1.515
 6715TIP3    H220110   7.151   1.665   1.662
 6716TIP3   OH220111   5.407   5.056   4.463
 6716TIP3    H120112   5.479   5.052   4.526
 6716TIP3    H220113   5.346   4.989   4.492
 6717TIP3   OH220114   1.444   0.431   4.734
 6717TIP3    H120115   1.390   0.352   4.739
 6717TIP3    H220116   1.404   0.492   4.796
 6718TIP3   OH220117   4.791   2.549   1.711
 6718TIP3    H120118   4.824   2.629   1.754
 6718TIP3    H220119   4.697   2.561   1.707
 6719TIP3   OH220120   5.579   6.204   1.249
 6719TIP3    H120121   5.662   6.169   1.216
 6719TIP3    H220122   5.564   6.157   1.331
 6720TIP3   OH220123   6.252   6.340   3.962
 6720TIP3    H120124   6.196   6.344   3.884
 6720TIP3    H220125   6.197   6.374   4.033
 6721TIP3   OH220126   5.319   4.306   3.483
 6721TIP3    H120127   5.238   4.346   3.515
 6721TIP3    H220128   5.295   4.216   3.462
 6722TIP3   OH220129   0.072   6.734   4.972
 6722TIP3    H120130   0.043   6.654   5.016
 6722TIP3    H220131   0.134   6.704   4.906
 6723TIP3   OH220132   5.249   3.956   0.889
 6723TIP3    H120133   5.191   3.972   0.815
 6723TIP3    H220134   5.303   3.882   0.862
 6724TIP3   OH220135   3.501   2.031   1.465
 6724TIP3    H120136   3.553   1.951   1.460
 6724TIP3    H220137   3.417   2.003   1.502
 6725TIP3   OH220138   5.887   6.201   3.106
 6725TIP3    H120139   5.884   6.202   3.010
 6725TIP3    H220140   5.866   6.291   3.132
 6726TIP3   OH220141   4.024   3.435   0.511
 6726TIP3    H120142   3.988   3.351   0.480
 6726TIP3    H220143   4.117   3.431   0.488
 6727TIP3   OH220144   5.510   5.490   5.168
 6727TIP3    H120145   5.559   5.565   5.135
 6727TIP3    H220146   5.461   5.459   5.092
 6728TIP3   OH220147   7.077   0.845   5.205
 6728TIP3    H120148   7.085   0.894   5.123
 6728TIP3    H220149   7.167   0.840   5.238
 6729TIP3   OH220150   3.557   3.426   3.264
 6729TIP3    H120151   3.580   3.507   3.310
 6729TIP3    H220152   3.522   3.369   3.333
 6730TIP3   OH220153   1.169   6.075   5.208
 6730TIP3    H120154   1.258   6.082   5.243
 6730TIP3    H220155   1.139   5.988   5.235
 6731TIP3   OH220156   3.373   5.698   3.152
 6731TIP3    H120157   3.452   5.724   3.200
 6731TIP3    H220158   3.375   5.750   3.072
 6732TIP3   OH220159   6.160   4.203   0.532
 6732TIP3    H120160   6.255   4.197   0.536
 6732TIP3    H220161   6.131   4.113   0.517
 6733TIP3   OH220162   1.271   2.655   3.309
 6733TIP3    H120163   1.199   2.624   3.254
 6733TIP3    H220164   1.309   2.576   3.346
 6734TIP3   OH220165   6.552   2.558   0.620
 6734TIP3    H120166   6.522   2.493   0.684
 6734TIP3    H220167   6.579   2.506   0.544
 6735TIP3   OH220168   4.982   1.470   2.573
 6735TIP3    H120169   5.065   1.468   2.620
 6735TIP3    H220170   4.957   1.379   2.562
 6736TIP3   OH220171   1.027   6.511   2.042
 6736TIP3    H120172   0.950   6.455   2.048
 6736TIP3    H220173   1.024   6.565   2.121
 6737TIP3   OH220174   6.325   1.165   2.856
 6737TIP3    H120175   6.264   1.153   2.783
 6737TIP3    H220176   6.366   1.250   2.840
 6738TIP3   OH220177   5.109   0.329   0.945
 6738TIP3    H120178   5.187   0.301   0.897
 6738TIP3    H220179   5.110   0.425   0.938
 6739TIP3   OH220180   0.236   0.831   3.692
 6739TIP3    H120181   0.290   0.849   3.769
 6739TIP3    H220182   0.282   0.760   3.647
 6740TIP3   OH220183   0.607   0.614   5.559
 6740TIP3    H120184   0.653   0.537   5.595
 6740TIP3    H220185   0.591   0.592   5.468
 6741TIP3   OH220186   6.381   1.407   1.141
 6741TIP3    H120187   6.461   1.454   1.116
 6741TIP3    H220188   6.316   1.433   1.075
 6742TIP3   OH220189   6.349   3.198   2.148
 6742TIP3    H120190   6.324   3.114   2.108
 6742TIP3    H220191   6.267   3.232   2.184
 6743TIP3   OH220192   1.926   1.400   5.641
 6743TIP3    H120193   1.936   1.448   5.559
 6743TIP3    H220194   2.006   1.348   5.649
 6744TIP3   OH220195   7.040   5.612   3.770
 6744TIP3    H120196   7.014   5.520   3.769
 6744TIP3    H220197   6.973   5.655   3.823
 6745TIP3   OH220198   6.724   2.824   3.793
 6745TIP3    H120199   6.783   2.789   3.861
 6745TIP3    H220200   6.709   2.914   3.819
 6746TIP3   OH220201   0.691   5.951   0.240
 6746TIP3    H120202   0.713   5.891   0.312
 6746TIP3    H220203   0.697   5.898   0.161
 6747TIP3   OH220204   0.310   6.496   1.873
 6747TIP3    H120205   0.228   6.467   1.832
 6747TIP3    H220206   0.361   6.416   1.884
 6748TIP3   OH220207   4.560   1.861   4.166
 6748TIP3    H120208   4.473   1.881   4.200
 6748TIP3    H220209   4.599   1.946   4.147
 6749TIP3   OH220210   1.896   1.837   5.463
 6749TIP3    H120211   1.832   1.868   5.399
 6749TIP3    H220212   1.888   1.899   5.536
 6750TIP3   OH220213   4.640   2.493   0.286
 6750TIP3    H120214   4.584   2.515   0.211
 6750TIP3    H220215   4.638   2.572   0.340
 6751TIP3   OH220216   3.203   1.082   5.874
 6751TIP3    H120217   3.145   1.120   5.807
 6751TIP3    H220218   3.164   1.108   5.957
 6752TIP3   OH220219   0.455   3.724   0.461
 6752TIP3    H120220   0.449   3.681   0.546
 6752TIP3    H220221   0.528   3.682   0.417
 6753TIP3   OH220222   4.717   2.378   4.226
 6753TIP3    H120223   4.707   2.465   4.266
 6753TIP3    H220224   4.757   2.325   4.295
 6754TIP3   OH220225   4.835   2.200   4.707
 6754TIP3    H120226   4.800   2.113   4.688
 6754TIP3    H220227   4.909   2.183   4.765
 6755TIP3   OH220228   3.353   2.062   5.023
 6755TIP3    H120229   3.262   2.085   5.045
 6755TIP3    H220230   3.395   2.146   5.007
 6756TIP3   OH220231   5.378   4.961   1.063
 6756TIP3    H120232   5.303   4.905   1.042
 6756TIP3    H220233   5.345   5.050   1.054
 6757TIP3   OH220234   5.779   4.344   5.771
 6757TIP3    H120235   5.816   4.256   5.763
 6757TIP3    H220236   5.739   4.346   5.858
 6758TIP3   OH220237   0.676   2.824   1.670
 6758TIP3    H120238   0.758   2.857   1.707
 6758TIP3    H220239   0.647   2.893   1.611
 6759TIP3   OH220240   1.071   4.340   3.477
 6759TIP3    H120241   1.024   4.419   3.505
 6759TIP3    H220242   1.054   4.277   3.546
 6760TIP3   OH220243   5.207   5.615   3.496
 6760TIP3    H120244   5.251   5.647   3.417
 6760TIP3    H220245   5.171   5.530   3.470
 6761TIP3   OH220246   2.730   2.754   5.124
 6761TIP3    H120247   2.694   2.822   5.067
 6761TIP3    H220248   2.799   2.713   5.072
 6762TIP3   OH220249   3.285   5.550   0.818
 6762TIP3    H120250   3.212   5.597   0.859
 6762TIP3    H220251   3.253   5.528   0.731
 6763TIP3   OH220252   7.188   3.058   5.610
 6763TIP3    H120253   7.196   2.985   5.548
 6763TIP3    H220254   7.152   3.130   5.558
 6764TIP3   OH220255   5.267   1.755   4.417
 6764TIP3    H120256   5.245   1.752   4.323
 6764TIP3    H220257   5.351   1.800   4.421
 6765TIP3   OH220258   4.522   2.678   0.078
 6765TIP3    H120259   4.517   2.739   0.152
 6765TIP3    H220260   4.435   2.680   0.039
 6766TIP3   OH220261   3.368   5.125   2.518
 6766TIP3    H120262   3.325   5.174   2.589
 6766TIP3    H220263   3.443   5.083   2.559
 6767TIP3   OH220264   3.963   3.656   4.135
 6767TIP3    H120265   3.883   3.661   4.187
 6767TIP3    H220266   3.940   3.698   4.052
 6768TIP3   OH220267   4.126   1.659   4.004
 6768TIP3    H120268   4.033   1.639   4.012
 6768TIP3    H220269   4.129   1.755   3.996
 6769TIP3   OH220270   3.189   5.423   3.869
 6769TIP3    H120271   3.176   5.493   3.934
 6769TIP3    H220272   3.265   5.375   3.900
 6770TIP3   OH220273   2.844   1.635   0.509
 6770TIP3    H120274   2.896   1.628   0.429
 6770TIP3    H220275   2.897   1.690   0.568
 6771TIP3   OH220276   5.791   3.093   0.970
 6771TIP3    H120277   5.771   3.077   0.878
 6771TIP3    H220278   5.758   3.016   1.015
 6772TIP3   OH220279   1.322   5.302   0.170
 6772TIP3    H120280   1.287   5.213   0.181
 6772TIP3    H220281   1.248   5.359   0.189
 6773TIP3   OH220282   1.296   1.652   4.755
 6773TIP3    H120283   1.288   1.567   4.798
 6773TIP3    H220284   1.237   1.646   4.680
 6774TIP3   OH220285   5.415   2.690   1.027
 6774TIP3    H120286   5.502   2.729   1.040
 6774TIP3    H220287   5.429   2.617   0.967
 6775TIP3   OH220288   4.623   3.300   4.599
 6775TIP3    H120289   4.623   3.360   4.674
 6775TIP3    H220290   4.673   3.224   4.628
 6776TIP3   OH220291   6.457   1.436   3.158
 6776TIP3    H120292   6.495   1.349   3.165
 6776TIP3    H220293   6.442   1.463   3.248
 6777TIP3   OH220294   0.170   2.189   2.338
 6777TIP3    H120295   0.097   2.230   2.385
 6777TIP3    H220296   0.237   2.257   2.334
 6778TIP3   OH220297   5.210   3.565   2.260
 6778TIP3    H120298   5.245   3.498   2.202
 6778TIP3    H220299   5.156   3.517   2.322
 6779TIP3   OH220300   0.317   6.236   4.244
 6779TIP3    H120301   0.241   6.182   4.225
 6779TIP3    H220302   0.283   6.309   4.296
 6780TIP3   OH220303   1.590   4.829   2.207
 6780TIP3    H120304   1.539   4.830   2.126
 6780TIP3    H220305   1.526   4.819   2.276
 6781TIP3   OH220306   3.129   4.603   3.181
 6781TIP3    H120307   3.190   4.665   3.140
 6781TIP3    H220308   3.141   4.522   3.131
 6782TIP3   OH220309   1.935   5.476   0.898
 6782TIP3    H120310   1.875   5.539   0.937
 6782TIP3    H220311   1.933   5.496   0.804
 6783TIP3   OH220312   4.057   0.408   2.520
 6783TIP3    H120313   4.041   0.361   2.602
 6783TIP3    H220314   4.030   0.498   2.537
 6784TIP3   OH220315   0.331   1.164   1.510
 6784TIP3    H120316   0.360   1.118   1.589
 6784TIP3    H220317   0.291   1.096   1.456
 6785TIP3   OH220318   4.487   5.078   1.670
 6785TIP3    H120319   4.429   5.049   1.600
 6785TIP3    H220320   4.538   5.149   1.631
 6786TIP3   OH220321   0.497   0.087   0.779
 6786TIP3    H120322   0.554   0.101   0.855
 6786TIP3    H220323   0.484   0.174   0.742
 6787TIP3   OH220324   3.993   5.185   1.127
 6787TIP3    H120325   3.930   5.175   1.056
 6787TIP3    H220326   4.037   5.100   1.133
 6788TIP3   OH220327   2.052   3.446   3.204
 6788TIP3    H120328   2.069   3.358   3.170
 6788TIP3    H220329   2.000   3.489   3.136
 6789TIP3   OH220330   6.204   2.683   0.257
 6789TIP3    H120331   6.186   2.602   0.304
 6789TIP3    H220332   6.156   2.674   0.174
 6790TIP3   OH220333   6.228   5.982   1.950
 6790TIP3    H120334   6.249   6.067   1.988
 6790TIP3    H220335   6.313   5.945   1.927
 6791TIP3   OH220336   6.418   0.109   3.172
 6791TIP3    H120337   6.511   0.122   3.154
 6791TIP3    H220338   6.413   0.096   3.267
 6792TIP3   OH220339   5.670   2.840   2.658
 6792TIP3    H120340   5.652   2.881   2.574
 6792TIP3    H220341   5.726   2.765   2.637
 6793TIP3   OH220342   1.148   1.778   2.091
 6793TIP3    H120343   1.102   1.846   2.042
 6793TIP3    H220344   1.229   1.820   2.121
 6794TIP3   OH220345   0.265   6.438   5.034
 6794TIP3    H120346   0.315   6.408   5.110
 6794TIP3    H220347   0.179   6.398   5.044
 6795TIP3   OH220348   6.194   0.481   4.696
 6795TIP3    H120349   6.222   0.562   4.740
 6795TIP3    H220350   6.101   0.474   4.715
 6796TIP3   OH220351   3.959   3.479   4.918
 6796TIP3    H120352   3.985   3.396   4.880
 6796TIP3    H220353   3.864   3.482   4.909
 6797TIP3   OH220354   3.665   5.284   3.942
 6797TIP3    H120355   3.751   5.283   3.985
 6797TIP3    H220356   3.652   5.193   3.914
 6798TIP3   OH220357   2.311   3.532   1.930
 6798TIP3    H120358   2.230   3.531   1.878
 6798TIP3    H220359   2.381   3.526   1.865
 6799TIP3   OH220360   3.985   3.857   3.813
 6799TIP3    H120361   3.937   3.900   3.741
 6799TIP3    H220362   3.920   3.801   3.855
 6800TIP3   OH220363   5.711   3.309   0.157
 6800TIP3    H120364   5.732   3.232   0.210
 6800TIP3    H220365   5.718   3.382   0.217
 6801TIP3   OH220366   3.566   6.726   4.349
 6801TIP3    H120367   3.511   6.805   4.345
 6801TIP3    H220368   3.505   6.655   4.367
 6802TIP3   OH220369   0.106   6.115   1.209
 6802TIP3    H120370   0.098   6.027   1.172
 6802TIP3    H220371   0.016   6.142   1.226
 6803TIP3   OH220372   5.278   6.644   5.473
 6803TIP3    H120373   5.302   6.615   5.385
 6803TIP3    H220374   5.185   6.624   5.481
 6804TIP3   OH220375   0.302   6.088   0.304
 6804TIP3    H120376   0.318   6.162   0.245
 6804TIP3    H220377   0.273   6.129   0.386
 6805TIP3   OH220378   1.220   1.586   3.320
 6805TIP3    H120379   1.157   1.547   3.260
 6805TIP3    H220380   1.303   1.584   3.273
 6806TIP3   OH220381   1.603   4.401   1.296
 6806TIP3    H120382   1.571   4.417   1.208
 6806TIP3    H220383   1.546   4.454   1.352
 6807TIP3   OH220384   5.730   3.130   2.762
 6807TIP3    H120385   5.762   3.054   2.714
 6807TIP3    H220386   5.808   3.163   2.807
 6808TIP3   OH220387   4.541   4.694   3.184
 6808TIP3    H120388   4.591   4.776   3.175
 6808TIP3    H220389   4.458   4.721   3.222
 6809TIP3   OH220390   4.156   1.526   5.885
 6809TIP3    H120391   4.222   1.529   5.816
 6809TIP3    H220392   4.130   1.617   5.897
 6810TIP3   OH220393   6.808   6.329   0.583
 6810TIP3    H120394   6.877   6.369   0.529
 6810TIP3    H220395   6.726   6.360   0.544
 6811TIP3   OH220396   4.844   1.226   2.464
 6811TIP3    H120397   4.834   1.244   2.370
 6811TIP3    H220398   4.776   1.278   2.506
 6812TIP3   OH220399   5.804   6.494   4.474
 6812TIP3    H120400   5.788   6.558   4.544
 6812TIP3    H220401   5.734   6.429   4.485
 6813TIP3   OH220402   0.580   3.725   4.989
 6813TIP3    H120403   0.500   3.775   4.978
 6813TIP3    H220404   0.559   3.638   4.955
 6814TIP3   OH220405   1.260   4.568   0.256
 6814TIP3    H120406   1.352   4.595   0.251
 6814TIP3    H220407   1.235   4.548   0.166
 6815TIP3   OH220408   6.174   1.348   0.050
 6815TIP3    H120409   6.127   1.414   0.000
 6815TIP3    H220410   6.160   1.372   0.142
 6816TIP3   OH220411   0.717   1.809   0.256
 6816TIP3    H120412   0.784   1.745   0.233
 6816TIP3    H220413   0.754   1.858   0.330
 6817TIP3   OH220414   6.542   6.292   4.026
 6817TIP3    H120415   6.446   6.299   4.026
 6817TIP3    H220416   6.566   6.298   4.119
 6818TIP3   OH220417   4.533   4.574   2.359
 6818TIP3    H120418   4.452   4.611   2.323
 6818TIP3    H220419   4.590   4.649   2.373
 6819TIP3   OH220420   2.941   0.996   1.187
 6819TIP3    H120421   2.968   0.930   1.252
 6819TIP3    H220422   2.935   1.077   1.237
 6820TIP3   OH220423   3.249   5.900   1.277
 6820TIP3    H120424   3.213   5.822   1.234
 6820TIP3    H220425   3.256   5.876   1.369
 6821TIP3   OH220426   6.429   0.780   2.213
 6821TIP3    H120427   6.481   0.817   2.142
 6821TIP3    H220428   6.345   0.759   2.173
 6822TIP3   OH220429   1.666   5.150   1.099
 6822TIP3    H120430   1.724   5.080   1.068
 6822TIP3    H220431   1.691   5.164   1.190
 6823TIP3   OH220432   1.707   0.402   3.913
 6823TIP3    H120433   1.659   0.482   3.936
 6823TIP3    H220434   1.756   0.426   3.835
 6824TIP3   OH220435   6.213   1.537   3.154
 6824TIP3    H120436   6.262   1.616   3.181
 6824TIP3    H220437   6.281   1.475   3.129
 6825TIP3   OH220438   5.901   3.417   2.148
 6825TIP3    H120439   5.839   3.426   2.076
 6825TIP3    H220440   5.854   3.450   2.224
 6826TIP3   OH220441   2.508   2.337   1.375
 6826TIP3    H120442   2.503   2.375   1.287
 6826TIP3    H220443   2.431   2.369   1.420
 6827TIP3   OH220444   6.214   2.369   5.518
 6827TIP3    H120445   6.200   2.385   5.424
 6827TIP3    H220446   6.241   2.453   5.553
 6828TIP3   OH220447   1.715   6.177   0.164
 6828TIP3    H120448   1.706   6.109   0.231
 6828TIP3    H220449   1.698   6.259   0.210
 6829TIP3   OH220450   2.852   3.843   5.084
 6829TIP3    H120451   2.822   3.934   5.088
 6829TIP3    H220452   2.857   3.823   4.990
 6830TIP3   OH220453   4.197   5.649   3.159
 6830TIP3    H120454   4.253   5.703   3.104
 6830TIP3    H220455   4.205   5.561   3.122
 6831TIP3   OH220456   4.962   1.439   5.081
 6831TIP3    H120457   4.940   1.376   5.012
 6831TIP3    H220458   5.058   1.436   5.085
 6832TIP3   OH220459   6.073   6.477   2.353
 6832TIP3    H120460   6.127   6.407   2.317
 6832TIP3    H220461   6.036   6.441   2.433
 6833TIP3   OH220462   1.695   5.076   4.875
 6833TIP3    H120463   1.706   5.099   4.783
 6833TIP3    H220464   1.784   5.079   4.911
 6834TIP3   OH220465   5.866   2.383   0.830
 6834TIP3    H120466   5.894   2.474   0.843
 6834TIP3    H220467   5.804   2.387   0.757
 6835TIP3   OH220468   4.588   3.807   5.735
 6835TIP3    H120469   4.567   3.833   5.824
 6835TIP3    H220470   4.562   3.882   5.681
 6836TIP3   OH220471   2.225   1.783   5.580
 6836TIP3    H120472   2.276   1.842   5.523
 6836TIP3    H220473   2.214   1.832   5.661
 6837TIP3   OH220474   0.101   3.921   5.168
 6837TIP3    H120475   0.191   3.898   5.143
 6837TIP3    H220476   0.099   3.909   5.263
 6838TIP3   OH220477   3.304   6.697   0.394
 6838TIP3    H120478   3.345   6.782   0.408
 6838TIP3    H220479   3.285   6.664   0.482
 6839TIP3   OH220480   1.924   0.203   2.678
 6839TIP3    H120481   1.958   0.240   2.597
 6839TIP3    H220482   1.973   0.248   2.747
 6840TIP3   OH220483   2.272   2.559   0.120
 6840TIP3    H120484   2.264   2.651   0.093
 6840TIP3    H220485   2.184   2.522   0.104
 6841TIP3   OH220486   1.173   5.020   1.799
 6841TIP3    H120487   1.134   5.104   1.775
 6841TIP3    H220488   1.267   5.037   1.801
 6842TIP3   OH220489   1.929   3.600   5.607
 6842TIP3    H120490   1.940   3.654   5.685
 6842TIP3    H220491   1.836   3.578   5.605
 6843TIP3   OH220492   7.176   3.567   2.030
 6843TIP3    H120493   7.192   3.507   1.957
 6843TIP3    H220494   7.149   3.649   1.989
 6844TIP3   OH220495   3.160   0.726   4.771
 6844TIP3    H120496   3.250   0.694   4.779
 6844TIP3    H220497   3.130   0.694   4.686
 6845TIP3   OH220498   3.436   2.246   5.741
 6845TIP3    H120499   3.474   2.269   5.656
 6845TIP3    H220500   3.397   2.160   5.727
 6846TIP3   OH220501   5.465   3.874   4.491
 6846TIP3    H120502   5.457   3.956   4.442
 6846TIP3    H220503   5.460   3.805   4.424
 6847TIP3   OH220504   3.049   0.674   5.024
 6847TIP3    H120505   3.094   0.755   5.045
 6847TIP3    H220506   2.998   0.694   4.945
 6848TIP3   OH220507   3.150   3.926   5.443
 6848TIP3    H120508   3.081   3.861   5.436
 6848TIP3    H220509   3.104   4.010   5.447
 6849TIP3   OH220510   1.453   3.409   4.984
 6849TIP3    H120511   1.525   3.466   4.958
 6849TIP3    H220512   1.381   3.433   4.926
 6850TIP3   OH220513   1.935   5.330   1.197
 6850TIP3    H120514   1.993   5.289   1.133
 6850TIP3    H220515   1.953   5.424   1.190
 6851TIP3   OH220516   0.092   2.406   3.433
 6851TIP3    H120517   0.167   2.452   3.472
 6851TIP3    H220518   0.086   2.442   3.344
 6852TIP3   OH220519   0.734   1.846   4.563
 6852TIP3    H120520   0.716   1.781   4.495
 6852TIP3    H220521   0.829   1.841   4.576
 6853TIP3   OH220522   0.893   1.027   2.709
 6853TIP3    H120523   0.803   1.035   2.740
 6853TIP3    H220524   0.936   1.107   2.738
 6854TIP3   OH220525   2.152   4.834   0.518
 6854TIP3    H120526   2.113   4.918   0.543
 6854TIP3    H220527   2.245   4.854   0.506
 6855TIP3   OH220528   4.507   5.168   5.856
 6855TIP3    H120529   4.533   5.191   5.767
 6855TIP3    H220530   4.517   5.250   5.906
 6856TIP3   OH220531   0.661   1.312   1.558
 6856TIP3    H120532   0.643   1.266   1.640
 6856TIP3    H220533   0.584   1.368   1.544
 6857TIP3   OH220534   2.226   5.706   0.163
 6857TIP3    H120535   2.307   5.752   0.145
 6857TIP3    H220536   2.167   5.734   0.093
 6858TIP3   OH220537   0.765   0.245   0.718
 6858TIP3    H120538   0.769   0.293   0.801
 6858TIP3    H220539   0.801   0.159   0.738
 6859TIP3   OH220540   6.615   6.077   2.129
 6859TIP3    H120541   6.708   6.098   2.117
 6859TIP3    H220542   6.609   6.054   2.222
 6860TIP3   OH220543   3.214   0.453   4.290
 6860TIP3    H120544   3.125   0.438   4.322
 6860TIP3    H220545   3.270   0.407   4.352
 6861TIP3   OH220546   1.081   6.575   0.701
 6861TIP3    H120547   1.133   6.642   0.745
 6861TIP3    H220548   1.126   6.493   0.719
 6862TIP3   OH220549   2.375   6.084   2.895
 6862TIP3    H120550   2.434   6.009   2.896
 6862TIP3    H220551   2.293   6.050   2.861
 6863TIP3   OH220552   6.227   2.144   4.878
 6863TIP3    H120553   6.260   2.132   4.789
 6863TIP3    H220554   6.132   2.140   4.870
 6864TIP3   OH220555   3.293   3.930   3.458
 6864TIP3    H120556   3.387   3.935   3.478
 6864TIP3    H220557   3.285   3.860   3.394
 6865TIP3   OH220558   1.674   1.470   2.391
 6865TIP3    H120559   1.761   1.506   2.375
 6865TIP3    H220560   1.676   1.441   2.482
 6866TIP3   OH220561   5.268   2.468   5.227
 6866TIP3    H120562   5.272   2.373   5.241
 6866TIP3    H220563   5.324   2.484   5.152
 6867TIP3   OH220564   1.475   5.860   1.593
 6867TIP3    H120565   1.443   5.770   1.582
 6867TIP3    H220566   1.401   5.915   1.569
 6868TIP3   OH220567   4.751   3.452   3.275
 6868TIP3    H120568   4.752   3.504   3.356
 6868TIP3    H220569   4.835   3.470   3.234
 6869TIP3   OH220570   4.322   0.390   0.103
 6869TIP3    H120571   4.293   0.430   0.021
 6869TIP3    H220572   4.308   0.296   0.089
 6870TIP3   OH220573   1.548   1.446   5.271
 6870TIP3    H120574   1.456   1.460   5.295
 6870TIP3    H220575   1.568   1.358   5.303
 6871TIP3   OH220576   6.282   2.802   4.759
 6871TIP3    H120577   6.299   2.741   4.688
 6871TIP3    H220578   6.282   2.748   4.838
 6872TIP3   OH220579   4.998   1.523   2.020
 6872TIP3    H120580   5.043   1.577   1.954
 6872TIP3    H220581   5.066   1.502   2.084
 6873TIP3   OH220582   5.837   2.977   3.565
 6873TIP3    H120583   5.748   2.968   3.598
 6873TIP3    H220584   5.847   2.906   3.501
 6874TIP3   OH220585   1.940   1.736   5.778
 6874TIP3    H120586   1.981   1.651   5.760
 6874TIP3    H220587   1.899   1.761   5.695
 6875TIP3   OH220588   5.570   4.560   5.724
 6875TIP3    H120589   5.637   4.495   5.705
 6875TIP3    H220590   5.585   4.630   5.661
 6876TIP3   OH220591   2.176   5.175   5.169
 6876TIP3    H120592   2.240   5.119   5.126
 6876TIP3    H220593   2.151   5.128   5.248
 6877TIP3   OH220594   6.918   0.595   0.129
 6877TIP3    H120595   6.904   0.510   0.088
 6877TIP3    H220596   7.013   0.610   0.123
 6878TIP3   OH220597   4.695   4.195   4.034
 6878TIP3    H120598   4.746   4.115   4.033
 6878TIP3    H220599   4.639   4.187   4.111
 6879TIP3   OH220600   7.127   2.206   4.563
 6879TIP3    H120601   7.054   2.259   4.596
 6879TIP3    H220602   7.096   2.173   4.479
 6880TIP3   OH220603   4.974   5.914   2.471
 6880TIP3    H120604   5.044   5.911   2.406
 6880TIP3    H220605   4.899   5.952   2.425
 6881TIP3   OH220606   4.022   1.374   4.904
 6881TIP3    H120607   3.946   1.394   4.959
 6881TIP3    H220608   4.036   1.453   4.852
 6882TIP3   OH220609   5.455   1.013   2.801
 6882TIP3    H120610   5.387   0.973   2.856
 6882TIP3    H220611   5.536   1.001   2.850
 6883TIP3   OH220612   6.762   4.643   2.580
 6883TIP3    H120613   6.669   4.658   2.593
 6883TIP3    H220614   6.776   4.553   2.610
 6884TIP3   OH220615   2.107   2.532   3.806
 6884TIP3    H120616   2.172   2.537   3.736
 6884TIP3    H220617   2.023   2.542   3.762
 6885TIP3   OH220618   4.517   1.379   4.095
 6885TIP3    H120619   4.458   1.454   4.092
 6885TIP3    H220620   4.605   1.416   4.096
 6886TIP3   OH220621   1.773   0.719   0.716
 6886TIP3    H120622   1.863   0.691   0.698
 6886TIP3    H220623   1.746   0.667   0.791
 6887TIP3   OH220624   5.387   1.594   4.120
 6887TIP3    H120625   5.344   1.625   4.040
 6887TIP3    H220626   5.481   1.600   4.101
 6888TIP3   OH220627   1.066   5.272   4.186
 6888TIP3    H120628   1.151   5.304   4.215
 6888TIP3    H220629   1.021   5.350   4.153
 6889TIP3   OH220630   6.623   6.741   4.108
 6889TIP3    H120631   6.588   6.824   4.142
 6889TIP3    H220632   6.545   6.687   4.092
 6890TIP3   OH220633   3.813   4.281   4.326
 6890TIP3    H120634   3.767   4.256   4.407
 6890TIP3    H220635   3.896   4.233   4.330
 6891TIP3   OH220636   4.412   2.498   4.248
 6891TIP3    H120637   4.332   2.539   4.217
 6891TIP3    H220638   4.454   2.565   4.302
 6892TIP3   OH220639   6.938   6.157   1.205
 6892TIP3    H120640   6.928   6.242   1.161
 6892TIP3    H220641   6.954   6.180   1.297
 6893TIP3   OH220642   0.768   3.037   5.049
 6893TIP3    H120643   0.804   3.125   5.061
 6893TIP3    H220644   0.730   3.038   4.962
 6894TIP3   OH220645   6.580   1.985   3.180
 6894TIP3    H120646   6.597   2.012   3.089
 6894TIP3    H220647   6.667   1.981   3.220
 6895TIP3   OH220648   6.953   6.728   0.456
 6895TIP3    H120649   6.999   6.645   0.474
 6895TIP3    H220650   6.868   6.717   0.498
 6896TIP3   OH220651   5.469   3.045   5.568
 6896TIP3    H120652   5.541   3.003   5.521
 6896TIP3    H220653   5.501   3.132   5.591
 6897TIP3   OH220654   2.288   2.022   2.214
 6897TIP3    H120655   2.275   2.060   2.127
 6897TIP3    H220656   2.375   1.982   2.210
 6898TIP3   OH220657   1.062   1.304   5.125
 6898TIP3    H120658   0.981   1.324   5.171
 6898TIP3    H220659   1.059   1.359   5.046
 6899TIP3   OH220660   3.212   6.324   1.536
 6899TIP3    H120661   3.198   6.400   1.479
 6899TIP3    H220662   3.308   6.317   1.543
 6900TIP3   OH220663   3.767   3.388   4.181
 6900TIP3    H120664   3.722   3.345   4.108
 6900TIP3    H220665   3.794   3.315   4.237
 6901TIP3   OH220666   5.118   0.033   4.564
 6901TIP3    H120667   5.065  -0.013   4.629
 6901TIP3    H220668   5.065   0.107   4.538
 6902TIP3   OH220669   4.528   3.569   3.145
 6902TIP3    H120670   4.556   3.527   3.064
 6902TIP3    H220671   4.581   3.527   3.213
 6903TIP3   OH220672   2.291   4.070   1.012
 6903TIP3    H120673   2.248   3.999   1.059
 6903TIP3    H220674   2.350   4.027   0.951
 6904TIP3   OH220675   4.560   3.174   3.191
 6904TIP3    H120676   4.593   3.094   3.151
 6904TIP3    H220677   4.636   3.213   3.234
 6905TIP3   OH220678   7.122   4.809   3.580
 6905TIP3    H120679   7.051   4.750   3.557
 6905TIP3    H220680   7.160   4.772   3.659
 6906TIP3   OH220681   5.355   3.255   1.321
 6906TIP3    H120682   5.411   3.198   1.268
 6906TIP3    H220683   5.268   3.217   1.312
 6907TIP3   OH220684   5.159   1.092   1.716
 6907TIP3    H120685   5.067   1.065   1.711
 6907TIP3    H220686   5.171   1.117   1.807
 6908TIP3   OH220687   6.012   0.058   0.467
 6908TIP3    H120688   6.032   0.041   0.375
 6908TIP3    H220689   6.097   0.077   0.507
 6909TIP3   OH220690   0.740   2.855   4.091
 6909TIP3    H120691   0.645   2.861   4.102
 6909TIP3    H220692   0.761   2.915   4.020
 6910TIP3   OH220693   6.889   5.528   2.205
 6910TIP3    H120694   6.918   5.610   2.165
 6910TIP3    H220695   6.965   5.469   2.197
 6911TIP3   OH220696   3.418   2.207   4.083
 6911TIP3    H120697   3.366   2.172   4.156
 6911TIP3    H220698   3.466   2.131   4.049
 6912TIP3   OH220699   2.989   4.847   0.501
 6912TIP3    H120700   2.986   4.935   0.538
 6912TIP3    H220701   3.051   4.853   0.429
 6913TIP3   OH220702   2.115   0.243   2.880
 6913TIP3    H120703   2.154   0.158   2.858
 6913TIP3    H220704   2.175   0.307   2.842
 6914TIP3   OH220705   3.129   5.430   4.536
 6914TIP3    H120706   3.178   5.373   4.476
 6914TIP3    H220707   3.193   5.452   4.605
 6915TIP3   OH220708   1.175   1.420   0.382
 6915TIP3    H120709   1.148   1.361   0.453
 6915TIP3    H220710   1.126   1.389   0.306
 6916TIP3   OH220711   1.176   2.905   1.013
 6916TIP3    H120712   1.204   2.836   0.953
 6916TIP3    H220713   1.197   2.987   0.967
 6917TIP3   OH220714   5.100   0.150   3.668
 6917TIP3    H120715   5.043   0.127   3.595
 6917TIP3    H220716   5.072   0.238   3.693
 6918TIP3   OH220717   2.086   3.851   2.111
 6918TIP3    H120718   2.066   3.781   2.174
 6918TIP3    H220719   2.024   3.921   2.134
 6919TIP3   OH220720   4.078   6.611   1.289
 6919TIP3    H120721   4.014   6.608   1.360
 6919TIP3    H220722   4.075   6.702   1.259
 6920TIP3   OH220723   0.125   5.643   4.032
 6920TIP3    H120724   0.155   5.712   4.091
 6920TIP3    H220725   0.050   5.604   4.076
 6921TIP3   OH220726   5.305   4.382   1.652
 6921TIP3    H120727   5.324   4.473   1.628
 6921TIP3    H220728   5.327   4.332   1.573
 6922TIP3   OH220729   5.522   5.086   2.467
 6922TIP3    H120730   5.465   5.151   2.508
 6922TIP3    H220731   5.599   5.083   2.523
 6923TIP3   OH220732   0.705   3.718   5.535
 6923TIP3    H120733   0.744   3.742   5.619
 6923TIP3    H220734   0.693   3.623   5.541
 6924TIP3   OH220735   0.278   4.174   2.072
 6924TIP3    H120736   0.227   4.226   2.009
 6924TIP3    H220737   0.223   4.098   2.090
 6925TIP3   OH220738   2.572   2.606   2.587
 6925TIP3    H120739   2.522   2.543   2.536
 6925TIP3    H220740   2.529   2.690   2.570
 6926TIP3   OH220741   0.841   5.056   3.522
 6926TIP3    H120742   0.784   5.065   3.445
 6926TIP3    H220743   0.804   4.983   3.571
 6927TIP3   OH220744   2.739   4.810   1.173
 6927TIP3    H120745   2.724   4.855   1.256
 6927TIP3    H220746   2.800   4.866   1.125
 6928TIP3   OH220747   3.967   4.796   0.153
 6928TIP3    H120748   4.003   4.851   0.222
 6928TIP3    H220749   3.904   4.851   0.107
 6929TIP3   OH220750   5.189   1.756   1.114
 6929TIP3    H120751   5.161   1.678   1.162
 6929TIP3    H220752   5.282   1.741   1.098
 6930TIP3   OH220753   4.404   6.411   0.552
 6930TIP3    H120754   4.333   6.395   0.614
 6930TIP3    H220755   4.437   6.498   0.575
 6931TIP3   OH220756   4.849   4.986   2.754
 6931TIP3    H120757   4.933   5.016   2.787
 6931TIP3    H220758   4.786   5.014   2.820
 6932TIP3   OH220759   4.577   2.703   5.203
 6932TIP3    H120760   4.510   2.641   5.231
 6932TIP3    H220761   4.645   2.697   5.270
 6933TIP3   OH220762   1.317   6.317   4.187
 6933TIP3    H120763   1.222   6.324   4.182
 6933TIP3    H220764   1.343   6.274   4.105
 6934TIP3   OH220765   6.032   6.634   1.360
 6934TIP3    H120766   5.993   6.615   1.445
 6934TIP3    H220767   6.066   6.550   1.329
 6935TIP3   OH220768   5.139   6.688   0.714
 6935TIP3    H120769   5.132   6.663   0.622
 6935TIP3    H220770   5.208   6.754   0.716
 6936TIP3   OH220771   0.666   0.454   2.621
 6936TIP3    H120772   0.707   0.477   2.538
 6936TIP3    H220773   0.663   0.536   2.670
 6937TIP3   OH220774   0.980   0.671   0.893
 6937TIP3    H120775   1.053   0.706   0.944
 6937TIP3    H220776   0.916   0.742   0.891
 6938TIP3   OH220777   5.133   5.708   1.322
 6938TIP3    H120778   5.186   5.786   1.304
 6938TIP3    H220779   5.097   5.724   1.410
 6939TIP3   OH220780   5.716   3.492   0.358
 6939TIP3    H120781   5.736   3.421   0.419
 6939TIP3    H220782   5.724   3.572   0.411
 6940TIP3   OH220783   4.785   2.141   5.275
 6940TIP3    H120784   4.724   2.089   5.327
 6940TIP3    H220785   4.760   2.124   5.184
 6941TIP3   OH220786   7.255   2.442   2.829
 6941TIP3    H120787   7.167   2.414   2.854
 6941TIP3    H220788   7.242   2.529   2.792
 6942TIP3   OH220789   4.752   6.125   3.727
 6942TIP3    H120790   4.724   6.054   3.669
 6942TIP3    H220791   4.767   6.199   3.668
 6943TIP3   OH220792   0.247   4.912   3.831
 6943TIP3    H120793   0.336   4.876   3.830
 6943TIP3    H220794   0.190   4.837   3.848
 6944TIP3   OH220795   2.641   1.629   4.709
 6944TIP3    H120796   2.714   1.680   4.744
 6944TIP3    H220797   2.612   1.574   4.782
 6945TIP3   OH220798   6.205   1.881   5.223
 6945TIP3    H120799   6.232   1.956   5.276
 6945TIP3    H220800   6.272   1.815   5.239
 6946TIP3   OH220801   6.487   0.579   2.401
 6946TIP3    H120802   6.481   0.628   2.319
 6946TIP3    H220803   6.443   0.634   2.465
 6947TIP3   OH220804   6.823   3.493   1.883
 6947TIP3    H120805   6.889   3.558   1.859
 6947TIP3    H220806   6.741   3.543   1.891
 6948TIP3   OH220807   1.230   0.548   5.594
 6948TIP3    H120808   1.273   0.568   5.677
 6948TIP3    H220809   1.302   0.545   5.531
 6949TIP3   OH220810   1.972   6.162   3.127
 6949TIP3    H120811   2.033   6.125   3.191
 6949TIP3    H220812   1.924   6.087   3.093
 6950TIP3   OH220813   2.629   0.921   1.788
 6950TIP3    H120814   2.535   0.918   1.808
 6950TIP3    H220815   2.663   0.991   1.844
 6951TIP3   OH220816   0.633   4.562   3.949
 6951TIP3    H120817   0.650   4.513   4.030
 6951TIP3    H220818   0.612   4.495   3.884
 6952TIP3   OH220819   3.934   2.022   1.455
 6952TIP3    H120820   3.937   1.960   1.382
 6952TIP3    H220821   3.872   2.089   1.428
 6953TIP3   OH220822   3.218   3.800   5.124
 6953TIP3    H120823   3.246   3.756   5.204
 6953TIP3    H220824   3.140   3.753   5.097
 6954TIP3   OH220825   0.086   4.232   3.056
 6954TIP3    H120826  -0.001   4.266   3.035
 6954TIP3    H220827   0.070   4.161   3.119
 6955TIP3   OH220828   2.743   4.096   1.805
 6955TIP3    H120829   2.714   4.035   1.873
 6955TIP3    H220830   2.706   4.061   1.724
 6956TIP3   OH220831   2.929   5.948   4.587
 6956TIP3    H120832   2.961   6.035   4.565
 6956TIP3    H220833   2.923   5.948   4.683
 6957TIP3   OH220834   0.623   2.204   3.410
 6957TIP3    H120835   0.585   2.160   3.334
 6957TIP3    H220836   0.616   2.140   3.481
 6958TIP3   OH220837   6.411   2.783   3.146
 6958TIP3    H120838   6.429   2.765   3.238
 6958TIP3    H220839   6.455   2.713   3.098
 6959TIP3   OH220840   2.089   3.145   0.234
 6959TIP3    H120841   2.070   3.097   0.153
 6959TIP3    H220842   2.096   3.078   0.301
 6960TIP3   OH220843   7.098   0.739   3.859
 6960TIP3    H120844   7.130   0.796   3.789
 6960TIP3    H220845   7.027   0.790   3.900
 6961TIP3   OH220846   4.495   4.659   0.793
 6961TIP3    H120847   4.570   4.712   0.820
 6961TIP3    H220848   4.433   4.722   0.756
 6962TIP3   OH220849   3.365   2.741   2.409
 6962TIP3    H120850   3.413   2.662   2.436
 6962TIP3    H220851   3.361   2.795   2.487
 6963TIP3   OH220852   1.583   5.053   0.628
 6963TIP3    H120853   1.519   5.001   0.677
 6963TIP3    H220854   1.530   5.108   0.571
 6964TIP3   OH220855   1.229   6.243   0.438
 6964TIP3    H120856   1.283   6.255   0.516
 6964TIP3    H220857   1.287   6.266   0.365
 6965TIP3   OH220858   1.483   3.491   3.766
 6965TIP3    H120859   1.437   3.410   3.746
 6965TIP3    H220860   1.428   3.535   3.831
 6966TIP3   OH220861   5.518   1.963   4.892
 6966TIP3    H120862   5.542   1.871   4.885
 6966TIP3    H220863   5.483   1.972   4.980
 6967TIP3   OH220864   1.443   6.156   2.480
 6967TIP3    H120865   1.439   6.250   2.462
 6967TIP3    H220866   1.457   6.116   2.394
 6968TIP3   OH220867   5.875   0.761   3.351
 6968TIP3    H120868   5.932   0.819   3.301
 6968TIP3    H220869   5.935   0.708   3.403
 6969TIP3   OH220870   1.402   4.604   0.917
 6969TIP3    H120871   1.400   4.559   0.833
 6969TIP3    H220872   1.473   4.562   0.965
 6970TIP3   OH220873   3.297   2.499   0.977
 6970TIP3    H120874   3.329   2.409   0.977
 6970TIP3    H220875   3.358   2.546   1.034
 6971TIP3   OH220876   7.075   5.430   4.912
 6971TIP3    H120877   7.009   5.480   4.960
 6971TIP3    H220878   7.152   5.487   4.912
 6972TIP3   OH220879   4.429   1.747   5.098
 6972TIP3    H120880   4.459   1.718   5.184
 6972TIP3    H220881   4.450   1.674   5.040
 6973TIP3   OH220882   0.898   3.842   4.639
 6973TIP3    H120883   0.894   3.748   4.619
 6973TIP3    H220884   0.982   3.854   4.683
 6974TIP3   OH220885   4.854   5.743   2.980
 6974TIP3    H120886   4.886   5.735   2.890
 6974TIP3    H220887   4.759   5.748   2.971
 6975TIP3   OH220888   4.791   6.201   1.945
 6975TIP3    H120889   4.844   6.122   1.952
 6975TIP3    H220890   4.762   6.219   2.035
 6976TIP3   OH220891   5.567   1.408   1.026
 6976TIP3    H120892   5.495   1.356   0.990
 6976TIP3    H220893   5.541   1.428   1.116
 6977TIP3   OH220894   5.562   3.064   1.575
 6977TIP3    H120895   5.597   2.995   1.519
 6977TIP3    H220896   5.473   3.035   1.596
 6978TIP3   OH220897   6.865   4.211   3.525
 6978TIP3    H120898   6.775   4.193   3.553
 6978TIP3    H220899   6.911   4.234   3.606
 6979TIP3   OH220900   2.823   6.574   3.233
 6979TIP3    H120901   2.783   6.500   3.188
 6979TIP3    H220902   2.846   6.635   3.163
 6980TIP3   OH220903   3.748   2.599   0.186
 6980TIP3    H120904   3.780   2.689   0.177
 6980TIP3    H220905   3.685   2.603   0.258
 6981TIP3   OH220906   1.703   0.150   4.231
 6981TIP3    H120907   1.722   0.238   4.200
 6981TIP3    H220908   1.620   0.158   4.278
 6982TIP3   OH220909   6.795   3.090   0.038
 6982TIP3    H120910   6.869   3.143   0.069
 6982TIP3    H220911   6.835   3.012   0.001
 6983TIP3   OH220912   5.951   3.027   4.231
 6983TIP3    H120913   5.931   2.934   4.237
 6983TIP3    H220914   5.928   3.051   4.141
 6984TIP3   OH220915   3.815   5.597   0.959
 6984TIP3    H120916   3.808   5.685   0.921
 6984TIP3    H220917   3.849   5.543   0.887
 6985TIP3   OH220918   4.917   6.377   4.002
 6985TIP3    H120919   4.948   6.433   4.072
 6985TIP3    H220920   4.924   6.288   4.037
 6986TIP3   OH220921   5.320   3.919   4.099
 6986TIP3    H120922   5.354   4.007   4.087
 6986TIP3    H220923   5.228   3.932   4.123
 6987TIP3   OH220924   0.459   4.884   0.727
 6987TIP3    H120925   0.455   4.808   0.670
 6987TIP3    H220926   0.406   4.861   0.803
 6988TIP3   OH220927   0.236   3.523   4.824
 6988TIP3    H120928   0.231   3.463   4.750
 6988TIP3    H220929   0.167   3.588   4.808
 6989TIP3   OH220930   1.989   0.662   2.742
 6989TIP3    H120931   2.000   0.753   2.716
 6989TIP3    H220932   1.906   0.661   2.789
 6990TIP3   OH220933   3.574   0.205   1.595
 6990TIP3    H120934   3.545   0.114   1.583
 6990TIP3    H220935   3.494   0.253   1.614
 6991TIP3   OH220936   4.691   2.525   2.143
 6991TIP3    H120937   4.783   2.529   2.169
 6991TIP3    H220938   4.671   2.431   2.145
 6992TIP3   OH220939   5.314   3.973   2.693
 6992TIP3    H120940   5.306   3.954   2.786
 6992TIP3    H220941   5.346   3.891   2.655
 6993TIP3   OH220942   1.475   4.315   2.133
 6993TIP3    H120943   1.417   4.346   2.063
 6993TIP3    H220944   1.435   4.233   2.163
 6994TIP3   OH220945   4.218   4.096   1.803
 6994TIP3    H120946   4.164   4.163   1.845
 6994TIP3    H220947   4.159   4.055   1.739
 6995TIP3   OH220948   3.695   3.609   0.194
 6995TIP3    H120949   3.651   3.650   0.268
 6995TIP3    H220950   3.786   3.641   0.199
 6996TIP3   OH220951   3.098   6.494   0.583
 6996TIP3    H120952   3.138   6.458   0.662
 6996TIP3    H220953   3.145   6.451   0.511
 6997TIP3   OH220954   1.800   2.387   3.468
 6997TIP3    H120955   1.773   2.337   3.391
 6997TIP3    H220956   1.883   2.349   3.493
 6998TIP3   OH220957   0.711   0.284   4.681
 6998TIP3    H120958   0.634   0.331   4.648
 6998TIP3    H220959   0.700   0.286   4.776
 6999TIP3   OH220960   5.185   0.983   2.605
 6999TIP3    H120961   5.168   1.011   2.515
 6999TIP3    H220962   5.151   1.055   2.659
 7000TIP3   OH220963   4.239   1.975   4.711
 7000TIP3    H120964   4.264   1.989   4.620
 7000TIP3    H220965   4.146   1.952   4.708
 7001TIP3   OH220966   2.687   6.520   1.855
 7001TIP3    H120967   2.717   6.431   1.876
 7001TIP3    H220968   2.701   6.569   1.936
 7002TIP3   OH220969   7.200   2.484   5.489
 7002TIP3    H120970   7.141   2.560   5.493
 7002TIP3    H220971   7.252   2.499   5.410
 7003TIP3   OH220972   2.680   6.102   5.304
 7003TIP3    H120973   2.591   6.125   5.330
 7003TIP3    H220974   2.721   6.072   5.385
 7004TIP3   OH220975   4.629   5.551   2.794
 7004TIP3    H120976   4.660   5.640   2.778
 7004TIP3    H220977   4.705   5.505   2.829
 7005TIP3   OH220978   4.547   3.419   0.791
 7005TIP3    H120979   4.584   3.473   0.720
 7005TIP3    H220980   4.621   3.401   0.849
 7006TIP3   OH220981   0.255   2.194   1.366
 7006TIP3    H120982   0.239   2.239   1.284
 7006TIP3    H220983   0.206   2.245   1.431
 7007TIP3   OH220984   6.896   0.172   0.987
 7007TIP3    H120985   6.880   0.194   1.079
 7007TIP3    H220986   6.890   0.076   0.984
 7008TIP3   OH220987   0.361   5.237   4.688
 7008TIP3    H120988   0.403   5.151   4.685
 7008TIP3    H220989   0.434   5.299   4.699
 7009TIP3   OH220990   1.167   4.709   2.427
 7009TIP3    H120991   1.173   4.731   2.520
 7009TIP3    H220992   1.225   4.634   2.416
 7010TIP3   OH220993   2.087   4.287   2.878
 7010TIP3    H120994   2.003   4.242   2.871
 7010TIP3    H220995   2.066   4.375   2.909
 7011TIP3   OH220996   0.782   6.725   0.520
 7011TIP3    H120997   0.830   6.643   0.507
 7011TIP3    H220998   0.777   6.763   0.432
 7012TIP3   OH220999   0.258   2.613   0.610
 7012TIP3    H121000   0.238   2.577   0.523
 7012TIP3    H221001   0.349   2.643   0.604
 7013TIP3   OH221002   4.118   6.287   4.080
 7013TIP3    H121003   4.100   6.198   4.109
 7013TIP3    H221004   4.167   6.326   4.152
 7014TIP3   OH221005   5.321   2.558   1.265
 7014TIP3    H121006   5.357   2.594   1.184
 7014TIP3    H221007   5.372   2.599   1.334
 7015TIP3   OH221008   0.977   2.597   3.743
 7015TIP3    H121009   0.980   2.514   3.696
 7015TIP3    H221010   1.033   2.655   3.692
 7016TIP3   OH221011   4.305   3.069   4.368
 7016TIP3    H121012   4.400   3.056   4.364
 7016TIP3    H221013   4.282   3.054   4.459
 7017TIP3   OH221014   3.097   2.680   0.946
 7017TIP3    H121015   3.172   2.621   0.955
 7017TIP3    H221016   3.026   2.636   0.992
 7018TIP3   OH221017   1.037   5.487   1.537
 7018TIP3    H121018   1.086   5.568   1.546
 7018TIP3    H221019   0.963   5.509   1.481
 7019TIP3   OH221020   0.990   2.673   1.504
 7019TIP3    H121021   1.056   2.665   1.573
 7019TIP3    H221022   0.965   2.765   1.505
 7020TIP3   OH221023   0.931   1.143   1.968
 7020TIP3    H121024   1.003   1.105   2.017
 7020TIP3    H221025   0.905   1.075   1.906
 7021TIP3   OH221026   3.894   2.782   3.331
 7021TIP3    H121027   3.849   2.793   3.414
 7021TIP3    H221028   3.970   2.726   3.352
 7022TIP3   OH221029   1.190   1.515   3.614
 7022TIP3    H121030   1.203   1.461   3.692
 7022TIP3    H221031   1.133   1.463   3.557
 7023TIP3   OH221032   0.478   5.502   5.837
 7023TIP3    H121033   0.455   5.482   5.927
 7023TIP3    H221034   0.458   5.595   5.827
 7024TIP3   OH221035   4.776   6.752   1.766
 7024TIP3    H121036   4.772   6.662   1.798
 7024TIP3    H221037   4.851   6.790   1.811
 7025TIP3   OH221038   0.234   4.602   5.559
 7025TIP3    H121039   0.328   4.608   5.543
 7025TIP3    H221040   0.194   4.617   5.473
 7026TIP3   OH221041   4.302   0.949   4.162
 7026TIP3    H121042   4.283   1.036   4.199
 7026TIP3    H221043   4.276   0.888   4.231
 7027TIP3   OH221044   4.473   0.458   4.160
 7027TIP3    H121045   4.517   0.405   4.094
 7027TIP3    H221046   4.511   0.545   4.151
 7028TIP3   OH221047   1.442   2.819   4.242
 7028TIP3    H121048   1.530   2.834   4.206
 7028TIP3    H221049   1.439   2.873   4.321
 7029TIP3   OH221050   5.310   3.976   2.080
 7029TIP3    H121051   5.256   4.048   2.111
 7029TIP3    H221052   5.251   3.901   2.076
 7030TIP3   OH221053   0.851   3.756   1.995
 7030TIP3    H121054   0.899   3.731   2.074
 7030TIP3    H221055   0.817   3.673   1.961
 7031TIP3   OH221056   4.103   5.869   1.032
 7031TIP3    H121057   4.086   5.793   0.977
 7031TIP3    H221058   4.137   5.833   1.114
 7032TIP3   OH221059   6.928   6.403   0.910
 7032TIP3    H121060   6.942   6.428   0.818
 7032TIP3    H221061   6.960   6.313   0.915
 7033TIP3   OH221062   5.643   3.955   3.620
 7033TIP3    H121063   5.696   4.002   3.684
 7033TIP3    H221064   5.692   3.963   3.538
 7034TIP3   OH221065   1.694   4.202   0.851
 7034TIP3    H121066   1.774   4.254   0.851
 7034TIP3    H221067   1.718   4.121   0.897
 7035TIP3   OH221068   3.752   4.977   0.083
 7035TIP3    H121069   3.737   5.009  -0.006
 7035TIP3    H221070   3.724   4.885   0.080
 7036TIP3   OH221071   5.416   5.229   5.507
 7036TIP3    H121072   5.356   5.185   5.448
 7036TIP3    H221073   5.360   5.274   5.570
 7037TIP3   OH221074   1.928   1.583   4.949
 7037TIP3    H121075   2.015   1.598   4.987
 7037TIP3    H221076   1.941   1.595   4.855
 7038TIP3   OH221077   3.482   1.098   4.041
 7038TIP3    H121078   3.454   1.066   3.955
 7038TIP3    H221079   3.549   1.037   4.069
 7039TIP3   OH221080   5.337   0.181   5.623
 7039TIP3    H121081   5.335   0.237   5.546
 7039TIP3    H221082   5.251   0.193   5.664
 7040TIP3   OH221083   5.641   5.913   5.631
 7040TIP3    H121084   5.591   5.972   5.574
 7040TIP3    H221085   5.691   5.972   5.688
 7041TIP3   OH221086   2.066   3.407   5.752
 7041TIP3    H121087   2.030   3.468   5.686
 7041TIP3    H221088   2.058   3.321   5.711
 7042TIP3   OH221089   3.646   5.363   1.026
 7042TIP3    H121090   3.700   5.438   1.000
 7042TIP3    H221091   3.556   5.397   1.025
 7043TIP3   OH221092   4.145   2.045   2.959
 7043TIP3    H121093   4.219   2.086   3.004
 7043TIP3    H221094   4.173   2.041   2.867
 7044TIP3   OH221095   4.701   1.216   5.068
 7044TIP3    H121096   4.641   1.260   5.008
 7044TIP3    H221097   4.679   1.123   5.061
 7045TIP3   OH221098   0.910   5.894   4.451
 7045TIP3    H121099   0.918   5.812   4.401
 7045TIP3    H221100   0.900   5.866   4.542
 7046TIP3   OH221101   5.169   0.804   3.725
 7046TIP3    H121102   5.169   0.791   3.630
 7046TIP3    H221103   5.255   0.842   3.743
 7047TIP3   OH221104   6.239   1.632   1.302
 7047TIP3    H121105   6.309   1.584   1.259
 7047TIP3    H221106   6.244   1.604   1.394
 7048TIP3   OH221107   1.629   0.331   4.995
 7048TIP3    H121108   1.586   0.417   4.994
 7048TIP3    H221109   1.623   0.303   5.087
 7049TIP3   OH221110   1.388   4.944   3.196
 7049TIP3    H121111   1.394   4.887   3.273
 7049TIP3    H221112   1.319   5.006   3.217
 7050TIP3   OH221113   3.715   5.878   0.055
 7050TIP3    H121114   3.625   5.853   0.076
 7050TIP3    H221115   3.719   5.877  -0.040
 7051TIP3   OH221116   6.617   3.311   2.497
 7051TIP3    H121117   6.683   3.248   2.466
 7051TIP3    H221118   6.668   3.390   2.517
 7052TIP3   OH221119   4.512   0.421   4.943
 7052TIP3    H121120   4.564   0.342   4.928
 7052TIP3    H221121   4.486   0.449   4.855
 7053TIP3   OH221122   6.235   6.123   0.725
 7053TIP3    H121123   6.319   6.083   0.746
 7053TIP3    H221124   6.255   6.217   0.716
 7054TIP3   OH221125   4.814   5.229   5.762
 7054TIP3    H121126   4.802   5.274   5.845
 7054TIP3    H221127   4.843   5.297   5.701
 7055TIP3   OH221128   5.774   1.921   5.581
 7055TIP3    H121129   5.797   1.955   5.495
 7055TIP3    H221130   5.685   1.889   5.572
 7056TIP3   OH221131   0.562   0.441   2.246
 7056TIP3    H121132   0.575   0.361   2.297
 7056TIP3    H221133   0.496   0.490   2.295
 7057TIP3   OH221134   3.821   3.742   3.531
 7057TIP3    H121135   3.898   3.744   3.474
 7057TIP3    H221136   3.830   3.819   3.587
 7058TIP3   OH221137   4.126   5.154   2.384
 7058TIP3    H121138   4.106   5.235   2.431
 7058TIP3    H221139   4.184   5.105   2.442
 7059TIP3   OH221140   6.037   0.783   4.485
 7059TIP3    H121141   6.062   0.692   4.497
 7059TIP3    H221142   5.976   0.801   4.557
 7060TIP3   OH221143   6.885   4.697   0.065
 7060TIP3    H121144   6.930   4.648   0.134
 7060TIP3    H221145   6.826   4.755   0.111
 7061TIP3   OH221146   5.038   2.478   4.236
 7061TIP3    H121147   5.036   2.454   4.328
 7061TIP3    H221148   5.119   2.527   4.225
 7062TIP3   OH221149   1.080   3.701   1.573
 7062TIP3    H121150   1.119   3.739   1.651
 7062TIP3    H221151   1.001   3.753   1.558
 7063TIP3   OH221152   4.085   0.386   5.205
 7063TIP3    H121153   4.135   0.321   5.154
 7063TIP3    H221154   3.994   0.359   5.195
 7064TIP3   OH221155   1.759   5.311   5.768
 7064TIP3    H121156   1.755   5.292   5.862
 7064TIP3    H221157   1.764   5.225   5.726
 7065TIP3   OH221158   2.087   4.997   5.384
 7065TIP3    H121159   2.011   5.044   5.418
 7065TIP3    H221160   2.060   4.905   5.382
 7066TIP3   OH221161   4.436   3.720   5.431
 7066TIP3    H121162   4.379   3.649   5.400
 7066TIP3    H221163   4.407   3.736   5.521
 7067TIP3   OH221164   2.195   2.692   1.795
 7067TIP3    H121165   2.158   2.671   1.709
 7067TIP3    H221166   2.277   2.736   1.775
 7068TIP3   OH221167   0.300   2.200  -0.033
 7068TIP3    H121168   0.212   2.230  -0.011
 7068TIP3    H221169   0.297   2.105  -0.023
 7069TIP3   OH221170   1.479   0.753   0.381
 7069TIP3    H121171   1.571   0.777   0.396
 7069TIP3    H221172   1.467   0.673   0.432
 7070TIP3   OH221173   4.166   6.585   0.900
 7070TIP3    H121174   4.223   6.514   0.872
 7070TIP3    H221175   4.078   6.547   0.898
 7071TIP3   OH221176   5.659   2.933   3.049
 7071TIP3    H121177   5.591   2.963   2.989
 7071TIP3    H221178   5.654   2.993   3.124
 7072TIP3   OH221179   3.980   1.369   2.602
 7072TIP3    H121180   3.915   1.333   2.662
 7072TIP3    H221181   4.000   1.456   2.637
 7073TIP3   OH221182   0.588   0.649   0.379
 7073TIP3    H121183   0.662   0.710   0.367
 7073TIP3    H221184   0.532   0.664   0.303
 7074TIP3   OH221185   3.821   1.012   4.837
 7074TIP3    H121186   3.843   1.064   4.760
 7074TIP3    H221187   3.853   1.064   4.911
 7075TIP3   OH221188   3.753   4.653   1.657
 7075TIP3    H121189   3.832   4.640   1.604
 7075TIP3    H221190   3.704   4.571   1.646
 7076TIP3   OH221191   5.334   4.375   1.192
 7076TIP3    H121192   5.382   4.315   1.135
 7076TIP3    H221193   5.368   4.462   1.171
 7077TIP3   OH221194   2.033   5.588   2.617
 7077TIP3    H121195   2.121   5.559   2.643
 7077TIP3    H221196   1.975   5.520   2.650
 7078TIP3   OH221197   6.344   6.662   3.052
 7078TIP3    H121198   6.382   6.652   2.965
 7078TIP3    H221199   6.253   6.635   3.041
 7079TIP3   OH221200   6.165   4.798   4.989
 7079TIP3    H121201   6.085   4.851   4.985
 7079TIP3    H221202   6.229   4.848   4.939
 7080TIP3   OH221203   1.272   1.697   0.744
 7080TIP3    H121204   1.223   1.698   0.662
 7080TIP3    H221205   1.349   1.750   0.727
 7081TIP3   OH221206   3.105   3.527   0.775
 7081TIP3    H121207   3.199   3.541   0.789
 7081TIP3    H221208   3.068   3.523   0.863
 7082TIP3   OH221209   4.327   2.499   0.345
 7082TIP3    H121210   4.242   2.540   0.362
 7082TIP3    H221211   4.309   2.433   0.279
 7083TIP3   OH221212   0.693   1.523   5.125
 7083TIP3    H121213   0.700   1.440   5.173
 7083TIP3    H221214   0.613   1.563   5.158
 7084TIP3   OH221215   4.583   4.261   1.708
 7084TIP3    H121216   4.570   4.328   1.641
 7084TIP3    H221217   4.521   4.283   1.777
 7085TIP3   OH221218   4.925   5.355   4.286
 7085TIP3    H121219   4.911   5.281   4.346
 7085TIP3    H221220   4.878   5.428   4.326
 7086TIP3   OH221221   5.235   5.230   4.264
 7086TIP3    H121222   5.154   5.216   4.214
 7086TIP3    H221223   5.210   5.291   4.333
 7087TIP3   OH221224   2.141   3.508   2.462
 7087TIP3    H121225   2.163   3.559   2.540
 7087TIP3    H221226   2.053   3.473   2.480
 7088TIP3   OH221227   4.004   5.734   1.590
 7088TIP3    H121228   4.015   5.673   1.663
 7088TIP3    H221229   4.085   5.786   1.590
 7089TIP3   OH221230   1.243   2.296   4.114
 7089TIP3    H121231   1.176   2.268   4.177
 7089TIP3    H221232   1.324   2.296   4.165
 7090TIP3   OH221233   1.372   6.279   5.117
 7090TIP3    H121234   1.435   6.339   5.159
 7090TIP3    H221235   1.340   6.327   5.041
 7091TIP3   OH221236   2.205   3.287   1.130
 7091TIP3    H121237   2.186   3.200   1.164
 7091TIP3    H221238   2.298   3.301   1.150
 7092TIP3   OH221239   6.925   6.161   4.520
 7092TIP3    H121240   6.882   6.222   4.580
 7092TIP3    H221241   6.945   6.084   4.574
 7093TIP3   OH221242   1.978   2.693   0.455
 7093TIP3    H121243   2.019   2.691   0.541
 7093TIP3    H221244   1.951   2.602   0.439
 7094TIP3   OH221245   1.898   5.544   2.870
 7094TIP3    H121246   1.829   5.532   2.935
 7094TIP3    H221247   1.965   5.480   2.895
 7095TIP3   OH221248   5.677   0.163   2.579
 7095TIP3    H121249   5.584   0.151   2.596
 7095TIP3    H221250   5.684   0.251   2.542
 7096TIP3   OH221251   2.932   5.546   0.609
 7096TIP3    H121252   2.882   5.614   0.565
 7096TIP3    H221253   2.867   5.499   0.663
 7097TIP3   OH221254   3.592   5.634   4.832
 7097TIP3    H121255   3.528   5.605   4.896
 7097TIP3    H221256   3.550   5.706   4.786
 7098TIP3   OH221257   0.676   4.551   0.496
 7098TIP3    H121258   0.732   4.568   0.420
 7098TIP3    H221259   0.735   4.552   0.571
 7099TIP3   OH221260   2.308   5.658   4.054
 7099TIP3    H121261   2.354   5.575   4.060
 7099TIP3    H221262   2.376   5.724   4.069
 7100TIP3   OH221263   1.451   5.042   1.813
 7100TIP3    H121264   1.455   4.967   1.872
 7100TIP3    H221265   1.532   5.037   1.761
 7101TIP3   OH221266   4.671   3.544   5.127
 7101TIP3    H121267   4.616   3.618   5.153
 7101TIP3    H221268   4.616   3.467   5.141
 7102TIP3   OH221269   2.984   1.343   0.607
 7102TIP3    H121270   3.016   1.367   0.520
 7102TIP3    H221271   2.899   1.302   0.591
 7103TIP3   OH221272   6.124   6.094   1.216
 7103TIP3    H121273   6.178   6.080   1.294
 7103TIP3    H221274   6.129   6.011   1.168
 7104TIP3   OH221275   0.283   4.894   2.807
 7104TIP3    H121276   0.295   4.988   2.800
 7104TIP3    H221277   0.190   4.880   2.793
 7105TIP3   OH221278   5.789   5.291   3.784
 7105TIP3    H121279   5.712   5.237   3.800
 7105TIP3    H221280   5.754   5.373   3.748
 7106TIP3   OH221281   7.039   1.183   0.351
 7106TIP3    H121282   6.948   1.193   0.378
 7106TIP3    H221283   7.052   1.252   0.286
 7107TIP3   OH221284   6.929   1.011   1.297
 7107TIP3    H121285   6.885   1.090   1.264
 7107TIP3    H221286   6.901   1.004   1.388
 7108TIP3   OH221287   1.935   1.555   2.428
 7108TIP3    H121288   2.008   1.594   2.381
 7108TIP3    H221289   1.972   1.530   2.513
 7109TIP3   OH221290   4.486   3.267   1.921
 7109TIP3    H121291   4.528   3.219   1.993
 7109TIP3    H221292   4.530   3.352   1.920
 7110TIP3   OH221293   1.821   5.251   5.197
 7110TIP3    H121294   1.827   5.159   5.170
 7110TIP3    H221295   1.796   5.297   5.117
 7111TIP3   OH221296   5.480   3.380   3.894
 7111TIP3    H121297   5.529   3.370   3.812
 7111TIP3    H221298   5.536   3.340   3.960
 7112TIP3   OH221299   6.042   5.394   1.461
 7112TIP3    H121300   5.999   5.444   1.391
 7112TIP3    H221301   6.069   5.460   1.524
 7113TIP3   OH221302   1.676   5.736   3.803
 7113TIP3    H121303   1.638   5.716   3.718
 7113TIP3    H221304   1.628   5.681   3.864
 7114TIP3   OH221305   0.418   3.196   5.768
 7114TIP3    H121306   0.367   3.250   5.827
 7114TIP3    H221307   0.506   3.233   5.771
 7115TIP3   OH221308   5.276   6.094   2.609
 7115TIP3    H121309   5.208   6.091   2.542
 7115TIP3    H221310   5.320   6.177   2.596
 7116TIP3   OH221311   5.981   4.381   3.416
 7116TIP3    H121312   5.952   4.464   3.454
 7116TIP3    H221313   6.021   4.406   3.333
 7117TIP3   OH221314   1.124   3.316   1.889
 7117TIP3    H121315   1.216   3.313   1.864
 7117TIP3    H221316   1.078   3.334   1.807
 7118TIP3   OH221317   2.324   2.905   4.220
 7118TIP3    H121318   2.318   2.843   4.147
 7118TIP3    H221319   2.329   2.991   4.177
 7119TIP3   OH221320   4.115   3.444   3.403
 7119TIP3    H121321   4.066   3.520   3.372
 7119TIP3    H221322   4.059   3.369   3.380
 7120TIP3   OH221323   3.743   2.285   0.984
 7120TIP3    H121324   3.784   2.356   0.935
 7120TIP3    H221325   3.797   2.276   1.063
 7121TIP3   OH221326   3.687   4.461   4.572
 7121TIP3    H121327   3.718   4.409   4.646
 7121TIP3    H221328   3.767   4.483   4.523
 7122TIP3   OH221329   0.873   5.599   3.619
 7122TIP3    H121330   0.952   5.546   3.628
 7122TIP3    H221331   0.887   5.650   3.539
 7123TIP3   OH221332   4.683   4.860   3.375
 7123TIP3    H121333   4.666   4.807   3.453
 7123TIP3    H221334   4.737   4.804   3.319
 7124TIP3   OH221335   1.631   4.838   5.688
 7124TIP3    H121336   1.627   4.761   5.745
 7124TIP3    H221337   1.652   4.910   5.747
 7125TIP3   OH221338   6.327   3.139   5.564
 7125TIP3    H121339   6.257   3.075   5.557
 7125TIP3    H221340   6.363   3.146   5.476
 7126TIP3   OH221341   5.602   3.921   0.488
 7126TIP3    H121342   5.511   3.916   0.458
 7126TIP3    H221343   5.624   4.014   0.483
 7127TIP3   OH221344   4.451   1.513   2.909
 7127TIP3    H121345   4.440   1.423   2.940
 7127TIP3    H221346   4.538   1.514   2.869
 7128TIP3   OH221347   1.358   0.414   1.734
 7128TIP3    H121348   1.323   0.345   1.679
 7128TIP3    H221349   1.407   0.471   1.673
 7129TIP3   OH221350   2.970   1.681   1.658
 7129TIP3    H121351   2.944   1.636   1.578
 7129TIP3    H221352   3.027   1.619   1.703
 7130TIP3   OH221353   6.249   0.320   5.461
 7130TIP3    H121354   6.213   0.246   5.412
 7130TIP3    H221355   6.311   0.361   5.401
 7131TIP3   OH221356   5.778   2.228   1.444
 7131TIP3    H121357   5.855   2.209   1.497
 7131TIP3    H221358   5.758   2.320   1.462
 7132TIP3   OH221359   3.427   5.510   1.083
 7132TIP3    H121360   3.381   5.549   1.009
 7132TIP3    H221361   3.361   5.456   1.127
 7133TIP3   OH221362   5.695   5.400   0.045
 7133TIP3    H121363   5.698   5.326  -0.016
 7133TIP3    H221364   5.624   5.379   0.106
 7134TIP3   OH221365   6.202   4.311   0.810
 7134TIP3    H121366   6.182   4.404   0.816
 7134TIP3    H221367   6.164   4.284   0.726
 7135TIP3   OH221368   2.196   1.821   3.852
 7135TIP3    H121369   2.171   1.862   3.769
 7135TIP3    H221370   2.290   1.805   3.844
 7136TIP3   OH221371   4.050   1.871   2.343
 7136TIP3    H121372   3.981   1.902   2.401
 7136TIP3    H221373   4.011   1.872   2.255
 7137TIP3   OH221374   2.301   5.949   2.257
 7137TIP3    H121375   2.303   6.038   2.294
 7137TIP3    H221376   2.386   5.912   2.277
 7138TIP3   OH221377   0.053   4.734   0.442
 7138TIP3    H121378   0.084   4.812   0.488
 7138TIP3    H221379   0.076   4.751   0.350
 7139TIP3   OH221380   5.132   1.636   3.026
 7139TIP3    H121381   5.192   1.634   2.951
 7139TIP3    H221382   5.176   1.689   3.091
 7140TIP3   OH221383   0.084   3.805   5.429
 7140TIP3    H121384   0.058   3.859   5.504
 7140TIP3    H221385   0.080   3.715   5.461
 7141TIP3   OH221386   3.872   4.980   4.343
 7141TIP3    H121387   3.818   4.920   4.395
 7141TIP3    H221388   3.809   5.027   4.289
 7142TIP3   OH221389   3.749   5.651   0.247
 7142TIP3    H121390   3.681   5.599   0.205
 7142TIP3    H221391   3.763   5.726   0.189
 7143TIP3   OH221392   2.747   5.923   0.279
 7143TIP3    H121393   2.711   5.908   0.191
 7143TIP3    H221394   2.804   5.999   0.268
 7144TIP3   OH221395   7.056   4.638   1.487
 7144TIP3    H121396   6.972   4.682   1.498
 7144TIP3    H221397   7.101   4.688   1.420
 7145TIP3   OH221398   1.440   5.514   2.250
 7145TIP3    H121399   1.361   5.509   2.195
 7145TIP3    H221400   1.408   5.548   2.334
 7146TIP3   OH221401   5.378   4.659   1.699
 7146TIP3    H121402   5.376   4.684   1.791
 7146TIP3    H221403   5.308   4.709   1.658
 7147TIP3   OH221404   4.995   2.453   1.952
 7147TIP3    H121405   5.079   2.447   1.998
 7147TIP3    H221406   4.999   2.537   1.906
 7148TIP3   OH221407   1.440   1.138   2.018
 7148TIP3    H121408   1.453   1.223   2.060
 7148TIP3    H221409   1.423   1.077   2.090
 7149TIP3   OH221410   4.740   3.418   1.747
 7149TIP3    H121411   4.760   3.439   1.838
 7149TIP3    H221412   4.788   3.485   1.697
 7150TIP3   OH221413   6.445   1.725   4.466
 7150TIP3    H121414   6.443   1.744   4.560
 7150TIP3    H221415   6.508   1.788   4.430
 7151TIP3   OH221416   4.975   5.878   1.161
 7151TIP3    H121417   4.957   5.861   1.253
 7151TIP3    H221418   4.897   5.848   1.115
 7152TIP3   OH221419   0.371   1.023   3.934
 7152TIP3    H121420   0.466   1.021   3.930
 7152TIP3    H221421   0.349   0.962   4.004
 7153TIP3   OH221422   3.074   5.797   3.533
 7153TIP3    H121423   3.090   5.775   3.442
 7153TIP3    H221424   2.981   5.780   3.546
 7154TIP3   OH221425   6.774   3.673   3.941
 7154TIP3    H121426   6.788   3.728   4.017
 7154TIP3    H221427   6.682   3.646   3.947
 7155TIP3   OH221428   5.068   2.670   4.794
 7155TIP3    H121429   5.140   2.609   4.813
 7155TIP3    H221430   5.111   2.746   4.755
 7156TIP3   OH221431   0.715   6.799   4.718
 7156TIP3    H121432   0.715   6.874   4.778
 7156TIP3    H221433   0.622   6.774   4.711
 7157TIP3   OH221434   4.215   4.442   4.079
 7157TIP3    H121435   4.239   4.349   4.076
 7157TIP3    H221436   4.154   4.453   4.007
 7158TIP3   OH221437   1.587   0.821   4.642
 7158TIP3    H121438   1.642   0.799   4.717
 7158TIP3    H221439   1.615   0.909   4.617
 7159TIP3   OH221440   0.111   0.056   0.792
 7159TIP3    H121441   0.086  -0.026   0.834
 7159TIP3    H221442   0.192   0.035   0.745
 7160TIP3   OH221443   0.661   6.486   4.292
 7160TIP3    H121444   0.663   6.405   4.344
 7160TIP3    H221445   0.584   6.533   4.325
 7161TIP3   OH221446   6.813   0.531   4.702
 7161TIP3    H121447   6.800   0.613   4.656
 7161TIP3    H221448   6.788   0.550   4.793
 7162TIP3   OH221449   6.535   6.001   3.327
 7162TIP3    H121450   6.464   6.019   3.266
 7162TIP3    H221451   6.586   5.932   3.285
 7163TIP3   OH221452   2.607   1.362   2.000
 7163TIP3    H121453   2.676   1.391   2.060
 7163TIP3    H221454   2.526   1.394   2.039
 7164TIP3   OH221455   5.189   4.057   1.674
 7164TIP3    H121456   5.144   4.116   1.734
 7164TIP3    H221457   5.282   4.070   1.693
 7165TIP3   OH221458   2.017   2.158   1.769
 7165TIP3    H121459   2.053   2.227   1.714
 7165TIP3    H221460   1.939   2.128   1.722
 7166TIP3   OH221461   2.892   1.920   5.121
 7166TIP3    H121462   2.816   1.862   5.124
 7166TIP3    H221463   2.876   1.985   5.190
 7167TIP3   OH221464   2.154   4.562   0.888
 7167TIP3    H121465   2.158   4.546   0.982
 7167TIP3    H221466   2.245   4.579   0.863
 7168TIP3   OH221467   1.812   0.083   3.157
 7168TIP3    H121468   1.778   0.149   3.097
 7168TIP3    H221469   1.739   0.063   3.215
 7169TIP3   OH221470   2.774   2.898   1.537
 7169TIP3    H121471   2.870   2.896   1.543
 7169TIP3    H221472   2.746   2.819   1.583
 7170TIP3   OH221473   1.817   1.453   0.181
 7170TIP3    H121474   1.892   1.447   0.122
 7170TIP3    H221475   1.745   1.412   0.133
 7171TIP3   OH221476   0.357   5.757   5.825
 7171TIP3    H121477   0.298   5.825   5.792
 7171TIP3    H221478   0.333   5.748   5.918
 7172TIP3   OH221479   6.779   2.252   3.118
 7172TIP3    H121480   6.730   2.197   3.057
 7172TIP3    H221481   6.831   2.191   3.169
 7173TIP3   OH221482   0.774   1.552   4.851
 7173TIP3    H121483   0.854   1.502   4.834
 7173TIP3    H221484   0.774   1.566   4.946
 7174TIP3   OH221485   0.152   1.418   4.236
 7174TIP3    H121486   0.204   1.484   4.282
 7174TIP3    H221487   0.102   1.468   4.171
 7175TIP3   OH221488   4.707   0.114   3.707
 7175TIP3    H121489   4.726   0.069   3.624
 7175TIP3    H221490   4.708   0.207   3.684
 7176TIP3   OH221491   1.711   6.594   2.468
 7176TIP3    H121492   1.766   6.515   2.469
 7176TIP3    H221493   1.765   6.661   2.510
 7177TIP3   OH221494   6.859   1.761   1.528
 7177TIP3    H121495   6.854   1.793   1.618
 7177TIP3    H221496   6.938   1.707   1.525
 7178TIP3   OH221497   1.545   5.620   0.150
 7178TIP3    H121498   1.574   5.537   0.113
 7178TIP3    H221499   1.510   5.669   0.076
 7179TIP3   OH221500   1.244   3.894   0.393
 7179TIP3    H121501   1.175   3.917   0.455
 7179TIP3    H221502   1.248   3.969   0.333
 7180TIP3   OH221503   1.570   1.193   0.331
 7180TIP3    H121504   1.531   1.204   0.418
 7180TIP3    H221505   1.548   1.274   0.285
 7181TIP3   OH221506   0.881   0.766   2.839
 7181TIP3    H121507   0.961   0.739   2.793
 7181TIP3    H221508   0.877   0.860   2.827
 7182TIP3   OH221509   2.862   5.292   4.574
 7182TIP3    H121510   2.943   5.341   4.562
 7182TIP3    H221511   2.837   5.263   4.486
 7183TIP3   OH221512   4.682   6.001   1.167
 7183TIP3    H121513   4.738   6.022   1.242
 7183TIP3    H221514   4.670   5.906   1.172
 7184TIP3   OH221515   7.184   2.485  -0.025
 7184TIP3    H121516   7.124   2.430  -0.075
 7184TIP3    H221517   7.128   2.535   0.034
 7185TIP3   OH221518   6.168   3.145   3.435
 7185TIP3    H121519   6.176   3.235   3.403
 7185TIP3    H221520   6.139   3.095   3.359
 7186TIP3   OH221521   1.285   4.203   0.095
 7186TIP3    H121522   1.330   4.196   0.180
 7186TIP3    H221523   1.321   4.131   0.043
 7187TIP3   OH221524   5.041   3.347   2.916
 7187TIP3    H121525   5.019   3.267   2.869
 7187TIP3    H221526   5.135   3.340   2.933
 7188TIP3   OH221527   4.813   0.777   5.701
 7188TIP3    H121528   4.832   0.706   5.640
 7188TIP3    H221529   4.862   0.852   5.667
 7189TIP3   OH221530   2.922   4.733   4.971
 7189TIP3    H121531   2.831   4.738   4.942
 7189TIP3    H221532   2.969   4.696   4.896
 7190TIP3   OH221533   1.918   0.950   4.106
 7190TIP3    H121534   2.003   0.995   4.103
 7190TIP3    H221535   1.937   0.865   4.144
 7191TIP3   OH221536   0.426   0.978   0.400
 7191TIP3    H121537   0.416   0.903   0.459
 7191TIP3    H221538   0.409   1.055   0.455
 7192TIP3   OH221539   2.736   3.592   2.492
 7192TIP3    H121540   2.677   3.537   2.543
 7192TIP3    H221541   2.683   3.620   2.417
 7193TIP3   OH221542   5.134   0.805   2.206
 7193TIP3    H121543   5.158   0.789   2.114
 7193TIP3    H221544   5.163   0.894   2.223
 7194TIP3   OH221545   6.443   3.978   4.943
 7194TIP3    H121546   6.496   3.959   4.866
 7194TIP3    H221547   6.397   4.059   4.921
 7195TIP3   OH221548   6.851   1.297   3.232
 7195TIP3    H121549   6.914   1.226   3.242
 7195TIP3    H221550   6.904   1.376   3.235
 7196TIP3   OH221551   5.043   5.520   5.379
 7196TIP3    H121552   5.137   5.514   5.364
 7196TIP3    H221553   5.010   5.569   5.303
 7197TIP3   OH221554   7.044   3.433   3.592
 7197TIP3    H121555   6.961   3.451   3.637
 7197TIP3    H221556   7.110   3.477   3.644
 7198TIP3   OH221557   0.085   2.002   4.935
 7198TIP3    H121558   0.001   1.964   4.959
 7198TIP3    H221559   0.147   1.930   4.946
 7199TIP3   OH221560   0.605   0.652   4.050
 7199TIP3    H121561   0.613   0.558   4.039
 7199TIP3    H221562   0.693   0.686   4.034
 7200TIP3   OH221563   5.291   0.652   4.014
 7200TIP3    H121564   5.274   0.703   3.934
 7200TIP3    H221565   5.385   0.660   4.027
 7201TIP3   OH221566   0.604   0.052   3.760
 7201TIP3    H121567   0.530   0.073   3.817
 7201TIP3    H221568   0.584   0.093   3.677
 7202TIP3   OH221569   2.437   0.645   2.654
 7202TIP3    H121570   2.420   0.609   2.566
 7202TIP3    H221571   2.364   0.613   2.707
 7203TIP3   OH221572   4.831   0.134   3.040
 7203TIP3    H121573   4.817   0.039   3.043
 7203TIP3    H221574   4.780   0.169   3.112
 7204TIP3   OH221575   6.279   0.267   4.544
 7204TIP3    H121576   6.369   0.254   4.515
 7204TIP3    H221577   6.275   0.358   4.573
 7205TIP3   OH221578   6.042   6.131   0.954
 7205TIP3    H121579   6.115   6.149   0.895
 7205TIP3    H221580   6.077   6.145   1.041
 7206TIP3   OH221581   6.437   0.202   4.043
 7206TIP3    H121582   6.469   0.260   4.112
 7206TIP3    H221583   6.344   0.190   4.062
 7207TIP3   OH221584   4.649   1.932   0.962
 7207TIP3    H121585   4.721   1.886   1.005
 7207TIP3    H221586   4.581   1.866   0.951
 7208TIP3   OH221587   5.855   1.010   3.068
 7208TIP3    H121588   5.918   0.941   3.047
 7208TIP3    H221589   5.905   1.074   3.118
 7209TIP3   OH221590   4.942   5.119   4.442
 7209TIP3    H121591   4.870   5.147   4.499
 7209TIP3    H221592   4.906   5.045   4.394
 7210TIP3   OH221593   5.572   1.350   2.191
 7210TIP3    H121594   5.666   1.336   2.188
 7210TIP3    H221595   5.541   1.320   2.106
 7211TIP3   OH221596   4.345   3.386   3.551
 7211TIP3    H121597   4.351   3.475   3.586
 7211TIP3    H221598   4.264   3.386   3.500
 7212TIP3   OH221599   1.974   1.587   4.671
 7212TIP3    H121600   2.059   1.589   4.626
 7212TIP3    H221601   1.927   1.663   4.636
 7213TIP3   OH221602   2.447   2.730   4.400
 7213TIP3    H121603   2.380   2.662   4.395
 7213TIP3    H221604   2.422   2.794   4.333
 7214TIP3   OH221605   2.641   1.857   1.795
 7214TIP3    H121606   2.644   1.783   1.856
 7214TIP3    H221607   2.663   1.933   1.848
 7215TIP3   OH221608   0.487   4.505   2.132
 7215TIP3    H121609   0.494   4.411   2.149
 7215TIP3    H221610   0.465   4.543   2.217
 7216TIP3   OH221611   0.833   1.625   0.629
 7216TIP3    H121612   0.919   1.648   0.593
 7216TIP3    H221613   0.836   1.530   0.639
 7217TIP3   OH221614   4.172   2.097   1.536
 7217TIP3    H121615   4.234   2.133   1.473
 7217TIP3    H221616   4.095   2.073   1.484
 7218TIP3   OH221617   2.704   3.667   3.359
 7218TIP3    H121618   2.776   3.606   3.375
 7218TIP3    H221619   2.712   3.689   3.266
 7219TIP3   OH221620   6.156   3.441   1.553
 7219TIP3    H121621   6.074   3.412   1.593
 7219TIP3    H221622   6.222   3.383   1.589
 7220TIP3   OH221623   5.179   6.151   3.924
 7220TIP3    H121624   5.235   6.082   3.889
 7220TIP3    H221625   5.235   6.229   3.925
 7221TIP3   OH221626   6.343   1.342   4.800
 7221TIP3    H121627   6.361   1.374   4.712
 7221TIP3    H221628   6.255   1.305   4.795
 7222TIP3   OH221629   4.583   2.883   0.790
 7222TIP3    H121630   4.659   2.876   0.848
 7222TIP3    H221631   4.590   2.971   0.752
 7223TIP3   OH221632   4.226   1.985   3.689
 7223TIP3    H121633   4.232   1.890   3.680
 7223TIP3    H221634   4.200   1.998   3.780
 7224TIP3   OH221635   1.026   2.521   5.405
 7224TIP3    H121636   1.041   2.513   5.500
 7224TIP3    H221637   0.993   2.609   5.393
 7225TIP3   OH221638   2.078   2.918   2.685
 7225TIP3    H121639   2.152   2.861   2.706
 7225TIP3    H221640   2.033   2.932   2.769
 7226TIP3   OH221641   0.367   5.853   0.585
 7226TIP3    H121642   0.365   5.947   0.601
 7226TIP3    H221643   0.275   5.829   0.569
 7227TIP3   OH221644   4.562   3.465   1.277
 7227TIP3    H121645   4.496   3.503   1.334
 7227TIP3    H221646   4.645   3.478   1.324
 7228TIP3   OH221647   0.531   3.604   3.502
 7228TIP3    H121648   0.619   3.612   3.540
 7228TIP3    H221649   0.486   3.683   3.529
 7229TIP3   OH221650   5.657   5.298   4.986
 7229TIP3    H121651   5.708   5.231   4.940
 7229TIP3    H221652   5.602   5.248   5.047
 7230TIP3   OH221653   5.877   3.302   3.124
 7230TIP3    H121654   5.833   3.366   3.068
 7230TIP3    H221655   5.806   3.246   3.157
 7231TIP3   OH221656   5.043   1.206   1.978
 7231TIP3    H121657   4.991   1.233   2.054
 7231TIP3    H221658   4.994   1.239   1.903
 7232TIP3   OH221659   3.730   1.677   3.594
 7232TIP3    H121660   3.689   1.681   3.680
 7232TIP3    H221661   3.823   1.668   3.612
 7233TIP3   OH221662   1.319   4.687   1.395
 7233TIP3    H121663   1.392   4.722   1.343
 7233TIP3    H221664   1.245   4.743   1.373
 7234TIP3   OH221665   7.109   5.538   5.301
 7234TIP3    H121666   7.065   5.474   5.244
 7234TIP3    H221667   7.196   5.548   5.263
 7235TIP3   OH221668   4.673   5.087   3.201
 7235TIP3    H121669   4.699   5.025   3.269
 7235TIP3    H221670   4.755   5.118   3.163
 7236TIP3   OH221671   6.131   2.894   0.421
 7236TIP3    H121672   6.186   2.845   0.360
 7236TIP3    H221673   6.047   2.902   0.376
 7237TIP3   OH221674   7.029   6.465   0.488
 7237TIP3    H121675   7.097   6.457   0.556
 7237TIP3    H221676   7.078   6.471   0.406
 7238TIP3   OH221677   1.884   6.091   1.863
 7238TIP3    H121678   1.807   6.035   1.865
 7238TIP3    H221679   1.903   6.109   1.955
 7239TIP3   OH221680   3.561   2.669   4.922
 7239TIP3    H121681   3.592   2.717   4.845
 7239TIP3    H221682   3.569   2.577   4.898
 7240TIP3   OH221683   6.299   5.997   0.004
 7240TIP3    H121684   6.259   6.030   0.084
 7240TIP3    H221685   6.353   5.924   0.032
 7241TIP3   OH221686   5.016   5.150   3.616
 7241TIP3    H121687   4.988   5.067   3.577
 7241TIP3    H221688   5.051   5.200   3.542
 7242TIP3   OH221689   6.825   2.967   5.608
 7242TIP3    H121690   6.742   3.013   5.596
 7242TIP3    H221691   6.890   3.036   5.619
 7243TIP3   OH221692   6.558   4.702   5.360
 7243TIP3    H121693   6.651   4.707   5.338
 7243TIP3    H221694   6.551   4.745   5.445
 7244TIP3   OH221695   2.908   4.894   2.705
 7244TIP3    H121696   2.934   4.948   2.630
 7244TIP3    H221697   2.837   4.840   2.672
 7245TIP3   OH221698   6.006   1.907   4.192
 7245TIP3    H121699   6.039   1.975   4.251
 7245TIP3    H221700   5.938   1.862   4.243
 7246TIP3   OH221701   1.414   0.218   0.559
 7246TIP3    H121702   1.402   0.282   0.490
 7246TIP3    H221703   1.459   0.266   0.629
 7247TIP3   OH221704   0.673   0.790   3.261
 7247TIP3    H121705   0.589   0.765   3.298
 7247TIP3    H221706   0.735   0.781   3.333
 7248TIP3   OH221707   1.552   6.461   5.377
 7248TIP3    H121708   1.579   6.550   5.353
 7248TIP3    H221709   1.458   6.459   5.355
 7249TIP3   OH221710   0.555   3.462   4.910
 7249TIP3    H121711   0.594   3.419   4.834
 7249TIP3    H221712   0.480   3.407   4.933
 7250TIP3   OH221713   5.185   1.357   1.541
 7250TIP3    H121714   5.267   1.369   1.491
 7250TIP3    H221715   5.192   1.269   1.578
 7251TIP3   OH221716   0.414   3.818   1.463
 7251TIP3    H121717   0.431   3.900   1.417
 7251TIP3    H221718   0.501   3.785   1.487
 7252TIP3   OH221719   4.347   5.573   0.655
 7252TIP3    H121720   4.416   5.562   0.589
 7252TIP3    H221721   4.368   5.508   0.723
 7253TIP3   OH221722   1.908   0.486   3.713
 7253TIP3    H121723   1.932   0.428   3.640
 7253TIP3    H221724   1.970   0.465   3.782
 7254TIP3   OH221725   3.088   3.865   2.179
 7254TIP3    H121726   3.060   3.905   2.097
 7254TIP3    H221727   3.161   3.920   2.208
 7255TIP3   OH221728   3.810   0.315   5.114
 7255TIP3    H121729   3.799   0.269   5.030
 7255TIP3    H221730   3.744   0.277   5.171
 7256TIP3   OH221731   6.604   6.357   2.618
 7256TIP3    H121732   6.652   6.433   2.583
 7256TIP3    H221733   6.671   6.291   2.634
 7257TIP3   OH221734   4.711   3.988   2.065
 7257TIP3    H121735   4.654   4.064   2.078
 7257TIP3    H221736   4.799   4.024   2.068
 7258TIP3   OH221737   0.801   6.604   0.843
 7258TIP3    H121738   0.861   6.675   0.823
 7258TIP3    H221739   0.714   6.645   0.845
 7259TIP3   OH221740   4.028   2.280   4.871
 7259TIP3    H121741   4.006   2.251   4.783
 7259TIP3    H221742   4.001   2.208   4.928
 7260TIP3   OH221743   6.464   2.502   4.295
 7260TIP3    H121744   6.379   2.459   4.305
 7260TIP3    H221745   6.446   2.580   4.243
 7261TIP3   OH221746   1.914   1.862   1.109
 7261TIP3    H121747   1.869   1.814   1.039
 7261TIP3    H221748   1.860   1.846   1.187
 7262TIP3   OH221749   7.102   5.223   2.484
 7262TIP3    H121750   7.126   5.303   2.531
 7262TIP3    H221751   7.014   5.203   2.514
 7263TIP3   OH221752   0.356   5.430   3.444
 7263TIP3    H121753   0.374   5.389   3.359
 7263TIP3    H221754   0.391   5.518   3.437
 7264TIP3   OH221755   1.248   2.765   2.185
 7264TIP3    H121756   1.315   2.824   2.150
 7264TIP3    H221757   1.283   2.736   2.269
 7265TIP3   OH221758   5.733   1.008   2.824
 7265TIP3    H121759   5.775   0.997   2.909
 7265TIP3    H221760   5.737   1.102   2.807
 7266TIP3   OH221761   3.846   0.697   0.247
 7266TIP3    H121762   3.929   0.731   0.281
 7266TIP3    H221763   3.784   0.714   0.318
 7267TIP3   OH221764   1.476   5.575   0.396
 7267TIP3    H121765   1.505   5.570   0.305
 7267TIP3    H221766   1.380   5.574   0.390
 7268TIP3   OH221767   0.406   6.782   1.546
 7268TIP3    H121768   0.453   6.748   1.622
 7268TIP3    H221769   0.471   6.781   1.475
 7269TIP3   OH221770   6.318   1.846   3.924
 7269TIP3    H121771   6.346   1.816   4.010
 7269TIP3    H221772   6.372   1.798   3.862
 7270TIP3   OH221773   0.923   2.868   1.800
 7270TIP3    H121774   0.980   2.801   1.763
 7270TIP3    H221775   0.983   2.925   1.849
 7271TIP3   OH221776   1.351   0.156   2.454
 7271TIP3    H121777   1.357   0.078   2.400
 7271TIP3    H221778   1.299   0.218   2.402
 7272TIP3   OH221779   3.517   2.743   4.143
 7272TIP3    H121780   3.558   2.739   4.229
 7272TIP3    H221781   3.434   2.697   4.153
 7273TIP3   OH221782   2.815   3.940   3.909
 7273TIP3    H121783   2.819   3.861   3.855
 7273TIP3    H221784   2.830   4.011   3.848
 7274TIP3   OH221785   0.646   3.090   0.640
 7274TIP3    H121786   0.740   3.097   0.626
 7274TIP3    H221787   0.635   3.109   0.733
 7275TIP3   OH221788   2.199   1.099   2.772
 7275TIP3    H121789   2.294   1.097   2.785
 7275TIP3    H221790   2.187   1.149   2.691
 7276TIP3   OH221791   1.031   2.855   0.393
 7276TIP3    H121792   1.062   2.887   0.309
 7276TIP3    H221793   1.057   2.763   0.395
 7277TIP3   OH221794   1.629   5.031   2.549
 7277TIP3    H121795   1.593   5.058   2.633
 7277TIP3    H221796   1.565   5.060   2.484
 7278TIP3   OH221797   6.815   4.599   5.711
 7278TIP3    H121798   6.729   4.641   5.705
 7278TIP3    H221799   6.861   4.626   5.631
 7279TIP3   OH221800   2.051   6.260   1.699
 7279TIP3    H121801   1.998   6.205   1.757
 7279TIP3    H221802   2.101   6.316   1.758
 7280TIP3   OH221803   5.500   2.301   2.229
 7280TIP3    H121804   5.503   2.231   2.295
 7280TIP3    H221805   5.423   2.279   2.176
 7281TIP3   OH221806   0.267   0.247   2.368
 7281TIP3    H121807   0.258   0.339   2.391
 7281TIP3    H221808   0.329   0.212   2.432
 7282TIP3   OH221809   1.749   3.737   4.722
 7282TIP3    H121810   1.663   3.727   4.763
 7282TIP3    H221811   1.807   3.683   4.776
 7283TIP3   OH221812   4.004   4.655   1.544
 7283TIP3    H121813   4.053   4.710   1.605
 7283TIP3    H221814   4.038   4.567   1.559
 7284TIP3   OH221815   4.006   1.900   4.601
 7284TIP3    H121816   3.934   1.837   4.604
 7284TIP3    H221817   3.967   1.978   4.560
 7285TIP3   OH221818   7.132   2.439   1.362
 7285TIP3    H121819   7.106   2.397   1.280
 7285TIP3    H221820   7.149   2.367   1.422
 7286TIP3   OH221821   3.163   3.688   2.826
 7286TIP3    H121822   3.240   3.738   2.853
 7286TIP3    H221823   3.120   3.664   2.909
 7287TIP3   OH221824   1.181   0.799   5.291
 7287TIP3    H121825   1.271   0.809   5.322
 7287TIP3    H221826   1.188   0.804   5.196
 7288TIP3   OH221827   4.347   4.768   4.208
 7288TIP3    H121828   4.345   4.862   4.192
 7288TIP3    H221829   4.363   4.730   4.121
 7289TIP3   OH221830   4.171   2.859   2.712
 7289TIP3    H121831   4.173   2.893   2.622
 7289TIP3    H221832   4.091   2.806   2.716
 7290TIP3   OH221833   5.893   1.267   4.191
 7290TIP3    H121834   5.920   1.179   4.217
 7290TIP3    H221835   5.798   1.268   4.203
 7291TIP3   OH221836   2.894   4.046   1.343
 7291TIP3    H121837   2.975   4.000   1.366
 7291TIP3    H221838   2.832   4.022   1.412
 7292TIP3   OH221839   5.001   0.210   2.550
 7292TIP3    H121840   4.967   0.299   2.542
 7292TIP3    H221841   5.094   0.221   2.568
 7293TIP3   OH221842   2.792   3.093   3.648
 7293TIP3    H121843   2.806   3.188   3.647
 7293TIP3    H221844   2.880   3.056   3.643
 7294TIP3   OH221845   2.458   4.199   5.036
 7294TIP3    H121846   2.412   4.115   5.027
 7294TIP3    H221847   2.550   4.175   5.050
 7295TIP3   OH221848   5.158   4.560   2.262
 7295TIP3    H121849   5.160   4.465   2.268
 7295TIP3    H221850   5.241   4.588   2.303
 7296TIP3   OH221851   1.801   3.301   1.139
 7296TIP3    H121852   1.800   3.315   1.234
 7296TIP3    H221853   1.771   3.385   1.102
 7297TIP3   OH221854   0.954   5.845   5.157
 7297TIP3    H121855   0.927   5.835   5.066
 7297TIP3    H221856   0.875   5.878   5.201
 7298TIP3   OH221857   2.371   3.945   5.004
 7298TIP3    H121858   2.328   3.887   5.066
 7298TIP3    H221859   2.441   3.892   4.966
 7299TIP3   OH221860   5.827   5.146   4.180
 7299TIP3    H121861   5.733   5.130   4.189
 7299TIP3    H221862   5.833   5.235   4.146
 7300TIP3   OH221863   1.508   2.048   3.287
 7300TIP3    H121864   1.594   2.091   3.284
 7300TIP3    H221865   1.511   1.994   3.366
 7301TIP3   OH221866   5.092   5.759   5.563
 7301TIP3    H121867   5.013   5.753   5.617
 7301TIP3    H221868   5.070   5.709   5.484
 7302TIP3   OH221869   1.450   3.130   4.201
 7302TIP3    H121870   1.506   3.193   4.156
 7302TIP3    H221871   1.503   3.050   4.205
 7303TIP3   OH221872   3.890   3.548   5.887
 7303TIP3    H121873   3.836   3.510   5.818
 7303TIP3    H221874   3.958   3.597   5.841
 7304TIP3   OH221875   4.439   0.135   4.575
 7304TIP3    H121876   4.461   0.193   4.502
 7304TIP3    H221877   4.524   0.108   4.610
 7305TIP3   OH221878   0.796   4.486   2.692
 7305TIP3    H121879   0.708   4.517   2.712
 7305TIP3    H221880   0.805   4.405   2.742
 7306TIP3   OH221881   3.448   0.035   1.130
 7306TIP3    H121882   3.538   0.039   1.161
 7306TIP3    H221883   3.423   0.126   1.116
 7307TIP3   OH221884   0.961   5.046   5.014
 7307TIP3    H121885   1.049   5.047   4.976
 7307TIP3    H221886   0.972   5.082   5.102
 7308TIP3   OH221887   6.788   5.757   3.759
 7308TIP3    H121888   6.700   5.728   3.735
 7308TIP3    H221889   6.783   5.852   3.761
 7309TIP3   OH221890   2.861   5.347   5.353
 7309TIP3    H121891   2.835   5.432   5.388
 7309TIP3    H221892   2.878   5.294   5.431
 7310TIP3   OH221893   6.262   0.839   1.728
 7310TIP3    H121894   6.228   0.797   1.649
 7310TIP3    H221895   6.184   0.872   1.773
 7311TIP3   OH221896   2.160   2.678   0.672
 7311TIP3    H121897   2.193   2.599   0.714
 7311TIP3    H221898   2.235   2.712   0.622
 7312TIP3   OH221899   1.383   4.853   2.379
 7312TIP3    H121900   1.300   4.806   2.383
 7312TIP3    H221901   1.364   4.939   2.417
 7313TIP3   OH221902   0.331   3.984   4.726
 7313TIP3    H121903   0.388   3.946   4.659
 7313TIP3    H221904   0.265   4.033   4.677
 7314TIP3   OH221905   2.959   1.842   0.725
 7314TIP3    H121906   2.962   1.937   0.712
 7314TIP3    H221907   2.937   1.832   0.818
 7315TIP3   OH221908   1.056   4.038   2.305
 7315TIP3    H121909   1.081   3.989   2.227
 7315TIP3    H221910   1.130   4.028   2.365
 7316TIP3   OH221911   5.624   5.058   0.228
 7316TIP3    H121912   5.715   5.087   0.227
 7316TIP3    H221913   5.574   5.136   0.205
 7317TIP3   OH221914   5.685   0.088   4.939
 7317TIP3    H121915   5.680  -0.007   4.929
 7317TIP3    H221916   5.773   0.105   4.973
 7318TIP3   OH221917   5.232   2.897   1.084
 7318TIP3    H121918   5.284   2.819   1.105
 7318TIP3    H221919   5.285   2.945   1.020
 7319TIP3   OH221920   0.502   2.973   0.385
 7319TIP3    H121921   0.506   3.031   0.309
 7319TIP3    H221922   0.554   3.017   0.452
 7320TIP3   OH221923   4.581   6.466   1.675
 7320TIP3    H121924   4.662   6.470   1.726
 7320TIP3    H221925   4.524   6.407   1.724
 7321TIP3   OH221926   3.290   4.593   4.644
 7321TIP3    H121927   3.380   4.610   4.670
 7321TIP3    H221928   3.282   4.631   4.556
 7322TIP3   OH221929   6.324   1.311   0.871
 7322TIP3    H121930   6.385   1.378   0.902
 7322TIP3    H221931   6.368   1.228   0.888
 7323TIP3   OH221932   6.405   0.942   2.999
 7323TIP3    H121933   6.338   0.909   3.059
 7323TIP3    H221934   6.365   1.019   2.959
 7324TIP3   OH221935   5.046   6.540   4.233
 7324TIP3    H121936   5.071   6.461   4.280
 7324TIP3    H221937   5.052   6.610   4.297
 7325TIP3   OH221938   7.037   0.457   5.216
 7325TIP3    H121939   7.003   0.383   5.165
 7325TIP3    H221940   6.966   0.522   5.213
 7326TIP3   OH221941   3.954   4.285   5.696
 7326TIP3    H121942   3.888   4.277   5.765
 7326TIP3    H221943   4.017   4.348   5.731
 7327TIP3   OH221944   0.307   2.823   4.482
 7327TIP3    H121945   0.374   2.756   4.496
 7327TIP3    H221946   0.238   2.801   4.545
 7328TIP3   OH221947   4.104   2.657   0.431
 7328TIP3    H121948   4.020   2.692   0.459
 7328TIP3    H221949   4.169   2.715   0.471
 7329TIP3   OH221950   2.237   2.154   2.497
 7329TIP3    H121951   2.289   2.231   2.472
 7329TIP3    H221952   2.216   2.112   2.413
 7330TIP3   OH221953   6.657   0.102   2.494
 7330TIP3    H121954   6.643   0.170   2.428
 7330TIP3    H221955   6.581   0.110   2.552
 7331TIP3   OH221956   2.227   3.896   0.101
 7331TIP3    H121957   2.299   3.958   0.086
 7331TIP3    H221958   2.240   3.866   0.191
 7332TIP3   OH221959   0.313   6.660   0.591
 7332TIP3    H121960   0.225   6.670   0.627
 7332TIP3    H221961   0.334   6.747   0.556
 7333TIP3   OH221962   2.262   2.657   1.341
 7333TIP3    H121963   2.352   2.669   1.373
 7333TIP3    H221964   2.242   2.565   1.362
 7334TIP3   OH221965   0.552   6.221   5.728
 7334TIP3    H121966   0.600   6.212   5.810
 7334TIP3    H221967   0.520   6.311   5.728
 7335TIP3   OH221968   0.147   3.539   4.437
 7335TIP3    H121969   0.159   3.472   4.505
 7335TIP3    H221970   0.111   3.491   4.362
 7336TIP3   OH221971   3.713   5.092   1.493
 7336TIP3    H121972   3.702   5.000   1.519
 7336TIP3    H221973   3.707   5.141   1.575
 7337TIP3   OH221974   5.923   1.219   5.284
 7337TIP3    H121975   5.882   1.133   5.275
 7337TIP3    H221976   5.926   1.235   5.379
 7338TIP3   OH221977   6.982   6.507   2.682
 7338TIP3    H121978   7.075   6.512   2.663
 7338TIP3    H221979   6.953   6.598   2.688
 7339TIP3   OH221980   5.058   2.811   5.145
 7339TIP3    H121981   5.048   2.872   5.218
 7339TIP3    H221982   5.151   2.817   5.121
 7340TIP3   OH221983   2.045   2.623   5.558
 7340TIP3    H121984   2.018   2.672   5.480
 7340TIP3    H221985   1.988   2.656   5.627
 7341TIP3   OH221986   5.993   1.831   2.762
 7341TIP3    H121987   5.914   1.865   2.803
 7341TIP3    H221988   6.041   1.790   2.834
 7342TIP3   OH221989   5.650   4.697   1.615
 7342TIP3    H121990   5.639   4.628   1.550
 7342TIP3    H221991   5.561   4.725   1.636
 7343TIP3   OH221992   1.515   1.861   0.609
 7343TIP3    H121993   1.574   1.934   0.627
 7343TIP3    H221994   1.435   1.902   0.577
 7344TIP3   OH221995   0.452   0.747   2.124
 7344TIP3    H121996   0.486   0.796   2.199
 7344TIP3    H221997   0.509   0.771   2.052
 7345TIP3   OH221998   2.525   5.647   0.287
 7345TIP3    H121999   2.517   5.552   0.294
 7345TIP3    H222000   2.502   5.667   0.197
 7346TIP3   OH222001   3.554   3.361   0.439
 7346TIP3    H122002   3.632   3.416   0.448
 7346TIP3    H222003   3.530   3.338   0.529
 7347TIP3   OH222004   0.756   3.486   2.003
 7347TIP3    H122005   0.821   3.448   2.062
 7347TIP3    H222006   0.721   3.411   1.955
 7348TIP3   OH222007   1.839   5.894   3.017
 7348TIP3    H122008   1.780   5.836   2.968
 7348TIP3    H222009   1.925   5.853   3.009
 7349TIP3   OH222010   1.716   1.054   3.267
 7349TIP3    H122011   1.673   1.123   3.316
 7349TIP3    H222012   1.684   0.973   3.306
 7350TIP3   OH222013   3.938   3.687   0.257
 7350TIP3    H122014   4.020   3.645   0.282
 7350TIP3    H222015   3.961   3.777   0.237
 7351TIP3   OH222016   5.454   3.759   0.917
 7351TIP3    H122017   5.500   3.689   0.871
 7351TIP3    H222018   5.522   3.824   0.936
 7352TIP3   OH222019   1.866   3.797   3.531
 7352TIP3    H122020   1.945   3.756   3.566
 7352TIP3    H222021   1.795   3.759   3.583
 7353TIP3   OH222022   1.809   0.535   1.181
 7353TIP3    H122023   1.899   0.505   1.168
 7353TIP3    H222024   1.760   0.455   1.200
 7354TIP3   OH222025   6.849   0.895   1.915
 7354TIP3    H122026   6.880   0.873   1.827
 7354TIP3    H222027   6.868   0.817   1.967
 7355TIP3   OH222028   7.132   5.030   5.914
 7355TIP3    H122029   7.134   4.973   5.837
 7355TIP3    H222030   7.039   5.043   5.932
 7356TIP3   OH222031   4.222   6.360   0.754
 7356TIP3    H122032   4.126   6.359   0.755
 7356TIP3    H222033   4.248   6.269   0.767
 7357TIP3   OH222034   6.345   1.479   4.013
 7357TIP3    H122035   6.294   1.401   4.036
 7357TIP3    H222036   6.308   1.548   4.068
 7358TIP3   OH222037   3.725   2.040   0.789
 7358TIP3    H122038   3.691   2.091   0.716
 7358TIP3    H222039   3.724   2.100   0.864
 7359TIP3   OH222040   2.627   5.784   1.758
 7359TIP3    H122041   2.616   5.730   1.680
 7359TIP3    H222042   2.567   5.857   1.744
 7360TIP3   OH222043   6.871   0.220   1.288
 7360TIP3    H122044   6.934   0.292   1.292
 7360TIP3    H222045   6.845   0.206   1.379
 7361TIP3   OH222046   0.521   3.988   0.468
 7361TIP3    H122047   0.504   3.893   0.470
 7361TIP3    H222048   0.446   4.026   0.514
 7362TIP3   OH222049   2.644   1.625   0.894
 7362TIP3    H122050   2.647   1.684   0.819
 7362TIP3    H222051   2.680   1.543   0.862
 7363TIP3   OH222052   4.043   6.333   5.134
 7363TIP3    H122053   4.008   6.402   5.190
 7363TIP3    H222054   3.966   6.292   5.096
 7364TIP3   OH222055   5.101   4.780   1.873
 7364TIP3    H122056   5.029   4.726   1.906
 7364TIP3    H222057   5.180   4.741   1.909
 7365TIP3   OH222058   3.055   3.681   4.936
 7365TIP3    H122059   2.999   3.752   4.905
 7365TIP3    H222060   3.123   3.672   4.870
 7366TIP3   OH222061   1.696   2.766   0.011
 7366TIP3    H122062   1.763   2.750   0.077
 7366TIP3    H222063   1.685   2.682  -0.034
 7367TIP3   OH222064   1.475   1.634   2.133
 7367TIP3    H122065   1.484   1.619   2.040
 7367TIP3    H222066   1.510   1.555   2.175
 7368TIP3   OH222067   4.432   4.363   1.911
 7368TIP3    H122068   4.351   4.414   1.904
 7368TIP3    H222069   4.501   4.428   1.925
 7369TIP3   OH222070   1.374   1.226   1.345
 7369TIP3    H122071   1.304   1.285   1.374
 7369TIP3    H222072   1.451   1.282   1.338
 7370TIP3   OH222073   2.505   3.408   1.756
 7370TIP3    H122074   2.439   3.370   1.698
 7370TIP3    H222075   2.543   3.332   1.801
 7371TIP3   OH222076   5.652   2.876   5.419
 7371TIP3    H122077   5.725   2.857   5.361
 7371TIP3    H222078   5.640   2.796   5.471
 7372TIP3   OH222079   0.392   6.173   4.556
 7372TIP3    H122080   0.382   6.161   4.650
 7372TIP3    H222081   0.307   6.205   4.527
 7373TIP3   OH222082   4.099   5.281   4.607
 7373TIP3    H122083   4.133   5.295   4.695
 7373TIP3    H222084   4.075   5.369   4.576
 7374TIP3   OH222085   1.089   2.246   0.598
 7374TIP3    H122086   1.106   2.190   0.673
 7374TIP3    H222087   1.102   2.335   0.631
 7375TIP3   OH222088   0.529   2.116   0.177
 7375TIP3    H122089   0.475   2.164   0.114
 7375TIP3    H222090   0.550   2.034   0.133
 7376TIP3   OH222091   2.881   5.638   5.167
 7376TIP3    H122092   2.882   5.733   5.162
 7376TIP3    H222093   2.914   5.609   5.082
 7377TIP3   OH222094   1.292   0.730   1.096
 7377TIP3    H122095   1.323   0.815   1.128
 7377TIP3    H222096   1.346   0.666   1.142
 7378TIP3   OH222097   5.748   6.429   0.774
 7378TIP3    H122098   5.743   6.402   0.866
 7378TIP3    H222099   5.825   6.485   0.770
 7379TIP3   OH222100   4.083   2.620   1.160
 7379TIP3    H122101   4.137   2.599   1.236
 7379TIP3    H222102   4.146   2.642   1.091
 7380TIP3   OH222103   1.608   4.423   5.047
 7380TIP3    H122104   1.603   4.372   5.128
 7380TIP3    H222105   1.688   4.475   5.056
 7381TIP3   OH222106   3.326   5.878   3.959
 7381TIP3    H122107   3.247   5.918   3.995
 7381TIP3    H222108   3.320   5.786   3.985
 7382TIP3   OH222109   4.667   0.847   0.078
 7382TIP3    H122110   4.633   0.903   0.008
 7382TIP3    H222111   4.646   0.894   0.159
 7383TIP3   OH222112   1.627   6.713   5.268
 7383TIP3    H122113   1.693   6.687   5.204
 7383TIP3    H222114   1.557   6.751   5.217
 7384TIP3   OH222115   6.168   5.230   1.770
 7384TIP3    H122116   6.196   5.321   1.759
 7384TIP3    H222117   6.078   5.228   1.736
 7385TIP3   OH222118   2.499   3.086   1.265
 7385TIP3    H122119   2.435   3.041   1.210
 7385TIP3    H222120   2.512   3.171   1.223
 7386TIP3   OH222121   3.258   2.708   4.274
 7386TIP3    H122122   3.283   2.647   4.344
 7386TIP3    H222123   3.166   2.688   4.256
 7387TIP3   OH222124   4.360   6.440   0.200
 7387TIP3    H122125   4.272   6.475   0.189
 7387TIP3    H222126   4.350   6.372   0.267
 7388TIP3   OH222127   2.509   6.718   1.927
 7388TIP3    H122128   2.573   6.663   1.881
 7388TIP3    H222129   2.473   6.662   1.995
 7389TIP3   OH222130   2.730   3.705   1.339
 7389TIP3    H122131   2.738   3.758   1.259
 7389TIP3    H222132   2.702   3.768   1.406
 7390TIP3   OH222133   2.943   2.405   2.664
 7390TIP3    H122134   2.888   2.462   2.717
 7390TIP3    H222135   3.004   2.464   2.620
 7391TIP3   OH222136   4.781   5.120   4.681
 7391TIP3    H122137   4.774   5.049   4.745
 7391TIP3    H222138   4.701   5.172   4.694
 7392TIP3   OH222139   4.467   5.170   5.566
 7392TIP3    H122140   4.513   5.176   5.482
 7392TIP3    H222141   4.461   5.076   5.584
 7393TIP3   OH222142   1.141   6.691   4.931
 7393TIP3    H122143   1.084   6.768   4.939
 7393TIP3    H222144   1.092   6.630   4.876
 7394TIP3   OH222145   3.947   0.041   3.316
 7394TIP3    H122146   3.943  -0.051   3.290
 7394TIP3    H222147   3.858   0.074   3.302
 7395TIP3   OH222148   6.718   3.796   3.381
 7395TIP3    H122149   6.739   3.889   3.367
 7395TIP3    H222150   6.707   3.788   3.475
 7396TIP3   OH222151   2.594   5.730   3.930
 7396TIP3    H122152   2.587   5.763   4.020
 7396TIP3    H222153   2.688   5.718   3.916
 7397TIP3   OH222154   1.573   5.071   4.341
 7397TIP3    H122155   1.573   4.991   4.394
 7397TIP3    H222156   1.491   5.069   4.293
 7398TIP3   OH222157   0.116   5.234   1.099
 7398TIP3    H122158   0.149   5.276   1.178
 7398TIP3    H222159   0.192   5.223   1.043
 7399TIP3   OH222160   0.044   3.355   1.894
 7399TIP3    H122161  -0.041   3.312   1.901
 7399TIP3    H222162   0.104   3.297   1.941
 7400TIP3   OH222163   0.005   3.526   2.647
 7400TIP3    H122164  -0.048   3.594   2.689
 7400TIP3    H222165   0.078   3.511   2.708
 7401TIP3   OH222166   2.288   6.153   3.763
 7401TIP3    H122167   2.348   6.121   3.831
 7401TIP3    H222168   2.278   6.246   3.781
 7402TIP3   OH222169   6.931   2.331   0.375
 7402TIP3    H122170   7.018   2.297   0.354
 7402TIP3    H222171   6.936   2.355   0.468
 7403TIP3   OH222172   5.550   3.310   5.662
 7403TIP3    H122173   5.633   3.325   5.616
 7403TIP3    H222174   5.489   3.372   5.623
 7404TIP3   OH222175   6.279   0.967   2.388
 7404TIP3    H122176   6.203   0.911   2.372
 7404TIP3    H222177   6.344   0.939   2.324
 7405TIP3   OH222178   1.667   5.038   1.618
 7405TIP3    H122179   1.747   4.985   1.618
 7405TIP3    H222180   1.699   5.128   1.628
 7406TIP3   OH222181   1.299   3.343   2.186
 7406TIP3    H122182   1.278   3.436   2.182
 7406TIP3    H222183   1.381   3.339   2.235
 7407TIP3   OH222184   6.044   4.614   5.405
 7407TIP3    H122185   6.123   4.598   5.457
 7407TIP3    H222186   6.075   4.620   5.315
 7408TIP3   OH222187   1.203   5.578   0.421
 7408TIP3    H122188   1.169   5.665   0.402
 7408TIP3    H222189   1.126   5.526   0.445
 7409TIP3   OH222190   1.610   0.943   0.208
 7409TIP3    H122191   1.571   0.883   0.272
 7409TIP3    H222192   1.604   1.029   0.249
 7410TIP3   OH222193   0.681   4.577   3.509
 7410TIP3    H122194   0.625   4.512   3.468
 7410TIP3    H222195   0.654   4.660   3.470
 7411TIP3   OH222196   3.932   0.457   4.852
 7411TIP3    H122197   3.999   0.400   4.814
 7411TIP3    H222198   3.939   0.538   4.801
 7412TIP3   OH222199   4.724   0.654   2.528
 7412TIP3    H122200   4.632   0.677   2.521
 7412TIP3    H222201   4.771   0.728   2.489
 7413TIP3   OH222202   1.623   4.406   0.280
 7413TIP3    H122203   1.714   4.407   0.252
 7413TIP3    H222204   1.587   4.489   0.249
 7414TIP3   OH222205   3.548   3.761   0.883
 7414TIP3    H122206   3.543   3.838   0.827
 7414TIP3    H222207   3.641   3.753   0.905
 7415TIP3   OH222208   5.815   3.755   5.535
 7415TIP3    H122209   5.759   3.822   5.574
 7415TIP3    H222210   5.860   3.715   5.609
 7416TIP3   OH222211   7.126   5.524   1.820
 7416TIP3    H122212   7.066   5.489   1.754
 7416TIP3    H222213   7.193   5.569   1.768
 7417TIP3   OH222214   1.849   3.759   1.613
 7417TIP3    H122215   1.755   3.763   1.632
 7417TIP3    H222216   1.891   3.790   1.694
 7418TIP3   OH222217   3.126   4.110   1.124
 7418TIP3    H122218   3.119   4.015   1.129
 7418TIP3    H222219   3.168   4.136   1.206
 7419TIP3   OH222220   2.044   6.284   1.154
 7419TIP3    H122221   1.972   6.344   1.135
 7419TIP3    H222222   2.091   6.276   1.072
 7420TIP3   OH222223   0.637   5.558   5.270
 7420TIP3    H122224   0.592   5.506   5.203
 7420TIP3    H222225   0.577   5.630   5.289
 7421TIP3   OH222226   4.812   3.944   4.102
 7421TIP3    H122227   4.776   3.881   4.165
 7421TIP3    H222228   4.842   3.891   4.029
 7422TIP3   OH222229   6.622   6.424   0.389
 7422TIP3    H122230   6.646   6.472   0.310
 7422TIP3    H222231   6.530   6.444   0.403
 7423TIP3   OH222232   0.605   1.638   2.374
 7423TIP3    H122233   0.636   1.636   2.465
 7423TIP3    H222234   0.525   1.692   2.378
 7424TIP3   OH222235   7.169   0.578   2.862
 7424TIP3    H122236   7.125   0.494   2.872
 7424TIP3    H222237   7.143   0.608   2.775
 7425TIP3   OH222238   1.997   3.645   2.251
 7425TIP3    H122239   1.908   3.610   2.249
 7425TIP3    H222240   2.048   3.578   2.298
 7426TIP3   OH222241   6.000   2.796   4.617
 7426TIP3    H122242   5.927   2.854   4.597
 7426TIP3    H222243   5.984   2.717   4.565
 7427TIP3   OH222244   1.561   2.421   0.313
 7427TIP3    H122245   1.632   2.413   0.376
 7427TIP3    H222246   1.500   2.351   0.336
 7428TIP3   OH222247   5.514   6.678   0.364
 7428TIP3    H122248   5.505   6.769   0.392
 7428TIP3    H222249   5.581   6.641   0.421
 7429TIP3   OH222250   4.520   6.057   1.843
 7429TIP3    H122251   4.603   6.086   1.882
 7429TIP3    H222252   4.545   5.983   1.787
 7430TIP3   OH222253   5.832   1.034   1.768
 7430TIP3    H122254   5.889   1.108   1.746
 7430TIP3    H222255   5.757   1.074   1.812
 7431TIP3   OH222256   2.864   2.364   4.760
 7431TIP3    H122257   2.862   2.308   4.838
 7431TIP3    H222258   2.812   2.317   4.695
 7432TIP3   OH222259   3.924   0.638   1.759
 7432TIP3    H122260   3.939   0.626   1.666
 7432TIP3    H222261   3.990   0.700   1.788
 7433TIP3   OH222262   5.053   5.683   4.037
 7433TIP3    H122263   5.107   5.762   4.032
 7433TIP3    H222264   5.029   5.676   4.129
 7434TIP3   OH222265   2.976   6.765   0.497
 7434TIP3    H122266   3.032   6.688   0.510
 7434TIP3    H222267   3.015   6.832   0.553
 7435TIP3   OH222268   0.414   0.648   3.255
 7435TIP3    H122269   0.336   0.678   3.208
 7435TIP3    H222270   0.401   0.554   3.266
 7436TIP3   OH222271   0.211   1.610   5.234
 7436TIP3    H122272   0.192   1.703   5.224
 7436TIP3    H222273   0.151   1.580   5.302
 7437TIP3   OH222274   2.942   6.776   3.046
 7437TIP3    H122275   2.901   6.844   2.992
 7437TIP3    H222276   3.018   6.747   2.996
 7438TIP3   OH222277   1.552   5.322   1.497
 7438TIP3    H122278   1.583   5.395   1.552
 7438TIP3    H222279   1.630   5.296   1.448
 7439TIP3   OH222280   2.291   1.758   3.585
 7439TIP3    H122281   2.266   1.696   3.516
 7439TIP3    H222282   2.375   1.793   3.555
 7440TIP3   OH222283   1.370   4.873   5.024
 7440TIP3    H122284   1.448   4.848   4.974
 7440TIP3    H222285   1.319   4.793   5.032
 7441TIP3   OH222286   5.706   5.630   4.067
 7441TIP3    H122287   5.730   5.686   3.993
 7441TIP3    H222288   5.618   5.599   4.045
 7442TIP3   OH222289   4.065   3.554   1.584
 7442TIP3    H122290   4.114   3.576   1.505
 7442TIP3    H222291   4.046   3.639   1.625
 7443TIP3   OH222292   3.440   5.385   2.389
 7443TIP3    H122293   3.355   5.383   2.344
 7443TIP3    H222294   3.434   5.316   2.455
 7444TIP3   OH222295   3.505   4.545   1.258
 7444TIP3    H122296   3.524   4.638   1.261
 7444TIP3    H222297   3.540   4.510   1.340
 7445TIP3   OH222298   4.715   3.279   0.475
 7445TIP3    H122299   4.693   3.309   0.387
 7445TIP3    H222300   4.765   3.351   0.514
 7446TIP3   OH222301   1.103   5.837   4.855
 7446TIP3    H122302   1.035   5.867   4.795
 7446TIP3    H222303   1.142   5.918   4.889
 7447TIP3   OH222304   2.076   0.559   2.229
 7447TIP3    H122305   2.153   0.612   2.249
 7447TIP3    H222306   2.017   0.619   2.184
 7448TIP3   OH222307   0.250   3.089   0.410
 7448TIP3    H122308   0.335   3.045   0.411
 7448TIP3    H222309   0.265   3.173   0.454
 7449TIP3   OH222310   0.599   4.756   0.098
 7449TIP3    H122311   0.693   4.766   0.114
 7449TIP3    H222312   0.573   4.838   0.056
 7450TIP3   OH222313   6.909   1.653   0.939
 7450TIP3    H122314   6.869   1.729   0.982
 7450TIP3    H222315   6.847   1.582   0.955
 7451TIP3   OH222316   3.503   6.346   3.967
 7451TIP3    H122317   3.598   6.342   3.967
 7451TIP3    H222318   3.480   6.378   4.054
 7452TIP3   OH222319   6.480   3.944   2.871
 7452TIP3    H122320   6.470   4.039   2.878
 7452TIP3    H222321   6.457   3.923   2.781
 7453TIP3   OH222322   3.583   5.959   1.673
 7453TIP3    H122323   3.570   5.869   1.704
 7453TIP3    H222324   3.618   6.006   1.749
 7454TIP3   OH222325   5.853   4.104   5.477
 7454TIP3    H122326   5.891   4.103   5.389
 7454TIP3    H222327   5.759   4.098   5.462
 7455TIP3   OH222328   0.103   1.885   4.006
 7455TIP3    H122329   0.091   1.953   3.939
 7455TIP3    H222330   0.142   1.931   4.080
 7456TIP3   OH222331   4.938   3.213   1.393
 7456TIP3    H122332   4.960   3.236   1.484
 7456TIP3    H222333   5.009   3.155   1.365
 7457TIP3   OH222334   1.643   3.039   0.540
 7457TIP3    H122335   1.671   3.033   0.449
 7457TIP3    H222336   1.613   2.950   0.561
 7458TIP3   OH222337   6.045   1.389   0.975
 7458TIP3    H122338   6.045   1.361   1.066
 7458TIP3    H222339   6.126   1.354   0.939
 7459TIP3   OH222340   3.209   5.989   3.081
 7459TIP3    H122341   3.217   6.078   3.114
 7459TIP3    H222342   3.285   5.977   3.025
 7460TIP3   OH222343   6.812   2.137   0.938
 7460TIP3    H122344   6.826   2.135   0.844
 7460TIP3    H222345   6.817   2.045   0.965
 7461TIP3   OH222346   2.204   0.899   5.784
 7461TIP3    H122347   2.157   0.885   5.702
 7461TIP3    H222348   2.166   0.836   5.845
 7462TIP3   OH222349   6.605   5.012   2.189
 7462TIP3    H122350   6.538   5.064   2.144
 7462TIP3    H222351   6.625   4.940   2.129
 7463TIP3   OH222352   3.942   2.873   4.538
 7463TIP3    H122353   4.003   2.848   4.607
 7463TIP3    H222354   3.858   2.882   4.582
 7464TIP3   OH222355   0.212   1.784   1.749
 7464TIP3    H122356   0.189   1.872   1.721
 7464TIP3    H222357   0.240   1.739   1.670
 7465TIP3   OH222358   2.177   4.452   5.537
 7465TIP3    H122359   2.141   4.529   5.493
 7465TIP3    H222360   2.244   4.487   5.595
 7466TIP3   OH222361   1.895   4.672   1.832
 7466TIP3    H122362   1.979   4.694   1.872
 7466TIP3    H222363   1.835   4.660   1.906
 7467TIP3   OH222364   4.768   1.157   2.007
 7467TIP3    H122365   4.763   1.141   1.913
 7467TIP3    H222366   4.734   1.077   2.047
 7468TIP3   OH222367   6.986   3.926   5.857
 7468TIP3    H122368   7.024   4.007   5.890
 7468TIP3    H222369   7.009   3.861   5.923
 7469TIP3   OH222370   6.905   6.203   3.974
 7469TIP3    H122371   6.887   6.167   4.061
 7469TIP3    H222372   6.853   6.283   3.970
 7470TIP3   OH222373   2.738   4.563   3.771
 7470TIP3    H122374   2.660   4.538   3.722
 7470TIP3    H222375   2.731   4.515   3.854
 7471TIP3   OH222376   5.031   2.343   5.613
 7471TIP3    H122377   5.089   2.290   5.559
 7471TIP3    H222378   4.979   2.394   5.551
 7472TIP3   OH222379   5.265   5.745   0.766
 7472TIP3    H122380   5.212   5.702   0.834
 7472TIP3    H222381   5.226   5.716   0.684
 7473TIP3   OH222382   5.096   2.491   4.521
 7473TIP3    H122383   5.002   2.508   4.526
 7473TIP3    H222384   5.111   2.420   4.584
 7474TIP3   OH222385   5.094   3.529   5.348
 7474TIP3    H122386   5.076   3.575   5.430
 7474TIP3    H222387   5.179   3.487   5.361
 7475TIP3   OH222388   3.125   6.706   4.245
 7475TIP3    H122389   3.130   6.795   4.278
 7475TIP3    H222390   3.206   6.694   4.195
 7476TIP3   OH222391   2.133   1.967   0.152
 7476TIP3    H122392   2.093   1.930   0.231
 7476TIP3    H222393   2.223   1.934   0.153
 7477TIP3   OH222394   3.582   5.263   0.473
 7477TIP3    H122395   3.495   5.225   0.467
 7477TIP3    H222396   3.623   5.244   0.388
 7478TIP3   OH222397   6.849   6.167   4.233
 7478TIP3    H122398   6.875   6.192   4.322
 7478TIP3    H222399   6.804   6.083   4.244
 7479TIP3   OH222400   6.736   2.197   5.369
 7479TIP3    H122401   6.775   2.276   5.406
 7479TIP3    H222402   6.797   2.170   5.300
 7480TIP3   OH222403   2.758   3.251   0.624
 7480TIP3    H122404   2.735   3.327   0.571
 7480TIP3    H222405   2.722   3.177   0.576
 7481TIP3   OH222406   2.626   0.733   4.259
 7481TIP3    H122407   2.659   0.822   4.252
 7481TIP3    H222408   2.607   0.707   4.169
 7482TIP3   OH222409   3.354   1.723   3.848
 7482TIP3    H122410   3.361   1.755   3.758
 7482TIP3    H222411   3.273   1.672   3.849
 7483TIP3   OH222412   6.442   6.488   2.174
 7483TIP3    H122413   6.472   6.430   2.104
 7483TIP3    H222414   6.439   6.431   2.251
 7484TIP3   OH222415   5.313   0.828   4.759
 7484TIP3    H122416   5.350   0.799   4.675
 7484TIP3    H222417   5.264   0.752   4.790
 7485TIP3   OH222418   6.520  -0.037   3.429
 7485TIP3    H122419   6.557   0.045   3.461
 7485TIP3    H222420   6.433  -0.041   3.469
 7486TIP3   OH222421   2.111   4.875   0.876
 7486TIP3    H122422   2.111   4.849   0.968
 7486TIP3    H222423   2.112   4.793   0.827
 7487TIP3   OH222424   2.715   0.388   0.276
 7487TIP3    H122425   2.791   0.422   0.230
 7487TIP3    H222426   2.654   0.462   0.280
 7488TIP3   OH222427   5.897   6.815   1.186
 7488TIP3    H122428   5.842   6.841   1.260
 7488TIP3    H222429   5.951   6.744   1.220
 7489TIP3   OH222430   2.429   2.248   2.989
 7489TIP3    H122431   2.376   2.321   2.957
 7489TIP3    H222432   2.501   2.289   3.037
 7490TIP3   OH222433   5.177   2.508   0.443
 7490TIP3    H122434   5.113   2.558   0.393
 7490TIP3    H222435   5.256   2.509   0.388
 7491TIP3   OH222436   1.055   0.891   2.354
 7491TIP3    H122437   1.060   0.897   2.259
 7491TIP3    H222438   1.018   0.975   2.381
 7492TIP3   OH222439   0.980   4.671   5.074
 7492TIP3    H122440   0.900   4.629   5.107
 7492TIP3    H222441   1.020   4.605   5.018
 7493TIP3   OH222442   2.691   3.687   2.816
 7493TIP3    H122443   2.774   3.694   2.770
 7493TIP3    H222444   2.626   3.722   2.755
 7494TIP3   OH222445   2.819   4.107   4.467
 7494TIP3    H122446   2.827   4.061   4.383
 7494TIP3    H222447   2.816   4.200   4.443
 7495TIP3   OH222448   3.283   1.546   1.042
 7495TIP3    H122449   3.205   1.520   0.993
 7495TIP3    H222450   3.354   1.540   0.978
 7496TIP3   OH222451   3.978   6.045   2.931
 7496TIP3    H122452   4.017   6.064   3.016
 7496TIP3    H222453   3.961   5.951   2.933
 7497TIP3   OH222454   1.957   4.909   4.063
 7497TIP3    H122455   1.937   4.847   3.993
 7497TIP3    H222456   1.872   4.939   4.095
 7498TIP3   OH222457   5.757   4.729   0.224
 7498TIP3    H122458   5.672   4.762   0.254
 7498TIP3    H222459   5.775   4.779   0.144
 7499TIP3   OH222460   6.522   4.084   3.127
 7499TIP3    H122461   6.528   4.006   3.072
 7499TIP3    H222462   6.587   4.070   3.196
 7500TIP3   OH222463   4.815   4.313   3.673
 7500TIP3    H122464   4.863   4.359   3.742
 7500TIP3    H222465   4.744   4.373   3.650
 7501TIP3   OH222466   2.343   0.375   1.059
 7501TIP3    H122467   2.396   0.309   1.014
 7501TIP3    H222468   2.301   0.328   1.131
 7502TIP3   OH222469   0.832   1.058   2.437
 7502TIP3    H122470   0.775   1.130   2.464
 7502TIP3    H222471   0.878   1.033   2.517
 7503TIP3   OH222472   2.212   4.321   3.254
 7503TIP3    H122473   2.279   4.285   3.311
 7503TIP3    H222474   2.193   4.251   3.191
 7504TIP3   OH222475   5.534   1.515   3.556
 7504TIP3    H122476   5.583   1.460   3.496
 7504TIP3    H222477   5.442   1.502   3.533
 7505TIP3   OH222478   4.098   3.737   2.730
 7505TIP3    H122479   4.156   3.801   2.771
 7505TIP3    H222480   4.040   3.789   2.675
 7506TIP3   OH222481   1.793   3.744   3.859
 7506TIP3    H122482   1.801   3.649   3.856
 7506TIP3    H222483   1.880   3.776   3.835
 7507TIP3   OH222484   6.897   0.606   5.749
 7507TIP3    H122485   6.956   0.548   5.798
 7507TIP3    H222486   6.810   0.583   5.780
 7508TIP3   OH222487   0.049   1.282   1.630
 7508TIP3    H122488   0.094   1.338   1.694
 7508TIP3    H222489   0.120   1.242   1.580
 7509TIP3   OH222490   4.617   4.090   1.491
 7509TIP3    H122491   4.669   4.087   1.410
 7509TIP3    H222492   4.654   4.162   1.541
 7510TIP3   OH222493   4.325   1.415   5.224
 7510TIP3    H122494   4.380   1.460   5.287
 7510TIP3    H222495   4.247   1.391   5.273
 7511TIP3   OH222496   6.888   3.465   0.127
 7511TIP3    H122497   6.846   3.502   0.205
 7511TIP3    H222498   6.938   3.390   0.160
 7512TIP3   OH222499   1.300   1.376   5.279
 7512TIP3    H122500   1.279   1.287   5.308
 7512TIP3    H222501   1.260   1.383   5.193
 7513TIP3   OH222502   5.122   5.210   1.699
 7513TIP3    H122503   5.124   5.254   1.614
 7513TIP3    H222504   5.032   5.222   1.730
 7514TIP3   OH222505   4.342   6.312   4.772
 7514TIP3    H122506   4.291   6.273   4.701
 7514TIP3    H222507   4.375   6.237   4.821
 7515TIP3   OH222508   5.940   4.771   0.951
 7515TIP3    H122509   5.897   4.844   0.995
 7515TIP3    H222510   5.868   4.714   0.925
 7516TIP3   OH222511   4.085   4.296   1.944
 7516TIP3    H122512   4.151   4.307   2.012
 7516TIP3    H222513   4.023   4.234   1.980
 7517TIP3   OH222514   6.080   2.861   3.713
 7517TIP3    H122515   6.004   2.898   3.669
 7517TIP3    H222516   6.091   2.774   3.674
 7518TIP3   OH222517   3.717   2.261   5.059
 7518TIP3    H122518   3.693   2.177   5.019
 7518TIP3    H222519   3.719   2.323   4.986
 7519TIP3   OH222520   4.877   2.295   1.728
 7519TIP3    H122521   4.920   2.327   1.807
 7519TIP3    H222522   4.840   2.373   1.687
 7520TIP3   OH222523   2.545   5.279   5.599
 7520TIP3    H122524   2.607   5.223   5.553
 7520TIP3    H222525   2.460   5.237   5.587
 7521TIP3   OH222526   0.273   5.250   1.318
 7521TIP3    H122527   0.211   5.197   1.368
 7521TIP3    H222528   0.282   5.331   1.368
 7522TIP3   OH222529   5.947   4.612   1.386
 7522TIP3    H122530   6.001   4.575   1.316
 7522TIP3    H222531   5.892   4.539   1.415
 7523TIP3   OH222532   2.254   5.107   3.124
 7523TIP3    H122533   2.348   5.122   3.119
 7523TIP3    H222534   2.245   5.024   3.171
 7524TIP3   OH222535   2.569   4.484   0.277
 7524TIP3    H122536   2.629   4.495   0.351
 7524TIP3    H222537   2.585   4.561   0.221
 7525TIP3   OH222538   3.220   2.673   3.255
 7525TIP3    H122539   3.268   2.720   3.187
 7525TIP3    H222540   3.267   2.590   3.265
 7526TIP3   OH222541   0.220   1.779   2.031
 7526TIP3    H122542   0.206   1.772   1.936
 7526TIP3    H222543   0.238   1.872   2.045
 7527TIP3   OH222544   5.295   4.734   5.766
 7527TIP3    H122545   5.318   4.642   5.759
 7527TIP3    H222546   5.378   4.778   5.787
 7528TIP3   OH222547   3.926   1.692   4.244
 7528TIP3    H122548   3.884   1.753   4.184
 7528TIP3    H222549   3.915   1.606   4.202
 7529TIP3   OH222550   0.694   5.983   3.141
 7529TIP3    H122551   0.718   6.056   3.198
 7529TIP3    H222552   0.599   5.990   3.132
 7530TIP3   OH222553   0.697   3.270   1.834
 7530TIP3    H122554   0.642   3.316   1.770
 7530TIP3    H222555   0.751   3.212   1.781
 7531TIP3   OH222556   1.735   1.048   4.534
 7531TIP3    H122557   1.791   1.040   4.611
 7531TIP3    H222558   1.739   1.141   4.511
 7532TIP3   OH222559   1.787   0.219   1.473
 7532TIP3    H122560   1.881   0.207   1.484
 7532TIP3    H222561   1.759   0.265   1.552
 7533TIP3   OH222562   2.553   6.527   4.514
 7533TIP3    H122563   2.517   6.528   4.603
 7533TIP3    H222564   2.561   6.434   4.492
 7534TIP3   OH222565   3.892   1.364   0.326
 7534TIP3    H122566   3.825   1.354   0.394
 7534TIP3    H222567   3.940   1.281   0.328
 7535TIP3   OH222568   4.148   4.683   2.469
 7535TIP3    H122569   4.170   4.604   2.518
 7535TIP3    H222570   4.054   4.676   2.453
 7536TIP3   OH222571   1.366   6.852   2.807
 7536TIP3    H122572   1.441   6.809   2.766
 7536TIP3    H222573   1.310   6.878   2.734
 7537TIP3   OH222574   1.657   3.610   0.755
 7537TIP3    H122575   1.623   3.520   0.751
 7537TIP3    H222576   1.591   3.663   0.709
 7538TIP3   OH222577   2.430   5.076   1.049
 7538TIP3    H122578   2.407   4.983   1.059
 7538TIP3    H222579   2.459   5.103   1.136
 7539TIP3   OH222580   6.351   4.550   1.290
 7539TIP3    H122581   6.266   4.514   1.264
 7539TIP3    H222582   6.371   4.505   1.372
 7540TIP3   OH222583   4.946   3.332   1.987
 7540TIP3    H122584   4.976   3.269   1.921
 7540TIP3    H222585   4.953   3.417   1.944
 7541TIP3   OH222586   5.396   2.485   5.543
 7541TIP3    H122587   5.468   2.518   5.490
 7541TIP3    H222588   5.420   2.506   5.633
 7542TIP3   OH222589   2.163   0.343   3.288
 7542TIP3    H122590   2.178   0.299   3.371
 7542TIP3    H222591   2.244   0.329   3.238
 7543TIP3   OH222592   5.792   4.029   5.054
 7543TIP3    H122593   5.853   4.102   5.048
 7543TIP3    H222594   5.807   3.992   5.141
 7544TIP3   OH222595   5.484   2.235   3.866
 7544TIP3    H122596   5.459   2.150   3.829
 7544TIP3    H222597   5.578   2.228   3.882
 7545TIP3   OH222598   4.451   5.572   4.673
 7545TIP3    H122599   4.458   5.667   4.685
 7545TIP3    H222600   4.397   5.562   4.595
 7546TIP3   OH222601   2.805   5.538   1.109
 7546TIP3    H122602   2.860   5.524   1.186
 7546TIP3    H222603   2.764   5.453   1.093
 7547TIP3   OH222604   0.790   5.209   4.305
 7547TIP3    H122605   0.779   5.114   4.315
 7547TIP3    H222606   0.878   5.219   4.268
 7548TIP3   OH222607   2.758   1.110   0.997
 7548TIP3    H122608   2.837   1.072   1.036
 7548TIP3    H222609   2.774   1.204   0.997
 7549TIP3   OH222610   0.368   2.362   2.437
 7549TIP3    H122611   0.439   2.300   2.450
 7549TIP3    H222612   0.324   2.367   2.522
 7550TIP3   OH222613   0.095   4.794   0.189
 7550TIP3    H122614   0.024   4.793   0.125
 7550TIP3    H222615   0.156   4.861   0.157
 7551TIP3   OH222616   4.121   6.404   1.588
 7551TIP3    H122617   4.044   6.445   1.549
 7551TIP3    H222618   4.183   6.475   1.601
 7552TIP3   OH222619   2.455   1.293   5.252
 7552TIP3    H122620   2.409   1.209   5.262
 7552TIP3    H222621   2.514   1.278   5.178
 7553TIP3   OH222622   6.334   1.903   2.682
 7553TIP3    H122623   6.267   1.970   2.672
 7553TIP3    H222624   6.341   1.890   2.776
 7554TIP3   OH222625   3.259   5.074   4.469
 7554TIP3    H122626   3.172   5.039   4.485
 7554TIP3    H222627   3.245   5.150   4.413
 7555TIP3   OH222628   6.802   3.522   2.232
 7555TIP3    H122629   6.828   3.505   2.323
 7555TIP3    H222630   6.848   3.456   2.181
 7556TIP3   OH222631   3.035   6.457   3.610
 7556TIP3    H122632   2.976   6.487   3.679
 7556TIP3    H222633   3.046   6.363   3.627
 7557TIP3   OH222634   1.648   5.925   3.508
 7557TIP3    H122635   1.641   5.925   3.413
 7557TIP3    H222636   1.619   5.838   3.535
 7558TIP3   OH222637   5.400   4.307   5.469
 7558TIP3    H122638   5.400   4.219   5.505
 7558TIP3    H222639   5.493   4.328   5.456
 7559TIP3   OH222640   6.938   3.157   1.066
 7559TIP3    H122641   7.021   3.193   1.099
 7559TIP3    H222642   6.965   3.094   0.999
 7560TIP3   OH222643   5.539   1.575   1.673
 7560TIP3    H122644   5.482   1.585   1.596
 7560TIP3    H222645   5.480   1.580   1.748
 7561TIP3   OH222646   2.703   0.192   3.401
 7561TIP3    H122647   2.646   0.263   3.429
 7561TIP3    H222648   2.785   0.235   3.376
 7562TIP3   OH222649   5.620   6.759   5.720
 7562TIP3    H122650   5.626   6.776   5.814
 7562TIP3    H222651   5.548   6.696   5.711
 7563TIP3   OH222652   2.068   2.344   4.864
 7563TIP3    H122653   1.989   2.323   4.816
 7563TIP3    H222654   2.037   2.386   4.944
 7564TIP3   OH222655   5.108   0.248   2.971
 7564TIP3    H122656   5.087   0.286   3.057
 7564TIP3    H222657   5.084   0.155   2.980
 7565TIP3   OH222658   0.592   5.385   4.773
 7565TIP3    H122659   0.636   5.339   4.702
 7565TIP3    H222660   0.610   5.478   4.757
 7566TIP3   OH222661   5.718   0.509   5.572
 7566TIP3    H122662   5.708   0.446   5.644
 7566TIP3    H222663   5.813   0.515   5.559
 7567TIP3   OH222664   4.687   2.647   5.454
 7567TIP3    H122665   4.779   2.668   5.464
 7567TIP3    H222666   4.686   2.554   5.429
 7568TIP3   OH222667   1.940   0.210   4.732
 7568TIP3    H122668   1.934   0.296   4.774
 7568TIP3    H222669   1.849   0.185   4.716
 7569TIP3   OH222670   3.628   3.237   2.876
 7569TIP3    H122671   3.547   3.255   2.828
 7569TIP3    H222672   3.698   3.252   2.811
 7570TIP3   OH222673   2.717   1.126   5.239
 7570TIP3    H122674   2.788   1.152   5.299
 7570TIP3    H222675   2.752   1.145   5.152
 7571TIP3   OH222676   5.409   0.286   0.498
 7571TIP3    H122677   5.427   0.372   0.534
 7571TIP3    H222678   5.483   0.232   0.526
 7572TIP3   OH222679   3.041   3.270   3.281
 7572TIP3    H122680   3.096   3.214   3.226
 7572TIP3    H222681   2.954   3.232   3.276
 7573TIP3   OH222682   6.752   5.011   1.530
 7573TIP3    H122683   6.793   5.097   1.527
 7573TIP3    H222684   6.678   5.018   1.469
 7574TIP3   OH222685   0.263   4.174   2.350
 7574TIP3    H122686   0.239   4.092   2.306
 7574TIP3    H222687   0.272   4.237   2.278
 7575TIP3   OH222688   4.677   6.420   4.415
 7575TIP3    H122689   4.669   6.515   4.411
 7575TIP3    H222690   4.605   6.387   4.361
 7576TIP3   OH222691   3.816   3.446   5.623
 7576TIP3    H122692   3.780   3.359   5.605
 7576TIP3    H222693   3.893   3.452   5.567
 7577TIP3   OH222694   2.661   4.051   1.538
 7577TIP3    H122695   2.689   4.139   1.514
 7577TIP3    H222696   2.566   4.053   1.534
 7578TIP3   OH222697   5.081   5.451   3.295
 7578TIP3    H122698   4.987   5.435   3.305
 7578TIP3    H222699   5.094   5.460   3.201
 7579TIP3   OH222700   6.690   4.821   2.002
 7579TIP3    H122701   6.666   4.732   2.028
 7579TIP3    H222702   6.786   4.821   2.004
 7580TIP3   OH222703   4.363   0.141   1.332
 7580TIP3    H122704   4.324   0.116   1.249
 7580TIP3    H222705   4.342   0.068   1.391
 7581TIP3   OH222706   1.578   5.721   4.952
 7581TIP3    H122707   1.548   5.811   4.942
 7581TIP3    H222708   1.610   5.697   4.865
 7582TIP3   OH222709   6.995   3.845   1.422
 7582TIP3    H122710   6.903   3.824   1.406
 7582TIP3    H222711   7.006   3.933   1.387
 7583TIP3   OH222712   3.606   5.663   1.179
 7583TIP3    H122713   3.673   5.654   1.110
 7583TIP3    H222714   3.540   5.598   1.157
 7584TIP3   OH222715   6.145   0.195   4.225
 7584TIP3    H122716   6.159   0.120   4.282
 7584TIP3    H222717   6.063   0.234   4.256
 7585TIP3   OH222718   4.088   2.827   5.239
 7585TIP3    H122719   4.096   2.753   5.179
 7585TIP3    H222720   4.018   2.880   5.203
 7586TIP3   OH222721   7.070   4.375   4.007
 7586TIP3    H122722   6.995   4.430   4.027
 7586TIP3    H222723   7.146   4.428   4.033
 7587TIP3   OH222724   3.717   2.732   1.869
 7587TIP3    H122725   3.675   2.813   1.842
 7587TIP3    H222726   3.717   2.735   1.965
 7588TIP3   OH222727   3.200   1.061   5.532
 7588TIP3    H122728   3.168   1.106   5.453
 7588TIP3    H222729   3.193   1.127   5.601
 7589TIP3   OH222730   2.032   6.642   0.086
 7589TIP3    H122731   2.013   6.566   0.141
 7589TIP3    H222732   2.057   6.711   0.147
 7590TIP3   OH222733   1.867   0.145   2.110
 7590TIP3    H122734   1.773   0.164   2.117
 7590TIP3    H222735   1.872   0.050   2.125
 7591TIP3   OH222736   1.631   6.494   2.954
 7591TIP3    H122737   1.605   6.447   2.875
 7591TIP3    H222738   1.688   6.564   2.923
 7592TIP3   OH222739   5.258   3.527   3.882
 7592TIP3    H122740   5.229   3.457   3.823
 7592TIP3    H222741   5.348   3.503   3.906
 7593TIP3   OH222742   4.989   3.777   1.370
 7593TIP3    H122743   4.986   3.710   1.438
 7593TIP3    H222744   4.975   3.860   1.417
 7594TIP3   OH222745   4.030   2.455   0.616
 7594TIP3    H122746   4.016   2.512   0.541
 7594TIP3    H222747   3.966   2.486   0.681
 7595TIP3   OH222748   4.412   4.026   2.360
 7595TIP3    H122749   4.480   4.062   2.303
 7595TIP3    H222750   4.384   3.946   2.315
 7596TIP3   OH222751   0.302   2.039   5.560
 7596TIP3    H122752   0.253   2.115   5.528
 7596TIP3    H222753   0.244   2.000   5.625
 7597TIP3   OH222754   5.369   2.875   0.451
 7597TIP3    H122755   5.321   2.792   0.461
 7597TIP3    H222756   5.360   2.918   0.536
 7598TIP3   OH222757   0.618   0.023   2.592
 7598TIP3    H122758   0.680  -0.049   2.589
 7598TIP3    H222759   0.576   0.015   2.678
 7599TIP3   OH222760   1.384   5.405   1.107
 7599TIP3    H122761   1.397   5.349   1.183
 7599TIP3    H222762   1.444   5.370   1.041
 7600TIP3   OH222763   2.987   6.337   1.082
 7600TIP3    H122764   2.962   6.252   1.118
 7600TIP3    H222765   3.056   6.369   1.141
 7601TIP3   OH222766   6.872   6.264   2.794
 7601TIP3    H122767   6.945   6.234   2.848
 7601TIP3    H222768   6.894   6.355   2.773
 7602TIP3   OH222769   1.179   0.218   3.202
 7602TIP3    H122770   1.268   0.243   3.178
 7602TIP3    H222771   1.190   0.140   3.257
 7603TIP3   OH222772   3.401   2.335   5.071
 7603TIP3    H122773   3.474   2.374   5.118
 7603TIP3    H222774   3.331   2.329   5.137
 7604TIP3   OH222775   1.748   1.706   0.633
 7604TIP3    H122776   1.659   1.742   0.636
 7604TIP3    H222777   1.736   1.613   0.654
 7605TIP3   OH222778   3.512   1.434   4.892
 7605TIP3    H122779   3.508   1.346   4.856
 7605TIP3    H222780   3.569   1.482   4.831
 7606TIP3   OH222781   1.867   2.016   5.700
 7606TIP3    H122782   1.857   2.019   5.795
 7606TIP3    H222783   1.940   2.074   5.682
 7607TIP3   OH222784   1.432   1.460   0.304
 7607TIP3    H122785   1.341   1.454   0.335
 7607TIP3    H222786   1.424   1.492   0.214
 7608TIP3   OH222787   3.294   5.625   4.075
 7608TIP3    H122788   3.386   5.606   4.094
 7608TIP3    H222789   3.251   5.625   4.160
 7609TIP3   OH222790   6.352   5.470   0.434
 7609TIP3    H122791   6.358   5.385   0.476
 7609TIP3    H222792   6.264   5.501   0.453
 7610TIP3   OH222793   5.599   6.103   3.100
 7610TIP3    H122794   5.662   6.055   3.047
 7610TIP3    H222795   5.638   6.190   3.111
 7611TIP3   OH222796   5.890   4.021   2.692
 7611TIP3    H122797   5.830   4.037   2.619
 7611TIP3    H222798   5.833   4.016   2.769
 7612TIP3   OH222799   6.367   5.885   3.982
 7612TIP3    H122800   6.320   5.803   3.967
 7612TIP3    H222801   6.373   5.892   4.077
 7613TIP3   OH222802   2.869   2.059   1.341
 7613TIP3    H122803   2.844   2.137   1.392
 7613TIP3    H222804   2.959   2.042   1.366
 7614TIP3   OH222805   1.065   5.891   2.941
 7614TIP3    H122806   1.117   5.942   3.003
 7614TIP3    H222807   1.128   5.833   2.899
 7615TIP3   OH222808   4.576   1.844   1.863
 7615TIP3    H122809   4.657   1.871   1.906
 7615TIP3    H222810   4.518   1.921   1.870
 7616TIP3   OH222811   7.045   2.255   5.065
 7616TIP3    H122812   6.981   2.272   4.996
 7616TIP3    H222813   7.020   2.170   5.102
 7617TIP3   OH222814   5.442   5.261   2.906
 7617TIP3    H122815   5.525   5.228   2.937
 7617TIP3    H222816   5.426   5.340   2.958
 7618TIP3   OH222817   6.860   2.411   5.458
 7618TIP3    H122818   6.872   2.493   5.411
 7618TIP3    H222819   6.846   2.438   5.549
 7619TIP3   OH222820   1.079   2.762   5.672
 7619TIP3    H122821   1.028   2.834   5.637
 7619TIP3    H222822   1.100   2.789   5.762
 7620TIP3   OH222823   5.767   3.276   0.518
 7620TIP3    H122824   5.831   3.273   0.589
 7620TIP3    H222825   5.811   3.234   0.444
 7621TIP3   OH222826   4.056   3.260   3.069
 7621TIP3    H122827   4.002   3.335   3.094
 7621TIP3    H222828   4.016   3.227   2.989
 7622TIP3   OH222829   3.282   4.764   0.910
 7622TIP3    H122830   3.258   4.719   0.992
 7622TIP3    H222831   3.284   4.694   0.845
 7623TIP3   OH222832   3.009   4.255   4.857
 7623TIP3    H122833   3.033   4.203   4.780
 7623TIP3    H222834   3.044   4.205   4.931
 7624TIP3   OH222835   5.519   6.404   5.324
 7624TIP3    H122836   5.573   6.408   5.403
 7624TIP3    H222837   5.530   6.315   5.292
 7625TIP3   OH222838   3.500   3.871   5.023
 7625TIP3    H122839   3.570   3.899   4.966
 7625TIP3    H222840   3.429   3.844   4.964
 7626TIP3   OH222841   5.385   0.709   4.524
 7626TIP3    H122842   5.431   0.705   4.439
 7626TIP3    H222843   5.364   0.618   4.544
 7627TIP3   OH222844   5.581   4.294   1.805
 7627TIP3    H122845   5.530   4.289   1.724
 7627TIP3    H222846   5.608   4.204   1.822
 7628TIP3   OH222847   3.326   1.037   0.769
 7628TIP3    H122848   3.234   1.055   0.788
 7628TIP3    H222849   3.351   1.102   0.703
 7629TIP3   OH222850   6.174   6.710   0.116
 7629TIP3    H122851   6.091   6.711   0.069
 7629TIP3    H222852   6.208   6.621   0.103
 7630TIP3   OH222853   2.630   4.577   4.461
 7630TIP3    H122854   2.586   4.650   4.504
 7630TIP3    H222855   2.643   4.607   4.371
 7631TIP3   OH222856   6.089   2.734   0.656
 7631TIP3    H122857   6.176   2.770   0.676
 7631TIP3    H222858   6.050   2.798   0.598
 7632TIP3   OH222859   1.465   0.484   1.495
 7632TIP3    H122860   1.506   0.569   1.511
 7632TIP3    H222861   1.531   0.420   1.520
 7633TIP3   OH222862   6.465   5.501   2.228
 7633TIP3    H122863   6.409   5.452   2.167
 7633TIP3    H222864   6.544   5.447   2.236
 7634TIP3   OH222865   4.878   6.566   2.347
 7634TIP3    H122866   4.831   6.626   2.405
 7634TIP3    H222867   4.882   6.484   2.397
 7635TIP3   OH222868   5.194   0.937   1.132
 7635TIP3    H122869   5.121   0.902   1.182
 7635TIP3    H222870   5.227   1.010   1.184
 7636TIP3   OH222871   5.275   1.838   1.638
 7636TIP3    H122872   5.357   1.838   1.688
 7636TIP3    H222873   5.283   1.913   1.579
 7637TIP3   OH222874   0.773   2.292   5.553
 7637TIP3    H122875   0.783   2.277   5.459
 7637TIP3    H222876   0.697   2.240   5.578
 7638TIP3   OH222877   0.039   5.170   0.811
 7638TIP3    H122878   0.001   5.082   0.817
 7638TIP3    H222879   0.010   5.215   0.890
 7639TIP3   OH222880   0.822   6.467   4.046
 7639TIP3    H122881   0.778   6.503   4.123
 7639TIP3    H222882   0.835   6.374   4.066
 7640TIP3   OH222883   1.960   5.897   4.270
 7640TIP3    H122884   2.029   5.943   4.222
 7640TIP3    H222885   1.979   5.914   4.362
 7641TIP3   OH222886   6.754   3.245   1.455
 7641TIP3    H122887   6.801   3.254   1.538
 7641TIP3    H222888   6.663   3.229   1.481
 7642TIP3   OH222889   6.849   5.080   0.004
 7642TIP3    H122890   6.850   4.996  -0.042
 7642TIP3    H222891   6.830   5.056   0.095
 7643TIP3   OH222892   2.927   2.924   0.197
 7643TIP3    H122893   2.933   3.016   0.172
 7643TIP3    H222894   2.990   2.914   0.269
 7644TIP3   OH222895   0.421   2.666   2.452
 7644TIP3    H122896   0.506   2.684   2.412
 7644TIP3    H222897   0.439   2.594   2.514
 7645TIP3   OH222898   6.891   6.043   3.748
 7645TIP3    H122899   6.810   6.073   3.707
 7645TIP3    H222900   6.889   6.080   3.836
 7646TIP3   OH222901   2.583   0.859   4.847
 7646TIP3    H122902   2.640   0.902   4.912
 7646TIP3    H222903   2.571   0.925   4.779
 7647TIP3   OH222904   4.807   3.693   0.371
 7647TIP3    H122905   4.870   3.623   0.356
 7647TIP3    H222906   4.784   3.724   0.283
 7648TIP3   OH222907   2.123   1.089   1.844
 7648TIP3    H122908   2.180   1.165   1.841
 7648TIP3    H222909   2.114   1.062   1.752
 7649TIP3   OH222910   0.426   2.394   2.159
 7649TIP3    H122911   0.411   2.388   2.253
 7649TIP3    H222912   0.510   2.440   2.151
 7650TIP3   OH222913   1.187   0.041   5.317
 7650TIP3    H122914   1.247   0.023   5.245
 7650TIP3    H222915   1.236   0.095   5.378
 7651TIP3   OH222916   1.227   4.450   4.656
 7651TIP3    H122917   1.289   4.517   4.627
 7651TIP3    H222918   1.166   4.441   4.582
 7652TIP3   OH222919   0.946   6.597   1.538
 7652TIP3    H122920   0.896   6.523   1.572
 7652TIP3    H222921   0.918   6.606   1.447
 7653TIP3   OH222922   6.189   2.453   5.271
 7653TIP3    H122923   6.181   2.546   5.249
 7653TIP3    H222924   6.234   2.415   5.196
 7654TIP3   OH222925   6.355   0.627   0.795
 7654TIP3    H122926   6.395   0.562   0.737
 7654TIP3    H222927   6.427   0.664   0.845
 7655TIP3   OH222928   2.294   0.524   3.929
 7655TIP3    H122929   2.295   0.613   3.892
 7655TIP3    H222930   2.365   0.525   3.994
 7656TIP3   OH222931   1.041   4.672   0.942
 7656TIP3    H122932   1.063   4.693   0.851
 7656TIP3    H222933   0.948   4.649   0.940
 7657TIP3   OH222934   3.058   2.418   3.712
 7657TIP3    H122935   3.069   2.511   3.690
 7657TIP3    H222936   3.075   2.415   3.806
 7658TIP3   OH222937   3.007   5.472   2.567
 7658TIP3    H122938   2.990   5.531   2.493
 7658TIP3    H222939   3.081   5.512   2.613
 7659TIP3   OH222940   6.531   2.937   4.709
 7659TIP3    H122941   6.508   2.979   4.626
 7659TIP3    H222942   6.449   2.897   4.739
 7660TIP3   OH222943   0.964   1.615   0.963
 7660TIP3    H122944   0.973   1.710   0.965
 7660TIP3    H222945   1.047   1.584   0.927
 7661TIP3   OH222946   6.436   5.106   3.517
 7661TIP3    H122947   6.395   5.087   3.432
 7661TIP3    H222948   6.382   5.175   3.555
 7662TIP3   OH222949   3.959   0.070   0.075
 7662TIP3    H122950   3.871   0.083   0.112
 7662TIP3    H222951   3.944   0.014  -0.001
 7663TIP3   OH222952   4.235   3.967   2.813
 7663TIP3    H122953   4.241   3.982   2.907
 7663TIP3    H222954   4.325   3.981   2.781
 7664TIP3   OH222955   2.897   5.599   4.601
 7664TIP3    H122956   2.947   5.671   4.641
 7664TIP3    H222957   2.961   5.529   4.590
 7665TIP3   OH222958   2.038   0.049   4.947
 7665TIP3    H122959   2.124   0.075   4.914
 7665TIP3    H222960   2.000   0.131   4.980
 7666TIP3   OH222961   5.565   2.361   4.566
 7666TIP3    H122962   5.506   2.364   4.491
 7666TIP3    H222963   5.638   2.307   4.537
 7667TIP3   OH222964   2.894   5.502   5.648
 7667TIP3    H122965   2.855   5.547   5.573
 7667TIP3    H222966   2.876   5.558   5.723
 7668TIP3   OH222967   3.659   5.705   2.903
 7668TIP3    H122968   3.566   5.723   2.921
 7668TIP3    H222969   3.668   5.611   2.916
 7669TIP3   OH222970   3.803   3.297   4.728
 7669TIP3    H122971   3.736   3.365   4.727
 7669TIP3    H222972   3.814   3.271   4.637
 7670TIP3   OH222973   6.936   2.086   3.790
 7670TIP3    H122974   6.929   2.135   3.708
 7670TIP3    H222975   7.028   2.063   3.796
 7671TIP3   OH222976   2.860   2.589   3.107
 7671TIP3    H122977   2.896   2.677   3.116
 7671TIP3    H222978   2.936   2.531   3.106
 7672TIP3   OH222979   2.155   4.929   2.425
 7672TIP3    H122980   2.179   5.005   2.478
 7672TIP3    H222981   2.190   4.948   2.338
 7673TIP3   OH222982   5.637   2.163   0.472
 7673TIP3    H122983   5.699   2.236   0.481
 7673TIP3    H222984   5.600   2.173   0.385
 7674TIP3   OH222985   0.965   2.814   2.127
 7674TIP3    H122986   0.997   2.890   2.077
 7674TIP3    H222987   1.044   2.774   2.162
 7675TIP3   OH222988   3.620   1.961   3.601
 7675TIP3    H122989   3.535   1.963   3.556
 7675TIP3    H222990   3.681   1.931   3.534
 7676TIP3   OH222991   4.876   4.720   1.455
 7676TIP3    H122992   4.955   4.753   1.498
 7676TIP3    H222993   4.896   4.725   1.361
 7677TIP3   OH222994   4.528   1.463   5.418
 7677TIP3    H122995   4.607   1.430   5.374
 7677TIP3    H222996   4.547   1.452   5.511
 7678TIP3   OH222997   3.516   1.338   5.140
 7678TIP3    H122998   3.526   1.360   5.047
 7678TIP3    H222999   3.422   1.324   5.150
 7679TIP3   OH223000   7.068   3.721   0.719
 7679TIP3    H123001   7.076   3.764   0.634
 7679TIP3    H223002   7.143   3.661   0.723
 7680TIP3   OH223003   7.105   2.774   3.364
 7680TIP3    H123004   7.122   2.697   3.417
 7680TIP3    H223005   7.009   2.775   3.354
 7681TIP3   OH223006   5.406   2.678   4.317
 7681TIP3    H123007   5.353   2.756   4.306
 7681TIP3    H223008   5.382   2.644   4.404
 7682TIP3   OH223009   2.248   0.733   3.754
 7682TIP3    H123010   2.183   0.742   3.684
 7682TIP3    H223011   2.226   0.801   3.817
 7683TIP3   OH223012   3.382   5.026   1.842
 7683TIP3    H123013   3.338   4.993   1.764
 7683TIP3    H223014   3.341   5.112   1.858
 7684TIP3   OH223015   4.044   3.755   3.370
 7684TIP3    H123016   4.132   3.738   3.337
 7684TIP3    H223017   4.039   3.851   3.375
 7685TIP3   OH223018   0.813   0.465   5.173
 7685TIP3    H123019   0.818   0.560   5.162
 7685TIP3    H223020   0.750   0.452   5.244
 7686TIP3   OH223021   4.738   4.080   2.714
 7686TIP3    H123022   4.746   4.172   2.739
 7686TIP3    H223023   4.801   4.034   2.770
 7687TIP3   OH223024   4.535   5.358   1.587
 7687TIP3    H123025   4.534   5.364   1.492
 7687TIP3    H223026   4.622   5.323   1.609
 7688TIP3   OH223027   4.574   1.783   5.618
 7688TIP3    H123028   4.490   1.805   5.577
 7688TIP3    H223029   4.625   1.742   5.548
 7689TIP3   OH223030   2.023   3.066   3.332
 7689TIP3    H123031   2.089   2.997   3.344
 7689TIP3    H223032   2.048   3.108   3.249
 7690TIP3   OH223033   1.798   5.682   1.025
 7690TIP3    H123034   1.737   5.611   1.044
 7690TIP3    H223035   1.766   5.756   1.077
 7691TIP3   OH223036   2.776   3.504   2.173
 7691TIP3    H123037   2.803   3.555   2.097
 7691TIP3    H223038   2.721   3.564   2.224
 7692TIP3   OH223039   4.444   3.288   2.928
 7692TIP3    H123040   4.437   3.239   3.009
 7692TIP3    H223041   4.422   3.224   2.860
 7693TIP3   OH223042   3.928   5.467   4.097
 7693TIP3    H123043   3.975   5.536   4.050
 7693TIP3    H223044   3.957   5.386   4.057
 7694TIP3   OH223045   1.051   4.797   3.472
 7694TIP3    H123046   1.015   4.708   3.476
 7694TIP3    H223047   1.072   4.818   3.562
 7695TIP3   OH223048   4.333   0.343   0.618
 7695TIP3    H123049   4.278   0.339   0.540
 7695TIP3    H223050   4.287   0.289   0.682
 7696TIP3   OH223051   2.206   6.427   0.718
 7696TIP3    H123052   2.138   6.361   0.731
 7696TIP3    H223053   2.234   6.451   0.806
 7697TIP3   OH223054   5.228   6.205   3.661
 7697TIP3    H123055   5.224   6.126   3.607
 7697TIP3    H223056   5.158   6.194   3.725
 7698TIP3   OH223057   6.741   0.624   0.328
 7698TIP3    H123058   6.659   0.578   0.314
 7698TIP3    H223059   6.799   0.593   0.258
 7699TIP3   OH223060   3.948   3.278   0.790
 7699TIP3    H123061   3.978   3.189   0.806
 7699TIP3    H223062   4.018   3.318   0.737
 7700TIP3   OH223063   1.277   6.189   5.455
 7700TIP3    H123064   1.297   6.188   5.549
 7700TIP3    H223065   1.285   6.282   5.430
 7701TIP3   OH223066   4.561   2.939   2.326
 7701TIP3    H123067   4.608   2.902   2.402
 7701TIP3    H223068   4.618   2.921   2.252
 7702TIP3   OH223069   0.452   3.506   4.153
 7702TIP3    H123070   0.406   3.515   4.070
 7702TIP3    H223071   0.417   3.426   4.192
 7703TIP3   OH223072   3.058   3.434   2.105
 7703TIP3    H123073   3.136   3.487   2.122
 7703TIP3    H223074   2.987   3.482   2.147
 7704TIP3   OH223075   4.383   0.551   4.425
 7704TIP3    H123076   4.381   0.578   4.333
 7704TIP3    H223077   4.293   0.524   4.444
 7705TIP3   OH223078   1.610   1.302   3.105
 7705TIP3    H123079   1.565   1.221   3.080
 7705TIP3    H223080   1.579   1.367   3.042
 7706TIP3   OH223081   7.056   5.163   1.577
 7706TIP3    H123082   7.126   5.228   1.574
 7706TIP3    H223083   7.041   5.138   1.486
 7707TIP3   OH223084   4.415   0.645   0.151
 7707TIP3    H123085   4.452   0.682   0.071
 7707TIP3    H223086   4.387   0.557   0.126
 7708TIP3   OH223087   4.314   2.371   1.689
 7708TIP3    H123088   4.375   2.323   1.633
 7708TIP3    H223089   4.359   2.453   1.710
 7709TIP3   OH223090   0.614   5.444   0.710
 7709TIP3    H123091   0.538   5.500   0.725
 7709TIP3    H223092   0.630   5.403   0.795
 7710TIP3   OH223093   5.433   5.329   2.627
 7710TIP3    H123094   5.399   5.323   2.717
 7710TIP3    H223095   5.507   5.389   2.633
 7711TIP3   OH223096   6.434   3.599   0.786
 7711TIP3    H123097   6.427   3.505   0.800
 7711TIP3    H223098   6.349   3.625   0.750
 7712TIP3   OH223099   2.524   4.058   3.106
 7712TIP3    H123100   2.454   4.101   3.055
 7712TIP3    H223101   2.604   4.076   3.057
 7713TIP3   OH223102   1.937   4.702   5.651
 7713TIP3    H123103   1.953   4.684   5.558
 7713TIP3    H223104   2.017   4.743   5.682
 7714TIP3   OH223105   3.682   6.456   4.704
 7714TIP3    H123106   3.777   6.461   4.693
 7714TIP3    H223107   3.647   6.508   4.632
 7715TIP3   OH223108   4.675   5.725   1.235
 7715TIP3    H123109   4.733   5.653   1.260
 7715TIP3    H223110   4.589   5.697   1.267
 7716TIP3   OH223111   1.032   2.907   2.994
 7716TIP3    H123112   1.060   2.920   2.903
 7716TIP3    H223113   1.066   2.821   3.017
 7717TIP3   OH223114   6.603   2.086   0.132
 7717TIP3    H123115   6.681   2.085   0.078
 7717TIP3    H223116   6.548   2.154   0.094
 7718TIP3   OH223117   0.461   5.984   5.529
 7718TIP3    H123118   0.494   6.067   5.562
 7718TIP3    H223119   0.366   5.997   5.522
 7719TIP3   OH223120   0.291   3.823   2.369
 7719TIP3    H123121   0.285   3.731   2.393
 7719TIP3    H223122   0.251   3.828   2.282
 7720TIP3   OH223123   0.586   6.669   1.743
 7720TIP3    H123124   0.542   6.709   1.817
 7720TIP3    H223125   0.678   6.694   1.753
 7721TIP3   OH223126   3.429   6.266   0.051
 7721TIP3    H123127   3.407   6.337   0.111
 7721TIP3    H223128   3.412   6.186   0.101
 7722TIP3   OH223129   1.762   1.315   0.628
 7722TIP3    H123130   1.696   1.247   0.613
 7722TIP3    H223131   1.735   1.387   0.571
 7723TIP3   OH223132   5.543   4.261   3.092
 7723TIP3    H123133   5.628   4.289   3.057
 7723TIP3    H223134   5.563   4.185   3.147
 7724TIP3   OH223135   4.814   4.746   3.821
 7724TIP3    H123136   4.760   4.813   3.863
 7724TIP3    H223137   4.876   4.719   3.889
 7725TIP3   OH223138   5.786   0.741   5.232
 7725TIP3    H123139   5.811   0.659   5.190
 7725TIP3    H223140   5.723   0.715   5.299
 7726TIP3   OH223141   0.540   6.142   0.879
 7726TIP3    H123142   0.534   6.237   0.881
 7726TIP3    H223143   0.606   6.121   0.946
 7727TIP3   OH223144   4.860   0.453   4.225
 7727TIP3    H123145   4.836   0.474   4.315
 7727TIP3    H223146   4.951   0.424   4.230
 7728TIP3   OH223147   5.230   2.920   5.468
 7728TIP3    H123148   5.260   2.886   5.552
 7728TIP3    H223149   5.297   2.892   5.405
 7729TIP3   OH223150   5.098   5.532   2.758
 7729TIP3    H123151   5.105   5.464   2.691
 7729TIP3    H223152   5.027   5.589   2.728
 7730TIP3   OH223153   0.332   4.090   1.334
 7730TIP3    H123154   0.275   4.034   1.281
 7730TIP3    H223155   0.298   4.179   1.320
 7731TIP3   OH223156   2.242   3.995   4.432
 7731TIP3    H123157   2.153   3.960   4.439
 7731TIP3    H223158   2.252   4.019   4.340
 7732TIP3   OH223159   0.018   5.289   4.148
 7732TIP3    H123160   0.059   5.226   4.088
 7732TIP3    H223161   0.091   5.334   4.190
 7733TIP3   OH223162   5.483   2.047   0.169
 7733TIP3    H123163   5.532   1.965   0.176
 7733TIP3    H223164   5.529   2.096   0.100
 7734TIP3   OH223165   5.145   5.402   0.845
 7734TIP3    H123166   5.186   5.336   0.902
 7734TIP3    H223167   5.135   5.479   0.901
 7735TIP3   OH223168   6.395   5.399   0.111
 7735TIP3    H123169   6.439   5.480   0.084
 7735TIP3    H223170   6.357   5.420   0.196
 7736TIP3   OH223171   5.485   0.652   4.933
 7736TIP3    H123172   5.404   0.629   4.887
 7736TIP3    H223173   5.481   0.747   4.944
 7737TIP3   OH223174   6.521   4.754   2.328
 7737TIP3    H123175   6.558   4.815   2.392
 7737TIP3    H223176   6.559   4.781   2.244
 7738TIP3   OH223177   4.554   1.606   3.459
 7738TIP3    H123178   4.478   1.642   3.413
 7738TIP3    H223179   4.623   1.672   3.448
 7739TIP3   OH223180   5.685   4.957   3.442
 7739TIP3    H123181   5.625   5.023   3.408
 7739TIP3    H223182   5.729   5.001   3.515
 7740TIP3   OH223183   4.899   5.677   0.693
 7740TIP3    H123184   4.953   5.714   0.762
 7740TIP3    H223185   4.956   5.675   0.616
 7741TIP3   OH223186   6.334   4.935   0.626
 7741TIP3    H123187   6.406   4.905   0.682
 7741TIP3    H223188   6.299   4.855   0.587
 7742TIP3   OH223189   5.122   5.194   0.191
 7742TIP3    H123190   5.094   5.123   0.133
 7742TIP3    H223191   5.124   5.154   0.278
 7743TIP3   OH223192   5.123   2.815   2.174
 7743TIP3    H123193   5.137   2.796   2.081
 7743TIP3    H223194   5.137   2.909   2.182
 7744TIP3   OH223195   5.693   4.019   2.491
 7744TIP3    H123196   5.611   3.994   2.449
 7744TIP3    H223197   5.759   4.009   2.423
 7745TIP3   OH223198   3.231   3.908   4.033
 7745TIP3    H123199   3.213   3.928   3.941
 7745TIP3    H223200   3.214   3.990   4.079
 7746TIP3   OH223201   6.650   6.633   0.190
 7746TIP3    H123202   6.715   6.702   0.205
 7746TIP3    H223203   6.680   6.590   0.110
 7747TIP3   OH223204   4.865   1.304   1.748
 7747TIP3    H123205   4.772   1.295   1.767
 7747TIP3    H223206   4.893   1.216   1.723
 7748TIP3   OH223207   6.446   4.359   2.555
 7748TIP3    H123208   6.367   4.412   2.549
 7748TIP3    H223209   6.500   4.388   2.481
 7749TIP3   OH223210   2.997   5.645   0.959
 7749TIP3    H123211   2.915   5.608   0.991
 7749TIP3    H223212   2.971   5.719   0.905
 7750TIP3   OH223213   4.648   3.153   0.089
 7750TIP3    H123214   4.719   3.098   0.121
 7750TIP3    H223215   4.689   3.239   0.074
 7751TIP3   OH223216   1.083   4.182   2.661
 7751TIP3    H123217   1.070   4.258   2.604
 7751TIP3    H223218   1.173   4.190   2.691
 7752TIP3   OH223219   0.430   0.052   1.476
 7752TIP3    H123220   0.383   0.081   1.554
 7752TIP3    H223221   0.394   0.106   1.405
 7753TIP3   OH223222   1.731   0.153   0.732
 7753TIP3    H123223   1.745   0.086   0.799
 7753TIP3    H223224   1.778   0.230   0.766
 7754TIP3   OH223225   3.873   5.563   3.662
 7754TIP3    H123226   3.901   5.631   3.601
 7754TIP3    H223227   3.951   5.541   3.712
 7755TIP3   OH223228   3.099   5.032   0.689
 7755TIP3    H123229   3.122   5.085   0.766
 7755TIP3    H223230   3.101   4.942   0.720
 7756TIP3   OH223231   4.749   0.071   1.731
 7756TIP3    H123232   4.792  -0.001   1.777
 7756TIP3    H223233   4.817   0.139   1.726
 7757TIP3   OH223234   0.336   5.537   2.570
 7757TIP3    H123235   0.332   5.463   2.509
 7757TIP3    H223236   0.422   5.576   2.554
 7758TIP3   OH223237   5.822   6.079   3.374
 7758TIP3    H123238   5.738   6.114   3.406
 7758TIP3    H223239   5.858   6.149   3.319
 7759TIP3   OH223240   1.962   1.021   4.690
 7759TIP3    H123241   1.981   1.009   4.783
 7759TIP3    H223242   2.047   1.013   4.647
 7760TIP3   OH223243   2.145   5.152   1.058
 7760TIP3    H123244   2.190   5.080   1.102
 7760TIP3    H223245   2.203   5.175   0.985
 7761TIP3   OH223246   0.386   5.086   1.615
 7761TIP3    H123247   0.293   5.107   1.623
 7761TIP3    H223248   0.411   5.055   1.702
 7762TIP3   OH223249   4.707   1.411   2.850
 7762TIP3    H123250   4.725   1.317   2.856
 7762TIP3    H223251   4.774   1.452   2.906
 7763TIP3   OH223252   0.653   1.978   1.982
 7763TIP3    H123253   0.639   2.037   2.056
 7763TIP3    H223254   0.611   1.896   2.008
 7764TIP3   OH223255   7.222   2.893   0.015
 7764TIP3    H123256   7.260   2.976   0.042
 7764TIP3    H223257   7.130   2.899   0.042
 7765TIP3   OH223258   3.659   4.138   0.928
 7765TIP3    H123259   3.621   4.207   0.874
 7765TIP3    H223260   3.603   4.133   1.005
 7766TIP3   OH223261   4.598   2.264   1.916
 7766TIP3    H123262   4.611   2.344   1.866
 7766TIP3    H223263   4.679   2.253   1.965
 7767TIP3   OH223264   5.092   5.790   1.642
 7767TIP3    H123265   5.165   5.733   1.664
 7767TIP3    H223266   5.127   5.879   1.653
 7768TIP3   OH223267   6.705   1.201   0.730
 7768TIP3    H123268   6.789   1.175   0.692
 7768TIP3    H223269   6.647   1.126   0.713
 7769TIP3   OH223270   6.284   5.079   5.692
 7769TIP3    H123271   6.360   5.093   5.636
 7769TIP3    H223272   6.303   4.999   5.741
 7770TIP3   OH223273   3.087   5.243   0.487
 7770TIP3    H123274   2.998   5.239   0.452
 7770TIP3    H223275   3.093   5.166   0.544
 7771TIP3   OH223276   5.039   6.308   2.416
 7771TIP3    H123277   4.990   6.227   2.405
 7771TIP3    H223278   5.090   6.317   2.335
 7772TIP3   OH223279   1.092   3.331   5.821
 7772TIP3    H123280   1.143   3.279   5.884
 7772TIP3    H223281   1.007   3.287   5.818
 7773TIP3   OH223282   3.307   6.408   3.601
 7773TIP3    H123283   3.300   6.496   3.639
 7773TIP3    H223284   3.216   6.382   3.585
 7774TIP3   OH223285   1.736   3.456   3.848
 7774TIP3    H123286   1.754   3.367   3.819
 7774TIP3    H223287   1.645   3.472   3.824
 7775TIP3   OH223288   1.177   5.069   5.530
 7775TIP3    H123289   1.187   5.097   5.439
 7775TIP3    H223290   1.234   4.993   5.538
 7776TIP3   OH223291   4.827   5.791   5.324
 7776TIP3    H123292   4.826   5.756   5.235
 7776TIP3    H223293   4.818   5.715   5.381
 7777TIP3   OH223294   5.857   4.836   4.635
 7777TIP3    H123295   5.812   4.805   4.713
 7777TIP3    H223296   5.786   4.861   4.575
 7778TIP3   OH223297   3.166   5.277   4.278
 7778TIP3    H123298   3.151   5.205   4.217
 7778TIP3    H223299   3.103   5.344   4.251
 7779TIP3   OH223300   1.145   3.171   5.081
 7779TIP3    H123301   1.236   3.187   5.109
 7779TIP3    H223302   1.102   3.256   5.094
 7780TIP3   OH223303   6.471   4.606   5.876
 7780TIP3    H123304   6.543   4.669   5.868
 7780TIP3    H223305   6.395   4.659   5.896
 7781TIP3   OH223306   4.235   5.168   5.372
 7781TIP3    H123307   4.249   5.178   5.466
 7781TIP3    H223308   4.228   5.074   5.358
 7782TIP3   OH223309   2.487   2.329   3.269
 7782TIP3    H123310   2.581   2.341   3.284
 7782TIP3    H223311   2.463   2.403   3.212
 7783TIP3   OH223312   2.473   3.720   2.643
 7783TIP3    H123313   2.447   3.642   2.594
 7783TIP3    H223314   2.542   3.759   2.590
 7784TIP3   OH223315   5.487   0.022   0.213
 7784TIP3    H123316   5.432  -0.032   0.270
 7784TIP3    H223317   5.573   0.023   0.257
 7785TIP3   OH223318   2.857   1.166   4.322
 7785TIP3    H123319   2.847   1.184   4.416
 7785TIP3    H223320   2.825   1.246   4.279
 7786TIP3   OH223321   3.345   1.733   4.316
 7786TIP3    H123322   3.322   1.818   4.278
 7786TIP3    H223323   3.291   1.726   4.394
 7787TIP3   OH223324   1.607   2.569   3.062
 7787TIP3    H123325   1.674   2.600   3.001
 7787TIP3    H223326   1.614   2.627   3.137
 7788TIP3   OH223327   6.493   2.317   2.490
 7788TIP3    H123328   6.457   2.349   2.407
 7788TIP3    H223329   6.552   2.387   2.519
 7789TIP3   OH223330   0.337   3.766   3.244
 7789TIP3    H123331   0.290   3.787   3.325
 7789TIP3    H223332   0.421   3.811   3.253
 7790TIP3   OH223333   0.741   1.909   4.151
 7790TIP3    H123334   0.755   1.950   4.066
 7790TIP3    H223335   0.802   1.834   4.152
 7791TIP3   OH223336   3.942   1.576   1.760
 7791TIP3    H123337   3.964   1.488   1.730
 7791TIP3    H223338   3.968   1.633   1.688
 7792TIP3   OH223339   1.391   4.060   1.892
 7792TIP3    H123340   1.396   4.062   1.796
 7792TIP3    H223341   1.481   4.042   1.919
 7793TIP3   OH223342   0.763   1.258   5.652
 7793TIP3    H123343   0.735   1.315   5.580
 7793TIP3    H223344   0.682   1.234   5.697
 7794TIP3   OH223345   6.434   5.027   3.018
 7794TIP3    H123346   6.484   4.980   3.085
 7794TIP3    H223347   6.345   4.993   3.027
 7795TIP3   OH223348   2.159   0.793   0.071
 7795TIP3    H123349   2.246   0.768   0.041
 7795TIP3    H223350   2.115   0.710   0.090
 7796TIP3   OH223351   0.059   1.592   2.200
 7796TIP3    H123352   0.124   1.647   2.157
 7796TIP3    H223353   0.019   1.648   2.266
 7797TIP3   OH223354   5.410   6.196   2.340
 7797TIP3    H123355   5.447   6.245   2.267
 7797TIP3    H223356   5.454   6.231   2.418
 7798TIP3   OH223357   1.388   0.962   0.010
 7798TIP3    H123358   1.323   1.019   0.051
 7798TIP3    H223359   1.464   0.967   0.070
 7799TIP3   OH223360   2.813   4.311   2.565
 7799TIP3    H123361   2.870   4.385   2.546
 7799TIP3    H223362   2.726   4.349   2.573
 7800TIP3   OH223363   1.087   2.430   1.271
 7800TIP3    H123364   1.105   2.520   1.245
 7800TIP3    H223365   1.006   2.435   1.321
 7801TIP3   OH223366   1.566   6.368   2.704
 7801TIP3    H123367   1.660   6.367   2.686
 7801TIP3    H223368   1.526   6.392   2.621
 7802TIP3   OH223369   3.251   6.766   1.644
 7802TIP3    H123370   3.178   6.709   1.618
 7802TIP3    H223371   3.279   6.808   1.562
 7803TIP3   OH223372   2.753   3.976   2.254
 7803TIP3    H123373   2.822   3.914   2.277
 7803TIP3    H223374   2.783   4.060   2.288
 7804TIP3   OH223375   4.992   5.804   0.239
 7804TIP3    H123376   4.905   5.797   0.278
 7804TIP3    H223377   5.040   5.862   0.298
 7805TIP3   OH223378   2.794   3.454   4.444
 7805TIP3    H123379   2.865   3.421   4.389
 7805TIP3    H223380   2.718   3.460   4.386
 7806TIP3   OH223381   0.618   5.566   3.730
 7806TIP3    H123382   0.707   5.587   3.702
 7806TIP3    H223383   0.612   5.471   3.720
 7807TIP3   OH223384   1.677   3.647   0.001
 7807TIP3    H123385   1.748   3.709  -0.020
 7807TIP3    H223386   1.612   3.700   0.046
 7808TIP3   OH223387   1.530   2.015   2.821
 7808TIP3    H123388   1.475   2.073   2.874
 7808TIP3    H223389   1.469   1.963   2.770
 7809TIP3   OH223390   5.753   2.154   3.839
 7809TIP3    H123391   5.804   2.181   3.915
 7809TIP3    H223392   5.743   2.060   3.848
 7810TIP3   OH223393   5.344   6.567   4.314
 7810TIP3    H123394   5.416   6.590   4.256
 7810TIP3    H223395   5.269   6.553   4.256
 7811TIP3   OH223396   4.693   2.095   4.106
 7811TIP3    H123397   4.748   2.108   4.183
 7811TIP3    H223398   4.733   2.151   4.039
 7812TIP3   OH223399   2.435   0.352   4.794
 7812TIP3    H123400   2.378   0.383   4.724
 7812TIP3    H223401   2.441   0.426   4.855
 7813TIP3   OH223402   3.650   4.168   1.791
 7813TIP3    H123403   3.722   4.230   1.776
 7813TIP3    H223404   3.685   4.105   1.854
 7814TIP3   OH223405   0.439   0.566   0.795
 7814TIP3    H123406   0.346   0.584   0.807
 7814TIP3    H223407   0.463   0.515   0.873
 7815TIP3   OH223408   4.864   3.251   2.615
 7815TIP3    H123409   4.771   3.230   2.612
 7815TIP3    H223410   4.901   3.190   2.678
 7816TIP3   OH223411   0.463   3.840   2.891
 7816TIP3    H123412   0.374   3.846   2.924
 7816TIP3    H223413   0.492   3.930   2.882
 7817TIP3   OH223414   4.389   6.737   1.445
 7817TIP3    H123415   4.388   6.691   1.361
 7817TIP3    H223416   4.304   6.781   1.450
 7818TIP3   OH223417   2.123   2.518   2.543
 7818TIP3    H123418   2.150   2.463   2.470
 7818TIP3    H223419   2.081   2.458   2.604
 7819TIP3   OH223420   5.130   0.025   1.701
 7819TIP3    H123421   5.164  -0.015   1.621
 7819TIP3    H223422   5.080   0.101   1.669
 7820TIP3   OH223423   5.579   3.550   0.769
 7820TIP3    H123424   5.543   3.467   0.736
 7820TIP3    H223425   5.633   3.583   0.696
 7821TIP3   OH223426   5.042   6.230   0.665
 7821TIP3    H123427   5.101   6.290   0.710
 7821TIP3    H223428   5.092   6.149   0.657
 7822TIP3   OH223429   1.292   1.335   4.526
 7822TIP3    H123430   1.375   1.372   4.556
 7822TIP3    H223431   1.310   1.242   4.513
 7823TIP3   OH223432   1.536   3.899   1.130
 7823TIP3    H123433   1.461   3.954   1.154
 7823TIP3    H223434   1.496   3.819   1.095
 7824TIP3   OH223435   3.827   4.409   1.168
 7824TIP3    H123436   3.796   4.457   1.091
 7824TIP3    H223437   3.846   4.478   1.233
 7825TIP3   OH223438   1.325   2.399   3.474
 7825TIP3    H123439   1.257   2.409   3.541
 7825TIP3    H223440   1.402   2.369   3.523
 7826TIP3   OH223441   2.170   2.134   1.986
 7826TIP3    H123442   2.140   2.156   1.898
 7826TIP3    H223443   2.118   2.190   2.044
 7827TIP3   OH223444   2.645   2.229   2.143
 7827TIP3    H123445   2.575   2.280   2.103
 7827TIP3    H223446   2.725   2.273   2.115
 7828TIP3   OH223447   4.496   1.754   3.058
 7828TIP3    H123448   4.590   1.762   3.073
 7828TIP3    H223449   4.483   1.662   3.034
 7829TIP3   OH223450   3.399   6.693   0.671
 7829TIP3    H123451   3.407   6.612   0.722
 7829TIP3    H223452   3.481   6.698   0.622
 7830TIP3   OH223453   0.360   4.112   0.248
 7830TIP3    H123454   0.328   4.154   0.168
 7830TIP3    H223455   0.366   4.183   0.311
 7831TIP3   OH223456   3.958   4.409   3.633
 7831TIP3    H123457   3.909   4.484   3.667
 7831TIP3    H223458   3.902   4.373   3.564
 7832TIP3   OH223459   2.715   2.475   0.759
 7832TIP3    H123460   2.751   2.433   0.838
 7832TIP3    H223461   2.688   2.562   0.789
 7833TIP3   OH223462   7.013   4.156   4.468
 7833TIP3    H123463   7.060   4.230   4.431
 7833TIP3    H223464   7.056   4.079   4.429
 7834TIP3   OH223465   6.874   3.838   1.059
 7834TIP3    H123466   6.815   3.886   1.001
 7834TIP3    H223467   6.826   3.757   1.081
 7835TIP3   OH223468   6.039   0.880   1.863
 7835TIP3    H123469   6.011   0.917   1.947
 7835TIP3    H223470   5.973   0.910   1.800
 7836TIP3   OH223471   0.613   5.777   5.685
 7836TIP3    H123472   0.534   5.760   5.735
 7836TIP3    H223473   0.591   5.853   5.630
 7837TIP3   OH223474   2.132   1.991   3.648
 7837TIP3    H123475   2.189   2.068   3.644
 7837TIP3    H223476   2.163   1.935   3.577
 7838TIP3   OH223477   2.249   4.633   2.330
 7838TIP3    H123478   2.269   4.713   2.379
 7838TIP3    H223479   2.281   4.651   2.241
 7839TIP3   OH223480   0.266   1.912   1.413
 7839TIP3    H123481   0.320   1.892   1.489
 7839TIP3    H223482   0.230   1.999   1.431
 7840TIP3   OH223483   3.206   0.133   1.803
 7840TIP3    H123484   3.252   0.051   1.819
 7840TIP3    H223485   3.199   0.139   1.707
 7841TIP3   OH223486   4.893   2.272   4.042
 7841TIP3    H123487   4.972   2.299   4.089
 7841TIP3    H223488   4.821   2.295   4.100
 7842TIP3   OH223489   2.057   5.348   2.976
 7842TIP3    H123490   2.117   5.293   2.926
 7842TIP3    H223491   2.065   5.316   3.066
 7843TIP3   OH223492   3.084   5.531   0.131
 7843TIP3    H123493   3.062   5.598   0.196
 7843TIP3    H223494   3.015   5.539   0.065
 7844TIP3   OH223495   0.608   2.633   1.843
 7844TIP3    H123496   0.616   2.702   1.776
 7844TIP3    H223497   0.554   2.673   1.911
 7845TIP3   OH223498   2.892   4.205   2.312
 7845TIP3    H123499   2.852   4.280   2.269
 7845TIP3    H223500   2.878   4.220   2.405
 7846TIP3   OH223501   0.609   1.146   1.794
 7846TIP3    H123502   0.558   1.143   1.876
 7846TIP3    H223503   0.592   1.062   1.752
 7847TIP3   OH223504   1.582   2.799   0.665
 7847TIP3    H123505   1.566   2.762   0.752
 7847TIP3    H223506   1.653   2.747   0.629
 7848TIP3   OH223507   3.677   6.319   1.074
 7848TIP3    H123508   3.755   6.372   1.093
 7848TIP3    H223509   3.710   6.229   1.066
 7849TIP3   OH223510   6.410   4.804   3.887
 7849TIP3    H123511   6.429   4.713   3.911
 7849TIP3    H223512   6.434   4.855   3.964
 7850TIP3   OH223513   0.777   0.164   4.425
 7850TIP3    H123514   0.733   0.093   4.472
 7850TIP3    H223515   0.777   0.237   4.487
 7851TIP3   OH223516   5.175   4.442   4.917
 7851TIP3    H123517   5.254   4.392   4.895
 7851TIP3    H223518   5.137   4.464   4.832
 7852TIP3   OH223519   0.872   6.795   3.645
 7852TIP3    H123520   0.832   6.714   3.679
 7852TIP3    H223521   0.907   6.838   3.723
 7853TIP3   OH223522   1.709   4.938   5.457
 7853TIP3    H123523   1.697   4.899   5.543
 7853TIP3    H223524   1.752   4.869   5.406
 7854TIP3   OH223525   1.530   4.656   0.161
 7854TIP3    H123526   1.552   4.708   0.083
 7854TIP3    H223527   1.585   4.692   0.230
 7855TIP3   OH223528   1.347   2.501   3.048
 7855TIP3    H123529   1.437   2.531   3.044
 7855TIP3    H223530   1.348   2.428   3.109
 7856TIP3   OH223531   7.031   4.275  -0.030
 7856TIP3    H123532   7.103   4.248  -0.088
 7856TIP3    H223533   7.068   4.267   0.058
 7857TIP3   OH223534   3.631   4.489   0.961
 7857TIP3    H123535   3.594   4.444   0.885
 7857TIP3    H223536   3.570   4.560   0.979
 7858TIP3   OH223537   4.583   3.334   5.538
 7858TIP3    H123538   4.556   3.408   5.592
 7858TIP3    H223539   4.549   3.257   5.584
 7859TIP3   OH223540   2.694   1.718   3.146
 7859TIP3    H123541   2.686   1.813   3.151
 7859TIP3    H223542   2.787   1.701   3.161
 7860TIP3   OH223543   2.097   1.525   0.695
 7860TIP3    H123544   2.091   1.486   0.608
 7860TIP3    H223545   2.013   1.504   0.736
 7861TIP3   OH223546   4.416   5.327   3.557
 7861TIP3    H123547   4.458   5.246   3.528
 7861TIP3    H223548   4.391   5.371   3.475
 7862TIP3   OH223549   5.680   0.513   1.332
 7862TIP3    H123550   5.664   0.560   1.250
 7862TIP3    H223551   5.607   0.452   1.340
 7863TIP3   OH223552   1.950   2.963   2.950
 7863TIP3    H123553   1.861   2.977   2.918
 7863TIP3    H223554   1.964   3.034   3.012
 7864TIP3   OH223555   6.661   1.466   0.761
 7864TIP3    H123556   6.676   1.372   0.753
 7864TIP3    H223557   6.708   1.504   0.687
 7865TIP3   OH223558   6.286   0.976   5.156
 7865TIP3    H123559   6.242   1.060   5.140
 7865TIP3    H223560   6.215   0.917   5.182
 7866TIP3   OH223561   6.243   4.773   2.348
 7866TIP3    H123562   6.330   4.737   2.335
 7866TIP3    H223563   6.236   4.844   2.284
 7867TIP3   OH223564   3.422   0.753   1.687
 7867TIP3    H123565   3.396   0.843   1.705
 7867TIP3    H223566   3.369   0.700   1.746
 7868TIP3   OH223567   3.576   4.389   5.099
 7868TIP3    H123568   3.521   4.311   5.103
 7868TIP3    H223569   3.641   4.376   5.168
 7869TIP3   OH223570   2.180   5.170   2.533
 7869TIP3    H123571   2.248   5.236   2.523
 7869TIP3    H223572   2.168   5.161   2.627
 7870TIP3   OH223573   0.220   5.719   0.256
 7870TIP3    H123574   0.286   5.785   0.237
 7870TIP3    H223575   0.230   5.702   0.350
 7871TIP3   OH223576   2.897   6.188   2.372
 7871TIP3    H123577   2.904   6.095   2.352
 7871TIP3    H223578   2.885   6.191   2.467
 7872TIP3   OH223579   1.661   6.171   4.274
 7872TIP3    H123580   1.625   6.205   4.356
 7872TIP3    H223581   1.641   6.077   4.276
 7873TIP3   OH223582   1.794   1.622   3.102
 7873TIP3    H123583   1.768   1.542   3.057
 7873TIP3    H223584   1.749   1.692   3.053
 7874TIP3   OH223585   2.437   2.741   0.591
 7874TIP3    H123586   2.406   2.823   0.551
 7874TIP3    H223587   2.484   2.696   0.520
 7875TIP3   OH223588   6.721   4.388   2.661
 7875TIP3    H123589   6.627   4.371   2.667
 7875TIP3    H223590   6.761   4.326   2.722
 7876TIP3   OH223591   6.890   2.021   5.651
 7876TIP3    H123592   6.799   2.049   5.636
 7876TIP3    H223593   6.918   2.071   5.727
 7877TIP3   OH223594   0.337   3.138   5.332
 7877TIP3    H123595   0.407   3.188   5.373
 7877TIP3    H223596   0.382   3.067   5.287
 7878TIP3   OH223597   2.134   6.740   2.027
 7878TIP3    H123598   2.117   6.732   1.933
 7878TIP3    H223599   2.049   6.756   2.066
 7879TIP3   OH223600   3.143   2.588   2.558
 7879TIP3    H123601   3.120   2.676   2.527
 7879TIP3    H223602   3.183   2.603   2.643
 7880TIP3   OH223603   6.793   4.869   3.857
 7880TIP3    H123604   6.792   4.872   3.952
 7880TIP3    H223605   6.722   4.927   3.830
 7881TIP3   OH223606   2.505   2.264   0.694
 7881TIP3    H123607   2.543   2.176   0.695
 7881TIP3    H223608   2.581   2.322   0.703
 7882TIP3   OH223609   6.771   5.282   3.043
 7882TIP3    H123610   6.857   5.295   3.003
 7882TIP3    H223611   6.709   5.314   2.977
 7883TIP3   OH223612   0.501   2.737   5.347
 7883TIP3    H123613   0.549   2.815   5.317
 7883TIP3    H223614   0.555   2.702   5.418
 7884TIP3   OH223615   6.573   1.517   2.257
 7884TIP3    H123616   6.513   1.530   2.183
 7884TIP3    H223617   6.518   1.477   2.325
 7885TIP3   OH223618   1.503   3.004   3.249
 7885TIP3    H123619   1.454   3.080   3.280
 7885TIP3    H223620   1.589   3.012   3.292
 7886TIP3   OH223621   6.774   5.497   4.270
 7886TIP3    H123622   6.845   5.454   4.223
 7886TIP3    H223623   6.725   5.425   4.311
 7887TIP3   OH223624   3.191   2.461   1.563
 7887TIP3    H123625   3.279   2.430   1.587
 7887TIP3    H223626   3.134   2.388   1.585
 7888TIP3   OH223627   2.488   1.025   2.071
 7888TIP3    H123628   2.569   1.062   2.034
 7888TIP3    H223629   2.517   0.954   2.128
 7889TIP3   OH223630   3.055   5.816   0.084
 7889TIP3    H123631   3.127   5.830   0.023
 7889TIP3    H223632   2.976   5.821   0.029
 7890TIP3   OH223633   0.442   3.806   1.884
 7890TIP3    H123634   0.384   3.775   1.815
 7890TIP3    H223635   0.427   3.900   1.889
 7891TIP3   OH223636   0.546   1.744   0.467
 7891TIP3    H123637   0.563   1.810   0.400
 7891TIP3    H223638   0.632   1.728   0.506
 7892TIP3   OH223639   6.000   1.373   3.225
 7892TIP3    H123640   6.019   1.287   3.187
 7892TIP3    H223641   6.078   1.425   3.208
 7893TIP3   OH223642   1.071   2.449   2.320
 7893TIP3    H123643   1.121   2.369   2.331
 7893TIP3    H223644   1.025   2.461   2.403
 7894TIP3   OH223645   7.032   2.324   0.628
 7894TIP3    H123646   7.113   2.323   0.680
 7894TIP3    H223647   6.964   2.351   0.690
 7895TIP3   OH223648   4.767   4.478   2.531
 7895TIP3    H123649   4.791   4.495   2.440
 7895TIP3    H223650   4.709   4.550   2.555
 7896TIP3   OH223651   6.445   4.781   5.091
 7896TIP3    H123652   6.496   4.755   5.168
 7896TIP3    H223653   6.355   4.755   5.112
 7897TIP3   OH223654   1.083   4.720   4.400
 7897TIP3    H123655   1.036   4.639   4.422
 7897TIP3    H223656   1.088   4.768   4.482
 7898TIP3   OH223657   2.437   6.417   5.541
 7898TIP3    H123658   2.503   6.401   5.609
 7898TIP3    H223659   2.401   6.503   5.563
 7899TIP3   OH223660   4.611   2.159   5.611
 7899TIP3    H123661   4.604   2.110   5.529
 7899TIP3    H223662   4.535   2.217   5.610
 7900TIP3   OH223663   2.780   6.327   5.705
 7900TIP3    H123664   2.805   6.247   5.659
 7900TIP3    H223665   2.777   6.394   5.637
 7901TIP3   OH223666   1.465   2.101   4.808
 7901TIP3    H123667   1.482   2.139   4.894
 7901TIP3    H223668   1.501   2.012   4.813
 7902TIP3   OH223669   5.875   5.019   3.659
 7902TIP3    H123670   5.958   5.033   3.614
 7902TIP3    H223671   5.866   5.095   3.717
 7903TIP3   OH223672   4.477   1.292   1.150
 7903TIP3    H123673   4.425   1.361   1.192
 7903TIP3    H223674   4.547   1.272   1.213
 7904TIP3   OH223675   0.509   6.601   4.672
 7904TIP3    H123676   0.433   6.555   4.706
 7904TIP3    H223677   0.502   6.593   4.577
 7905TIP3   OH223678   6.405   2.722   5.617
 7905TIP3    H123679   6.478   2.756   5.668
 7905TIP3    H223680   6.354   2.671   5.680
 7906TIP3   OH223681   4.434   1.451   5.718
 7906TIP3    H123682   4.371   1.440   5.647
 7906TIP3    H223683   4.411   1.384   5.782
 7907TIP3   OH223684   5.442   1.210   2.573
 7907TIP3    H123685   5.461   1.158   2.495
 7907TIP3    H223686   5.494   1.168   2.642
 7908TIP3   OH223687   6.109   1.685   0.121
 7908TIP3    H123688   6.139   1.746   0.053
 7908TIP3    H223689   6.030   1.646   0.084
 7909TIP3   OH223690   3.086   3.128   2.066
 7909TIP3    H123691   3.113   3.088   2.149
 7909TIP3    H223692   3.091   3.223   2.082
 7910TIP3   OH223693   4.769   1.009   2.650
 7910TIP3    H123694   4.824   1.078   2.613
 7910TIP3    H223695   4.802   0.997   2.739
 7911TIP3   OH223696   6.453   2.820   0.173
 7911TIP3    H123697   6.387   2.755   0.196
 7911TIP3    H223698   6.458   2.816   0.077
 7912TIP3   OH223699   3.180   2.232   3.547
 7912TIP3    H123700   3.131   2.158   3.584
 7912TIP3    H223701   3.146   2.308   3.593
 7913TIP3   OH223702   6.706   2.721   1.826
 7913TIP3    H123703   6.706   2.626   1.838
 7913TIP3    H223704   6.644   2.737   1.754
 7914TIP3   OH223705   7.194   3.360   3.117
 7914TIP3    H123706   7.260   3.425   3.142
 7914TIP3    H223707   7.145   3.345   3.198
 7915TIP3   OH223708   1.034   2.270   4.294
 7915TIP3    H123709   1.008   2.341   4.352
 7915TIP3    H223710   0.987   2.193   4.326
 7916TIP3   OH223711   2.922   1.771   5.818
 7916TIP3    H123712   2.979   1.702   5.851
 7916TIP3    H223713   2.907   1.828   5.893
 7917TIP3   OH223714   3.208   5.377   5.791
 7917TIP3    H123715   3.219   5.445   5.724
 7917TIP3    H223716   3.256   5.410   5.867
 7918TIP3   OH223717   5.649   6.342   2.759
 7918TIP3    H123718   5.646   6.437   2.747
 7918TIP3    H223719   5.734   6.326   2.800
 7919TIP3   OH223720   0.476   0.485   2.930
 7919TIP3    H123721   0.503   0.569   2.893
 7919TIP3    H223722   0.553   0.453   2.976
 7920TIP3   OH223723   2.161   3.571   4.574
 7920TIP3    H123724   2.190   3.662   4.576
 7920TIP3    H223725   2.236   3.521   4.609
 7921TIP3   OH223726   2.540   3.489   4.315
 7921TIP3    H123727   2.509   3.558   4.374
 7921TIP3    H223728   2.516   3.519   4.228
 7922TIP3   OH223729   6.832   6.723   3.254
 7922TIP3    H123730   6.783   6.786   3.202
 7922TIP3    H223731   6.802   6.637   3.224
 7923TIP3   OH223732   1.825   2.605   0.792
 7923TIP3    H123733   1.830   2.694   0.827
 7923TIP3    H223734   1.768   2.558   0.854
 7924TIP3   OH223735   4.478   0.423   0.904
 7924TIP3    H123736   4.414   0.368   0.949
 7924TIP3    H223737   4.458   0.512   0.934
 7925TIP3   OH223738   5.707   6.026   3.663
 7925TIP3    H123739   5.700   6.111   3.621
 7925TIP3    H223740   5.799   6.019   3.688
 7926TIP3   OH223741   1.281   0.842   5.023
 7926TIP3    H123742   1.306   0.818   4.934
 7926TIP3    H223743   1.263   0.936   5.018
 7927TIP3   OH223744   6.473   5.733   5.269
 7927TIP3    H123745   6.465   5.828   5.267
 7927TIP3    H223746   6.390   5.703   5.306
 7928TIP3   OH223747   2.921   1.267   1.375
 7928TIP3    H123748   3.012   1.240   1.376
 7928TIP3    H223749   2.874   1.195   1.418
 7929TIP3   OH223750   1.158   0.864   5.875
 7929TIP3    H123751   1.228   0.849   5.938
 7929TIP3    H223752   1.203   0.882   5.793
 7930TIP3   OH223753   3.701   2.989   1.778
 7930TIP3    H123754   3.760   3.008   1.706
 7930TIP3    H223755   3.630   3.053   1.769
 7931TIP3   OH223756   2.980   5.224   3.296
 7931TIP3    H123757   3.050   5.167   3.329
 7931TIP3    H223758   2.993   5.225   3.201
 7932TIP3   OH223759   5.640   5.764   2.819
 7932TIP3    H123760   5.638   5.730   2.729
 7932TIP3    H223761   5.665   5.856   2.809
 7933TIP3   OH223762   1.539   0.338   3.293
 7933TIP3    H123763   1.619   0.389   3.304
 7933TIP3    H223764   1.569   0.248   3.283
 7934TIP3   OH223765   3.205   3.247   5.408
 7934TIP3    H123766   3.192   3.155   5.434
 7934TIP3    H223767   3.156   3.297   5.473
 7935TIP3   OH223768   6.335   0.068   5.765
 7935TIP3    H123769   6.378   0.134   5.819
 7935TIP3    H223770   6.402   0.041   5.702
 7936TIP3   OH223771   5.778   6.501   5.181
 7936TIP3    H123772   5.783   6.406   5.188
 7936TIP3    H223773   5.765   6.531   5.271
 7937TIP3   OH223774   3.383   0.460   0.046
 7937TIP3    H123775   3.324   0.402  -0.003
 7937TIP3    H223776   3.333   0.484   0.124
 7938TIP3   OH223777   6.488   5.474   3.774
 7938TIP3    H123778   6.490   5.568   3.757
 7938TIP3    H223779   6.428   5.439   3.708
 7939TIP3   OH223780   4.126   3.895   4.048
 7939TIP3    H123781   4.064   3.848   4.103
 7939TIP3    H223782   4.080   3.908   3.965
 7940TIP3   OH223783   0.644   3.307   4.111
 7940TIP3    H123784   0.614   3.291   4.021
 7940TIP3    H223785   0.591   3.381   4.141
 7941TIP3   OH223786   1.320   3.830   4.410
 7941TIP3    H123787   1.312   3.760   4.474
 7941TIP3    H223788   1.415   3.837   4.394
 7942TIP3   OH223789   2.821   0.798   3.868
 7942TIP3    H123790   2.834   0.772   3.959
 7942TIP3    H223791   2.731   0.771   3.848
 7943TIP3   OH223792   2.628   4.852   3.987
 7943TIP3    H123793   2.573   4.920   3.948
 7943TIP3    H223794   2.708   4.853   3.935
 7944TIP3   OH223795   0.807   4.211   3.508
 7944TIP3    H123796   0.847   4.259   3.580
 7944TIP3    H223797   0.873   4.147   3.483
 7945TIP3   OH223798   5.459   4.100   5.815
 7945TIP3    H123799   5.437   4.144   5.897
 7945TIP3    H223800   5.376   4.070   5.780
 7946TIP3   OH223801   0.985   6.234   4.650
 7946TIP3    H123802   0.957   6.290   4.577
 7946TIP3    H223803   0.984   6.292   4.726
 7947TIP3   OH223804   1.164   5.179   4.524
 7947TIP3    H123805   1.142   5.255   4.579
 7947TIP3    H223806   1.250   5.151   4.556
 7948TIP3   OH223807   0.304   4.749   3.421
 7948TIP3    H123808   0.229   4.803   3.396
 7948TIP3    H223809   0.375   4.812   3.438
 7949TIP3   OH223810   0.671   6.694   1.419
 7949TIP3    H123811   0.639   6.606   1.440
 7949TIP3    H223812   0.666   6.700   1.324
 7950TIP3   OH223813   5.044   2.063   1.010
 7950TIP3    H123814   5.093   1.993   0.966
 7950TIP3    H223815   5.006   2.114   0.938
 7951TIP3   OH223816   2.810   0.452   1.589
 7951TIP3    H123817   2.716   0.458   1.605
 7951TIP3    H223818   2.832   0.532   1.541
 7952TIP3   OH223819   0.883   3.316  -0.027
 7952TIP3    H123820   0.858   3.293   0.062
 7952TIP3    H223821   0.959   3.259  -0.045
 7953TIP3   OH223822   3.592  -0.019   0.851
 7953TIP3    H123823   3.589  -0.038   0.945
 7953TIP3    H223824   3.512   0.031   0.835
 7954TIP3   OH223825   6.111   6.285   5.113
 7954TIP3    H123826   6.196   6.242   5.117
 7954TIP3    H223827   6.049   6.217   5.139
 7955TIP3   OH223828   5.310   2.940   1.611
 7955TIP3    H123829   5.284   2.913   1.699
 7955TIP3    H223830   5.253   2.890   1.553
 7956TIP3   OH223831   5.037   6.650   2.955
 7956TIP3    H123832   5.102   6.582   2.971
 7956TIP3    H223833   4.974   6.610   2.894
 7957TIP3   OH223834   6.375   5.578   5.889
 7957TIP3    H123835   6.452   5.606   5.840
 7957TIP3    H223836   6.404   5.501   5.938
 7958TIP3   OH223837   1.338   0.503   2.881
 7958TIP3    H123838   1.246   0.499   2.855
 7958TIP3    H223839   1.373   0.418   2.858
 7959TIP3   OH223840   3.105   3.641   0.191
 7959TIP3    H123841   3.094   3.676   0.103
 7959TIP3    H223842   3.200   3.632   0.201
 7960TIP3   OH223843   7.049   1.394   0.190
 7960TIP3    H123844   7.002   1.477   0.188
 7960TIP3    H223845   7.140   1.417   0.170
 7961TIP3   OH223846   5.480   3.072   4.937
 7961TIP3    H123847   5.394   3.114   4.931
 7961TIP3    H223848   5.541   3.144   4.949
 7962TIP3   OH223849   2.169   1.875   4.958
 7962TIP3    H123850   2.154   1.923   4.876
 7962TIP3    H223851   2.109   1.916   5.020
 7963TIP3   OH223852   6.426   4.528   4.029
 7963TIP3    H123853   6.432   4.483   4.113
 7963TIP3    H223854   6.456   4.464   3.965
 7964TIP3   OH223855   4.756   3.940   3.199
 7964TIP3    H123856   4.852   3.940   3.194
 7964TIP3    H223857   4.728   3.892   3.121
 7965TIP3   OH223858   5.223   6.149   1.482
 7965TIP3    H123859   5.258   6.067   1.446
 7965TIP3    H223860   5.198   6.200   1.405
 7966TIP3   OH223861   3.304   6.073   2.173
 7966TIP3    H123862   3.360   5.996   2.188
 7966TIP3    H223863   3.218   6.047   2.204
 7967TIP3   OH223864   0.900   1.177   4.391
 7967TIP3    H123865   0.818   1.155   4.436
 7967TIP3    H223866   0.951   1.096   4.392
 7968TIP3   OH223867   4.172   4.530   5.466
 7968TIP3    H123868   4.101   4.589   5.490
 7968TIP3    H223869   4.130   4.445   5.453
 7969TIP3   OH223870   1.684   4.944   0.324
 7969TIP3    H123871   1.710   4.852   0.324
 7969TIP3    H223872   1.731   4.981   0.400
 7970TIP3   OH223873   5.527   5.254   2.121
 7970TIP3    H123874   5.556   5.295   2.202
 7970TIP3    H223875   5.433   5.238   2.135
 7971TIP3   OH223876   0.791   3.326   3.778
 7971TIP3    H123877   0.712   3.279   3.807
 7971TIP3    H223878   0.864   3.275   3.812
 7972TIP3   OH223879   1.991   2.528   4.334
 7972TIP3    H123880   1.936   2.453   4.356
 7972TIP3    H223881   1.936   2.582   4.277
 7973TIP3   OH223882   6.044   1.845   3.931
 7973TIP3    H123883   6.036   1.867   4.024
 7973TIP3    H223884   6.138   1.840   3.916
 7974TIP3   OH223885   5.970   1.005   1.443
 7974TIP3    H123886   6.007   1.004   1.355
 7974TIP3    H223887   5.875   1.003   1.429
 7975TIP3   OH223888   0.418   4.638   2.980
 7975TIP3    H123889   0.408   4.733   2.976
 7975TIP3    H223890   0.340   4.607   3.026
 7976TIP3   OH223891   1.094   3.652   0.440
 7976TIP3    H123892   1.110   3.578   0.381
 7976TIP3    H223893   1.149   3.722   0.406
 7977TIP3   OH223894   2.247   0.091   2.673
 7977TIP3    H123895   2.242   0.154   2.601
 7977TIP3    H223896   2.305   0.022   2.641
 7978TIP3   OH223897   4.896   0.458   2.469
 7978TIP3    H123898   4.966   0.522   2.456
 7978TIP3    H223899   4.825   0.509   2.509
 7979TIP3   OH223900   6.699   6.382   3.644
 7979TIP3    H123901   6.755   6.408   3.571
 7979TIP3    H223902   6.704   6.287   3.645
 7980TIP3   OH223903   2.124   3.939   2.621
 7980TIP3    H123904   2.207   3.963   2.662
 7980TIP3    H223905   2.078   4.022   2.610
 7981TIP3   OH223906   4.449   5.857   5.039
 7981TIP3    H123907   4.396   5.782   5.065
 7981TIP3    H223908   4.451   5.913   5.117
 7982TIP3   OH223909   7.174   0.254   3.721
 7982TIP3    H123910   7.114   0.181   3.704
 7982TIP3    H223911   7.124   0.314   3.775
 7983TIP3   OH223912   4.433   0.606   3.259
 7983TIP3    H123913   4.473   0.546   3.197
 7983TIP3    H223914   4.408   0.682   3.206
 7984TIP3   OH223915   4.720   0.727   5.249
 7984TIP3    H123916   4.717   0.758   5.158
 7984TIP3    H223917   4.665   0.649   5.249
 7985TIP3   OH223918   5.213   2.893   4.146
 7985TIP3    H123919   5.156   2.958   4.106
 7985TIP3    H223920   5.293   2.896   4.094
 7986TIP3   OH223921   1.775   0.830   3.489
 7986TIP3    H123922   1.750   0.746   3.452
 7986TIP3    H223923   1.847   0.860   3.434
 7987TIP3   OH223924   2.252   6.239   1.494
 7987TIP3    H123925   2.208   6.201   1.417
 7987TIP3    H223926   2.191   6.224   1.566
 7988TIP3   OH223927   0.623   1.161  -0.026
 7988TIP3    H123928   0.590   1.113   0.050
 7988TIP3    H223929   0.560   1.233  -0.037
 7989TIP3   OH223930   5.769   0.081   1.444
 7989TIP3    H123931   5.789   0.073   1.351
 7989TIP3    H223932   5.846   0.124   1.482
 7990TIP3   OH223933   3.124   2.744   1.921
 7990TIP3    H123934   3.208   2.758   1.878
 7990TIP3    H223935   3.144   2.688   1.997
 7991TIP3   OH223936   1.988   1.305   3.363
 7991TIP3    H123937   2.021   1.272   3.446
 7991TIP3    H223938   1.893   1.299   3.371
 7992TIP3   OH223939   4.283   4.536   1.508
 7992TIP3    H123940   4.245   4.476   1.572
 7992TIP3    H223941   4.365   4.565   1.549
 7993TIP3   OH223942   6.412   0.244   4.882
 7993TIP3    H123943   6.437   0.336   4.878
 7993TIP3    H223944   6.463   0.203   4.813
 7994TIP3   OH223945   0.351   1.701   2.594
 7994TIP3    H123946   0.279   1.676   2.652
 7994TIP3    H223947   0.311   1.763   2.532
 7995TIP3   OH223948   1.535   2.283   3.598
 7995TIP3    H123949   1.583   2.272   3.680
 7995TIP3    H223950   1.604   2.298   3.533
 7996TIP3   OH223951   5.542   2.278   2.819
 7996TIP3    H123952   5.616   2.309   2.768
 7996TIP3    H223953   5.537   2.184   2.800
 7997TIP3   OH223954   0.207   3.849   3.010
 7997TIP3    H123955   0.250   3.864   3.095
 7997TIP3    H223956   0.146   3.778   3.027
 7998TIP3   OH223957   0.684   6.260   2.953
 7998TIP3    H123958   0.678   6.234   3.045
 7998TIP3    H223959   0.772   6.295   2.943
 7999TIP3   OH223960   7.110   6.244   4.791
 7999TIP3    H123961   7.017   6.247   4.769
 7999TIP3    H223962   7.145   6.327   4.758
 8000TIP3   OH223963   5.424   5.596   5.598
 8000TIP3    H123964   5.361   5.540   5.644
 8000TIP3    H223965   5.373   5.672   5.571
 8001TIP3   OH223966   5.246   1.259   0.437
 8001TIP3    H123967   5.274   1.325   0.374
 8001TIP3    H223968   5.166   1.222   0.400
 8002TIP3   OH223969   2.884   1.959   4.254
 8002TIP3    H123970   2.805   1.922   4.214
 8002TIP3    H223971   2.943   1.973   4.180
 8003TIP3   OH223972   4.636   4.443   3.041
 8003TIP3    H123973   4.624   4.512   3.105
 8003TIP3    H223974   4.694   4.380   3.084
 8004TIP3   OH223975   5.539   5.150   4.225
 8004TIP3    H123976   5.539   5.237   4.266
 8004TIP3    H223977   5.447   5.122   4.228
 8005TIP3   OH223978   1.668   1.789   4.385
 8005TIP3    H123979   1.729   1.764   4.454
 8005TIP3    H223980   1.709   1.757   4.304
 8006TIP3   OH223981   2.036   5.237   4.492
 8006TIP3    H123982   2.014   5.155   4.448
 8006TIP3    H223983   2.072   5.293   4.422
 8007TIP3   OH223984   0.975   6.247   0.036
 8007TIP3    H123985   0.892   6.236  -0.010
 8007TIP3    H223986   1.023   6.167   0.017
 8008TIP3   OH223987   1.989   2.304   2.674
 8008TIP3    H123988   2.038   2.223   2.688
 8008TIP3    H223989   1.902   2.276   2.645
 8009TIP3   OH223990   3.207   1.409   1.589
 8009TIP3    H123991   3.273   1.401   1.658
 8009TIP3    H223992   3.208   1.502   1.566
 8010TIP3   OH223993   4.217   5.925   4.792
 8010TIP3    H123994   4.180   5.942   4.706
 8010TIP3    H223995   4.293   5.869   4.775
 8011TIP3   OH223996   0.898   2.430   2.556
 8011TIP3    H123997   0.937   2.417   2.642
 8011TIP3    H223998   0.834   2.360   2.547
 8012TIP3   OH223999   0.345   2.423   5.875
 8012TIP3    H124000   0.381   2.338   5.850
 8012TIP3    H224001   0.318   2.462   5.792
 8013TIP3   OH224002   2.054   3.187   0.905
 8013TIP3    H124003   1.977   3.221   0.860
 8013TIP3    H224004   2.094   3.264   0.944
 8014TIP3   OH224005   6.606   1.783   0.131
 8014TIP3    H124006   6.689   1.755   0.170
 8014TIP3    H224007   6.565   1.837   0.198
 8015TIP3   OH224008   6.998   4.930   2.701
 8015TIP3    H124009   7.054   4.943   2.777
 8015TIP3    H224010   6.967   5.018   2.678
 8016TIP3   OH224011   6.451   4.425   4.293
 8016TIP3    H124012   6.417   4.362   4.357
 8016TIP3    H224013   6.411   4.508   4.319
 8017TIP3   OH224014   2.684   1.985   3.206
 8017TIP3    H124015   2.593   2.010   3.191
 8017TIP3    H224016   2.706   2.021   3.292
 8018TIP3   OH224017   5.842   0.059   2.338
 8018TIP3    H124018   5.832  -0.034   2.318
 8018TIP3    H224019   5.807   0.069   2.426
 8019TIP3   OH224020   5.151   6.538   0.016
 8019TIP3    H124021   5.058   6.554   0.032
 8019TIP3    H224022   5.186   6.513   0.102
 8020TIP3   OH224023   0.132   0.637   3.946
 8020TIP3    H124024   0.041   0.666   3.943
 8020TIP3    H224025   0.183   0.717   3.952
 8021TIP3   OH224026   5.162   5.332   2.557
 8021TIP3    H124027   5.248   5.374   2.569
 8021TIP3    H224028   5.157   5.316   2.462
 8022TIP3   OH224029   1.823   3.891   5.713
 8022TIP3    H124030   1.816   3.958   5.646
 8022TIP3    H224031   1.754   3.911   5.775
 8023TIP3   OH224032   2.634   6.467   0.721
 8023TIP3    H124033   2.650   6.528   0.794
 8023TIP3    H224034   2.719   6.458   0.678
 8024TIP3   OH224035   2.483   2.264   1.053
 8024TIP3    H124036   2.407   2.231   1.102
 8024TIP3    H224037   2.492   2.355   1.082
 8025TIP3   OH224038   2.381   3.455   4.662
 8025TIP3    H124039   2.469   3.476   4.630
 8025TIP3    H224040   2.395   3.388   4.729
 8026TIP3   OH224041   4.830   2.634   4.073
 8026TIP3    H124042   4.785   2.669   4.151
 8026TIP3    H224043   4.892   2.570   4.109
 8027TIP3   OH224044   1.818   0.745   5.856
 8027TIP3    H124045   1.838   0.810   5.789
 8027TIP3    H224046   1.855   0.664   5.822
 8028TIP3   OH224047   5.019   5.122   2.404
 8028TIP3    H124048   4.956   5.056   2.376
 8028TIP3    H224049   5.059   5.152   2.322
 8029TIP3   OH224050   1.604   2.210   0.908
 8029TIP3    H124051   1.529   2.239   0.856
 8029TIP3    H224052   1.664   2.172   0.844
 8030TIP3   OH224053   3.262   3.985   0.452
 8030TIP3    H124054   3.193   4.046   0.423
 8030TIP3    H224055   3.218   3.901   0.456
 8031TIP3   OH224056   0.252   1.988   5.842
 8031TIP3    H124057   0.159   2.010   5.849
 8031TIP3    H224058   0.260   1.903   5.885
 8032TIP3   OH224059   0.059   6.433   1.752
 8032TIP3    H124060  -0.006   6.468   1.814
 8032TIP3    H224061   0.014   6.360   1.709
 8033TIP3   OH224062   6.230   3.265   0.503
 8033TIP3    H124063   6.285   3.200   0.547
 8033TIP3    H224064   6.283   3.295   0.429
 8034TIP3   OH224065   4.051   0.423   3.833
 8034TIP3    H124066   4.100   0.446   3.912
 8034TIP3    H224067   4.070   0.331   3.818
 8035TIP3   OH224068   4.571   0.731   4.851
 8035TIP3    H124069   4.529   0.655   4.810
 8035TIP3    H224070   4.640   0.756   4.790
 8036TIP3   OH224071   6.255   3.632   2.097
 8036TIP3    H124072   6.261   3.727   2.091
 8036TIP3    H224073   6.331   3.607   2.149
 8037TIP3   OH224074   7.128   5.256   5.188
 8037TIP3    H124075   7.041   5.240   5.150
 8037TIP3    H224076   7.189   5.239   5.116
 8038TIP3   OH224077   0.928   4.427   1.445
 8038TIP3    H124078   0.849   4.393   1.404
 8038TIP3    H224079   0.920   4.522   1.438
 8039TIP3   OH224080   2.691   2.725   3.943
 8039TIP3    H124081   2.751   2.650   3.945
 8039TIP3    H224082   2.631   2.706   3.870
 8040TIP3   OH224083   0.470   3.928   5.870
 8040TIP3    H124084   0.464   4.011   5.822
 8040TIP3    H224085   0.410   3.938   5.943
 8041TIP3   OH224086   3.572   1.385   1.139
 8041TIP3    H124087   3.494   1.410   1.188
 8041TIP3    H224088   3.620   1.467   1.127
 8042TIP3   OH224089   5.888   5.254   1.622
 8042TIP3    H124090   5.910   5.163   1.600
 8042TIP3    H224091   5.950   5.306   1.571
 8043TIP3   OH224092   5.547   4.851   5.789
 8043TIP3    H124093   5.580   4.805   5.712
 8043TIP3    H224094   5.616   4.839   5.855
 8044TIP3   OH224095   3.939   0.311   2.117
 8044TIP3    H124096   3.914   0.253   2.046
 8044TIP3    H224097   4.027   0.283   2.142
 8045TIP3   OH224098   1.142   2.149   3.399
 8045TIP3    H124099   1.059   2.122   3.438
 8045TIP3    H224100   1.206   2.138   3.470
 8046TIP3   OH224101   0.960   6.093   1.556
 8046TIP3    H124102   0.977   6.026   1.490
 8046TIP3    H224103   1.001   6.172   1.520
 8047TIP3   OH224104   3.804   1.412   5.122
 8047TIP3    H124105   3.747   1.382   5.193
 8047TIP3    H224106   3.754   1.481   5.078
 8048TIP3   OH224107   4.024   6.718   0.570
 8048TIP3    H124108   3.973   6.660   0.626
 8048TIP3    H224109   4.022   6.676   0.484
 8049TIP3   OH224110   3.664   3.787   5.806
 8049TIP3    H124111   3.719   3.762   5.880
 8049TIP3    H224112   3.624   3.870   5.833
 8050TIP3   OH224113   4.570   0.793   4.520
 8050TIP3    H124114   4.617   0.876   4.512
 8050TIP3    H224115   4.486   0.817   4.559
 8051TIP3   OH224116   1.737   1.101   1.071
 8051TIP3    H124117   1.717   1.178   1.018
 8051TIP3    H224118   1.814   1.063   1.029
 8052TIP3   OH224119   2.187   0.251   1.258
 8052TIP3    H124120   2.145   0.333   1.283
 8052TIP3    H224121   2.234   0.223   1.336
 8053TIP3   OH224122   5.448   0.268   0.114
 8053TIP3    H124123   5.482   0.314   0.191
 8053TIP3    H224124   5.435   0.178   0.144
 8054TIP3   OH224125   1.288   5.056   5.249
 8054TIP3    H124126   1.330   4.997   5.186
 8054TIP3    H224127   1.361   5.093   5.299
 8055TIP3   OH224128   2.121   0.791   3.523
 8055TIP3    H124129   2.080   0.850   3.459
 8055TIP3    H224130   2.178   0.735   3.470
 8056TIP3   OH224131   6.361   6.661   5.354
 8056TIP3    H124132   6.371   6.651   5.449
 8056TIP3    H224133   6.384   6.575   5.319
 8057TIP3   OH224134   0.702   3.979   3.829
 8057TIP3    H124135   0.770   3.957   3.766
 8057TIP3    H224136   0.671   3.893   3.860
 8058TIP3   OH224137   5.918   0.234   3.763
 8058TIP3    H124138   5.871   0.162   3.720
 8058TIP3    H224139   5.980   0.264   3.697
 8059TIP3   OH224140   4.036   0.754   4.106
 8059TIP3    H124141   4.006   0.839   4.075
 8059TIP3    H224142   4.104   0.774   4.170
 8060TIP3   OH224143   3.699   4.043   0.182
 8060TIP3    H124144   3.740   4.130   0.179
 8060TIP3    H224145   3.638   4.048   0.256
 8061TIP3   OH224146   4.215   5.404   4.199
 8061TIP3    H124147   4.126   5.397   4.233
 8061TIP3    H224148   4.253   5.479   4.245
 8062TIP3   OH224149   1.009   6.216   2.082
 8062TIP3    H124150   0.954   6.293   2.069
 8062TIP3    H224151   1.017   6.176   1.995
 8063TIP3   OH224152   2.993   3.451   1.490
 8063TIP3    H124153   3.084   3.421   1.484
 8063TIP3    H224154   2.941   3.378   1.454
 8064TIP3   OH224155   0.803   4.179   4.272
 8064TIP3    H124156   0.738   4.247   4.290
 8064TIP3    H224157   0.769   4.101   4.315
 8065TIP3   OH224158   1.291   5.473   4.913
 8065TIP3    H124159   1.315   5.560   4.946
 8065TIP3    H224160   1.230   5.439   4.978
 8066TIP3   OH224161   6.325   4.609   0.347
 8066TIP3    H124162   6.371   4.588   0.429
 8066TIP3    H224163   6.373   4.684   0.311
 8067TIP3   OH224164   5.509   6.557   5.077
 8067TIP3    H124165   5.476   6.504   5.150
 8067TIP3    H224166   5.604   6.552   5.084
 8068TIP3   OH224167   3.052   6.456   3.344
 8068TIP3    H124168   2.967   6.486   3.312
 8068TIP3    H224169   3.052   6.477   3.437
 8069TIP3   OH224170   0.849   1.611   5.714
 8069TIP3    H124171   0.848   1.707   5.714
 8069TIP3    H224172   0.826   1.587   5.624
 8070TIP3   OH224173   4.281   1.161   0.558
 8070TIP3    H124174   4.319   1.073   0.553
 8070TIP3    H224175   4.272   1.188   0.466
 8071TIP3   OH224176   0.227   0.987   1.792
 8071TIP3    H124177   0.239   0.990   1.887
 8071TIP3    H224178   0.290   0.921   1.762
 8072TIP3   OH224179   3.212   2.992   3.434
 8072TIP3    H124180   3.144   3.006   3.500
 8072TIP3    H224181   3.189   2.909   3.393
 8073TIP3   OH224182   2.282   2.047   4.366
 8073TIP3    H124183   2.222   1.986   4.409
 8073TIP3    H224184   2.301   2.113   4.433
 8074TIP3   OH224185   3.062   6.732   1.205
 8074TIP3    H124186   3.120   6.707   1.132
 8074TIP3    H224187   2.975   6.736   1.166
 8075TIP3   OH224188   3.558   3.982   3.528
 8075TIP3    H124189   3.540   4.075   3.541
 8075TIP3    H224190   3.644   3.980   3.485
 8076TIP3   OH224191   6.289   1.026   1.997
 8076TIP3    H124192   6.311   1.096   2.059
 8076TIP3    H224193   6.214   1.059   1.948
 8077TIP3   OH224194   5.028   5.921   3.462
 8077TIP3    H124195   5.017   5.910   3.556
 8077TIP3    H224196   4.952   5.877   3.423
 8078TIP3   OH224197   0.736   0.737   5.150
 8078TIP3    H124198   0.781   0.767   5.229
 8078TIP3    H224199   0.648   0.774   5.157
 8079TIP3   OH224200   4.656   0.211   4.864
 8079TIP3    H124201   4.633   0.152   4.936
 8079TIP3    H224202   4.654   0.156   4.786
 8080TIP3   OH224203   0.336   0.187   3.724
 8080TIP3    H124204   0.297   0.100   3.738
 8080TIP3    H224205   0.267   0.248   3.750
 8081TIP3   OH224206   1.301   3.174   1.550
 8081TIP3    H124207   1.241   3.195   1.478
 8081TIP3    H224208   1.254   3.107   1.601
 8082TIP3   OH224209   0.922   4.602   1.994
 8082TIP3    H124210   0.982   4.577   2.064
 8082TIP3    H224211   0.970   4.668   1.944
 8083TIP3   OH224212   0.978   5.201   3.133
 8083TIP3    H124213   0.992   5.261   3.060
 8083TIP3    H224214   0.937   5.255   3.201
 8084TIP3   OH224215   1.692   0.602   5.206
 8084TIP3    H124216   1.764   0.638   5.155
 8084TIP3    H224217   1.723   0.515   5.232
 8085TIP3   OH224218   3.803   4.829   5.070
 8085TIP3    H124219   3.801   4.764   5.000
 8085TIP3    H224220   3.747   4.900   5.038
 8086TIP3   OH224221   5.260   5.801   3.247
 8086TIP3    H124222   5.175   5.820   3.207
 8086TIP3    H224223   5.323   5.813   3.176
 8087TIP3   OH224224   2.396   4.488   5.722
 8087TIP3    H124225   2.449   4.558   5.684
 8087TIP3    H224226   2.350   4.531   5.795
 8088TIP3   OH224227   5.292   4.872   4.985
 8088TIP3    H124228   5.218   4.879   5.044
 8088TIP3    H224229   5.287   4.949   4.929
 8089TIP3   OH224230   5.072   4.491   4.248
 8089TIP3    H124231   5.107   4.408   4.215
 8089TIP3    H224232   4.977   4.479   4.245
 8090TIP3   OH224233   3.066   1.355   3.432
 8090TIP3    H124234   3.118   1.369   3.512
 8090TIP3    H224235   3.117   1.292   3.382
 8091TIP3   OH224236   0.678   3.326   1.469
 8091TIP3    H124237   0.751   3.366   1.421
 8091TIP3    H224238   0.720   3.263   1.528
 8092TIP3   OH224239   3.625   4.013   5.316
 8092TIP3    H124240   3.613   3.928   5.274
 8092TIP3    H224241   3.608   3.997   5.408
 8093TIP3   OH224242   6.819   0.491   1.185
 8093TIP3    H124243   6.758   0.419   1.201
 8093TIP3    H224244   6.804   0.552   1.257
 8094TIP3   OH224245   2.570   6.687   0.896
 8094TIP3    H124246   2.557   6.642   0.979
 8094TIP3    H224247   2.608   6.771   0.921
 8095TIP3   OH224248   3.875   0.428   4.438
 8095TIP3    H124249   3.785   0.457   4.454
 8095TIP3    H224250   3.870   0.333   4.441
 8096TIP3   OH224251   7.164   6.398   5.801
 8096TIP3    H124252   7.211   6.472   5.839
 8096TIP3    H224253   7.071   6.419   5.815
 8097TIP3   OH224254   0.177   1.872   5.288
 8097TIP3    H124255   0.100   1.926   5.267
 8097TIP3    H224256   0.248   1.936   5.299
 8098TIP3   OH224257   5.542   6.334   0.597
 8098TIP3    H124258   5.510   6.280   0.669
 8098TIP3    H224259   5.626   6.367   0.627
 8099TIP3   OH224260   7.198   6.415   0.062
 8099TIP3    H124261   7.146   6.403  -0.018
 8099TIP3    H224262   7.181   6.336   0.114
 8100TIP3   OH224263   4.607   5.444   5.308
 8100TIP3    H124264   4.527   5.447   5.255
 8100TIP3    H224265   4.672   5.490   5.255
 8101TIP3   OH224266   3.821   5.971   4.758
 8101TIP3    H124267   3.888   6.039   4.764
 8101TIP3    H224268   3.752   5.999   4.817
 8102TIP3   OH224269   6.303   1.614   2.707
 8102TIP3    H124270   6.244   1.567   2.649
 8102TIP3    H224271   6.328   1.692   2.657
 8103TIP3   OH224272   5.737   0.435   3.438
 8103TIP3    H124273   5.674   0.471   3.375
 8103TIP3    H224274   5.787   0.371   3.388
 8104TIP3   OH224275   4.913   3.775   0.775
 8104TIP3    H124276   4.938   3.800   0.686
 8104TIP3    H224277   4.994   3.744   0.815
 8105TIP3   OH224278   3.018   1.832   3.341
 8105TIP3    H124279   2.987   1.782   3.417
 8105TIP3    H224280   3.034   1.765   3.274
 8106TIP3   OH224281   6.757   5.124   0.550
 8106TIP3    H124282   6.664   5.127   0.529
 8106TIP3    H224283   6.771   5.199   0.609
 8107TIP3   OH224284   4.717   6.705   1.209
 8107TIP3    H124285   4.721   6.702   1.305
 8107TIP3    H224286   4.695   6.616   1.183
 8108TIP3   OH224287   0.964   0.378   2.067
 8108TIP3    H124288   0.873   0.404   2.079
 8108TIP3    H224289   1.009   0.459   2.043
 8109TIP3   OH224290   4.550   3.419   2.194
 8109TIP3    H124291   4.534   3.336   2.150
 8109TIP3    H224292   4.540   3.485   2.125
 8110TIP3   OH224293   2.838   3.976   5.532
 8110TIP3    H124294   2.842   3.881   5.521
 8110TIP3    H224295   2.788   4.006   5.456
 8111TIP3   OH224296   3.902   0.670   0.625
 8111TIP3    H124297   3.835   0.679   0.557
 8111TIP3    H224298   3.892   0.749   0.679
 8112TIP3   OH224299   3.250   2.159   4.305
 8112TIP3    H124300   3.217   2.070   4.305
 8112TIP3    H224301   3.295   2.168   4.389
 8113TIP3   OH224302   1.054   3.915   2.623
 8113TIP3    H124303   1.059   4.010   2.613
 8113TIP3    H224304   1.081   3.899   2.713
 8114TIP3   OH224305   0.119   2.672   0.942
 8114TIP3    H124306   0.179   2.600   0.923
 8114TIP3    H224307   0.113   2.674   1.038
 8115TIP3   OH224308   2.535   4.628   0.638
 8115TIP3    H124309   2.459   4.575   0.617
 8115TIP3    H224310   2.521   4.711   0.591
 8116TIP3   OH224311   3.475   1.604   0.806
 8116TIP3    H124312   3.390   1.637   0.778
 8116TIP3    H224313   3.538   1.647   0.747
 8117TIP3   OH224314   2.507   2.058   4.634
 8117TIP3    H124315   2.519   2.110   4.555
 8117TIP3    H224316   2.592   2.061   4.679
 8118TIP3   OH224317   1.629   4.451   1.038
 8118TIP3    H124318   1.719   4.484   1.035
 8118TIP3    H224319   1.634   4.365   0.997
 8119TIP3   OH224320   1.938   3.491   4.467
 8119TIP3    H124321   1.878   3.490   4.541
 8119TIP3    H224322   2.019   3.528   4.502
 8120TIP3   OH224323   0.981   6.333   3.093
 8120TIP3    H124324   0.927   6.400   3.135
 8120TIP3    H224325   1.007   6.275   3.164
 8121TIP3   OH224326   1.518   2.819   5.385
 8121TIP3    H124327   1.594   2.800   5.329
 8121TIP3    H224328   1.555   2.858   5.463
 8122TIP3   OH224329   6.344   1.150   0.102
 8122TIP3    H124330   6.422   1.169   0.051
 8122TIP3    H224331   6.282   1.218   0.077
 8123TIP3   OH224332   6.868   6.218   2.067
 8123TIP3    H124333   6.887   6.133   2.028
 8123TIP3    H224334   6.940   6.274   2.039
 8124TIP3   OH224335   5.704   4.866   2.383
 8124TIP3    H124336   5.786   4.892   2.425
 8124TIP3    H224337   5.725   4.784   2.338
 8125TIP3   OH224338   6.179   1.444   1.924
 8125TIP3    H124339   6.084   1.447   1.912
 8125TIP3    H224340   6.199   1.351   1.936
 8126TIP3   OH224341   1.034   3.757   3.977
 8126TIP3    H124342   1.088   3.836   3.989
 8126TIP3    H224343   1.089   3.686   4.009
 8127TIP3   OH224344   4.845   4.955   2.263
 8127TIP3    H124345   4.868   4.866   2.235
 8127TIP3    H224346   4.900   5.011   2.207
 8128TIP3   OH224347   4.549   2.434   3.433
 8128TIP3    H124348   4.644   2.439   3.422
 8128TIP3    H224349   4.535   2.461   3.524
 8129TIP3   OH224350   7.193   3.028   5.170
 8129TIP3    H124351   7.223   2.952   5.219
 8129TIP3    H224352   7.109   3.050   5.209
 8130TIP3   OH224353   1.227   1.795   3.013
 8130TIP3    H124354   1.228   1.750   3.097
 8130TIP3    H224355   1.259   1.731   2.950
 8131TIP3   OH224356   5.877   3.094   4.759
 8131TIP3    H124357   5.882   3.069   4.667
 8131TIP3    H224358   5.811   3.035   4.796
 8132TIP3   OH224359   0.231   4.867   2.320
 8132TIP3    H124360   0.144   4.845   2.355
 8132TIP3    H224361   0.241   4.960   2.339
 8133TIP3   OH224362   6.247   3.773   4.690
 8133TIP3    H124363   6.248   3.698   4.750
 8133TIP3    H224364   6.333   3.771   4.648
 8134TIP3   OH224365   4.110   5.702   3.976
 8134TIP3    H124366   4.179   5.749   3.931
 8134TIP3    H224367   4.086   5.632   3.916
 8135TIP3   OH224368   7.148   3.202   4.221
 8135TIP3    H124369   7.153   3.150   4.302
 8135TIP3    H224370   7.095   3.149   4.162
 8136TIP3   OH224371   2.886   1.332   2.813
 8136TIP3    H124372   2.946   1.271   2.857
 8136TIP3    H224373   2.815   1.344   2.875
 8137TIP3   OH224374   0.227   0.944   0.206
 8137TIP3    H124375   0.268   0.956   0.292
 8137TIP3    H224376   0.137   0.973   0.218
 8138TIP3   OH224377   6.645   3.686   2.768
 8138TIP3    H124378   6.663   3.709   2.859
 8138TIP3    H224379   6.683   3.599   2.757
 8139TIP3   OH224380   1.778   6.697   2.821
 8139TIP3    H124381   1.815   6.758   2.884
 8139TIP3    H224382   1.693   6.735   2.798
 8140TIP3   OH224383   2.073   5.156   4.137
 8140TIP3    H124384   2.048   5.083   4.080
 8140TIP3    H224385   2.037   5.234   4.095
 8141TIP3   OH224386   3.432   2.364   3.576
 8141TIP3    H124387   3.346   2.338   3.542
 8141TIP3    H224388   3.495   2.314   3.523
 8142TIP3   OH224389   5.951   5.467   0.176
 8142TIP3    H124390   6.012   5.450   0.104
 8142TIP3    H224391   5.868   5.428   0.147
 8143TIP3   OH224392   0.043   5.196   3.313
 8143TIP3    H124393   0.052   5.240   3.398
 8143TIP3    H224394   0.044   5.103   3.334
 8144TIP3   OH224395   1.823   2.157   1.285
 8144TIP3    H124396   1.735   2.181   1.255
 8144TIP3    H224397   1.870   2.136   1.205
 8145TIP3   OH224398   7.240   0.611   4.341
 8145TIP3    H124399   7.212   0.601   4.432
 8145TIP3    H224400   7.173   0.567   4.290
 8146TIP3   OH224401   2.799   0.721   1.740
 8146TIP3    H124402   2.793   0.708   1.645
 8146TIP3    H224403   2.753   0.803   1.756
 8147TIP3   OH224404   5.621   5.928   0.585
 8147TIP3    H124405   5.647   5.987   0.655
 8147TIP3    H224406   5.570   5.859   0.628
 8148TIP3   OH224407   1.558   1.223   4.977
 8148TIP3    H124408   1.529   1.177   5.056
 8148TIP3    H224409   1.519   1.310   4.984
 8149TIP3   OH224410   3.104   2.282   0.908
 8149TIP3    H124411   3.186   2.263   0.863
 8149TIP3    H224412   3.075   2.366   0.871
 8150TIP3   OH224413   3.541   3.625   3.030
 8150TIP3    H124414   3.530   3.564   3.103
 8150TIP3    H224415   3.461   3.678   3.032
 8151TIP3   OH224416   4.107   5.593   2.810
 8151TIP3    H124417   4.077   5.652   2.740
 8151TIP3    H224418   4.202   5.606   2.813
 8152TIP3   OH224419   7.021   4.235   5.539
 8152TIP3    H124420   6.937   4.189   5.547
 8152TIP3    H224421   7.013   4.286   5.459
 8153TIP3   OH224422   4.245   3.632   4.669
 8153TIP3    H124423   4.296   3.634   4.588
 8153TIP3    H224424   4.176   3.568   4.652
 8154TIP3   OH224425   3.344   1.657   5.545
 8154TIP3    H124426   3.418   1.692   5.496
 8154TIP3    H224427   3.359   1.562   5.548
 8155TIP3   OH224428   3.598   3.761   2.763
 8155TIP3    H124429   3.578   3.697   2.831
 8155TIP3    H224430   3.675   3.725   2.718
 8156TIP3   OH224431   3.661   4.920   5.462
 8156TIP3    H124432   3.631   4.934   5.552
 8156TIP3    H224433   3.587   4.879   5.417
 8157TIP3   OH224434   4.155   2.196   0.513
 8157TIP3    H124435   4.225   2.197   0.579
 8157TIP3    H224436   4.104   2.275   0.530
 8158TIP3   OH224437   2.463   1.118   2.703
 8158TIP3    H124438   2.432   1.048   2.645
 8158TIP3    H224439   2.544   1.149   2.662
 8159TIP3   OH224440   5.820   6.526   4.924
 8159TIP3    H124441   5.829   6.516   5.019
 8159TIP3    H224442   5.798   6.619   4.912
 8160TIP3   OH224443   3.163   4.070   2.740
 8160TIP3    H124444   3.256   4.048   2.728
 8160TIP3    H224445   3.158   4.163   2.717
 8161TIP3   OH224446   6.842   3.401   4.207
 8161TIP3    H124447   6.851   3.391   4.112
 8161TIP3    H224448   6.923   3.444   4.234
 8162TIP3   OH224449   6.559   5.594   4.406
 8162TIP3    H124450   6.517   5.508   4.407
 8162TIP3    H224451   6.640   5.580   4.357
 8163TIP3   OH224452   1.690   4.492   1.774
 8163TIP3    H124453   1.765   4.550   1.793
 8163TIP3    H224454   1.721   4.436   1.703
 8164TIP3   OH224455   4.716   2.179   0.893
 8164TIP3    H124456   4.706   2.102   0.949
 8164TIP3    H224457   4.788   2.228   0.934
 8165TIP3   OH224458   6.080   2.373   5.823
 8165TIP3    H124459   6.015   2.411   5.881
 8165TIP3    H224460   6.039   2.293   5.789
 8166TIP3   OH224461   5.799   1.598   2.712
 8166TIP3    H124462   5.876   1.653   2.728
 8166TIP3    H224463   5.756   1.593   2.797
 8167TIP3   OH224464   2.503   5.775   0.710
 8167TIP3    H124465   2.492   5.856   0.760
 8167TIP3    H224466   2.477   5.797   0.621
 8168TIP3   OH224467   2.428   5.844   0.438
 8168TIP3    H124468   2.457   5.923   0.393
 8168TIP3    H224469   2.469   5.772   0.389
 8169TIP3   OH224470   3.174   1.212   1.071
 8169TIP3    H124471   3.216   1.287   1.112
 8169TIP3    H224472   3.214   1.136   1.113
 8170TIP3   OH224473   0.858   3.244   4.437
 8170TIP3    H124474   0.868   3.246   4.342
 8170TIP3    H224475   0.938   3.284   4.471
 8171TIP3   OH224476   0.740   3.907   4.405
 8171TIP3    H124477   0.788   3.873   4.480
 8171TIP3    H224478   0.764   3.848   4.333
 8172TIP3   OH224479   1.008   6.123   3.314
 8172TIP3    H124480   1.031   6.056   3.251
 8172TIP3    H224481   0.960   6.076   3.383
 8173TIP3   OH224482   3.155   4.345   3.042
 8173TIP3    H124483   3.070   4.308   3.063
 8173TIP3    H224484   3.216   4.300   3.102
 8174TIP3   OH224485   5.389   6.596   5.705
 8174TIP3    H124486   5.336   6.607   5.626
 8174TIP3    H224487   5.328   6.615   5.776
 8175TIP3   OH224488   4.305   1.909   1.304
 8175TIP3    H124489   4.338   1.983   1.253
 8175TIP3    H224490   4.360   1.906   1.381
 8176TIP3   OH224491   4.566   5.441   4.022
 8176TIP3    H124492   4.637   5.501   4.045
 8176TIP3    H224493   4.541   5.466   3.933
 8177TIP3   OH224494   1.025   2.926   5.137
 8177TIP3    H124495   1.068   3.009   5.120
 8177TIP3    H224496   0.935   2.939   5.105
 8178TIP3   OH224497   1.481   5.248   5.161
 8178TIP3    H124498   1.502   5.214   5.074
 8178TIP3    H224499   1.516   5.337   5.161
 8179TIP3   OH224500   4.333   2.225   4.761
 8179TIP3    H124501   4.267   2.158   4.777
 8179TIP3    H224502   4.378   2.196   4.682
 8180TIP3   OH224503   0.242   1.402   2.295
 8180TIP3    H124504   0.238   1.376   2.203
 8180TIP3    H224505   0.173   1.468   2.304
 8181TIP3   OH224506   5.908   6.156   4.277
 8181TIP3    H124507   5.842   6.092   4.301
 8181TIP3    H224508   5.861   6.240   4.276
 8182TIP3   OH224509   6.453   3.624   3.926
 8182TIP3    H124510   6.444   3.711   3.965
 8182TIP3    H224511   6.435   3.564   3.998
 8183TIP3   OH224512   3.200   3.098   5.686
 8183TIP3    H124513   3.121   3.112   5.739
 8183TIP3    H224514   3.167   3.084   5.597
 8184TIP3   OH224515   6.807   1.631   2.293
 8184TIP3    H124516   6.723   1.586   2.299
 8184TIP3    H224517   6.871   1.568   2.327
 8185TIP3   OH224518   6.034   5.731   2.235
 8185TIP3    H124519   5.984   5.809   2.210
 8185TIP3    H224520   6.123   5.750   2.204
 8186TIP3   OH224521   5.602   2.350   4.232
 8186TIP3    H124522   5.671   2.286   4.250
 8186TIP3    H224523   5.522   2.308   4.261
 8187TIP3   OH224524   2.461   6.548   3.752
 8187TIP3    H124525   2.515   6.619   3.787
 8187TIP3    H224526   2.515   6.508   3.684
 8188TIP3   OH224527   0.996   4.201   0.940
 8188TIP3    H124528   1.038   4.243   0.865
 8188TIP3    H224529   0.969   4.273   0.996
 8189TIP3   OH224530   1.954   3.506   1.532
 8189TIP3    H124531   1.881   3.459   1.493
 8189TIP3    H224532   1.928   3.598   1.531
 8190TIP3   OH224533   2.711   5.645   2.205
 8190TIP3    H124534   2.667   5.728   2.185
 8190TIP3    H224535   2.653   5.602   2.268
 8191TIP3   OH224536   0.396   4.994   3.106
 8191TIP3    H124537   0.470   4.959   3.057
 8191TIP3    H224538   0.435   5.023   3.189
 8192TIP3   OH224539   6.412   4.159   5.293
 8192TIP3    H124540   6.499   4.136   5.328
 8192TIP3    H224541   6.416   4.253   5.279
 8193TIP3   OH224542   2.159   0.355   0.653
 8193TIP3    H124543   2.147   0.345   0.558
 8193TIP3    H224544   2.184   0.268   0.683
 8194TIP3   OH224545   5.252   3.467   4.367
 8194TIP3    H124546   5.192   3.468   4.441
 8194TIP3    H224547   5.197   3.485   4.291
 8195TIP3   OH224548   5.914   0.097   5.620
 8195TIP3    H124549   5.989   0.156   5.630
 8195TIP3    H224550   5.935   0.022   5.675
 8196TIP3   OH224551   6.241   3.172   5.058
 8196TIP3    H124552   6.235   3.258   5.017
 8196TIP3    H224553   6.229   3.110   4.986
 8197TIP3   OH224554   2.357   4.347   4.788
 8197TIP3    H124555   2.346   4.306   4.702
 8197TIP3    H224556   2.428   4.297   4.829
 8198TIP3   OH224557   0.103   2.236   5.086
 8198TIP3    H124558   0.119   2.154   5.038
 8198TIP3    H224559   0.008   2.238   5.096
 8199TIP3   OH224560   6.378   1.123   3.408
 8199TIP3    H124561   6.394   1.032   3.383
 8199TIP3    H224562   6.429   1.174   3.347
 8200TIP3   OH224563   0.507   3.840   5.345
 8200TIP3    H124564   0.566   3.829   5.419
 8200TIP3    H224565   0.564   3.846   5.269
 8201TIP3   OH224566   1.672   0.615   0.960
 8201TIP3    H124567   1.720   0.563   1.024
 8201TIP3    H224568   1.654   0.698   1.005
 8202TIP3   OH224569   7.155   6.182   2.793
 8202TIP3    H124570   7.183   6.091   2.802
 8202TIP3    H224571   7.176   6.205   2.703
 8203TIP3   OH224572   5.990   2.029   0.899
 8203TIP3    H124573   6.085   2.027   0.889
 8203TIP3    H224574   5.963   1.937   0.894
 8204TIP3   OH224575   1.174   6.613   1.833
 8204TIP3    H124576   1.219   6.569   1.761
 8204TIP3    H224577   1.112   6.549   1.866
 8205TIP3   OH224578   4.058   3.910   5.244
 8205TIP3    H124579   4.096   3.993   5.214
 8205TIP3    H224580   4.030   3.866   5.164
 8206TIP3   OH224581   4.186   1.230   1.406
 8206TIP3    H124582   4.126   1.189   1.344
 8206TIP3    H224583   4.231   1.297   1.355
 8207TIP3   OH224584   4.433   4.377   4.978
 8207TIP3    H124585   4.385   4.365   5.060
 8207TIP3    H224586   4.524   4.391   5.006
 8208TIP3   OH224587   2.871   4.678   5.391
 8208TIP3    H124588   2.867   4.611   5.323
 8208TIP3    H224589   2.927   4.746   5.356
 8209TIP3   OH224590   6.270   6.087   5.095
 8209TIP3    H124591   6.318   6.025   5.041
 8209TIP3    H224592   6.250   6.039   5.175
 8210TIP3   OH224593   0.384   5.627   0.764
 8210TIP3    H124594   0.403   5.701   0.706
 8210TIP3    H224595   0.302   5.591   0.731
 8211TIP3   OH224596   2.745   2.845   0.423
 8211TIP3    H124597   2.793   2.851   0.340
 8211TIP3    H224598   2.753   2.753   0.448
 8212TIP3   OH224599   7.024   1.665   2.957
 8212TIP3    H124600   7.025   1.575   2.925
 8212TIP3    H224601   6.939   1.675   2.999
 8213TIP3   OH224602   0.918   5.098   5.297
 8213TIP3    H124603   0.860   5.160   5.342
 8213TIP3    H224604   0.990   5.152   5.264
 8214TIP3   OH224605   2.487   1.946   3.532
 8214TIP3    H124606   2.461   1.988   3.450
 8214TIP3    H224607   2.531   2.015   3.581
 8215TIP3   OH224608   3.978   3.139   2.848
 8215TIP3    H124609   3.922   3.074   2.891
 8215TIP3    H224610   3.918   3.190   2.794
 8216TIP3   OH224611   5.356   6.490   2.261
 8216TIP3    H124612   5.370   6.456   2.173
 8216TIP3    H224613   5.280   6.548   2.253
 8217TIP3   OH224614   0.437   1.389   1.405
 8217TIP3    H124615   0.459   1.380   1.312
 8217TIP3    H224616   0.395   1.306   1.429
 8218TIP3   OH224617   0.721   4.619   4.509
 8218TIP3    H124618   0.703   4.650   4.598
 8218TIP3    H224619   0.762   4.533   4.522
 8219TIP3   OH224620   1.020   6.578   4.227
 8219TIP3    H124621   1.018   6.594   4.132
 8219TIP3    H224622   1.020   6.483   4.235
 8220TIP3   OH224623   6.273   2.567   2.051
 8220TIP3    H124624   6.254   2.519   1.971
 8220TIP3    H224625   6.287   2.657   2.022
 8221TIP3   OH224626   1.065   2.944   4.742
 8221TIP3    H124627   0.994   2.888   4.774
 8221TIP3    H224628   1.070   2.925   4.648
 8222TIP3   OH224629   6.013   1.869   5.740
 8222TIP3    H124630   5.939   1.896   5.685
 8222TIP3    H224631   6.084   1.929   5.716
 8223TIP3   OH224632   0.556   6.344   4.920
 8223TIP3    H124633   0.474   6.338   4.969
 8223TIP3    H224634   0.594   6.256   4.926
 8224TIP3   OH224635   6.912   1.822   1.811
 8224TIP3    H124636   7.001   1.854   1.823
 8224TIP3    H224637   6.857   1.894   1.843
 8225TIP3   OH224638   1.045   6.556   3.865
 8225TIP3    H124639   0.987   6.621   3.904
 8225TIP3    H224640   1.009   6.471   3.892
 8226TIP3   OH224641   1.132   5.722   3.677
 8226TIP3    H124642   1.088   5.752   3.756
 8226TIP3    H224643   1.205   5.782   3.665
 8227TIP3   OH224644   2.930   1.566   1.413
 8227TIP3    H124645   2.926   1.471   1.427
 8227TIP3    H224646   2.858   1.584   1.353
 8228TIP3   OH224647   2.011   4.308   3.526
 8228TIP3    H124648   1.988   4.338   3.438
 8228TIP3    H224649   1.986   4.216   3.528
 8229TIP3   OH224650   2.302   0.420   1.733
 8229TIP3    H124651   2.386   0.390   1.697
 8229TIP3    H224652   2.327   0.470   1.811
 8230TIP3   OH224653   0.105   6.147   2.276
 8230TIP3    H124654   0.059   6.190   2.349
 8230TIP3    H224655   0.040   6.086   2.241
 8231TIP3   OH224656   1.932   0.703   2.029
 8231TIP3    H124657   2.023   0.712   1.999
 8231TIP3    H224658   1.880   0.751   1.965
 8232TIP3   OH224659   6.476   2.223   0.712
 8232TIP3    H124660   6.569   2.211   0.731
 8232TIP3    H224661   6.449   2.142   0.668
 8233TIP3   OH224662   3.798   6.000   5.110
 8233TIP3    H124663   3.806   5.906   5.096
 8233TIP3    H224664   3.882   6.036   5.081
 8234TIP3   OH224665   6.755   3.441   4.567
 8234TIP3    H124666   6.748   3.518   4.511
 8234TIP3    H224667   6.713   3.371   4.517
 8235TIP3   OH224668   4.276   0.275   5.024
 8235TIP3    H124669   4.267   0.225   4.943
 8235TIP3    H224670   4.323   0.354   4.999
 8236TIP3   OH224671   1.468   2.902   4.543
 8236TIP3    H124672   1.493   2.995   4.541
 8236TIP3    H224673   1.543   2.859   4.585
 8237TIP3   OH224674   7.139   1.988   1.870
 8237TIP3    H124675   7.215   2.005   1.925
 8237TIP3    H224676   7.156   2.036   1.790
 8238TIP3   OH224677   5.939   3.691   0.752
 8238TIP3    H124678   5.935   3.693   0.847
 8238TIP3    H224679   5.994   3.615   0.732
 8239TIP3   OH224680   5.696   6.539   3.888
 8239TIP3    H124681   5.751   6.504   3.818
 8239TIP3    H224682   5.755   6.591   3.942
 8240TIP3   OH224683   4.847   4.527   4.747
 8240TIP3    H124684   4.835   4.580   4.826
 8240TIP3    H224685   4.765   4.538   4.698
 8241TIP3   OH224686   5.430   3.504   5.223
 8241TIP3    H124687   5.404   3.528   5.134
 8241TIP3    H224688   5.462   3.414   5.214
 8242TIP3   OH224689   5.136   6.310   2.154
 8242TIP3    H124690   5.145   6.360   2.073
 8242TIP3    H224691   5.105   6.224   2.125
 8243TIP3   OH224692   1.902   5.206   2.495
 8243TIP3    H124693   1.892   5.187   2.588
 8243TIP3    H224694   1.996   5.193   2.479
 8244TIP3   OH224695   0.197   3.070   0.880
 8244TIP3    H124696   0.117   3.020   0.861
 8244TIP3    H224697   0.268   3.007   0.867
 8245TIP3   OH224698   4.495   2.939   3.766
 8245TIP3    H124699   4.468   2.894   3.686
 8245TIP3    H224700   4.490   3.032   3.744
 8246TIP3   OH224701   1.723   5.972   0.734
 8246TIP3    H124702   1.710   5.910   0.662
 8246TIP3    H224703   1.796   5.937   0.784
 8247TIP3   OH224704   6.955   2.266   1.906
 8247TIP3    H124705   6.877   2.236   1.859
 8247TIP3    H224706   6.987   2.189   1.953
 8248TIP3   OH224707   3.339   2.828   0.898
 8248TIP3    H124708   3.378   2.815   0.984
 8248TIP3    H224709   3.248   2.799   0.907
 8249TIP3   OH224710   0.552   1.316   4.924
 8249TIP3    H124711   0.574   1.254   4.993
 8249TIP3    H224712   0.634   1.359   4.902
 8250TIP3   OH224713   2.966   1.924   3.060
 8250TIP3    H124714   3.046   1.910   3.111
 8250TIP3    H224715   2.896   1.923   3.125
 8251TIP3   OH224716   6.098   1.181   1.890
 8251TIP3    H124717   6.037   1.248   1.862
 8251TIP3    H224718   6.144   1.155   1.810
 8252TIP3   OH224719   6.657   3.173   0.892
 8252TIP3    H124720   6.692   3.191   0.980
 8252TIP3    H224721   6.564   3.196   0.898
 8253TIP3   OH224722   6.406   4.136   0.879
 8253TIP3    H124723   6.467   4.128   0.806
 8253TIP3    H224724   6.335   4.191   0.846
 8254TIP3   OH224725   0.596   3.316   4.678
 8254TIP3    H124726   0.533   3.265   4.730
 8254TIP3    H224727   0.632   3.252   4.616
 8255TIP3   OH224728   3.430   0.909   0.240
 8255TIP3    H124729   3.370   0.876   0.173
 8255TIP3    H224730   3.420   0.847   0.313
 8256TIP3   OH224731   1.493   0.221   0.925
 8256TIP3    H124732   1.448   0.293   0.880
 8256TIP3    H224733   1.552   0.185   0.858
 8257TIP3   OH224734   2.617   2.140   3.682
 8257TIP3    H124735   2.595   2.233   3.679
 8257TIP3    H224736   2.622   2.119   3.775
 8258TIP3   OH224737   5.316   0.467   2.295
 8258TIP3    H124738   5.321   0.450   2.201
 8258TIP3    H224739   5.366   0.397   2.336
 8259TIP3   OH224740   3.214   4.327   3.351
 8259TIP3    H124741   3.119   4.331   3.352
 8259TIP3    H224742   3.235   4.235   3.339
 8260TIP3   OH224743   1.274   0.044   0.739
 8260TIP3    H124744   1.231   0.102   0.803
 8260TIP3    H224745   1.300   0.102   0.668
 8261TIP3   OH224746   4.863   4.990   1.627
 8261TIP3    H124747   4.951   4.956   1.611
 8261TIP3    H224748   4.875   5.059   1.692
 8262TIP3   OH224749   4.824   2.969   0.197
 8262TIP3    H124750   4.767   2.895   0.220
 8262TIP3    H224751   4.904   2.929   0.165
 8263TIP3   OH224752   0.858   5.671   5.606
 8263TIP3    H124753   0.780   5.616   5.621
 8263TIP3    H224754   0.824   5.748   5.560
 8264TIP3   OH224755   1.822   3.191   3.782
 8264TIP3    H124756   1.854   3.101   3.789
 8264TIP3    H224757   1.818   3.209   3.688
 8265TIP3   OH224758   7.033   0.860   4.600
 8265TIP3    H124759   7.080   0.777   4.595
 8265TIP3    H224760   7.075   0.916   4.535
 8266TIP3   OH224761   0.048   6.474   1.292
 8266TIP3    H124762   0.011   6.495   1.206
 8266TIP3    H224763  -0.006   6.522   1.354
 8267TIP3   OH224764   1.500   5.211   2.782
 8267TIP3    H124765   1.566   5.276   2.756
 8267TIP3    H224766   1.531   5.178   2.866
 8268TIP3   OH224767   2.611   2.096   1.246
 8268TIP3    H124768   2.626   2.185   1.279
 8268TIP3    H224769   2.527   2.102   1.199
 8269TIP3   OH224770   2.410   6.273   1.789
 8269TIP3    H124771   2.481   6.317   1.835
 8269TIP3    H224772   2.331   6.317   1.821
 8270TIP3   OH224773   4.785   0.304   3.402
 8270TIP3    H124774   4.772   0.317   3.496
 8270TIP3    H224775   4.702   0.268   3.371
 8271TIP3   OH224776   1.773   2.578   2.444
 8271TIP3    H124777   1.707   2.641   2.473
 8271TIP3    H224778   1.807   2.614   2.363
 8272TIP3   OH224779   2.849   3.010   5.418
 8272TIP3    H124780   2.764   3.022   5.375
 8272TIP3    H224781   2.827   2.968   5.502
 8273TIP3   OH224782   5.761   4.665   0.509
 8273TIP3    H124783   5.747   4.648   0.416
 8273TIP3    H224784   5.855   4.650   0.522
 8274TIP3   OH224785   1.835   2.360   5.774
 8274TIP3    H124786   1.757   2.307   5.780
 8274TIP3    H224787   1.810   2.444   5.814
 8275TIP3   OH224788   5.404   4.240   1.449
 8275TIP3    H124789   5.408   4.145   1.437
 8275TIP3    H224790   5.375   4.274   1.364
 8276TIP3   OH224791   4.243   2.727   0.031
 8276TIP3    H124792   4.193   2.782  -0.029
 8276TIP3    H224793   4.181   2.662   0.061
 8277TIP3   OH224794   4.818   6.085   5.683
 8277TIP3    H124795   4.773   6.016   5.731
 8277TIP3    H224796   4.749   6.148   5.661
 8278TIP3   OH224797   7.091   4.969   2.137
 8278TIP3    H124798   7.144   4.996   2.211
 8278TIP3    H224799   7.147   4.910   2.086
 8279TIP3   OH224800   1.759   2.181   3.286
 8279TIP3    H124801   1.764   2.184   3.191
 8279TIP3    H224802   1.821   2.113   3.312
 8280TIP3   OH224803   7.017   0.822   0.314
 8280TIP3    H124804   6.972   0.767   0.250
 8280TIP3    H224805   7.052   0.895   0.263
 8281TIP3   OH224806   0.041   0.172   4.744
 8281TIP3    H124807   0.054   0.082   4.715
 8281TIP3    H224808   0.004   0.164   4.833
 8282TIP3   OH224809   6.985   1.305   5.196
 8282TIP3    H124810   6.992   1.260   5.112
 8282TIP3    H224811   7.035   1.386   5.184
 8283TIP3   OH224812   5.123   3.332   3.723
 8283TIP3    H124813   5.127   3.261   3.787
 8283TIP3    H224814   5.030   3.353   3.716
 8284TIP3   OH224815   2.066   2.081   1.038
 8284TIP3    H124816   2.063   1.994   1.077
 8284TIP3    H224817   2.012   2.074   0.959
 8285TIP3   OH224818   2.534   0.593   1.783
 8285TIP3    H124819   2.615   0.634   1.812
 8285TIP3    H224820   2.543   0.502   1.812
 8286TIP3   OH224821   0.072   6.161   4.575
 8286TIP3    H124822   0.047   6.253   4.565
 8286TIP3    H224823   0.009   6.125   4.638
 8287TIP3   OH224824   4.135   6.015   4.159
 8287TIP3    H124825   4.212   5.972   4.197
 8287TIP3    H224826   4.086   5.944   4.118
 8288TIP3   OH224827   3.910   0.863   2.037
 8288TIP3    H124828   3.842   0.873   1.971
 8288TIP3    H224829   3.945   0.952   2.049
 8289TIP3   OH224830   2.454   6.021   0.833
 8289TIP3    H124831   2.478   6.027   0.926
 8289TIP3    H224832   2.501   6.093   0.792
 8290TIP3   OH224833   1.032   2.382   5.151
 8290TIP3    H124834   1.018   2.421   5.237
 8290TIP3    H224835   1.122   2.407   5.127
 8291TIP3   OH224836   2.365   2.677   2.224
 8291TIP3    H124837   2.277   2.650   2.198
 8291TIP3    H224838   2.391   2.743   2.160
 8292TIP3   OH224839   7.120   6.365   4.487
 8292TIP3    H124840   7.045   6.309   4.507
 8292TIP3    H224841   7.131   6.357   4.392
 8293TIP3   OH224842   2.652   1.802   3.950
 8293TIP3    H124843   2.578   1.820   3.890
 8293TIP3    H224844   2.667   1.885   3.995
 8294TIP3   OH224845   0.689   0.359   3.070
 8294TIP3    H124846   0.764   0.368   3.130
 8294TIP3    H224847   0.630   0.298   3.115
 8295TIP3   OH224848   3.271   6.486   4.747
 8295TIP3    H124849   3.259   6.569   4.701
 8295TIP3    H224850   3.270   6.420   4.677
 8296TIP3   OH224851   1.919   6.622   0.529
 8296TIP3    H124852   1.892   6.710   0.502
 8296TIP3    H224853   1.838   6.581   0.559
 8297TIP3   OH224854   5.478   6.087   5.505
 8297TIP3    H124855   5.471   6.080   5.410
 8297TIP3    H224856   5.454   6.178   5.524
 8298TIP3   OH224857   5.788   6.760   3.425
 8298TIP3    H124858   5.708   6.798   3.391
 8298TIP3    H224859   5.843   6.835   3.446
 8299TIP3   OH224860   7.079   5.982   4.395
 8299TIP3    H124861   7.025   6.051   4.432
 8299TIP3    H224862   7.017   5.921   4.355
 8300TIP3   OH224863   3.418   5.108   4.682
 8300TIP3    H124864   3.371   5.102   4.598
 8300TIP3    H224865   3.507   5.131   4.657
 8301TIP3   OH224866   1.577   5.677   5.867
 8301TIP3    H124867   1.532   5.603   5.827
 8301TIP3    H224868   1.655   5.689   5.812
 8302TIP3   OH224869   3.974   5.628   1.190
 8302TIP3    H124870   3.989   5.577   1.110
 8302TIP3    H224871   3.960   5.562   1.258
 8303TIP3   OH224872   0.774   3.926   5.224
 8303TIP3    H124873   0.801   3.835   5.236
 8303TIP3    H224874   0.818   3.973   5.295
 8304TIP3   OH224875   4.717   6.553   0.558
 8304TIP3    H124876   4.724   6.480   0.620
 8304TIP3    H224877   4.644   6.606   0.591
 8305TIP3   OH224878   1.508   1.973   1.478
 8305TIP3    H124879   1.499   2.006   1.389
 8305TIP3    H224880   1.418   1.958   1.507
 8306TIP3   OH224881   5.397   3.826   4.753
 8306TIP3    H124882   5.450   3.888   4.804
 8306TIP3    H224883   5.430   3.835   4.663
 8307TIP3   OH224884   4.198   6.435   4.508
 8307TIP3    H124885   4.228   6.428   4.417
 8307TIP3    H224886   4.171   6.346   4.531
 8308TIP3   OH224887   3.753   4.644   5.331
 8308TIP3    H124888   3.713   4.697   5.262
 8308TIP3    H224889   3.680   4.613   5.384
 8309TIP3   OH224890   5.581   6.112   1.535
 8309TIP3    H124891   5.512   6.161   1.579
 8309TIP3    H224892   5.605   6.042   1.596
 8310TIP3   OH224893   1.296   0.796   3.696
 8310TIP3    H124894   1.389   0.804   3.716
 8310TIP3    H224895   1.267   0.720   3.745
 8311TIP3   OH224896   3.743   3.056   2.069
 8311TIP3    H124897   3.799   2.978   2.071
 8311TIP3    H224898   3.692   3.046   1.989
 8312TIP3   OH224899   2.531   4.385   2.395
 8312TIP3    H124900   2.561   4.295   2.392
 8312TIP3    H224901   2.439   4.381   2.368
 8313TIP3   OH224902   4.642   1.138   0.632
 8313TIP3    H124903   4.629   1.130   0.537
 8313TIP3    H224904   4.686   1.222   0.644
 8314TIP3   OH224905   6.806   6.606   4.759
 8314TIP3    H124906   6.831   6.694   4.786
 8314TIP3    H224907   6.720   6.616   4.718
 8315TIP3   OH224908   3.114   6.582   4.469
 8315TIP3    H124909   3.122   6.631   4.387
 8315TIP3    H224910   3.041   6.522   4.454
 8316TIP3   OH224911   5.545   0.247   1.346
 8316TIP3    H124912   5.477   0.289   1.399
 8316TIP3    H224913   5.593   0.192   1.407
 8317TIP3   OH224914   0.814   4.419   2.354
 8317TIP3    H124915   0.787   4.364   2.427
 8317TIP3    H224916   0.751   4.401   2.285
 8318TIP3   OH224917   4.668   6.751   2.088
 8318TIP3    H124918   4.678   6.800   2.169
 8318TIP3    H224919   4.585   6.781   2.052
 8319TIP3   OH224920   7.146   6.597   2.908
 8319TIP3    H124921   7.211   6.529   2.928
 8319TIP3    H224922   7.090   6.599   2.986
 8320TIP3   OH224923   5.946   0.580   2.913
 8320TIP3    H124924   5.900   0.616   2.838
 8320TIP3    H224925   6.032   0.622   2.912
 8321TIP3   OH224926   4.561   0.471   3.058
 8321TIP3    H124927   4.556   0.382   3.024
 8321TIP3    H224928   4.570   0.527   2.981
 8322TIP3   OH224929   1.924   6.330   1.431
 8322TIP3    H124930   2.011   6.356   1.402
 8322TIP3    H224931   1.918   6.364   1.520
 8323TIP3   OH224932   7.176   0.150   1.456
 8323TIP3    H124933   7.097   0.203   1.459
 8323TIP3    H224934   7.146   0.061   1.471
 8324TIP3   OH224935   1.450   2.180   0.328
 8324TIP3    H124936   1.385   2.139   0.386
 8324TIP3    H224937   1.465   2.116   0.259
 8325TIP3   OH224938   2.777   2.008   4.509
 8325TIP3    H124939   2.826   1.965   4.439
 8325TIP3    H224940   2.800   2.101   4.502
 8326TIP3   OH224941   5.897   3.951   0.673
 8326TIP3    H124942   5.944   3.961   0.590
 8326TIP3    H224943   5.909   3.859   0.697
 8327TIP3   OH224944   3.711   3.997   2.004
 8327TIP3    H124945   3.804   3.976   2.008
 8327TIP3    H224946   3.675   3.960   2.084
 8328TIP3   OH224947   6.682   6.243   3.311
 8328TIP3    H124948   6.616   6.307   3.284
 8328TIP3    H224949   6.636   6.159   3.313
 8329TIP3   OH224950   1.319   0.412   0.880
 8329TIP3    H124951   1.282   0.416   0.791
 8329TIP3    H224952   1.248   0.377   0.934
 8330TIP3   OH224953   1.383   2.687   5.155
 8330TIP3    H124954   1.418   2.774   5.178
 8330TIP3    H224955   1.296   2.706   5.119
 8331TIP3   OH224956   1.634   0.902   1.789
 8331TIP3    H124957   1.579   0.825   1.797
 8331TIP3    H224958   1.590   0.956   1.723
 8332TIP3   OH224959   0.740   4.639   4.249
 8332TIP3    H124960   0.685   4.564   4.228
 8332TIP3    H224961   0.736   4.646   4.344
 8333TIP3   OH224962   5.089   6.382   2.664
 8333TIP3    H124963   5.068   6.351   2.576
 8333TIP3    H224964   5.155   6.449   2.652
 8334TIP3   OH224965   1.409   4.522   1.795
 8334TIP3    H124966   1.369   4.441   1.827
 8334TIP3    H224967   1.503   4.505   1.797
 8335TIP3   OH224968   4.479   1.332   0.071
 8335TIP3    H124969   4.508   1.241   0.068
 8335TIP3    H224970   4.529   1.376   0.002
 8336TIP3   OH224971   3.821   6.611   3.946
 8336TIP3    H124972   3.829   6.620   4.041
 8336TIP3    H224973   3.729   6.625   3.928
 8337TIP3   OH224974   6.246   0.303   2.430
 8337TIP3    H124975   6.325   0.339   2.471
 8337TIP3    H224976   6.174   0.352   2.469
 8338TIP3   OH224977   3.548   6.653   2.550
 8338TIP3    H124978   3.622   6.711   2.568
 8338TIP3    H224979   3.573   6.607   2.469
 8339TIP3   OH224980   4.103   3.417   4.593
 8339TIP3    H124981   4.070   3.459   4.514
 8339TIP3    H224982   4.057   3.333   4.598
 8340TIP3   OH224983   1.629   3.057   0.820
 8340TIP3    H124984   1.594   3.079   0.733
 8340TIP3    H224985   1.656   2.965   0.811
 8341TIP3   OH224986   4.742   3.747   4.283
 8341TIP3    H124987   4.737   3.708   4.370
 8341TIP3    H224988   4.720   3.675   4.223
 8342TIP3   OH224989   6.652   3.292   5.437
 8342TIP3    H124990   6.583   3.304   5.372
 8342TIP3    H224991   6.729   3.335   5.400
 8343TIP3   OH224992   2.611   2.694   5.380
 8343TIP3    H124993   2.661   2.705   5.300
 8343TIP3    H224994   2.521   2.680   5.350
 8344TIP3   OH224995   6.174   5.601   1.974
 8344TIP3    H124996   6.226   5.652   2.036
 8344TIP3    H224997   6.121   5.666   1.928
 8345TIP3   OH224998   4.116   1.324   0.721
 8345TIP3    H124999   4.183   1.384   0.756
 8345TIP3    H225000   4.166   1.249   0.689
 8346TIP3   OH225001   4.642   6.659   5.537
 8346TIP3    H125002   4.629   6.565   5.531
 8346TIP3    H225003   4.705   6.671   5.608
 8347TIP3   OH225004   4.642   1.961   5.066
 8347TIP3    H125005   4.643   2.042   5.016
 8347TIP3    H225006   4.566   1.913   5.031
 8348TIP3   OH225007   3.814   4.925   2.831
 8348TIP3    H125008   3.834   4.931   2.925
 8348TIP3    H225009   3.874   4.988   2.790
 8349TIP3   OH225010   0.496   1.911   5.346
 8349TIP3    H125011   0.573   1.916   5.289
 8349TIP3    H225012   0.487   1.818   5.366
 8350TIP3   OH225013   5.068   2.682   2.926
 8350TIP3    H125014   5.096   2.773   2.935
 8350TIP3    H225015   5.144   2.631   2.957
 8351TIP3   OH225016   4.003   1.110   2.168
 8351TIP3    H125017   4.071   1.170   2.139
 8351TIP3    H225018   4.018   1.100   2.262
 8352TIP3   OH225019   6.564   3.339   0.385
 8352TIP3    H125020   6.581   3.378   0.471
 8352TIP3    H225021   6.532   3.251   0.404
 8353TIP3   OH225022   3.347   3.905   2.004
 8353TIP3    H125023   3.392   3.882   2.085
 8353TIP3    H225024   3.317   3.995   2.017
 8354TIP3   OH225025   4.725   4.205   4.566
 8354TIP3    H125026   4.645   4.234   4.523
 8354TIP3    H225027   4.731   4.111   4.546
 8355TIP3   OH225028   1.288   1.558   2.883
 8355TIP3    H125029   1.379   1.547   2.909
 8355TIP3    H225030   1.288   1.543   2.788
 8356TIP3   OH225031   2.343   0.376   2.787
 8356TIP3    H125032   2.395   0.325   2.724
 8356TIP3    H225033   2.293   0.437   2.732
 8357TIP3   OH225034   4.320   5.901   3.880
 8357TIP3    H125035   4.407   5.881   3.847
 8357TIP3    H225036   4.293   5.979   3.831
 8358TIP3   OH225037   1.287   3.199   3.346
 8358TIP3    H125038   1.313   3.290   3.337
 8358TIP3    H225039   1.191   3.201   3.342
 8359TIP3   OH225040   1.657   6.066   2.107
 8359TIP3    H125041   1.734   6.014   2.128
 8359TIP3    H225042   1.641   6.050   2.014
 8360TIP3   OH225043   3.733   0.530   5.908
 8360TIP3    H125044   3.738   0.454   5.849
 8360TIP3    H225045   3.729   0.605   5.849
 8361TIP3   OH225046   5.635   0.731   0.271
 8361TIP3    H125047   5.550   0.728   0.315
 8361TIP3    H225048   5.667   0.820   0.288
 8362TIP3   OH225049   4.885   1.388   0.085
 8362TIP3    H125050   4.826   1.463   0.087
 8362TIP3    H225051   4.931   1.395   0.002
 8363TIP3   OH225052   4.223   5.689   1.796
 8363TIP3    H125053   4.314   5.661   1.781
 8363TIP3    H225054   4.216   5.772   1.750
 8364TIP3   OH225055   6.276   2.245   1.603
 8364TIP3    H125056   6.349   2.222   1.546
 8364TIP3    H225057   6.257   2.337   1.582
 8365TIP3   OH225058   4.885   0.584   1.908
 8365TIP3    H125059   4.931   0.508   1.874
 8365TIP3    H225060   4.923   0.599   1.994
 8366TIP3   OH225061   3.314   4.554   0.767
 8366TIP3    H125062   3.298   4.460   0.771
 8366TIP3    H225063   3.340   4.570   0.677
 8367TIP3   OH225064   7.165   5.944   3.371
 8367TIP3    H125065   7.193   5.931   3.462
 8367TIP3    H225066   7.085   5.997   3.379
 8368TIP3   OH225067   1.413   0.344   3.810
 8368TIP3    H125068   1.502   0.320   3.833
 8368TIP3    H225069   1.369   0.359   3.894
 8369TIP3   OH225070   5.821   0.329   4.192
 8369TIP3    H125071   5.777   0.386   4.129
 8369TIP3    H225072   5.871   0.389   4.247
 8370TIP3   OH225073   2.059   6.349   2.935
 8370TIP3    H125074   2.019   6.285   2.994
 8370TIP3    H225075   2.017   6.432   2.957
 8371TIP3   OH225076   3.101   4.351   1.718
 8371TIP3    H125077   3.109   4.256   1.704
 8371TIP3    H225078   3.022   4.361   1.771
 8372TIP3   OH225079   3.559   3.921   3.116
 8372TIP3    H125080   3.473   3.880   3.129
 8372TIP3    H225081   3.619   3.847   3.105
 8373TIP3   OH225082   0.849   4.981   1.614
 8373TIP3    H125083   0.882   5.038   1.544
 8373TIP3    H225084   0.845   5.038   1.691
 8374TIP3   OH225085   3.385   4.145   3.867
 8374TIP3    H125086   3.409   4.221   3.813
 8374TIP3    H225087   3.453   4.140   3.934
 8375TIP3   OH225088   6.923   2.158   4.756
 8375TIP3    H125089   6.940   2.100   4.829
 8375TIP3    H225090   6.847   2.210   4.783
 8376TIP3   OH225091   2.808   2.377   3.335
 8376TIP3    H125092   2.804   2.409   3.425
 8376TIP3    H225093   2.793   2.454   3.281
 8377TIP3   OH225094   0.595   4.575   1.848
 8377TIP3    H125095   0.594   4.590   1.942
 8377TIP3    H225096   0.568   4.483   1.838
 8378TIP3   OH225097   6.976   0.380   4.104
 8378TIP3    H125098   6.903   0.319   4.097
 8378TIP3    H225099   6.990   0.411   4.014
 8379TIP3   OH225100   3.682   5.862   4.202
 8379TIP3    H125101   3.648   5.921   4.134
 8379TIP3    H225102   3.651   5.776   4.176
 8380TIP3   OH225103   4.092   6.582   4.016
 8380TIP3    H125104   4.101   6.488   4.026
 8380TIP3    H225105   4.023   6.592   3.950
 8381TIP3   OH225106   1.662   2.918   5.610
 8381TIP3    H125107   1.660   2.959   5.696
 8381TIP3    H225108   1.640   2.826   5.627
 8382TIP3   OH225109   5.523   6.364   5.748
 8382TIP3    H125110   5.508   6.457   5.764
 8382TIP3    H225111   5.533   6.357   5.654
 8383TIP3   OH225112   5.423   4.501   4.566
 8383TIP3    H125113   5.371   4.421   4.558
 8383TIP3    H225114   5.387   4.559   4.499
 8384TIP3   OH225115   3.282   4.245   1.322
 8384TIP3    H125116   3.320   4.197   1.395
 8384TIP3    H225117   3.348   4.241   1.253
 8385TIP3   OH225118   5.271   6.362   0.794
 8385TIP3    H125119   5.280   6.310   0.874
 8385TIP3    H225120   5.267   6.453   0.826
 8386TIP3   OH225121   2.846   3.714   4.573
 8386TIP3    H125122   2.900   3.738   4.497
 8386TIP3    H225123   2.852   3.619   4.577
 8387TIP3   OH225124   2.298   4.011   2.014
 8387TIP3    H125125   2.234   3.990   2.081
 8387TIP3    H225126   2.338   3.927   1.990
 8388TIP3   OH225127   4.454   2.298   0.707
 8388TIP3    H125128   4.484   2.356   0.777
 8388TIP3    H225129   4.431   2.217   0.751
 8389TIP3   OH225130   0.951   0.322   1.265
 8389TIP3    H125131   1.000   0.348   1.343
 8389TIP3    H225132   0.860   0.315   1.294
 8390TIP3   OH225133   3.949   3.835   1.987
 8390TIP3    H125134   3.875   3.791   2.026
 8390TIP3    H225135   4.026   3.794   2.026
 8391TIP3   OH225136   0.123   5.961   4.858
 8391TIP3    H125137   0.157   6.045   4.827
 8391TIP3    H225138   0.054   5.939   4.796
 8392TIP3   OH225139   1.827   0.821   5.586
 8392TIP3    H125140   1.749   0.870   5.560
 8392TIP3    H225141   1.812   0.733   5.551
 8393TIP3   OH225142   2.035   2.646   5.866
 8393TIP3    H125143   2.084   2.564   5.867
 8393TIP3    H225144   1.945   2.620   5.882
 8394TIP3   OH225145   2.142   5.779   5.147
 8394TIP3    H125146   2.152   5.804   5.055
 8394TIP3    H225147   2.120   5.686   5.144
 8395TIP3   OH225148   3.752   0.163   4.895
 8395TIP3    H125149   3.752   0.068   4.879
 8395TIP3    H225150   3.810   0.198   4.827
 8396TIP3   OH225151   1.786   2.573   2.791
 8396TIP3    H125152   1.759   2.482   2.785
 8396TIP3    H225153   1.776   2.608   2.703
 8397TIP3   OH225154   3.948   2.292   5.459
 8397TIP3    H125155   3.897   2.240   5.396
 8397TIP3    H225156   3.885   2.315   5.527
 8398TIP3   OH225157   3.532   4.203   4.614
 8398TIP3    H125158   3.452   4.254   4.608
 8398TIP3    H225159   3.585   4.248   4.679
 8399TIP3   OH225160   2.218   3.170   0.668
 8399TIP3    H125161   2.193   3.196   0.757
 8399TIP3    H225162   2.163   3.223   0.611
 8400TIP3   OH225163   6.889   3.875   2.870
 8400TIP3    H125164   6.847   3.950   2.827
 8400TIP3    H225165   6.827   3.848   2.937
 8401TIP3   OH225166   3.940   3.884   1.313
 8401TIP3    H125167   3.883   3.811   1.337
 8401TIP3    H225168   3.901   3.919   1.233
 8402TIP3   OH225169   4.472   4.008   2.663
 8402TIP3    H125170   4.456   3.966   2.579
 8402TIP3    H225171   4.564   3.989   2.682
 8403TIP3   OH225172   4.527   2.574   1.703
 8403TIP3    H125173   4.512   2.644   1.639
 8403TIP3    H225174   4.491   2.609   1.784
 8404TIP3   OH225175   0.664   0.681   0.646
 8404TIP3    H125176   0.608   0.620   0.695
 8404TIP3    H225177   0.636   0.671   0.555
 8405TIP3   OH225178   5.354   0.634   5.197
 8405TIP3    H125179   5.406   0.629   5.117
 8405TIP3    H225180   5.404   0.585   5.262
 8406TIP3   OH225181   1.955   0.119   5.447
 8406TIP3    H125182   1.885   0.081   5.394
 8406TIP3    H225183   2.032   0.114   5.391
 8407TIP3   OH225184   6.972   3.033   4.103
 8407TIP3    H125185   6.974   2.943   4.069
 8407TIP3    H225186   6.882   3.047   4.130
 8408TIP3   OH225187   5.793   1.602   5.345
 8408TIP3    H125188   5.827   1.570   5.261
 8408TIP3    H225189   5.866   1.650   5.383
 8409TIP3   OH225190   0.102   4.880   1.510
 8409TIP3    H125191   0.089   4.806   1.450
 8409TIP3    H225192   0.095   4.841   1.597
 8410TIP3   OH225193   1.274   3.028   1.772
 8410TIP3    H125194   1.304   3.061   1.856
 8410TIP3    H225195   1.320   2.945   1.760
 8411TIP3   OH225196   2.851   3.246   2.612
 8411TIP3    H125197   2.781   3.182   2.606
 8411TIP3    H225198   2.903   3.217   2.688
 8412TIP3   OH225199   6.406   1.399   2.812
 8412TIP3    H125200   6.490   1.442   2.828
 8412TIP3    H225201   6.353   1.465   2.768
 8413TIP3   OH225202   5.532   1.525   4.724
 8413TIP3    H125203   5.440   1.523   4.695
 8413TIP3    H225204   5.527   1.525   4.819
 8414TIP3   OH225205   3.928   0.900   0.772
 8414TIP3    H125206   3.977   0.882   0.853
 8414TIP3    H225207   3.935   0.995   0.761
 8415TIP3   OH225208   5.927   6.068   4.833
 8415TIP3    H125209   5.902   6.101   4.919
 8415TIP3    H225210   5.959   6.145   4.786
 8416TIP3   OH225211   0.304   1.224   4.878
 8416TIP3    H125212   0.397   1.244   4.874
 8416TIP3    H225213   0.265   1.282   4.812
 8417TIP3   OH225214   1.572   5.689   3.065
 8417TIP3    H125215   1.572   5.636   2.985
 8417TIP3    H225216   1.481   5.692   3.092
 8418TIP3   OH225217   0.923   3.370   0.558
 8418TIP3    H125218   0.925   3.282   0.521
 8418TIP3    H225219   1.008   3.408   0.536
 8419TIP3   OH225220   5.719   1.732   1.891
 8419TIP3    H125221   5.677   1.700   1.971
 8419TIP3    H225222   5.666   1.696   1.820
 8420TIP3   OH225223   4.962   3.922   1.800
 8420TIP3    H125224   5.036   3.907   1.742
 8420TIP3    H225225   4.928   4.007   1.775
 8421TIP3   OH225226   3.194   6.088   4.446
 8421TIP3    H125227   3.281   6.052   4.431
 8421TIP3    H225228   3.134   6.026   4.405
 8422TIP3   OH225229   1.758   5.214   1.368
 8422TIP3    H125230   1.821   5.144   1.384
 8422TIP3    H225231   1.809   5.283   1.325
 8423TIP3   OH225232   3.882   6.280   0.774
 8423TIP3    H125233   3.795   6.241   0.786
 8423TIP3    H225234   3.941   6.222   0.822
 8424TIP3   OH225235   3.303   3.624   3.703
 8424TIP3    H125236   3.237   3.686   3.671
 8424TIP3    H225237   3.375   3.633   3.641
 8425TIP3   OH225238   4.846   2.429   3.022
 8425TIP3    H125239   4.903   2.497   3.060
 8425TIP3    H225240   4.767   2.476   2.997
 8426TIP3   OH225241   7.064   6.142   0.876
 8426TIP3    H125242   7.123   6.187   0.936
 8426TIP3    H225243   7.119   6.116   0.803
 8427TIP3   OH225244   6.853   0.932   0.503
 8427TIP3    H125245   6.921   0.947   0.569
 8427TIP3    H225246   6.899   0.892   0.430
 8428TIP3   OH225247   3.845   0.064   5.403
 8428TIP3    H125248   3.817   0.001   5.470
 8428TIP3    H225249   3.933   0.036   5.380
 8429TIP3   OH225250   3.678   0.783   0.434
 8429TIP3    H125251   3.652   0.873   0.450
 8429TIP3    H225252   3.601   0.731   0.457
 8430TIP3   OH225253   6.704   0.616   1.412
 8430TIP3    H125254   6.619   0.573   1.399
 8430TIP3    H225255   6.687   0.708   1.393
 8431TIP3   OH225256   3.737   1.589   1.033
 8431TIP3    H125257   3.713   1.654   0.967
 8431TIP3    H225258   3.804   1.535   0.990
 8432TIP3   OH225259   6.985   2.208   4.313
 8432TIP3    H125260   7.005   2.302   4.320
 8432TIP3    H225261   6.954   2.197   4.223
 8433TIP3   OH225262   4.217   0.343   0.365
 8433TIP3    H125263   4.262   0.353   0.281
 8433TIP3    H225264   4.145   0.283   0.347
 8434TIP3   OH225265   6.439   1.732   4.919
 8434TIP3    H125266   6.504   1.760   4.855
 8434TIP3    H225267   6.460   1.640   4.936
 8435TIP3   OH225268   1.476   5.230   0.429
 8435TIP3    H125269   1.406   5.229   0.494
 8435TIP3    H225270   1.438   5.274   0.353
 8436TIP3   OH225271   2.458   6.181   5.408
 8436TIP3    H125272   2.423   6.126   5.479
 8436TIP3    H225273   2.449   6.270   5.441
 8437TIP3   OH225274   0.226   1.337   5.443
 8437TIP3    H125275   0.247   1.309   5.532
 8437TIP3    H225276   0.255   1.265   5.388
 8438TIP3   OH225277   4.691   6.016   5.331
 8438TIP3    H125278   4.682   6.041   5.423
 8438TIP3    H225279   4.734   5.931   5.333
 8439TIP3   OH225280   6.205   2.436   1.803
 8439TIP3    H125281   6.173   2.484   1.727
 8439TIP3    H225282   6.223   2.348   1.770
 8440TIP3   OH225283   7.234   4.236   0.272
 8440TIP3    H125284   7.202   4.285   0.348
 8440TIP3    H225285   7.301   4.293   0.234
 8441TIP3   OH225286  -0.009   2.116   2.736
 8441TIP3    H125287   0.079   2.101   2.771
 8441TIP3    H225288  -0.067   2.089   2.807
 8442TIP3   OH225289   3.537   3.910   3.790
 8442TIP3    H125290   3.551   3.937   3.699
 8442TIP3    H225291   3.460   3.960   3.818
 8443TIP3   OH225292   5.562   1.816   4.379
 8443TIP3    H125293   5.645   1.833   4.425
 8443TIP3    H225294   5.576   1.851   4.291
 8444TIP3   OH225295   0.132   0.344   0.330
 8444TIP3    H125296   0.056   0.324   0.385
 8444TIP3    H225297   0.142   0.267   0.274
 8445TIP3   OH225298   0.294   1.616   4.378
 8445TIP3    H125299   0.241   1.694   4.393
 8445TIP3    H225300   0.337   1.599   4.462
 8446TIP3   OH225301   2.828   2.349   0.319
 8446TIP3    H125302   2.845   2.375   0.229
 8446TIP3    H225303   2.780   2.266   0.311
 8447TIP3   OH225304   5.788   4.085   4.760
 8447TIP3    H125305   5.835   4.066   4.841
 8447TIP3    H225306   5.778   4.180   4.760
 8448TIP3   OH225307   5.158   2.240   4.615
 8448TIP3    H125308   5.143   2.172   4.550
 8448TIP3    H225309   5.248   2.227   4.644
 8449TIP3   OH225310   5.170   3.351   3.454
 8449TIP3    H125311   5.176   3.343   3.549
 8449TIP3    H225312   5.097   3.294   3.429
 8450TIP3   OH225313   2.634   1.702   3.521
 8450TIP3    H125314   2.583   1.782   3.522
 8450TIP3    H225315   2.714   1.724   3.569
 8451TIP3   OH225316   5.533   1.883   1.738
 8451TIP3    H125317   5.601   1.938   1.699
 8451TIP3    H225318   5.516   1.923   1.823
 8452TIP3   OH225319   1.355   3.916   3.180
 8452TIP3    H125320   1.411   3.904   3.103
 8452TIP3    H225321   1.415   3.917   3.254
 8453TIP3   OH225322   4.426   1.120   2.014
 8453TIP3    H125323   4.363   1.108   1.943
 8453TIP3    H225324   4.445   1.031   2.045
 8454TIP3   OH225325   2.590   3.060   5.309
 8454TIP3    H125326   2.574   3.068   5.215
 8454TIP3    H225327   2.564   3.145   5.344
 8455TIP3   OH225328   2.084   1.404   0.437
 8455TIP3    H125329   2.032   1.354   0.373
 8455TIP3    H225330   2.160   1.434   0.388
 8456TIP3   OH225331   1.513   6.552   4.947
 8456TIP3    H125332   1.463   6.604   5.010
 8456TIP3    H225333   1.580   6.509   4.999
 8457TIP3   OH225334   4.972   4.109   4.275
 8457TIP3    H125335   4.955   4.043   4.342
 8457TIP3    H225336   4.914   4.085   4.203
 8458TIP3   OH225337   5.042   3.961   3.140
 8458TIP3    H125338   5.133   3.958   3.112
 8458TIP3    H225339   5.046   3.948   3.235
 8459TIP3   OH225340   4.965   2.745   0.535
 8459TIP3    H125341   4.961   2.812   0.467
 8459TIP3    H225342   4.874   2.718   0.547
 8460TIP3   OH225343   3.639   1.549   4.657
 8460TIP3    H125344   3.681   1.483   4.602
 8460TIP3    H225345   3.692   1.628   4.646
 8461TIP3   OH225346   6.599   5.631   4.798
 8461TIP3    H125347   6.677   5.576   4.795
 8461TIP3    H225348   6.535   5.578   4.845
 8462TIP3   OH225349   6.021   1.968   0.515
 8462TIP3    H125350   5.934   1.972   0.555
 8462TIP3    H225351   6.032   2.053   0.472
 8463TIP3   OH225352   4.600   6.261   2.130
 8463TIP3    H125353   4.636   6.329   2.187
 8463TIP3    H225354   4.553   6.309   2.062
 8464TIP3   OH225355   1.601   6.191   5.376
 8464TIP3    H125356   1.569   6.281   5.371
 8464TIP3    H225357   1.552   6.145   5.308
 8465TIP3   OH225358   3.818   1.262   2.052
 8465TIP3    H125359   3.865   1.201   2.108
 8465TIP3    H225360   3.726   1.236   2.060
 8466TIP3   OH225361   3.093   1.257   5.690
 8466TIP3    H125362   3.007   1.243   5.730
 8466TIP3    H225363   3.091   1.348   5.660
 8467TIP3   OH225364   0.595   4.145   3.181
 8467TIP3    H125365   0.558   4.058   3.166
 8467TIP3    H225366   0.548   4.179   3.257
 8468TIP3   OH225367   1.511   6.114   0.350
 8468TIP3    H125368   1.499   6.019   0.341
 8468TIP3    H225369   1.467   6.151   0.273
 8469TIP3   OH225370   3.047   4.081   4.638
 8469TIP3    H125371   3.046   3.985   4.637
 8469TIP3    H225372   2.963   4.106   4.600
 8470TIP3   OH225373   3.308   3.661   1.807
 8470TIP3    H125374   3.309   3.746   1.851
 8470TIP3    H225375   3.261   3.677   1.725
 8471TIP3   OH225376   3.478   0.410   5.260
 8471TIP3    H125377   3.511   0.320   5.258
 8471TIP3    H225378   3.383   0.400   5.253
 8472TIP3   OH225379   2.699   0.278   2.512
 8472TIP3    H125380   2.754   0.314   2.442
 8472TIP3    H225381   2.733   0.189   2.525
 8473TIP3   OH225382   5.061   2.039   0.137
 8473TIP3    H125383   5.079   2.132   0.126
 8473TIP3    H225384   4.968   2.030   0.117
 8474TIP3   OH225385   6.084   5.879   1.585
 8474TIP3    H125386   6.177   5.858   1.595
 8474TIP3    H225387   6.051   5.887   1.674
 8475TIP3   OH225388   4.498   2.515   2.563
 8475TIP3    H125389   4.580   2.558   2.538
 8475TIP3    H225390   4.515   2.422   2.547
 8476TIP3   OH225391   3.105   6.471   5.718
 8476TIP3    H125392   3.177   6.534   5.727
 8476TIP3    H225393   3.027   6.520   5.743
 8477TIP3   OH225394   1.898   3.720   0.664
 8477TIP3    H125395   1.863   3.688   0.581
 8477TIP3    H225396   1.831   3.699   0.729
 8478TIP3   OH225397   5.425   2.560   5.807
 8478TIP3    H125398   5.444   2.499   5.878
 8478TIP3    H225399   5.332   2.582   5.818
 8479TIP3   OH225400   3.599   3.568   5.527
 8479TIP3    H125401   3.639   3.547   5.442
 8479TIP3    H225402   3.664   3.539   5.591
 8480TIP3   OH225403   0.059   4.289   0.705
 8480TIP3    H125404   0.041   4.201   0.672
 8480TIP3    H225405   0.095   4.335   0.630
 8481TIP3   OH225406   5.049   3.942   5.179
 8481TIP3    H125407   4.985   3.879   5.146
 8481TIP3    H225408   5.131   3.917   5.137
 8482TIP3   OH225409   0.279   2.647   1.625
 8482TIP3    H125410   0.203   2.650   1.568
 8482TIP3    H225411   0.286   2.735   1.661
 8483TIP3   OH225412   3.111   0.649   3.729
 8483TIP3    H125413   3.129   0.734   3.771
 8483TIP3    H225414   3.158   0.653   3.646
 8484TIP3   OH225415   6.411   5.779   4.563
 8484TIP3    H125416   6.469   5.773   4.639
 8484TIP3    H225417   6.450   5.720   4.499
 8485TIP3   OH225418   0.709   5.093   1.216
 8485TIP3    H125419   0.687   5.122   1.304
 8485TIP3    H225420   0.625   5.088   1.171
 8486TIP3   OH225421   4.583   2.750   1.471
 8486TIP3    H125422   4.669   2.736   1.433
 8486TIP3    H225423   4.594   2.825   1.530
 8487TIP3   OH225424   2.153   6.825   0.991
 8487TIP3    H125425   2.091   6.782   0.932
 8487TIP3    H225426   2.175   6.757   1.056
 8488TIP3   OH225427   1.615   5.452   2.023
 8488TIP3    H125428   1.608   5.541   2.058
 8488TIP3    H225429   1.582   5.396   2.094
 8489TIP3   OH225430   2.978   0.815   1.949
 8489TIP3    H125431   2.923   0.834   1.873
 8489TIP3    H225432   3.036   0.890   1.957
 8490TIP3   OH225433   5.319   4.446   5.677
 8490TIP3    H125434   5.410   4.450   5.707
 8490TIP3    H225435   5.322   4.388   5.601
 8491TIP3   OH225436   4.965   1.754   2.655
 8491TIP3    H125437   4.870   1.760   2.645
 8491TIP3    H225438   4.989   1.670   2.616
 8492TIP3   OH225439   3.647   1.025   4.449
 8492TIP3    H125440   3.587   1.010   4.376
 8492TIP3    H225441   3.636   0.947   4.505
 8493TIP3   OH225442   0.082   2.874   0.450
 8493TIP3    H125443   0.150   2.941   0.439
 8493TIP3    H225444   0.098   2.837   0.537
 8494TIP3   OH225445   4.021   4.368   4.609
 8494TIP3    H125446   4.006   4.454   4.569
 8494TIP3    H225447   4.087   4.384   4.677
 8495TIP3   OH225448   6.779   1.061   5.312
 8495TIP3    H125449   6.822   1.146   5.317
 8495TIP3    H225450   6.835   1.002   5.363
 8496TIP3   OH225451   2.244   3.809   4.658
 8496TIP3    H125452   2.283   3.888   4.620
 8496TIP3    H225453   2.168   3.841   4.707
 8497TIP3   OH225454   6.043   1.246   2.202
 8497TIP3    H125455   6.063   1.338   2.183
 8497TIP3    H225456   6.072   1.200   2.123
 8498TIP3   OH225457   5.630   3.626   1.151
 8498TIP3    H125458   5.559   3.641   1.214
 8498TIP3    H225459   5.614   3.689   1.081
 8499TIP3   OH225460   4.134   5.670   0.512
 8499TIP3    H125461   4.215   5.626   0.538
 8499TIP3    H225462   4.162   5.739   0.452
 8500TIP3   OH225463   6.290   3.017   3.814
 8500TIP3    H125464   6.304   3.095   3.760
 8500TIP3    H225465   6.221   2.968   3.769
 8501TIP3   OH225466   1.310   4.109   4.398
 8501TIP3    H125467   1.298   4.022   4.435
 8501TIP3    H225468   1.226   4.153   4.412
 8502TIP3   OH225469   4.112   4.278   0.711
 8502TIP3    H125470   4.055   4.263   0.785
 8502TIP3    H225471   4.195   4.306   0.750
 8503TIP3   OH225472   3.474   5.509   1.662
 8503TIP3    H125473   3.515   5.560   1.592
 8503TIP3    H225474   3.531   5.522   1.738
 8504TIP3   OH225475   6.652   0.899   4.770
 8504TIP3    H125476   6.614   0.965   4.828
 8504TIP3    H225477   6.577   0.844   4.744
 8505TIP3   OH225478   0.243   1.794   4.984
 8505TIP3    H125479   0.231   1.714   4.932
 8505TIP3    H225480   0.330   1.785   5.023
 8506TIP3   OH225481   3.023   4.489   5.172
 8506TIP3    H125482   3.116   4.473   5.186
 8506TIP3    H225483   3.000   4.436   5.097
 8507TIP3   OH225484   4.861   2.378   0.688
 8507TIP3    H125485   4.856   2.471   0.664
 8507TIP3    H225486   4.797   2.335   0.632
 8508TIP3   OH225487   2.921   1.964   2.227
 8508TIP3    H125488   2.983   2.034   2.250
 8508TIP3    H225489   2.861   1.960   2.301
 8509TIP3   OH225490   4.467   3.460   0.125
 8509TIP3    H125491   4.541   3.422   0.173
 8509TIP3    H225492   4.490   3.450   0.033
 8510TIP3   OH225493   0.120   4.042   1.728
 8510TIP3    H125494   0.057   4.063   1.660
 8510TIP3    H225495   0.205   4.061   1.688
 8511TIP3   OH225496   1.041   0.404   2.691
 8511TIP3    H125497   1.084   0.334   2.740
 8511TIP3    H225498   0.951   0.374   2.681
 8512TIP3   OH225499   0.312   3.547   5.576
 8512TIP3    H125500   0.222   3.514   5.579
 8512TIP3    H225501   0.343   3.521   5.489
 8513TIP3   OH225502   1.526   6.010   4.928
 8513TIP3    H125503   1.583   6.087   4.932
 8513TIP3    H225504   1.472   6.023   4.850
 8514TIP3   OH225505   6.817   3.201   2.344
 8514TIP3    H125506   6.874   3.126   2.327
 8514TIP3    H225507   6.875   3.267   2.381
 8515TIP3   OH225508   5.100   1.528   1.232
 8515TIP3    H125509   5.022   1.501   1.185
 8515TIP3    H225510   5.101   1.474   1.311
 8516TIP3   OH225511   4.627   3.535   4.139
 8516TIP3    H125512   4.656   3.446   4.159
 8516TIP3    H225513   4.556   3.524   4.076
 8517TIP3   OH225514   1.264   0.337   1.965
 8517TIP3    H125515   1.333   0.351   1.899
 8517TIP3    H225516   1.243   0.244   1.957
 8518TIP3   OH225517   3.274   1.921   1.558
 8518TIP3    H125518   3.205   1.979   1.526
 8518TIP3    H225519   3.237   1.833   1.552
 8519TIP3   OH225520   5.920   0.219   4.589
 8519TIP3    H125521   5.946   0.311   4.584
 8519TIP3    H225522   5.989   0.178   4.641
 8520TIP3   OH225523   2.542   1.452   5.680
 8520TIP3    H125524   2.587   1.480   5.601
 8520TIP3    H225525   2.570   1.361   5.693
 8521TIP3   OH225526   6.908   6.301   2.459
 8521TIP3    H125527   6.908   6.380   2.513
 8521TIP3    H225528   6.835   6.314   2.398
 8522TIP3   OH225529   2.276   2.713   2.701
 8522TIP3    H125530   2.256   2.640   2.643
 8522TIP3    H225531   2.340   2.765   2.654
 8523TIP3   OH225532   0.859   3.445   3.263
 8523TIP3    H125533   0.887   3.410   3.179
 8523TIP3    H225534   0.764   3.431   3.264
 8524TIP3   OH225535   3.956   2.569   4.024
 8524TIP3    H125536   3.911   2.511   3.963
 8524TIP3    H225537   3.906   2.651   4.020
 8525TIP3   OH225538   1.020   1.267   3.939
 8525TIP3    H125539   1.055   1.198   3.996
 8525TIP3    H225540   1.083   1.273   3.867
 8526TIP3   OH225541   2.029   5.773   1.831
 8526TIP3    H125542   2.082   5.840   1.874
 8526TIP3    H225543   1.945   5.775   1.878
 8527TIP3   OH225544   3.879   1.087   2.719
 8527TIP3    H125545   3.836   1.074   2.634
 8527TIP3    H225546   3.956   1.030   2.715
 8528TIP3   OH225547   1.262   5.310   2.854
 8528TIP3    H125548   1.347   5.272   2.833
 8528TIP3    H225549   1.279   5.367   2.929
 8529TIP3   OH225550   0.247   6.145   3.601
 8529TIP3    H125551   0.166   6.182   3.635
 8529TIP3    H225552   0.233   6.050   3.603
 8530TIP3   OH225553   3.537   5.088   2.076
 8530TIP3    H125554   3.513   5.057   1.989
 8530TIP3    H225555   3.461   5.069   2.130
 8531TIP3   OH225556   5.853   6.351   3.674
 8531TIP3    H125557   5.823   6.322   3.760
 8531TIP3    H225558   5.948   6.352   3.681
 8532TIP3   OH225559   2.779   6.556   5.544
 8532TIP3    H125560   2.825   6.610   5.608
 8532TIP3    H225561   2.803   6.593   5.459
 8533TIP3   OH225562   4.363   3.244   5.354
 8533TIP3    H125563   4.382   3.159   5.316
 8533TIP3    H225564   4.430   3.255   5.422
 8534TIP3   OH225565   6.992   1.140   3.777
 8534TIP3    H125566   6.952   1.077   3.836
 8534TIP3    H225567   7.050   1.192   3.833
 8535TIP3   OH225568   1.016   3.626   2.188
 8535TIP3    H125569   1.013   3.535   2.159
 8535TIP3    H225570   0.954   3.631   2.260
 8536TIP3   OH225571   3.930   4.181   0.461
 8536TIP3    H125572   3.836   4.188   0.441
 8536TIP3    H225573   3.949   4.260   0.512
 8537TIP3   OH225574   6.856   3.351   4.852
 8537TIP3    H125575   6.828   3.318   4.766
 8537TIP3    H225576   6.775   3.353   4.904
 8538TIP3   OH225577   6.036   5.558   5.894
 8538TIP3    H125578   6.096   5.486   5.871
 8538TIP3    H225579   5.950   5.528   5.866
 8539TIP3   OH225580   3.758   4.031   3.305
 8539TIP3    H125581   3.682   4.022   3.247
 8539TIP3    H225582   3.746   4.117   3.345
 8540TIP3   OH225583   6.869   6.552   2.965
 8540TIP3    H125584   6.877   6.629   2.910
 8540TIP3    H225585   6.812   6.493   2.916
 8541TIP3   OH225586   3.430   0.838   4.701
 8541TIP3    H125587   3.363   0.857   4.635
 8541TIP3    H225588   3.507   0.814   4.650
 8542TIP3   OH225589   6.774   5.149   4.678
 8542TIP3    H125590   6.781   5.072   4.622
 8542TIP3    H225591   6.817   5.124   4.760
 8543TIP3   OH225592   3.752   0.474   3.890
 8543TIP3    H125593   3.792   0.400   3.843
 8543TIP3    H225594   3.805   0.549   3.865
 8544TIP3   OH225595   6.677   2.205   1.642
 8544TIP3    H125596   6.645   2.182   1.729
 8544TIP3    H225597   6.605   2.183   1.583
 8545TIP3   OH225598   3.268   2.352   2.402
 8545TIP3    H125599   3.216   2.419   2.447
 8545TIP3    H225600   3.346   2.399   2.372
 8546TIP3   OH225601   0.612   4.013   1.617
 8546TIP3    H125602   0.641   3.944   1.678
 8546TIP3    H225603   0.541   4.057   1.663
 8547TIP3   OH225604   0.908   0.613   3.730
 8547TIP3    H125605   0.857   0.537   3.704
 8547TIP3    H225606   0.995   0.599   3.691
 8548TIP3   OH225607   6.132   4.625   5.851
 8548TIP3    H125608   6.114   4.598   5.761
 8548TIP3    H225609   6.105   4.550   5.904
 8549TIP3   OH225610   1.841   4.672   1.425
 8549TIP3    H125611   1.885   4.587   1.434
 8549TIP3    H225612   1.756   4.659   1.466
 8550TIP3   OH225613   5.984   4.111   0.939
 8550TIP3    H125614   6.036   4.190   0.925
 8550TIP3    H225615   5.927   4.106   0.863
 8551TIP3   OH225616   2.856   4.442   2.188
 8551TIP3    H125617   2.931   4.501   2.186
 8551TIP3    H225618   2.800   4.471   2.116
 8552TIP3   OH225619   0.019   6.700   2.654
 8552TIP3    H125620   0.041   6.621   2.605
 8552TIP3    H225621  -0.002   6.669   2.742
 8553TIP3   OH225622   0.396   5.904   3.455
 8553TIP3    H125623   0.376   5.849   3.380
 8553TIP3    H225624   0.377   5.850   3.531
 8554TIP3   OH225625   3.127   5.733   3.286
 8554TIP3    H125626   3.194   5.770   3.229
 8554TIP3    H225627   3.053   5.715   3.227
 8555TIP3   OH225628   5.297   5.889   3.873
 8555TIP3    H125629   5.337   5.843   3.946
 8555TIP3    H225630   5.253   5.820   3.822
 8556TIP3   OH225631   4.456   4.019   0.938
 8556TIP3    H125632   4.532   3.985   0.891
 8556TIP3    H225633   4.381   3.986   0.889
 8557TIP3   OH225634   5.625   3.923   5.654
 8557TIP3    H125635   5.601   3.981   5.725
 8557TIP3    H225636   5.567   3.947   5.582
 8558TIP3   OH225637   4.156   4.347   1.683
 8558TIP3    H125638   4.134   4.255   1.667
 8558TIP3    H225639   4.157   4.354   1.779
 8559TIP3   OH225640   2.019   0.884   3.278
 8559TIP3    H125641   2.080   0.892   3.205
 8559TIP3    H225642   1.963   0.809   3.254
 8560TIP3   OH225643   3.152   5.831   5.524
 8560TIP3    H125644   3.162   5.746   5.565
 8560TIP3    H225645   3.175   5.816   5.432
 8561TIP3   OH225646   4.038   5.847   3.261
 8561TIP3    H125647   4.082   5.787   3.201
 8561TIP3    H225648   3.945   5.841   3.238
 8562TIP3   OH225649   3.901   4.656   1.997
 8562TIP3    H125650   3.814   4.618   1.985
 8562TIP3    H225651   3.945   4.597   2.058
 8563TIP3   OH225652   5.352   4.599   0.892
 8563TIP3    H125653   5.264   4.601   0.931
 8563TIP3    H225654   5.411   4.589   0.967
 8564TIP3   OH225655   4.198   4.292   2.224
 8564TIP3    H125656   4.261   4.304   2.296
 8564TIP3    H225657   4.217   4.205   2.190
 8565TIP3   OH225658   2.428   6.007   3.311
 8565TIP3    H125659   2.466   5.928   3.274
 8565TIP3    H225660   2.436   5.996   3.405
 8566TIP3   OH225661   5.830   2.221   5.578
 8566TIP3    H125662   5.898   2.206   5.512
 8566TIP3    H225663   5.827   2.141   5.629
 8567TIP3   OH225664   1.151   3.538   5.641
 8567TIP3    H125665   1.156   3.455   5.688
 8567TIP3    H225666   1.149   3.605   5.709
 8568TIP3   OH225667   4.819   6.642   3.225
 8568TIP3    H125668   4.760   6.666   3.297
 8568TIP3    H225669   4.902   6.621   3.267
 8569TIP3   OH225670   4.318   2.264   3.676
 8569TIP3    H125671   4.372   2.273   3.754
 8569TIP3    H225672   4.301   2.170   3.668
 8570TIP3   OH225673   1.271   5.417   3.101
 8570TIP3    H125674   1.286   5.356   3.173
 8570TIP3    H225675   1.180   5.445   3.112
 8571TIP3   OH225676   5.718   1.032   5.267
 8571TIP3    H125677   5.755   0.944   5.263
 8571TIP3    H225678   5.699   1.055   5.176
 8572TIP3   OH225679   0.958   2.299   4.635
 8572TIP3    H125680   0.892   2.274   4.700
 8572TIP3    H225681   0.908   2.327   4.558
 8573TIP3   OH225682   3.319   5.899   4.972
 8573TIP3    H125683   3.373   5.851   4.909
 8573TIP3    H225684   3.248   5.937   4.920
 8574TIP3   OH225685   4.321   3.097   4.626
 8574TIP3    H125686   4.354   3.037   4.692
 8574TIP3    H225687   4.356   3.182   4.651
 8575TIP3   OH225688   3.273   0.865   5.135
 8575TIP3    H125689   3.353   0.819   5.109
 8575TIP3    H225690   3.271   0.857   5.230
 8576TIP3   OH225691   0.862   1.579   4.146
 8576TIP3    H125692   0.951   1.547   4.159
 8576TIP3    H225693   0.811   1.502   4.122
 8577TIP3   OH225694   4.933   1.264   1.388
 8577TIP3    H125695   4.964   1.313   1.464
 8577TIP3    H225696   4.838   1.260   1.399
 8578TIP3   OH225697   5.732   0.543   0.646
 8578TIP3    H125698   5.803   0.544   0.581
 8578TIP3    H225699   5.657   0.507   0.598
 8579TIP3   OH225700   1.804   3.442   0.419
 8579TIP3    H125701   1.814   3.398   0.334
 8579TIP3    H225702   1.797   3.535   0.397
 8580TIP3   OH225703   3.848   6.515   0.670
 8580TIP3    H125704   3.775   6.526   0.610
 8580TIP3    H225705   3.842   6.424   0.699
 8581TIP3   OH225706   1.812   6.533   3.391
 8581TIP3    H125707   1.865   6.468   3.437
 8581TIP3    H225708   1.765   6.579   3.461
 8582TIP3   OH225709   3.572   3.906   4.705
 8582TIP3    H125710   3.508   3.975   4.685
 8582TIP3    H225711   3.573   3.851   4.626
 8583TIP3   OH225712   0.915   5.421   0.398
 8583TIP3    H125713   0.852   5.354   0.423
 8583TIP3    H225714   0.957   5.446   0.480
 8584TIP3   OH225715   0.553   5.692   2.508
 8584TIP3    H125716   0.604   5.722   2.583
 8584TIP3    H225717   0.610   5.707   2.433
 8585TIP3   OH225718   5.940   6.434   2.785
 8585TIP3    H125719   5.923   6.456   2.693
 8585TIP3    H225720   6.034   6.417   2.789
 8586TIP3   OH225721   5.027   3.841   2.373
 8586TIP3    H125722   5.037   3.784   2.449
 8586TIP3    H225723   5.066   3.925   2.400
 8587TIP3   OH225724   3.760   3.117   2.325
 8587TIP3    H125725   3.760   3.039   2.380
 8587TIP3    H225726   3.750   3.083   2.236
 8588TIP3   OH225727   0.536   5.900   1.587
 8588TIP3    H125728   0.469   5.896   1.519
 8588TIP3    H225729   0.589   5.976   1.564
 8589TIP3   OH225730   6.335   5.771   5.689
 8589TIP3    H125731   6.332   5.725   5.773
 8589TIP3    H225732   6.294   5.855   5.707
 8590TIP3   OH225733   1.929   6.264   4.136
 8590TIP3    H125734   1.890   6.349   4.115
 8590TIP3    H225735   1.854   6.207   4.153
 8591TIP3   OH225736   7.007   0.156   4.307
 8591TIP3    H125737   7.092   0.195   4.286
 8591TIP3    H225738   6.948   0.187   4.238
 8592TIP3   OH225739   4.472   3.999   1.749
 8592TIP3    H125740   4.537   4.069   1.745
 8592TIP3    H225741   4.397   4.039   1.792
 8593TIP3   OH225742   7.045   5.222   3.166
 8593TIP3    H125743   7.131   5.186   3.188
 8593TIP3    H225744   7.013   5.258   3.249
 8594TIP3   OH225745   2.461   1.992   0.914
 8594TIP3    H125746   2.390   1.991   0.849
 8594TIP3    H225747   2.452   2.076   0.959
 8595TIP3   OH225748   3.406   5.058   2.953
 8595TIP3    H125749   3.493   5.050   2.915
 8595TIP3    H225750   3.378   5.147   2.931
 8596TIP3   OH225751   4.711   4.072   0.193
 8596TIP3    H125752   4.647   4.093   0.124
 8596TIP3    H225753   4.796   4.076   0.148
 8597TIP3   OH225754   0.531   5.366   1.622
 8597TIP3    H125755   0.610   5.351   1.674
 8597TIP3    H225756   0.475   5.291   1.642
 8598TIP3   OH225757   5.601   4.803   2.660
 8598TIP3    H125758   5.524   4.751   2.683
 8598TIP3    H225759   5.599   4.807   2.564
 8599TIP3   OH225760   5.538   4.321   3.661
 8599TIP3    H125761   5.480   4.328   3.585
 8599TIP3    H225762   5.626   4.319   3.625
 8600TIP3   OH225763   7.113   4.870   0.015
 8600TIP3    H125764   7.032   4.835  -0.023
 8600TIP3    H225765   7.172   4.880  -0.060
 8601TIP3   OH225766   1.980   0.822   1.150
 8601TIP3    H125767   1.932   0.857   1.075
 8601TIP3    H225768   2.039   0.757   1.113
 8602TIP3   OH225769   6.663   5.473   0.444
 8602TIP3    H125770   6.719   5.459   0.367
 8602TIP3    H225771   6.617   5.555   0.426
 8603TIP3   OH225772   1.312   5.486   2.590
 8603TIP3    H125773   1.239   5.496   2.529
 8603TIP3    H225774   1.271   5.453   2.670
 8604TIP3   OH225775   1.521   2.248   5.049
 8604TIP3    H125776   1.441   2.301   5.045
 8604TIP3    H225777   1.547   2.251   5.141
 8605TIP3   OH225778   4.827   6.454   1.806
 8605TIP3    H125779   4.841   6.484   1.896
 8605TIP3    H225780   4.907   6.406   1.783
 8606TIP3   OH225781   4.857   0.025   5.456
 8606TIP3    H125782   4.815   0.111   5.460
 8606TIP3    H225783   4.818  -0.024   5.528
 8607TIP3   OH225784   0.360   4.130   1.615
 8607TIP3    H125785   0.335   4.101   1.527
 8607TIP3    H225786   0.388   4.221   1.603
 8608TIP3   OH225787   3.417   4.265   3.117
 8608TIP3    H125788   3.416   4.270   3.021
 8608TIP3    H225789   3.353   4.196   3.137
 8609TIP3   OH225790   1.144   1.011   3.811
 8609TIP3    H125791   1.141   0.994   3.905
 8609TIP3    H225792   1.200   0.942   3.775
 8610TIP3   OH225793   6.308   0.540   5.613
 8610TIP3    H125794   6.292   0.481   5.539
 8610TIP3    H225795   6.305   0.628   5.575
 8611TIP3   OH225796   4.353   1.329   3.575
 8611TIP3    H125797   4.311   1.251   3.611
 8611TIP3    H225798   4.314   1.402   3.622
 8612TIP3   OH225799   4.310   1.602   1.548
 8612TIP3    H125800   4.344   1.618   1.636
 8612TIP3    H225801   4.355   1.666   1.493
 8613TIP3   OH225802   4.240   4.581   0.958
 8613TIP3    H125803   4.226   4.521   1.031
 8613TIP3    H225804   4.333   4.570   0.935
 8614TIP3   OH225805   5.802   1.544   2.433
 8614TIP3    H125806   5.830   1.453   2.442
 8614TIP3    H225807   5.807   1.579   2.522
 8615TIP3   OH225808   4.774   0.601   0.359
 8615TIP3    H125809   4.791   0.512   0.327
 8615TIP3    H225810   4.860   0.643   0.362
 8616TIP3   OH225811   1.741   0.408   0.504
 8616TIP3    H125812   1.721   0.316   0.486
 8616TIP3    H225813   1.701   0.426   0.589
 8617TIP3   OH225814   6.695   1.136   4.629
 8617TIP3    H125815   6.703   1.192   4.706
 8617TIP3    H225816   6.689   1.047   4.664
 8618TIP3   OH225817   2.594   5.972   1.473
 8618TIP3    H125818   2.672   6.010   1.434
 8618TIP3    H225819   2.544   5.937   1.399
 8619TIP3   OH225820   1.414   6.712   0.710
 8619TIP3    H125821   1.421   6.737   0.618
 8619TIP3    H225822   1.334   6.756   0.741
 8620TIP3   OH225823   4.210   1.752   4.318
 8620TIP3    H125824   4.221   1.822   4.254
 8620TIP3    H225825   4.116   1.737   4.322
 8621TIP3   OH225826   3.379   3.220   2.790
 8621TIP3    H125827   3.332   3.150   2.744
 8621TIP3    H225828   3.330   3.299   2.769
 8622TIP3   OH225829   6.057   3.469   4.206
 8622TIP3    H125830   5.986   3.439   4.148
 8622TIP3    H225831   6.016   3.534   4.262
 8623TIP3   OH225832   2.459   6.488   4.798
 8623TIP3    H125833   2.380   6.458   4.842
 8623TIP3    H225834   2.522   6.417   4.809
 8624TIP3   OH225835   5.105   6.847   3.147
 8624TIP3    H125836   5.166   6.800   3.203
 8624TIP3    H225837   5.077   6.782   3.083
 8625TIP3   OH225838   1.444   3.141   4.897
 8625TIP3    H125839   1.443   3.226   4.942
 8625TIP3    H225840   1.536   3.127   4.876
 8626TIP3   OH225841   0.985   3.864   1.356
 8626TIP3    H125842   0.933   3.914   1.294
 8626TIP3    H225843   1.027   3.795   1.304
 8627TIP3   OH225844   0.551   5.079   4.870
 8627TIP3    H125845   0.619   5.036   4.921
 8627TIP3    H225846   0.559   5.172   4.893
 8628TIP3   OH225847   4.374   6.759   1.989
 8628TIP3    H125848   4.351   6.666   1.994
 8628TIP3    H225849   4.317   6.801   2.054
 8629TIP3   OH225850   1.798   3.482   2.388
 8629TIP3    H125851   1.747   3.504   2.311
 8629TIP3    H225852   1.829   3.393   2.372
 8630TIP3   OH225853   5.658   2.916   4.433
 8630TIP3    H125854   5.642   2.962   4.351
 8630TIP3    H225855   5.584   2.940   4.490
 8631TIP3   OH225856   6.136   5.691   0.099
 8631TIP3    H125857   6.112   5.600   0.115
 8631TIP3    H225858   6.232   5.692   0.103
 8632TIP3   OH225859   2.593   4.767   3.655
 8632TIP3    H125860   2.638   4.706   3.712
 8632TIP3    H225861   2.630   4.853   3.677
 8633TIP3   OH225862   2.682   2.751   4.519
 8633TIP3    H125863   2.631   2.737   4.439
 8633TIP3    H225864   2.650   2.835   4.553
 8634TIP3   OH225865   4.614   4.840   4.749
 8634TIP3    H125866   4.534   4.798   4.780
 8634TIP3    H225867   4.594   4.934   4.750
 8635TIP3   OH225868   7.028   5.301   2.886
 8635TIP3    H125869   7.064   5.261   2.965
 8635TIP3    H225870   7.097   5.291   2.820
 8636TIP3   OH225871   0.242   3.030   3.234
 8636TIP3    H125872   0.196   2.955   3.198
 8636TIP3    H225873   0.316   2.992   3.281
 8637TIP3   OH225874   2.101   3.463   1.769
 8637TIP3    H125875   2.034   3.509   1.718
 8637TIP3    H225876   2.051   3.407   1.828
 8638TIP3   OH225877   5.806   1.309   2.739
 8638TIP3    H125878   5.805   1.396   2.780
 8638TIP3    H225879   5.851   1.322   2.656
 8639TIP3   OH225880   0.471   0.842   2.394
 8639TIP3    H125881   0.460   0.930   2.430
 8639TIP3    H225882   0.443   0.784   2.465
 8640TIP3   OH225883   7.152   4.231   4.777
 8640TIP3    H125884   7.061   4.205   4.790
 8640TIP3    H225885   7.200   4.187   4.847
 8641TIP3   OH225886   6.860   1.354   5.608
 8641TIP3    H125887   6.814   1.405   5.675
 8641TIP3    H225888   6.852   1.405   5.528
 8642TIP3   OH225889   2.674   0.834   1.045
 8642TIP3    H125890   2.609   0.804   1.108
 8642TIP3    H225891   2.685   0.927   1.064
 8643TIP3   OH225892   4.425   1.016   5.089
 8643TIP3    H125893   4.477   1.015   5.169
 8643TIP3    H225894   4.490   1.027   5.019
 8644TIP3   OH225895   2.325   2.297   4.501
 8644TIP3    H125896   2.415   2.322   4.525
 8644TIP3    H225897   2.269   2.349   4.559
 8645TIP3   OH225898   5.489   0.606   2.822
 8645TIP3    H125899   5.474   0.577   2.912
 8645TIP3    H225900   5.402   0.605   2.782
 8646TIP3   OH225901   6.751   4.578   0.561
 8646TIP3    H125902   6.813   4.617   0.498
 8646TIP3    H225903   6.688   4.531   0.507
 8647TIP3   OH225904   5.168   3.499   1.184
 8647TIP3    H125905   5.216   3.582   1.190
 8647TIP3    H225906   5.224   3.435   1.227
 8648TIP3   OH225907   1.706   2.130   5.469
 8648TIP3    H125908   1.766   2.106   5.539
 8648TIP3    H225909   1.665   2.047   5.444
 8649TIP3   OH225910   6.781   4.209   2.185
 8649TIP3    H125911   6.800   4.279   2.247
 8649TIP3    H225912   6.834   4.231   2.108
 8650TIP3   OH225913   0.660   3.346   5.843
 8650TIP3    H125914   0.705   3.427   5.818
 8650TIP3    H225915   0.649   3.353   5.938
 8651TIP3   OH225916   4.585   4.652   5.079
 8651TIP3    H125917   4.601   4.744   5.059
 8651TIP3    H225918   4.661   4.625   5.130
 8652TIP3   OH225919   6.401   1.906   1.644
 8652TIP3    H125920   6.348   1.831   1.669
 8652TIP3    H225921   6.403   1.962   1.722
 8653TIP3   OH225922   3.242   6.745   4.671
 8653TIP3    H125923   3.211   6.698   4.594
 8653TIP3    H225924   3.218   6.837   4.654
 8654TIP3   OH225925   0.274   3.355   3.222
 8654TIP3    H125926   0.297   3.346   3.130
 8654TIP3    H225927   0.259   3.449   3.234
 8655TIP3   OH225928   1.739   3.979   4.878
 8655TIP3    H125929   1.646   3.994   4.863
 8655TIP3    H225930   1.758   3.899   4.829
 8656TIP3   OH225931   2.064   2.196   5.786
 8656TIP3    H125932   2.002   2.265   5.808
 8656TIP3    H225933   2.077   2.204   5.692
 8657TIP3   OH225934   6.598   5.893   4.922
 8657TIP3    H125935   6.502   5.893   4.927
 8657TIP3    H225936   6.620   5.807   4.887
 8658TIP3   OH225937   2.590   4.034   0.538
 8658TIP3    H125938   2.648   4.023   0.613
 8658TIP3    H225939   2.596   4.127   0.516
 8659TIP3   OH225940   4.089   6.660   2.100
 8659TIP3    H125941   4.068   6.623   2.186
 8659TIP3    H225942   4.009   6.705   2.073
 8660TIP3   OH225943   2.292   5.198   3.776
 8660TIP3    H125944   2.377   5.191   3.820
 8660TIP3    H225945   2.234   5.143   3.828
 8661TIP3   OH225946   5.623   1.697   3.758
 8661TIP3    H125947   5.538   1.705   3.803
 8661TIP3    H225948   5.603   1.648   3.678
 8662TIP3   OH225949   0.945   3.808   3.696
 8662TIP3    H125950   0.957   3.812   3.791
 8662TIP3    H225951   0.872   3.747   3.684
 8663TIP3   OH225952   5.479   0.960   1.722
 8663TIP3    H125953   5.540   0.886   1.730
 8663TIP3    H225954   5.438   0.948   1.636
 8664TIP3   OH225955   6.563   0.969   0.640
 8664TIP3    H125956   6.519   0.942   0.559
 8664TIP3    H225957   6.581   0.887   0.686
 8665TIP3   OH225958   5.013   0.896   0.097
 8665TIP3    H125959   5.031   0.917   0.005
 8665TIP3    H225960   4.956   0.967   0.127
 8666TIP3   OH225961   4.830   1.355   0.706
 8666TIP3    H125962   4.820   1.447   0.730
 8666TIP3    H225963   4.916   1.351   0.665
 8667TIP3   OH225964   4.570   1.322   3.397
 8667TIP3    H125965   4.493   1.276   3.429
 8667TIP3    H225966   4.547   1.414   3.402
 8668TIP3   OH225967   5.376   1.453   1.241
 8668TIP3    H125968   5.303   1.504   1.277
 8668TIP3    H225969   5.334   1.379   1.198
 8669TIP3   OH225970   4.739   5.838   4.993
 8669TIP3    H125971   4.759   5.746   5.011
 8669TIP3    H225972   4.644   5.842   4.990
 8670TIP3   OH225973   1.574   4.837   4.821
 8670TIP3    H125974   1.629   4.776   4.871
 8670TIP3    H225975   1.599   4.924   4.853
 8671TIP3   OH225976   6.735   3.043   3.288
 8671TIP3    H125977   6.778   3.081   3.211
 8671TIP3    H225978   6.649   3.084   3.290
 8672TIP3   OH225979   3.845   4.652   1.314
 8672TIP3    H125980   3.891   4.656   1.398
 8672TIP3    H225981   3.765   4.704   1.328
 8673TIP3   OH225982   6.264   5.663   3.126
 8673TIP3    H125983   6.237   5.571   3.118
 8673TIP3    H225984   6.286   5.674   3.218
 8674TIP3   OH225985   4.691   2.064   1.673
 8674TIP3    H125986   4.716   2.096   1.760
 8674TIP3    H225987   4.762   2.006   1.647
 8675TIP3   OH225988   1.347   0.869   4.432
 8675TIP3    H125989   1.440   0.873   4.414
 8675TIP3    H225990   1.313   0.953   4.401
 8676TIP3   OH225991   6.782   0.375   0.010
 8676TIP3    H125992   6.721   0.302   0.004
 8676TIP3    H225993   6.757   0.433  -0.061
 8677TIP3   OH225994   4.592   6.667   0.338
 8677TIP3    H125995   4.601   6.616   0.418
 8677TIP3    H225996   4.581   6.757   0.368
 8678TIP3   OH225997   4.841   0.577   2.821
 8678TIP3    H125998   4.842   0.620   2.735
 8678TIP3    H225999   4.753   0.592   2.855
 8679TIP3   OH226000   4.361   1.149   4.685
 8679TIP3    H126001   4.296   1.192   4.740
 8679TIP3    H226002   4.363   1.200   4.604
 8680TIP3   OH226003   4.898   1.662   0.766
 8680TIP3    H126004   4.912   1.717   0.843
 8680TIP3    H226005   4.976   1.674   0.713
 8681TIP3   OH226006   5.318   4.675   1.995
 8681TIP3    H126007   5.342   4.738   2.063
 8681TIP3    H226008   5.369   4.597   2.016
 8682TIP3   OH226009   0.272   5.128   2.392
 8682TIP3    H126010   0.192   5.167   2.357
 8682TIP3    H226011   0.337   5.199   2.387
 8683TIP3   OH226012   5.771   0.314   0.874
 8683TIP3    H126013   5.785   0.234   0.824
 8683TIP3    H226014   5.775   0.384   0.808
 8684TIP3   OH226015   3.325   4.352   2.126
 8684TIP3    H126016   3.267   4.293   2.077
 8684TIP3    H226017   3.325   4.316   2.215
 8685TIP3   OH226018   6.126   3.946   3.848
 8685TIP3    H126019   6.124   3.965   3.754
 8685TIP3    H226020   6.170   4.022   3.887
 8686TIP3   OH226021   1.882   6.372   2.574
 8686TIP3    H126022   1.873   6.292   2.626
 8686TIP3    H226023   1.928   6.433   2.632
 8687TIP3   OH226024   4.270   2.244   0.198
 8687TIP3    H126025   4.259   2.229   0.292
 8687TIP3    H226026   4.286   2.157   0.162
 8688TIP3   OH226027   3.170   0.096   4.297
 8688TIP3    H126028   3.122   0.094   4.380
 8688TIP3    H226029   3.110   0.055   4.234
 8689TIP3   OH226030   0.047   3.461   5.524
 8689TIP3    H126031  -0.042   3.492   5.511
 8689TIP3    H226032   0.049   3.373   5.486
 8690TIP3   OH226033   0.250   4.915   4.167
 8690TIP3    H126034   0.204   4.975   4.108
 8690TIP3    H226035   0.275   4.971   4.241
 8691TIP3   OH226036   2.713   2.231   2.413
 8691TIP3    H126037   2.715   2.229   2.318
 8691TIP3    H226038   2.749   2.147   2.440
 8692TIP3   OH226039   5.945   2.642   2.022
 8692TIP3    H126040   5.954   2.625   2.116
 8692TIP3    H226041   5.972   2.734   2.012
 8693TIP3   OH226042   1.627   5.717   2.148
 8693TIP3    H126043   1.535   5.713   2.120
 8693TIP3    H226044   1.626   5.688   2.239
 8694TIP3   OH226045   5.654   5.129   5.630
 8694TIP3    H126046   5.652   5.036   5.607
 8694TIP3    H226047   5.569   5.162   5.602
 8695TIP3   OH226048   5.609   1.968   0.824
 8695TIP3    H126049   5.585   1.894   0.880
 8695TIP3    H226050   5.531   2.024   0.824
 8696TIP3   OH226051   6.115   0.527   0.875
 8696TIP3    H126052   6.051   0.583   0.830
 8696TIP3    H226053   6.200   0.562   0.850
 8697TIP3   OH226054   4.147   6.675   3.172
 8697TIP3    H126055   4.211   6.744   3.154
 8697TIP3    H226056   4.133   6.679   3.266
 8698TIP3   OH226057   1.262   2.535   2.695
 8698TIP3    H126058   1.184   2.589   2.704
 8698TIP3    H226059   1.234   2.446   2.719
 8699TIP3   OH226060   6.353   4.292   3.125
 8699TIP3    H126061   6.398   4.209   3.111
 8699TIP3    H226062   6.296   4.301   3.049
 8700TIP3   OH226063   2.754   5.094   1.754
 8700TIP3    H126064   2.765   5.172   1.699
 8700TIP3    H226065   2.667   5.104   1.792
 8701TIP3   OH226066   7.253   2.597   0.417
 8701TIP3    H126067   7.186   2.615   0.483
 8701TIP3    H226068   7.279   2.684   0.385
 8702TIP3   OH226069   5.898   5.119   0.225
 8702TIP3    H126070   5.953   5.095   0.150
 8702TIP3    H226071   5.959   5.154   0.289
 8703TIP3   OH226072   1.933   6.179   0.695
 8703TIP3    H126073   1.886   6.104   0.732
 8703TIP3    H226074   2.026   6.156   0.705
 8704TIP3   OH226075   4.121   4.842   1.952
 8704TIP3    H126076   4.124   4.919   2.008
 8704TIP3    H226077   4.043   4.794   1.980
 8705TIP3   OH226078   1.929   2.359   2.355
 8705TIP3    H126079   1.903   2.432   2.412
 8705TIP3    H226080   1.921   2.281   2.409
 8706TIP3   OH226081   0.539   3.010   1.508
 8706TIP3    H126082   0.577   3.054   1.432
 8706TIP3    H226083   0.447   2.998   1.486
 8707TIP3   OH226084   6.884   0.664   0.977
 8707TIP3    H126085   6.890   0.602   0.905
 8707TIP3    H226086   6.871   0.610   1.055
 8708TIP3   OH226087   5.956   5.502   1.122
 8708TIP3    H126088   5.958   5.429   1.060
 8708TIP3    H226089   5.873   5.490   1.169
 8709TIP3   OH226090   3.527   4.896   3.656
 8709TIP3    H126091   3.450   4.953   3.652
 8709TIP3    H226092   3.590   4.936   3.597
 8710TIP3   OH226093   2.402   6.242   3.128
 8710TIP3    H126094   2.414   6.184   3.204
 8710TIP3    H226095   2.387   6.183   3.055
 8711TIP3   OH226096   6.953   4.283   3.763
 8711TIP3    H126097   6.866   4.254   3.791
 8711TIP3    H226098   6.999   4.304   3.844
 8712TIP3   OH226099   2.591   3.690   0.566
 8712TIP3    H126100   2.627   3.772   0.533
 8712TIP3    H226101   2.505   3.682   0.525
 8713TIP3   OH226102   6.084   4.583   5.121
 8713TIP3    H126103   6.133   4.648   5.072
 8713TIP3    H226104   6.001   4.575   5.074
 8714TIP3   OH226105   0.176   3.688   0.771
 8714TIP3    H126106   0.173   3.597   0.744
 8714TIP3    H226107   0.246   3.727   0.718
 8715TIP3   OH226108   6.202   4.047   5.561
 8715TIP3    H126109   6.122   3.998   5.579
 8715TIP3    H226110   6.217   4.036   5.467
 8716TIP3   OH226111   2.876   2.555   4.511
 8716TIP3    H126112   2.949   2.559   4.573
 8716TIP3    H226113   2.817   2.625   4.538
 8717TIP3   OH226114   3.185   0.803   3.466
 8717TIP3    H126115   3.157   0.728   3.413
 8717TIP3    H226116   3.103   0.842   3.497
 8718TIP3   OH226117   4.537   0.870   1.728
 8718TIP3    H126118   4.497   0.840   1.647
 8718TIP3    H226119   4.548   0.790   1.780
 8719TIP3   OH226120   3.964   1.494   2.928
 8719TIP3    H126121   4.044   1.547   2.923
 8719TIP3    H226122   3.987   1.420   2.984
 8720TIP3   OH226123   5.373   0.364   2.059
 8720TIP3    H126124   5.295   0.310   2.048
 8720TIP3    H226125   5.446   0.306   2.038
 8721TIP3   OH226126   5.961   5.856   0.595
 8721TIP3    H126127   6.012   5.853   0.513
 8721TIP3    H226128   5.904   5.932   0.584
 8722TIP3   OH226129   4.062   0.844   2.973
 8722TIP3    H126130   3.976   0.806   2.992
 8722TIP3    H226131   4.083   0.898   3.049
 8723TIP3   OH226132   5.408   5.488   3.049
 8723TIP3    H126133   5.476   5.465   3.113
 8723TIP3    H226134   5.355   5.555   3.094
 8724TIP3   OH226135   2.264   2.516   3.589
 8724TIP3    H126136   2.219   2.475   3.515
 8724TIP3    H226137   2.331   2.572   3.548
 8725TIP3   OH226138   7.136   1.008   4.965
 8725TIP3    H126139   7.071   0.951   4.924
 8725TIP3    H226140   7.107   1.096   4.944
 8726TIP3   OH226141   0.318   6.575   5.786
 8726TIP3    H126142   0.307   6.665   5.756
 8726TIP3    H226143   0.409   6.555   5.767
 8727TIP3   OH226144   5.066   0.172   0.464
 8727TIP3    H126145   5.160   0.159   0.448
 8727TIP3    H226146   5.041   0.100   0.522
 8728TIP3   OH226147   0.120   5.892   3.637
 8728TIP3    H126148   0.164   5.807   3.636
 8728TIP3    H226149   0.040   5.876   3.687
 8729TIP3   OH226150   6.904   4.144   4.825
 8729TIP3    H126151   6.901   4.090   4.905
 8729TIP3    H226152   6.837   4.106   4.768
 8730TIP3   OH226153   4.498   4.060   4.473
 8730TIP3    H126154   4.404   4.039   4.477
 8730TIP3    H226155   4.542   3.978   4.497
 8731TIP3   OH226156   1.849   2.798   3.551
 8731TIP3    H126157   1.834   2.719   3.603
 8731TIP3    H226158   1.944   2.810   3.554
 8732TIP3   OH226159   3.268   4.822   3.018
 8732TIP3    H126160   3.284   4.907   2.977
 8732TIP3    H226161   3.303   4.759   2.955
 8733TIP3   OH226162   6.163   6.785   5.767
 8733TIP3    H126163   6.176   6.832   5.685
 8733TIP3    H226164   6.068   6.781   5.779
 8734TIP3   OH226165   5.778   0.293   1.155
 8734TIP3    H126166   5.764   0.297   1.061
 8734TIP3    H226167   5.704   0.340   1.193
 8735TIP3   OH226168   0.402   1.853   3.379
 8735TIP3    H126169   0.350   1.850   3.299
 8735TIP3    H226170   0.417   1.761   3.402
 8736TIP3   OH226171   3.991   1.566   5.230
 8736TIP3    H126172   4.026   1.624   5.162
 8736TIP3    H226173   3.931   1.508   5.183
 8737TIP3   OH226174   0.599   6.065   4.067
 8737TIP3    H126175   0.604   6.075   4.162
 8737TIP3    H226176   0.674   6.115   4.034
 8738TIP3   OH226177   5.004   3.571   3.247
 8738TIP3    H126178   5.049   3.602   3.326
 8738TIP3    H226179   5.068   3.584   3.176
 8739TIP3   OH226180   2.932   3.352   2.373
 8739TIP3    H126181   2.879   3.313   2.441
 8739TIP3    H226182   2.872   3.410   2.326
 8740TIP3   OH226183   4.812   1.327   2.213
 8740TIP3    H126184   4.781   1.282   2.134
 8740TIP3    H226185   4.835   1.415   2.184
 8741TIP3   OH226186   3.773   1.971   2.827
 8741TIP3    H126187   3.813   1.979   2.913
 8741TIP3    H226188   3.679   1.983   2.843
 8742TIP3   OH226189   6.351   3.562   2.903
 8742TIP3    H126190   6.302   3.588   2.825
 8742TIP3    H226191   6.301   3.489   2.940
 8743TIP3   OH226192   5.104   2.502   2.681
 8743TIP3    H126193   5.158   2.560   2.627
 8743TIP3    H226194   5.076   2.556   2.754
 8744TIP3   OH226195   2.135   4.099   5.007
 8744TIP3    H126196   2.151   4.138   5.093
 8744TIP3    H226197   2.212   4.044   4.991
 8745TIP3   OH226198   3.960   4.263   1.390
 8745TIP3    H126199   4.045   4.260   1.347
 8745TIP3    H226200   3.900   4.296   1.322
 8746TIP3   OH226201   6.543   4.262   2.062
 8746TIP3    H126202   6.611   4.240   2.125
 8746TIP3    H226203   6.461   4.254   2.111
 8747TIP3   OH226204   5.091   1.076   3.300
 8747TIP3    H126205   5.037   0.998   3.292
 8747TIP3    H226206   5.153   1.071   3.227
 8748TIP3   OH226207   4.037   1.065   1.020
 8748TIP3    H126208   3.999   1.133   0.965
 8748TIP3    H226209   4.050   1.107   1.105
 8749TIP3   OH226210   5.493   0.558   3.522
 8749TIP3    H126211   5.500   0.471   3.561
 8749TIP3    H226212   5.567   0.564   3.462
 8750TIP3   OH226213   4.563   0.452   2.254
 8750TIP3    H126214   4.538   0.390   2.323
 8750TIP3    H226215   4.639   0.413   2.213
 8751TIP3   OH226216   1.529   0.935   1.104
 8751TIP3    H126217   1.588   0.994   1.057
 8751TIP3    H226218   1.586   0.888   1.165
 8752TIP3   OH226219   5.482   0.248   1.088
 8752TIP3    H126220   5.394   0.278   1.110
 8752TIP3    H226221   5.521   0.225   1.173
 8753TIP3   OH226222   1.893   6.417   2.258
 8753TIP3    H126223   1.888   6.463   2.342
 8753TIP3    H226224   1.976   6.444   2.220
 8754TIP3   OH226225   2.165   1.092   4.127
 8754TIP3    H126226   2.112   1.146   4.185
 8754TIP3    H226227   2.244   1.073   4.177
 8755TIP3   OH226228   4.028   2.366   1.426
 8755TIP3    H126229   4.096   2.431   1.444
 8755TIP3    H226230   4.060   2.286   1.468
 8756TIP3   OH226231   3.946   2.676   2.161
 8756TIP3    H126232   3.919   2.704   2.248
 8756TIP3    H226233   3.978   2.755   2.119
 8757TIP3   OH226234   4.425   5.446   1.088
 8757TIP3    H126235   4.401   5.374   1.029
 8757TIP3    H226236   4.474   5.507   1.033
 8758TIP3   OH226237   3.806   5.545   5.497
 8758TIP3    H126238   3.780   5.620   5.549
 8758TIP3    H226239   3.727   5.491   5.491
 8759TIP3   OH226240   4.017   2.232   2.134
 8759TIP3    H126241   4.077   2.158   2.140
 8759TIP3    H226242   3.934   2.194   2.107
 8760TIP3   OH226243   7.205   1.055   3.297
 8760TIP3    H126244   7.198   1.075   3.391
 8760TIP3    H226245   7.122   1.014   3.275
 8761TIP3   OH226246   1.816   5.865   4.756
 8761TIP3    H126247   1.729   5.868   4.717
 8761TIP3    H226248   1.809   5.914   4.838
 8762TIP3   OH226249   6.224   3.957   1.688
 8762TIP3    H126250   6.200   4.029   1.746
 8762TIP3    H226251   6.147   3.900   1.686
 8763TIP3   OH226252   3.154   0.276   5.635
 8763TIP3    H126253   3.246   0.297   5.651
 8763TIP3    H226254   3.153   0.182   5.620
 8764TIP3   OH226255   1.395   3.057   3.544
 8764TIP3    H126256   1.392   3.097   3.631
 8764TIP3    H226257   1.354   3.122   3.487
 8765TIP3   OH226258   0.570   2.336   5.265
 8765TIP3    H126259   0.520   2.255   5.258
 8765TIP3    H226260   0.659   2.311   5.239
 8766TIP3   OH226261   4.362   0.977   5.907
 8766TIP3    H126262   4.292   0.982   5.842
 8766TIP3    H226263   4.435   0.935   5.862
 8767TIP3   OH226264   3.090   5.561   1.851
 8767TIP3    H126265   3.137   5.597   1.775
 8767TIP3    H226266   2.998   5.576   1.830
 8768TIP3   OH226267   0.384   3.997   2.576
 8768TIP3    H126268   0.351   3.950   2.499
 8768TIP3    H226269   0.314   4.057   2.600
 8769TIP3   OH226270   2.545   1.049  -0.027
 8769TIP3    H126271   2.487   1.070   0.046
 8769TIP3    H226272   2.486   1.032  -0.100
 8770TIP3   OH226273   5.469   0.262   4.405
 8770TIP3    H126274   5.469   0.304   4.319
 8770TIP3    H226275   5.555   0.221   4.411
 8771TIP3   OH226276   3.114   5.745   4.749
 8771TIP3    H126277   3.200   5.717   4.719
 8771TIP3    H226278   3.119   5.841   4.748
 8772TIP3   OH226279   0.707   5.733   2.739
 8772TIP3    H126280   0.646   5.699   2.804
 8772TIP3    H226281   0.723   5.824   2.766
 8773TIP3   OH226282   5.202   6.111   4.315
 8773TIP3    H126283   5.251   6.031   4.331
 8773TIP3    H226284   5.256   6.161   4.254
 8774TIP3   OH226285   2.629   4.269   3.314
 8774TIP3    H126286   2.637   4.364   3.303
 8774TIP3    H226287   2.598   4.238   3.229
 8775TIP3   OH226288   4.450   2.176   1.553
 8775TIP3    H126289   4.399   2.114   1.605
 8775TIP3    H226290   4.542   2.153   1.572
 8776TIP3   OH226291   4.294   2.458   2.170
 8776TIP3    H126292   4.370   2.421   2.215
 8776TIP3    H226293   4.278   2.398   2.096
 8777TIP3   OH226294   0.818   4.216   2.782
 8777TIP3    H126295   0.899   4.209   2.733
 8777TIP3    H226296   0.844   4.212   2.874
 8778TIP3   OH226297   2.230   4.230   3.752
 8778TIP3    H126298   2.294   4.277   3.806
 8778TIP3    H226299   2.150   4.232   3.804
 8779TIP3   OH226300   5.511   1.529   3.142
 8779TIP3    H126301   5.533   1.468   3.212
 8779TIP3    H226302   5.476   1.606   3.187
 8780TIP3   OH226303   1.110   4.828   4.665
 8780TIP3    H126304   1.065   4.786   4.738
 8780TIP3    H226305   1.176   4.883   4.706
 8781TIP3   OH226306   1.603   4.095   1.343
 8781TIP3    H126307   1.597   4.190   1.334
 8781TIP3    H226308   1.625   4.064   1.256
 8782TIP3   OH226309   3.600   1.133   3.686
 8782TIP3    H126310   3.572   1.222   3.663
 8782TIP3    H226311   3.519   1.089   3.714
 8783TIP3   OH226312   0.543   5.068   4.100
 8783TIP3    H126313   0.470   5.007   4.087
 8783TIP3    H226314   0.592   5.031   4.174
 8784TIP3   OH226315   1.685   6.415   0.371
 8784TIP3    H126316   1.626   6.373   0.435
 8784TIP3    H226317   1.643   6.498   0.351
 8785TIP3   OH226318   6.583   5.312   2.675
 8785TIP3    H126319   6.534   5.230   2.672
 8785TIP3    H226320   6.523   5.374   2.716
 8786TIP3   OH226321   2.160   0.017   5.767
 8786TIP3    H126322   2.254   0.002   5.754
 8786TIP3    H226323   2.118  -0.038   5.701
 8787TIP3   OH226324   3.463   5.212   0.800
 8787TIP3    H126325   3.498   5.124   0.793
 8787TIP3    H226326   3.368   5.201   0.805
 8788TIP3   OH226327   4.882   1.307   4.444
 8788TIP3    H126328   4.804   1.289   4.496
 8788TIP3    H226329   4.955   1.289   4.502
 8789TIP3   OH226330   6.384   0.660   1.466
 8789TIP3    H126331   6.398   0.682   1.374
 8789TIP3    H226332   6.298   0.698   1.486
 8790TIP3   OH226333   5.356   6.447   4.574
 8790TIP3    H126334   5.329   6.514   4.638
 8790TIP3    H226335   5.354   6.492   4.490
 8791TIP3   OH226336   1.220   2.269   2.722
 8791TIP3    H126337   1.140   2.256   2.671
 8791TIP3    H226338   1.247   2.180   2.749
 8792TIP3   OH226339   0.473   2.345   3.857
 8792TIP3    H126340   0.523   2.406   3.911
 8792TIP3    H226341   0.494   2.259   3.893
 8793TIP3   OH226342   5.275   2.784   3.825
 8793TIP3    H126343   5.357   2.753   3.787
 8793TIP3    H226344   5.230   2.705   3.854
 8794TIP3   OH226345   1.100   3.352   4.579
 8794TIP3    H126346   1.050   3.407   4.638
 8794TIP3    H226347   1.130   3.279   4.633
 8795TIP3   OH226348   1.988   0.907   4.394
 8795TIP3    H126349   1.916   0.846   4.377
 8795TIP3    H226350   1.956   0.964   4.464
 8796TIP3   OH226351   4.665   5.177   4.386
 8796TIP3    H126352   4.655   5.151   4.294
 8796TIP3    H226353   4.592   5.134   4.431
 8797TIP3   OH226354   2.087   3.601   3.882
 8797TIP3    H126355   2.055   3.512   3.870
 8797TIP3    H226356   2.094   3.637   3.794
 8798TIP3   OH226357   0.991   4.283   5.222
 8798TIP3    H126358   1.050   4.357   5.241
 8798TIP3    H226359   0.907   4.324   5.202
 8799TIP3   OH226360   5.735   6.703   5.435
 8799TIP3    H126361   5.708   6.718   5.526
 8799TIP3    H226362   5.819   6.657   5.443
 8800TIP3   OH226363   0.955   6.152   1.820
 8800TIP3    H126364   0.964   6.131   1.727
 8800TIP3    H226365   0.874   6.108   1.847
 8801TIP3   OH226366   3.487   1.692   2.952
 8801TIP3    H126367   3.416   1.682   2.888
 8801TIP3    H226368   3.565   1.708   2.898
 8802TIP3   OH226369   4.022   0.199   3.100
 8802TIP3    H126370   4.004   0.149   3.179
 8802TIP3    H226371   3.944   0.186   3.046
 8803TIP3   OH226372   1.202   0.498   4.521
 8803TIP3    H126373   1.216   0.421   4.576
 8803TIP3    H226374   1.111   0.523   4.538
 8804TIP3   OH226375   0.177   3.986   2.764
 8804TIP3    H126376   0.164   3.954   2.854
 8804TIP3    H226377   0.255   3.939   2.734
 8805TIP3   OH226378   6.473   5.465   5.502
 8805TIP3    H126379   6.502   5.524   5.572
 8805TIP3    H226380   6.393   5.505   5.468
 8806TIP3   OH226381   1.174   6.202   2.331
 8806TIP3    H126382   1.256   6.198   2.282
 8806TIP3    H226383   1.108   6.223   2.265
 8807TIP3   OH226384   1.062   3.638   3.164
 8807TIP3    H126385   1.101   3.610   3.246
 8807TIP3    H226386   1.037   3.556   3.120
 8808TIP3   OH226387   4.365   0.264   3.586
 8808TIP3    H126388   4.336   0.354   3.575
 8808TIP3    H226389   4.403   0.261   3.673
 8809TIP3   OH226390   4.253   6.786   0.705
 8809TIP3    H126391   4.274   6.718   0.770
 8809TIP3    H226392   4.176   6.752   0.659
 8810TIP3   OH226393   4.043   0.228   3.496
 8810TIP3    H126394   4.012   0.192   3.412
 8810TIP3    H226395   4.137   0.239   3.484
 8811TIP3   OH226396   5.167   2.761   1.463
 8811TIP3    H126397   5.243   2.704   1.456
 8811TIP3    H226398   5.092   2.702   1.467
 8812TIP3   OH226399   3.717   4.026   2.863
 8812TIP3    H126400   3.704   3.935   2.836
 8812TIP3    H226401   3.675   4.031   2.949
 8813TIP3   OH226402   1.653   3.210   1.874
 8813TIP3    H126403   1.681   3.149   1.942
 8813TIP3    H226404   1.642   3.154   1.796
 8814TIP3   OH226405   6.046   2.382   4.460
 8814TIP3    H126406   6.010   2.470   4.448
 8814TIP3    H226407   5.991   2.343   4.528
 8815TIP3   OH226408   2.610   6.023   4.748
 8815TIP3    H126409   2.676   5.962   4.781
 8815TIP3    H226410   2.566   6.056   4.826
 8816TIP3   OH226411   3.156   1.153   2.702
 8816TIP3    H126412   3.117   1.225   2.653
 8816TIP3    H226413   3.225   1.119   2.645
 8817TIP3   OH226414   3.344   0.053   0.734
 8817TIP3    H126415   3.276   0.119   0.748
 8817TIP3    H226416   3.324   0.017   0.647
 8818TIP3   OH226417   0.349   5.570   1.716
 8818TIP3    H126418   0.394   5.525   1.644
 8818TIP3    H226419   0.384   5.529   1.795
 8819TIP3   OH226420   5.330   5.941   1.339
 8819TIP3    H126421   5.416   5.897   1.340
 8819TIP3    H226422   5.315   5.961   1.246
 8820TIP3   OH226423   6.104   5.670   3.963
 8820TIP3    H126424   6.106   5.621   3.880
 8820TIP3    H226425   6.113   5.603   4.031
 8821TIP3   OH226426   1.477   0.756   2.095
 8821TIP3    H126427   1.516   0.840   2.120
 8821TIP3    H226428   1.529   0.691   2.141
 8822TIP3   OH226429   5.292   0.563   1.814
 8822TIP3    H126430   5.345   0.517   1.879
 8822TIP3    H226431   5.353   0.583   1.743
 8823TIP3   OH226432   2.294   3.211   4.133
 8823TIP3    H126433   2.276   3.300   4.103
 8823TIP3    H226434   2.230   3.196   4.203
 8824TIP3   OH226435   1.961   5.587   5.510
 8824TIP3    H126436   2.000   5.508   5.549
 8824TIP3    H226437   1.938   5.561   5.421
 8825TIP3   OH226438   2.373   5.464   5.361
 8825TIP3    H126439   2.438   5.394   5.357
 8825TIP3    H226440   2.381   5.499   5.450
 8826TIP3   OH226441   6.666   5.786   0.619
 8826TIP3    H126442   6.728   5.858   0.608
 8826TIP3    H226443   6.593   5.809   0.561
 8827TIP3   OH226444   3.512   2.288   2.035
 8827TIP3    H126445   3.603   2.314   2.023
 8827TIP3    H226446   3.493   2.231   1.960
 8828TIP3   OH226447   6.972   2.799   4.791
 8828TIP3    H126448   7.001   2.740   4.861
 8828TIP3    H226449   6.894   2.842   4.827
 8829TIP3   OH226450   0.051   6.592   5.210
 8829TIP3    H126451   0.124   6.554   5.259
 8829TIP3    H226452  -0.025   6.583   5.268
 8830TIP3   OH226453   6.443   5.191   2.025
 8830TIP3    H126454   6.498   5.248   1.971
 8830TIP3    H226455   6.369   5.247   2.051
 8831TIP3   OH226456   2.424   6.609   3.338
 8831TIP3    H126457   2.357   6.551   3.301
 8831TIP3    H226458   2.486   6.624   3.266
 8832TIP3   OH226459   0.743   3.880   5.777
 8832TIP3    H126460   0.712   3.965   5.744
 8832TIP3    H226461   0.827   3.900   5.819
 8833TIP3   OH226462   6.442   4.335   3.384
 8833TIP3    H126463   6.471   4.425   3.398
 8833TIP3    H226464   6.420   4.331   3.291
 8834TIP3   OH226465   3.172   6.214   3.264
 8834TIP3    H126466   3.262   6.235   3.290
 8834TIP3    H226467   3.118   6.278   3.309
 8835TIP3   OH226468   3.633   5.572   1.445
 8835TIP3    H126469   3.621   5.611   1.358
 8835TIP3    H226470   3.720   5.533   1.442
 8836TIP3   OH226471   6.065   3.677   5.370
 8836TIP3    H126472   5.998   3.702   5.433
 8836TIP3    H226473   6.144   3.663   5.423
 8837TIP3   OH226474   3.169   5.527   5.562
 8837TIP3    H126475   3.180   5.468   5.488
 8837TIP3    H226476   3.076   5.520   5.585
 8838TIP3   OH226477   2.618   5.256   5.062
 8838TIP3    H126478   2.685   5.231   4.998
 8838TIP3    H226479   2.608   5.350   5.050
 8839TIP3   OH226480   5.212   1.114   5.649
 8839TIP3    H126481   5.286   1.168   5.621
 8839TIP3    H226482   5.236   1.085   5.737
 8840TIP3   OH226483   3.079   0.791   4.354
 8840TIP3    H126484   3.148   0.808   4.418
 8840TIP3    H226485   3.072   0.874   4.305
 8841TIP3   OH226486   0.230   2.547   5.654
 8841TIP3    H126487   0.148   2.584   5.618
 8841TIP3    H226488   0.262   2.489   5.585
 8842TIP3   OH226489   3.643   6.590   3.313
 8842TIP3    H126490   3.577   6.544   3.261
 8842TIP3    H226491   3.662   6.669   3.263
 8843TIP3   OH226492   2.626   2.600   0.110
 8843TIP3    H126493   2.697   2.599   0.173
 8843TIP3    H226494   2.662   2.645   0.034
 8844TIP3   OH226495   5.421   2.342   2.524
 8844TIP3    H126496   5.465   2.265   2.488
 8844TIP3    H226497   5.451   2.347   2.614
 8845TIP3   OH226498   2.626  -0.017   4.280
 8845TIP3    H126499   2.612   0.077   4.268
 8845TIP3    H226500   2.542  -0.049   4.315
 8846TIP3   OH226501   6.316   3.570   2.626
 8846TIP3    H126502   6.390   3.631   2.616
 8846TIP3    H226503   6.328   3.506   2.556
 8847TIP3   OH226504   4.892   4.679   2.317
 8847TIP3    H126505   4.983   4.651   2.319
 8847TIP3    H226506   4.884   4.742   2.388
 8848TIP3   OH226507   4.832   2.931   3.449
 8848TIP3    H126508   4.841   2.897   3.360
 8848TIP3    H226509   4.905   2.992   3.460
 8849TIP3   OH226510   4.035   1.314   4.382
 8849TIP3    H126511   4.035   1.228   4.423
 8849TIP3    H226512   4.116   1.355   4.412
 8850TIP3   OH226513   6.369   4.206   0.127
 8850TIP3    H126514   6.412   4.291   0.136
 8850TIP3    H226515   6.420   4.161   0.059
 8851TIP3   OH226516   1.054   3.734   5.820
 8851TIP3    H126517   1.078   3.722   5.911
 8851TIP3    H226518   0.976   3.680   5.808
 8852TIP3   OH226519   6.619   2.492   3.374
 8852TIP3    H126520   6.629   2.578   3.414
 8852TIP3    H226521   6.646   2.430   3.442
 8853TIP3   OH226522   2.205   0.623   2.883
 8853TIP3    H126523   2.114   0.624   2.853
 8853TIP3    H226524   2.232   0.531   2.877
 8854TIP3   OH226525   1.426   5.009   1.484
 8854TIP3    H126526   1.510   5.042   1.518
 8854TIP3    H226527   1.382   4.974   1.562
 8855TIP3   OH226528   4.447   1.900   4.878
 8855TIP3    H126529   4.372   1.931   4.827
 8855TIP3    H226530   4.408   1.847   4.948
 8856TIP3   OH226531   1.725   4.442   5.384
 8856TIP3    H126532   1.718   4.439   5.479
 8856TIP3    H226533   1.768   4.526   5.366
 8857TIP3   OH226534   5.633   2.851   0.875
 8857TIP3    H126535   5.695   2.873   0.806
 8857TIP3    H226536   5.563   2.915   0.866
 8858TIP3   OH226537   2.299   3.744   2.367
 8858TIP3    H126538   2.289   3.811   2.434
 8858TIP3    H226539   2.250   3.669   2.400
 8859TIP3   OH226540   2.956   2.701   3.962
 8859TIP3    H126541   2.926   2.611   3.973
 8859TIP3    H226542   2.882   2.756   3.990
 8860TIP3   OH226543   3.037   1.133   2.978
 8860TIP3    H126544   2.964   1.074   2.960
 8860TIP3    H226545   3.094   1.125   2.902
 8861TIP3   OH226546   1.693   0.397   4.378
 8861TIP3    H126547   1.627   0.330   4.396
 8861TIP3    H226548   1.644   0.479   4.371
 8862TIP3   OH226549   3.781   3.350   2.705
 8862TIP3    H126550   3.850   3.412   2.727
 8862TIP3    H226551   3.721   3.398   2.648
 8863TIP3   OH226552   6.755   3.147   4.684
 8863TIP3    H126553   6.707   3.075   4.723
 8863TIP3    H226554   6.731   3.146   4.591
 8864TIP3   OH226555   6.277   4.864   5.330
 8864TIP3    H126556   6.202   4.904   5.374
 8864TIP3    H226557   6.320   4.812   5.398
 8865TIP3   OH226558  -0.023   5.720   2.034
 8865TIP3    H126559   0.056   5.727   1.980
 8865TIP3    H226560  -0.083   5.668   1.982
 8866TIP3   OH226561   3.241   4.909   4.826
 8866TIP3    H126562   3.167   4.911   4.765
 8866TIP3    H226563   3.306   4.967   4.787
 8867TIP3   OH226564   4.266   1.724   3.639
 8867TIP3    H126565   4.305   1.716   3.552
 8867TIP3    H226566   4.285   1.639   3.680
 8868TIP3   OH226567   1.695   3.891   5.202
 8868TIP3    H126568   1.751   3.967   5.183
 8868TIP3    H226569   1.609   3.929   5.218
 8869TIP3   OH226570   5.337   1.662   3.849
 8869TIP3    H126571   5.322   1.568   3.849
 8869TIP3    H226572   5.295   1.693   3.769
 8870TIP3   OH226573   4.591   5.037   1.926
 8870TIP3    H126574   4.532   4.977   1.972
 8870TIP3    H226575   4.546   5.057   1.843
 8871TIP3   OH226576   3.731   2.998   2.896
 8871TIP3    H126577   3.672   3.073   2.902
 8871TIP3    H226578   3.771   2.991   2.983
 8872TIP3   OH226579   6.927   4.163   4.088
 8872TIP3    H126580   7.000   4.223   4.075
 8872TIP3    H226581   6.856   4.218   4.120
 8873TIP3   OH226582   1.625   2.951   3.664
 8873TIP3    H126583   1.568   2.966   3.588
 8873TIP3    H226584   1.703   2.909   3.628
 8874TIP3   OH226585   4.365   2.169   3.070
 8874TIP3    H126586   4.366   2.247   3.014
 8874TIP3    H226587   4.382   2.203   3.158
 8875TIP3   OH226588   0.957   0.556   4.624
 8875TIP3    H126589   0.911   0.472   4.621
 8875TIP3    H226590   0.887   0.621   4.628
 8876TIP3   OH226591   1.633   4.120   2.755
 8876TIP3    H126592   1.679   4.198   2.725
 8876TIP3    H226593   1.601   4.079   2.675
 8877TIP3   OH226594   2.458   6.318   0.363
 8877TIP3    H126595   2.448   6.239   0.309
 8877TIP3    H226596   2.412   6.386   0.315
 8878TIP3   OH226597   4.717   5.489   0.776
 8878TIP3    H126598   4.689   5.533   0.855
 8878TIP3    H226599   4.746   5.560   0.718
 8879TIP3   OH226600   1.065   3.048   5.535
 8879TIP3    H126601   1.131   2.994   5.492
 8879TIP3    H226602   1.074   3.134   5.495
 8880TIP3   OH226603   5.229   2.307   3.950
 8880TIP3    H126604   5.200   2.396   3.932
 8880TIP3    H226605   5.310   2.297   3.900
 8881TIP3   OH226606   5.912   4.140   3.817
 8881TIP3    H126607   6.005   4.141   3.837
 8881TIP3    H226608   5.908   4.140   3.721
 8882TIP3   OH226609   3.815   1.390   4.491
 8882TIP3    H126610   3.903   1.385   4.454
 8882TIP3    H226611   3.811   1.316   4.552
 8883TIP3   OH226612   6.102   5.147   2.294
 8883TIP3    H126613   6.024   5.189   2.257
 8883TIP3    H226614   6.140   5.099   2.221
 8884TIP3   OH226615   6.141   6.554   1.825
 8884TIP3    H126616   6.089   6.590   1.752
 8884TIP3    H226617   6.076   6.537   1.894
 8885TIP3   OH226618   6.327   6.236   1.993
 8885TIP3    H126619   6.272   6.266   1.920
 8885TIP3    H226620   6.410   6.283   1.982
 8886TIP3   OH226621   2.422   5.763   5.200
 8886TIP3    H126622   2.330   5.786   5.192
 8886TIP3    H226623   2.425   5.669   5.181
 8887TIP3   OH226624   5.577   1.545   4.379
 8887TIP3    H126625   5.647   1.551   4.444
 8887TIP3    H226626   5.543   1.634   4.373
 8888TIP3   OH226627   3.981   3.222   2.146
 8888TIP3    H126628   3.972   3.143   2.093
 8888TIP3    H226629   4.054   3.269   2.108
 8889TIP3   OH226630   1.970   6.347   3.516
 8889TIP3    H126631   1.949   6.272   3.572
 8889TIP3    H226632   2.065   6.343   3.505
 8890TIP3   OH226633   3.628   5.065   4.227
 8890TIP3    H126634   3.640   5.050   4.133
 8890TIP3    H226635   3.590   4.983   4.260
 8891TIP3   OH226636   5.842   4.367   2.144
 8891TIP3    H126637   5.764   4.321   2.175
 8891TIP3    H226638   5.811   4.424   2.074
 8892TIP3   OH226639   2.956   0.831   0.135
 8892TIP3    H126640   2.884   0.870   0.085
 8892TIP3    H226641   2.918   0.815   0.222
 8893TIP3   OH226642   3.601   0.662   0.693
 8893TIP3    H126643   3.518   0.620   0.718
 8893TIP3    H226644   3.587   0.754   0.712
 8894TIP3   OH226645   1.192   4.780   2.682
 8894TIP3    H126646   1.127   4.739   2.739
 8894TIP3    H226647   1.209   4.865   2.721
 8895TIP3   OH226648   2.185   6.472   1.331
 8895TIP3    H126649   2.237   6.416   1.389
 8895TIP3    H226650   2.170   6.419   1.253
 8896TIP3   OH226651   6.312   6.060   3.169
 8896TIP3    H126652   6.261   5.992   3.126
 8896TIP3    H226653   6.255   6.137   3.169
 8897TIP3   OH226654   7.110   1.749   2.383
 8897TIP3    H126655   7.076   1.697   2.457
 8897TIP3    H226656   7.123   1.836   2.420
 8898TIP3   OH226657   3.353   5.339   4.781
 8898TIP3    H126658   3.372   5.357   4.873
 8898TIP3    H226659   3.361   5.244   4.773
 8899TIP3   OH226660   1.453   4.071   1.600
 8899TIP3    H126661   1.498   4.089   1.518
 8899TIP3    H226662   1.413   4.154   1.625
 8900TIP3   OH226663   6.774   6.552   4.233
 8900TIP3    H126664   6.707   6.609   4.197
 8900TIP3    H226665   6.837   6.540   4.162
 8901TIP3   OH226666   3.747   6.104   0.274
 8901TIP3    H126667   3.721   6.028   0.222
 8901TIP3    H226668   3.826   6.075   0.320
 8902TIP3   OH226669   4.308   5.646   2.270
 8902TIP3    H126670   4.251   5.648   2.193
 8902TIP3    H226671   4.275   5.574   2.323
 8903TIP3   OH226672   2.264   2.665   1.044
 8903TIP3    H126673   2.220   2.643   1.126
 8903TIP3    H226674   2.202   2.639   0.975
 8904TIP3   OH226675   4.898   1.197   4.200
 8904TIP3    H126676   4.949   1.266   4.156
 8904TIP3    H226677   4.886   1.229   4.289
 8905TIP3   OH226678   5.489   5.637   0.618
 8905TIP3    H126679   5.549   5.576   0.662
 8905TIP3    H226680   5.442   5.681   0.689
 8906TIP3   OH226681   6.986   2.601   1.604
 8906TIP3    H126682   7.038   2.570   1.678
 8906TIP3    H226683   6.943   2.522   1.570
 8907TIP3   OH226684   3.611   1.683   4.241
 8907TIP3    H126685   3.517   1.684   4.259
 8907TIP3    H226686   3.630   1.770   4.208
 8908TIP3   OH226687   4.908   5.946   0.491
 8908TIP3    H126688   4.931   6.038   0.478
 8908TIP3    H226689   4.816   5.941   0.465
 8909TIP3   OH226690   2.660   6.369   3.140
 8909TIP3    H126691   2.571   6.351   3.110
 8909TIP3    H226692   2.666   6.325   3.225
 8910TIP3   OH226693   2.571   1.104   1.267
 8910TIP3    H126694   2.503   1.065   1.211
 8910TIP3    H226695   2.525   1.132   1.345
 8911TIP3   OH226696   1.514   0.468   3.593
 8911TIP3    H126697   1.466   0.414   3.657
 8911TIP3    H226698   1.475   0.445   3.509
 8912TIP3   OH226699   2.254   5.635   3.137
 8912TIP3    H126700   2.214   5.584   3.207
 8912TIP3    H226701   2.341   5.657   3.170
 8913TIP3   OH226702   0.982   6.278   5.114
 8913TIP3    H126703   0.899   6.234   5.094
 8913TIP3    H226704   1.046   6.207   5.123
 8914TIP3   OH226705   6.007   1.462   4.033
 8914TIP3    H126706   6.018   1.533   4.096
 8914TIP3    H226707   5.986   1.385   4.086
 8915TIP3   OH226708   6.620   5.567   5.715
 8915TIP3    H126709   6.704   5.523   5.729
 8915TIP3    H226710   6.644   5.653   5.680
 8916TIP3   OH226711   0.671   3.057   4.531
 8916TIP3    H126712   0.633   3.025   4.449
 8916TIP3    H226713   0.736   3.122   4.503
 8917TIP3   OH226714   0.066   3.274   2.355
 8917TIP3    H126715   0.086   3.219   2.279
 8917TIP3    H226716   0.019   3.215   2.414
 8918TIP3   OH226717   5.226   5.945   2.822
 8918TIP3    H126718   5.264   6.003   2.756
 8918TIP3    H226719   5.161   5.894   2.774
 8919TIP3   OH226720   5.688   6.383   3.042
 8919TIP3    H126721   5.635   6.387   2.962
 8919TIP3    H226722   5.750   6.455   3.034
 8920TIP3   OH226723   7.089   5.035   1.822
 8920TIP3    H126724   7.102   5.088   1.743
 8920TIP3    H226725   7.158   4.969   1.818
 8921TIP3   OH226726   5.816   5.084   2.074
 8921TIP3    H126727   5.815   5.134   2.156
 8921TIP3    H226728   5.804   5.151   2.006
 8922TIP3   OH226729   1.027   3.935   0.141
 8922TIP3    H126730   0.949   3.880   0.142
 8922TIP3    H226731   1.099   3.872   0.130
 8923TIP3   OH226732   3.177   4.133   1.963
 8923TIP3    H126733   3.090   4.168   1.986
 8923TIP3    H226734   3.166   4.096   1.876
 8924TIP3   OH226735   3.935   6.218   4.769
 8924TIP3    H126736   3.931   6.294   4.711
 8924TIP3    H226737   3.947   6.256   4.857
 8925TIP3   OH226738   2.292   3.674   1.180
 8925TIP3    H126739   2.358   3.619   1.137
 8925TIP3    H226740   2.268   3.625   1.259
 8926TIP3   OH226741   5.716   2.084   1.190
 8926TIP3    H126742   5.764   2.079   1.273
 8926TIP3    H226743   5.721   1.996   1.153
 8927TIP3   OH226744   3.926   2.227   4.600
 8927TIP3    H126745   3.865   2.180   4.542
 8927TIP3    H226746   3.905   2.319   4.587
 8928TIP3   OH226747   6.051   3.069   0.607
 8928TIP3    H126748   6.093   3.145   0.568
 8928TIP3    H226749   6.087   2.994   0.560
 8929TIP3   OH226750   1.107   3.877   2.901
 8929TIP3    H126751   1.127   3.962   2.940
 8929TIP3    H226752   1.053   3.833   2.966
 8930TIP3   OH226753   4.577   6.699   5.277
 8930TIP3    H126754   4.589   6.672   5.368
 8930TIP3    H226755   4.578   6.617   5.228
 8931TIP3   OH226756   5.663   3.049   1.824
 8931TIP3    H126757   5.604   2.978   1.850
 8931TIP3    H226758   5.641   3.066   1.732
 8932TIP3   OH226759   6.039   0.437   2.554
 8932TIP3    H126760   6.009   0.516   2.599
 8932TIP3    H226761   6.016   0.366   2.613
 8933TIP3   OH226762   5.488   5.559   3.876
 8933TIP3    H126763   5.410   5.588   3.828
 8933TIP3    H226764   5.550   5.535   3.808
 8934TIP3   OH226765   3.615   1.831   5.585
 8934TIP3    H126766   3.613   1.777   5.664
 8934TIP3    H226767   3.639   1.771   5.515
 8935TIP3   OH226768   6.877   1.655   4.228
 8935TIP3    H126769   6.919   1.646   4.143
 8935TIP3    H226770   6.788   1.621   4.215
 8936TIP3   OH226771   1.548   2.400   5.471
 8936TIP3    H126772   1.488   2.404   5.397
 8936TIP3    H226773   1.606   2.326   5.451
 8937TIP3   OH226774   1.288   0.415   0.378
 8937TIP3    H126775   1.322   0.465   0.453
 8937TIP3    H226776   1.194   0.410   0.394
 8938TIP3   OH226777   2.972   3.343   4.270
 8938TIP3    H126778   2.965   3.266   4.327
 8938TIP3    H226779   3.051   3.327   4.218
 8939TIP3   OH226780   0.286   5.791   4.599
 8939TIP3    H126781   0.345   5.791   4.524
 8939TIP3    H226782   0.221   5.858   4.578
 8940TIP3   OH226783   4.087   6.160   0.939
 8940TIP3    H126784   4.074   6.220   1.012
 8940TIP3    H226785   4.156   6.101   0.969
 8941TIP3   OH226786   2.830   2.662   2.668
 8941TIP3    H126787   2.741   2.627   2.660
 8941TIP3    H226788   2.830   2.741   2.614
 8942TIP3   OH226789   0.360   5.203   0.105
 8942TIP3    H126790   0.446   5.243   0.119
 8942TIP3    H226791   0.301   5.254   0.160
 8943TIP3   OH226792   3.132   2.970   5.442
 8943TIP3    H126793   3.124   2.897   5.503
 8943TIP3    H226794   3.043   2.983   5.408
 8944TIP3   OH226795   0.113   3.924   2.165
 8944TIP3    H126796   0.104   3.869   2.087
 8944TIP3    H226797   0.027   3.922   2.207
 8945TIP3   OH226798   4.394   3.515   2.772
 8945TIP3    H126799   4.482   3.535   2.739
 8945TIP3    H226800   4.408   3.445   2.835
 8946TIP3   OH226801   1.681   2.558   4.693
 8946TIP3    H126802   1.622   2.566   4.618
 8946TIP3    H226803   1.624   2.564   4.770
 8947TIP3   OH226804   0.241   2.336   1.133
 8947TIP3    H126805   0.320   2.309   1.087
 8947TIP3    H226806   0.252   2.430   1.148
 8948TIP3   OH226807   3.865   5.455   1.803
 8948TIP3    H126808   3.840   5.366   1.779
 8948TIP3    H226809   3.944   5.473   1.751
 8949TIP3   OH226810   4.140   5.053   4.397
 8949TIP3    H126811   4.063   5.001   4.419
 8949TIP3    H226812   4.123   5.139   4.436
 8950TIP3   OH226813   3.526   3.275   1.550
 8950TIP3    H126814   3.578   3.276   1.470
 8950TIP3    H226815   3.538   3.362   1.589
 8951TIP3   OH226816   0.871   3.257   0.811
 8951TIP3    H126817   0.895   3.348   0.828
 8951TIP3    H226818   0.844   3.256   0.719
 8952TIP3   OH226819   6.571   4.908   3.686
 8952TIP3    H126820   6.525   4.953   3.615
 8952TIP3    H226821   6.504   4.894   3.753
 8953TIP3   OH226822   6.204   1.423   0.335
 8953TIP3    H126823   6.204   1.518   0.346
 8953TIP3    H226824   6.236   1.390   0.419
 8954TIP3   OH226825   3.206   4.049   3.188
 8954TIP3    H126826   3.162   4.067   3.271
 8954TIP3    H226827   3.136   4.017   3.131
 8955TIP3   OH226828   3.446   1.897   0.709
 8955TIP3    H126829   3.515   1.956   0.739
 8955TIP3    H226830   3.428   1.924   0.619
 8956TIP3   OH226831   7.102   0.716   3.401
 8956TIP3    H126832   7.174   0.750   3.453
 8956TIP3    H226833   7.062   0.649   3.456
 8957TIP3   OH226834   5.272   1.401   1.928
 8957TIP3    H126835   5.353   1.350   1.936
 8957TIP3    H226836   5.202   1.340   1.950
 8958TIP3   OH226837   0.253   1.665   0.874
 8958TIP3    H126838   0.346   1.644   0.875
 8958TIP3    H226839   0.210   1.581   0.856
 8959TIP3   OH226840   3.123   5.920   2.314
 8959TIP3    H126841   3.186   5.850   2.295
 8959TIP3    H226842   3.147   5.952   2.401
 8960TIP3   OH226843   0.112   3.884   4.468
 8960TIP3    H126844   0.106   3.853   4.378
 8960TIP3    H226845   0.060   3.822   4.518
 8961TIP3   OH226846   1.528   5.802   5.316
 8961TIP3    H126847   1.494   5.890   5.299
 8961TIP3    H226848   1.623   5.811   5.306
 8962TIP3   OH226849   4.950   3.727   3.969
 8962TIP3    H126850   4.936   3.632   3.963
 8962TIP3    H226851   5.013   3.746   3.899
 8963TIP3   OH226852   2.365   4.972   0.787
 8963TIP3    H126853   2.401   5.038   0.846
 8963TIP3    H226854   2.288   4.939   0.832
 8964TIP3   OH226855   4.841   0.017   2.441
 8964TIP3    H126856   4.780   0.082   2.407
 8964TIP3    H226857   4.911   0.068   2.481
 8965TIP3   OH226858   2.387   6.684   5.686
 8965TIP3    H126859   2.298   6.648   5.677
 8965TIP3    H226860   2.376   6.761   5.742
 8966TIP3   OH226861   5.000   2.467   3.852
 8966TIP3    H126862   4.943   2.403   3.895
 8966TIP3    H226863   5.025   2.424   3.770
 8967TIP3   OH226864   5.006   6.142   1.220
 8967TIP3    H126865   5.052   6.191   1.151
 8967TIP3    H226866   4.999   6.053   1.185
 8968TIP3   OH226867   6.232   2.945   3.006
 8968TIP3    H126868   6.174   2.998   3.061
 8968TIP3    H226869   6.271   2.881   3.066
 8969TIP3   OH226870   2.792   5.083   1.308
 8969TIP3    H126871   2.839   5.029   1.371
 8969TIP3    H226872   2.700   5.078   1.335
 8970TIP3   OH226873   3.738   3.483   3.841
 8970TIP3    H126874   3.651   3.447   3.859
 8970TIP3    H226875   3.767   3.438   3.762
 8971TIP3   OH226876   6.264   0.341  -0.044
 8971TIP3    H126877   6.231   0.267  -0.095
 8971TIP3    H226878   6.204   0.349   0.029
 8972TIP3   OH226879   2.170   6.290   5.430
 8972TIP3    H126880   2.182   6.198   5.456
 8972TIP3    H226881   2.252   6.333   5.456
 8973TIP3   OH226882   4.828   4.880   5.317
 8973TIP3    H126883   4.837   4.939   5.392
 8973TIP3    H226884   4.787   4.802   5.353
 8974TIP3   OH226885   2.208   2.434   5.482
 8974TIP3    H126886   2.144   2.492   5.524
 8974TIP3    H226887   2.259   2.492   5.425
 8975TIP3   OH226888   0.989   4.975   4.332
 8975TIP3    H126889   1.024   5.030   4.402
 8975TIP3    H226890   1.039   4.894   4.337
 8976TIP3   OH226891   5.898   0.477   5.113
 8976TIP3    H126892   5.821   0.424   5.094
 8976TIP3    H226893   5.934   0.439   5.193
 8977TIP3   OH226894   3.832   1.288   3.315
 8977TIP3    H126895   3.754   1.242   3.345
 8977TIP3    H226896   3.808   1.324   3.229
 8978TIP3   OH226897   6.694   5.259   3.817
 8978TIP3    H126898   6.706   5.217   3.902
 8978TIP3    H226899   6.608   5.300   3.822
 8979TIP3   OH226900   2.858   4.312   0.703
 8979TIP3    H126901   2.890   4.402   0.715
 8979TIP3    H226902   2.937   4.259   0.701
 8980TIP3   OH226903   2.098   2.051   3.959
 8980TIP3    H126904   2.137   1.973   3.919
 8980TIP3    H226905   2.048   2.092   3.888
 8981TIP3   OH226906   5.420   4.608   3.272
 8981TIP3    H126907   5.497   4.629   3.220
 8981TIP3    H226908   5.374   4.541   3.220
 8982TIP3   OH226909   6.374   2.150   3.516
 8982TIP3    H126910   6.414   2.200   3.588
 8982TIP3    H226911   6.295   2.200   3.494
 8983TIP3   OH226912   7.045   3.195   0.154
 8983TIP3    H126913   7.071   3.189   0.246
 8983TIP3    H226914   7.126   3.179   0.106
 8984TIP3   OH226915   2.329   3.572   5.563
 8984TIP3    H126916   2.290   3.637   5.622
 8984TIP3    H226917   2.269   3.497   5.567
 8985TIP3   OH226918   6.564   4.237   1.765
 8985TIP3    H126919   6.595   4.319   1.728
 8985TIP3    H226920   6.550   4.256   1.858
 8986TIP3   OH226921   1.330   2.776   2.453
 8986TIP3    H126922   1.386   2.709   2.493
 8986TIP3    H226923   1.372   2.859   2.477
 8987TIP3   OH226924   5.928   6.674   3.954
 8987TIP3    H126925   5.952   6.766   3.960
 8987TIP3    H226926   6.003   6.632   3.911
 8988TIP3   OH226927   6.728   4.071   3.319
 8988TIP3    H126928   6.694   4.120   3.394
 8988TIP3    H226929   6.816   4.106   3.306
 8989TIP3   OH226930   4.842   1.974   3.597
 8989TIP3    H126931   4.778   1.931   3.539
 8989TIP3    H226932   4.853   1.912   3.668
 8990TIP3   OH226933   5.673   4.243   4.396
 8990TIP3    H126934   5.704   4.263   4.484
 8990TIP3    H226935   5.733   4.291   4.339
 8991TIP3   OH226936   0.016   4.469   4.668
 8991TIP3    H126937   0.078   4.510   4.728
 8991TIP3    H226938   0.008   4.379   4.699
 8992TIP3   OH226939   4.049   4.025   3.262
 8992TIP3    H126940   3.956   4.046   3.276
 8992TIP3    H226941   4.055   4.009   3.167
 8993TIP3   OH226942   3.960   5.171   5.627
 8993TIP3    H126943   3.958   5.082   5.593
 8993TIP3    H226944   3.885   5.176   5.686
 8994TIP3   OH226945   3.387   3.131   2.407
 8994TIP3    H126946   3.424   3.220   2.405
 8994TIP3    H226947   3.415   3.092   2.324
 8995TIP3   OH226948   1.723   3.475   1.869
 8995TIP3    H126949   1.692   3.388   1.846
 8995TIP3    H226950   1.779   3.462   1.945
 8996TIP3   OH226951   4.439   4.068   3.656
 8996TIP3    H126952   4.498   4.025   3.718
 8996TIP3    H226953   4.484   4.061   3.572
 8997TIP3   OH226954   2.939   2.076   3.626
 8997TIP3    H126955   2.911   1.985   3.632
 8997TIP3    H226956   2.881   2.114   3.559
 8998TIP3   OH226957   0.648   4.911   2.996
 8998TIP3    H126958   0.695   4.990   3.022
 8998TIP3    H226959   0.717   4.846   2.981
 8999TIP3   OH226960   5.945   0.289   0.199
 8999TIP3    H126961   6.032   0.258   0.226
 8999TIP3    H226962   5.946   0.383   0.215
 9000TIP3   OH226963   5.272   6.315   5.839
 9000TIP3    H126964   5.355   6.338   5.798
 9000TIP3    H226965   5.294   6.299   5.931
 9001TIP3   OH226966   5.340   4.706   3.714
 9001TIP3    H126967   5.372   4.742   3.631
 9001TIP3    H226968   5.313   4.782   3.765
 9002TIP3   OH226969   4.921   0.913   4.605
 9002TIP3    H126970   5.005   0.889   4.567
 9002TIP3    H226971   4.943   0.953   4.689
 9003TIP3   OH226972   0.199   0.207   5.447
 9003TIP3    H126973   0.167   0.266   5.378
 9003TIP3    H226974   0.292   0.197   5.428
 9004TIP3   OH226975   2.431   4.611   4.817
 9004TIP3    H126976   2.382   4.530   4.827
 9004TIP3    H226977   2.370   4.680   4.844
 9005TIP3   OH226978   3.462   0.825   1.076
 9005TIP3    H126979   3.547   0.844   1.037
 9005TIP3    H226980   3.478   0.750   1.133
 9006TIP3   OH226981   0.990   3.186   0.298
 9006TIP3    H126982   0.917   3.247   0.289
 9006TIP3    H226983   0.964   3.109   0.247
 9007TIP3   OH226984   0.437   1.092   3.191
 9007TIP3    H126985   0.352   1.090   3.148
 9007TIP3    H226986   0.426   1.039   3.270
 9008TIP3   OH226987   2.321   0.458   0.387
 9008TIP3    H126988   2.232   0.489   0.367
 9008TIP3    H226989   2.321   0.367   0.358
 9009TIP3   OH226990   4.606   0.704   2.901
 9009TIP3    H126991   4.583   0.792   2.930
 9009TIP3    H226992   4.531   0.675   2.849
 9010TIP3   OH226993   6.013   3.621   5.722
 9010TIP3    H126994   5.957   3.582   5.789
 9010TIP3    H226995   6.093   3.569   5.724
 9011TIP3   OH226996   6.431   4.234   5.599
 9011TIP3    H126997   6.460   4.210   5.511
 9011TIP3    H226998   6.512   4.261   5.643
 9012TIP3   OH226999   4.694   0.352   4.033
 9012TIP3    H127000   4.734   0.374   3.949
 9012TIP3    H227001   4.757   0.382   4.098
 9013TIP3   OH227002   5.476   2.094   5.179
 9013TIP3    H127003   5.498   2.001   5.182
 9013TIP3    H227004   5.561   2.139   5.174
 9014TIP3   OH227005   1.187   0.073   4.899
 9014TIP3    H127006   1.123   0.017   4.855
 9014TIP3    H227007   1.136   0.149   4.927
 9015TIP3   OH227008   6.754   6.069   2.592
 9015TIP3    H127009   6.829   6.127   2.608
 9015TIP3    H227010   6.711   6.062   2.678
 9016TIP3   OH227011   2.934   4.562   2.755
 9016TIP3    H127012   2.918   4.587   2.664
 9016TIP3    H227013   2.851   4.580   2.799
 9017TIP3   OH227014   7.181   0.830   2.145
 9017TIP3    H127015   7.188   0.925   2.155
 9017TIP3    H227016   7.087   0.813   2.145
 9018TIP3   OH227017   3.885   3.956   4.419
 9018TIP3    H127018   3.880   3.866   4.450
 9018TIP3    H227019   3.916   4.006   4.494
 9019TIP3   OH227020   5.650   2.610   5.521
 9019TIP3    H127021   5.703   2.572   5.451
 9019TIP3    H227022   5.682   2.567   5.601
 9020TIP3   OH227023   4.950   5.044   0.866
 9020TIP3    H127024   4.928   5.079   0.953
 9020TIP3    H227025   4.956   5.121   0.810
 9021TIP3   OH227026   2.196   5.638   2.175
 9021TIP3    H127027   2.201   5.653   2.081
 9021TIP3    H227028   2.136   5.705   2.207
 9022TIP3   OH227029   0.783   3.973   2.368
 9022TIP3    H127030   0.837   4.035   2.320
 9022TIP3    H227031   0.845   3.921   2.420
 9023TIP3   OH227032   1.152   5.470   3.591
 9023TIP3    H127033   1.219   5.479   3.524
 9023TIP3    H227034   1.138   5.560   3.623
 9024TIP3   OH227035   4.013   2.012   3.530
 9024TIP3    H127036   4.098   2.018   3.576
 9024TIP3    H227037   4.033   1.967   3.448
 9025TIP3   OH227038   2.141   0.481   5.160
 9025TIP3    H127039   2.119   0.392   5.134
 9025TIP3    H227040   2.148   0.529   5.078
 9026TIP3   OH227041   4.463   4.425   5.890
 9026TIP3    H127042   4.489   4.355   5.950
 9026TIP3    H227043   4.520   4.414   5.814
 9027TIP3   OH227044   5.875   5.803   0.087
 9027TIP3    H127045   5.868   5.781  -0.006
 9027TIP3    H227046   5.965   5.781   0.111
 9028TIP3   OH227047   1.120   0.232   4.203
 9028TIP3    H127048   1.080   0.246   4.288
 9028TIP3    H227049   1.136   0.138   4.198
 9029TIP3   OH227050   3.910   2.755   1.599
 9029TIP3    H127051   3.925   2.848   1.584
 9029TIP3    H227052   3.846   2.752   1.670
 9030TIP3   OH227053   5.529   5.858   0.977
 9030TIP3    H127054   5.519   5.763   0.988
 9030TIP3    H227055   5.609   5.868   0.925
 9031TIP3   OH227056   7.099   3.639   1.644
 9031TIP3    H127057   7.066   3.686   1.721
 9031TIP3    H227058   7.084   3.698   1.571
 9032TIP3   OH227059   2.879   0.075   3.766
 9032TIP3    H127060   2.841  -0.005   3.802
 9032TIP3    H227061   2.867   0.068   3.672
 9033TIP3   OH227062   3.568   2.222   3.396
 9033TIP3    H127063   3.558   2.279   3.320
 9033TIP3    H227064   3.635   2.158   3.369
 9034TIP3   OH227065   2.483   5.527   5.656
 9034TIP3    H127066   2.538   5.591   5.611
 9034TIP3    H227067   2.519   5.442   5.632
 9035TIP3   OH227068   1.212   3.176   4.752
 9035TIP3    H127069   1.158   3.097   4.753
 9035TIP3    H227070   1.297   3.147   4.786
 9036TIP3   OH227071   1.959   5.880   3.433
 9036TIP3    H127072   1.871   5.896   3.467
 9036TIP3    H227073   2.016   5.932   3.491
 9037TIP3   OH227074   3.357   1.219   0.567
 9037TIP3    H127075   3.327   1.302   0.605
 9037TIP3    H227076   3.390   1.242   0.481
 9038TIP3   OH227077   2.894   2.320   1.370
 9038TIP3    H127078   2.935   2.292   1.289
 9038TIP3    H227079   2.882   2.415   1.359
 9039TIP3   OH227080   4.418   1.580   0.582
 9039TIP3    H127081   4.499   1.626   0.604
 9039TIP3    H227082   4.380   1.632   0.511
 9040TIP3   OH227083   4.726   3.627   4.526
 9040TIP3    H127084   4.709   3.552   4.582
 9040TIP3    H227085   4.673   3.698   4.563
 9041TIP3   OH227086   5.423   1.817   3.562
 9041TIP3    H127087   5.396   1.725   3.557
 9041TIP3    H227088   5.345   1.863   3.595
 9042TIP3   OH227089   6.549   3.251   1.135
 9042TIP3    H127090   6.507   3.306   1.202
 9042TIP3    H227091   6.501   3.269   1.055
 9043TIP3   OH227092   2.523   1.965   5.652
 9043TIP3    H127093   2.505   1.975   5.745
 9043TIP3    H227094   2.546   2.052   5.621
 9044TIP3   OH227095   3.780   6.408   5.581
 9044TIP3    H127096   3.710   6.474   5.585
 9044TIP3    H227097   3.741   6.330   5.620
 9045TIP3   OH227098   4.988   4.021   1.473
 9045TIP3    H127099   5.067   4.030   1.526
 9045TIP3    H227100   4.950   4.109   1.471
 9046TIP3   OH227101   1.361   1.356   2.234
 9046TIP3    H127102   1.283   1.392   2.192
 9046TIP3    H227103   1.333   1.334   2.323
 9047TIP3   OH227104   0.897   2.908   0.904
 9047TIP3    H127105   0.852   2.859   0.835
 9047TIP3    H227106   0.848   2.990   0.911
 9048TIP3   OH227107   3.109   1.612   2.989
 9048TIP3    H127108   3.156   1.529   2.987
 9048TIP3    H227109   3.068   1.620   2.903
 9049TIP3   OH227110   1.359   5.889   1.972
 9049TIP3    H127111   1.425   5.931   1.917
 9049TIP3    H227112   1.346   5.803   1.931
 9050TIP3   OH227113   6.542   3.967   3.799
 9050TIP3    H127114   6.477   3.946   3.731
 9050TIP3    H227115   6.493   3.964   3.881
 9051TIP3   OH227116   0.500   2.376   0.606
 9051TIP3    H127117   0.450   2.304   0.567
 9051TIP3    H227118   0.552   2.412   0.534
 9052TIP3   OH227119   4.106   2.499   5.303
 9052TIP3    H127120   4.071   2.451   5.378
 9052TIP3    H227121   4.033   2.505   5.242
 9053TIP3   OH227122   1.727   3.507   3.431
 9053TIP3    H127123   1.671   3.579   3.458
 9053TIP3    H227124   1.775   3.542   3.355
 9054TIP3   OH227125   4.346   2.057   0.802
 9054TIP3    H127126   4.292   2.117   0.854
 9054TIP3    H227127   4.316   1.970   0.827
 9055TIP3   OH227128   0.651   0.989   4.222
 9055TIP3    H127129   0.721   0.951   4.170
 9055TIP3    H227130   0.640   1.078   4.188
 9056TIP3   OH227131   4.361   6.727   2.854
 9056TIP3    H127132   4.294   6.771   2.906
 9056TIP3    H227133   4.396   6.660   2.912
 9057TIP3   OH227134   3.650   0.751   2.556
 9057TIP3    H127135   3.727   0.727   2.607
 9057TIP3    H227136   3.666   0.842   2.530
 9058TIP3   OH227137   3.691   5.147   5.760
 9058TIP3    H127138   3.677   5.155   5.854
 9058TIP3    H227139   3.625   5.084   5.730
 9059TIP3   OH227140   3.319   2.255   2.649
 9059TIP3    H127141   3.307   2.287   2.559
 9059TIP3    H227142   3.231   2.250   2.685
 9060TIP3   OH227143   5.976   6.560   5.434
 9060TIP3    H127144   6.053   6.514   5.401
 9060TIP3    H227145   5.986   6.650   5.404
 9061TIP3   OH227146   4.733   5.713   0.468
 9061TIP3    H127147   4.668   5.775   0.501
 9061TIP3    H227148   4.811   5.729   0.521
 9062TIP3   OH227149   2.680   3.860   2.564
 9062TIP3    H127150   2.739   3.802   2.515
 9062TIP3    H227151   2.735   3.935   2.587
 9063TIP3   OH227152   0.314   3.008   3.700
 9063TIP3    H127153   0.370   2.973   3.770
 9063TIP3    H227154   0.226   3.009   3.737
 9064TIP3   OH227155   4.558   1.983   5.358
 9064TIP3    H127156   4.561   1.928   5.280
 9064TIP3    H227157   4.471   1.968   5.394
 9065TIP3   OH227158   0.442   3.981   3.712
 9065TIP3    H127159   0.468   4.033   3.636
 9065TIP3    H227160   0.521   3.974   3.765
 9066TIP3   OH227161   3.745   5.784   5.635
 9066TIP3    H127162   3.790   5.764   5.717
 9066TIP3    H227163   3.805   5.844   5.589
 9067TIP3   OH227164   4.927   3.296   0.079
 9067TIP3    H127165   4.905   3.325  -0.010
 9067TIP3    H227166   5.019   3.269   0.072
 9068TIP3   OH227167   5.721   5.605   3.691
 9068TIP3    H127168   5.775   5.630   3.615
 9068TIP3    H227169   5.657   5.675   3.698
 9069TIP3   OH227170   2.264   2.473   2.906
 9069TIP3    H127171   2.178   2.511   2.923
 9069TIP3    H227172   2.304   2.533   2.843
 9070TIP3   OH227173   1.693   1.232   2.265
 9070TIP3    H127174   1.665   1.291   2.334
 9070TIP3    H227175   1.736   1.289   2.201
 9071TIP3   OH227176   6.285   3.889   2.089
 9071TIP3    H127177   6.224   3.938   2.033
 9071TIP3    H227178   6.368   3.890   2.041
 9072TIP3   OH227179   0.211   6.264   0.516
 9072TIP3    H127180   0.213   6.345   0.465
 9072TIP3    H227181   0.294   6.263   0.564
 9073TIP3   OH227182   0.623   3.428   0.532
 9073TIP3    H127183   0.716   3.405   0.539
 9073TIP3    H227184   0.609   3.492   0.601
 9074TIP3   OH227185   4.476   4.594   1.270
 9074TIP3    H127186   4.484   4.676   1.319
 9074TIP3    H227187   4.401   4.549   1.309
 9075TIP3   OH227188   4.822   1.491   1.140
 9075TIP3    H127189   4.762   1.435   1.091
 9075TIP3    H227190   4.778   1.576   1.144
 9076TIP3   OH227191   0.214   4.918   4.599
 9076TIP3    H127192   0.246   4.832   4.572
 9076TIP3    H227193   0.235   4.924   4.692
 9077TIP3   OH227194   7.123   4.342   0.929
 9077TIP3    H127195   7.175   4.372   0.855
 9077TIP3    H227196   7.110   4.248   0.914
 9078TIP3   OH227197   3.821   4.512   0.752
 9078TIP3    H127198   3.765   4.532   0.828
 9078TIP3    H227199   3.852   4.423   0.769
 9079TIP3   OH227200   2.501   1.668   5.040
 9079TIP3    H127201   2.441   1.678   5.114
 9079TIP3    H227202   2.503   1.754   4.999
 9080TIP3   OH227203   1.682   1.489   0.436
 9080TIP3    H127204   1.592   1.509   0.412
 9080TIP3    H227205   1.729   1.482   0.352
 9081TIP3   OH227206   4.353   2.784   5.055
 9081TIP3    H127207   4.414   2.711   5.066
 9081TIP3    H227208   4.375   2.844   5.126
 9082TIP3   OH227209   4.656   2.272   2.570
 9082TIP3    H127210   4.724   2.273   2.638
 9082TIP3    H227211   4.595   2.204   2.598
 9083TIP3   OH227212   5.536   2.460   4.850
 9083TIP3    H127213   5.576   2.406   4.919
 9083TIP3    H227214   5.577   2.429   4.769
 9084TIP3   OH227215   0.978   0.629   5.521
 9084TIP3    H127216   0.966   0.648   5.614
 9084TIP3    H227217   1.066   0.590   5.515
 9085TIP3   OH227218   1.906   1.590   1.600
 9085TIP3    H127219   1.938   1.503   1.576
 9085TIP3    H227220   1.970   1.650   1.563
 9086TIP3   OH227221   5.226   1.322   3.357
 9086TIP3    H127222   5.243   1.317   3.263
 9086TIP3    H227223   5.161   1.254   3.373
 9087TIP3   OH227224   2.348   3.361   5.785
 9087TIP3    H127225   2.336   3.281   5.734
 9087TIP3    H227226   2.265   3.408   5.777
 9088TIP3   OH227227   4.123   1.591   2.326
 9088TIP3    H127228   4.120   1.685   2.306
 9088TIP3    H227229   4.031   1.565   2.327
 9089TIP3   OH227230   4.998   3.188   4.542
 9089TIP3    H127231   5.084   3.169   4.580
 9089TIP3    H227232   5.012   3.268   4.492
 9090TIP3   OH227233   4.251   5.894   1.617
 9090TIP3    H127234   4.226   5.978   1.655
 9090TIP3    H227235   4.329   5.913   1.565
 9091TIP3   OH227236   1.686   4.520   0.647
 9091TIP3    H127237   1.740   4.569   0.709
 9091TIP3    H227238   1.749   4.473   0.592
 9092TIP3   OH227239   0.807   6.358   1.306
 9092TIP3    H127240   0.882   6.377   1.363
 9092TIP3    H227241   0.829   6.399   1.223
 9093TIP3   OH227242   5.824   1.001   5.709
 9093TIP3    H127243   5.862   1.046   5.633
 9093TIP3    H227244   5.868   0.916   5.712
 9094TIP3   OH227245   3.199   6.550   1.374
 9094TIP3    H127246   3.290   6.529   1.357
 9094TIP3    H227247   3.183   6.629   1.322
 9095TIP3   OH227248   1.934   1.172   2.486
 9095TIP3    H127249   2.024   1.200   2.503
 9095TIP3    H227250   1.940   1.122   2.405
 9096TIP3   OH227251   3.564   5.391   5.416
 9096TIP3    H127252   3.478   5.350   5.419
 9096TIP3    H227253   3.620   5.325   5.374
 9097TIP3   OH227254   0.494   4.419   0.223
 9097TIP3    H127255   0.432   4.381   0.286
 9097TIP3    H227256   0.580   4.404   0.262
 9098TIP3   OH227257   0.085   5.864   0.638
 9098TIP3    H127258   0.044   5.824   0.714
 9098TIP3    H227259   0.065   5.957   0.645
 9099TIP3   OH227260   6.970   1.154   0.718
 9099TIP3    H127261   7.004   1.242   0.699
 9099TIP3    H227262   7.047   1.099   0.725
 9100TIP3   OH227263   5.343   2.310   4.366
 9100TIP3    H127264   5.301   2.226   4.348
 9100TIP3    H227265   5.276   2.360   4.413
 9101TIP3   OH227266   4.750   5.301   2.881
 9101TIP3    H127267   4.814   5.335   2.819
 9101TIP3    H227268   4.799   5.241   2.937
 9102TIP3   OH227269   4.456   2.109   2.651
 9102TIP3    H127270   4.482   2.045   2.717
 9102TIP3    H227271   4.402   2.059   2.589
 9103TIP3   OH227272   6.397   6.476   0.543
 9103TIP3    H127273   6.400   6.425   0.624
 9103TIP3    H227274   6.360   6.560   0.568
 9104TIP3   OH227275   1.687   3.686   3.120
 9104TIP3    H127276   1.691   3.755   3.186
 9104TIP3    H227277   1.685   3.731   3.036
 9105TIP3   OH227278   3.777   2.277   1.654
 9105TIP3    H127279   3.868   2.302   1.642
 9105TIP3    H227280   3.729   2.360   1.656
 9106TIP3   OH227281   6.140   1.269   0.674
 9106TIP3    H127282   6.226   1.300   0.703
 9106TIP3    H227283   6.123   1.192   0.729
 9107TIP3   OH227284   6.668   3.738   5.141
 9107TIP3    H127285   6.610   3.689   5.083
 9107TIP3    H227286   6.756   3.708   5.118
 9108TIP3   OH227287   0.726   0.151   0.434
 9108TIP3    H127288   0.725   0.199   0.517
 9108TIP3    H227289   0.681   0.209   0.372
 9109TIP3   OH227290   0.490   2.050   1.718
 9109TIP3    H127291   0.464   2.101   1.794
 9109TIP3    H227292   0.586   2.058   1.715
 9110TIP3   OH227293   1.915   5.430   1.934
 9110TIP3    H127294   1.891   5.345   1.972
 9110TIP3    H227295   1.906   5.492   2.007
 9111TIP3   OH227296   6.460   6.600   3.793
 9111TIP3    H127297   6.549   6.629   3.774
 9111TIP3    H227298   6.462   6.572   3.885
 9112TIP3   OH227299   4.278   5.004   3.522
 9112TIP3    H127300   4.290   5.036   3.611
 9112TIP3    H227301   4.196   5.045   3.493
 9113TIP3   OH227302   3.643   5.236   3.102
 9113TIP3    H127303   3.646   5.141   3.117
 9113TIP3    H227304   3.558   5.263   3.136
 9114TIP3   OH227305   1.156   1.417   1.474
 9114TIP3    H127306   1.073   1.431   1.520
 9114TIP3    H227307   1.218   1.393   1.543
 9115TIP3   OH227308   5.424   0.910   5.193
 9115TIP3    H127309   5.493   0.899   5.258
 9115TIP3    H227310   5.370   0.832   5.201
 9116TIP3   OH227311   5.286   6.269   4.940
 9116TIP3    H127312   5.267   6.359   4.965
 9116TIP3    H227313   5.252   6.261   4.851
 9117TIP3   OH227314   3.634   0.193   5.289
 9117TIP3    H127315   3.574   0.194   5.364
 9117TIP3    H227316   3.710   0.143   5.320
 9118TIP3   OH227317   6.355   5.840   2.745
 9118TIP3    H127318   6.285   5.906   2.744
 9118TIP3    H227319   6.360   5.809   2.654
 9119TIP3   OH227320   1.861   4.991   1.000
 9119TIP3    H127321   1.956   4.986   0.990
 9119TIP3    H227322   1.830   4.904   0.975
 9120TIP3   OH227323   3.181   0.518   2.304
 9120TIP3    H127324   3.213   0.572   2.232
 9120TIP3    H227325   3.234   0.438   2.299
 9121TIP3   OH227326   1.354   5.499   3.410
 9121TIP3    H127327   1.276   5.524   3.360
 9121TIP3    H227328   1.416   5.469   3.344
 9122TIP3   OH227329   0.167   5.277   4.856
 9122TIP3    H127330   0.213   5.264   4.773
 9122TIP3    H227331   0.137   5.368   4.853
 9123TIP3   OH227332   4.066   6.254   0.271
 9123TIP3    H127333   4.005   6.191   0.309
 9123TIP3    H227334   4.150   6.233   0.310
 9124TIP3   OH227335   3.051   0.008   2.784
 9124TIP3    H127336   3.113  -0.008   2.712
 9124TIP3    H227337   3.038  -0.079   2.823
 9125TIP3   OH227338   6.412   1.353   1.793
 9125TIP3    H127339   6.327   1.384   1.762
 9125TIP3    H227340   6.442   1.293   1.725
 9126TIP3   OH227341   4.901   5.584   3.797
 9126TIP3    H127342   4.841   5.540   3.737
 9126TIP3    H227343   4.924   5.517   3.861
 9127TIP3   OH227344   4.088   2.401   2.790
 9127TIP3    H127345   4.119   2.451   2.714
 9127TIP3    H227346   4.138   2.436   2.864
 9128TIP3   OH227347   2.020   1.348   3.079
 9128TIP3    H127348   2.088   1.413   3.063
 9128TIP3    H227349   2.040   1.313   3.165
 9129TIP3   OH227350   0.369   5.967   1.839
 9129TIP3    H127351   0.297   6.018   1.802
 9129TIP3    H227352   0.436   5.965   1.771
 9130TIP3   OH227353   4.283   0.078   4.798
 9130TIP3    H127354   4.332   0.002   4.830
 9130TIP3    H227355   4.321   0.096   4.712
 9131TIP3   OH227356   2.729   5.623   0.794
 9131TIP3    H127357   2.793   5.694   0.787
 9131TIP3    H227358   2.645   5.665   0.777
 9132TIP3   OH227359   2.394   6.610   4.177
 9132TIP3    H127360   2.354   6.635   4.094
 9132TIP3    H227361   2.383   6.687   4.233
 9133TIP3   OH227362   2.074   4.766   1.134
 9133TIP3    H127363   2.131   4.692   1.154
 9133TIP3    H227364   2.082   4.823   1.211
 9134TIP3   OH227365   4.171   2.653   2.337
 9134TIP3    H127366   4.162   2.740   2.297
 9134TIP3    H227367   4.220   2.603   2.272
 9135TIP3   OH227368   5.201   6.629   3.531
 9135TIP3    H127369   5.250   6.618   3.612
 9135TIP3    H227370   5.206   6.544   3.488
 9136TIP3   OH227371   0.833   6.133   4.350
 9136TIP3    H127372   0.739   6.148   4.350
 9136TIP3    H227373   0.844   6.048   4.392
 9137TIP3   OH227374   2.865   6.681   4.106
 9137TIP3    H127375   2.787   6.700   4.158
 9137TIP3    H227376   2.936   6.677   4.170
 9138TIP3   OH227377   3.665   0.770   4.523
 9138TIP3    H127378   3.648   0.678   4.542
 9138TIP3    H227379   3.727   0.769   4.451
 9139TIP3   OH227380   5.123   3.750   0.071
 9139TIP3    H127381   5.196   3.771   0.013
 9139TIP3    H227382   5.148   3.669   0.114
 9140TIP3   OH227383   4.540   6.134   5.591
 9140TIP3    H127384   4.538   6.059   5.650
 9140TIP3    H227385   4.458   6.128   5.542
 9141TIP3   OH227386   3.860   1.756   2.127
 9141TIP3    H127387   3.873   1.661   2.131
 9141TIP3    H227388   3.886   1.779   2.038
 9142TIP3   OH227389   3.524   2.585   1.433
 9142TIP3    H127390   3.504   2.499   1.398
 9142TIP3    H227391   3.618   2.596   1.415
 9143TIP3   OH227392   2.022   4.720   2.524
 9143TIP3    H127393   1.935   4.758   2.514
 9143TIP3    H227394   2.081   4.781   2.478
 9144TIP3   OH227395   4.761   5.599   1.543
 9144TIP3    H127396   4.784   5.519   1.591
 9144TIP3    H227397   4.759   5.572   1.451
 9145TIP3   OH227398   0.916   3.275   3.464
 9145TIP3    H127399   0.887   3.329   3.390
 9145TIP3    H227400   0.961   3.336   3.522
 9146TIP3   OH227401   2.447   4.680   5.244
 9146TIP3    H127402   2.387   4.684   5.318
 9146TIP3    H227403   2.442   4.590   5.214
 9147TIP3   OH227404   3.424   0.956   3.473
 9147TIP3    H127405   3.361   0.927   3.408
 9147TIP3    H227406   3.420   0.890   3.542
 9148TIP3   OH227407   3.870   4.696   4.851
 9148TIP3    H127408   3.939   4.647   4.895
 9148TIP3    H227409   3.916   4.764   4.801
 9149TIP3   OH227410   5.323   4.432   3.036
 9149TIP3    H127411   5.322   4.372   2.961
 9149TIP3    H227412   5.408   4.417   3.078
 9150TIP3   OH227413   3.059   0.210   2.161
 9150TIP3    H127414   3.110   0.230   2.083
 9150TIP3    H227415   3.074   0.118   2.178
 9151TIP3   OH227416   0.652   5.766   0.447
 9151TIP3    H127417   0.608   5.801   0.524
 9151TIP3    H227418   0.585   5.713   0.403
 9152TIP3   OH227419   5.428   6.316   2.593
 9152TIP3    H127420   5.507   6.328   2.645
 9152TIP3    H227421   5.384   6.400   2.596
 9153TIP3   OH227422   2.617   2.513   3.020
 9153TIP3    H127423   2.707   2.540   3.038
 9153TIP3    H227424   2.569   2.595   3.012
 9154TIP3   OH227425   3.703   2.964   0.585
 9154TIP3    H127426   3.621   2.920   0.606
 9154TIP3    H227427   3.687   3.006   0.501
 9155TIP3   OH227428   4.165   0.637   4.760
 9155TIP3    H127429   4.213   0.677   4.833
 9155TIP3    H227430   4.088   0.694   4.749
 9156TIP3   OH227431   0.102   3.695   4.103
 9156TIP3    H127432   0.143   3.763   4.157
 9156TIP3    H227433   0.095   3.619   4.160
 9157TIP3   OH227434   4.117   1.758   5.045
 9157TIP3    H127435   4.199   1.718   5.074
 9157TIP3    H227436   4.110   1.839   5.096
 9158TIP3   OH227437   4.449   6.414   5.717
 9158TIP3    H127438   4.412   6.361   5.646
 9158TIP3    H227439   4.372   6.452   5.760
 9159TIP3   OH227440   4.443   1.722   0.341
 9159TIP3    H127441   4.423   1.769   0.260
 9159TIP3    H227442   4.470   1.791   0.402
 9160TIP3   OH227443   0.836   3.009   0.117
 9160TIP3    H127444   0.888   2.928   0.119
 9160TIP3    H227445   0.772   2.995   0.047
 9161TIP3   OH227446   5.362   2.802   4.856
 9161TIP3    H127447   5.432   2.863   4.834
 9161TIP3    H227448   5.282   2.848   4.831
 9162TIP3   OH227449   6.302   2.151   4.261
 9162TIP3    H127450   6.219   2.113   4.289
 9162TIP3    H227451   6.284   2.245   4.252
 9163TIP3   OH227452   4.322   0.796   4.914
 9163TIP3    H127453   4.267   0.843   4.977
 9163TIP3    H227454   4.406   0.785   4.960
 9164TIP3   OH227455   0.637   0.078   1.699
 9164TIP3    H127456   0.574   0.027   1.749
 9164TIP3    H227457   0.600   0.082   1.611
 9165TIP3   OH227458   0.154   6.823   2.382
 9165TIP3    H127459   0.103   6.816   2.462
 9165TIP3    H227460   0.229   6.765   2.395
 9166TIP3   OH227461   6.893   5.295   5.419
 9166TIP3    H127462   6.981   5.260   5.430
 9166TIP3    H227463   6.862   5.311   5.509
 9167TIP3   OH227464   7.201   2.036   3.767
 9167TIP3    H127465   7.272   2.082   3.723
 9167TIP3    H227466   7.214   1.944   3.743
 9168TIP3   OH227467   2.691   6.011   5.581
 9168TIP3    H127468   2.609   6.052   5.608
 9168TIP3    H227469   2.718   5.959   5.657
 9169TIP3   OH227470   4.387   3.805   3.897
 9169TIP3    H127471   4.322   3.756   3.846
 9169TIP3    H227472   4.449   3.835   3.832
 9170TIP3   OH227473   2.463   1.625   3.238
 9170TIP3    H127474   2.463   1.585   3.324
 9170TIP3    H227475   2.553   1.656   3.226
 9171TIP3   OH227476   7.224   3.266   4.828
 9171TIP3    H127477   7.155   3.200   4.823
 9171TIP3    H227478   7.193   3.329   4.893
 9172TIP3   OH227479   0.155   3.021   1.184
 9172TIP3    H127480   0.089   2.978   1.237
 9172TIP3    H227481   0.117   3.023   1.096
 9173TIP3   OH227482   0.411   0.372   5.085
 9173TIP3    H127483   0.457   0.302   5.038
 9173TIP3    H227484   0.359   0.416   5.019
 9174TIP3   OH227485   7.144   1.194   1.242
 9174TIP3    H127486   7.104   1.112   1.269
 9174TIP3    H227487   7.074   1.242   1.198
 9175TIP3   OH227488   3.462   2.673   5.188
 9175TIP3    H127489   3.517   2.743   5.225
 9175TIP3    H227490   3.479   2.677   5.094
 9176TIP3   OH227491   3.318   4.545   1.693
 9176TIP3    H127492   3.238   4.492   1.693
 9176TIP3    H227493   3.366   4.514   1.769
 9177TIP3   OH227494   0.071   4.094   3.578
 9177TIP3    H127495   0.029   4.104   3.664
 9177TIP3    H227496   0.069   4.182   3.541
 9178TIP3   OH227497   2.702   5.925   4.414
 9178TIP3    H127498   2.634   5.976   4.458
 9178TIP3    H227499   2.777   5.928   4.473
 9179TIP3   OH227500   2.139   0.083   1.980
 9179TIP3    H127501   2.162   0.170   2.014
 9179TIP3    H227502   2.127   0.030   2.059
 9180TIP3   OH227503   4.185   2.636   3.044
 9180TIP3    H127504   4.275   2.666   3.032
 9180TIP3    H227505   4.185   2.593   3.129
 9181TIP3   OH227506   0.678   2.374   2.318
 9181TIP3    H127507   0.662   2.333   2.403
 9181TIP3    H227508   0.700   2.465   2.339
 9182TIP3   OH227509   3.271   2.907   0.094
 9182TIP3    H127510   3.217   2.951   0.160
 9182TIP3    H227511   3.213   2.900   0.017
 9183TIP3   OH227512   3.464   3.972   5.864
 9183TIP3    H127513   3.426   4.035   5.803
 9183TIP3    H227514   3.468   4.018   5.947
 9184TIP3   OH227515   1.754   4.346   2.638
 9184TIP3    H127516   1.842   4.379   2.624
 9184TIP3    H227517   1.696   4.418   2.614
 9185TIP3   OH227518   3.375   2.845   1.789
 9185TIP3    H127519   3.402   2.936   1.772
 9185TIP3    H227520   3.335   2.816   1.707
 9186TIP3   OH227521   3.045   3.931   2.935
 9186TIP3    H127522   3.078   3.954   2.848
 9186TIP3    H227523   3.044   3.835   2.936
 9187TIP3   OH227524   1.888   0.811   1.750
 9187TIP3    H127525   1.923   0.888   1.705
 9187TIP3    H227526   1.793   0.825   1.750
 9188TIP3   OH227527   1.506   1.083   1.602
 9188TIP3    H127528   1.545   1.155   1.652
 9188TIP3    H227529   1.464   1.126   1.528
 9189TIP3   OH227530   2.011   3.079   4.135
 9189TIP3    H127531   1.975   2.992   4.119
 9189TIP3    H227532   2.005   3.091   4.230
 9190TIP3   OH227533   3.557   1.931   5.143
 9190TIP3    H127534   3.473   1.944   5.101
 9190TIP3    H227535   3.552   1.983   5.224
 9191TIP3   OH227536   4.460   0.158   5.233
 9191TIP3    H127537   4.381   0.177   5.184
 9191TIP3    H227538   4.463   0.225   5.302
 9192TIP3   OH227539   5.045   5.397   4.039
 9192TIP3    H127540   5.083   5.471   4.087
 9192TIP3    H227541   4.986   5.356   4.102
 9193TIP3   OH227542   2.025   5.618   3.409
 9193TIP3    H127543   1.973   5.577   3.479
 9193TIP3    H227544   2.014   5.712   3.424
 9194TIP3   OH227545   2.549  -0.011   2.119
 9194TIP3    H127546   2.636  -0.048   2.104
 9194TIP3    H227547   2.559   0.044   2.197
 9195TIP3   OH227548   7.086   0.454   1.538
 9195TIP3    H127549   7.170   0.435   1.581
 9195TIP3    H227550   7.023   0.399   1.584
 9196TIP3   OH227551   6.712   5.594   3.075
 9196TIP3    H127552   6.651   5.568   3.006
 9196TIP3    H227553   6.799   5.571   3.041
 9197TIP3   OH227554   5.706   0.778   1.711
 9197TIP3    H127555   5.756   0.856   1.685
 9197TIP3    H227556   5.771   0.709   1.719
 9198TIP3   OH227557   1.014   3.864   5.006
 9198TIP3    H127558   0.960   3.943   5.000
 9198TIP3    H227559   1.033   3.854   5.099
 9199TIP3   OH227560   0.103   1.539   0.206
 9199TIP3    H127561   0.170   1.585   0.256
 9199TIP3    H227562   0.139   1.533   0.117
 9200TIP3   OH227563   4.884   4.400   0.670
 9200TIP3    H127564   4.848   4.371   0.587
 9200TIP3    H227565   4.891   4.320   0.722
 9201TIP3   OH227566   2.328   0.900   2.585
 9201TIP3    H127567   2.377   0.821   2.606
 9201TIP3    H227568   2.242   0.888   2.627
 9202TIP3   OH227569   6.876   6.395   3.419
 9202TIP3    H127570   6.913   6.413   3.333
 9202TIP3    H227571   6.825   6.314   3.407
 9203TIP3   OH227572   3.903   4.392   2.660
 9203TIP3    H127573   3.972   4.386   2.726
 9203TIP3    H227574   3.827   4.350   2.700
 9204TIP3   OH227575   7.024   1.370   1.047
 9204TIP3    H127576   7.023   1.455   1.090
 9204TIP3    H227577   7.031   1.389   0.954
 9205TIP3   OH227578   4.168   6.413   3.470
 9205TIP3    H127579   4.082   6.453   3.481
 9205TIP3    H227580   4.162   6.330   3.518
 9206TIP3   OH227581   2.352   2.899   3.765
 9206TIP3    H127582   2.424   2.956   3.740
 9206TIP3    H227583   2.296   2.953   3.820
 9207TIP3   OH227584   1.580   3.654   5.176
 9207TIP3    H127585   1.511   3.660   5.242
 9207TIP3    H227586   1.633   3.733   5.189
 9208TIP3   OH227587   7.022   4.726   4.860
 9208TIP3    H127588   7.019   4.631   4.851
 9208TIP3    H227589   7.081   4.741   4.935
 9209TIP3   OH227590   1.100   3.842   5.268
 9209TIP3    H127591   1.076   3.765   5.319
 9209TIP3    H227592   1.048   3.913   5.305
 9210TIP3   OH227593   3.199   0.491   0.277
 9210TIP3    H127594   3.238   0.416   0.322
 9210TIP3    H227595   3.245   0.567   0.312
 9211TIP3   OH227596   4.101   4.212   4.371
 9211TIP3    H127597   4.109   4.155   4.447
 9211TIP3    H227598   4.169   4.182   4.311
 9212TIP3   OH227599   5.994   6.248   4.653
 9212TIP3    H127600   5.942   6.195   4.593
 9212TIP3    H227601   5.965   6.338   4.637
 9213TIP3   OH227602   1.150   3.151   2.308
 9213TIP3    H127603   1.103   3.221   2.353
 9213TIP3    H227604   1.182   3.192   2.228
 9214TIP3   OH227605   2.443   3.159   3.379
 9214TIP3    H127606   2.375   3.184   3.441
 9214TIP3    H227607   2.509   3.227   3.388
 9215TIP3   OH227608   1.289   1.547   5.546
 9215TIP3    H127609   1.244   1.630   5.561
 9215TIP3    H227610   1.379   1.572   5.522
 9216TIP3   OH227611   0.261   3.327   0.974
 9216TIP3    H127612   0.229   3.238   0.955
 9216TIP3    H227613   0.217   3.381   0.908
 9217TIP3   OH227614   4.822   6.165   1.663
 9217TIP3    H127615   4.765   6.092   1.686
 9217TIP3    H227616   4.824   6.220   1.742
 9218TIP3   OH227617   5.167   0.777   1.947
 9218TIP3    H127618   5.213   0.702   1.908
 9218TIP3    H227619   5.114   0.811   1.875
 9219TIP3   OH227620   0.923   5.541   2.734
 9219TIP3    H127621   0.915   5.525   2.640
 9219TIP3    H227622   0.896   5.632   2.745
 9220TIP3   OH227623   6.346   5.796   1.667
 9220TIP3    H127624   6.380   5.862   1.727
 9220TIP3    H227625   6.372   5.713   1.707
 9221TIP3   OH227626   2.078   3.174   3.083
 9221TIP3    H127627   2.067   3.214   2.997
 9221TIP3    H227628   2.172   3.154   3.089
 9222TIP3   OH227629   4.762   2.631   2.646
 9222TIP3    H127630   4.767   2.579   2.726
 9222TIP3    H227631   4.828   2.593   2.588
 9223TIP3   OH227632   3.893   2.014   3.067
 9223TIP3    H127633   3.871   1.921   3.072
 9223TIP3    H227634   3.985   2.016   3.042
 9224TIP3   OH227635   2.007   5.433   3.634
 9224TIP3    H127636   2.044   5.346   3.619
 9224TIP3    H227637   1.915   5.417   3.657
 9225TIP3   OH227638   0.816   2.813   0.637
 9225TIP3    H127639   0.849   2.899   0.610
 9225TIP3    H227640   0.871   2.751   0.589
 9226TIP3   OH227641   0.495   0.415   3.714
 9226TIP3    H127642   0.437   0.480   3.674
 9226TIP3    H227643   0.451   0.332   3.698
 9227TIP3   OH227644   3.053   6.212   4.958
 9227TIP3    H127645   2.996   6.268   5.012
 9227TIP3    H227646   3.142   6.230   4.990
 9228TIP3   OH227647   5.519   1.264   0.586
 9228TIP3    H127648   5.479   1.258   0.499
 9228TIP3    H227649   5.457   1.315   0.638
 9229TIP3   OH227650   6.666   6.214   1.367
 9229TIP3    H127651   6.689   6.141   1.310
 9229TIP3    H227652   6.587   6.251   1.327
 9230TIP3   OH227653   4.023   0.524   2.857
 9230TIP3    H127654   4.068   0.488   2.781
 9230TIP3    H227655   3.934   0.488   2.850
 9231TIP3   OH227656   6.143   2.765   2.589
 9231TIP3    H127657   6.180   2.692   2.540
 9231TIP3    H227658   6.217   2.804   2.634
 9232TIP3   OH227659   0.744   6.758   2.242
 9232TIP3    H127660   0.760   6.687   2.305
 9232TIP3    H227661   0.831   6.783   2.211
 9233TIP3   OH227662   4.574   4.953   2.854
 9233TIP3    H127663   4.538   4.867   2.877
 9233TIP3    H227664   4.567   4.956   2.758
 9234TIP3   OH227665   3.999   6.043   3.789
 9234TIP3    H127666   3.964   6.097   3.861
 9234TIP3    H227667   3.970   5.955   3.809
 9235TIP3   OH227668   3.835   6.763   0.150
 9235TIP3    H127669   3.753   6.715   0.159
 9235TIP3    H227670   3.828   6.806   0.064
 9236TIP3   OH227671   4.014   3.200   1.354
 9236TIP3    H127672   4.037   3.109   1.338
 9236TIP3    H227673   4.074   3.229   1.423
 9237TIP3   OH227674   1.015   4.025   3.502
 9237TIP3    H127675   1.053   3.994   3.421
 9237TIP3    H227676   0.987   3.945   3.548
 9238TIP3   OH227677   0.500   0.792   3.521
 9238TIP3    H127678   0.513   0.763   3.611
 9238TIP3    H227679   0.523   0.885   3.523
 9239TIP3   OH227680   6.697   1.501   1.026
 9239TIP3    H127681   6.677   1.509   0.932
 9239TIP3    H227682   6.664   1.414   1.049
 9240TIP3   OH227683   5.774   1.974   0.047
 9240TIP3    H127684   5.724   1.897   0.071
 9240TIP3    H227685   5.821   1.948  -0.033
 9241TIP3   OH227686   2.993   2.238   4.455
 9241TIP3    H127687   2.904   2.273   4.459
 9241TIP3    H227688   3.004   2.211   4.364
 9242TIP3   OH227689   0.515   6.107   0.603
 9242TIP3    H127690   0.504   6.116   0.698
 9242TIP3    H227691   0.599   6.149   0.585
 9243TIP3   OH227692   5.187   2.699   0.703
 9243TIP3    H127693   5.110   2.689   0.647
 9243TIP3    H227694   5.242   2.624   0.682
 9244TIP3   OH227695   2.812   1.150   5.500
 9244TIP3    H127696   2.853   1.165   5.586
 9244TIP3    H227697   2.846   1.065   5.472
 9245TIP3   OH227698   4.374   4.053   5.655
 9245TIP3    H127699   4.364   4.016   5.567
 9245TIP3    H227700   4.374   4.147   5.641
 9246TIP3   OH227701   6.207   2.421   4.255
 9246TIP3    H127702   6.136   2.418   4.318
 9246TIP3    H227703   6.164   2.443   4.172
 9247TIP3   OH227704   7.196   4.662   0.730
 9247TIP3    H127705   7.111   4.692   0.762
 9247TIP3    H227706   7.196   4.687   0.637
 9248TIP3   OH227707   0.125   3.975   0.873
 9248TIP3    H127708   0.099   3.996   0.962
 9248TIP3    H227709   0.076   3.895   0.852
 9249TIP3   OH227710   6.665   3.780   5.425
 9249TIP3    H127711   6.672   3.770   5.331
 9249TIP3    H227712   6.688   3.872   5.441
 9250TIP3   OH227713   2.516   1.372   4.542
 9250TIP3    H127714   2.446   1.403   4.600
 9250TIP3    H227715   2.483   1.390   4.454
 9251TIP3   OH227716   3.197   3.650   4.496
 9251TIP3    H127717   3.124   3.698   4.457
 9251TIP3    H227718   3.255   3.629   4.423
 9252TIP3   OH227719   1.888   2.759   0.206
 9252TIP3    H127720   1.972   2.788   0.168
 9252TIP3    H227721   1.913   2.714   0.287
 9253TIP3   OH227722   0.861   2.411   0.605
 9253TIP3    H127723   0.891   2.389   0.693
 9253TIP3    H227724   0.941   2.417   0.553
 9254TIP3   OH227725   0.949   1.978   0.124
 9254TIP3    H127726   0.975   1.896   0.167
 9254TIP3    H227727   0.945   2.042   0.196
 9255TIP3   OH227728   6.710   2.145   4.958
 9255TIP3    H127729   6.787   2.110   5.002
 9255TIP3    H227730   6.637   2.119   5.013
 9256TIP3   OH227731   4.337   6.490   2.049
 9256TIP3    H127732   4.260   6.463   2.099
 9256TIP3    H227733   4.343   6.427   1.978
 9257TIP3   OH227734   2.625   5.067   3.726
 9257TIP3    H127735   2.576   5.138   3.685
 9257TIP3    H227736   2.717   5.094   3.720
 9258TIP3   OH227737   6.344   2.642   4.968
 9258TIP3    H127738   6.349   2.547   4.977
 9258TIP3    H227739   6.272   2.668   5.025
 9259TIP3   OH227740   7.125   3.110   0.418
 9259TIP3    H127741   7.056   3.158   0.465
 9259TIP3    H227742   7.202   3.119   0.473
 9260TIP3   OH227743   2.194   6.036   4.150
 9260TIP3    H127744   2.161   6.126   4.151
 9260TIP3    H227745   2.268   6.038   4.090
 9261TIP3   OH227746   5.466   3.150   0.287
 9261TIP3    H127747   5.440   3.233   0.328
 9261TIP3    H227748   5.433   3.157   0.197
 9262TIP3   OH227749   5.663   5.382   0.508
 9262TIP3    H127750   5.619   5.371   0.593
 9262TIP3    H227751   5.724   5.455   0.522
 9263TIP3   OH227752   7.028   4.049   3.384
 9263TIP3    H127753   7.042   4.135   3.423
 9263TIP3    H227754   7.044   3.987   3.454
 9264TIP3   OH227755   4.453   6.136   4.962
 9264TIP3    H127756   4.396   6.062   4.982
 9264TIP3    H227757   4.533   6.119   5.012
 9265TIP3   OH227758   2.162   5.677   0.774
 9265TIP3    H127759   2.219   5.611   0.813
 9265TIP3    H227760   2.196   5.688   0.685
 9266TIP3   OH227761   3.902   0.716   3.876
 9266TIP3    H127762   3.948   0.641   3.839
 9266TIP3    H227763   3.951   0.738   3.955
 9267TIP3   OH227764   0.426   1.558   5.083
 9267TIP3    H127765   0.338   1.546   5.118
 9267TIP3    H227766   0.447   1.475   5.042
 9268TIP3   OH227767   2.840   2.119   0.767
 9268TIP3    H127768   2.890   2.085   0.842
 9268TIP3    H227769   2.900   2.179   0.724
 9269TIP3   OH227770   5.326   4.831   4.612
 9269TIP3    H127771   5.274   4.775   4.554
 9269TIP3    H227772   5.406   4.780   4.628
 9270TIP3   OH227773   0.853   3.115   1.644
 9270TIP3    H127774   0.898   3.055   1.703
 9270TIP3    H227775   0.908   3.116   1.565
 9271TIP3   OH227776   5.363   3.993   5.504
 9271TIP3    H127777   5.287   4.006   5.560
 9271TIP3    H227778   5.346   3.911   5.458
 9272TIP3   OH227779   0.732   1.073   0.372
 9272TIP3    H127780   0.683   1.154   0.388
 9272TIP3    H227781   0.732   1.028   0.457
 9273TIP3   OH227782   4.732   1.119   5.524
 9273TIP3    H127783   4.822   1.152   5.526
 9273TIP3    H227784   4.702   1.126   5.615
 9274TIP3   OH227785   1.066   5.655   4.498
 9274TIP3    H127786   1.081   5.601   4.576
 9274TIP3    H227787   1.154   5.682   4.471
 9275TIP3   OH227788   0.696   2.448   4.634
 9275TIP3    H127789   0.653   2.372   4.596
 9275TIP3    H227790   0.661   2.454   4.723
 9276TIP3   OH227791   5.898   3.013   4.497
 9276TIP3    H127792   5.921   3.037   4.407
 9276TIP3    H227793   5.808   2.979   4.490
 9277TIP3   OH227794   4.913   0.600   2.197
 9277TIP3    H127795   4.983   0.662   2.219
 9277TIP3    H227796   4.911   0.539   2.271
 9278TIP3   OH227797   3.607   4.781   4.038
 9278TIP3    H127798   3.676   4.732   4.082
 9278TIP3    H227799   3.533   4.776   4.099
 9279TIP3   OH227800   4.236   6.146   2.799
 9279TIP3    H127801   4.147   6.121   2.823
 9279TIP3    H227802   4.226   6.219   2.737
 9280TIP3   OH227803   4.972   5.737   4.288
 9280TIP3    H127804   4.914   5.671   4.325
 9280TIP3    H227805   5.027   5.764   4.361
 9281TIP3   OH227806   2.756   6.278   4.850
 9281TIP3    H127807   2.771   6.279   4.944
 9281TIP3    H227808   2.682   6.219   4.838
 9282TIP3   OH227809   3.816   4.915   2.061
 9282TIP3    H127810   3.740   4.935   2.007
 9282TIP3    H227811   3.839   4.825   2.037
 9283TIP3   OH227812   6.846   0.238   4.827
 9283TIP3    H127813   6.919   0.268   4.773
 9283TIP3    H227814   6.770   0.285   4.793
 9284TIP3   OH227815   7.061   1.810   0.780
 9284TIP3    H127816   7.000   1.743   0.811
 9284TIP3    H227817   7.030   1.831   0.691
 9285TIP3   OH227818   0.327   2.608   2.754
 9285TIP3    H127819   0.416   2.633   2.732
 9285TIP3    H227820   0.327   2.512   2.751
 9286TIP3   OH227821   3.489   6.423   3.168
 9286TIP3    H127822   3.401   6.453   3.144
 9286TIP3    H227823   3.478   6.379   3.252
 9287TIP3   OH227824   0.298   6.173   4.847
 9287TIP3    H127825   0.286   6.267   4.854
 9287TIP3    H227826   0.382   6.156   4.889
 9288TIP3   OH227827   6.977   3.011   3.813
 9288TIP3    H127828   6.942   2.925   3.839
 9288TIP3    H227829   6.990   3.057   3.896
 9289TIP3   OH227830   0.484   2.792   4.153
 9289TIP3    H127831   0.418   2.826   4.213
 9289TIP3    H227832   0.454   2.704   4.131
 9290TIP3   OH227833   6.073   5.157   3.527
 9290TIP3    H127834   6.023   5.226   3.483
 9290TIP3    H227835   6.112   5.107   3.455
 9291TIP3   OH227836   2.057   3.847   4.842
 9291TIP3    H127837   2.055   3.939   4.869
 9291TIP3    H227838   2.001   3.802   4.906
 9292TIP3   OH227839   4.095   0.929   2.701
 9292TIP3    H127840   4.099   0.903   2.793
 9292TIP3    H227841   4.181   0.965   2.682
 9293TIP3   OH227842   5.192   0.415   3.414
 9293TIP3    H127843   5.147   0.493   3.448
 9293TIP3    H227844   5.285   0.432   3.432
 9294TIP3   OH227845   6.694   1.255   4.892
 9294TIP3    H127846   6.675   1.189   4.958
 9294TIP3    H227847   6.646   1.333   4.921
 9295TIP3   OH227848   4.730   3.227   2.910
 9295TIP3    H127849   4.701   3.219   2.819
 9295TIP3    H227850   4.662   3.279   2.952
 9296TIP3   OH227851   2.065   1.462   1.026
 9296TIP3    H127852   2.093   1.540   1.073
 9296TIP3    H227853   1.993   1.492   0.971
 9297TIP3   OH227854   2.675   4.853   0.217
 9297TIP3    H127855   2.717   4.803   0.287
 9297TIP3    H227856   2.666   4.791   0.145
 9298TIP3   OH227857   4.914   0.543   1.274
 9298TIP3    H127858   4.848   0.532   1.206
 9298TIP3    H227859   4.869   0.517   1.355
 9299TIP3   OH227860   5.484   6.506   3.383
 9299TIP3    H127861   5.542   6.506   3.459
 9299TIP3    H227862   5.403   6.465   3.415
 9300TIP3   OH227863   6.670   0.958   3.044
 9300TIP3    H127864   6.673   0.915   3.130
 9300TIP3    H227865   6.579   0.949   3.016
 9301TIP3   OH227866   1.226   1.474   0.892
 9301TIP3    H127867   1.239   1.554   0.841
 9301TIP3    H227868   1.278   1.488   0.972
 9302TIP3   OH227869   2.271   4.680   2.061
 9302TIP3    H127870   2.245   4.722   1.979
 9302TIP3    H227871   2.364   4.700   2.069
 9303TIP3   OH227872   5.561   4.709   5.201
 9303TIP3    H127873   5.475   4.697   5.160
 9303TIP3    H227874   5.542   4.746   5.287
 9304TIP3   OH227875   0.434   5.469   1.963
 9304TIP3    H127876   0.522   5.506   1.955
 9304TIP3    H227877   0.448   5.376   1.979
 9305TIP3   OH227878   2.950   0.902   2.470
 9305TIP3    H127879   3.017   0.872   2.408
 9305TIP3    H227880   2.878   0.840   2.460
 9306TIP3   OH227881   5.694   4.374   1.175
 9306TIP3    H127882   5.770   4.408   1.128
 9306TIP3    H227883   5.698   4.279   1.163
 9307TIP3   OH227884   3.647   3.051   4.855
 9307TIP3    H127885   3.664   2.977   4.796
 9307TIP3    H227886   3.694   3.124   4.815
 9308TIP3   OH227887   6.639   2.980   5.276
 9308TIP3    H127888   6.596   3.065   5.285
 9308TIP3    H227889   6.589   2.935   5.208
 9309TIP3   OH227890   6.588   2.839   5.760
 9309TIP3    H127891   6.613   2.920   5.716
 9309TIP3    H227892   6.658   2.824   5.824
 9310TIP3   OH227893   1.356   1.397   1.927
 9310TIP3    H127894   1.340   1.305   1.949
 9310TIP3    H227895   1.278   1.443   1.956
 9311TIP3   OH227896   6.086   2.849   5.662
 9311TIP3    H127897   6.027   2.924   5.651
 9311TIP3    H227898   6.160   2.885   5.712
 9312TIP3   OH227899   1.226   6.353   0.748
 9312TIP3    H127900   1.261   6.278   0.700
 9312TIP3    H227901   1.199   6.317   0.833
 9313TIP3   OH227902   3.226   3.288   4.896
 9313TIP3    H127903   3.310   3.295   4.940
 9313TIP3    H227904   3.166   3.339   4.949
 9314TIP3   OH227905   5.963   4.264   5.036
 9314TIP3    H127906   5.958   4.321   4.960
 9314TIP3    H227907   6.037   4.207   5.018
 9315TIP3   OH227908   4.580   6.598   3.697
 9315TIP3    H127909   4.486   6.585   3.713
 9315TIP3    H227910   4.622   6.523   3.738
 9316TIP3   OH227911   4.350   0.659   5.764
 9316TIP3    H127912   4.337   0.695   5.676
 9316TIP3    H227913   4.432   0.700   5.794
 9317TIP3   OH227914   5.342   0.208   5.103
 9317TIP3    H127915   5.369   0.254   5.023
 9317TIP3    H227916   5.377   0.120   5.092
 9318TIP3   OH227917   4.196   4.680   3.684
 9318TIP3    H127918   4.164   4.741   3.749
 9318TIP3    H227919   4.197   4.595   3.729
 9319TIP3   OH227920   0.955   4.048   5.383
 9319TIP3    H127921   0.957   4.133   5.338
 9319TIP3    H227922   0.992   4.066   5.469
 9320TIP3   OH227923   5.958   1.583   1.308
 9320TIP3    H127924   6.046   1.614   1.331
 9320TIP3    H227925   5.967   1.488   1.300
 9321TIP3   OH227926   7.217   1.995   2.187
 9321TIP3    H127927   7.130   1.987   2.148
 9321TIP3    H227928   7.217   2.082   2.228
 9322TIP3   OH227929   3.137   6.125   1.704
 9322TIP3    H127930   3.170   6.194   1.647
 9322TIP3    H227931   3.170   6.146   1.791
 9323TIP3   OH227932   3.606   3.511   1.188
 9323TIP3    H127933   3.549   3.538   1.260
 9323TIP3    H227934   3.556   3.445   1.141
 9324TIP3   OH227935   7.066   5.688   5.826
 9324TIP3    H127936   7.052   5.595   5.809
 9324TIP3    H227937   6.978   5.722   5.844
 9325TIP3   OH227938   5.983   2.914   1.950
 9325TIP3    H127939   5.983   2.985   2.014
 9325TIP3    H227940   6.075   2.901   1.928
 9326TIP3   OH227941   4.897   4.173   0.816
 9326TIP3    H127942   4.820   4.118   0.831
 9326TIP3    H227943   4.960   4.115   0.772
 9327TIP3   OH227944   0.337   2.379   5.074
 9327TIP3    H127945   0.402   2.312   5.098
 9327TIP3    H227946   0.253   2.340   5.098
 9328TIP3   OH227947   5.133   1.492   5.735
 9328TIP3    H127948   5.049   1.488   5.690
 9328TIP3    H227949   5.111   1.523   5.823
 9329TIP3   OH227950   6.370   2.393   5.849
 9329TIP3    H127951   6.280   2.389   5.818
 9329TIP3    H227952   6.380   2.481   5.885
 9330TIP3   OH227953   3.195   1.618   0.285
 9330TIP3    H127954   3.173   1.685   0.220
 9330TIP3    H227955   3.290   1.609   0.279
 9331TIP3   OH227956   4.427   5.685   0.191
 9331TIP3    H127957   4.381   5.628   0.130
 9331TIP3    H227958   4.485   5.738   0.136
 9332TIP3   OH227959   1.955   5.103   4.981
 9332TIP3    H127960   2.008   5.161   5.037
 9332TIP3    H227961   2.003   5.020   4.980
 9333TIP3   OH227962   4.133   4.950   1.122
 9333TIP3    H127963   4.079   4.907   1.056
 9333TIP3    H227964   4.148   4.883   1.188
 9334TIP3   OH227965   2.592   0.551   4.534
 9334TIP3    H127966   2.637   0.507   4.606
 9334TIP3    H227967   2.638   0.522   4.455
 9335TIP3   OH227968   0.259   5.799   5.093
 9335TIP3    H127969   0.225   5.881   5.057
 9335TIP3    H227970   0.298   5.754   5.018
 9336TIP3   OH227971   5.151   1.230   4.872
 9336TIP3    H127972   5.223   1.184   4.829
 9336TIP3    H227973   5.157   1.206   4.964
 9337TIP3   OH227974   4.486   4.305   1.290
 9337TIP3    H127975   4.522   4.254   1.362
 9337TIP3    H227976   4.527   4.391   1.298
 9338TIP3   OH227977   1.102   5.796   2.615
 9338TIP3    H127978   1.129   5.887   2.598
 9338TIP3    H227979   1.162   5.766   2.684
 9339TIP3   OH227980   6.380   4.502   4.666
 9339TIP3    H127981   6.439   4.428   4.654
 9339TIP3    H227982   6.436   4.574   4.696
 9340TIP3   OH227983   0.322   4.933   0.135
 9340TIP3    H127984   0.404   4.886   0.154
 9340TIP3    H227985   0.338   5.022   0.166
 9341TIP3   OH227986   2.764   3.139   2.962
 9341TIP3    H127987   2.724   3.213   3.008
 9341TIP3    H227988   2.691   3.094   2.919
 9342TIP3   OH227989   6.428   1.493   0.628
 9342TIP3    H127990   6.508   1.491   0.681
 9342TIP3    H227991   6.381   1.571   0.658
 9343TIP3   OH227992   3.248   0.432   2.744
 9343TIP3    H127993   3.210   0.411   2.829
 9343TIP3    H227994   3.174   0.433   2.683
 9344TIP3   OH227995   5.603   1.939   4.126
 9344TIP3    H127996   5.532   1.955   4.064
 9344TIP3    H227997   5.677   1.912   4.072
 9345TIP3   OH227998   6.088   1.068   0.822
 9345TIP3    H127999   6.062   1.046   0.911
 9345TIP3    H228000   6.151   1.001   0.798
 9346TIP3   OH228001   0.994   4.521   3.843
 9346TIP3    H128002   0.930   4.579   3.883
 9346TIP3    H228003   1.054   4.497   3.914
 9347TIP3   OH228004   2.411   4.294   3.946
 9347TIP3    H128005   2.391   4.381   3.981
 9347TIP3    H228006   2.486   4.265   3.998
 9348TIP3   OH228007   0.229   5.471   3.093
 9348TIP3    H128008   0.140   5.469   3.129
 9348TIP3    H228009   0.224   5.419   3.013
 9349TIP3   OH228010   2.418   4.799   1.097
 9349TIP3    H128011   2.411   4.720   1.044
 9349TIP3    H228012   2.455   4.769   1.180
 9350TIP3   OH228013   1.892   0.767   3.788
 9350TIP3    H128014   1.927   0.696   3.841
 9350TIP3    H228015   1.891   0.733   3.699
 9351TIP3   OH228016   3.759   4.026   2.463
 9351TIP3    H128017   3.830   4.090   2.462
 9351TIP3    H228018   3.680   4.078   2.478
 9352TIP3   OH228019   3.936   6.343   2.038
 9352TIP3    H128020   3.906   6.402   1.969
 9352TIP3    H228021   3.855   6.308   2.076
 9353TIP3   OH228022   1.736   5.329   3.685
 9353TIP3    H128023   1.651   5.369   3.669
 9353TIP3    H228024   1.730   5.294   3.774
 9354TIP3   OH228025   2.926   3.198   1.339
 9354TIP3    H128026   2.931   3.117   1.288
 9354TIP3    H228027   2.837   3.198   1.375
 9355TIP3   OH228028   5.948   4.138   1.681
 9355TIP3    H128029   5.959   4.192   1.760
 9355TIP3    H228030   5.907   4.058   1.713
 9356TIP3   OH228031   6.719   1.247   3.518
 9356TIP3    H128032   6.714   1.292   3.434
 9356TIP3    H228033   6.750   1.159   3.496
 9357TIP3   OH228034   5.616   2.658   4.586
 9357TIP3    H128035   5.547   2.595   4.607
 9357TIP3    H228036   5.601   2.681   4.495
 9358TIP3   OH228037   1.652   3.753   1.866
 9358TIP3    H128038   1.584   3.775   1.803
 9358TIP3    H228039   1.658   3.658   1.863
 9359TIP3   OH228040   2.641   3.510   4.981
 9359TIP3    H128041   2.547   3.518   4.997
 9359TIP3    H228042   2.647   3.490   4.888
 9360TIP3   OH228043   3.840   1.137   4.604
 9360TIP3    H128044   3.762   1.109   4.556
 9360TIP3    H228045   3.914   1.108   4.551
 9361TIP3   OH228046   5.536   5.801   3.675
 9361TIP3    H128047   5.448   5.834   3.695
 9361TIP3    H228048   5.593   5.878   3.685
 9362TIP3   OH228049   4.637   2.855   2.564
 9362TIP3    H128050   4.671   2.767   2.579
 9362TIP3    H228051   4.716   2.908   2.548
 9363TIP3   OH228052   6.507   1.659   1.283
 9363TIP3    H128053   6.543   1.747   1.297
 9363TIP3    H228054   6.535   1.610   1.361
 9364TIP3   OH228055   3.256   4.247   4.551
 9364TIP3    H128056   3.207   4.167   4.568
 9364TIP3    H228057   3.190   4.315   4.544
 9365TIP3   OH228058   5.052   6.338   1.649
 9365TIP3    H128059   4.971   6.350   1.599
 9365TIP3    H228060   5.122   6.346   1.584
 9366TIP3   OH228061   3.481   0.978   1.392
 9366TIP3    H128062   3.471   1.029   1.312
 9366TIP3    H228063   3.563   0.930   1.381
 9367TIP3   OH228064   3.891   2.773   0.964
 9367TIP3    H128065   3.914   2.835   0.896
 9367TIP3    H228066   3.975   2.751   1.006
 9368TIP3   OH228067   5.142   4.159   1.187
 9368TIP3    H128068   5.111   4.221   1.253
 9368TIP3    H228069   5.213   4.204   1.142
 9369TIP3   OH228070   0.821   6.091   2.279
 9369TIP3    H128071   0.865   6.154   2.222
 9369TIP3    H228072   0.891   6.034   2.310
 9370TIP3   OH228073   4.919   0.909   5.246
 9370TIP3    H128074   4.852   0.848   5.276
 9370TIP3    H228075   4.969   0.930   5.325
 9371TIP3   OH228076   0.436   5.516   5.066
 9371TIP3    H128077   0.391   5.437   5.036
 9371TIP3    H228078   0.413   5.583   5.001
 9372TIP3   OH228079   5.379   2.538   4.087
 9372TIP3    H128080   5.392   2.605   4.154
 9372TIP3    H228081   5.377   2.456   4.135
 9373TIP3   OH228082   3.037   3.099   4.410
 9373TIP3    H128083   3.091   3.051   4.347
 9373TIP3    H228084   3.074   3.075   4.495
 9374TIP3   OH228085   2.995   0.096   4.514
 9374TIP3    H128086   3.051   0.055   4.580
 9374TIP3    H228087   2.909   0.103   4.556
 9375TIP3   OH228088   1.504   4.345   3.591
 9375TIP3    H128089   1.499   4.261   3.545
 9375TIP3    H228090   1.581   4.388   3.554
 9376TIP3   OH228091   0.678   4.220   2.481
 9376TIP3    H128092   0.626   4.222   2.561
 9376TIP3    H228093   0.679   4.127   2.455
 9377TIP3   OH228094   4.709   6.055   2.902
 9377TIP3    H128095   4.770   6.065   2.829
 9377TIP3    H228096   4.675   5.966   2.893
 9378TIP3   OH228097   2.183   1.606   5.060
 9378TIP3    H128098   2.193   1.685   5.006
 9378TIP3    H228099   2.251   1.614   5.126
 9379TIP3   OH228100   0.520   4.382   3.361
 9379TIP3    H128101   0.433   4.415   3.383
 9379TIP3    H228102   0.537   4.412   3.272
 9380TIP3   OH228103   6.796   5.383   0.228
 9380TIP3    H128104   6.758   5.423   0.149
 9380TIP3    H228105   6.887   5.413   0.229
 9381TIP3   OH228106   2.701   3.671   5.774
 9381TIP3    H128107   2.683   3.700   5.863
 9381TIP3    H228108   2.632   3.710   5.720
 9382TIP3   OH228109   3.610   0.180   4.559
 9382TIP3    H128110   3.585   0.092   4.533
 9382TIP3    H228111   3.706   0.178   4.561
 9383TIP3   OH228112   2.067   5.208   0.387
 9383TIP3    H128113   2.146   5.180   0.433
 9383TIP3    H228114   1.995   5.180   0.443
 9384TIP3   OH228115   5.403   0.824   3.265
 9384TIP3    H128116   5.338   0.808   3.197
 9384TIP3    H228117   5.431   0.915   3.250
 9385TIP3   OH228118   7.061   1.678   0.298
 9385TIP3    H128119   7.053   1.738   0.372
 9385TIP3    H228120   7.156   1.664   0.289
 9386TIP3   OH228121   1.763   2.182   0.310
 9386TIP3    H128122   1.679   2.144   0.283
 9386TIP3    H228123   1.829   2.132   0.262
 9387TIP3   OH228124   2.391   4.907   3.527
 9387TIP3    H128125   2.427   4.994   3.544
 9387TIP3    H228126   2.459   4.847   3.556
 9388TIP3   OH228127   2.785   3.230   0.885
 9388TIP3    H128128   2.798   3.221   0.791
 9388TIP3    H228129   2.826   3.152   0.923
 9389TIP3   OH228130   2.949   5.226   5.571
 9389TIP3    H128131   2.940   5.305   5.624
 9389TIP3    H228132   3.020   5.177   5.612
 9390TIP3   OH228133   4.932   2.466   2.478
 9390TIP3    H128134   4.995   2.448   2.547
 9390TIP3    H228135   4.872   2.392   2.481
 9391TIP3   OH228136   3.106   2.487   0.291
 9391TIP3    H128137   3.161   2.556   0.254
 9391TIP3    H228138   3.092   2.425   0.219
 9392TIP3   OH228139   6.438   2.819   3.443
 9392TIP3    H128140   6.488   2.757   3.496
 9392TIP3    H228141   6.430   2.897   3.498
 9393TIP3   OH228142   0.210   4.280   0.936
 9393TIP3    H128143   0.148   4.263   0.864
 9393TIP3    H228144   0.295   4.254   0.900
 9394TIP3   OH228145   7.003   2.708   1.259
 9394TIP3    H128146   6.912   2.732   1.274
 9394TIP3    H228147   7.008   2.616   1.285
 9395TIP3   OH228148   3.738   2.792   2.364
 9395TIP3    H128149   3.712   2.848   2.436
 9395TIP3    H228150   3.739   2.704   2.401
 9396TIP3   OH228151   3.479   3.100   0.054
 9396TIP3    H128152   3.490   3.076  -0.038
 9396TIP3    H228153   3.438   3.024   0.094
 9397TIP3   OH228154   1.333   4.345   5.004
 9397TIP3    H128155   1.345   4.315   4.914
 9397TIP3    H228156   1.420   4.374   5.031
 9398TIP3   OH228157   2.500   4.299   0.850
 9398TIP3    H128158   2.436   4.287   0.780
 9398TIP3    H228159   2.447   4.319   0.927
 9399TIP3   OH228160   6.152   6.070   3.995
 9399TIP3    H128161   6.190   6.156   3.979
 9399TIP3    H228162   6.224   6.009   3.979
 9400TIP3   OH228163   3.540   3.776   4.472
 9400TIP3    H128164   3.472   3.749   4.411
 9400TIP3    H228165   3.602   3.702   4.473
 9401TIP3   OH228166   2.220   6.454   3.186
 9401TIP3    H128167   2.184   6.415   3.265
 9401TIP3    H228168   2.261   6.380   3.140
 9402TIP3   OH228169   0.318   4.402   1.830
 9402TIP3    H128170   0.238   4.360   1.860
 9402TIP3    H228171   0.344   4.459   1.902
 9403TIP3   OH228172   6.864   0.711   1.659
 9403TIP3    H128173   6.825   0.669   1.582
 9403TIP3    H228174   6.957   0.691   1.653
 9404TIP3   OH228175   1.101   0.680   2.718
 9404TIP3    H128176   1.066   0.591   2.714
 9404TIP3    H228177   1.106   0.708   2.627
 9405TIP3   OH228178   2.281   1.443   2.369
 9405TIP3    H128179   2.219   1.427   2.297
 9405TIP3    H228180   2.363   1.467   2.326
 9406TIP3   OH228181   5.603   6.529   2.381
 9406TIP3    H128182   5.592   6.522   2.476
 9406TIP3    H228183   5.514   6.531   2.346
 9407TIP3   OH228184   1.712   6.784   5.021
 9407TIP3    H128185   1.650   6.857   5.019
 9407TIP3    H228186   1.778   6.807   4.955
 9408TIP3   OH228187   0.539   5.311   4.206
 9408TIP3    H128188   0.523   5.231   4.156
 9408TIP3    H228189   0.626   5.298   4.245
 9409TIP3   OH228190   5.445   0.929   5.630
 9409TIP3    H128191   5.481   0.972   5.707
 9409TIP3    H228192   5.478   0.980   5.556
 9410TIP3   OH228193   4.257   0.488   3.454
 9410TIP3    H128194   4.194   0.438   3.403
 9410TIP3    H228195   4.310   0.533   3.389
 9411TIP3   OH228196   4.184   3.347   2.680
 9411TIP3    H128197   4.248   3.418   2.683
 9411TIP3    H228198   4.116   3.373   2.743
 9412TIP3   OH228199   6.665   3.927   4.777
 9412TIP3    H128200   6.687   3.965   4.692
 9412TIP3    H228201   6.677   3.833   4.766
 9413TIP3   OH228202   5.481   4.523   0.579
 9413TIP3    H128203   5.484   4.454   0.512
 9413TIP3    H228204   5.550   4.584   0.553
 9414TIP3   OH228205   0.774   4.062   0.105
 9414TIP3    H128206   0.819   4.143   0.082
 9414TIP3    H228207   0.821   3.994   0.056
 9415TIP3   OH228208   5.768   2.727   2.399
 9415TIP3    H128209   5.811   2.678   2.469
 9415TIP3    H228210   5.826   2.802   2.383
 9416TIP3   OH228211   5.509   3.526   0.154
 9416TIP3    H128212   5.517   3.606   0.205
 9416TIP3    H228213   5.586   3.474   0.179
 9417TIP3   OH228214   4.020   1.635   2.653
 9417TIP3    H128215   4.090   1.641   2.589
 9417TIP3    H228216   4.034   1.711   2.711
 9418TIP3   OH228217   2.405   3.762   2.059
 9418TIP3    H128218   2.344   3.751   2.132
 9418TIP3    H228219   2.366   3.712   1.987
 9419TIP3   OH228220   1.595   3.964   5.828
 9419TIP3    H128221   1.531   3.893   5.830
 9419TIP3    H228222   1.558   4.029   5.769
 9420TIP3   OH228223   6.130   5.853   0.359
 9420TIP3    H128224   6.167   5.795   0.293
 9420TIP3    H228225   6.129   5.939   0.317
 9421TIP3   OH228226   0.196   1.330   4.660
 9421TIP3    H128227   0.120   1.306   4.607
 9421TIP3    H228228   0.272   1.309   4.605
 9422TIP3   OH228229   3.629   1.362   0.839
 9422TIP3    H128230   3.602   1.338   0.928
 9422TIP3    H228231   3.581   1.442   0.820
 9423TIP3   OH228232   7.073   2.672   2.795
 9423TIP3    H128233   7.068   2.764   2.769
 9423TIP3    H228234   7.126   2.672   2.874
 9424TIP3   OH228235   4.322   1.706   3.365
 9424TIP3    H128236   4.319   1.779   3.304
 9424TIP3    H228237   4.239   1.660   3.353
 9425TIP3   OH228238   6.568   2.830   1.580
 9425TIP3    H128239   6.571   2.913   1.627
 9425TIP3    H228240   6.479   2.826   1.544
 9426TIP3   OH228241   2.063   1.797   0.645
 9426TIP3    H128242   2.111   1.720   0.676
 9426TIP3    H228243   1.972   1.769   0.641
 9427TIP3   OH228244   4.908   3.474   0.632
 9427TIP3    H128245   4.995   3.513   0.619
 9427TIP3    H228246   4.902   3.461   0.727
 9428TIP3   OH228247   1.267   3.795   4.895
 9428TIP3    H128248   1.240   3.841   4.815
 9428TIP3    H228249   1.187   3.791   4.948
 9429TIP3   OH228250   1.823   3.567   5.870
 9429TIP3    H128251   1.780   3.556   5.785
 9429TIP3    H228252   1.880   3.491   5.878
 9430TIP3   OH228253   5.992   0.618   3.562
 9430TIP3    H128254   6.024   0.690   3.615
 9430TIP3    H228255   5.901   0.606   3.590
 9431TIP3   OH228256   6.655   6.383   5.600
 9431TIP3    H128257   6.718   6.381   5.672
 9431TIP3    H228258   6.702   6.343   5.526
 9432TIP3   OH228259   6.578   6.187   5.180
 9432TIP3    H128260   6.613   6.178   5.091
 9432TIP3    H228261   6.542   6.101   5.200
 9433TIP3   OH228262   2.861   3.011   1.015
 9433TIP3    H128263   2.776   2.986   1.050
 9433TIP3    H228264   2.924   2.980   1.079
 9434TIP3   OH228265   5.314   5.533   5.357
 9434TIP3    H128266   5.377   5.546   5.287
 9434TIP3    H228267   5.364   5.548   5.437
 9435TIP3   OH228268   1.853   0.837   2.964
 9435TIP3    H128269   1.835   0.759   3.017
 9435TIP3    H228270   1.946   0.853   2.976
 9436TIP3   OH228271   2.563   0.189   3.785
 9436TIP3    H128272   2.616   0.115   3.754
 9436TIP3    H228273   2.473   0.163   3.769
 9437TIP3   OH228274   5.409   5.830   4.108
 9437TIP3    H128275   5.368   5.860   4.189
 9437TIP3    H228276   5.492   5.877   4.103
 9438TIP3   OH228277   0.615   0.686   2.830
 9438TIP3    H128278   0.583   0.743   2.899
 9438TIP3    H228279   0.703   0.719   2.810
 9439TIP3   OH228280   3.679   1.436   4.261
 9439TIP3    H128281   3.704   1.412   4.350
 9439TIP3    H228282   3.668   1.531   4.264
 9440TIP3   OH228283   0.505   1.177   5.776
 9440TIP3    H128284   0.502   1.111   5.845
 9440TIP3    H228285   0.466   1.133   5.700
 9441TIP3   OH228286   4.511   1.492   0.947
 9441TIP3    H128287   4.459   1.454   0.876
 9441TIP3    H228288   4.500   1.431   1.020
 9442TIP3   OH228289   2.102   5.863   4.874
 9442TIP3    H128290   2.031   5.799   4.880
 9442TIP3    H228291   2.142   5.846   4.789
 9443TIP3   OH228292   6.554   0.019   0.986
 9443TIP3    H128293   6.500   0.051   0.914
 9443TIP3    H228294   6.578  -0.070   0.960
 9444TIP3   OH228295   5.001   2.957   3.740
 9444TIP3    H128296   4.948   2.883   3.770
 9444TIP3    H228297   5.083   2.948   3.788
 9445TIP3   OH228298   3.880   2.477   4.288
 9445TIP3    H128299   3.950   2.415   4.265
 9445TIP3    H228300   3.861   2.523   4.206
 9446TIP3   OH228301   5.537   4.210   0.520
 9446TIP3    H128302   5.531   4.190   0.426
 9446TIP3    H228303   5.623   4.250   0.531
 9447TIP3   OH228304   7.221   5.871   4.608
 9447TIP3    H128305   7.244   5.778   4.601
 9447TIP3    H228306   7.153   5.883   4.541
 9448TIP3   OH228307   0.717   4.779   3.303
 9448TIP3    H128308   0.653   4.818   3.243
 9448TIP3    H228309   0.799   4.824   3.284
 9449TIP3   OH228310   4.802   3.292   3.610
 9449TIP3    H128311   4.817   3.386   3.617
 9449TIP3    H228312   4.722   3.277   3.659
 9450TIP3   OH228313   0.228   2.440   3.909
 9450TIP3    H128314   0.189   2.363   3.948
 9450TIP3    H228315   0.312   2.410   3.874
 9451TIP3   OH228316   4.040   3.131   3.369
 9451TIP3    H128317   3.956   3.086   3.371
 9451TIP3    H228318   4.085   3.101   3.448
 9452TIP3   OH228319   3.369   2.011   3.418
 9452TIP3    H128320   3.365   2.104   3.439
 9452TIP3    H228321   3.417   2.008   3.335
 9453TIP3   OH228322   5.911   2.854   2.945
 9453TIP3    H128323   5.821   2.867   2.975
 9453TIP3    H228324   5.959   2.824   3.022
 9454TIP3   OH228325   0.374   3.940   5.007
 9454TIP3    H128326   0.433   4.008   5.038
 9454TIP3    H228327   0.378   3.946   4.911
 9455TIP3   OH228328   0.187   4.955   1.992
 9455TIP3    H128329   0.238   4.897   2.048
 9455TIP3    H228330   0.224   4.943   1.905
 9456TIP3   OH228331   2.656   0.533   1.233
 9456TIP3    H128332   2.698   0.605   1.281
 9456TIP3    H228333   2.608   0.576   1.162
 9457TIP3   OH228334   6.823   3.357   1.215
 9457TIP3    H128335   6.836   3.276   1.166
 9457TIP3    H228336   6.774   3.330   1.293
 9458TIP3   OH228337   3.797   0.977   2.458
 9458TIP3    H128338   3.728   1.023   2.410
 9458TIP3    H228339   3.876   1.030   2.444
 9459TIP3   OH228340   2.967   6.479   4.770
 9459TIP3    H128341   3.057   6.445   4.775
 9459TIP3    H228342   2.917   6.424   4.830
 9460TIP3   OH228343   1.786   0.594   0.258
 9460TIP3    H128344   1.759   0.663   0.318
 9460TIP3    H228345   1.872   0.567   0.290
 9461TIP3   OH228346   5.755   4.617   0.798
 9461TIP3    H128347   5.739   4.525   0.778
 9461TIP3    H228348   5.761   4.659   0.712
 9462TIP3   OH228349   2.915   3.445   1.782
 9462TIP3    H128350   2.955   3.446   1.695
 9462TIP3    H228351   2.885   3.355   1.794
 9463TIP3   OH228352   5.304   5.952   1.075
 9463TIP3    H128353   5.387   5.931   1.033
 9463TIP3    H228354   5.237   5.917   1.016
 9464TIP3   OH228355   3.508   2.458   4.038
 9464TIP3    H128356   3.463   2.499   3.964
 9464TIP3    H228357   3.448   2.390   4.068
 9465TIP3   OH228358   0.134   1.351   0.921
 9465TIP3    H128359   0.119   1.344   1.015
 9465TIP3    H228360   0.173   1.267   0.897
 9466TIP3   OH228361   1.085   4.967   5.882
 9466TIP3    H128362   1.080   4.885   5.833
 9466TIP3    H228363   1.063   5.034   5.817
 9467TIP3   OH228364   3.006   2.615   4.284
 9467TIP3    H128365   2.977   2.567   4.361
 9467TIP3    H228366   2.933   2.673   4.263
 9468TIP3   OH228367   2.950   5.968   5.360
 9468TIP3    H128368   2.940   6.060   5.386
 9468TIP3    H228369   2.955   5.921   5.443
 9469TIP3   OH228370   6.703   6.593   1.521
 9469TIP3    H128371   6.668   6.672   1.563
 9469TIP3    H228372   6.672   6.598   1.431
 9470TIP3   OH228373   1.184   2.115   0.822
 9470TIP3    H128374   1.228   2.044   0.869
 9470TIP3    H228375   1.152   2.173   0.892
 9471TIP3   OH228376   7.173   0.553   3.613
 9471TIP3    H128377   7.206   0.472   3.652
 9471TIP3    H228378   7.206   0.622   3.671
 9472TIP3   OH228379   2.467   6.826   1.428
 9472TIP3    H128380   2.522   6.751   1.452
 9472TIP3    H228381   2.507   6.901   1.471
 9473TIP3   OH228382   0.598   3.373   2.665
 9473TIP3    H128383   0.574   3.414   2.582
 9473TIP3    H228384   0.621   3.447   2.722
 9474TIP3   OH228385   3.373   1.293   4.562
 9474TIP3    H128386   3.420   1.222   4.604
 9474TIP3    H228387   3.361   1.263   4.472
 9475TIP3   OH228388   1.253   4.043   3.647
 9475TIP3    H128389   1.168   4.050   3.603
 9475TIP3    H228390   1.239   4.085   3.732
 9476TIP3   OH228391   1.032   2.176   5.607
 9476TIP3    H128392   1.032   2.270   5.589
 9476TIP3    H228393   0.986   2.167   5.690
 9477TIP3   OH228394   2.263   3.761   5.171
 9477TIP3    H128395   2.331   3.732   5.232
 9477TIP3    H228396   2.181   3.731   5.210
 9478TIP3   OH228397   4.258   0.273   0.980
 9478TIP3    H128398   4.198   0.217   1.029
 9478TIP3    H228399   4.202   0.341   0.943
 9479TIP3   OH228400   3.196   0.116   1.510
 9479TIP3    H128401   3.162   0.033   1.477
 9479TIP3    H228402   3.123   0.177   1.502
 9480TIP3   OH228403   2.570   5.031   5.780
 9480TIP3    H128404   2.648   5.046   5.833
 9480TIP3    H228405   2.602   5.023   5.690
 9481TIP3   OH228406   6.317   4.941   4.813
 9481TIP3    H128407   6.356   5.019   4.854
 9481TIP3    H228408   6.386   4.875   4.815
 9482TIP3   OH228409   3.323   6.267   2.483
 9482TIP3    H128410   3.265   6.343   2.485
 9482TIP3    H228411   3.351   6.256   2.574
 9483TIP3   OH228412   2.772   6.386   2.261
 9483TIP3    H128413   2.827   6.315   2.294
 9483TIP3    H228414   2.759   6.444   2.336
 9484TIP3   OH228415   0.235   2.051   2.114
 9484TIP3    H128416   0.302   2.097   2.165
 9484TIP3    H228417   0.163   2.038   2.175
 9485TIP3   OH228418   2.062   3.607   0.109
 9485TIP3    H128419   2.112   3.663   0.168
 9485TIP3    H228420   2.057   3.658   0.027
 9486TIP3   OH228421   5.625   5.350   3.516
 9486TIP3    H128422   5.583   5.353   3.602
 9486TIP3    H228423   5.583   5.277   3.471
 9487TIP3   OH228424   0.213   2.850   2.760
 9487TIP3    H128425   0.225   2.755   2.770
 9487TIP3    H228426   0.282   2.888   2.815
 9488TIP3   OH228427   4.580   6.176   0.641
 9488TIP3    H128428   4.652   6.217   0.690
 9488TIP3    H228429   4.538   6.249   0.595
 9489TIP3   OH228430   1.128   3.442   0.223
 9489TIP3    H128431   1.154   3.432   0.132
 9489TIP3    H228432   1.088   3.358   0.246
 9490TIP3   OH228433   6.390   2.812   1.238
 9490TIP3    H128434   6.480   2.816   1.207
 9490TIP3    H228435   6.338   2.849   1.167
 9491TIP3   OH228436   5.518   0.020   5.484
 9491TIP3    H128437   5.474   0.061   5.559
 9491TIP3    H228438   5.517   0.087   5.416
 9492TIP3   OH228439   4.940   5.728   2.137
 9492TIP3    H128440   4.965   5.717   2.228
 9492TIP3    H228441   4.972   5.815   2.113
 9493TIP3   OH228442   3.968   1.946   0.719
 9493TIP3    H128443   3.895   2.006   0.734
 9493TIP3    H228444   3.949   1.905   0.634
 9494TIP3   OH228445   3.652   3.256   4.002
 9494TIP3    H128446   3.622   3.181   4.052
 9494TIP3    H228447   3.606   3.249   3.918
 9495TIP3   OH228448   6.029   2.249   1.040
 9495TIP3    H128449   5.998   2.163   1.010
 9495TIP3    H228450   6.007   2.309   0.968
 9496TIP3   OH228451   4.423   5.191   0.189
 9496TIP3    H128452   4.450   5.244   0.265
 9496TIP3    H228453   4.494   5.204   0.125
 9497TIP3   OH228454   6.187   1.997   1.413
 9497TIP3    H128455   6.169   1.922   1.469
 9497TIP3    H228456   6.234   2.059   1.470
 9498TIP3   OH228457   5.844   4.457   0.284
 9498TIP3    H128458   5.838   4.549   0.258
 9498TIP3    H228459   5.925   4.426   0.243
 9499TIP3   OH228460   6.473   6.002   5.389
 9499TIP3    H128461   6.464   6.048   5.472
 9499TIP3    H228462   6.384   5.998   5.354
 9500TIP3   OH228463   4.020   1.310   3.520
 9500TIP3    H128464   3.982   1.295   3.434
 9500TIP3    H228465   4.091   1.247   3.527
 9501TIP3   OH228466   0.836   1.933   4.919
 9501TIP3    H128467   0.850   1.854   4.971
 9501TIP3    H228468   0.868   1.910   4.832
 9502TIP3   OH228469   2.765   1.635   4.479
 9502TIP3    H128470   2.694   1.603   4.534
 9502TIP3    H228471   2.845   1.614   4.528
 9503TIP3   OH228472   4.590   0.121   0.447
 9503TIP3    H128473   4.545   0.140   0.530
 9503TIP3    H228474   4.632   0.036   0.462
 9504TIP3   OH228475   3.153   3.254   1.124
 9504TIP3    H128476   3.117   3.209   1.201
 9504TIP3    H228477   3.121   3.204   1.049
 9505TIP3   OH228478   3.387  -0.030   3.368
 9505TIP3    H128479   3.320  -0.022   3.435
 9505TIP3    H228480   3.460  -0.074   3.412
 9506TIP3   OH228481   2.450   1.767   4.536
 9506TIP3    H128482   2.512   1.709   4.580
 9506TIP3    H228483   2.484   1.855   4.550
 9507TIP3   OH228484   6.702   6.146   4.908
 9507TIP3    H128485   6.677   6.055   4.890
 9507TIP3    H228486   6.652   6.197   4.845
 9508TIP3   OH228487   1.465   0.035   5.150
 9508TIP3    H128488   1.444  -0.004   5.065
 9508TIP3    H228489   1.513  -0.033   5.197
 9509TIP3   OH228490   0.350   0.363   1.822
 9509TIP3    H128491   0.270   0.358   1.770
 9509TIP3    H228492   0.326   0.417   1.897
 9510TIP3   OH228493   2.172   1.270   3.907
 9510TIP3    H128494   2.239   1.240   3.845
 9510TIP3    H228495   2.148   1.191   3.956
 9511TIP3   OH228496   5.315   4.629   5.101
 9511TIP3    H128497   5.243   4.570   5.080
 9511TIP3    H228498   5.299   4.707   5.048
 9512TIP3   OH228499   5.225   0.731   3.066
 9512TIP3    H128500   5.161   0.661   3.057
 9512TIP3    H228501   5.203   0.793   2.997
 9513TIP3   OH228502   5.696   3.701   2.568
 9513TIP3    H128503   5.648   3.779   2.540
 9513TIP3    H228504   5.646   3.668   2.642
 9514TIP3   OH228505   1.015   2.936   1.475
 9514TIP3    H128506   0.984   2.963   1.389
 9514TIP3    H228507   1.098   2.982   1.486
 9515TIP3   OH228508   5.729   0.830   1.151
 9515TIP3    H128509   5.812   0.875   1.136
 9515TIP3    H228510   5.754   0.738   1.162
 9516TIP3   OH228511   5.058   0.051   2.252
 9516TIP3    H128512   5.107   0.067   2.332
 9516TIP3    H228513   4.986  -0.006   2.278
 9517TIP3   OH228514   4.642   5.806   2.609
 9517TIP3    H128515   4.634   5.900   2.622
 9517TIP3    H228516   4.605   5.790   2.522
 9518TIP3   OH228517   5.302   6.535   2.540
 9518TIP3    H128518   5.223   6.588   2.533
 9518TIP3    H228519   5.318   6.504   2.451
 9519TIP3   OH228520   0.046   3.825   0.421
 9519TIP3    H128521  -0.034   3.784   0.388
 9519TIP3    H228522   0.111   3.812   0.352
 9520TIP3   OH228523   4.264   6.345   5.537
 9520TIP3    H128524   4.279   6.397   5.458
 9520TIP3    H228525   4.204   6.398   5.589
 9521TIP3   OH228526   6.817   5.513   2.658
 9521TIP3    H128527   6.759   5.437   2.650
 9521TIP3    H228528   6.842   5.515   2.750
 9522TIP3   OH228529   3.808   5.175   0.917
 9522TIP3    H128530   3.796   5.176   0.822
 9522TIP3    H228531   3.736   5.229   0.950
 9523TIP3   OH228532   2.546   1.082   2.955
 9523TIP3    H128533   2.521   1.111   2.868
 9523TIP3    H228534   2.468   1.039   2.991
 9524TIP3   OH228535   4.819   4.122   0.478
 9524TIP3    H128536   4.747   4.123   0.541
 9524TIP3    H228537   4.776   4.126   0.393
 9525TIP3   OH228538   3.121   5.393   1.548
 9525TIP3    H128539   3.145   5.480   1.582
 9525TIP3    H228540   3.204   5.357   1.516
 9526TIP3   OH228541   2.369   3.551   0.465
 9526TIP3    H128542   2.362   3.510   0.551
 9526TIP3    H228543   2.352   3.480   0.403
 9527TIP3   OH228544   5.317   6.263   0.445
 9527TIP3    H128545   5.237   6.235   0.489
 9527TIP3    H228546   5.364   6.314   0.512
 9528TIP3   OH228547   4.609   3.153   2.687
 9528TIP3    H128548   4.620   3.060   2.667
 9528TIP3    H228549   4.522   3.174   2.654
 9529TIP3   OH228550   6.134   0.782   1.486
 9529TIP3    H128551   6.107   0.874   1.480
 9529TIP3    H228552   6.053   0.732   1.472
 9530TIP3   OH228553   0.875   4.963   4.633
 9530TIP3    H128554   0.950   4.924   4.589
 9530TIP3    H228555   0.848   4.898   4.698
 9531TIP3   OH228556   1.102   6.275   3.667
 9531TIP3    H128557   1.134   6.266   3.578
 9531TIP3    H228558   1.171   6.322   3.714
 9532TIP3   OH228559   3.679   1.629   5.040
 9532TIP3    H128560   3.589   1.629   5.006
 9532TIP3    H228561   3.677   1.693   5.111
 9533TIP3   OH228562   1.257   0.852   4.030
 9533TIP3    H128563   1.334   0.875   3.978
 9533TIP3    H228564   1.227   0.769   3.993
 9534TIP3   OH228565   2.942   4.667   1.425
 9534TIP3    H128566   2.877   4.661   1.355
 9534TIP3    H228567   2.991   4.585   1.418
 9535TIP3   OH228568   3.336   2.949   4.353
 9535TIP3    H128569   3.311   3.015   4.288
 9535TIP3    H228570   3.320   2.865   4.310
 9536TIP3   OH228571   6.028   2.436   4.023
 9536TIP3    H128572   5.967   2.469   3.957
 9536TIP3    H228573   5.987   2.357   4.057
 9537TIP3   OH228574   0.770   4.153   5.749
 9537TIP3    H128575   0.856   4.153   5.706
 9537TIP3    H228576   0.721   4.222   5.704
 9538TIP3   OH228577   4.660   3.562   0.563
 9538TIP3    H128578   4.743   3.536   0.602
 9538TIP3    H228579   4.683   3.603   0.480
 9539TIP3   OH228580   6.183   5.348   3.138
 9539TIP3    H128581   6.177   5.274   3.077
 9539TIP3    H228582   6.275   5.350   3.163
 9540TIP3   OH228583   1.033   6.734   3.124
 9540TIP3    H128584   1.103   6.676   3.155
 9540TIP3    H228585   0.985   6.758   3.203
 9541TIP3   OH228586   3.404   2.366   1.716
 9541TIP3    H128587   3.427   2.279   1.747
 9541TIP3    H228588   3.476   2.422   1.745
 9542TIP3   OH228589   0.473   0.756   3.834
 9542TIP3    H128590   0.545   0.819   3.827
 9542TIP3    H228591   0.498   0.698   3.906
 9543TIP3   OH228592   2.052   4.536   4.008
 9543TIP3    H128593   2.061   4.594   4.083
 9543TIP3    H228594   1.960   4.543   3.983
 9544TIP3   OH228595   6.758   1.131   0.136
 9544TIP3    H128596   6.746   1.173   0.222
 9544TIP3    H228597   6.724   1.042   0.148
 9545TIP3   OH228598   5.648   0.637   4.281
 9545TIP3    H128599   5.742   0.616   4.283
 9545TIP3    H228600   5.605   0.553   4.268
 9546TIP3   OH228601   6.609   2.593   5.186
 9546TIP3    H128602   6.689   2.619   5.231
 9546TIP3    H228603   6.577   2.674   5.145
 9547TIP3   OH228604   0.976   6.037   1.104
 9547TIP3    H128605   0.887   6.073   1.112
 9547TIP3    H228606   0.963   5.949   1.069
 9548TIP3   OH228607   1.361   2.894   0.007
 9548TIP3    H128608   1.412   2.899   0.087
 9548TIP3    H228609   1.385   2.810  -0.032
 9549TIP3   OH228610   6.631   5.447   3.303
 9549TIP3    H128611   6.689   5.421   3.376
 9549TIP3    H228612   6.690   5.490   3.241
 9550TIP3   OH228613   3.326   1.013   4.374
 9550TIP3    H128614   3.249   1.058   4.338
 9550TIP3    H228615   3.298   0.984   4.461
 9551TIP3   OH228616   1.731   2.125   4.122
 9551TIP3    H128617   1.736   2.069   4.045
 9551TIP3    H228618   1.657   2.091   4.172
 9552TIP3   OH228619   1.489   2.095   3.840
 9552TIP3    H128620   1.535   2.172   3.874
 9552TIP3    H228621   1.487   2.033   3.912
 9553TIP3   OH228622   0.502   1.592   0.904
 9553TIP3    H128623   0.578   1.554   0.860
 9553TIP3    H228624   0.537   1.627   0.986
 9554TIP3   OH228625   6.685   0.626   3.200
 9554TIP3    H128626   6.677   0.709   3.246
 9554TIP3    H228627   6.751   0.641   3.133
 9555TIP3   OH228628   3.537   4.735   2.863
 9555TIP3    H128629   3.519   4.675   2.936
 9555TIP3    H228630   3.623   4.708   2.830
 9556TIP3   OH228631   5.111   2.284   0.589
 9556TIP3    H128632   5.147   2.368   0.558
 9556TIP3    H228633   5.034   2.309   0.640
 9557TIP3   OH228634   6.822   4.227   3.088
 9557TIP3    H128635   6.794   4.162   3.153
 9557TIP3    H228636   6.751   4.230   3.024
 9558TIP3   OH228637   4.293   1.239   0.250
 9558TIP3    H128638   4.341   1.297   0.191
 9558TIP3    H228639   4.332   1.152   0.236
 9559TIP3   OH228640   4.949   0.210   1.582
 9559TIP3    H128641   4.870   0.256   1.609
 9559TIP3    H228642   5.004   0.278   1.542
 9560TIP3   OH228643   3.963   0.939   1.372
 9560TIP3    H128644   3.874   0.937   1.338
 9560TIP3    H228645   3.967   1.017   1.427
 9561TIP3   OH228646   0.534   6.334   4.081
 9561TIP3    H128647   0.559   6.389   4.155
 9561TIP3    H228648   0.459   6.284   4.112
 9562TIP3   OH228649   6.120   4.303   5.728
 9562TIP3    H128650   6.092   4.358   5.801
 9562TIP3    H228651   6.050   4.239   5.717
 9563TIP3   OH228652   4.614   4.813   4.399
 9563TIP3    H128653   4.561   4.777   4.328
 9563TIP3    H228654   4.571   4.895   4.422
 9564TIP3   OH228655   0.948   5.772   1.035
 9564TIP3    H128656   0.882   5.709   1.007
 9564TIP3    H228657   1.023   5.756   0.977
 9565TIP3   OH228658   4.251   1.303   3.305
 9565TIP3    H128659   4.220   1.393   3.317
 9565TIP3    H228660   4.285   1.277   3.391
 9566TIP3   OH228661   2.503   3.311   5.408
 9566TIP3    H128662   2.545   3.393   5.432
 9566TIP3    H228663   2.441   3.335   5.338
 9567TIP3   OH228664   6.568   6.235   4.665
 9567TIP3    H128665   6.489   6.188   4.637
 9567TIP3    H228666   6.608   6.265   4.584
 9568TIP3   OH228667   2.795   5.370   0.821
 9568TIP3    H128668   2.805   5.326   0.906
 9568TIP3    H228669   2.761   5.457   0.844
 9569TIP3   OH228670   7.079   3.311   1.636
 9569TIP3    H128671   6.994   3.295   1.678
 9569TIP3    H228672   7.128   3.231   1.651
 9570TIP3   OH228673   0.790   4.883   2.564
 9570TIP3    H128674   0.780   4.816   2.497
 9570TIP3    H228675   0.701   4.906   2.590
 9571TIP3   OH228676   0.838   3.281   2.500
 9571TIP3    H128677   0.786   3.221   2.554
 9571TIP3    H228678   0.779   3.306   2.428
 9572TIP3   OH228679   4.597   5.782   2.988
 9572TIP3    H128680   4.511   5.755   2.957
 9572TIP3    H228681   4.580   5.832   3.068
 9573TIP3   OH228682   4.565   3.148   2.143
 9573TIP3    H128683   4.647   3.102   2.124
 9573TIP3    H228684   4.523   3.093   2.209
 9574TIP3   OH228685   6.193   1.100   2.608
 9574TIP3    H128686   6.226   1.063   2.527
 9574TIP3    H228687   6.105   1.063   2.618
 9575TIP3   OH228688   1.521   1.600   0.047
 9575TIP3    H128689   1.588   1.650   0.000
 9575TIP3    H228690   1.562   1.515   0.063
 9576TIP3   OH228691   4.331   6.142   1.354
 9576TIP3    H128692   4.382   6.162   1.433
 9576TIP3    H228693   4.243   6.125   1.386
 9577TIP3   OH228694   1.558   5.049   3.684
 9577TIP3    H128695   1.587   5.128   3.729
 9577TIP3    H228696   1.462   5.054   3.685
 9578TIP3   OH228697   6.913   0.188   1.558
 9578TIP3    H128698   6.835   0.224   1.601
 9578TIP3    H228699   6.910   0.095   1.580
 9579TIP3   OH228700   1.025   4.210   2.997
 9579TIP3    H128701   0.966   4.216   3.072
 9579TIP3    H228702   1.092   4.277   3.014
 9580TIP3   OH228703   4.487   4.140   0.504
 9580TIP3    H128704   4.485   4.233   0.480
 9580TIP3    H228705   4.407   4.126   0.555
 9581TIP3   OH228706   3.671   5.412   4.544
 9581TIP3    H128707   3.684   5.322   4.571
 9581TIP3    H228708   3.733   5.463   4.597
 9582TIP3   OH228709   0.178   0.252   1.610
 9582TIP3    H128710   0.119   0.185   1.576
 9582TIP3    H228711   0.121   0.318   1.649
 9583TIP3   OH228712   3.569   0.963   3.155
 9583TIP3    H128713   3.636   0.935   3.093
 9583TIP3    H228714   3.606   1.039   3.198
 9584TIP3   OH228715   0.487   2.926   3.900
 9584TIP3    H128716   0.516   2.853   3.845
 9584TIP3    H228717   0.448   2.885   3.977
 9585TIP3   OH228718   4.143   4.106   3.628
 9585TIP3    H128719   4.137   4.201   3.637
 9585TIP3    H228720   4.230   4.084   3.660
 9586TIP3   OH228721   4.258   1.251   4.192
 9586TIP3    H128722   4.231   1.343   4.184
 9586TIP3    H228723   4.282   1.225   4.103
 9587TIP3   OH228724   2.428   0.100   5.181
 9587TIP3    H128725   2.441   0.026   5.121
 9587TIP3    H228726   2.516   0.132   5.200
 9588TIP3   OH228727   4.744   4.206   5.077
 9588TIP3    H128728   4.775   4.241   4.993
 9588TIP3    H228729   4.823   4.198   5.130
 9589TIP3   OH228730   0.309   4.655   4.571
 9589TIP3    H128731   0.306   4.566   4.538
 9589TIP3    H228732   0.279   4.648   4.662
 9590TIP3   OH228733   3.921   4.355   4.927
 9590TIP3    H128734   4.015   4.351   4.908
 9590TIP3    H228735   3.916   4.403   5.010
 9591TIP3   OH228736   4.926   4.413   1.630
 9591TIP3    H128737   4.929   4.325   1.668
 9591TIP3    H228738   4.975   4.467   1.692
 9592TIP3   OH228739   2.700   3.387   3.883
 9592TIP3    H128740   2.688   3.292   3.886
 9592TIP3    H228741   2.737   3.410   3.968
 9593TIP3   OH228742   2.721   2.879   3.473
 9593TIP3    H128743   2.809   2.840   3.475
 9593TIP3    H228744   2.705   2.905   3.564
 9594TIP3   OH228745   2.559   4.612   3.402
 9594TIP3    H128746   2.571   4.686   3.461
 9594TIP3    H228747   2.479   4.569   3.433
 9595TIP3   OH228748   2.258   4.559   1.202
 9595TIP3    H128749   2.220   4.485   1.250
 9595TIP3    H228750   2.353   4.545   1.208
 9596TIP3   OH228751   2.835   5.975   2.201
 9596TIP3    H128752   2.915   5.926   2.213
 9596TIP3    H228753   2.790   5.932   2.128
 9597TIP3   OH228754   2.820   4.245   1.180
 9597TIP3    H128755   2.853   4.326   1.219
 9597TIP3    H228756   2.858   4.176   1.233
 9598TIP3   OH228757   6.521   1.336   4.287
 9598TIP3    H128758   6.434   1.317   4.254
 9598TIP3    H228759   6.559   1.250   4.306
 9599TIP3   OH228760   4.081   2.586   4.824
 9599TIP3    H128761   4.140   2.528   4.871
 9599TIP3    H228762   3.999   2.536   4.816
 9600TIP3   OH228763   7.048   3.825   3.230
 9600TIP3    H128764   7.045   3.909   3.275
 9600TIP3    H228765   7.024   3.845   3.140
 9601TIP3   OH228766   2.932   1.890   0.323
 9601TIP3    H128767   2.860   1.951   0.336
 9601TIP3    H228768   3.007   1.930   0.368
 9602TIP3   OH228769   1.914   0.457   4.838
 9602TIP3    H128770   1.962   0.535   4.867
 9602TIP3    H228771   1.822   0.485   4.839
 9603TIP3   OH228772   2.752   1.321   1.173
 9603TIP3    H128773   2.687   1.250   1.180
 9603TIP3    H228774   2.819   1.298   1.238
 9604TIP3   OH228775   5.268   4.905   3.890
 9604TIP3    H128776   5.338   4.953   3.935
 9604TIP3    H228777   5.215   4.972   3.848
 9605TIP3   OH228778   3.991   2.469   1.981
 9605TIP3    H128779   3.981   2.541   2.044
 9605TIP3    H228780   4.033   2.399   2.031
 9606TIP3   OH228781   4.139   5.791   2.053
 9606TIP3    H128782   4.183   5.875   2.070
 9606TIP3    H228783   4.173   5.762   1.969
 9607TIP3   OH228784   6.633   0.269   1.128
 9607TIP3    H128785   6.676   0.223   1.200
 9607TIP3    H228786   6.617   0.202   1.062
 9608TIP3   OH228787   3.902   1.935   5.227
 9608TIP3    H128788   3.862   2.011   5.269
 9608TIP3    H228789   3.996   1.949   5.238
 9609TIP3   OH228790   4.519   4.379   0.234
 9609TIP3    H128791   4.484   4.374   0.145
 9609TIP3    H228792   4.442   4.389   0.290
 9610TIP3   OH228793   1.947   2.549   1.322
 9610TIP3    H128794   2.007   2.475   1.319
 9610TIP3    H228795   1.989   2.616   1.267
 9611TIP3   OH228796   3.631   6.544   0.103
 9611TIP3    H128797   3.566   6.510   0.164
 9611TIP3    H228798   3.671   6.465   0.066
 9612TIP3   OH228799   3.971   1.640   3.708
 9612TIP3    H128800   4.065   1.654   3.715
 9612TIP3    H228801   3.960   1.545   3.716
 9613TIP3   OH228802   6.159   4.054   4.182
 9613TIP3    H128803   6.101   4.085   4.252
 9613TIP3    H228804   6.104   3.996   4.129
 9614TIP3   OH228805   1.245   1.843   4.108
 9614TIP3    H128806   1.207   1.795   4.035
 9614TIP3    H228807   1.244   1.934   4.080
 9615TIP3   OH228808   0.135   5.121   3.052
 9615TIP3    H128809   0.126   5.162   3.138
 9615TIP3    H228810   0.219   5.074   3.057
 9616TIP3   OH228811   4.602   5.165   4.115
 9616TIP3    H128812   4.597   5.257   4.090
 9616TIP3    H228813   4.624   5.119   4.033
 9617TIP3   OH228814   2.953   6.236   4.634
 9617TIP3    H128815   2.956   6.321   4.591
 9617TIP3    H228816   2.905   6.252   4.715
 9618TIP3   OH228817   2.308   5.188   5.519
 9618TIP3    H128818   2.237   5.124   5.514
 9618TIP3    H228819   2.363   5.170   5.443
 9619TIP3   OH228820   0.253   5.252   5.106
 9619TIP3    H128821   0.202   5.253   5.025
 9619TIP3    H228822   0.203   5.195   5.165
 9620TIP3   OH228823   6.946   1.083   0.989
 9620TIP3    H128824   7.022   1.124   1.029
 9620TIP3    H228825   6.944   1.118   0.900
 9621TIP3   OH228826   1.754   2.979   0.296
 9621TIP3    H128827   1.787   3.027   0.221
 9621TIP3    H228828   1.788   2.890   0.284
 9622TIP3   OH228829   2.407   2.330   0.435
 9622TIP3    H128830   2.440   2.305   0.521
 9622TIP3    H228831   2.410   2.426   0.435
 9623TIP3   OH228832   6.334   1.448   5.162
 9623TIP3    H128833   6.294   1.505   5.228
 9623TIP3    H228834   6.267   1.382   5.144
 9624TIP3   OH228835   5.443   2.695   3.526
 9624TIP3    H128836   5.347   2.697   3.521
 9624TIP3    H228837   5.464   2.605   3.551
 9625TIP3   OH228838   3.259   6.569   1.008
 9625TIP3    H128839   3.241   6.538   0.919
 9625TIP3    H228840   3.250   6.491   1.063
 9626TIP3   OH228841   3.105   1.840   3.675
 9626TIP3    H128842   3.104   1.924   3.720
 9626TIP3    H228843   3.195   1.831   3.642
 9627TIP3   OH228844   4.480   5.943   1.492
 9627TIP3    H128845   4.552   6.006   1.490
 9627TIP3    H228846   4.523   5.858   1.500
 9628TIP3   OH228847   0.236   3.510   5.098
 9628TIP3    H128848   0.182   3.437   5.127
 9628TIP3    H228849   0.241   3.501   5.003
 9629TIP3   OH228850   0.247   0.084   5.778
 9629TIP3    H128851   0.307   0.156   5.796
 9629TIP3    H228852   0.226   0.094   5.685
 9630TIP3   OH228853   1.936   1.041   5.935
 9630TIP3    H128854   1.905   1.131   5.950
 9630TIP3    H228855   1.935   1.032   5.840
 9631TIP3   OH228856   2.706   0.062   1.307
 9631TIP3    H128857   2.712   0.061   1.402
 9631TIP3    H228858   2.723   0.154   1.283
 9632TIP3   OH228859   6.559   4.452   2.327
 9632TIP3    H128860   6.648   4.418   2.338
 9632TIP3    H228861   6.568   4.547   2.332
 9633TIP3   OH228862   6.871   2.108   2.311
 9633TIP3    H128863   6.874   2.190   2.262
 9633TIP3    H228864   6.951   2.109   2.364
 9634TIP3   OH228865   6.348   5.612   1.454
 9634TIP3    H128866   6.369   5.652   1.370
 9634TIP3    H228867   6.338   5.686   1.514
 9635TIP3   OH228868   5.877   2.476   4.825
 9635TIP3    H128869   5.887   2.430   4.741
 9635TIP3    H228870   5.879   2.406   4.890
 9636TIP3   OH228871   6.723   3.569   1.538
 9636TIP3    H128872   6.645   3.610   1.500
 9636TIP3    H228873   6.691   3.528   1.619
 9637TIP3   OH228874   5.454   6.027   4.587
 9637TIP3    H128875   5.521   6.090   4.615
 9637TIP3    H228876   5.432   5.978   4.666
 9638TIP3   OH228877   6.479   6.452   3.252
 9638TIP3    H128878   6.389   6.450   3.286
 9638TIP3    H228879   6.480   6.525   3.190
 9639TIP3   OH228880   1.135   4.239   1.322
 9639TIP3    H128881   1.089   4.184   1.386
 9639TIP3    H228882   1.086   4.321   1.321
 9640TIP3   OH228883   1.660   1.599   5.721
 9640TIP3    H128884   1.626   1.665   5.661
 9640TIP3    H228885   1.652   1.517   5.672
 9641TIP3   OH228886   1.620   0.447   0.760
 9641TIP3    H128887   1.591   0.498   0.836
 9641TIP3    H228888   1.709   0.420   0.783
 9642TIP3   OH228889   2.323   4.177   2.940
 9642TIP3    H128890   2.349   4.136   2.857
 9642TIP3    H228891   2.235   4.210   2.923
 9643TIP3   OH228892   3.519   3.274   5.049
 9643TIP3    H128893   3.530   3.263   5.143
 9643TIP3    H228894   3.522   3.369   5.035
 9644TIP3   OH228895   0.514   0.252   3.298
 9644TIP3    H128896   0.438   0.309   3.310
 9644TIP3    H228897   0.497   0.177   3.354
 9645TIP3   OH228898   3.547   3.197   0.671
 9645TIP3    H128899   3.478   3.157   0.724
 9645TIP3    H228900   3.606   3.125   0.651
 9646TIP3   OH228901   3.302   5.016   5.512
 9646TIP3    H128902   3.217   4.974   5.526
 9646TIP3    H228903   3.321   5.062   5.594
 9647TIP3   OH228904   0.551   0.000   3.442
 9647TIP3    H128905   0.475  -0.056   3.458
 9647TIP3    H228906   0.626  -0.057   3.458
 9648TIP3   OH228907   3.743   3.369   1.383
 9648TIP3    H128908   3.699   3.404   1.305
 9648TIP3    H228909   3.828   3.339   1.352
 9649TIP3   OH228910   2.104   2.056   2.723
 9649TIP3    H128911   2.123   1.962   2.723
 9649TIP3    H228912   2.153   2.091   2.649
 9650TIP3   OH228913   0.852   1.999   5.415
 9650TIP3    H128914   0.836   2.076   5.360
 9650TIP3    H228915   0.890   2.035   5.495
 9651TIP3   OH228916   2.730   3.559   5.346
 9651TIP3    H128917   2.756   3.501   5.274
 9651TIP3    H228918   2.767   3.518   5.424
 9652TIP3   OH228919   4.580   6.308   2.792
 9652TIP3    H128920   4.667   6.279   2.819
 9652TIP3    H228921   4.555   6.374   2.857
 9653TIP3   OH228922   4.060   0.058   4.138
 9653TIP3    H128923   4.139   0.013   4.109
 9653TIP3    H228924   4.015   0.083   4.057
 9654TIP3   OH228925   6.736   2.069   0.387
 9654TIP3    H128926   6.814   2.031   0.348
 9654TIP3    H228927   6.697   2.121   0.317
 9655TIP3   OH228928   2.914   4.215   3.090
 9655TIP3    H128929   2.855   4.247   3.158
 9655TIP3    H228930   2.857   4.164   3.032
 9656TIP3   OH228931   1.360   1.090   4.835
 9656TIP3    H128932   1.416   1.129   4.901
 9656TIP3    H228933   1.277   1.072   4.881
 9657TIP3   OH228934   0.871   0.322   1.723
 9657TIP3    H128935   0.942   0.380   1.750
 9657TIP3    H228936   0.820   0.308   1.802
 9658TIP3   OH228937   3.445   5.698   0.654
 9658TIP3    H128938   3.537   5.682   0.634
 9658TIP3    H228939   3.415   5.619   0.698
 9659TIP3   OH228940   6.471   1.062   4.307
 9659TIP3    H128941   6.448   1.032   4.219
 9659TIP3    H228942   6.392   1.048   4.358
 9660TIP3   OH228943   3.716   2.356   2.405
 9660TIP3    H128944   3.670   2.273   2.395
 9660TIP3    H228945   3.801   2.342   2.363
 9661TIP3   OH228946   5.005   0.404   0.202
 9661TIP3    H128947   4.940   0.467   0.169
 9661TIP3    H228948   4.961   0.359   0.273
 9662TIP3   OH228949   3.692   0.437   1.733
 9662TIP3    H128950   3.749   0.399   1.800
 9662TIP3    H228951   3.654   0.360   1.689
 9663TIP3   OH228952   3.102   0.520   1.323
 9663TIP3    H128953   3.143   0.590   1.374
 9663TIP3    H228954   3.096   0.446   1.384
 9664TIP3   OH228955   3.567   1.481   2.104
 9664TIP3    H128956   3.636   1.431   2.062
 9664TIP3    H228957   3.487   1.432   2.085
 9665TIP3   OH228958   5.941   0.098   5.063
 9665TIP3    H128959   5.921   0.191   5.078
 9665TIP3    H228960   6.013   0.099   5.000
 9666TIP3   OH228961   5.983   2.341   1.998
 9666TIP3    H128962   5.905   2.358   2.050
 9666TIP3    H228963   6.014   2.428   1.973
 9667TIP3   OH228964   6.566   1.849   4.683
 9667TIP3    H128965   6.649   1.819   4.646
 9667TIP3    H228966   6.570   1.945   4.676
 9668TIP3   OH228967   6.119   4.398   0.306
 9668TIP3    H128968   6.206   4.435   0.318
 9668TIP3    H228969   6.113   4.328   0.372
 9669TIP3   OH228970   0.808   2.141   2.203
 9669TIP3    H128971   0.876   2.191   2.158
 9669TIP3    H228972   0.740   2.205   2.223
 9670TIP3   OH228973   3.448   0.314   5.682
 9670TIP3    H128974   3.471   0.233   5.635
 9670TIP3    H228975   3.487   0.384   5.629
 9671TIP3   OH228976   1.033   4.951   2.322
 9671TIP3    H128977   0.982   4.960   2.403
 9671TIP3    H228978   1.079   4.868   2.332
 9672TIP3   OH228979   4.111   5.466   3.820
 9672TIP3    H128980   4.191   5.437   3.865
 9672TIP3    H228981   4.141   5.488   3.732
 9673TIP3   OH228982   2.618   3.649   1.757
 9673TIP3    H128983   2.607   3.555   1.744
 9673TIP3    H228984   2.687   3.656   1.822
 9674TIP3   OH228985   2.816   2.469   3.924
 9674TIP3    H128986   2.810   2.394   3.983
 9674TIP3    H228987   2.806   2.432   3.836
 9675TIP3   OH228988   6.515   5.090   4.593
 9675TIP3    H128989   6.466   5.100   4.675
 9675TIP3    H228990   6.604   5.116   4.615
 9676TIP3   OH228991   6.302   5.040   0.277
 9676TIP3    H128992   6.234   5.037   0.210
 9676TIP3    H228993   6.256   5.066   0.357
 9677TIP3   OH228994   5.124   3.626   3.491
 9677TIP3    H128995   5.141   3.536   3.518
 9677TIP3    H228996   5.192   3.678   3.534
 9678TIP3   OH228997   2.079   3.845   1.387
 9678TIP3    H128998   1.990   3.822   1.358
 9678TIP3    H228999   2.126   3.761   1.387
 9679TIP3   OH229000   1.925   2.007   1.487
 9679TIP3    H129001   1.865   2.017   1.414
 9679TIP3    H229002   1.869   2.013   1.565
 9680TIP3   OH229003   5.921   1.216   3.432
 9680TIP3    H129004   5.936   1.283   3.365
 9680TIP3    H229005   5.839   1.243   3.474
 9681TIP3   OH229006   5.127   0.941   5.439
 9681TIP3    H129007   5.141   1.012   5.501
 9681TIP3    H229008   5.169   0.865   5.478
 9682TIP3   OH229009   6.649   6.119   3.633
 9682TIP3    H129010   6.655   6.048   3.569
 9682TIP3    H229011   6.568   6.101   3.681
 9683TIP3   OH229012   0.782   1.555   1.249
 9683TIP3    H129013   0.873   1.551   1.222
 9683TIP3    H229014   0.778   1.500   1.328
 9684TIP3   OH229015   0.417   2.422   1.636
 9684TIP3    H129016   0.404   2.391   1.726
 9684TIP3    H229017   0.391   2.514   1.638
 9685TIP3   OH229018   0.105   5.699   1.675
 9685TIP3    H129019   0.198   5.678   1.682
 9685TIP3    H229020   0.102   5.794   1.687
 9686TIP3   OH229021   3.489   2.594   3.380
 9686TIP3    H129022   3.441   2.518   3.349
 9686TIP3    H229023   3.522   2.568   3.466
 9687TIP3   OH229024   4.184   2.586   4.150
 9687TIP3    H129025   4.094   2.572   4.122
 9687TIP3    H229026   4.183   2.672   4.193
 9688TIP3   OH229027   2.320   5.182   0.548
 9688TIP3    H129028   2.254   5.155   0.612
 9688TIP3    H229029   2.397   5.204   0.601
 9689TIP3   OH229030   1.902   5.254   2.763
 9689TIP3    H129031   1.945   5.268   2.846
 9689TIP3    H229032   1.881   5.160   2.762
 9690TIP3   OH229033   6.449   0.544   4.992
 9690TIP3    H129034   6.502   0.521   5.069
 9690TIP3    H229035   6.363   0.568   5.028
 9691TIP3   OH229036   4.880   0.769   4.352
 9691TIP3    H129037   4.954   0.733   4.305
 9691TIP3    H229038   4.915   0.795   4.437
 9692TIP3   OH229039   3.330   0.213   0.425
 9692TIP3    H129040   3.342   0.294   0.474
 9692TIP3    H229041   3.236   0.200   0.421
 9693TIP3   OH229042   3.936   2.938   0.772
 9693TIP3    H129043   4.013   2.992   0.788
 9693TIP3    H229044   3.872   2.998   0.734
 9694TIP3   OH229045   3.742   3.396   1.930
 9694TIP3    H129046   3.786   3.406   1.845
 9694TIP3    H229047   3.801   3.341   1.981
 9695TIP3   OH229048   2.953   2.604   1.351
 9695TIP3    H129049   2.994   2.608   1.438
 9695TIP3    H229050   2.992   2.678   1.304
 9696TIP3   OH229051   5.438   4.252   5.190
 9696TIP3    H129052   5.418   4.341   5.163
 9696TIP3    H229053   5.383   4.237   5.267
 9697TIP3   OH229054   6.503   5.572   1.711
 9697TIP3    H129055   6.574   5.600   1.768
 9697TIP3    H229056   6.511   5.477   1.706
 9698TIP3   OH229057   3.271   1.757   1.219
 9698TIP3    H129058   3.341   1.820   1.202
 9698TIP3    H229059   3.281   1.691   1.150
 9699TIP3   OH229060   0.298   6.532   3.004
 9699TIP3    H129061   0.244   6.459   2.974
 9699TIP3    H229062   0.384   6.514   2.967
 9700TIP3   OH229063   6.784   4.924   5.430
 9700TIP3    H129064   6.743   4.984   5.493
 9700TIP3    H229065   6.842   4.980   5.379
 9701TIP3   OH229066   0.774   2.632   3.907
 9701TIP3    H129067   0.793   2.710   3.958
 9701TIP3    H229068   0.853   2.617   3.854
 9702TIP3   OH229069   1.033   0.320   4.962
 9702TIP3    H129070   1.079   0.403   4.971
 9702TIP3    H229071   0.957   0.328   5.020
 9703TIP3   OH229072   5.286   5.622   1.741
 9703TIP3    H129073   5.342   5.621   1.664
 9703TIP3    H229074   5.279   5.531   1.767
 9704TIP3   OH229075   7.002   3.751   1.876
 9704TIP3    H129076   7.037   3.836   1.852
 9704TIP3    H229077   6.929   3.771   1.935
 9705TIP3   OH229078   0.120   2.932   1.935
 9705TIP3    H129079   0.153   2.932   1.845
 9705TIP3    H229080   0.145   2.846   1.970
 9706TIP3   OH229081   2.000   4.207   1.389
 9706TIP3    H129082   1.981   4.164   1.306
 9706TIP3    H229083   1.939   4.168   1.451
 9707TIP3   OH229084   3.260   3.742   2.496
 9707TIP3    H129085   3.177   3.695   2.510
 9707TIP3    H229086   3.285   3.771   2.584
 9708TIP3   OH229087   1.967   0.120   3.866
 9708TIP3    H129088   2.020   0.095   3.942
 9708TIP3    H229089   1.977   0.215   3.860
 9709TIP3   OH229090   0.916   1.404   1.600
 9709TIP3    H129091   0.831   1.366   1.579
 9709TIP3    H229092   0.896   1.475   1.662
 9710TIP3   OH229093   3.411   3.600   1.355
 9710TIP3    H129094   3.412   3.696   1.352
 9710TIP3    H229095   3.419   3.580   1.448
 9711TIP3   OH229096   1.422   5.351   5.579
 9711TIP3    H129097   1.373   5.386   5.504
 9711TIP3    H229098   1.464   5.272   5.545
 9712TIP3   OH229099   6.117   3.735   5.115
 9712TIP3    H129100   6.175   3.806   5.141
 9712TIP3    H229101   6.092   3.693   5.197
 9713TIP3   OH229102   2.453   3.993  -0.003
 9713TIP3    H129103   2.516   3.925   0.018
 9713TIP3    H229104   2.491   4.074   0.032
 9714TIP3   OH229105   6.466   3.403   1.350
 9714TIP3    H129106   6.527   3.379   1.419
 9714TIP3    H229107   6.460   3.499   1.356
 9715TIP3   OH229108   1.104   1.109   1.605
 9715TIP3    H129109   1.010   1.090   1.603
 9715TIP3    H229110   1.117   1.174   1.535
 9716TIP3   OH229111   6.086   4.571   0.737
 9716TIP3    H129112   6.081   4.654   0.783
 9716TIP3    H229113   6.072   4.594   0.645
 9717TIP3   OH229114   0.094   2.630   2.610
 9717TIP3    H129115   0.185   2.623   2.638
 9717TIP3    H229116   0.083   2.722   2.585
 9718TIP3   OH229117   5.403   0.187   4.102
 9718TIP3    H129118   5.340   0.189   4.030
 9718TIP3    H229119   5.354   0.149   4.175
 9719TIP3   OH229120   5.271   5.115   5.306
 9719TIP3    H129121   5.221   5.155   5.235
 9719TIP3    H229122   5.211   5.053   5.346
 9720TIP3   OH229123   5.370   3.184   3.405
 9720TIP3    H129124   5.433   3.252   3.384
 9720TIP3    H229125   5.284   3.227   3.398
 9721TIP3   OH229126   5.884   2.148   4.090
 9721TIP3    H129127   5.930   2.071   4.059
 9721TIP3    H229128   5.844   2.121   4.173
 9722TIP3   OH229129   6.497   5.723   3.664
 9722TIP3    H129130   6.504   5.691   3.574
 9722TIP3    H229131   6.451   5.807   3.656
 9723TIP3   OH229132   0.559   4.096   3.487
 9723TIP3    H129133   0.491   4.158   3.459
 9723TIP3    H229134   0.638   4.149   3.496
 9724TIP3   OH229135   3.613   4.788   1.359
 9724TIP3    H129136   3.582   4.797   1.449
 9724TIP3    H229137   3.574   4.861   1.312
 9725TIP3   OH229138   6.845   3.186   3.065
 9725TIP3    H129139   6.756   3.220   3.063
 9725TIP3    H229140   6.894   3.245   3.006
 9726TIP3   OH229141   4.598   3.926   0.397
 9726TIP3    H129142   4.620   3.967   0.313
 9726TIP3    H229143   4.557   3.996   0.448
 9727TIP3   OH229144   3.564   4.454   2.566
 9727TIP3    H129145   3.596   4.432   2.653
 9727TIP3    H229146   3.543   4.370   2.526
 9728TIP3   OH229147   0.150   5.563   3.740
 9728TIP3    H129148   0.194   5.501   3.798
 9728TIP3    H229149   0.079   5.599   3.793
 9729TIP3   OH229150   0.731   6.455   5.457
 9729TIP3    H129151   0.758   6.523   5.396
 9729TIP3    H229152   0.803   6.392   5.457
 9730TIP3   OH229153   5.666   2.617   4.276
 9730TIP3    H129154   5.661   2.527   4.244
 9730TIP3    H229155   5.575   2.646   4.282
 9731TIP3   OH229156   6.248   1.283   4.204
 9731TIP3    H129157   6.182   1.233   4.156
 9731TIP3    H229158   6.201   1.320   4.279
 9732TIP3   OH229159   6.889   4.641   3.695
 9732TIP3    H129160   6.859   4.721   3.739
 9732TIP3    H229161   6.810   4.589   3.683
 9733TIP3   OH229162   6.982   4.443   3.449
 9733TIP3    H129163   6.935   4.503   3.507
 9733TIP3    H229164   6.926   4.365   3.445
 9734TIP3   OH229165   5.166   2.053   2.479
 9734TIP3    H129166   5.160   2.093   2.566
 9734TIP3    H229167   5.173   2.127   2.419
 9735TIP3   OH229168   2.598   0.924   3.305
 9735TIP3    H129169   2.689   0.953   3.311
 9735TIP3    H229170   2.546   1.004   3.318
 9736TIP3   OH229171   0.331   4.651   4.200
 9736TIP3    H129172   0.410   4.684   4.244
 9736TIP3    H229173   0.281   4.730   4.179
 9737TIP3   OH229174   0.804   3.777   4.109
 9737TIP3    H129175   0.817   3.696   4.158
 9737TIP3    H229176   0.891   3.796   4.072
 9738TIP3   OH229177   0.430   3.865   0.949
 9738TIP3    H129178   0.497   3.928   0.977
 9738TIP3    H229179   0.454   3.844   0.859
 9739TIP3   OH229180   6.230   5.397   3.908
 9739TIP3    H129181   6.316   5.416   3.871
 9739TIP3    H229182   6.245   5.390   4.002
 9740TIP3   OH229183   1.645   5.430   1.744
 9740TIP3    H129184   1.551   5.449   1.746
 9740TIP3    H229185   1.667   5.410   1.835
 9741TIP3   OH229186   2.096   1.149   1.142
 9741TIP3    H129187   2.027   1.215   1.145
 9741TIP3    H229188   2.162   1.187   1.083
 9742TIP3   OH229189   2.062   2.512   0.879
 9742TIP3    H129190   1.970   2.530   0.859
 9742TIP3    H229191   2.081   2.431   0.831
 9743TIP3   OH229192   4.947   3.900   5.762
 9743TIP3    H129193   4.949   3.804   5.770
 9743TIP3    H229194   4.890   3.916   5.688
 9744TIP3   OH229195   4.266   6.198   3.846
 9744TIP3    H129196   4.212   6.205   3.767
 9744TIP3    H229197   4.208   6.227   3.917
 9745TIP3   OH229198   5.350   1.604   1.484
 9745TIP3    H129199   5.300   1.669   1.533
 9745TIP3    H229200   5.381   1.650   1.407
 9746TIP3   OH229201   6.894   2.345   1.554
 9746TIP3    H129202   6.914   2.340   1.461
 9746TIP3    H229203   6.805   2.311   1.561
 9747TIP3   OH229204   3.416   6.346   1.814
 9747TIP3    H129205   3.452   6.399   1.884
 9747TIP3    H229206   3.327   6.325   1.843
 9748TIP3   OH229207   4.799   0.929   0.517
 9748TIP3    H129208   4.764   0.969   0.597
 9748TIP3    H229209   4.722   0.889   0.475
 9749TIP3   OH229210   1.737   0.570   5.498
 9749TIP3    H129211   1.703   0.492   5.542
 9749TIP3    H229212   1.822   0.543   5.464
   7.22397   6.81083   5.89834   0.00000   0.00000  -2.40799   0.00000  -2.40799  -3.40541
