Title
19927
    1ASP      N    1   2.754   2.126   4.592  0.9004 -0.3390  0.5979
    1ASP    HT1    2   2.721   2.224   4.584  0.2966 -0.5151  0.8632
    1ASP    HT2    3   2.684   2.059   4.554  0.6770  0.3972 -0.3260
    1ASP    HT3    4   2.844   2.115   4.541  1.1658 -2.1636  1.3843
    1ASP     CA    5   2.784   2.101   4.735  0.0799 -0.1167  0.1406
    1ASP     HA    6   2.801   2.193   4.788  2.4169  1.2596 -2.7178
    1ASP     CB    7   2.670   2.012   4.798  0.0487  0.0428 -0.4900
    1ASP    HB1    8   2.702   1.985   4.900  2.6363  1.4402 -0.8587
    1ASP    HB2    9   2.630   1.927   4.739 -0.3036 -1.2275  1.4989
    1ASP     CG   10   2.550   2.100   4.822 -0.2484  0.6722  0.4371
    1ASP    OD1   11   2.438   2.046   4.823 -0.0257  0.2264  0.4137
    1ASP    OD2   12   2.569   2.213   4.867  0.2659  0.1911  0.3937
    1ASP      C   13   2.925   2.032   4.755  0.9818  0.0982  0.4926
    1ASP      O   14   2.974   1.978   4.653 -0.3859  0.2677  0.3883
    2ALA      N   15   2.991   2.029   4.874 -0.0447 -0.2707  0.6798
    2ALA     HN   16   2.952   2.069   4.957  1.4993  0.7639  0.9468
    2ALA     CA   17   3.124   1.971   4.900  1.1085  0.1636  0.4784
    2ALA     HA   18   3.184   2.010   4.819  0.5227 -1.7362 -0.9525
    2ALA     CB   19   3.178   1.999   5.043  0.1056  0.0149  0.6795
    2ALA    HB1   20   3.114   1.955   5.122  0.7745  1.6486  2.2118
    2ALA    HB2   21   3.185   2.108   5.065 -0.1447 -0.0092  0.8813
    2ALA    HB3   22   3.281   1.957   5.049  0.3336 -0.0212 -2.0988
    2ALA      C   23   3.129   1.819   4.885  0.4845  0.8298  0.2294
    2ALA      O   24   3.027   1.750   4.901  0.7624  0.1582  0.4862
    3ASP      N   25   3.247   1.761   4.851  0.4084 -0.0921  0.3615
    3ASP     HN   26   3.330   1.808   4.820 -0.6548  0.9922 -0.9656
    3ASP     CA   27   3.263   1.618   4.852  0.7150 -0.3300 -0.1045
    3ASP     HA   28   3.181   1.571   4.799  0.2416 -1.7393  1.7861
    3ASP     CB   29   3.399   1.578   4.791  0.4880 -0.2585 -0.0701
    3ASP    HB1   30   3.451   1.480   4.796  0.8215 -0.1417 -1.1931
    3ASP    HB2   31   3.479   1.644   4.831  1.0630 -0.0130 -1.5753
    3ASP     CG   32   3.389   1.621   4.648 -0.4311 -0.4253  0.8532
    3ASP    OD1   33   3.501   1.655   4.593  0.1403  0.4482 -0.2733
    3ASP    OD2   34   3.279   1.617   4.583 -0.5097 -0.1813  0.2556
    3ASP      C   35   3.265   1.574   4.993  0.1024  0.8384 -0.4315
    3ASP      O   36   3.262   1.653   5.086 -0.0050 -0.7799  0.1153
    4GLY      N   37   3.252   1.439   5.012 -0.3169 -0.4480  0.6470
    4GLY     HN   38   3.246   1.384   4.929 -1.3804  1.7762 -0.8317
    4GLY     CA   39   3.248   1.375   5.142 -0.1541 -0.4632  0.3920
    4GLY    HA1   40   3.237   1.270   5.123 -2.3529  0.0393 -1.5066
    4GLY    HA2   41   3.159   1.414   5.188 -0.9629 -0.6801 -0.9557
    4GLY      C   42   3.362   1.384   5.236  0.3235 -0.3252  0.3856
    4GLY      O   43   3.465   1.446   5.210  0.5773 -0.6940  0.6887
    5PRO      N   44   3.352   1.319   5.357  0.5351 -0.3259 -0.0407
    5PRO     CD   45   3.233   1.233   5.390  0.0312 -0.4436  0.7483
    5PRO    HD1   46   3.237   1.142   5.326 -1.6830 -0.5288  0.7120
    5PRO    HD2   47   3.140   1.287   5.362 -0.0838 -1.3364 -0.7358
    5PRO     CA   48   3.458   1.315   5.462  0.1331  0.3267  0.3454
    5PRO     HA   49   3.458   1.415   5.504 -0.0952 -0.5496  2.5208
    5PRO     CB   50   3.402   1.214   5.566  0.4036  0.1098 -0.7946
    5PRO    HB1   51   3.424   1.263   5.663 -1.8595  0.4750 -0.4195
    5PRO    HB2   52   3.435   1.108   5.558  0.2449  0.0080 -0.2065
    5PRO     CG   53   3.251   1.212   5.540  0.3592 -0.0431  0.7488
    5PRO    HG1   54   3.201   1.119   5.575  0.7230 -0.5733 -0.0921
    5PRO    HG2   55   3.206   1.297   5.596 -1.7609 -0.3520 -0.3817
    5PRO      C   56   3.592   1.262   5.406 -0.0733 -0.2143 -0.5868
    5PRO      O   57   3.591   1.142   5.366  0.2316 -0.3774 -0.3650
    6GLY      N   58   3.705   1.335   5.424  0.0139  0.2657  0.4911
    6GLY     HN   59   3.707   1.420   5.475  0.9789  1.0457 -0.7707
    6GLY     CA   60   3.838   1.292   5.380 -0.2645 -0.2402 -0.3213
    6GLY    HA1   61   3.899   1.381   5.393 -0.4899  0.2084 -2.0986
    6GLY    HA2   62   3.836   1.264   5.276  1.2997  0.4769 -0.5805
    6GLY      C   63   3.910   1.173   5.447 -0.9008  0.0144  0.0134
    6GLY      O   64   3.852   1.094   5.516  0.2350  0.3123  0.0662
    7ASP      N   65   4.047   1.158   5.430  0.7188 -0.3548  0.3710
    7ASP     HN   66   4.084   1.225   5.365  0.6148  1.5476  2.1694
    7ASP     CA   67   4.128   1.071   5.507 -0.1308  0.2319 -0.5429
    7ASP     HA   68   4.070   0.982   5.528  2.3262 -1.1399  0.8798
    7ASP     CB   69   4.256   1.016   5.429  0.2240  0.4211 -0.0448
    7ASP    HB1   70   4.315   0.946   5.492  0.8155 -0.8007 -1.8585
    7ASP    HB2   71   4.326   1.095   5.396 -0.1151  0.3626 -0.9416
    7ASP     CG   72   4.230   0.922   5.319 -0.4463  0.1128  0.3768
    7ASP    OD1   73   4.127   0.844   5.324 -0.1542 -0.7263  0.1980
    7ASP    OD2   74   4.316   0.906   5.226  0.4901 -0.0963  0.2649
    7ASP      C   75   4.162   1.134   5.643 -0.2931  0.3164  0.3683
    7ASP      O   76   4.223   1.243   5.657  0.3495  0.0345 -0.5845
    8PRO      N   77   4.129   1.072   5.755 -0.6898 -0.2072 -0.4179
    8PRO     CD   78   4.095   0.931   5.776 -0.4419 -0.4045  0.0181
    8PRO    HD1   79   4.168   0.867   5.722  2.0811  2.4827 -0.2941
    8PRO    HD2   80   3.989   0.915   5.747 -0.6453  0.3863  0.3104
    8PRO     CA   81   4.173   1.122   5.889 -0.7609 -0.1872 -0.0399
    8PRO     HA   82   4.141   1.224   5.907  0.7442  0.4472 -0.8032
    8PRO     CB   83   4.099   1.040   5.986 -0.7010 -0.7207  0.0959
    8PRO    HB1   84   3.995   1.080   5.990 -0.3067  0.5094 -1.1653
    8PRO    HB2   85   4.140   1.040   6.090 -1.0470 -2.1643  0.2530
    8PRO     CG   86   4.110   0.895   5.927 -0.2783  0.1012  0.1477
    8PRO    HG1   87   4.206   0.849   5.960  0.6227  1.3370 -0.6497
    8PRO    HG2   88   4.019   0.837   5.952 -0.1650 -0.8561 -1.5593
    8PRO      C   89   4.321   1.118   5.920 -0.1090  0.2793  0.4022
    8PRO      O   90   4.380   1.014   5.902 -0.8785 -0.2077 -0.1954
    9ASP      N   91   4.382   1.224   5.979 -0.3194 -0.0008 -0.6879
    9ASP     HN   92   4.338   1.313   5.985  0.3776  0.2501  2.9514
    9ASP     CA   93   4.520   1.224   6.036  0.0805  0.4845  0.2370
    9ASP     HA   94   4.564   1.126   6.020 -0.8041  0.1400 -0.1672
    9ASP     CB   95   4.588   1.328   5.951  0.1487  0.4957 -0.1281
    9ASP    HB1   96   4.580   1.429   5.995 -1.1528  0.4065 -0.1409
    9ASP    HB2   97   4.549   1.320   5.847  0.5791  2.6319 -0.4953
    9ASP     CG   98   4.735   1.296   5.945 -0.1762 -0.6735  0.6013
    9ASP    OD1   99   4.789   1.208   6.022 -0.3780  0.1018  0.1502
    9ASP    OD2  100   4.801   1.355   5.853 -0.2942  0.0890 -0.7495
    9ASP      C  101   4.528   1.258   6.187 -0.4212 -0.3765  0.3614
    9ASP      O  102   4.452   1.327   6.251  0.2964  0.0773  0.0884
   10ALA      N  103   4.640   1.208   6.248 -0.0949 -0.3200  0.1185
   10ALA     HN  104   4.707   1.166   6.187  0.1705 -1.9012  1.4179
   10ALA     CA  105   4.665   1.219   6.389 -0.2087  0.3919  0.3930
   10ALA     HA  106   4.574   1.260   6.431 -1.0630 -0.7221 -0.3473
   10ALA     CB  107   4.696   1.081   6.455  0.2541 -0.0852 -0.1354
   10ALA    HB1  108   4.795   1.047   6.417  0.4594 -0.4420  0.6885
   10ALA    HB2  109   4.618   1.008   6.423 -2.4493  1.0330  3.3366
   10ALA    HB3  110   4.686   1.097   6.564  0.4429  0.6029 -0.2143
   10ALA      C  111   4.771   1.323   6.420 -0.4454 -0.9335  0.1254
   10ALA      O  112   4.885   1.331   6.375 -0.1540 -0.2040  0.1746
   11GLY      N  113   4.736   1.412   6.511 -0.4681  0.5712  0.0862
   11GLY     HN  114   4.642   1.404   6.544 -1.3936  0.6247 -2.3707
   11GLY     CA  115   4.818   1.514   6.578  0.3846  0.2952  0.4484
   11GLY    HA1  116   4.849   1.462   6.667  1.6298 -0.7656 -0.5702
   11GLY    HA2  117   4.752   1.596   6.604 -0.7000 -0.4942  0.2761
   11GLY      C  118   4.943   1.568   6.500 -0.2391  0.5480  0.1420
   11GLY    OT1  119   4.925   1.640   6.404  0.2251  0.7508 -0.0459
   11GLY    OT2  120   5.057   1.549   6.552 -0.0847  0.2000  0.3800
   12SOD    SOD  121   3.540   4.178   3.978 -0.3198 -0.4944 -0.2127
   13SOD    SOD  122   0.787   4.593   2.043 -0.0978 -0.0535 -0.7145
   14SOD    SOD  123   3.016   0.098   3.878 -0.1695  0.1265 -0.0435
   15SOD    SOD  124   3.531   0.138   2.834 -0.5632  0.2680  0.1776
   16SOD    SOD  125   0.950   5.877   2.145  0.4350 -0.1694 -0.2193
   17SOD    SOD  126   1.155   5.482   4.990  0.4654  0.1928 -0.3795
   18SOD    SOD  127   3.800   5.319   0.653 -0.2067 -0.0251 -0.0667
   19SOD    SOD  128   3.929   0.987   2.414 -0.3771 -0.3272  0.4010
   20SOD    SOD  129   2.618   2.303   0.855 -0.1256  0.0676  0.0216
   21SOD    SOD  130   4.102   1.623   5.095  0.1267 -0.0811 -0.1063
   22SOD    SOD  131   4.106   2.966   2.423  0.3967  0.0261  0.2751
   23SOD    SOD  132   4.781   4.339   4.599 -0.0617 -0.0176  0.5207
   24SOD    SOD  133   2.129   2.692   2.978  0.3206 -0.1603 -0.0347
   25SOD    SOD  134   1.311   3.823   1.505 -0.4709  0.3294 -0.0982
   26SOD    SOD  135   4.865   3.598   1.358  0.2424  0.0261  0.0688
   27SOD    SOD  136   4.349   1.679   1.801 -0.0159 -0.2744 -0.7370
   28SOD    SOD  137   5.757   3.146   1.243  0.4996 -0.5597 -0.3231
   29SOD    SOD  138   3.762   5.944   3.680 -0.8933  0.2376 -0.0189
   30SOD    SOD  139   4.048   5.702   4.409  0.0504 -0.3556 -0.7978
   31SOD    SOD  140   1.454   0.679   3.747 -0.3214 -0.1439  0.0341
   32SOD    SOD  141   3.267   2.135   0.230 -0.0649 -0.3823  0.1000
   33SOD    SOD  142   2.204   4.679   2.885 -0.0935 -0.2959 -0.5111
   34CLA    CLA  143   3.890   4.842   0.873 -0.0623 -0.2643  0.3467
   35CLA    CLA  144   4.790   1.005   3.049  0.1295  0.0427  0.2340
   36CLA    CLA  145   5.934   5.467   3.898  0.0430 -0.1715  0.2184
   37CLA    CLA  146   0.397   0.249   1.838 -0.0377 -0.6149 -0.5473
   38CLA    CLA  147   3.035   2.532   0.246  0.0011  0.0512  0.1316
   39CLA    CLA  148   3.301   5.897   1.021  0.1928  0.3413  0.4403
   40CLA    CLA  149   0.757   2.882   4.356 -0.6167 -0.0225  0.1069
   41CLA    CLA  150   3.505   3.664   2.422 -0.0775  0.1795  0.1202
   42CLA    CLA  151   4.726   3.240   3.991  0.0470  0.1471  0.1617
   43CLA    CLA  152   5.112   4.234   0.816  0.4116  0.3084  0.5862
   44CLA    CLA  153   2.834   5.169   4.442  0.3703  0.0707  0.5191
   45CLA    CLA  154   2.295   2.648   0.034  0.2377  0.4729 -0.0621
   46CLA    CLA  155   3.061   2.087   0.846  0.0887 -0.0658  0.0859
   47CLA    CLA  156   3.462   2.470   3.381  0.0351 -0.0967  0.3582
   48CLA    CLA  157   1.597   2.350   3.340  0.1093  0.3796 -0.3485
   49CLA    CLA  158   4.618   2.503   0.604 -0.4338 -0.5060 -0.0299
   50CLA    CLA  159   1.569   5.422   2.596  0.1434 -0.1053 -0.1877
   51CLA    CLA  160   3.261   0.651   2.434  0.3854 -0.1695  0.2597
   52TIP3   OH2  161   0.911   3.040   4.757 -0.0337 -0.5972 -0.1252
   52TIP3    H1  162   0.962   3.118   4.782 -1.6707  0.4410  0.1461
   52TIP3    H2  163   0.966   2.996   4.693  1.0255  0.7109 -0.1748
   53TIP3   OH2  164   2.897   2.584   4.596  0.0488  0.3271  0.6855
   53TIP3    H1  165   2.902   2.663   4.542  1.2707 -0.2875 -0.1563
   53TIP3    H2  166   2.886   2.616   4.685 -1.2092  1.3958  0.1862
   54TIP3   OH2  167   4.651   3.394   2.263  0.2102 -0.1233 -0.1796
   54TIP3    H1  168   4.573   3.443   2.289  0.6462  0.1995  0.5473
   54TIP3    H2  169   4.670   3.425   2.175  0.8861  1.5794  0.5119
   55TIP3   OH2  170   4.679   4.443   2.713 -0.0045 -0.3176  0.7280
   55TIP3    H1  171   4.670   4.535   2.738  0.0197  0.0032 -0.3972
   55TIP3    H2  172   4.590   4.415   2.692  0.3301  0.2968 -1.7298
   56TIP3   OH2  173   6.160   5.995   3.095 -0.9226 -0.1538 -0.2989
   56TIP3    H1  174   6.124   5.963   3.178  1.6719  0.2542  1.1005
   56TIP3    H2  175   6.085   6.033   3.049 -2.0840  2.0479  3.0192
   57TIP3   OH2  176   3.173   0.590   1.405  0.6652 -0.2566 -0.0756
   57TIP3    H1  177   3.088   0.634   1.411  0.4138 -0.6645 -0.5967
   57TIP3    H2  178   3.237   0.661   1.414  0.2736  0.0725  0.1659
   58TIP3   OH2  179   5.660   1.617   2.681  0.2307  0.5718 -0.5713
   58TIP3    H1  180   5.696   1.580   2.762 -0.5052  1.5044  0.2034
   58TIP3    H2  181   5.727   1.677   2.650  0.3579  0.4925 -0.4503
   59TIP3   OH2  182   2.994   3.820   0.967  0.7771  0.5479 -0.1458
   59TIP3    H1  183   2.906   3.795   0.996  0.7907 -0.9277 -1.2297
   59TIP3    H2  184   3.051   3.755   1.007  1.7749  2.8545  2.5175
   60TIP3   OH2  185   2.516   4.217   0.615 -0.0696 -0.0405  0.5494
   60TIP3    H1  186   2.573   4.155   0.570 -0.0112  0.5182 -0.1684
   60TIP3    H2  187   2.472   4.166   0.683 -0.8088 -1.0968 -0.6931
   61TIP3   OH2  188   3.153   3.941   1.231 -0.5158  0.0389 -0.7288
   61TIP3    H1  189   3.227   3.997   1.253 -0.3985 -0.2305 -0.4241
   61TIP3    H2  190   3.193   3.862   1.194 -0.3340 -1.8322  2.9582
   62TIP3   OH2  191   6.237   2.370   3.028  0.0984 -0.1106 -0.0189
   62TIP3    H1  192   6.310   2.403   3.081  0.8348  0.8578 -1.5655
   62TIP3    H2  193   6.168   2.351   3.092  1.4918 -0.5201  1.4325
   63TIP3   OH2  194   6.110   5.242   3.512 -0.0872 -0.0712  0.7160
   63TIP3    H1  195   6.026   5.264   3.470 -0.8638 -0.4409  2.0175
   63TIP3    H2  196   6.172   5.239   3.440 -0.8085  2.0483 -0.0830
   64TIP3   OH2  197   3.228   3.562   1.957 -0.2984  0.2415  0.1128
   64TIP3    H1  198   3.238   3.576   1.863 -1.2081  2.7336  0.3265
   64TIP3    H2  199   3.311   3.592   1.994 -0.1901 -0.1274  0.1777
   65TIP3   OH2  200   4.730   5.615   0.506 -0.2875 -0.3159  0.2207
   65TIP3    H1  201   4.785   5.676   0.458  1.0689 -0.5062  1.4584
   65TIP3    H2  202   4.734   5.534   0.457 -1.9519  0.4819 -1.3368
   66TIP3   OH2  203   3.596   2.108   1.609  0.0365 -0.6521 -0.0754
   66TIP3    H1  204   3.505   2.086   1.591  0.2074 -0.3372 -1.4196
   66TIP3    H2  205   3.602   2.108   1.704 -1.6805  0.5712  0.0747
   67TIP3   OH2  206   3.274   3.438   2.382 -0.2776  0.1845 -0.1789
   67TIP3    H1  207   3.255   3.430   2.288  1.9425  0.4676 -0.7034
   67TIP3    H2  208   3.347   3.499   2.386 -0.0632 -0.1653  1.7260
   68TIP3   OH2  209   3.132   0.327   0.913 -0.4206 -0.7582 -0.6789
   68TIP3    H1  210   3.059   0.277   0.877 -0.7953 -0.9271  0.2877
   68TIP3    H2  211   3.153   0.283   0.995 -1.9177  1.6013  1.1291
   69TIP3   OH2  212   4.304   0.626   0.990 -0.6710  0.1611 -0.2915
   69TIP3    H1  213   4.297   0.530   0.988  1.5807 -0.0599 -1.4024
   69TIP3    H2  214   4.399   0.642   0.993 -1.0133  2.3599 -0.1299
   70TIP3   OH2  215   0.351   0.452   4.224  1.0020  0.2753 -0.4727
   70TIP3    H1  216   0.336   0.478   4.315 -0.5061 -1.0799 -0.2812
   70TIP3    H2  217   0.366   0.534   4.177  0.7172  1.0844  0.8106
   71TIP3   OH2  218   6.173   3.821   5.156  0.2102 -0.2170  0.1126
   71TIP3    H1  219   6.258   3.863   5.145 -0.8586  2.9848  2.3696
   71TIP3    H2  220   6.178   3.778   5.241  0.2469 -2.1264 -0.8003
   72TIP3   OH2  221   0.085   2.044   1.211 -0.2055 -0.2269  0.1059
   72TIP3    H1  222   0.040   2.126   1.188 -0.3882 -0.3955 -0.1367
   72TIP3    H2  223   0.064   2.031   1.304 -1.3406 -0.7344 -0.2104
   73TIP3   OH2  224   3.002   5.259   4.982 -0.0416  0.3374  0.2383
   73TIP3    H1  225   2.936   5.200   5.018 -1.2161 -0.4275 -2.8241
   73TIP3    H2  226   3.053   5.204   4.923  1.4890  1.5665  0.3632
   74TIP3   OH2  227   0.601   2.210   3.687 -0.5027  0.0963 -0.1646
   74TIP3    H1  228   0.670   2.180   3.746  0.0690 -0.3635 -1.0374
   74TIP3    H2  229   0.616   2.304   3.678 -0.7426  0.2166  0.5905
   75TIP3   OH2  230   5.247   0.889   0.941 -0.1654 -0.5873 -0.2352
   75TIP3    H1  231   5.228   0.815   0.998 -1.2412  0.6380  1.0946
   75TIP3    H2  232   5.214   0.965   0.989 -0.3694  0.6074 -2.1470
   76TIP3   OH2  233   2.832   1.611   1.929  0.1767  0.6445 -0.5879
   76TIP3    H1  234   2.828   1.706   1.923 -1.6556  0.6051 -0.6121
   76TIP3    H2  235   2.813   1.592   2.021  0.6316  0.2971 -0.5612
   77TIP3   OH2  236   5.292   1.500   2.018  0.7417  0.2882  0.0115
   77TIP3    H1  237   5.301   1.421   1.964 -1.1457 -0.8508  1.2353
   77TIP3    H2  238   5.379   1.514   2.054  1.3309 -0.6957 -0.9629
   78TIP3   OH2  239   4.166   3.010   2.202  0.1635 -0.2933  0.0052
   78TIP3    H1  240   4.249   2.980   2.165 -0.3368 -2.6652  0.6682
   78TIP3    H2  241   4.112   3.028   2.126 -0.4712 -4.0218 -0.6178
   79TIP3   OH2  242   3.159   4.569   3.714 -0.3683  0.0845  0.4031
   79TIP3    H1  243   3.072   4.597   3.743  0.4364  1.2251  1.8453
   79TIP3    H2  244   3.179   4.492   3.766 -1.6052 -1.9217 -1.9045
   80TIP3   OH2  245   2.506   4.447   4.097 -0.3249  0.2568  0.5174
   80TIP3    H1  246   2.542   4.359   4.107 -1.4811 -0.1188  1.5913
   80TIP3    H2  247   2.566   4.504   4.145 -0.2164 -0.1217  0.8324
   81TIP3   OH2  248   5.618   2.068   0.839 -0.7814 -0.5291 -0.6110
   81TIP3    H1  249   5.632   2.012   0.763 -0.2023 -0.6348 -0.4309
   81TIP3    H2  250   5.617   2.157   0.803  0.8988 -0.4679 -0.5844
   82TIP3   OH2  251   0.918   2.355   4.798  0.3811  0.4592 -0.1566
   82TIP3    H1  252   0.829   2.365   4.833  0.0012 -0.0681 -0.9503
   82TIP3    H2  253   0.938   2.262   4.810  0.2864  0.2926 -1.2428
   83TIP3   OH2  254   1.709   0.098   0.935 -0.1483  0.2894  0.1310
   83TIP3    H1  255   1.724   0.105   0.841 -1.0843 -0.3332 -0.0764
   83TIP3    H2  256   1.757   0.019   0.961 -1.4908 -0.6702 -0.2034
   84TIP3   OH2  257   3.079   1.385   2.335  0.2753 -0.1546  0.2776
   84TIP3    H1  258   3.118   1.410   2.419 -0.7966 -0.7095  0.9759
   84TIP3    H2  259   2.991   1.423   2.338 -0.3950 -1.6434  0.1649
   85TIP3   OH2  260   4.969   4.917   4.287 -0.2772  0.4138  0.4291
   85TIP3    H1  261   4.896   4.923   4.226 -0.4983  1.3200  0.7601
   85TIP3    H2  262   4.984   5.008   4.315  0.5187  0.1495  0.8947
   86TIP3   OH2  263   0.276   2.290   2.790  0.5849 -0.0432 -0.1169
   86TIP3    H1  264   0.297   2.290   2.883  1.1759 -1.0327 -0.2309
   86TIP3    H2  265   0.343   2.346   2.750  1.5171 -1.1406 -0.1599
   87TIP3   OH2  266   6.245   3.432   2.202 -0.5238  0.1478  0.2486
   87TIP3    H1  267   6.261   3.364   2.136  0.6011  0.6202  0.0122
   87TIP3    H2  268   6.209   3.505   2.151 -1.8079 -0.2750  0.5139
   88TIP3   OH2  269   0.182   5.392   5.074  0.3029 -0.4465 -0.9347
   88TIP3    H1  270   0.121   5.374   5.002 -0.5547 -2.1402  0.1356
   88TIP3    H2  271   0.238   5.314   5.077 -0.0663 -0.6860  0.5753
   89TIP3   OH2  272   6.028   5.504   3.576 -0.1356  0.1132 -0.1606
   89TIP3    H1  273   6.094   5.437   3.561  0.0421  0.5818 -1.6362
   89TIP3    H2  274   5.974   5.469   3.647  2.3652  0.2611  1.9333
   90TIP3   OH2  275   2.451   1.715   1.169  0.3238  0.3186  0.0497
   90TIP3    H1  276   2.542   1.714   1.138  0.1650 -0.5519 -0.4119
   90TIP3    H2  277   2.447   1.789   1.229  1.6966 -0.4353  1.1280
   91TIP3   OH2  278   1.529   0.177   0.151  0.3281 -0.5144  0.1445
   91TIP3    H1  279   1.501   0.086   0.155  0.2935 -0.4639  2.6052
   91TIP3    H2  280   1.613   0.179   0.197  0.0514  0.7761  0.6393
   92TIP3   OH2  281   1.193   4.095   0.187  0.0161  0.0730  0.0106
   92TIP3    H1  282   1.234   4.182   0.185 -0.8801  0.5283  0.6377
   92TIP3    H2  283   1.263   4.037   0.218  0.6041  0.5823 -0.3329
   93TIP3   OH2  284   4.530   5.436   0.655  0.0186 -1.0379 -0.0263
   93TIP3    H1  285   4.592   5.503   0.625 -2.0736  0.9100 -0.3200
   93TIP3    H2  286   4.555   5.419   0.745  0.5145  0.2733  0.1109
   94TIP3   OH2  287   2.615   2.375   2.647  0.3292  0.4705 -0.3386
   94TIP3    H1  288   2.564   2.336   2.575 -0.0579  0.0810  0.1412
   94TIP3    H2  289   2.705   2.346   2.630 -0.2234 -2.6478  1.2323
   95TIP3   OH2  290   3.836   5.013   3.548  0.2935 -0.3805 -0.0180
   95TIP3    H1  291   3.861   4.941   3.606  0.0572 -0.9826 -0.6537
   95TIP3    H2  292   3.817   5.086   3.608 -1.4621 -1.4304  0.8084
   96TIP3   OH2  293   0.462   3.767   1.529 -0.5582  0.1541  0.5812
   96TIP3    H1  294   0.393   3.800   1.586  0.0818  3.7064 -0.4165
   96TIP3    H2  295   0.531   3.834   1.534  1.4503 -1.6525 -0.9053
   97TIP3   OH2  296   0.834   2.625   0.494 -0.7417 -0.1978 -0.3327
   97TIP3    H1  297   0.919   2.637   0.453  0.1439 -1.4512  0.9982
   97TIP3    H2  298   0.845   2.658   0.583 -1.5173 -0.7188 -0.0246
   98TIP3   OH2  299   2.947   1.160   4.745  0.1749 -0.0152  0.7094
   98TIP3    H1  300   2.982   1.222   4.682 -0.7647  0.5976  0.7669
   98TIP3    H2  301   3.008   1.162   4.818  0.0691  0.9762  0.7812
   99TIP3   OH2  302   5.890   2.540   3.817  0.2962 -0.3775 -0.0834
   99TIP3    H1  303   5.909   2.481   3.744  0.6628  0.1491 -0.4254
   99TIP3    H2  304   5.813   2.588   3.789 -1.9426 -2.7952  1.4711
  100TIP3   OH2  305   2.805   2.383   0.737 -0.3659 -0.0049 -0.1030
  100TIP3    H1  306   2.837   2.441   0.806 -1.9197  0.5285  0.2166
  100TIP3    H2  307   2.804   2.436   0.658 -1.1217  0.2098  0.0424
  101TIP3   OH2  308   4.432   0.468   4.150 -0.4692 -0.1675  0.1484
  101TIP3    H1  309   4.408   0.406   4.219 -0.8490 -1.5221 -1.1266
  101TIP3    H2  310   4.359   0.529   4.145 -0.8666 -0.6249  0.3331
  102TIP3   OH2  311   1.612   5.005   3.934  0.6094  0.6313 -0.5844
  102TIP3    H1  312   1.647   5.042   4.015  0.6290  1.1720 -0.8411
  102TIP3    H2  313   1.636   4.912   3.939 -0.3743  0.4025  0.5615
  103TIP3   OH2  314   0.389   0.790   0.078 -0.0728 -0.1905 -0.3874
  103TIP3    H1  315   0.463   0.729   0.080 -0.9360 -1.2483  0.3083
  103TIP3    H2  316   0.349   0.776  -0.008 -1.1290 -1.7287  0.2939
  104TIP3   OH2  317   2.883   0.905   2.554 -0.3163  0.1540 -0.3117
  104TIP3    H1  318   2.806   0.864   2.516 -1.0185  1.3841 -0.2801
  104TIP3    H2  319   2.876   0.888   2.648 -0.6529  0.4298 -0.2871
  105TIP3   OH2  320   3.690   4.214   1.337  0.3617 -0.0040  0.1841
  105TIP3    H1  321   3.690   4.131   1.385  0.6309 -0.1295 -0.0366
  105TIP3    H2  322   3.765   4.209   1.278  1.2434  0.9725  1.1685
  106TIP3   OH2  323   2.026   4.393   3.176  0.2083  0.4735 -0.1125
  106TIP3    H1  324   1.950   4.449   3.162  0.9756  1.3721 -0.7852
  106TIP3    H2  325   1.994   4.325   3.236 -1.4787  0.0881 -1.3514
  107TIP3   OH2  326   6.105   2.765   1.409 -0.4593 -0.1954 -0.2521
  107TIP3    H1  327   6.146   2.751   1.495 -1.1095 -0.9237 -0.0466
  107TIP3    H2  328   6.032   2.703   1.407 -1.0993  0.5593 -0.9102
  108TIP3   OH2  329   5.913   1.085   4.923 -0.4300  0.0921  0.0184
  108TIP3    H1  330   5.998   1.092   4.879 -0.5152  0.8022 -0.0285
  108TIP3    H2  331   5.922   1.007   4.979 -0.5598 -1.2681 -1.7499
  109TIP3   OH2  332   6.249   0.788   2.205  0.2035  0.3662 -0.5174
  109TIP3    H1  333   6.213   0.868   2.242 -1.5446 -1.3045  1.6794
  109TIP3    H2  334   6.329   0.772   2.255 -0.3669 -0.1211  0.2640
  110TIP3   OH2  335   2.539   0.693   3.132  0.2822  1.0670  0.4618
  110TIP3    H1  336   2.571   0.783   3.136  0.1210  1.1108  0.8612
  110TIP3    H2  337   2.444   0.702   3.126  0.3627  0.9467 -1.2674
  111TIP3   OH2  338   0.795   3.750   4.606  0.4378 -0.0026  0.5017
  111TIP3    H1  339   0.748   3.792   4.677 -1.0097 -1.2615  0.3446
  111TIP3    H2  340   0.878   3.797   4.600 -0.3555  1.5910  1.5024
  112TIP3   OH2  341   3.876   2.004   1.861  0.0251 -0.0643 -0.6784
  112TIP3    H1  342   3.902   2.072   1.799 -3.0576 -1.4546 -3.8277
  112TIP3    H2  343   3.947   1.940   1.857  0.5680  0.5688 -1.6387
  113TIP3   OH2  344   2.776   4.557   3.081  0.2791  0.1462 -0.2421
  113TIP3    H1  345   2.732   4.637   3.051 -1.3494 -0.6587 -0.0880
  113TIP3    H2  346   2.706   4.501   3.112  1.5154 -0.8330  0.9189
  114TIP3   OH2  347   0.163   3.687   2.286 -0.2371  0.0575  0.4858
  114TIP3    H1  348   0.116   3.639   2.217 -1.1040  1.0438  0.3681
  114TIP3    H2  349   0.093   3.728   2.337  0.4772  0.8046  0.8645
  115TIP3   OH2  350   2.981   1.259   1.816 -0.1767 -0.1933  0.5189
  115TIP3    H1  351   2.978   1.177   1.767  1.0660  0.6448 -1.0161
  115TIP3    H2  352   3.062   1.254   1.867  0.9993  0.8815 -1.1409
  116TIP3   OH2  353   3.748   3.394   0.963  0.0182 -0.4929  0.0726
  116TIP3    H1  354   3.733   3.452   0.889 -1.2423 -0.4489  0.3426
  116TIP3    H2  355   3.814   3.332   0.932  0.5576  0.3963 -0.5893
  117TIP3   OH2  356   1.162   1.009   1.791 -0.3078  0.2026 -0.3296
  117TIP3    H1  357   1.244   0.963   1.771 -0.7022 -0.1583 -1.1503
  117TIP3    H2  358   1.096   0.940   1.793 -0.4924  0.3963  1.0375
  118TIP3   OH2  359   1.306   0.545   3.623 -0.1439 -0.7172 -0.5144
  118TIP3    H1  360   1.321   0.454   3.599  0.2978 -0.1642 -2.4441
  118TIP3    H2  361   1.258   0.582   3.549 -0.0485  0.6970  0.1044
  119TIP3   OH2  362   6.143   5.619   2.667 -0.1496 -0.4070 -0.4197
  119TIP3    H1  363   6.185   5.534   2.661 -0.5825 -0.5513 -1.6711
  119TIP3    H2  364   6.207   5.674   2.712  0.9487 -0.8931 -1.3487
  120TIP3   OH2  365   5.372   4.326   4.276 -0.5153 -0.4343 -0.1953
  120TIP3    H1  366   5.347   4.264   4.208  3.6835 -1.2410 -1.3318
  120TIP3    H2  367   5.391   4.272   4.353  0.5714 -0.3222 -0.3587
  121TIP3   OH2  368   0.206   1.708   4.210  0.6289  0.7024 -0.4018
  121TIP3    H1  369   0.286   1.678   4.253  0.3656  0.8578  0.2120
  121TIP3    H2  370   0.235   1.742   4.125  0.9522 -1.2222 -1.1203
  122TIP3   OH2  371   1.160   4.593   4.903  0.5269  0.2159  0.4670
  122TIP3    H1  372   1.115   4.616   4.822  1.8472  0.4617 -0.2344
  122TIP3    H2  373   1.105   4.627   4.972 -0.4973  0.2408 -0.3367
  123TIP3   OH2  374   4.585   2.225   2.567  0.2523  0.2100 -0.5569
  123TIP3    H1  375   4.567   2.302   2.513 -2.8553  0.7714  1.0377
  123TIP3    H2  376   4.540   2.154   2.523 -2.8045  0.7779  1.2997
  124TIP3   OH2  377   2.446   2.613   2.350 -0.8399 -0.0986  0.8348
  124TIP3    H1  378   2.459   2.518   2.358 -0.6062  0.0543  2.7202
  124TIP3    H2  379   2.465   2.647   2.438 -0.7334  1.7227  0.1369
  125TIP3   OH2  380   5.099   5.744   1.538  0.1186  0.0716  0.2218
  125TIP3    H1  381   5.144   5.756   1.454 -1.6780 -1.2620 -0.9925
  125TIP3    H2  382   5.052   5.826   1.552  1.7072  0.9214  0.7807
  126TIP3   OH2  383   3.622   0.939   1.671 -0.2695  0.1464 -0.0517
  126TIP3    H1  384   3.650   0.948   1.580 -1.7779 -2.6389 -0.9145
  126TIP3    H2  385   3.533   0.973   1.672 -0.4244 -0.2604  0.2647
  127TIP3   OH2  386   1.775   0.961   1.272  0.3159 -0.2617  0.8397
  127TIP3    H1  387   1.863   0.940   1.242  1.0037  0.9745  1.9161
  127TIP3    H2  388   1.758   1.049   1.237 -0.7161 -0.6952  0.2013
  128TIP3   OH2  389   1.318   0.427   0.697 -0.2859 -0.4485  0.3281
  128TIP3    H1  390   1.370   0.349   0.713  1.2940  0.5511  0.2621
  128TIP3    H2  391   1.304   0.465   0.783 -1.2033 -0.8823  0.3781
  129TIP3   OH2  392   1.215   6.016   2.833  0.3439  0.0799  0.4472
  129TIP3    H1  393   1.120   6.028   2.836  0.3233 -0.2404  1.6828
  129TIP3    H2  394   1.227   5.921   2.833  0.6542  0.0919 -1.2530
  130TIP3   OH2  395   0.369   4.960   2.351 -0.2765  0.3577 -0.2838
  130TIP3    H1  396   0.308   4.946   2.278 -1.7717  0.7099  0.8359
  130TIP3    H2  397   0.382   4.873   2.388 -0.2240  0.3004 -0.4363
  131TIP3   OH2  398   3.416   2.241   2.609  0.0737  0.8728 -0.4347
  131TIP3    H1  399   3.389   2.268   2.697  3.1708  0.6229  0.7393
  131TIP3    H2  400   3.421   2.146   2.614 -0.0445  0.8376 -0.9739
  132TIP3   OH2  401   6.196   3.171   0.549  0.0735  0.3992 -0.1633
  132TIP3    H1  402   6.139   3.194   0.476 -1.9485  0.2086  1.2850
  132TIP3    H2  403   6.239   3.253   0.572 -0.4134  0.7892 -0.6061
  133TIP3   OH2  404   3.592   1.458   4.271  0.5337  0.1050  0.1776
  133TIP3    H1  405   3.623   1.537   4.316  2.8028 -0.0495 -0.9267
  133TIP3    H2  406   3.525   1.422   4.328  0.5144  2.0108  1.4524
  134TIP3   OH2  407   3.064   2.058   3.502 -0.0305  0.2788  0.0989
  134TIP3    H1  408   3.153   2.080   3.531  0.3018 -0.8697  0.0211
  134TIP3    H2  409   3.046   1.973   3.544 -1.0248  0.4157 -0.0270
  135TIP3   OH2  410   4.251   4.664   0.821 -0.2583  0.1363  0.0737
  135TIP3    H1  411   4.317   4.640   0.886 -1.1944 -1.4560  0.4970
  135TIP3    H2  412   4.237   4.757   0.834  0.3405  0.0558  1.4542
  136TIP3   OH2  413   3.616   5.944   1.064 -0.2470  0.8509 -0.1791
  136TIP3    H1  414   3.638   5.978   0.977  0.7414  0.6025 -0.0393
  136TIP3    H2  415   3.523   5.923   1.058 -0.0571  0.2354 -1.3780
  137TIP3   OH2  416   3.824   3.713   2.335  0.3878  0.1853  0.0782
  137TIP3    H1  417   3.729   3.713   2.350  0.4339 -2.2001  0.7059
  137TIP3    H2  418   3.833   3.723   2.240 -0.4283  1.3498  0.0988
  138TIP3   OH2  419   6.025   3.528   0.721 -0.3336 -0.0403 -0.2882
  138TIP3    H1  420   6.003   3.437   0.698 -1.9112  0.6362 -1.7046
  138TIP3    H2  421   6.014   3.576   0.639  1.9161  1.2309  0.0849
  139TIP3   OH2  422   5.053   5.212   4.244  0.2563  0.2686  0.2057
  139TIP3    H1  423   5.147   5.209   4.258  0.2588 -0.9851  0.0689
  139TIP3    H2  424   5.036   5.301   4.213  1.4575  0.3684 -0.2242
  140TIP3   OH2  425   2.181   5.685   3.103  0.2031  0.1052  0.1610
  140TIP3    H1  426   2.209   5.774   3.081  0.7617 -0.2067 -0.4105
  140TIP3    H2  427   2.225   5.629   3.039  0.0230 -0.6085  0.6474
  141TIP3   OH2  428   2.477   0.235   0.325 -0.1189 -0.5018  0.1811
  141TIP3    H1  429   2.459   0.154   0.277 -0.7817  0.1074 -0.6255
  141TIP3    H2  430   2.525   0.206   0.403  2.8616 -1.3368 -1.8227
  142TIP3   OH2  431   2.466   2.664   0.608 -0.6543 -0.3572 -0.4206
  142TIP3    H1  432   2.403   2.685   0.677 -1.0920 -3.5500  0.3422
  142TIP3    H2  433   2.552   2.676   0.648 -0.7762  1.4748 -0.6246
  143TIP3   OH2  434   2.560   1.599   4.908 -0.2649 -0.2741  0.5540
  143TIP3    H1  435   2.490   1.658   4.938  0.0009 -0.7267  2.1024
  143TIP3    H2  436   2.514   1.535   4.853 -0.4699  1.7069 -1.7776
  144TIP3   OH2  437   0.277   4.046   4.934 -0.1147  0.3596  0.0777
  144TIP3    H1  438   0.238   4.107   4.870 -0.3078 -0.0218 -0.1719
  144TIP3    H2  439   0.308   4.103   5.005  1.6063  0.9752 -1.0900
  145TIP3   OH2  440   2.818   2.547   0.481 -0.0442  0.5710 -0.0306
  145TIP3    H1  441   2.886   2.517   0.421 -1.6795  1.3741 -2.4162
  145TIP3    H2  442   2.778   2.622   0.437 -1.1690  1.4036  2.2260
  146TIP3   OH2  443   3.259   2.892   1.678 -0.5991 -0.0262 -0.3865
  146TIP3    H1  444   3.174   2.911   1.638 -0.3422  1.3749 -0.3237
  146TIP3    H2  445   3.314   2.865   1.605 -0.5694  0.9893 -0.7604
  147TIP3   OH2  446   1.051   2.527   2.485 -0.1127  0.1002  0.0671
  147TIP3    H1  447   0.991   2.552   2.555 -0.0595 -1.0117  0.5406
  147TIP3    H2  448   1.014   2.566   2.406  0.6069  2.5823  0.8872
  148TIP3   OH2  449   4.054   1.252   1.122  0.2405  0.0293 -0.4017
  148TIP3    H1  450   3.973   1.250   1.172 -0.7436  0.3723 -1.9021
  148TIP3    H2  451   4.050   1.333   1.071  2.1572  0.7265  0.4463
  149TIP3   OH2  452   3.888   5.972   3.877  0.0470 -0.4005 -0.1463
  149TIP3    H1  453   3.826   5.946   3.946  0.2724  0.1210  0.2547
  149TIP3    H2  454   3.955   6.024   3.923  1.1917 -1.5661 -0.4406
  150TIP3   OH2  455   0.847   5.737   5.039 -0.1941  0.2531  0.3620
  150TIP3    H1  456   0.833   5.781   5.123  1.6661  0.0989  0.7984
  150TIP3    H2  457   0.759   5.723   5.004 -0.9307  3.5122  0.5934
  151TIP3   OH2  458   2.728   0.834   1.539 -0.2526  0.5150  0.6440
  151TIP3    H1  459   2.746   0.926   1.556 -1.1501  1.4158 -2.6252
  151TIP3    H2  460   2.687   0.802   1.619 -0.6403  3.1712  1.5782
  152TIP3   OH2  461   4.693   4.806   2.087 -0.1360 -0.0559  0.6650
  152TIP3    H1  462   4.663   4.760   2.165 -0.0431 -0.3325  0.5384
  152TIP3    H2  463   4.741   4.881   2.121 -2.6360  1.5690  0.9017
  153TIP3   OH2  464   3.163   2.443   1.683 -0.0350 -0.0324 -0.1488
  153TIP3    H1  465   3.155   2.378   1.753  2.1015  0.8952  1.0736
  153TIP3    H2  466   3.245   2.419   1.638 -0.1465  0.7973 -0.8073
  154TIP3   OH2  467   0.671   2.675   4.678  0.6414 -0.3057  0.3312
  154TIP3    H1  468   0.651   2.761   4.640 -0.1340 -0.4589  0.3728
  154TIP3    H2  469   0.745   2.691   4.736  0.7937  0.2495 -0.0083
  155TIP3   OH2  470   4.152   5.539   1.617  0.3645 -0.2804  0.4572
  155TIP3    H1  471   4.148   5.454   1.573  0.8074  0.1480 -0.4438
  155TIP3    H2  472   4.228   5.532   1.675  0.6546 -0.3680  0.0742
  156TIP3   OH2  473   1.337   3.468   0.204 -0.0014 -0.3921 -0.0411
  156TIP3    H1  474   1.315   3.392   0.258  0.2788  0.7394  1.7673
  156TIP3    H2  475   1.252   3.502   0.174 -0.1054 -1.6209 -1.2167
  157TIP3   OH2  476   1.834   5.679   1.923 -0.0895 -0.3803 -0.1648
  157TIP3    H1  477   1.817   5.620   1.996 -1.4926 -0.0855 -0.2222
  157TIP3    H2  478   1.929   5.688   1.921  0.1894 -2.7317 -0.2666
  158TIP3   OH2  479   3.462   0.093   3.391  0.0349  0.2273 -0.0566
  158TIP3    H1  480   3.539   0.080   3.446  0.8403 -2.7082 -1.6587
  158TIP3    H2  481   3.495   0.142   3.316  0.2085 -0.4707 -0.4405
  159TIP3   OH2  482   5.452   1.759   1.611  0.2316 -0.4401  0.1154
  159TIP3    H1  483   5.526   1.764   1.550  0.3576 -0.6075  0.2540
  159TIP3    H2  484   5.484   1.799   1.691  1.0488 -2.7723  1.0321
  160TIP3   OH2  485   2.349   0.371   3.334 -0.1832  0.0989  0.3047
  160TIP3    H1  486   2.358   0.341   3.244  2.0623  0.6051  0.2923
  160TIP3    H2  487   2.423   0.331   3.380 -0.2981  1.2030  1.5186
  161TIP3   OH2  488   5.177   5.453   1.543  0.3650 -0.0982 -0.0543
  161TIP3    H1  489   5.110   5.465   1.476  1.1047  0.0603 -0.7852
  161TIP3    H2  490   5.229   5.379   1.513  0.9169  0.1906  0.1614
  162TIP3   OH2  491   0.713   5.819   2.657  0.1378  0.0357 -0.2777
  162TIP3    H1  492   0.770   5.809   2.734 -1.9933  2.4850  1.7916
  162TIP3    H2  493   0.635   5.769   2.678  0.2367 -0.7753 -1.7266
  163TIP3   OH2  494   5.871   2.419   0.695  0.5307 -0.0054 -0.1730
  163TIP3    H1  495   5.799   2.360   0.716  1.0487 -0.3371  0.7488
  163TIP3    H2  496   5.829   2.500   0.666 -0.2107 -0.1529  0.4733
  164TIP3   OH2  497   2.559   5.581   0.886 -0.7453 -0.4084  0.2268
  164TIP3    H1  498   2.596   5.559   0.801 -2.5410  1.5500 -1.1353
  164TIP3    H2  499   2.631   5.624   0.933  0.2195 -1.3757 -0.3118
  165TIP3   OH2  500   1.795   2.987   2.222  0.0082  0.1577  0.4804
  165TIP3    H1  501   1.782   2.987   2.128 -2.5671  2.8175  0.6809
  165TIP3    H2  502   1.733   2.923   2.256  0.6289 -0.4841  0.4265
  166TIP3   OH2  503   6.356   0.942   1.071 -0.1878 -0.2883  0.3009
  166TIP3    H1  504   6.376   0.909   1.158 -2.2997  1.1551  1.4156
  166TIP3    H2  505   6.292   0.881   1.036 -0.9281  0.2736  0.6496
  167TIP3   OH2  506   4.499   1.672   1.014  0.5594 -0.4423 -0.9422
  167TIP3    H1  507   4.575   1.649   0.961  0.7135 -0.3578 -0.7594
  167TIP3    H2  508   4.534   1.684   1.103  0.5157  0.6244 -1.0458
  168TIP3   OH2  509   6.272   3.939   4.711  0.0957 -0.0479  0.2747
  168TIP3    H1  510   6.299   4.031   4.720  0.4692 -0.2005  0.8011
  168TIP3    H2  511   6.323   3.906   4.637  1.1768 -0.2543  1.0850
  169TIP3   OH2  512   5.628   0.153   0.309 -0.0597 -0.0872  0.9440
  169TIP3    H1  513   5.548   0.205   0.319  0.6417  1.3281 -0.4348
  169TIP3    H2  514   5.597   0.070   0.271 -0.8713  0.4998  0.2760
  170TIP3   OH2  515   0.181   2.900   0.794 -0.0618 -0.2243 -0.4338
  170TIP3    H1  516   0.156   2.948   0.873  1.0476  1.1633 -0.8849
  170TIP3    H2  517   0.171   2.808   0.818 -0.0492  0.1741  1.2214
  171TIP3   OH2  518   4.200   5.796   2.746 -0.1082  0.7722  1.0993
  171TIP3    H1  519   4.210   5.764   2.657  2.9461 -0.7586  1.8710
  171TIP3    H2  520   4.117   5.760   2.776 -0.5092  0.1709 -0.6431
  172TIP3   OH2  521   3.993   1.111   4.349 -0.3944 -0.2485 -0.1200
  172TIP3    H1  522   3.939   1.175   4.396 -1.4297 -1.0906 -0.1040
  172TIP3    H2  523   4.078   1.153   4.339 -0.7672  0.7447  0.7234
  173TIP3   OH2  524   3.106   3.808   3.406  0.0678 -0.3275  0.2788
  173TIP3    H1  525   3.084   3.768   3.322 -0.3693  0.4344  0.0302
  173TIP3    H2  526   3.044   3.769   3.468 -0.7354  0.3700 -0.0669
  174TIP3   OH2  527   2.657   0.719   4.438 -0.2546  0.5808 -0.1740
  174TIP3    H1  528   2.583   0.686   4.487  0.7948  0.4754  1.4271
  174TIP3    H2  529   2.682   0.800   4.483  0.6169  0.5988 -0.6504
  175TIP3   OH2  530   2.226   5.728   2.153  0.0420 -0.4528  0.0530
  175TIP3    H1  531   2.235   5.668   2.079  0.1409 -1.2648  0.7115
  175TIP3    H2  532   2.290   5.797   2.135  0.6605 -1.0788 -0.2071
  176TIP3   OH2  533   5.094   1.920   4.112 -0.0316 -0.4417 -0.1287
  176TIP3    H1  534   5.134   1.836   4.089 -1.9074 -1.5119  0.2167
  176TIP3    H2  535   5.154   1.958   4.176  0.5242 -1.8836  0.2633
  177TIP3   OH2  536   5.205   1.593   0.494 -0.0119 -0.4575 -0.1708
  177TIP3    H1  537   5.143   1.556   0.557 -0.4649 -0.7767 -0.7902
  177TIP3    H2  538   5.277   1.532   0.491  0.8777  0.4520  1.3655
  178TIP3   OH2  539   5.249   3.906   4.047  0.6952  0.0096 -0.7464
  178TIP3    H1  540   5.307   3.830   4.049 -0.0478 -0.6311 -2.2008
  178TIP3    H2  541   5.205   3.905   4.132 -0.6383 -2.2988 -1.3716
  179TIP3   OH2  542   4.848   3.144   3.737 -0.4679  0.0394  0.0464
  179TIP3    H1  543   4.860   3.231   3.699 -1.9730  0.1720 -0.1673
  179TIP3    H2  544   4.817   3.161   3.826  0.1643 -0.2929  0.3397
  180TIP3   OH2  545   0.104   3.381   4.041 -0.2942  0.3891  0.0761
  180TIP3    H1  546   0.144   3.424   4.117  4.1480  0.6563 -2.0660
  180TIP3    H2  547   0.088   3.452   3.979 -1.4309 -0.1193 -0.2381
  181TIP3   OH2  548   3.623   1.726   4.378 -0.9049  0.3812 -0.4421
  181TIP3    H1  549   3.585   1.685   4.456 -0.3681 -0.6861 -0.7168
  181TIP3    H2  550   3.689   1.786   4.412  0.3911 -1.1865 -0.0829
  182TIP3   OH2  551   2.088   5.622   4.123  0.1692 -0.2121 -0.4267
  182TIP3    H1  552   2.009   5.624   4.177  0.2954  1.8644 -0.2144
  182TIP3    H2  553   2.137   5.546   4.154 -0.7741 -0.3111  0.8929
  183TIP3   OH2  554   6.009   5.449   1.382 -0.1086  0.1697 -0.2690
  183TIP3    H1  555   5.997   5.532   1.335  0.6960  1.9506  2.4045
  183TIP3    H2  556   5.927   5.439   1.432 -0.5475 -1.1417 -1.2173
  184TIP3   OH2  557   5.062   3.929   3.630 -0.1987  0.6047  0.2159
  184TIP3    H1  558   5.141   3.969   3.667  0.1447  1.3268 -1.2018
  184TIP3    H2  559   4.992   3.953   3.690  0.9522 -2.0371  2.8187
  185TIP3   OH2  560   4.048   3.002   1.933  0.2847  0.4022 -0.1978
  185TIP3    H1  561   4.105   2.931   1.904 -0.2401  0.3844 -1.2378
  185TIP3    H2  562   4.020   3.045   1.851 -0.6534  0.8192  0.3267
  186TIP3   OH2  563   5.751   2.358   0.076 -0.3310 -0.2272  0.3332
  186TIP3    H1  564   5.740   2.265   0.056  0.8938 -0.4866  0.8116
  186TIP3    H2  565   5.732   2.366   0.169 -0.6336  0.0540  0.2542
  187TIP3   OH2  566   0.594   0.828   1.825  0.1554  0.6042 -0.2131
  187TIP3    H1  567   0.604   0.827   1.730 -0.2473 -1.5212 -0.2833
  187TIP3    H2  568   0.500   0.841   1.839  0.1065  0.1989 -0.1431
  188TIP3   OH2  569   4.990   4.066   3.407  0.2285  0.1246 -0.5030
  188TIP3    H1  570   5.072   4.114   3.396  0.1755  0.2327 -0.4277
  188TIP3    H2  571   5.007   4.007   3.481  0.7841 -1.0352 -1.5291
  189TIP3   OH2  572   2.772   1.990   3.480 -0.1173  0.2096 -0.1059
  189TIP3    H1  573   2.715   1.914   3.469  2.2084 -1.4321 -2.2470
  189TIP3    H2  574   2.847   1.956   3.529  0.3073  1.5381  0.1989
  190TIP3   OH2  575   0.468   3.928   2.404 -0.0189 -0.2653  0.4666
  190TIP3    H1  576   0.548   3.924   2.352  0.1013 -2.3241  0.7578
  190TIP3    H2  577   0.398   3.939   2.340  0.3565 -0.0116  0.0928
  191TIP3   OH2  578   2.540   3.116   4.102  0.2715 -0.3619  0.0346
  191TIP3    H1  579   2.522   3.064   4.180  1.2303  0.4618  0.8333
  191TIP3    H2  580   2.636   3.121   4.098  0.2199  1.1460 -0.1283
  192TIP3   OH2  581   4.818   0.248   0.335  0.3728 -0.5286 -0.6067
  192TIP3    H1  582   4.793   0.287   0.419  1.9222  0.7268 -0.6803
  192TIP3    H2  583   4.912   0.238   0.341  0.1191 -4.0739 -0.7445
  193TIP3   OH2  584   4.915   2.331   3.898  0.8492 -0.2228 -0.7449
  193TIP3    H1  585   4.912   2.265   3.967  0.9960  0.7073  0.1765
  193TIP3    H2  586   5.000   2.317   3.855  1.3026 -0.0205  0.0678
  194TIP3   OH2  587   5.569   3.742   2.046 -0.1676 -0.2942  0.1274
  194TIP3    H1  588   5.521   3.824   2.038  1.2243  0.7691  1.9005
  194TIP3    H2  589   5.609   3.729   1.960 -2.9921 -0.8966 -1.1958
  195TIP3   OH2  590   0.478   3.401   4.661 -0.3352  0.4662  0.3583
  195TIP3    H1  591   0.572   3.416   4.651  0.1073 -0.4916  2.5189
  195TIP3    H2  592   0.446   3.391   4.572  1.6696  0.4566 -0.4138
  196TIP3   OH2  593   0.705   3.147   4.173  0.0580 -0.3860 -0.4595
  196TIP3    H1  594   0.731   3.057   4.194  1.5354  0.2637  0.6401
  196TIP3    H2  595   0.642   3.137   4.101  0.3072 -2.2833 -0.4730
  197TIP3   OH2  596   3.503   4.674   1.207  0.2339 -0.5614 -0.3294
  197TIP3    H1  597   3.481   4.747   1.264  0.0269  0.0678 -1.2024
  197TIP3    H2  598   3.557   4.712   1.138 -1.0494 -0.9452 -1.5969
  198TIP3   OH2  599   5.357   1.817   4.176  0.7816 -0.7099 -0.0330
  198TIP3    H1  600   5.380   1.740   4.227 -1.6899 -1.2318  0.4413
  198TIP3    H2  601   5.386   1.798   4.088  2.1000 -1.2516  0.5062
  199TIP3   OH2  602   6.269   3.844   3.123 -0.0990 -0.3650 -0.5264
  199TIP3    H1  603   6.353   3.880   3.150 -0.4944  1.2560 -1.2537
  199TIP3    H2  604   6.280   3.826   3.029  0.2023 -2.5982 -0.0993
  200TIP3   OH2  605   5.087   4.891   4.806  0.3316  0.3390  0.3658
  200TIP3    H1  606   5.044   4.870   4.724  1.0328  0.0957  0.0465
  200TIP3    H2  607   5.064   4.982   4.823  0.6141  0.5636 -0.3888
  201TIP3   OH2  608   5.331   5.544   4.351  0.0970 -0.2303  0.5435
  201TIP3    H1  609   5.332   5.619   4.292 -0.1285 -0.2119  0.5641
  201TIP3    H2  610   5.358   5.470   4.296 -0.4496 -0.2763  0.3327
  202TIP3   OH2  611   2.851   0.348   0.040 -0.2646  0.0870  0.4255
  202TIP3    H1  612   2.896   0.359  -0.044 -0.6913 -0.2306  0.1502
  202TIP3    H2  613   2.763   0.321   0.016 -0.0296 -1.2505  0.9954
  203TIP3   OH2  614   3.957   1.069   4.732 -0.4864  0.1148  0.2799
  203TIP3    H1  615   3.923   0.980   4.743  0.5405 -0.3095  0.1752
  203TIP3    H2  616   3.922   1.098   4.648  0.7872 -0.9886 -0.6856
  204TIP3   OH2  617   3.676   0.738   0.356  0.8795  0.1786 -0.0744
  204TIP3    H1  618   3.743   0.684   0.314  1.0286 -0.2781  0.7204
  204TIP3    H2  619   3.688   0.825   0.319  0.0134 -0.5158 -2.1091
  205TIP3   OH2  620   2.207   2.148   0.325  0.0662  0.7662 -0.4339
  205TIP3    H1  621   2.174   2.174   0.239 -1.3484 -1.8318 -0.7792
  205TIP3    H2  622   2.301   2.135   0.313 -0.0057  1.1384 -1.3983
  206TIP3   OH2  623   5.953   1.474   4.137  0.4357 -0.3435 -0.6452
  206TIP3    H1  624   5.891   1.405   4.110  0.4525 -1.0714  1.0708
  206TIP3    H2  625   5.911   1.555   4.108 -1.9851 -0.6982  1.4501
  207TIP3   OH2  626   3.896   0.541   4.960  0.0937  0.0313 -0.0081
  207TIP3    H1  627   3.827   0.538   5.026 -1.0186  0.4305 -1.1161
  207TIP3    H2  628   3.974   0.569   5.008 -0.4567 -0.5953  1.2985
  208TIP3   OH2  629   4.702   1.338   1.431  0.1109  0.0194 -0.2794
  208TIP3    H1  630   4.790   1.332   1.394 -0.1902 -2.8354 -0.7656
  208TIP3    H2  631   4.709   1.406   1.498  2.0645  1.4908 -1.8313
  209TIP3   OH2  632   0.974   3.602   4.830  0.2049  0.0494  0.3933
  209TIP3    H1  633   0.894   3.592   4.881  0.2796 -0.2795  0.4502
  209TIP3    H2  634   1.036   3.644   4.890 -0.4134  1.8509 -0.1479
  210TIP3   OH2  635   2.303   4.664   4.704  0.1113 -0.6673  0.2603
  210TIP3    H1  636   2.390   4.702   4.716 -0.0094 -0.3740  0.2339
  210TIP3    H2  637   2.266   4.714   4.631 -0.0870 -0.7772  0.2854
  211TIP3   OH2  638   3.388   3.626   3.453 -0.2354  0.0032  0.1215
  211TIP3    H1  639   3.311   3.602   3.402  0.1134 -0.3592 -0.2375
  211TIP3    H2  640   3.436   3.687   3.397  0.4371 -0.8313 -0.2340
  212TIP3   OH2  641   4.699   4.053   3.413 -0.4243  0.2445 -0.0508
  212TIP3    H1  642   4.794   4.059   3.407 -0.5004  2.1663  0.2283
  212TIP3    H2  643   4.681   4.035   3.505 -0.2756 -3.3149 -0.5818
  213TIP3   OH2  644   3.483   2.195   4.095  0.0209  0.1798 -0.1086
  213TIP3    H1  645   3.511   2.117   4.048 -0.8385  0.7934 -1.7270
  213TIP3    H2  646   3.406   2.167   4.144 -0.5125  0.0674 -0.9798
  214TIP3   OH2  647   1.028   0.995   3.472 -0.2124  0.0400  0.1199
  214TIP3    H1  648   1.037   1.045   3.391  1.4785 -0.8411 -0.2979
  214TIP3    H2  649   0.958   1.039   3.521  0.1074  1.7988 -0.9299
  215TIP3   OH2  650   5.722   3.769   5.201 -0.5041 -0.7240 -0.5876
  215TIP3    H1  651   5.720   3.675   5.223 -2.6505 -1.4189 -3.2024
  215TIP3    H2  652   5.782   3.774   5.127  1.0736  0.3587  0.7027
  216TIP3   OH2  653   1.138   2.685   0.637 -0.0913  0.2459  0.3366
  216TIP3    H1  654   1.090   2.681   0.555  1.6065 -0.0590 -0.7054
  216TIP3    H2  655   1.099   2.618   0.692 -1.5780  0.7873 -0.0261
  217TIP3   OH2  656   6.129   0.187   0.752 -0.3844 -0.0626 -0.1547
  217TIP3    H1  657   6.183   0.186   0.831  1.0498  0.7121 -1.0778
  217TIP3    H2  658   6.191   0.173   0.680 -0.7125  4.3643 -1.5843
  218TIP3   OH2  659   5.087   4.890   3.951 -0.2022 -0.0671 -0.7236
  218TIP3    H1  660   5.173   4.911   3.988 -0.4351 -0.8136  0.2690
  218TIP3    H2  661   5.098   4.804   3.911 -0.6341 -0.4346 -0.0685
  219TIP3   OH2  662   1.315   0.802   4.966 -0.0265  0.7005 -0.8162
  219TIP3    H1  663   1.268   0.835   4.889 -2.5571 -1.0036 -0.1360
  219TIP3    H2  664   1.347   0.880   5.010  0.2672  1.7920 -2.8440
  220TIP3   OH2  665   3.199   4.129   2.907  0.4113 -0.4126 -0.3292
  220TIP3    H1  666   3.289   4.158   2.890 -0.0600  1.9048  0.7819
  220TIP3    H2  667   3.146   4.209   2.898 -1.3370 -1.4173  0.5533
  221TIP3   OH2  668   6.157   2.745   4.658 -0.0977  0.6207 -0.7450
  221TIP3    H1  669   6.172   2.675   4.593 -0.8107  1.0636 -1.4031
  221TIP3    H2  670   6.208   2.819   4.625  0.2143  0.5880 -0.3413
  222TIP3   OH2  671   0.071   2.126   3.814  0.1080 -0.1130 -0.3270
  222TIP3    H1  672   0.157   2.143   3.776 -0.8344  1.1094 -2.0499
  222TIP3    H2  673   0.022   2.082   3.744 -0.2474 -2.2100  1.1473
  223TIP3   OH2  674   3.492   4.620   3.919 -0.2534  0.3225  0.0486
  223TIP3    H1  675   3.406   4.657   3.901 -0.2708 -0.1503 -0.8609
  223TIP3    H2  676   3.532   4.608   3.833  1.2531  1.7531  0.4820
  224TIP3   OH2  677   0.504   4.142   4.267 -0.0284 -0.0127  0.2176
  224TIP3    H1  678   0.454   4.222   4.283 -1.1028 -0.3277 -1.3321
  224TIP3    H2  679   0.579   4.147   4.327  0.3785  2.5390 -0.4248
  225TIP3   OH2  680   4.316   3.860   2.678  0.2166  0.9311  0.4952
  225TIP3    H1  681   4.242   3.909   2.713 -1.1912 -0.5202 -0.3087
  225TIP3    H2  682   4.309   3.773   2.718 -0.8084 -0.4436 -2.3799
  226TIP3   OH2  683   0.743   0.532   4.584 -0.1254 -0.2811  0.3458
  226TIP3    H1  684   0.730   0.509   4.492 -2.1371  1.7021  0.0390
  226TIP3    H2  685   0.718   0.453   4.632 -1.4712 -0.5808 -0.7785
  227TIP3   OH2  686   4.404   5.021   2.818  0.6691  0.3506  0.5715
  227TIP3    H1  687   4.345   4.952   2.789  2.2042 -1.0082  0.5104
  227TIP3    H2  688   4.367   5.052   2.901  0.3888 -1.1845  1.0545
  228TIP3   OH2  689   2.768   1.930   2.536  0.0656  0.3771 -0.2674
  228TIP3    H1  690   2.831   1.859   2.529 -1.2430 -1.1054  1.9153
  228TIP3    H2  691   2.799   1.983   2.609 -0.0444  0.9165 -0.6053
  229TIP3   OH2  692   1.039   4.068   0.487  0.3547  0.5974 -0.6791
  229TIP3    H1  693   1.065   4.016   0.411 -0.8334  3.0954 -2.9394
  229TIP3    H2  694   1.026   4.156   0.453  0.9714  2.1572  2.7019
  230TIP3   OH2  695   1.437   1.789   5.110 -0.5641 -0.5333  0.4664
  230TIP3    H1  696   1.519   1.825   5.077 -0.9238 -0.3153 -0.2157
  230TIP3    H2  697   1.388   1.865   5.142 -0.9971 -0.5079 -0.2451
  231TIP3   OH2  698   1.489   2.433   4.015 -0.4412  0.0032  0.0185
  231TIP3    H1  699   1.420   2.438   4.081 -0.1135  0.0373  0.3652
  231TIP3    H2  700   1.447   2.462   3.934 -1.0972 -0.9165  0.0067
  232TIP3   OH2  701   1.875   4.369   1.895 -1.0797 -0.7093  0.0678
  232TIP3    H1  702   1.964   4.362   1.929 -1.0068 -2.3270 -0.3597
  232TIP3    H2  703   1.818   4.348   1.969 -1.0453 -1.0719 -0.0075
  233TIP3   OH2  704   0.597   1.095   2.625 -0.1467  0.0613  0.1839
  233TIP3    H1  705   0.565   1.150   2.553 -0.4519  0.5320  0.6757
  233TIP3    H2  706   0.557   1.009   2.609  1.3618 -0.4145 -1.3244
  234TIP3   OH2  707   2.103   3.285   1.472 -0.5521  1.0164 -0.0061
  234TIP3    H1  708   2.030   3.250   1.422 -1.1552  0.8045  0.9929
  234TIP3    H2  709   2.102   3.379   1.454 -2.2114  1.3154  1.3588
  235TIP3   OH2  710   1.120   5.222   2.739 -0.3129  0.0746 -0.0726
  235TIP3    H1  711   1.051   5.288   2.740 -0.0391  0.3555  0.6168
  235TIP3    H2  712   1.174   5.242   2.815 -1.8802 -2.6892  1.9602
  236TIP3   OH2  713   2.363   5.166   0.052 -0.0518  0.0708  0.7810
  236TIP3    H1  714   2.454   5.140   0.038 -0.3837 -0.4051 -0.7070
  236TIP3    H2  715   2.323   5.160  -0.034 -1.3755  0.7948  1.3128
  237TIP3   OH2  716   5.890   3.089   0.532 -0.1843 -0.1265 -0.0879
  237TIP3    H1  717   5.835   3.015   0.558 -0.6214  0.2880  0.1841
  237TIP3    H2  718   5.979   3.054   0.533 -0.5226 -1.1768 -1.7876
  238TIP3   OH2  719   4.147   5.292   1.491  0.4317 -0.5899 -0.7192
  238TIP3    H1  720   4.228   5.257   1.526 -0.2925 -2.8805 -1.1931
  238TIP3    H2  721   4.154   5.281   1.396 -0.4080 -0.7624 -0.7707
  239TIP3   OH2  722   5.206   1.064   0.341  0.3737  0.0457  0.0782
  239TIP3    H1  723   5.165   1.138   0.296  1.4047  1.2413  1.0080
  239TIP3    H2  724   5.296   1.092   0.356  1.6771 -2.5696 -2.0574
  240TIP3   OH2  725   4.383   3.256   0.885 -0.0964  0.3933 -0.0619
  240TIP3    H1  726   4.363   3.314   0.958  1.5394 -0.2970  0.9966
  240TIP3    H2  727   4.478   3.263   0.875  0.2525 -2.4746  0.4699
  241TIP3   OH2  728   3.760   2.457   4.125  0.4318 -0.1080 -0.1691
  241TIP3    H1  729   3.720   2.371   4.138 -1.6798  0.7704 -0.3994
  241TIP3    H2  730   3.759   2.497   4.212 -1.2360  0.6973 -0.5078
  242TIP3   OH2  731   3.006   0.103   4.376 -0.1343 -0.6424 -0.3472
  242TIP3    H1  732   3.070   0.169   4.403 -1.7875  1.2363 -0.7831
  242TIP3    H2  733   2.956   0.084   4.455 -1.0372  0.2781 -0.6748
  243TIP3   OH2  734   6.074   2.742   0.938 -0.3260 -0.1563 -0.1413
  243TIP3    H1  735   6.108   2.812   0.994 -1.9383  0.2299  0.4231
  243TIP3    H2  736   6.051   2.787   0.856 -0.4399 -0.2181 -0.1431
  244TIP3   OH2  737   1.530   5.151   3.482  0.0962  0.7802 -0.0732
  244TIP3    H1  738   1.505   5.243   3.471 -0.9865  0.5186  0.0696
  244TIP3    H2  739   1.456   5.102   3.447  1.1013 -0.0504 -1.0890
  245TIP3   OH2  740   2.365   1.995   3.507  0.8467  0.4363 -0.1943
  245TIP3    H1  741   2.314   1.922   3.472 -0.3613  2.1627 -2.2886
  245TIP3    H2  742   2.300   2.056   3.539  1.7865  1.0272  0.6359
  246TIP3   OH2  743   2.172   1.166   2.363  0.5914  0.6859 -0.0391
  246TIP3    H1  744   2.199   1.104   2.296  1.1451  0.5430  0.3134
  246TIP3    H2  745   2.152   1.246   2.315  0.2416  0.3525 -0.4534
  247TIP3   OH2  746   3.545   0.766   2.343  0.1367  0.0486 -0.0754
  247TIP3    H1  747   3.456   0.748   2.374  0.5201 -0.1409  0.9717
  247TIP3    H2  748   3.602   0.724   2.408  0.9968  0.7113 -0.3754
  248TIP3   OH2  749   2.360   1.119   1.884  0.5498 -0.1664  0.0422
  248TIP3    H1  750   2.397   1.156   1.804 -0.5519  0.3754 -0.2469
  248TIP3    H2  751   2.279   1.077   1.856 -0.0960  0.4371  0.9212
  249TIP3   OH2  752   2.300   3.305   4.367  0.7565 -0.6624  0.4263
  249TIP3    H1  753   2.256   3.229   4.328  1.1483  0.0446 -1.4662
  249TIP3    H2  754   2.354   3.268   4.437  0.1249 -1.9973  0.2412
  250TIP3   OH2  755   1.419   3.743   3.536 -0.1301  0.3226  0.2172
  250TIP3    H1  756   1.331   3.710   3.519 -0.2813  1.0720 -0.5282
  250TIP3    H2  757   1.476   3.689   3.481 -0.2292  0.4413 -0.0034
  251TIP3   OH2  758   4.871   3.012   0.504 -0.7408  0.0189  0.4887
  251TIP3    H1  759   4.834   3.022   0.416  1.8858  0.8671 -0.6130
  251TIP3    H2  760   4.834   2.929   0.535 -1.1187 -0.7329 -1.7445
  252TIP3   OH2  761   3.758   3.015   4.380 -0.5089 -0.5090  0.4380
  252TIP3    H1  762   3.797   2.927   4.375 -0.0146 -0.3206  0.7973
  252TIP3    H2  763   3.664   3.001   4.368 -0.4103 -1.0673  0.3015
  253TIP3   OH2  764   5.274   4.416   1.039 -0.1316  0.2475 -0.1576
  253TIP3    H1  765   5.349   4.427   0.981  0.9309 -1.2892  0.8305
  253TIP3    H2  766   5.206   4.377   0.984  0.2317  0.4798 -0.7778
  254TIP3   OH2  767   6.213   0.200   2.300  0.2201  1.1874 -0.3463
  254TIP3    H1  768   6.265   0.251   2.363  0.2311 -0.5040  1.0922
  254TIP3    H2  769   6.179   0.266   2.239  0.2579  2.9124  1.3740
  255TIP3   OH2  770   5.423   0.540   3.516  0.4468 -0.3773  0.3941
  255TIP3    H1  771   5.445   0.474   3.451  0.4849 -0.2851  0.3134
  255TIP3    H2  772   5.484   0.612   3.499  0.8108 -0.5649  0.8640
  256TIP3   OH2  773   1.028   1.556   3.003 -0.3420  0.4393  0.4364
  256TIP3    H1  774   1.017   1.645   3.038 -0.7167  0.5527  0.0467
  256TIP3    H2  775   1.047   1.569   2.910 -1.9007  0.0864  0.0371
  257TIP3   OH2  776   0.491   3.611   5.175 -0.7661  0.1279  0.0630
  257TIP3    H1  777   0.578   3.639   5.145 -0.5633  0.1419  0.6533
  257TIP3    H2  778   0.504   3.520   5.204 -0.9319  0.1519  0.2130
  258TIP3   OH2  779   1.704   0.527   3.305 -0.5301 -0.0068 -0.0038
  258TIP3    H1  780   1.745   0.469   3.242 -0.7656 -0.2888  0.0973
  258TIP3    H2  781   1.644   0.470   3.354 -0.0449  0.1234  0.7516
  259TIP3   OH2  782   1.408   2.146   4.666  0.7794 -0.1346  0.2955
  259TIP3    H1  783   1.317   2.135   4.638  1.1173 -0.6327 -0.6441
  259TIP3    H2  784   1.415   2.095   4.747 -0.1604  1.1497  1.2303
  260TIP3   OH2  785   4.123   5.946   4.756  0.0726 -0.1567  0.3006
  260TIP3    H1  786   4.167   5.880   4.810 -0.8959 -1.8079 -0.8144
  260TIP3    H2  787   4.102   6.017   4.817  0.5369 -1.1801  1.7083
  261TIP3   OH2  788   5.610   2.210   2.829 -0.3515  0.0403  0.0296
  261TIP3    H1  789   5.518   2.193   2.810 -0.6178  1.8170 -0.4229
  261TIP3    H2  790   5.639   2.267   2.758  1.4387 -1.4165 -0.4728
  262TIP3   OH2  791   4.997   5.317   2.259 -0.0709 -0.5098  0.9279
  262TIP3    H1  792   4.989   5.412   2.247  0.9813 -0.1077  2.9351
  262TIP3    H2  793   4.911   5.283   2.236 -0.2198  0.7897 -0.7073
  263TIP3   OH2  794   4.367   3.289   4.456  0.5161  0.2147  0.4721
  263TIP3    H1  795   4.415   3.225   4.404 -1.3837  1.4044 -3.1369
  263TIP3    H2  796   4.426   3.364   4.463  0.3225  0.5924 -1.4115
  264TIP3   OH2  797   5.383   4.498   3.245  0.2238  0.1478  0.0320
  264TIP3    H1  798   5.423   4.539   3.322  1.8452 -2.5023  0.7353
  264TIP3    H2  799   5.300   4.464   3.276 -1.4041  3.1167 -0.6922
  265TIP3   OH2  800   2.732   5.976   1.025 -0.2487 -0.4641 -0.4291
  265TIP3    H1  801   2.684   5.898   0.997 -0.9537  0.1059 -0.8683
  265TIP3    H2  802   2.815   5.943   1.058 -0.5236 -1.3964 -0.6386
  266TIP3   OH2  803   4.264   3.080   2.842 -0.1338 -0.5433 -0.4668
  266TIP3    H1  804   4.329   3.014   2.869 -1.2627 -0.6669  2.2369
  266TIP3    H2  805   4.186   3.029   2.823 -0.1967 -0.1906 -1.1631
  267TIP3   OH2  806   4.375   2.313   5.121 -0.6146 -0.0817 -0.1424
  267TIP3    H1  807   4.430   2.311   5.199  0.4332  3.1299 -0.6669
  267TIP3    H2  808   4.433   2.284   5.050 -0.7292 -0.3087 -0.1443
  268TIP3   OH2  809   2.988   4.473   0.234 -0.1027 -0.0626 -0.4522
  268TIP3    H1  810   2.946   4.430   0.159 -0.0331 -1.4221  0.2653
  268TIP3    H2  811   3.036   4.403   0.278 -0.9750  0.4837  1.4734
  269TIP3   OH2  812   0.458   3.678   3.771 -0.5921 -0.5697 -0.2879
  269TIP3    H1  813   0.380   3.704   3.819  0.1101 -2.0714  1.8592
  269TIP3    H2  814   0.451   3.583   3.764 -0.2706 -0.4751 -2.5677
  270TIP3   OH2  815   5.399   4.185   0.722  0.2394  0.6372 -0.1273
  270TIP3    H1  816   5.309   4.152   0.722  0.5109 -0.1377 -0.5598
  270TIP3    H2  817   5.390   4.280   0.726 -0.6071  0.5811 -0.5017
  271TIP3   OH2  818   6.090   2.977   4.038  0.2566  0.4523  0.3530
  271TIP3    H1  819   6.155   3.028   3.990  0.6489  0.1898  0.5894
  271TIP3    H2  820   6.142   2.913   4.087 -0.2306 -0.2750 -0.0581
  272TIP3   OH2  821   5.126   1.580   1.657 -0.3365 -0.3683  0.5144
  272TIP3    H1  822   5.186   1.511   1.686  0.4209  0.1183  0.1338
  272TIP3    H2  823   5.094   1.620   1.738  1.8430  1.0531  0.7447
  273TIP3   OH2  824   4.904   0.778   4.071 -0.0390  0.2764  0.1909
  273TIP3    H1  825   4.927   0.733   4.152 -0.2071 -1.4597 -0.6870
  273TIP3    H2  826   4.987   0.789   4.025  0.1670  1.9494  0.8933
  274TIP3   OH2  827   5.076   0.754   3.602  0.3183 -0.1644 -0.0225
  274TIP3    H1  828   4.985   0.761   3.630  0.7324 -0.0915  1.3566
  274TIP3    H2  829   5.121   0.824   3.650  1.2619 -0.7924  0.0263
  275TIP3   OH2  830   4.132   5.490   1.087 -0.0941 -0.2561  0.3728
  275TIP3    H1  831   4.114   5.584   1.077 -0.3187 -0.1930  1.2659
  275TIP3    H2  832   4.058   5.457   1.138  0.7520 -0.6034  1.4126
  276TIP3   OH2  833   3.390   3.782   0.785 -0.1653  0.3838  0.2171
  276TIP3    H1  834   3.465   3.789   0.843  0.2203  1.2649 -0.3606
  276TIP3    H2  835   3.358   3.872   0.774 -1.4453  0.0085  0.6180
  277TIP3   OH2  836   5.767   0.602   3.884 -0.6622 -0.2127  0.1556
  277TIP3    H1  837   5.675   0.622   3.900 -0.5536 -0.2225  0.8343
  277TIP3    H2  838   5.806   0.598   3.972 -0.1373 -0.7758 -0.0990
  278TIP3   OH2  839   0.451   4.475   0.455  0.3298 -0.8321 -0.2979
  278TIP3    H1  840   0.370   4.425   0.447 -1.4930  1.4991  1.8594
  278TIP3    H2  841   0.495   4.436   0.530 -0.7509  0.2348  0.9466
  279TIP3   OH2  842   2.612   1.477   1.439  0.1933  0.0478 -0.0786
  279TIP3    H1  843   2.582   1.566   1.456 -0.8059 -0.3452  0.2828
  279TIP3    H2  844   2.677   1.459   1.507  0.7499  0.6554 -0.4393
  280TIP3   OH2  845   3.468   4.393   0.184 -0.3365 -0.4336 -0.0628
  280TIP3    H1  846   3.446   4.465   0.125 -1.9536 -0.4776  0.4543
  280TIP3    H2  847   3.453   4.427   0.272  0.8270 -0.7788  0.2997
  281TIP3   OH2  848   2.962   1.017   1.479  0.5879 -0.1387 -0.3304
  281TIP3    H1  849   2.883   1.070   1.466  1.1071  0.4430 -1.2389
  281TIP3    H2  850   3.017   1.036   1.402  1.1751 -1.3220 -0.2313
  282TIP3   OH2  851   2.293   3.877   2.813  0.4943 -0.0948 -0.1800
  282TIP3    H1  852   2.339   3.960   2.802  1.0667 -0.4298 -0.3346
  282TIP3    H2  853   2.227   3.877   2.744 -1.0390  1.2286  1.1758
  283TIP3   OH2  854   5.180   5.818   5.071 -0.1636  0.0595  0.1603
  283TIP3    H1  855   5.144   5.885   5.129  1.4003  0.2398  0.9846
  283TIP3    H2  856   5.274   5.835   5.071 -0.1006  0.1946 -2.6021
  284TIP3   OH2  857   2.282   5.031   1.308 -0.0698  0.2265  0.5728
  284TIP3    H1  858   2.288   5.080   1.226  2.0725  0.0993  0.6043
  284TIP3    H2  859   2.355   5.063   1.360 -2.2911  1.5078  3.1792
  285TIP3   OH2  860   3.724   2.350   4.684 -0.0134  0.1519 -0.6552
  285TIP3    H1  861   3.819   2.359   4.678  0.5937 -2.1405  2.5619
  285TIP3    H2  862   3.699   2.308   4.602  2.3198 -2.0389 -0.3837
  286TIP3   OH2  863   2.809   5.020   3.884 -0.0107  0.0932  0.0270
  286TIP3    H1  864   2.795   5.109   3.851  1.1229 -0.2437 -1.4727
  286TIP3    H2  865   2.772   4.963   3.816  1.5127 -0.6154 -0.2444
  287TIP3   OH2  866   5.548   0.463   1.067 -0.1632 -0.2656  0.2766
  287TIP3    H1  867   5.520   0.504   1.149  0.5072 -2.1381  1.5286
  287TIP3    H2  868   5.550   0.534   1.004 -2.3249  0.9429  1.4569
  288TIP3   OH2  869   4.227   2.335   0.564  0.8272 -0.1642 -0.4083
  288TIP3    H1  870   4.163   2.264   0.566  1.7362 -1.0113 -0.3932
  288TIP3    H2  871   4.250   2.345   0.472 -0.4548  1.2138 -0.6121
  289TIP3   OH2  872   4.584   5.250   3.694  0.2766  0.6227 -0.4299
  289TIP3    H1  873   4.604   5.162   3.660  0.2279 -1.2679  3.8323
  289TIP3    H2  874   4.667   5.280   3.731 -0.6054  0.4121  1.8832
  290TIP3   OH2  875   5.015   4.294   4.145 -0.9238  0.0925  0.3223
  290TIP3    H1  876   4.997   4.211   4.102  1.9065 -0.7053  0.5125
  290TIP3    H2  877   5.018   4.274   4.238  3.1364 -0.5107  0.2506
  291TIP3   OH2  878   5.278   5.852   3.652  0.1298 -0.1046 -0.1508
  291TIP3    H1  879   5.371   5.835   3.640  0.5651  1.4663  0.7040
  291TIP3    H2  880   5.251   5.898   3.572  0.4783  0.8095  0.2412
  292TIP3   OH2  881   0.473   5.882   3.740 -0.6969  0.1897 -0.4219
  292TIP3    H1  882   0.418   5.910   3.813 -0.4837 -1.3900  0.3895
  292TIP3    H2  883   0.422   5.813   3.697  0.0864 -0.3587 -0.4728
  293TIP3   OH2  884   0.500   0.852   3.520 -0.1307 -0.1119  1.0563
  293TIP3    H1  885   0.595   0.848   3.519 -0.1543 -0.5725  0.2340
  293TIP3    H2  886   0.472   0.764   3.543 -0.3624  0.1271  1.7326
  294TIP3   OH2  887   4.260   2.627   4.619 -0.0585 -0.7618  0.1630
  294TIP3    H1  888   4.202   2.664   4.685  0.2931  1.0708 -0.5095
  294TIP3    H2  889   4.305   2.555   4.664  1.2405  1.3123  2.3891
  295TIP3   OH2  890   4.584   1.729   1.826  0.5921  0.1598  0.2268
  295TIP3    H1  891   4.657   1.786   1.801  1.2332 -0.0709  1.4585
  295TIP3    H2  892   4.614   1.687   1.907 -1.1520  0.5540  1.1187
  296TIP3   OH2  893   4.122   2.088   0.347 -0.3929  0.0447 -0.5280
  296TIP3    H1  894   4.043   2.136   0.320 -0.0325  1.0154  0.0855
  296TIP3    H2  895   4.108   1.999   0.315 -1.9027  0.1113 -0.1265
  297TIP3   OH2  896   0.169   1.888   3.956  0.5811  0.2013  0.0814
  297TIP3    H1  897   0.089   1.838   3.974  0.6297 -0.1898 -0.7517
  297TIP3    H2  898   0.137   1.976   3.936  0.4792  0.4633  1.3076
  298TIP3   OH2  899   2.280   4.506   3.542 -0.1267 -0.3109 -0.0266
  298TIP3    H1  900   2.339   4.444   3.498 -0.1084  0.0273 -0.4954
  298TIP3    H2  901   2.280   4.583   3.484 -0.2504  0.0735  0.4768
  299TIP3   OH2  902   4.168   0.251   2.122 -0.2523  0.5779  0.6222
  299TIP3    H1  903   4.124   0.236   2.206 -1.3928  0.0594 -0.0316
  299TIP3    H2  904   4.258   0.222   2.136 -0.6255 -0.2358  1.4584
  300TIP3   OH2  905   2.249   2.839   3.085 -0.5281 -0.1163  0.4748
  300TIP3    H1  906   2.305   2.914   3.065  0.7600 -1.6244 -2.0773
  300TIP3    H2  907   2.277   2.811   3.173  0.9204  0.7232  0.3102
  301TIP3   OH2  908   2.020   3.674   0.193 -0.8213  0.2706  0.2320
  301TIP3    H1  909   2.062   3.594   0.160  0.5391  2.2856 -3.6011
  301TIP3    H2  910   1.928   3.665   0.167  0.0245  1.3531 -3.8484
  302TIP3   OH2  911   4.280   0.332   4.346 -1.0839  0.1329 -0.6969
  302TIP3    H1  912   4.247   0.244   4.362 -2.4506  0.9494  1.3702
  302TIP3    H2  913   4.203   0.389   4.352  0.0980  1.7139  0.5196
  303TIP3   OH2  914   2.949   2.581   0.902  0.0493  0.8817 -0.0727
  303TIP3    H1  915   2.920   2.603   0.991 -2.1108  1.3876 -0.8195
  303TIP3    H2  916   2.949   2.665   0.856  0.6318  0.5493 -0.6909
  304TIP3   OH2  917   3.121   1.096   4.413 -0.2655 -0.2836  0.2081
  304TIP3    H1  918   3.085   1.011   4.438  1.0431 -0.9154  0.0289
  304TIP3    H2  919   3.045   1.154   4.408 -1.2123 -1.4960  0.0988
  305TIP3   OH2  920   1.958   5.809   2.687  0.0887 -0.1891  0.2436
  305TIP3    H1  921   1.919   5.753   2.619  2.4550 -1.1273 -0.4398
  305TIP3    H2  922   2.003   5.748   2.745  0.0093  0.7999  1.3785
  306TIP3   OH2  923   5.834   3.805   4.947 -0.1372  0.2254  0.2079
  306TIP3    H1  924   5.847   3.711   4.930  0.3013  0.5055 -1.1716
  306TIP3    H2  925   5.901   3.848   4.893 -1.5054  1.4125 -0.6002
  307TIP3   OH2  926   4.015   5.015   4.006  0.6483  0.3640 -0.1587
  307TIP3    H1  927   4.003   4.924   4.033  0.4949  0.2677 -0.5382
  307TIP3    H2  928   4.025   5.011   3.911  1.7255  0.6434 -0.0648
  308TIP3   OH2  929   2.815   3.046   4.055  0.1698  0.1826  0.0630
  308TIP3    H1  930   2.824   2.953   4.073  2.4510 -0.3043 -2.7704
  308TIP3    H2  931   2.872   3.089   4.118  0.3297 -0.4790  0.3739
  309TIP3   OH2  932   2.388   5.576   0.556  0.1588 -0.5325  0.2398
  309TIP3    H1  933   2.295   5.574   0.531  0.3433 -0.6562 -0.4703
  309TIP3    H2  934   2.388   5.599   0.649 -0.5510  0.3327  0.0396
  310TIP3   OH2  935   1.033   0.996   1.326 -0.3485 -0.1201 -0.0398
  310TIP3    H1  936   1.057   1.045   1.405  0.6198 -1.9303  0.8658
  310TIP3    H2  937   0.938   0.988   1.331 -0.4150  0.7568  0.3223
  311TIP3   OH2  938   5.202   4.784   0.576 -0.2469 -0.1158 -0.5121
  311TIP3    H1  939   5.186   4.722   0.505  1.1188  1.0709 -1.9209
  311TIP3    H2  940   5.279   4.833   0.549 -1.3097  2.2923  0.4587
  312TIP3   OH2  941   1.859   1.715   4.773  0.2660 -0.2560  0.3841
  312TIP3    H1  942   1.917   1.784   4.805  0.2538 -0.1619  0.2033
  312TIP3    H2  943   1.881   1.706   4.680 -0.9901  0.7690 -0.0440
  313TIP3   OH2  944   6.332   2.815   4.923 -0.4919  0.7598  0.4500
  313TIP3    H1  945   6.319   2.876   4.851  0.2701  0.5754  0.1397
  313TIP3    H2  946   6.416   2.840   4.961 -0.8583  0.8207  1.2446
  314TIP3   OH2  947   0.428   0.252   4.992  0.0710  0.2700  0.7015
  314TIP3    H1  948   0.518   0.233   4.966  0.1348 -0.1226  1.2051
  314TIP3    H2  949   0.381   0.170   4.979 -0.2304  0.4843  0.3975
  315TIP3   OH2  950   3.431   5.356   1.999 -0.0972  0.1043  0.7758
  315TIP3    H1  951   3.350   5.355   1.949  0.1288  1.2927  0.3514
  315TIP3    H2  952   3.481   5.282   1.965 -0.8163 -0.3737  0.7378
  316TIP3   OH2  953   2.807   0.482   4.396  0.4796  0.3275 -0.6305
  316TIP3    H1  954   2.821   0.482   4.301 -1.3869 -0.1666 -0.9552
  316TIP3    H2  955   2.776   0.570   4.416  0.2030  0.2256 -0.6035
  317TIP3   OH2  956   2.282   4.233   4.607  0.4249  0.2814  0.4613
  317TIP3    H1  957   2.245   4.275   4.685 -0.9458  0.4893 -0.2546
  317TIP3    H2  958   2.363   4.282   4.590 -0.5735  1.9769  0.2822
  318TIP3   OH2  959   6.312   4.903   1.573  0.5245 -0.0229 -0.2298
  318TIP3    H1  960   6.302   4.853   1.654 -1.1144  0.4162 -0.1291
  318TIP3    H2  961   6.324   4.993   1.602 -1.4063  0.3428 -0.4532
  319TIP3   OH2  962   3.700   2.899   3.297  0.2417  0.0992 -0.3418
  319TIP3    H1  963   3.695   2.809   3.331  1.7009  0.7225  1.7144
  319TIP3    H2  964   3.691   2.954   3.375 -1.4300  1.8089 -1.6583
  320TIP3   OH2  965   4.633   2.004   4.680 -0.2029  0.2088  0.3359
  320TIP3    H1  966   4.567   2.041   4.621 -0.9278  0.2151  1.1437
  320TIP3    H2  967   4.636   1.911   4.656 -0.7769  0.1319  0.5327
  321TIP3   OH2  968   1.929   1.809   0.142 -0.4825 -0.2735 -0.1555
  321TIP3    H1  969   1.974   1.890   0.166  1.7036 -1.5758  0.4863
  321TIP3    H2  970   1.954   1.793   0.051 -2.5255  0.7128 -0.9578
  322TIP3   OH2  971   1.145   0.615   2.625  0.3012 -0.6982 -0.0797
  322TIP3    H1  972   1.158   0.524   2.650 -0.9169 -0.9639 -0.3520
  322TIP3    H2  973   1.131   0.612   2.530  0.3613 -0.2130 -0.1083
  323TIP3   OH2  974   0.306   2.573   1.660 -0.2103  0.2203  0.0330
  323TIP3    H1  975   0.379   2.514   1.642  0.8196  1.3911  0.2637
  323TIP3    H2  976   0.262   2.583   1.576 -1.3479 -2.0348  0.2677
  324TIP3   OH2  977   3.248   1.532   1.366  0.0432  0.2456  0.2973
  324TIP3    H1  978   3.285   1.465   1.309  0.3806  0.7838 -0.1229
  324TIP3    H2  979   3.207   1.595   1.306  0.7799  1.0432  0.6105
  325TIP3   OH2  980   3.078   2.453   4.037 -0.0582 -0.9619  0.1740
  325TIP3    H1  981   3.108   2.458   3.946 -0.4190  1.1219  0.1173
  325TIP3    H2  982   2.983   2.443   4.031 -0.1340 -0.3415  0.3192
  326TIP3   OH2  983   2.650   5.544   1.833  0.3223 -0.1515  0.1009
  326TIP3    H1  984   2.620   5.627   1.796 -0.1777 -0.1049  0.6202
  326TIP3    H2  985   2.746   5.548   1.824  0.2749  0.2899 -0.2664
  327TIP3   OH2  986   2.486   5.902   0.404  0.4617 -0.0265  0.1759
  327TIP3    H1  987   2.455   5.843   0.336 -2.0595  0.6792  0.6111
  327TIP3    H2  988   2.413   5.909   0.466  1.4916  1.7775  1.2985
  328TIP3   OH2  989   4.033   2.578   0.845  0.3560 -0.4652  0.4338
  328TIP3    H1  990   4.126   2.556   0.840  0.2429 -1.0661  0.8592
  328TIP3    H2  991   4.013   2.617   0.760  0.8575 -0.8817  0.1168
  329TIP3   OH2  992   3.519   5.610   1.972  0.5424 -0.2663 -0.0495
  329TIP3    H1  993   3.563   5.599   1.888  1.0446 -0.4045  0.2282
  329TIP3    H2  994   3.476   5.526   1.988 -1.4800  0.4666 -1.2380
  330TIP3   OH2  995   4.836   2.285   2.309 -0.4308 -0.4895 -0.3802
  330TIP3    H1  996   4.891   2.302   2.233 -0.4743  1.5485 -0.0246
  330TIP3    H2  997   4.754   2.331   2.289  0.8090  3.4923  2.3163
  331TIP3   OH2  998   1.108   1.609   1.169 -0.1103 -0.1635  0.0973
  331TIP3    H1  999   1.120   1.534   1.228 -1.7533 -2.0209 -1.7960
  331TIP3    H2 1000   1.136   1.577   1.083 -0.0042  1.7149 -0.6130
  332TIP3   OH2 1001   3.345   5.505   4.842  0.2797 -0.6458 -0.4010
  332TIP3    H1 1002   3.384   5.418   4.850 -1.6602 -1.4100  2.0449
  332TIP3    H2 1003   3.332   5.517   4.748  1.1285 -2.7473 -0.8418
  333TIP3   OH2 1004   4.450   1.450   2.593 -0.5053  0.2162  0.3739
  333TIP3    H1 1005   4.466   1.521   2.655 -0.1459  0.1108  0.4052
  333TIP3    H2 1006   4.363   1.468   2.558  0.4131  1.9079 -1.2172
  334TIP3   OH2 1007   2.541   1.684   1.836  0.2350 -0.1404  0.5702
  334TIP3    H1 1008   2.489   1.606   1.853  1.7340 -1.5094 -0.7704
  334TIP3    H2 1009   2.632   1.655   1.848  0.8012  1.5864  0.7290
  335TIP3   OH2 1010   3.206   3.544   1.687  0.5671  0.2470  0.2975
  335TIP3    H1 1011   3.184   3.605   1.617 -0.9040 -0.8572 -0.2379
  335TIP3    H2 1012   3.265   3.481   1.646  1.3652  0.7698  0.6167
  336TIP3   OH2 1013   0.999   1.729   1.433 -0.1996 -0.2033  0.1458
  336TIP3    H1 1014   0.935   1.794   1.403 -2.1435 -0.9476  2.3472
  336TIP3    H2 1015   1.011   1.671   1.358 -1.5046  0.4483 -0.6047
  337TIP3   OH2 1016   3.495   4.292   2.580  0.1724  0.3829  0.2884
  337TIP3    H1 1017   3.468   4.297   2.672 -0.8236 -1.2922  0.1360
  337TIP3    H2 1018   3.494   4.382   2.549  2.2969  1.2344  2.3756
  338TIP3   OH2 1019   2.812   3.387   3.053  0.1565  0.0787 -0.5297
  338TIP3    H1 1020   2.724   3.423   3.062  0.2280 -0.0780  1.0978
  338TIP3    H2 1021   2.834   3.355   3.141  0.5267 -2.9355 -1.6014
  339TIP3   OH2 1022   1.721   2.689   2.145  0.1930  0.2521 -0.1921
  339TIP3    H1 1023   1.655   2.747   2.183 -1.9341 -1.3922 -1.2006
  339TIP3    H2 1024   1.770   2.657   2.221 -2.9273 -1.7051  1.2067
  340TIP3   OH2 1025   2.386   3.752   5.010 -0.2003  0.1277  0.3197
  340TIP3    H1 1026   2.420   3.838   4.984 -0.4893 -0.2332 -1.3971
  340TIP3    H2 1027   2.447   3.689   4.972 -0.1180 -0.4441  1.3685
  341TIP3   OH2 1028   3.026   5.376   0.824 -0.3923  0.3246  0.1363
  341TIP3    H1 1029   3.030   5.296   0.770  0.2814  0.7983 -0.5325
  341TIP3    H2 1030   3.020   5.343   0.914 -0.0617 -0.4913 -0.1253
  342TIP3   OH2 1031   0.922   2.211   0.527  0.4869  0.5673  0.0728
  342TIP3    H1 1032   0.849   2.182   0.583  1.0549 -0.1292  0.4715
  342TIP3    H2 1033   0.928   2.144   0.459  0.4802  0.8566 -0.2157
  343TIP3   OH2 1034   1.105   4.227   1.051  0.0709  0.1803  0.1746
  343TIP3    H1 1035   1.028   4.191   1.007  0.5373 -0.4273 -0.1728
  343TIP3    H2 1036   1.078   4.313   1.081 -0.1553  0.8061 -1.6685
  344TIP3   OH2 1037   4.361   2.905   0.330  0.1810 -0.2122  0.5824
  344TIP3    H1 1038   4.328   2.854   0.404  0.0063  0.7121  1.1511
  344TIP3    H2 1039   4.299   2.886   0.259 -0.2323 -0.3130  0.9648
  345TIP3   OH2 1040   2.491   1.951   1.319  0.2760  0.1298 -0.0158
  345TIP3    H1 1041   2.557   1.963   1.251 -0.0379  1.6196 -0.0904
  345TIP3    H2 1042   2.422   2.014   1.297  0.3857  1.0105  1.9520
  346TIP3   OH2 1043   3.289   0.401   1.565 -0.5123  0.1584 -0.5252
  346TIP3    H1 1044   3.261   0.484   1.526 -1.6698 -1.3317 -3.1382
  346TIP3    H2 1045   3.218   0.378   1.625 -0.6134  0.6168 -0.4643
  347TIP3   OH2 1046   2.255   5.037   4.628 -0.3348  0.1319 -0.2288
  347TIP3    H1 1047   2.306   5.019   4.707 -0.2282  1.4719  0.0202
  347TIP3    H2 1048   2.320   5.040   4.558 -0.3759 -0.5886 -0.3088
  348TIP3   OH2 1049   5.106   2.348   2.079  0.4680 -0.0019  0.0140
  348TIP3    H1 1050   5.117   2.277   2.142 -0.4972 -0.3367 -0.1717
  348TIP3    H2 1051   5.036   2.318   2.021  1.7349  0.0425 -1.6027
  349TIP3   OH2 1052   3.544   5.377   0.188 -0.4228 -0.0817  0.2336
  349TIP3    H1 1053   3.536   5.293   0.234 -1.7834 -1.1417 -1.7540
  349TIP3    H2 1054   3.459   5.419   0.200 -0.3531  0.1970 -0.2181
  350TIP3   OH2 1055   5.717   0.453   2.337 -1.0046 -0.6099  0.0756
  350TIP3    H1 1056   5.745   0.363   2.352 -0.3628 -0.6947 -1.4073
  350TIP3    H2 1057   5.791   0.493   2.290 -1.2577  0.7078  0.7598
  351TIP3   OH2 1058   5.594   5.950   0.153 -0.4194 -0.4014  0.3821
  351TIP3    H1 1059   5.599   5.973   0.060  0.5023  1.4938  0.8599
  351TIP3    H2 1060   5.604   5.854   0.154 -0.3067 -0.4518 -1.4439
  352TIP3   OH2 1061   3.738   2.780   4.796  0.1743  0.0435 -0.4027
  352TIP3    H1 1062   3.825   2.761   4.760  0.7523  0.5253  0.6848
  352TIP3    H2 1063   3.750   2.861   4.846 -0.7956 -0.1381  0.1464
  353TIP3   OH2 1064   4.868   2.837   2.838  0.4457  0.1015  0.3621
  353TIP3    H1 1065   4.801   2.905   2.850  0.7726  0.3245  0.9498
  353TIP3    H2 1066   4.877   2.830   2.743 -1.4812 -1.0051  0.2028
  354TIP3   OH2 1067   5.626   0.092   2.837 -1.0349  0.5684 -0.2475
  354TIP3    H1 1068   5.556   0.029   2.856 -0.8115 -0.1593 -1.6581
  354TIP3    H2 1069   5.699   0.038   2.809 -0.1707  1.3747  0.4076
  355TIP3   OH2 1070   3.585   2.684   0.805 -0.4129 -0.1532  0.2448
  355TIP3    H1 1071   3.636   2.622   0.859 -1.3194  0.2792  1.6652
  355TIP3    H2 1072   3.507   2.635   0.780 -0.5086 -0.0061  0.2534
  356TIP3   OH2 1073   6.169   0.121   4.995  0.4714 -0.0655  0.1200
  356TIP3    H1 1074   6.150   0.048   5.054  0.7494  0.4402  0.8532
  356TIP3    H2 1075   6.168   0.198   5.052 -0.5136  0.6047 -0.7537
  357TIP3   OH2 1076   6.018   0.381   1.128  0.2472  0.6252  0.2918
  357TIP3    H1 1077   6.085   0.388   1.060  0.1968  0.5820  0.2373
  357TIP3    H2 1078   5.963   0.459   1.115 -0.6090 -0.0957 -0.6345
  358TIP3   OH2 1079   5.654   3.359   4.359 -0.1129  0.4206 -0.0720
  358TIP3    H1 1080   5.586   3.333   4.421 -1.4029  1.6243 -0.9232
  358TIP3    H2 1081   5.649   3.293   4.289  1.7693 -1.3092  1.3019
  359TIP3   OH2 1082   2.318   1.081   3.323 -0.2158 -0.4897 -0.1770
  359TIP3    H1 1083   2.366   1.048   3.247 -0.7734 -0.5482 -0.5071
  359TIP3    H2 1084   2.229   1.048   3.312 -0.7640  1.0147 -0.4635
  360TIP3   OH2 1085   5.728   0.942   1.556 -0.1618  0.2719 -0.3170
  360TIP3    H1 1086   5.796   1.003   1.529  0.4759 -0.6972 -1.0079
  360TIP3    H2 1087   5.750   0.920   1.646 -0.8701  1.6611  0.2131
  361TIP3   OH2 1088   4.723   1.481   3.386 -0.4446  0.4034 -0.8522
  361TIP3    H1 1089   4.766   1.433   3.316 -1.1107 -0.2068 -0.8559
  361TIP3    H2 1090   4.684   1.557   3.343 -0.3686  0.3299 -1.0499
  362TIP3   OH2 1091   5.748   2.916   0.113 -0.0323 -0.9049 -0.3559
  362TIP3    H1 1092   5.810   2.981   0.147  1.6776 -0.0760 -4.4595
  362TIP3    H2 1093   5.766   2.837   0.164  0.7045  0.7004  2.0510
  363TIP3   OH2 1094   2.440   4.431   0.034  0.3688 -0.3726 -0.1627
  363TIP3    H1 1095   2.405   4.506   0.081 -1.4753 -2.2370  1.6995
  363TIP3    H2 1096   2.520   4.407   0.081  0.3477 -0.2417 -0.0614
  364TIP3   OH2 1097   0.959   4.435   1.165  0.2227 -0.1542  0.5696
  364TIP3    H1 1098   0.932   4.482   1.087 -1.6397 -1.5572  0.2992
  364TIP3    H2 1099   0.908   4.475   1.236  0.1133 -0.4476  0.6594
  365TIP3   OH2 1100   4.982   3.796   4.203  0.5774 -0.2914  0.2375
  365TIP3    H1 1101   4.936   3.874   4.173 -0.4091 -1.3291 -1.0632
  365TIP3    H2 1102   5.064   3.829   4.239  0.1227  1.3461 -0.1405
  366TIP3   OH2 1103   4.557   3.122   1.188 -0.9998  0.4830  0.3817
  366TIP3    H1 1104   4.469   3.119   1.225 -1.3882  1.3988 -0.4316
  366TIP3    H2 1105   4.565   3.210   1.153 -0.2477 -0.0036 -0.7290
  367TIP3   OH2 1106   6.277   0.317   1.870  0.3724 -0.1410  0.0724
  367TIP3    H1 1107   6.328   0.254   1.819 -1.8946 -0.2172 -2.2781
  367TIP3    H2 1108   6.304   0.402   1.837 -1.1327 -0.1920 -1.3693
  368TIP3   OH2 1109   3.396   1.630   0.391  0.0407  0.5362  0.1286
  368TIP3    H1 1110   3.462   1.560   0.384 -1.3005 -0.7964  0.2711
  368TIP3    H2 1111   3.411   1.668   0.478  1.8376  1.5877 -0.5781
  369TIP3   OH2 1112   1.758   0.857   4.190 -0.4447  0.4119  0.1191
  369TIP3    H1 1113   1.836   0.883   4.141 -0.6411  2.7694  0.9243
  369TIP3    H2 1114   1.688   0.911   4.155 -0.8998  1.0470  1.9001
  370TIP3   OH2 1115   4.482   2.829   2.643  0.4879 -0.3008  0.2930
  370TIP3    H1 1116   4.502   2.831   2.737 -0.0682 -0.9706  0.4305
  370TIP3    H2 1117   4.536   2.899   2.606  2.3863 -1.4245  0.7947
  371TIP3   OH2 1118   1.974   3.064   1.847  0.0440  0.1908  0.1191
  371TIP3    H1 1119   2.044   3.121   1.879 -0.4086 -0.0161  1.5464
  371TIP3    H2 1120   1.958   3.093   1.758  1.0508  1.1066  0.2164
  372TIP3   OH2 1121   2.227   2.173   4.720 -0.5320 -0.2380 -0.2552
  372TIP3    H1 1122   2.218   2.163   4.626 -1.9874 -0.4612 -0.1216
  372TIP3    H2 1123   2.294   2.109   4.745  0.5086  0.4326 -1.2216
  373TIP3   OH2 1124   3.438   5.717   0.191 -0.1192 -0.6287 -0.4045
  373TIP3    H1 1125   3.508   5.773   0.159 -1.1789  0.4934 -0.8299
  373TIP3    H2 1126   3.363   5.738   0.135 -2.1682  1.6566  2.9060
  374TIP3   OH2 1127   5.447   2.838   3.626  0.3086  0.4579 -0.1406
  374TIP3    H1 1128   5.450   2.785   3.546  0.5534  0.1103  0.0933
  374TIP3    H2 1129   5.465   2.927   3.597 -2.5941  0.8859 -0.9188
  375TIP3   OH2 1130   5.089   4.264   1.240  0.4555 -0.1500 -0.1813
  375TIP3    H1 1131   5.115   4.304   1.157 -0.5219 -1.4291 -1.1582
  375TIP3    H2 1132   5.038   4.332   1.285 -1.5944 -0.3490 -2.0138
  376TIP3   OH2 1133   4.601   0.639   0.962 -0.4268 -0.0613 -0.7233
  376TIP3    H1 1134   4.608   0.647   1.058  0.9653 -1.1339 -0.7011
  376TIP3    H2 1135   4.678   0.685   0.929 -0.4061 -0.4875 -1.2790
  377TIP3   OH2 1136   2.499   2.258   2.408  0.2479  0.8433  0.1742
  377TIP3    H1 1137   2.559   2.215   2.347 -1.5022 -0.9290 -0.3935
  377TIP3    H2 1138   2.483   2.194   2.477  0.6332  2.0925  1.4848
  378TIP3   OH2 1139   3.421   0.333   2.948 -0.1749 -0.3818 -0.1681
  378TIP3    H1 1140   3.475   0.411   2.963 -1.5461  0.1745  2.6152
  378TIP3    H2 1141   3.331   0.365   2.956 -0.8625 -1.8777 -1.3450
  379TIP3   OH2 1142   2.218   3.321   0.194 -0.0382 -0.3118 -0.0866
  379TIP3    H1 1143   2.250   3.232   0.207 -0.1296 -0.2443  0.6337
  379TIP3    H2 1144   2.179   3.345   0.278  0.4687  0.6086 -0.1066
  380TIP3   OH2 1145   6.120   3.693   4.602 -0.1022 -0.1210  0.0553
  380TIP3    H1 1146   6.155   3.704   4.690 -1.0223 -0.7254  0.5216
  380TIP3    H2 1147   6.181   3.740   4.545 -1.3280  3.3624  1.3391
  381TIP3   OH2 1148   2.086   2.275   0.097  0.4723 -0.0345 -0.8276
  381TIP3    H1 1149   2.042   2.212   0.040 -0.0351 -1.1049  0.6739
  381TIP3    H2 1150   2.178   2.271   0.071  0.4270 -1.3196 -0.8553
  382TIP3   OH2 1151   4.350   2.820   0.034 -0.0567 -0.1745  0.0905
  382TIP3    H1 1152   4.405   2.893   0.064 -0.1046 -0.4177  0.8024
  382TIP3    H2 1153   4.340   2.834  -0.060  0.7031  0.2190  0.0640
  383TIP3   OH2 1154   3.199   2.591   4.233  0.7210 -0.5941  0.4281
  383TIP3    H1 1155   3.284   2.548   4.224  1.1920  0.5779 -1.2757
  383TIP3    H2 1156   3.148   2.559   4.159  1.3696  2.2407 -1.4065
  384TIP3   OH2 1157   1.179   3.692   0.054 -0.3854  0.5441  0.4573
  384TIP3    H1 1158   1.263   3.726   0.084  0.7378 -0.2181 -1.6404
  384TIP3    H2 1159   1.174   3.719  -0.038 -1.3051 -1.5149 -0.1463
  385TIP3   OH2 1160   0.012   1.817   3.047 -0.2840  0.0612 -0.0512
  385TIP3    H1 1161  -0.019   1.770   2.969  0.8356 -1.3642  0.3172
  385TIP3    H2 1162   0.100   1.847   3.024 -0.5172  0.9312  0.1615
  386TIP3   OH2 1163   6.051   3.308   0.920 -0.5739  0.0390 -0.1794
  386TIP3    H1 1164   6.002   3.379   0.963 -0.6552  0.1157 -0.4006
  386TIP3    H2 1165   6.142   3.324   0.943 -0.4729  0.7988 -1.0674
  387TIP3   OH2 1166   1.293   1.984   0.538  0.4926  0.1706 -0.1514
  387TIP3    H1 1167   1.346   2.008   0.613 -0.0003 -0.1198  0.3015
  387TIP3    H2 1168   1.256   1.898   0.561 -0.2207  0.3980 -0.4240
  388TIP3   OH2 1169   1.197   5.102   4.576  0.0035  0.5324 -0.2098
  388TIP3    H1 1170   1.249   5.030   4.540  1.4152  1.2037  0.3964
  388TIP3    H2 1171   1.109   5.088   4.540 -0.0272 -2.0293  0.6544
  389TIP3   OH2 1172   3.854   0.648   2.123  0.2221 -0.1651  0.0159
  389TIP3    H1 1173   3.806   0.721   2.085  0.4095 -0.3282 -0.5430
  389TIP3    H2 1174   3.807   0.570   2.091  0.8728 -0.3268 -0.5643
  390TIP3   OH2 1175   0.132   3.133   3.864 -0.6683 -0.2305  0.3534
  390TIP3    H1 1176   0.153   3.203   3.926  1.1925  0.4152 -0.9261
  390TIP3    H2 1177   0.174   3.055   3.901 -0.0604  0.0287  0.2314
  391TIP3   OH2 1178   4.197   4.533   4.554 -0.0322  0.2338 -0.6002
  391TIP3    H1 1179   4.239   4.552   4.638 -0.3880 -0.1149 -0.3359
  391TIP3    H2 1180   4.157   4.616   4.527 -1.4479 -0.0586  0.4661
  392TIP3   OH2 1181   5.380   1.041   4.593 -0.5596  0.0048 -0.3632
  392TIP3    H1 1182   5.428   0.974   4.643  2.3261  1.4311 -1.0094
  392TIP3    H2 1183   5.315   0.992   4.543 -1.0320 -1.8720  1.8963
  393TIP3   OH2 1184   5.920   3.773   1.640 -0.7646 -0.2513  0.1639
  393TIP3    H1 1185   6.010   3.773   1.606 -0.8180 -1.9975 -0.0363
  393TIP3    H2 1186   5.907   3.863   1.671  0.4565  0.4936 -1.3375
  394TIP3   OH2 1187   0.225   5.646   2.099 -0.1392  0.5139  0.3710
  394TIP3    H1 1188   0.281   5.717   2.067 -0.4330  1.1111  1.1408
  394TIP3    H2 1189   0.145   5.654   2.047  0.4603 -0.3332 -0.7230
  395TIP3   OH2 1190   4.306   1.103   0.973 -0.0224 -0.4689 -0.2400
  395TIP3    H1 1191   4.333   1.184   1.015  0.2327 -0.8276  0.3082
  395TIP3    H2 1192   4.210   1.106   0.974 -0.0107 -0.1017 -0.3678
  396TIP3   OH2 1193   2.909   3.906   2.592 -0.2568 -0.3339  0.1939
  396TIP3    H1 1194   2.865   3.822   2.575  0.1946 -0.9386  1.8003
  396TIP3    H2 1195   2.855   3.948   2.658 -1.7914  1.7939 -2.2014
  397TIP3   OH2 1196   2.812   2.401   1.187  0.2906 -0.2320  0.0717
  397TIP3    H1 1197   2.812   2.344   1.264  0.9177  0.7189  0.7876
  397TIP3    H2 1198   2.876   2.469   1.207  0.8027 -0.2233 -1.4841
  398TIP3   OH2 1199   4.770   2.996   4.279  0.4920 -0.6389  0.2138
  398TIP3    H1 1200   4.860   2.967   4.265  0.6000  0.2588 -1.1448
  398TIP3    H2 1201   4.753   3.056   4.207 -2.0026 -2.5756 -0.9634
  399TIP3   OH2 1202   6.174   5.320   2.631  0.1576  0.1942  0.6405
  399TIP3    H1 1203   6.169   5.301   2.538 -1.8258  1.4584  0.4293
  399TIP3    H2 1204   6.211   5.241   2.670  0.6865 -0.4923 -1.1557
  400TIP3   OH2 1205   5.742   1.250   0.737  0.1143  0.1409  0.8771
  400TIP3    H1 1206   5.808   1.204   0.686 -2.2248 -0.1655 -2.2044
  400TIP3    H2 1207   5.774   1.340   0.744 -0.0127  0.5906 -2.5631
  401TIP3   OH2 1208   3.660   4.458   1.075 -0.1089 -0.4337  0.0520
  401TIP3    H1 1209   3.739   4.506   1.101  0.9511 -1.0352 -1.8315
  401TIP3    H2 1210   3.674   4.369   1.108 -1.0581 -0.0454  1.6163
  402TIP3   OH2 1211   2.651   4.663   0.661 -0.3369  0.1539 -0.4523
  402TIP3    H1 1212   2.681   4.600   0.596 -0.7929 -1.7837  1.1037
  402TIP3    H2 1213   2.609   4.732   0.610  0.5796 -0.5526 -2.2642
  403TIP3   OH2 1214   1.152   5.560   3.961 -1.1090  0.8281 -0.1892
  403TIP3    H1 1215   1.246   5.551   3.949 -0.6897  3.1238  0.7348
  403TIP3    H2 1216   1.139   5.654   3.976 -3.3108  0.3305  1.6269
  404TIP3   OH2 1217   2.206   0.016   4.021  0.5724 -0.1215 -0.5502
  404TIP3    H1 1218   2.162   0.098   4.045 -0.3859 -0.8722  0.3785
  404TIP3    H2 1219   2.194   0.009   3.927  0.5834  0.7577 -0.6256
  405TIP3   OH2 1220   2.540   4.583   1.111 -0.1529  0.5751  0.1957
  405TIP3    H1 1221   2.513   4.635   1.035  0.2646  2.5716  1.3504
  405TIP3    H2 1222   2.535   4.492   1.080  2.1449  1.3452 -2.9586
  406TIP3   OH2 1223   5.335   2.387   4.277  0.1129  0.0646  0.2058
  406TIP3    H1 1224   5.334   2.408   4.184 -3.4040  0.7995  0.2552
  406TIP3    H2 1225   5.291   2.462   4.319 -2.8485 -2.3227  1.7682
  407TIP3   OH2 1226   3.393   3.555   1.008 -0.3406  0.0389 -0.1006
  407TIP3    H1 1227   3.320   3.597   1.054  0.1231 -0.5198  1.1841
  407TIP3    H2 1228   3.439   3.627   0.965 -0.5731  0.6365  0.6208
  408TIP3   OH2 1229   4.743   3.886   2.173 -0.2879  0.3173  0.0117
  408TIP3    H1 1230   4.706   3.923   2.093  0.2629  0.2511 -0.2735
  408TIP3    H2 1231   4.668   3.846   2.218 -0.5168 -0.0672 -0.7007
  409TIP3   OH2 1232   0.950   5.324   0.580  0.4256  0.1770 -0.1246
  409TIP3    H1 1233   0.940   5.272   0.660 -1.6779  1.1752  0.3304
  409TIP3    H2 1234   0.912   5.269   0.511  0.8952 -0.0798 -0.1823
  410TIP3   OH2 1235   1.782   2.178   3.662  0.1503  0.2894 -0.2124
  410TIP3    H1 1236   1.798   2.200   3.570  1.2123  3.3168  0.5554
  410TIP3    H2 1237   1.746   2.258   3.699 -0.8650 -1.0706  1.9077
  411TIP3   OH2 1238   3.140   0.863   2.630 -0.2244 -0.1883 -0.2253
  411TIP3    H1 1239   3.191   0.804   2.574 -0.5963 -0.1251 -0.6369
  411TIP3    H2 1240   3.053   0.863   2.591 -0.4342  0.0116  0.2445
  412TIP3   OH2 1241   6.189   1.861   2.028  0.8917  0.5751 -0.2584
  412TIP3    H1 1242   6.261   1.812   1.988 -0.0593  1.0332 -2.7371
  412TIP3    H2 1243   6.110   1.816   1.999  0.1152  1.3850  0.5446
  413TIP3   OH2 1244   1.487   1.602   2.488 -0.2502  0.3118  0.2454
  413TIP3    H1 1245   1.453   1.573   2.573  2.6919 -1.0149  1.1039
  413TIP3    H2 1246   1.564   1.548   2.474  0.3061  1.6789 -2.5179
  414TIP3   OH2 1247   5.512   5.368   4.512 -0.5422  0.4268 -0.5466
  414TIP3    H1 1248   5.477   5.318   4.586 -0.1852 -0.5636 -1.0252
  414TIP3    H2 1249   5.437   5.417   4.478 -0.4772  1.8836  1.2001
  415TIP3   OH2 1250   4.218   5.303   4.962  0.0584 -0.1835  0.5779
  415TIP3    H1 1251   4.215   5.361   4.886  1.2979 -0.0344  0.6258
  415TIP3    H2 1252   4.192   5.359   5.035  0.5253  0.1274  0.5112
  416TIP3   OH2 1253   0.866   5.407   2.377 -0.1547  0.2998 -1.0366
  416TIP3    H1 1254   0.784   5.457   2.379 -0.8237 -0.7763 -0.5623
  416TIP3    H2 1255   0.927   5.458   2.429 -1.1176  0.1473  0.2927
  417TIP3   OH2 1256   5.330   1.077   0.740  0.0377  0.1227 -0.1420
  417TIP3    H1 1257   5.284   1.014   0.795 -0.8622  0.5256 -0.4156
  417TIP3    H2 1258   5.423   1.054   0.749 -0.3337 -2.0224 -1.1744
  418TIP3   OH2 1259   2.811   4.313   1.658  0.5832 -0.0436  0.0964
  418TIP3    H1 1260   2.856   4.368   1.721  0.3219  1.5551 -1.0594
  418TIP3    H2 1261   2.876   4.297   1.590 -0.4280  2.1427 -1.5020
  419TIP3   OH2 1262   2.681   0.738   5.099 -0.1542 -1.1890 -0.4179
  419TIP3    H1 1263   2.775   0.727   5.111  0.1340  1.3522  0.2777
  419TIP3    H2 1264   2.648   0.758   5.186 -1.1334 -0.7637 -0.8701
  420TIP3   OH2 1265   4.413   5.089   2.042  0.1009  0.2842  0.0512
  420TIP3    H1 1266   4.360   5.018   2.077  0.1051 -0.4019 -1.2750
  420TIP3    H2 1267   4.350   5.158   2.022  0.1997  1.0949  2.2510
  421TIP3   OH2 1268   5.248   4.096   2.663 -0.0299  0.1342  0.1987
  421TIP3    H1 1269   5.217   4.153   2.592  0.7012  0.7366  0.3464
  421TIP3    H2 1270   5.274   4.015   2.620  0.1286  0.3900 -0.1911
  422TIP3   OH2 1271   2.990   2.301   4.580  0.0172 -0.5669 -1.0190
  422TIP3    H1 1272   2.984   2.314   4.486 -3.0050  0.2427 -0.8336
  422TIP3    H2 1273   2.968   2.386   4.618  0.5240 -1.0351  0.4253
  423TIP3   OH2 1274   1.680   0.657   4.559 -0.2669  0.1386  0.5476
  423TIP3    H1 1275   1.744   0.728   4.546  0.0779  0.4191  3.1877
  423TIP3    H2 1276   1.595   0.701   4.555 -0.0993  0.5154  0.9463
  424TIP3   OH2 1277   2.233   4.699   3.749  0.3783  0.1958  0.9444
  424TIP3    H1 1278   2.206   4.636   3.682 -1.0208 -1.0433  2.6014
  424TIP3    H2 1279   2.322   4.672   3.773  0.1250 -0.5947  1.0005
  425TIP3   OH2 1280   1.431   1.648   4.539 -0.1049 -0.2860 -0.2462
  425TIP3    H1 1281   1.488   1.701   4.483  0.9651 -1.2366 -0.0940
  425TIP3    H2 1282   1.351   1.636   4.488 -0.5035  1.7164 -0.1499
  426TIP3   OH2 1283   5.981   3.337   1.799 -0.2991  0.0575  0.3937
  426TIP3    H1 1284   5.893   3.359   1.828 -0.6555  0.3306 -0.8878
  426TIP3    H2 1285   5.969   3.274   1.728  0.5218  0.5333 -0.1835
  427TIP3   OH2 1286   0.526   5.222   1.609  0.1633 -0.2665  0.0834
  427TIP3    H1 1287   0.530   5.260   1.697  0.0760  1.4003 -0.5986
  427TIP3    H2 1288   0.449   5.165   1.612  0.5156 -0.7187  1.2560
  428TIP3   OH2 1289   4.326   5.191   3.010  0.3845  0.0724 -0.2421
  428TIP3    H1 1290   4.230   5.183   3.007  0.3754  0.2704 -0.5005
  428TIP3    H2 1291   4.342   5.282   3.032  0.5152 -0.0560  0.2198
  429TIP3   OH2 1292   4.513   5.145   4.542 -0.1381  0.1374 -0.0021
  429TIP3    H1 1293   4.531   5.129   4.450  2.5338  2.1196  0.0653
  429TIP3    H2 1294   4.450   5.217   4.542 -0.3724 -0.0685 -0.2817
  430TIP3   OH2 1295   3.916   5.269   4.028 -0.0951 -0.0688 -0.1557
  430TIP3    H1 1296   3.986   5.320   4.067 -0.8791  0.7277  0.2545
  430TIP3    H2 1297   3.944   5.178   4.038  0.5025  0.2012  0.7245
  431TIP3   OH2 1298   0.951   3.055   0.176  0.0053 -0.8456  0.2751
  431TIP3    H1 1299   0.922   3.005   0.100  0.3202 -0.3095 -0.2044
  431TIP3    H2 1300   1.007   2.994   0.224 -0.2977 -1.2291  0.1444
  432TIP3   OH2 1301   6.078   3.283   0.333  0.0747 -0.3507  0.0821
  432TIP3    H1 1302   6.098   3.359   0.279  3.1724  0.2059  1.7952
  432TIP3    H2 1303   6.016   3.315   0.399 -0.0787  0.1829 -0.3155
  433TIP3   OH2 1304   5.161   1.666   5.152 -0.0473  0.4072  0.1741
  433TIP3    H1 1305   5.148   1.593   5.092  2.2274 -1.0391  1.3207
  433TIP3    H2 1306   5.075   1.710   5.155 -1.3863 -1.9529 -0.8410
  434TIP3   OH2 1307   3.585   1.435   0.426 -0.3693 -0.2028  0.4120
  434TIP3    H1 1308   3.635   1.371   0.375  1.0649  0.5884  0.7699
  434TIP3    H2 1309   3.647   1.470   0.489 -0.5240  2.8502 -0.9278
  435TIP3   OH2 1310   3.876   5.904   0.423  0.4165 -0.0520 -0.1980
  435TIP3    H1 1311   3.840   5.850   0.354  0.6025 -0.7755  0.2586
  435TIP3    H2 1312   3.843   5.992   0.405 -0.9776 -0.5501 -0.2042
  436TIP3   OH2 1313   4.452   3.858   5.036  0.2184 -0.2088 -0.2734
  436TIP3    H1 1314   4.418   3.929   5.090 -1.3006 -1.0204 -0.1128
  436TIP3    H2 1315   4.457   3.895   4.948  1.6672  0.7821  0.1909
  437TIP3   OH2 1316   3.373   4.608   0.051 -0.1609  0.1670  0.2039
  437TIP3    H1 1317   3.405   4.678  -0.006 -0.9390 -0.5157 -1.1131
  437TIP3    H2 1318   3.292   4.642   0.089 -1.4596 -0.5600 -1.7382
  438TIP3   OH2 1319   3.795   1.716   0.406 -0.0209 -0.0390  0.1951
  438TIP3    H1 1320   3.758   1.671   0.330 -0.0428 -2.7378  1.6512
  438TIP3    H2 1321   3.871   1.663   0.431  0.7916  1.5405  1.2809
  439TIP3   OH2 1322   6.138   1.263   3.897  0.1830  0.5483 -0.4565
  439TIP3    H1 1323   6.117   1.299   3.811 -1.4203  1.1790  0.1581
  439TIP3    H2 1324   6.068   1.199   3.914  0.9861 -0.2354  0.0026
  440TIP3   OH2 1325   4.790   0.151   2.301  0.3968  0.4046 -0.2475
  440TIP3    H1 1326   4.832   0.081   2.251 -0.1162 -0.1194  0.0468
  440TIP3    H2 1327   4.759   0.108   2.381 -1.7732  0.5180 -0.9842
  441TIP3   OH2 1328   5.325   1.531   2.618 -0.0023  0.6353 -0.5493
  441TIP3    H1 1329   5.347   1.613   2.663  2.1549 -0.0594 -0.2480
  441TIP3    H2 1330   5.316   1.556   2.526  0.5953  1.2317 -0.4530
  442TIP3   OH2 1331   5.094   4.413   3.273  0.3660  0.3255 -0.3053
  442TIP3    H1 1332   5.095   4.320   3.249  0.5074  0.4913 -0.9480
  442TIP3    H2 1333   5.017   4.422   3.329 -1.1545  0.3352 -2.3127
  443TIP3   OH2 1334   1.915   0.332   3.819 -0.1557 -0.3115 -0.3026
  443TIP3    H1 1335   1.862   0.296   3.890  2.2001  0.9099  2.2566
  443TIP3    H2 1336   1.864   0.407   3.788  0.2024  1.3191  2.6222
  444TIP3   OH2 1337   2.401   4.840   1.915  0.7777  0.1591 -0.0868
  444TIP3    H1 1338   2.433   4.929   1.903  0.3212  0.2505 -0.6813
  444TIP3    H2 1339   2.359   4.840   2.001  0.3503  0.6496 -0.2931
  445TIP3   OH2 1340   3.117   0.368   3.106 -0.0387 -0.4299 -0.2464
  445TIP3    H1 1341   3.027   0.341   3.086 -0.3169 -0.8624  1.4108
  445TIP3    H2 1342   3.155   0.291   3.150  2.0807 -1.3237 -3.2861
  446TIP3   OH2 1343   0.419   3.032   1.177 -0.4203  0.6236 -0.3526
  446TIP3    H1 1344   0.427   3.066   1.265  0.9145  0.0133 -0.2103
  446TIP3    H2 1345   0.459   2.945   1.181 -1.6483 -0.0115 -1.2264
  447TIP3   OH2 1346   2.835   4.703   3.305  0.0286 -0.5668  0.7293
  447TIP3    H1 1347   2.813   4.648   3.230  0.4143  0.1576  0.0676
  447TIP3    H2 1348   2.872   4.783   3.267 -0.1843  0.0073  1.6782
  448TIP3   OH2 1349   5.721   5.799   1.812 -0.3594 -0.5810 -0.5376
  448TIP3    H1 1350   5.671   5.859   1.867  0.6302 -0.9181  0.7938
  448TIP3    H2 1351   5.802   5.784   1.861  0.1852 -1.5820 -1.6965
  449TIP3   OH2 1352   1.801   1.645   4.114  0.2473 -0.0988  0.5579
  449TIP3    H1 1353   1.894   1.635   4.094  0.2229 -0.3281  0.5616
  449TIP3    H2 1354   1.797   1.649   4.210  0.3723  1.0748  0.5324
  450TIP3   OH2 1355   2.118   3.913   0.909  0.4346 -0.0402  0.3099
  450TIP3    H1 1356   2.091   3.971   0.838 -0.1348 -0.0432  0.5184
  450TIP3    H2 1357   2.158   3.971   0.973 -0.3213  0.1645  0.6121
  451TIP3   OH2 1358   3.940   5.809   3.635  0.4357 -0.2261 -0.1979
  451TIP3    H1 1359   3.983   5.796   3.550 -0.1079 -1.8296 -0.2772
  451TIP3    H2 1360   3.987   5.751   3.695 -1.1304 -1.5534 -0.1533
  452TIP3   OH2 1361   2.681   0.456   4.969  0.2588  0.3930 -0.0713
  452TIP3    H1 1362   2.636   0.540   4.965 -0.0858  0.2417  0.4696
  452TIP3    H2 1363   2.611   0.391   4.961 -0.0650  0.0965  3.4364
  453TIP3   OH2 1364   5.835   0.385   1.617  0.0836  0.3189 -0.0853
  453TIP3    H1 1365   5.903   0.346   1.562  0.9269  0.3253  0.9151
  453TIP3    H2 1366   5.787   0.442   1.558  0.6196 -0.0832 -0.9381
  454TIP3   OH2 1367   1.013   3.701   0.775 -0.0688  0.1978 -0.7110
  454TIP3    H1 1368   0.918   3.701   0.786  0.0463  1.2873  0.5038
  454TIP3    H2 1369   1.044   3.771   0.832  1.4651 -0.0522 -1.1822
  455TIP3   OH2 1370   6.143   0.292   4.016 -0.5570  0.7177 -0.9655
  455TIP3    H1 1371   6.106   0.321   3.933  1.5131 -0.9101 -2.5671
  455TIP3    H2 1372   6.211   0.230   3.992  0.6148  0.6982  1.9386
  456TIP3   OH2 1373   5.582   3.528   3.485  0.2660 -0.4466 -0.4178
  456TIP3    H1 1374   5.544   3.595   3.428  0.0091 -1.0739 -1.0052
  456TIP3    H2 1375   5.674   3.525   3.460  0.7635  1.1295  1.0607
  457TIP3   OH2 1376   0.767   3.659   1.655 -0.4317 -0.3858  0.0887
  457TIP3    H1 1377   0.781   3.720   1.583  2.6408  0.1248  1.0103
  457TIP3    H2 1378   0.736   3.579   1.612 -1.6987  0.8408 -1.4249
  458TIP3   OH2 1379   3.023   3.442   1.318 -0.1002 -0.4258  0.3810
  458TIP3    H1 1380   3.050   3.370   1.376 -2.2961 -2.1061 -0.5183
  458TIP3    H2 1381   2.989   3.397   1.240  0.7157  1.7004 -1.2864
  459TIP3   OH2 1382   4.140   5.776   1.095 -0.0181 -0.0536  0.6227
  459TIP3    H1 1383   4.071   5.796   1.032 -1.3764 -0.7164  1.8671
  459TIP3    H2 1384   4.207   5.843   1.079  0.1799 -0.8197 -2.2138
  460TIP3   OH2 1385   4.394   0.025   2.114  0.2417  0.0476 -0.4113
  460TIP3    H1 1386   4.375   0.023   2.208 -0.7338 -0.2865 -0.6063
  460TIP3    H2 1387   4.473   0.078   2.107  0.2238  0.2284  0.5834
  461TIP3   OH2 1388   3.907   4.314   2.083 -0.0623  0.3130  0.2276
  461TIP3    H1 1389   3.940   4.376   2.147  0.2521 -0.8900  1.2855
  461TIP3    H2 1390   3.970   4.242   2.084 -1.4998 -1.0201  0.6603
  462TIP3   OH2 1391   0.747   0.957   3.262 -0.0368  0.2983 -0.6972
  462TIP3    H1 1392   0.750   0.962   3.357  0.3151 -0.3287 -0.6700
  462TIP3    H2 1393   0.839   0.957   3.235 -0.1269  0.1047 -1.0147
  463TIP3   OH2 1394   4.466   0.623   4.643 -0.5244  0.4083  0.0411
  463TIP3    H1 1395   4.398   0.606   4.579 -0.8886  0.8534  0.3073
  463TIP3    H2 1396   4.420   0.629   4.727 -0.0851  0.0816  0.3100
  464TIP3   OH2 1397   2.333   0.979   2.570 -0.0271  0.2917 -0.4349
  464TIP3    H1 1398   2.373   1.049   2.519 -1.2074  0.1238 -1.6698
  464TIP3    H2 1399   2.366   0.899   2.530 -0.7194  0.1596 -0.7670
  465TIP3   OH2 1400   3.152   5.769   4.002 -0.0978  0.0623 -0.9306
  465TIP3    H1 1401   3.166   5.859   3.973 -0.6494 -0.3234 -2.5077
  465TIP3    H2 1402   3.178   5.715   3.927  3.3406 -1.3318  1.0579
  466TIP3   OH2 1403   4.881   4.328   3.780 -0.7251  0.3634 -0.0910
  466TIP3    H1 1404   4.861   4.306   3.871  0.6545 -1.0793 -0.0811
  466TIP3    H2 1405   4.799   4.361   3.744 -1.5318  0.0996  1.4255
  467TIP3   OH2 1406   1.832   3.148   4.826 -0.2576  0.6124 -0.0157
  467TIP3    H1 1407   1.893   3.221   4.818  0.2642  0.2215  0.2814
  467TIP3    H2 1408   1.886   3.071   4.807 -0.6339  0.2509  0.3734
  468TIP3   OH2 1409   5.600   3.761   4.724  0.0343  0.1396  0.1495
  468TIP3    H1 1410   5.591   3.852   4.751 -0.5509  0.1696 -0.1081
  468TIP3    H2 1411   5.656   3.765   4.646 -2.9737  0.7807 -2.2040
  469TIP3   OH2 1412   1.994   2.269   3.943 -0.7715  0.0960 -0.7405
  469TIP3    H1 1413   2.007   2.195   4.003  1.1295  0.2329 -0.9497
  469TIP3    H2 1414   1.914   2.311   3.975  0.8239  0.9612  2.6054
  470TIP3   OH2 1415   2.709   5.196   0.397  0.2878  0.3193  0.3218
  470TIP3    H1 1416   2.653   5.119   0.407  0.5239  0.3891  2.7765
  470TIP3    H2 1417   2.670   5.245   0.324 -0.9657 -1.1717 -0.0631
  471TIP3   OH2 1418   6.078   5.815   4.394  0.4636 -0.2231 -0.3487
  471TIP3    H1 1419   6.138   5.779   4.329  0.8280  0.3457 -0.3288
  471TIP3    H2 1420   6.008   5.749   4.400  0.8877 -0.7123 -0.6404
  472TIP3   OH2 1421   3.750   2.625   3.348 -0.2051 -0.0809 -0.0125
  472TIP3    H1 1422   3.792   2.625   3.434  0.4516 -1.6742 -0.2945
  472TIP3    H2 1423   3.670   2.573   3.361 -1.4347  1.7633  0.1891
  473TIP3   OH2 1424   4.827   3.608   0.621 -0.0466  0.4092  0.2460
  473TIP3    H1 1425   4.733   3.615   0.606  0.0672 -2.0340 -2.5668
  473TIP3    H2 1426   4.835   3.547   0.694 -0.7660 -1.6133 -1.2478
  474TIP3   OH2 1427   6.199   0.573   2.385 -0.0490  0.1650  0.3477
  474TIP3    H1 1428   6.161   0.615   2.462 -0.8739 -1.1727  0.6913
  474TIP3    H2 1429   6.199   0.642   2.318 -1.5413  0.6774  0.8374
  475TIP3   OH2 1430   4.732   1.961   1.146  0.0813  0.4927  0.3935
  475TIP3    H1 1431   4.734   2.028   1.078 -0.1994  1.2793  1.1312
  475TIP3    H2 1432   4.726   2.011   1.228 -0.5683 -0.4442  0.9385
  476TIP3   OH2 1433   3.314   3.291   1.586 -0.1875  0.1221  0.0088
  476TIP3    H1 1434   3.351   3.253   1.665  0.7496 -1.4368 -1.1098
  476TIP3    H2 1435   3.384   3.282   1.521 -1.7696 -0.9341 -1.6281
  477TIP3   OH2 1436   1.625   5.885   1.384 -0.5665 -0.3083 -0.4706
  477TIP3    H1 1437   1.539   5.860   1.417 -0.7993 -0.0979 -0.9009
  477TIP3    H2 1438   1.685   5.867   1.456 -0.8347 -1.3450 -0.4918
  478TIP3   OH2 1439   6.044   1.330   3.623  0.8544 -0.9079  0.4803
  478TIP3    H1 1440   5.971   1.269   3.613 -0.0925  0.2850 -0.2908
  478TIP3    H2 1441   6.093   1.322   3.541  2.1331 -2.3338  1.3416
  479TIP3   OH2 1442   3.035   4.905   1.044  0.0431  0.2111 -0.1158
  479TIP3    H1 1443   2.987   4.832   1.006  0.2910  0.6886 -1.3992
  479TIP3    H2 1444   3.127   4.880   1.036  0.1244  0.5932 -0.4356
  480TIP3   OH2 1445   3.965   2.817   0.949  0.0812 -0.4976 -0.2090
  480TIP3    H1 1446   3.958   2.823   1.044 -0.4253  2.1566 -0.3559
  480TIP3    H2 1447   3.994   2.727   0.934  2.4744 -0.3760  2.5724
  481TIP3   OH2 1448   3.655   2.290   1.035 -0.0189  0.2878 -0.0808
  481TIP3    H1 1449   3.648   2.313   1.127  0.1143 -0.1165  0.0310
  481TIP3    H2 1450   3.578   2.332   0.994 -1.2521 -1.2491  0.5647
  482TIP3   OH2 1451   5.869   0.287   4.491  0.2408 -0.2801  0.4743
  482TIP3    H1 1452   5.934   0.299   4.421  1.1204 -0.4008  1.2457
  482TIP3    H2 1453   5.809   0.360   4.480 -1.0013 -1.5337 -1.8209
  483TIP3   OH2 1454   5.274   1.425   4.832 -0.6284 -0.6911  0.9541
  483TIP3    H1 1455   5.192   1.463   4.865  0.0908  2.3361 -0.4358
  483TIP3    H2 1456   5.331   1.422   4.909 -1.4289 -1.1484  1.5556
  484TIP3   OH2 1457   2.197   5.194   5.084  0.5085 -0.3358 -0.3008
  484TIP3    H1 1458   2.217   5.279   5.122 -0.6384 -0.5964  0.9662
  484TIP3    H2 1459   2.110   5.172   5.118  1.1895 -2.4562  0.2500
  485TIP3   OH2 1460   1.470   3.260   1.505  0.1860 -0.4739 -0.3427
  485TIP3    H1 1461   1.433   3.239   1.419  2.7280 -1.0411 -1.3969
  485TIP3    H2 1462   1.448   3.185   1.560 -2.2878  0.3198 -0.1398
  486TIP3   OH2 1463   5.161   5.679   0.115  0.0915  0.2554 -0.1911
  486TIP3    H1 1464   5.214   5.685   0.035  0.8696 -0.0367  0.2860
  486TIP3    H2 1465   5.204   5.739   0.176 -0.5411  0.5323 -0.0124
  487TIP3   OH2 1466   6.210   2.131   4.727 -0.1339  0.3489  0.4878
  487TIP3    H1 1467   6.200   2.201   4.662  1.0582 -0.1542 -0.2762
  487TIP3    H2 1468   6.128   2.081   4.721 -0.3419  0.7481 -0.0964
  488TIP3   OH2 1469   4.376   4.397   3.765 -0.9014 -0.0863  0.4278
  488TIP3    H1 1470   4.297   4.395   3.710 -1.3634 -0.8922  1.0941
  488TIP3    H2 1471   4.349   4.356   3.847  0.0526  0.1882  0.8943
  489TIP3   OH2 1472   5.747   4.679   2.057  0.1118  0.0618 -0.1222
  489TIP3    H1 1473   5.739   4.586   2.036 -1.0255  0.1983 -0.3902
  489TIP3    H2 1474   5.824   4.709   2.009 -0.0388 -0.5447 -0.7552
  490TIP3   OH2 1475   5.214   5.676   3.385 -0.0878  0.4177 -0.0672
  490TIP3    H1 1476   5.123   5.705   3.389 -0.2615  0.1436 -1.5356
  490TIP3    H2 1477   5.262   5.751   3.349 -0.0228 -0.0091 -0.8900
  491TIP3   OH2 1478   4.197   1.438   3.162  0.0525  0.5370 -0.0495
  491TIP3    H1 1479   4.275   1.426   3.217 -0.8186  0.6477  1.2351
  491TIP3    H2 1480   4.142   1.499   3.211 -0.8986  0.3925 -0.9012
  492TIP3   OH2 1481   4.967   3.821   1.355 -0.1969 -0.0668  0.9939
  492TIP3    H1 1482   5.052   3.858   1.334 -0.3952 -0.8790 -1.6388
  492TIP3    H2 1483   4.906   3.894   1.349  0.1356  0.2685  1.6241
  493TIP3   OH2 1484   0.158   2.384   2.473  0.0874 -0.0389 -0.3175
  493TIP3    H1 1485   0.073   2.345   2.456 -0.6553  1.1332  0.5691
  493TIP3    H2 1486   0.221   2.315   2.453 -1.1283 -1.3822  0.3598
  494TIP3   OH2 1487   0.235   0.668   0.944  0.2228 -0.0153  0.2424
  494TIP3    H1 1488   0.240   0.573   0.960 -0.8882 -0.0442  0.5029
  494TIP3    H2 1489   0.207   0.675   0.853  1.0004  0.0806  0.0047
  495TIP3   OH2 1490   3.599   1.396   0.110  0.4102  0.2981  0.1154
  495TIP3    H1 1491   3.610   1.319   0.166 -1.6170 -0.6947 -0.7510
  495TIP3    H2 1492   3.512   1.430   0.133  0.6774  1.4671 -0.5352
  496TIP3   OH2 1493   1.774   2.170   0.129 -0.1476 -0.3497 -0.0329
  496TIP3    H1 1494   1.714   2.096   0.130 -1.1354  0.3873 -1.7517
  496TIP3    H2 1495   1.851   2.137   0.082 -0.1762 -0.5714  0.0719
  497TIP3   OH2 1496   1.108   1.307   1.102 -0.1801  0.1036  0.0843
  497TIP3    H1 1497   1.066   1.221   1.097 -1.8366  0.8436  0.7674
  497TIP3    H2 1498   1.142   1.312   1.191  0.0266  0.1215  0.0060
  498TIP3   OH2 1499   3.338   2.009   3.303  0.0019 -0.2185  0.7752
  498TIP3    H1 1500   3.303   1.969   3.382 -3.1469 -0.4984 -0.6057
  498TIP3    H2 1501   3.325   2.103   3.316 -0.7015 -0.2763  0.5754
  499TIP3   OH2 1502   0.270   3.761   0.311  0.7682  0.2269 -0.6472
  499TIP3    H1 1503   0.364   3.773   0.323  0.9287  0.8353 -2.3015
  499TIP3    H2 1504   0.260   3.735   0.220 -0.6621 -0.0086 -0.4539
  500TIP3   OH2 1505   4.150   3.125   4.378 -0.1088 -0.1467  0.2453
  500TIP3    H1 1506   4.200   3.202   4.403 -0.5683 -0.1289  1.1203
  500TIP3    H2 1507   4.058   3.151   4.386 -0.2791 -0.9405  1.1282
  501TIP3   OH2 1508   1.859   5.684   1.477 -0.2531 -0.2139  0.6052
  501TIP3    H1 1509   1.892   5.766   1.512 -0.2804 -0.1031  0.3727
  501TIP3    H2 1510   1.812   5.643   1.550 -0.5516  0.1456  0.6166
  502TIP3   OH2 1511   6.317   3.104   2.546 -0.0952  1.0007 -0.1882
  502TIP3    H1 1512   6.373   3.027   2.542 -1.5081 -0.0272 -1.9460
  502TIP3    H2 1513   6.233   3.071   2.580 -0.6372  1.8163 -0.7000
  503TIP3   OH2 1514   2.802   5.308   3.840  0.3799  0.5681  0.3987
  503TIP3    H1 1515   2.842   5.346   3.762  0.8012 -0.1633  0.2547
  503TIP3    H2 1516   2.715   5.282   3.812  1.1094 -1.2714 -0.3312
  504TIP3   OH2 1517   1.227   3.121   3.011 -0.0037 -0.0871  0.5321
  504TIP3    H1 1518   1.137   3.129   2.978 -0.2388 -3.3368  0.1315
  504TIP3    H2 1519   1.229   3.181   3.086 -2.6233 -0.1659  0.7736
  505TIP3   OH2 1520   4.769   3.000   0.252  0.1264  0.6411 -0.0837
  505TIP3    H1 1521   4.822   2.930   0.212 -1.9157 -1.9231  1.3589
  505TIP3    H2 1522   4.765   3.068   0.186  4.3804  0.6346 -0.6336
  506TIP3   OH2 1523   4.737   0.041   3.613 -0.4035 -0.0069  0.0756
  506TIP3    H1 1524   4.742   0.123   3.563  0.9820  0.1568  0.4529
  506TIP3    H2 1525   4.824   0.003   3.605  0.3239  0.6491  3.4289
  507TIP3   OH2 1526   5.024   4.011   0.426  0.2797 -0.0341 -0.1493
  507TIP3    H1 1527   5.019   3.959   0.506 -0.2174  0.9867  0.4925
  507TIP3    H2 1528   5.113   3.999   0.395  1.0563  1.0092  1.5539
  508TIP3   OH2 1529   3.290   1.210   0.818  0.4563 -0.1550  0.0116
  508TIP3    H1 1530   3.257   1.152   0.749  3.0256 -1.8516  0.0702
  508TIP3    H2 1531   3.366   1.164   0.854  1.8130  2.6352  1.0340
  509TIP3   OH2 1532   1.223   5.767   1.707  0.4604 -0.3419  0.1815
  509TIP3    H1 1533   1.205   5.859   1.727  2.8133 -0.2567  2.3617
  509TIP3    H2 1534   1.254   5.730   1.789  1.2029 -2.6745 -1.0534
  510TIP3   OH2 1535   5.335   1.310   3.932  0.1142 -0.2504  0.0991
  510TIP3    H1 1536   5.282   1.230   3.931 -0.3117 -0.0163  1.7016
  510TIP3    H2 1537   5.277   1.377   3.968  0.9848  0.3966  0.3287
  511TIP3   OH2 1538   4.642   3.959   0.693 -0.1340 -0.0787  0.0650
  511TIP3    H1 1539   4.573   4.018   0.662  0.1201  0.1797 -0.0058
  511TIP3    H2 1540   4.723   3.994   0.656  0.2126  0.3775  1.2065
  512TIP3   OH2 1541   3.547   5.586   4.579 -0.0618 -0.3354 -0.3782
  512TIP3    H1 1542   3.470   5.531   4.589 -0.3454  0.1809  0.3512
  512TIP3    H2 1543   3.583   5.562   4.494  0.6676 -2.6898  0.5314
  513TIP3   OH2 1544   2.780   5.275   3.329  0.0923 -0.2894 -0.2568
  513TIP3    H1 1545   2.754   5.299   3.241 -0.3313  0.3255  0.0313
  513TIP3    H2 1546   2.702   5.236   3.368 -0.0570  0.4430  0.2021
  514TIP3   OH2 1547   1.213   0.688   0.883  0.1033 -0.5888  0.0302
  514TIP3    H1 1548   1.147   0.719   0.821  0.2058 -0.2698  0.0774
  514TIP3    H2 1549   1.297   0.713   0.843  0.1399  1.7390  1.3505
  515TIP3   OH2 1550   4.221   3.624   3.361 -0.8359 -0.1506  0.4388
  515TIP3    H1 1551   4.304   3.580   3.381 -1.2160 -0.1314  2.2005
  515TIP3    H2 1552   4.165   3.556   3.326 -0.9500 -0.8080  1.8233
  516TIP3   OH2 1553   4.967   1.369   2.861  0.5414 -0.0483 -0.6943
  516TIP3    H1 1554   4.872   1.368   2.845  0.3059  0.3402  0.5675
  516TIP3    H2 1555   4.985   1.458   2.890  0.9646 -0.5883  0.7954
  517TIP3   OH2 1556   3.132   1.909   4.241  0.1276  0.3446 -0.6521
  517TIP3    H1 1557   3.162   1.870   4.324 -0.2544 -0.4907 -0.8992
  517TIP3    H2 1558   3.169   1.853   4.173 -0.9048  0.0615 -0.9955
  518TIP3   OH2 1559   4.702   4.005   4.919 -0.1318  0.0034  0.6173
  518TIP3    H1 1560   4.792   4.012   4.886 -0.7516  1.2984 -0.9464
  518TIP3    H2 1561   4.703   3.928   4.975  1.6154 -0.8926 -0.5449
  519TIP3   OH2 1562   5.374   0.220   1.098  0.1009  0.4241 -0.2059
  519TIP3    H1 1563   5.409   0.140   1.058  0.7313  1.8641 -2.7244
  519TIP3    H2 1564   5.447   0.281   1.096 -0.4065  1.1396  1.5993
  520TIP3   OH2 1565   0.290   1.890   0.092 -0.5569 -0.4836 -0.3040
  520TIP3    H1 1566   0.302   1.795   0.102  0.8328 -0.2933  0.0105
  520TIP3    H2 1567   0.265   1.901  -0.000 -0.7899 -1.1505 -0.3320
  521TIP3   OH2 1568   0.547   5.612   2.765  0.4379 -0.1571 -0.2399
  521TIP3    H1 1569   0.520   5.539   2.709  0.9414  1.1279 -2.2285
  521TIP3    H2 1570   0.480   5.615   2.834 -0.1592 -1.8250 -0.6945
  522TIP3   OH2 1571   5.844   4.354   0.597  0.3746  0.1402  0.4099
  522TIP3    H1 1572   5.780   4.413   0.557 -0.0535  0.5382  1.6330
  522TIP3    H2 1573   5.923   4.363   0.543 -0.0279  1.0345 -0.0446
  523TIP3   OH2 1574   3.331   2.060   1.567  0.2477 -0.2337  0.2361
  523TIP3    H1 1575   3.305   2.028   1.653  0.2562 -1.2691 -0.1354
  523TIP3    H2 1576   3.350   1.981   1.516  2.0267  0.4291 -0.1721
  524TIP3   OH2 1577   0.516   4.988   4.912 -0.2370  0.1825 -0.0727
  524TIP3    H1 1578   0.605   5.020   4.898  0.2004 -0.4461  1.1456
  524TIP3    H2 1579   0.527   4.901   4.950 -1.3492  0.5976  1.3087
  525TIP3   OH2 1580   0.722   5.009   2.649 -0.2857  0.2605  0.6468
  525TIP3    H1 1581   0.697   4.917   2.639  1.0798 -0.1790  1.0301
  525TIP3    H2 1582   0.816   5.010   2.633 -0.2253  1.5467  0.9891
  526TIP3   OH2 1583   1.661   5.093   1.813  0.4663 -0.2610  0.1893
  526TIP3    H1 1584   1.614   5.053   1.739 -1.2227  0.4193  0.8292
  526TIP3    H2 1585   1.614   5.061   1.890  1.1781  0.3361  0.8774
  527TIP3   OH2 1586   6.226   0.571   0.190  0.2596 -0.4657 -0.5636
  527TIP3    H1 1587   6.297   0.633   0.206  0.9353 -1.2131 -0.6073
  527TIP3    H2 1588   6.200   0.587   0.099  0.9974 -0.8155 -0.8396
  528TIP3   OH2 1589   6.093   5.049   3.010  0.4248 -0.5261 -0.6661
  528TIP3    H1 1590   6.089   4.959   3.044 -0.4529 -0.7500 -1.2950
  528TIP3    H2 1591   6.001   5.072   2.996  0.6653  0.3497 -0.8321
  529TIP3   OH2 1592   4.079   5.111   4.633 -0.4171 -0.0873 -0.2276
  529TIP3    H1 1593   4.033   5.194   4.650 -0.2849 -0.3140  1.3610
  529TIP3    H2 1594   4.028   5.070   4.563 -0.7212  1.1433 -0.7549
  530TIP3   OH2 1595   4.577   0.383   0.849  0.4011  0.2498 -0.3616
  530TIP3    H1 1596   4.599   0.469   0.884 -0.4218 -0.5715  2.4728
  530TIP3    H2 1597   4.634   0.323   0.897 -0.8170 -0.9784 -0.3742
  531TIP3   OH2 1598   5.266   1.425   0.056 -0.0877 -0.4444 -0.0780
  531TIP3    H1 1599   5.288   1.359  -0.009  2.5469  0.2885 -0.0803
  531TIP3    H2 1600   5.280   1.509   0.011 -2.5157  0.1611  0.1763
  532TIP3   OH2 1601   1.877   2.340   1.965  0.0055  0.2478 -0.5241
  532TIP3    H1 1602   1.970   2.320   1.952  0.1694  1.8377 -2.2417
  532TIP3    H2 1603   1.872   2.435   1.957 -1.6983  0.2452  0.1456
  533TIP3   OH2 1604   3.569   5.274   1.723  0.2857  0.2981 -0.4669
  533TIP3    H1 1605   3.516   5.197   1.701 -0.7039  0.4985  1.0643
  533TIP3    H2 1606   3.629   5.243   1.791 -1.5571  1.2908  1.7517
  534TIP3   OH2 1607   0.855   5.163   1.337 -0.1069  0.1420 -0.5271
  534TIP3    H1 1608   0.918   5.228   1.366 -0.6156  0.2724  0.3210
  534TIP3    H2 1609   0.883   5.082   1.379  0.1664 -0.0643 -1.0890
  535TIP3   OH2 1610   6.327   0.352   2.499 -0.3867  0.2521 -0.1596
  535TIP3    H1 1611   6.393   0.376   2.565  1.5479 -0.8977 -1.5800
  535TIP3    H2 1612   6.279   0.433   2.483  0.5938  1.1061  1.0111
  536TIP3   OH2 1613   5.135   3.464   4.444 -0.2265  0.0933 -0.1852
  536TIP3    H1 1614   5.085   3.390   4.479 -1.7304  0.8833 -0.5711
  536TIP3    H2 1615   5.149   3.521   4.519 -2.3301  1.1670 -0.5310
  537TIP3   OH2 1616   4.078   3.080   1.088 -0.0179 -0.2140 -0.2347
  537TIP3    H1 1617   4.001   3.034   1.120 -0.5853 -0.6072 -2.0336
  537TIP3    H2 1618   4.083   3.159   1.141 -1.9077  0.0083 -0.3174
  538TIP3   OH2 1619   1.410   3.706   1.697 -0.0058 -0.2023 -0.5418
  538TIP3    H1 1620   1.363   3.715   1.780 -0.2769 -1.6151 -0.5238
  538TIP3    H2 1621   1.502   3.699   1.722  0.0753  0.9802 -0.4750
  539TIP3   OH2 1622   2.739   5.853   0.518  0.0961  0.0009  0.2682
  539TIP3    H1 1623   2.819   5.900   0.493  0.0910 -0.4109 -0.5734
  539TIP3    H2 1624   2.676   5.875   0.450 -0.1058 -0.6971  0.2197
  540TIP3   OH2 1625   1.115   0.914   2.715  0.4413 -0.3432 -0.4991
  540TIP3    H1 1626   1.121   0.853   2.641  0.7356  0.6421 -1.3140
  540TIP3    H2 1627   1.094   0.859   2.790 -2.1922 -1.1706 -1.6930
  541TIP3   OH2 1628   5.522   4.063   1.781 -0.1304  0.4097 -0.1424
  541TIP3    H1 1629   5.449   4.010   1.815 -0.1917 -0.6354 -1.7581
  541TIP3    H2 1630   5.508   4.064   1.686  0.7449  2.0787 -0.2907
  542TIP3   OH2 1631   1.063   1.531   3.414  0.1998  0.1073  0.1916
  542TIP3    H1 1632   1.088   1.614   3.454 -0.2765 -0.3342  1.4413
  542TIP3    H2 1633   0.969   1.523   3.433  0.4960 -1.3155  1.2337
  543TIP3   OH2 1634   4.423   3.502   0.630  0.0384 -0.5321 -0.2796
  543TIP3    H1 1635   4.337   3.505   0.588 -1.3245  0.5704  2.3396
  543TIP3    H2 1636   4.461   3.588   0.611 -0.8352  0.2026  1.1276
  544TIP3   OH2 1637   1.626   2.244   4.196  0.2254  1.0179  0.3756
  544TIP3    H1 1638   1.589   2.309   4.255 -1.7248  0.9656 -0.7347
  544TIP3    H2 1639   1.590   2.265   4.110  0.6420 -0.7082 -0.2644
  545TIP3   OH2 1640   5.694   3.603   0.481 -0.2220 -0.2125  0.0444
  545TIP3    H1 1641   5.656   3.554   0.554  0.9150 -2.4082 -0.7271
  545TIP3    H2 1642   5.788   3.587   0.489  0.0087  0.4074 -1.2811
  546TIP3   OH2 1643   5.471   3.239   2.999 -0.1569  0.0677 -0.3547
  546TIP3    H1 1644   5.539   3.217   2.936  0.6766 -0.0198  0.5594
  546TIP3    H2 1645   5.505   3.209   3.083 -0.3381  2.0201  0.4664
  547TIP3   OH2 1646   2.752   5.206   1.158 -0.7481 -0.4379 -0.1572
  547TIP3    H1 1647   2.825   5.209   1.097  0.6578 -0.7433  1.4456
  547TIP3    H2 1648   2.698   5.133   1.127  2.1096 -3.3477  1.2550
  548TIP3   OH2 1649   4.875   4.257   1.018 -0.1427 -0.5022  0.2376
  548TIP3    H1 1650   4.831   4.172   1.018  0.0520 -0.6105 -0.5011
  548TIP3    H2 1651   4.931   4.255   0.940 -1.5572  1.0170 -0.9120
  549TIP3   OH2 1652   6.160   4.378   1.018 -0.5242 -0.4143 -0.4836
  549TIP3    H1 1653   6.128   4.452   1.068  0.7292 -0.3540  0.2721
  549TIP3    H2 1654   6.232   4.343   1.070 -1.4205 -2.5076 -0.5437
  550TIP3   OH2 1655   5.463   0.417   2.147  1.1983  0.2622  0.3469
  550TIP3    H1 1656   5.520   0.458   2.082  0.3176  0.6086 -0.2262
  550TIP3    H2 1657   5.443   0.487   2.209  0.0409  0.6186 -0.3958
  551TIP3   OH2 1658   0.308   4.337   3.989 -0.3993  0.1266  0.3458
  551TIP3    H1 1659   0.254   4.412   4.014 -0.2189  0.0216  1.0641
  551TIP3    H2 1660   0.398   4.368   4.002 -0.2989  0.0705 -0.1870
  552TIP3   OH2 1661   0.390   2.760   2.625 -0.1027  0.5291  0.5868
  552TIP3    H1 1662   0.337   2.805   2.691  0.3754  1.9783  0.0285
  552TIP3    H2 1663   0.428   2.831   2.573  0.4561 -0.5517 -0.5188
  553TIP3   OH2 1664   1.796   1.257   0.504  0.6149  0.1252 -0.3211
  553TIP3    H1 1665   1.809   1.251   0.599  1.9980  0.6247 -0.4473
  553TIP3    H2 1666   1.835   1.177   0.470 -0.7958 -0.5497 -0.4218
  554TIP3   OH2 1667   5.314   2.198   0.773 -0.1229  0.3097  0.6919
  554TIP3    H1 1668   5.245   2.219   0.711  1.2315  0.1661 -0.9429
  554TIP3    H2 1669   5.394   2.198   0.721  1.0587 -0.0578  2.4045
  555TIP3   OH2 1670   1.805   2.376   1.285  0.0753  0.2175 -0.4882
  555TIP3    H1 1671   1.767   2.289   1.284  0.0636  0.1843 -2.5028
  555TIP3    H2 1672   1.735   2.433   1.316 -0.2364 -0.3616 -0.1162
  556TIP3   OH2 1673   3.289   1.621   4.327 -0.0850 -0.4275 -0.4468
  556TIP3    H1 1674   3.223   1.552   4.318  1.8112 -2.2717 -1.2550
  556TIP3    H2 1675   3.302   1.629   4.422 -0.6718 -0.8338 -0.3256
  557TIP3   OH2 1676   5.179   3.919   4.374  0.7313 -0.2643  0.4514
  557TIP3    H1 1677   5.177   4.014   4.379 -0.4937 -0.2794  0.4581
  557TIP3    H2 1678   5.219   3.891   4.457  0.1543  0.2027  0.8897
  558TIP3   OH2 1679   0.837   3.427   4.202  0.4063 -0.3317 -0.0524
  558TIP3    H1 1680   0.883   3.386   4.275  0.1737 -0.2691  0.1316
  558TIP3    H2 1681   0.833   3.358   4.135  0.3464 -0.4917  0.1137
  559TIP3   OH2 1682   4.331   0.202   3.222  0.1164 -0.2128 -0.0037
  559TIP3    H1 1683   4.262   0.266   3.203 -0.2915 -0.6424  0.0118
  559TIP3    H2 1684   4.412   0.245   3.195 -0.0346  0.7188  0.9670
  560TIP3   OH2 1685   4.370   1.357   1.070  0.2678 -0.4626 -0.0026
  560TIP3    H1 1686   4.298   1.411   1.104 -2.1862 -2.9481 -0.8449
  560TIP3    H2 1687   4.407   1.315   1.148  1.7210  1.7583  0.5751
  561TIP3   OH2 1688   1.875   3.376   4.231  0.2685  0.0786  0.5796
  561TIP3    H1 1689   1.942   3.399   4.295  2.5372  0.2743 -1.6987
  561TIP3    H2 1690   1.850   3.459   4.191 -0.1771 -0.1644  0.3413
  562TIP3   OH2 1691   1.551   4.405   0.254 -0.0250 -0.3692  0.2406
  562TIP3    H1 1692   1.643   4.386   0.237  0.9903  0.3016  4.1818
  562TIP3    H2 1693   1.549   4.497   0.277 -1.6767 -0.4264  0.4377
  563TIP3   OH2 1694   4.697   4.308   1.271  0.4059 -0.1482  0.3414
  563TIP3    H1 1695   4.787   4.332   1.251  0.6801 -1.4345 -0.0631
  563TIP3    H2 1696   4.645   4.382   1.239  1.1843 -0.1909 -1.0773
  564TIP3   OH2 1697   5.571   1.193   3.846  0.0183 -0.7951  0.3765
  564TIP3    H1 1698   5.552   1.198   3.752  1.2741 -0.6955  0.1159
  564TIP3    H2 1699   5.508   1.252   3.886 -1.6654 -2.1062 -0.2217
  565TIP3   OH2 1700   4.025   4.465   5.224  0.8102 -0.2956  0.3349
  565TIP3    H1 1701   3.949   4.436   5.173  0.0279 -0.1390  1.3805
  565TIP3    H2 1702   4.100   4.443   5.169  0.0634 -1.3185 -0.3152
  566TIP3   OH2 1703   3.526   3.052   2.628 -0.5782  0.4075 -0.2596
  566TIP3    H1 1704   3.597   3.009   2.676 -0.6451  0.8550  0.2571
  566TIP3    H2 1705   3.556   3.056   2.538 -1.0881 -1.8325 -0.5813
  567TIP3   OH2 1706   1.403   0.969   2.851 -0.0122 -0.4445 -0.3501
  567TIP3    H1 1707   1.371   0.901   2.792 -2.3815  2.0193 -2.1776
  567TIP3    H2 1708   1.481   1.004   2.806  1.1191 -1.7507  0.5188
  568TIP3   OH2 1709   6.325   3.003   4.706  0.1119 -0.3254  0.1959
  568TIP3    H1 1710   6.386   3.074   4.687 -0.4539  0.0016 -0.4365
  568TIP3    H2 1711   6.239   3.045   4.708 -0.1746 -0.9070  0.3305
  569TIP3   OH2 1712   5.002   1.706   0.025  0.3364 -0.0268 -0.2339
  569TIP3    H1 1713   4.961   1.638   0.079 -1.2977  1.2796  0.2480
  569TIP3    H2 1714   5.047   1.763   0.087 -0.3642  0.6915 -0.3745
  570TIP3   OH2 1715   3.098   4.763   4.723  0.0227 -0.0761  0.1581
  570TIP3    H1 1716   3.122   4.842   4.673  2.7861 -0.1470  1.1873
  570TIP3    H2 1717   3.159   4.763   4.797 -1.1715 -2.2130  1.2110
  571TIP3   OH2 1718   4.909   3.617   4.431  0.0029  0.5258  0.6170
  571TIP3    H1 1719   4.925   3.661   4.348  0.6971  0.9906  0.9858
  571TIP3    H2 1720   4.975   3.548   4.435  0.8902  1.3755  1.3816
  572TIP3   OH2 1721   4.727   5.201   2.271  0.1368 -0.0899 -0.6278
  572TIP3    H1 1722   4.708   5.109   2.293  0.1420  0.0637  0.0359
  572TIP3    H2 1723   4.705   5.207   2.178 -4.6067  0.3729  0.2263
  573TIP3   OH2 1724   3.715   2.945   0.805 -0.4236  0.5259  0.5732
  573TIP3    H1 1725   3.664   2.871   0.773  1.2226  0.6658 -2.8105
  573TIP3    H2 1726   3.792   2.905   0.845 -1.7722  0.3945  3.2249
  574TIP3   OH2 1727   1.497   2.895   1.241 -0.1655  0.3232 -0.8612
  574TIP3    H1 1728   1.431   2.849   1.293 -1.1819  1.2961 -1.2529
  574TIP3    H2 1729   1.580   2.855   1.268 -0.5874  1.0031  1.7657
  575TIP3   OH2 1730   5.889   5.237   1.706  0.4465 -0.1313 -0.5694
  575TIP3    H1 1731   5.908   5.289   1.784 -1.0974  1.0291 -0.9192
  575TIP3    H2 1732   5.835   5.294   1.652 -1.3948 -2.0970 -0.9434
  576TIP3   OH2 1733   5.073   4.168   4.435  0.0616 -0.2331  0.7126
  576TIP3    H1 1734   5.010   4.104   4.467 -0.5424  0.5214  1.0634
  576TIP3    H2 1735   5.036   4.253   4.461 -0.1708  0.3890 -1.4336
  577TIP3   OH2 1736   1.702   4.510   1.057 -0.3393  0.6965  0.2277
  577TIP3    H1 1737   1.783   4.558   1.039 -0.6050  1.0860  0.0541
  577TIP3    H2 1738   1.716   4.470   1.143  0.1699  0.4742  0.0456
  578TIP3   OH2 1739   4.029   4.313   1.542  0.1005  0.0806  0.4581
  578TIP3    H1 1740   4.015   4.324   1.636  0.7662  0.8284  0.4782
  578TIP3    H2 1741   4.012   4.399   1.504 -0.0141 -0.1770 -0.0928
  579TIP3   OH2 1742   4.340   4.377   0.715 -0.5182  0.1719 -0.2869
  579TIP3    H1 1743   4.319   4.406   0.626 -1.0229  0.3716 -0.0999
  579TIP3    H2 1744   4.318   4.451   0.771 -2.9932 -0.9261  0.3366
  580TIP3   OH2 1745   5.688   2.889   3.356  0.4702  0.1351  0.2923
  580TIP3    H1 1746   5.737   2.810   3.331  1.2714 -0.5091  3.4386
  580TIP3    H2 1747   5.616   2.857   3.410  0.2093  1.4952  0.7864
  581TIP3   OH2 1748   5.877   2.955   1.288 -0.2188  0.2029 -0.0578
  581TIP3    H1 1749   5.938   2.881   1.276 -0.9850 -0.3012 -1.0274
  581TIP3    H2 1750   5.831   2.936   1.369  0.8901  0.5772  0.6751
  582TIP3   OH2 1751   3.854   2.788   1.993 -0.0734 -0.3414 -0.3097
  582TIP3    H1 1752   3.835   2.813   1.902 -0.8243  1.4298  0.2895
  582TIP3    H2 1753   3.937   2.832   2.013 -1.4186  1.9096  0.7631
  583TIP3   OH2 1754   2.357   4.246   3.031 -0.1927  0.3704  0.6093
  583TIP3    H1 1755   2.436   4.222   2.983 -0.6827 -1.3018  0.5587
  583TIP3    H2 1756   2.387   4.265   3.119  0.0917 -2.3577  1.1792
  584TIP3   OH2 1757   4.399   0.313   1.602  0.2554  0.3960  0.0414
  584TIP3    H1 1758   4.390   0.406   1.584  0.4103  0.5892  0.9280
  584TIP3    H2 1759   4.432   0.309   1.692 -0.1052 -0.5197  0.1426
  585TIP3   OH2 1760   1.159   1.270   3.351 -0.1673  0.5862  0.0705
  585TIP3    H1 1761   1.112   1.353   3.349  0.3667  0.9160  0.6880
  585TIP3    H2 1762   1.175   1.248   3.259 -3.1594 -0.5118 -0.3031
  586TIP3   OH2 1763   4.680   0.438   2.395 -0.2329  0.4656  0.7093
  586TIP3    H1 1764   4.743   0.373   2.426 -0.1698 -1.4316 -2.9064
  586TIP3    H2 1765   4.595   0.396   2.404 -0.6303  1.3955  1.6643
  587TIP3   OH2 1766   4.013   3.560   4.818  0.4652 -0.0391 -0.4750
  587TIP3    H1 1767   3.971   3.474   4.827 -0.6701  0.3967 -1.3229
  587TIP3    H2 1768   4.061   3.572   4.899  0.6337 -1.4770 -0.3370
  588TIP3   OH2 1769   3.748   1.011   1.050  0.4755  0.1981 -0.1148
  588TIP3    H1 1770   3.808   1.040   0.981  1.5285  1.3642  1.2047
  588TIP3    H2 1771   3.806   0.991   1.124 -0.6337 -0.8007  0.5142
  589TIP3   OH2 1772   1.128   5.742   5.023 -0.6395  0.6972 -0.3502
  589TIP3    H1 1773   1.177   5.806   5.074 -2.2688 -0.0989  2.4173
  589TIP3    H2 1774   1.040   5.778   5.016 -1.1744 -0.4955 -0.1385
  590TIP3   OH2 1775   3.196   2.553   3.211  0.0142  0.0767  0.0093
  590TIP3    H1 1776   3.291   2.549   3.216  0.0010 -0.5376 -0.1366
  590TIP3    H2 1777   3.176   2.529   3.120 -0.3116 -0.5871  0.2498
  591TIP3   OH2 1778   4.956   5.462   4.141 -0.3108  0.2708 -0.1991
  591TIP3    H1 1779   4.984   5.467   4.050 -2.7649  0.2051 -1.0232
  591TIP3    H2 1780   4.899   5.539   4.153 -1.2747 -0.5684  0.8016
  592TIP3   OH2 1781   2.514   1.469   3.189  0.5688  0.4342  0.4048
  592TIP3    H1 1782   2.564   1.463   3.270  1.1092 -0.5238  0.0244
  592TIP3    H2 1783   2.574   1.508   3.126  0.1861  1.0805  0.4326
  593TIP3   OH2 1784   2.121   1.743   4.571  0.4047  0.5020  0.0793
  593TIP3    H1 1785   2.139   1.763   4.479  1.8123  2.7738  0.7779
  593TIP3    H2 1786   2.189   1.789   4.620  0.4874 -1.6855  2.2499
  594TIP3   OH2 1787   3.193   1.096   0.572 -0.0043  0.8034 -0.0060
  594TIP3    H1 1788   3.216   1.009   0.538  2.6601  1.6979 -0.7268
  594TIP3    H2 1789   3.237   1.157   0.513  0.4570  2.5579  2.0384
  595TIP3   OH2 1790   0.820   3.173   2.685 -0.1950  0.5820  0.0881
  595TIP3    H1 1791   0.726   3.153   2.688 -0.2709  0.9340  2.1652
  595TIP3    H2 1792   0.824   3.268   2.697  0.4233  0.5938 -0.2145
  596TIP3   OH2 1793   0.736   3.736   3.244  0.5561 -0.7574  0.8122
  596TIP3    H1 1794   0.708   3.711   3.333  1.1964  0.0676  1.2618
  596TIP3    H2 1795   0.808   3.797   3.258 -0.1027  0.3121 -0.2638
  597TIP3   OH2 1796   2.959   5.397   0.437  0.3628  0.0984 -0.0821
  597TIP3    H1 1797   2.916   5.481   0.423 -0.0171 -0.0273  0.3014
  597TIP3    H2 1798   2.897   5.346   0.489  0.9182 -0.1247  0.3894
  598TIP3   OH2 1799   2.552  -0.017   4.426  0.4489 -0.0219  0.2051
  598TIP3    H1 1800   2.576   0.070   4.394  0.1152  0.7423  1.9276
  598TIP3    H2 1801   2.457  -0.013   4.436  0.3107 -0.9292 -0.6181
  599TIP3   OH2 1802   1.223   2.225   1.033 -0.4147 -0.4002  0.1000
  599TIP3    H1 1803   1.173   2.276   0.970  0.3949 -1.1738 -1.2106
  599TIP3    H2 1804   1.158   2.192   1.094 -1.3667 -0.4995 -0.9355
  600TIP3   OH2 1805   1.063   3.858   4.935 -0.2534 -0.0101  0.1201
  600TIP3    H1 1806   1.011   3.850   4.855 -1.4126  0.0828  0.8423
  600TIP3    H2 1807   1.136   3.915   4.910 -1.5635  1.5059 -0.4215
  601TIP3   OH2 1808   0.740   3.957   4.058  0.5362  0.2664 -0.7058
  601TIP3    H1 1809   0.739   3.937   4.151 -1.9582 -0.1283 -0.7468
  601TIP3    H2 1810   0.742   4.052   4.053 -0.4087  0.3202 -0.2064
  602TIP3   OH2 1811   1.684   0.413   1.500  0.0187 -0.1465  0.4014
  602TIP3    H1 1812   1.626   0.404   1.424 -1.1618  2.3808  0.9268
  602TIP3    H2 1813   1.667   0.334   1.552 -1.9827 -0.1020 -0.1014
  603TIP3   OH2 1814   0.599   0.497   0.964  0.0812  0.4060 -0.3493
  603TIP3    H1 1815   0.629   0.424   1.018  1.1518  1.0896  0.0084
  603TIP3    H2 1816   0.545   0.456   0.896  2.7831 -1.0633 -1.7710
  604TIP3   OH2 1817   2.518   2.932   4.300 -0.1981  0.1324 -0.5582
  604TIP3    H1 1818   2.588   2.923   4.364 -0.1146 -1.3189 -0.8143
  604TIP3    H2 1819   2.469   2.850   4.306 -1.1468  0.6269 -1.2398
  605TIP3   OH2 1820   6.020   0.491   1.962 -0.7057  0.2640 -0.0899
  605TIP3    H1 1821   6.052   0.473   1.874 -0.3954  0.7018 -0.0714
  605TIP3    H2 1822   5.965   0.569   1.953  1.3704  1.8810  0.4888
  606TIP3   OH2 1823   4.134   1.601   1.759  0.1088  0.3585 -0.1519
  606TIP3    H1 1824   4.083   1.641   1.688 -0.3886 -1.3284 -0.7901
  606TIP3    H2 1825   4.085   1.523   1.783  0.7873  0.3739  1.4116
  607TIP3   OH2 1826   5.695   2.526   1.233 -0.4366  0.1114 -0.3675
  607TIP3    H1 1827   5.760   2.538   1.165 -0.4879 -0.8087 -0.5900
  607TIP3    H2 1828   5.709   2.437   1.265 -0.0099  0.7276  1.2530
  608TIP3   OH2 1829   1.481   3.044   3.874 -0.8482  0.3648  0.5999
  608TIP3    H1 1830   1.540   2.970   3.858 -0.6211  0.9782 -1.7240
  608TIP3    H2 1831   1.413   3.035   3.808  0.8182  3.8370 -1.8791
  609TIP3   OH2 1832   4.304   3.074   2.481 -0.2906 -0.6590  0.1016
  609TIP3    H1 1833   4.392   3.038   2.489 -0.7540 -2.9999 -3.2845
  609TIP3    H2 1834   4.317   3.165   2.455  1.0813 -0.6168  0.8867
  610TIP3   OH2 1835   4.400   1.200   3.024  0.2256  0.3684 -0.0888
  610TIP3    H1 1836   4.305   1.183   3.024  0.3529 -0.4130 -0.4183
  610TIP3    H2 1837   4.418   1.235   3.111 -0.0547 -1.4779  0.7724
  611TIP3   OH2 1838   2.076   0.244   2.137 -0.1828  0.5484  0.4857
  611TIP3    H1 1839   2.068   0.328   2.092 -2.3826  1.1287  1.7930
  611TIP3    H2 1840   2.037   0.259   2.223 -1.5532 -2.0468  0.4206
  612TIP3   OH2 1841   2.155   2.932   2.396  0.2554  0.4783  0.5824
  612TIP3    H1 1842   2.236   2.958   2.442 -0.4660  0.3251  1.9974
  612TIP3    H2 1843   2.184   2.868   2.332  1.0934 -0.7425  2.1047
  613TIP3   OH2 1844   4.047   4.260   0.842 -0.1496  0.0932 -0.1927
  613TIP3    H1 1845   4.027   4.218   0.758 -2.1205 -1.3194  0.8931
  613TIP3    H2 1846   4.073   4.349   0.818  0.2024 -0.5230 -2.3416
  614TIP3   OH2 1847   2.752   0.476   2.446  0.3856  0.3614  0.3159
  614TIP3    H1 1848   2.724   0.564   2.467  0.1540  0.5022 -0.5361
  614TIP3    H2 1849   2.672   0.429   2.423  0.2164 -0.6640  2.6381
  615TIP3   OH2 1850   0.373   4.625   1.647  0.5983  0.1788  0.5658
  615TIP3    H1 1851   0.409   4.714   1.648 -1.1598  1.1055 -2.9780
  615TIP3    H2 1852   0.280   4.637   1.632  0.2614 -2.2531  0.3122
  616TIP3   OH2 1853   4.716   0.546   1.769 -0.3717 -0.1226 -0.0372
  616TIP3    H1 1854   4.803   0.557   1.731 -0.1471  0.4492  0.6340
  616TIP3    H2 1855   4.657   0.589   1.707  0.0331  1.1232  0.4174
  617TIP3   OH2 1856   4.948   0.151   4.673  0.1315  0.7685 -0.7373
  617TIP3    H1 1857   4.978   0.238   4.647 -1.9673  2.1495  1.0424
  617TIP3    H2 1858   4.854   0.151   4.655 -0.2817 -0.3808  1.0863
  618TIP3   OH2 1859   1.000   3.729   5.191 -0.0797 -0.1430  0.1208
  618TIP3    H1 1860   1.028   3.795   5.128 -0.4121  1.5902  1.6871
  618TIP3    H2 1861   1.079   3.677   5.208  0.2740  0.0401 -0.9202
  619TIP3   OH2 1862   1.412   4.256   4.729 -0.0171 -0.3419 -0.0298
  619TIP3    H1 1863   1.379   4.310   4.657 -0.3559 -0.5301 -0.0137
  619TIP3    H2 1864   1.385   4.302   4.808 -1.6303 -1.3030  0.0135
  620TIP3   OH2 1865   1.369   5.117   0.823  0.2234  0.0728 -0.8145
  620TIP3    H1 1866   1.453   5.078   0.801 -0.6643 -2.0444 -0.7422
  620TIP3    H2 1867   1.326   5.130   0.738 -0.4419 -1.5162 -0.7616
  621TIP3   OH2 1868   5.281   5.707   2.845 -0.3557 -0.7357 -0.1737
  621TIP3    H1 1869   5.253   5.721   2.754 -0.6584  1.3294  0.2053
  621TIP3    H2 1870   5.216   5.754   2.897  2.0841  1.6715  0.8921
  622TIP3   OH2 1871   1.332   5.813   1.358  0.7481 -0.5033  0.5127
  622TIP3    H1 1872   1.297   5.860   1.282  1.9495  0.6613  0.6461
  622TIP3    H2 1873   1.273   5.836   1.429  0.1055 -0.9160  0.1231
  623TIP3   OH2 1874   3.480   1.767   4.173 -0.2728 -0.0874  0.7990
  623TIP3    H1 1875   3.390   1.746   4.198  0.4089 -2.0115  1.8595
  623TIP3    H2 1876   3.531   1.755   4.253  1.1890 -0.8774 -0.1889
  624TIP3   OH2 1877   6.242   0.607   3.533  0.2879  0.3076 -0.7450
  624TIP3    H1 1878   6.163   0.654   3.506 -0.8192 -0.7826  0.4655
  624TIP3    H2 1879   6.302   0.676   3.562 -1.6392  1.0627  1.9005
  625TIP3   OH2 1880   1.047   3.922   4.643  0.2417 -0.9012  0.7535
  625TIP3    H1 1881   1.029   4.010   4.676 -0.0784 -1.2989  1.6457
  625TIP3    H2 1882   1.105   3.937   4.568  2.6313 -0.0743  2.6364
  626TIP3   OH2 1883   4.735   2.562   0.313 -0.0680  0.1794 -0.4520
  626TIP3    H1 1884   4.695   2.644   0.285  1.6664  1.1818 -0.1778
  626TIP3    H2 1885   4.674   2.526   0.377 -1.5257  0.5289 -1.5853
  627TIP3   OH2 1886   6.002   0.829   4.019  0.0424  0.1855 -0.0740
  627TIP3    H1 1887   6.089   0.864   4.039  0.7059 -1.7765  0.6900
  627TIP3    H2 1888   6.016   0.735   4.005 -2.1110 -0.4475  1.4117
  628TIP3   OH2 1889   6.106   0.789   1.408 -0.0358 -0.1751  0.2067
  628TIP3    H1 1890   6.014   0.776   1.386 -0.0719  0.1032  0.1926
  628TIP3    H2 1891   6.154   0.732   1.348 -0.1957 -0.2891  0.1874
  629TIP3   OH2 1892   5.309   5.550   2.218  0.0886 -0.5123  0.4167
  629TIP3    H1 1893   5.281   5.494   2.290  0.7780  0.7108  1.6967
  629TIP3    H2 1894   5.242   5.539   2.150 -1.1127 -0.9377  1.6452
  630TIP3   OH2 1895   1.366   5.639   2.421  0.0047 -0.3323  0.3249
  630TIP3    H1 1896   1.376   5.602   2.509  1.4947 -0.2165  0.2226
  630TIP3    H2 1897   1.341   5.730   2.436 -0.2480 -0.4450  0.6132
  631TIP3   OH2 1898   3.892   3.537   2.677 -0.6843  0.0662 -0.1796
  631TIP3    H1 1899   3.815   3.483   2.660 -1.7453  1.3099  0.5584
  631TIP3    H2 1900   3.963   3.473   2.688 -1.8387 -1.1788  0.3864
  632TIP3   OH2 1901   6.156   1.528   0.529 -0.5905 -0.1893 -0.2227
  632TIP3    H1 1902   6.242   1.546   0.491 -0.4031 -0.3684  0.1070
  632TIP3    H2 1903   6.174   1.509   0.621 -0.9686 -0.3586 -0.1802
  633TIP3   OH2 1904   0.737   4.616   2.290  0.0451  0.0130 -0.4704
  633TIP3    H1 1905   0.741   4.595   2.383 -4.6418 -0.3863 -0.1335
  633TIP3    H2 1906   0.719   4.710   2.286  0.9365  0.1789 -1.0691
  634TIP3   OH2 1907   4.160   2.641   3.164  0.2886  0.1245  0.0630
  634TIP3    H1 1908   4.193   2.594   3.242  1.3039 -0.3368 -0.6268
  634TIP3    H2 1909   4.184   2.732   3.179 -0.8324  0.3006  0.9616
  635TIP3   OH2 1910   3.740   1.622   0.025  0.0854 -0.1083 -0.2974
  635TIP3    H1 1911   3.823   1.611   0.073 -0.8049 -0.6833  1.1802
  635TIP3    H2 1912   3.693   1.541   0.041 -1.3506  0.7708  0.0765
  636TIP3   OH2 1913   5.995   3.108   4.364  0.1406 -0.2915 -0.3529
  636TIP3    H1 1914   5.953   3.144   4.286 -1.1584 -0.1827  0.3600
  636TIP3    H2 1915   6.039   3.183   4.405 -0.2239 -0.0793 -0.3391
  637TIP3   OH2 1916   0.253   0.531   1.635 -0.2942 -0.3541 -0.3531
  637TIP3    H1 1917   0.296   0.616   1.645 -0.1610 -0.5050  0.4482
  637TIP3    H2 1918   0.321   0.475   1.596  0.2574 -0.5779  0.8608
  638TIP3   OH2 1919   1.046   5.894   2.583  0.0371 -0.7917  0.6612
  638TIP3    H1 1920   0.982   5.843   2.632 -0.3850  0.9855  2.1037
  638TIP3    H2 1921   0.998   5.926   2.507 -0.5176 -0.3382  1.1850
  639TIP3   OH2 1922   4.774   0.963   4.269  0.5754 -0.1587 -0.1270
  639TIP3    H1 1923   4.738   0.884   4.230 -0.8157 -0.6247  1.9699
  639TIP3    H2 1924   4.868   0.948   4.272  0.2100 -2.6325  1.9617
  640TIP3   OH2 1925   1.667   5.204   4.123  0.4161 -0.1904 -0.1379
  640TIP3    H1 1926   1.583   5.200   4.168  0.2879  2.1187 -0.0752
  640TIP3    H2 1927   1.729   5.232   4.191  0.7669  0.4826 -0.7300
  641TIP3   OH2 1928   0.550   0.016   1.982  0.1332 -0.2769  0.5777
  641TIP3    H1 1929   0.634   0.008   1.937 -0.2804  0.8158 -0.4640
  641TIP3    H2 1930   0.505   0.087   1.935 -1.4651 -1.0044  0.9376
  642TIP3   OH2 1931   5.904   1.813   1.239  0.2746  0.0057 -0.1981
  642TIP3    H1 1932   5.830   1.843   1.186 -0.7477 -0.6547  0.8009
  642TIP3    H2 1933   5.869   1.806   1.328  0.4624 -3.8131 -0.2445
  643TIP3   OH2 1934   2.884   5.842   4.719  0.2835 -0.6295  0.1391
  643TIP3    H1 1935   2.818   5.873   4.656 -0.5536 -2.5940 -0.0129
  643TIP3    H2 1936   2.902   5.918   4.774 -1.7391  0.1183 -0.1384
  644TIP3   OH2 1937   5.007   2.167   3.016 -0.1826  0.1244  0.0777
  644TIP3    H1 1938   5.098   2.193   3.024  0.5405 -2.3219  0.6982
  644TIP3    H2 1939   4.980   2.146   3.106 -1.3935  0.8262 -0.0881
  645TIP3   OH2 1940   3.229   2.898   4.159  0.1580  0.3471 -0.4695
  645TIP3    H1 1941   3.287   2.830   4.196  0.1115  0.3609 -0.3691
  645TIP3    H2 1942   3.194   2.858   4.079  1.1541  0.7493 -1.1256
  646TIP3   OH2 1943   5.925   4.732   1.830  0.0237  0.4985 -0.1501
  646TIP3    H1 1944   6.019   4.718   1.836  0.1949  0.5605 -1.9105
  646TIP3    H2 1945   5.917   4.817   1.786 -0.7301 -0.9050 -2.9986
  647TIP3   OH2 1946   0.322   5.894   2.020 -0.6575 -0.5757 -0.5081
  647TIP3    H1 1947   0.257   5.921   2.086 -1.0354 -0.4263 -0.9337
  647TIP3    H2 1948   0.285   5.923   1.937 -0.4965 -1.3453 -0.8580
  648TIP3   OH2 1949   4.038   5.026   1.326 -0.4623 -0.1200 -0.1156
  648TIP3    H1 1950   4.015   5.098   1.384 -1.5623  0.3977 -1.1448
  648TIP3    H2 1951   4.122   5.051   1.287 -1.0319  0.8140 -0.7719
  649TIP3   OH2 1952   1.172   3.247   1.956  0.4430 -0.5595 -0.0710
  649TIP3    H1 1953   1.089   3.287   1.930 -0.3908 -2.6219 -0.8129
  649TIP3    H2 1954   1.213   3.223   1.873  1.2321 -0.6361  0.3366
  650TIP3   OH2 1955   6.003   2.682   1.849  0.4377  0.0717 -0.1725
  650TIP3    H1 1956   5.947   2.605   1.834  2.3053 -1.5842  0.7858
  650TIP3    H2 1957   5.985   2.706   1.940  0.8399 -0.0917 -0.0497
  651TIP3   OH2 1958   0.286   2.894   0.308 -0.0738  0.6184 -0.1040
  651TIP3    H1 1959   0.326   2.923   0.225 -1.9997  0.1386 -1.2584
  651TIP3    H2 1960   0.314   2.803   0.317 -2.2054 -0.2989 -1.8460
  652TIP3   OH2 1961   2.045   2.323   4.889  0.3273  0.4432  0.3772
  652TIP3    H1 1962   1.957   2.289   4.874  0.6808 -0.9026  1.1235
  652TIP3    H2 1963   2.099   2.277   4.825  0.5035  1.2676 -0.0812
  653TIP3   OH2 1964   2.809   1.497   4.618  0.0851 -0.1486 -0.0572
  653TIP3    H1 1965   2.787   1.568   4.679  0.3790  0.5811 -0.7688
  653TIP3    H2 1966   2.779   1.417   4.661 -0.9578  0.4862  0.4302
  654TIP3   OH2 1967   5.142   5.794   2.139  0.5529 -0.0787 -0.0969
  654TIP3    H1 1968   5.202   5.769   2.068  0.6912 -1.0003  0.3406
  654TIP3    H2 1969   5.090   5.716   2.155 -0.4870  0.5816 -0.1703
  655TIP3   OH2 1970   1.537   0.978   3.950 -0.2034 -0.0560  0.6716
  655TIP3    H1 1971   1.573   1.044   4.010 -0.0204 -0.2117  0.7346
  655TIP3    H2 1972   1.460   1.020   3.913 -0.5575 -0.1097  1.3258
  656TIP3   OH2 1973   1.801   1.953   3.862 -0.1099  0.2599 -0.0176
  656TIP3    H1 1974   1.759   1.994   3.786  0.1101 -0.8542 -0.7719
  656TIP3    H2 1975   1.802   1.860   3.841  1.2537  0.0771  0.7143
  657TIP3   OH2 1976   4.237   1.204   5.160 -0.0014 -0.1067  0.1566
  657TIP3    H1 1977   4.223   1.198   5.065 -1.0113 -1.0898  0.3344
  657TIP3    H2 1978   4.243   1.112   5.188 -2.5541  0.0051  1.3896
  658TIP3   OH2 1979   6.198   2.098   4.366  0.2695  0.4890 -0.7558
  658TIP3    H1 1980   6.257   2.133   4.433 -0.5653  0.3891  0.0510
  658TIP3    H2 1981   6.152   2.175   4.332 -0.8261  0.3217  0.2939
  659TIP3   OH2 1982   3.660   4.288   0.505  0.3664 -0.0891 -0.1634
  659TIP3    H1 1983   3.667   4.304   0.599 -0.8741 -1.7607  0.2685
  659TIP3    H2 1984   3.640   4.374   0.468  1.7164  0.7556  0.9682
  660TIP3   OH2 1985   0.961   4.949   1.472  0.3437 -0.3445  0.5495
  660TIP3    H1 1986   1.036   4.906   1.512  1.4949 -0.8112 -1.8996
  660TIP3    H2 1987   0.929   4.886   1.408 -0.4055  0.9182 -0.3695
  661TIP3   OH2 1988   6.305   4.627   4.418 -0.0282 -0.5415 -0.6583
  661TIP3    H1 1989   6.374   4.646   4.481 -0.0031 -1.6872 -0.3297
  661TIP3    H2 1990   6.327   4.680   4.342 -0.2285  1.1329  0.3695
  662TIP3   OH2 1991   5.354   2.955   3.126 -0.2530 -0.5794  0.4017
  662TIP3    H1 1992   5.433   2.990   3.169 -0.5062 -0.9963  1.2321
  662TIP3    H2 1993   5.283   3.009   3.161 -0.6455 -1.8721  1.6807
  663TIP3   OH2 1994   1.345   5.519   5.105  0.2180 -0.1313 -0.5892
  663TIP3    H1 1995   1.392   5.602   5.103 -2.1723  1.4017  0.8441
  663TIP3    H2 1996   1.391   5.467   5.170  0.6536  0.8502 -0.0846
  664TIP3   OH2 1997   5.632   5.129   3.044 -0.2226  1.1921 -0.0242
  664TIP3    H1 1998   5.600   5.128   3.134 -0.5282  0.3358 -0.1404
  664TIP3    H2 1999   5.716   5.175   3.049  0.5867 -0.3220  0.9871
  665TIP3   OH2 2000   3.818   1.034   2.216  0.0924  0.1162  0.5300
  665TIP3    H1 2001   3.786   1.116   2.178  0.4397 -0.2304 -0.5662
  665TIP3    H2 2002   3.756   0.967   2.185 -0.6031  0.0491  2.0063
  666TIP3   OH2 2003   5.789   2.065   0.025 -0.2361  0.1097  0.0948
  666TIP3    H1 2004   5.847   2.010  -0.027 -0.2212 -0.3785  0.6223
  666TIP3    H2 2005   5.824   2.060   0.114 -0.3111  0.8709  0.1772
  667TIP3   OH2 2006   0.602   1.091   2.129 -0.1677  0.4814 -0.6387
  667TIP3    H1 2007   0.592   1.128   2.042  0.8499 -1.1272 -1.4851
  667TIP3    H2 2008   0.516   1.054   2.149 -0.1184 -0.0845 -1.4315
  668TIP3   OH2 2009   1.426   4.536   1.806 -0.0105 -0.5182 -0.0438
  668TIP3    H1 2010   1.350   4.591   1.824 -0.4944 -0.5888 -1.7234
  668TIP3    H2 2011   1.463   4.572   1.725  1.9157 -0.3260  0.8805
  669TIP3   OH2 2012   6.046   2.818   0.125 -0.0459 -0.2738 -0.5940
  669TIP3    H1 2013   6.015   2.907   0.142  0.2854 -0.0802 -0.9897
  669TIP3    H2 2014   6.126   2.829   0.075  0.1698 -0.7926 -0.3778
  670TIP3   OH2 2015   0.654   2.796   1.177  0.3070 -0.1056  0.3848
  670TIP3    H1 2016   0.669   2.846   1.097 -0.4369  1.0955  0.9646
  670TIP3    H2 2017   0.655   2.704   1.149  0.3640  0.2813 -0.9355
  671TIP3   OH2 2018   0.506   5.344   0.744 -0.4684 -0.3488 -0.1312
  671TIP3    H1 2019   0.447   5.295   0.687 -0.0360 -0.4125 -0.5340
  671TIP3    H2 2020   0.583   5.288   0.753 -0.1816  0.0303 -0.1838
  672TIP3   OH2 2021   4.466   3.679   1.913 -0.4074  0.3972  0.5606
  672TIP3    H1 2022   4.513   3.759   1.937  0.2811 -0.3572  1.8437
  672TIP3    H2 2023   4.528   3.629   1.859 -0.6731  0.5284  0.1302
  673TIP3   OH2 2024   4.642   0.184   5.088  0.3452  0.3221 -0.1309
  673TIP3    H1 2025   4.724   0.134   5.084  0.4063  0.3583  0.5372
  673TIP3    H2 2026   4.627   0.213   4.998  1.5715  1.1185 -0.1020
  674TIP3   OH2 2027   4.843   2.801   3.468 -0.0840  0.4122  0.4147
  674TIP3    H1 2028   4.890   2.723   3.496  0.2057  1.1744  2.1829
  674TIP3    H2 2029   4.900   2.841   3.401 -1.0895 -1.7819 -1.8950
  675TIP3   OH2 2030   2.913   1.167   2.533  0.6831 -0.0636  0.1153
  675TIP3    H1 2031   2.965   1.171   2.452  2.8381 -1.7670  1.3040
  675TIP3    H2 2032   2.902   1.074   2.550 -1.0171  0.2739  1.0287
  676TIP3   OH2 2033   0.313   2.160   3.700 -0.2949  0.4623  0.2870
  676TIP3    H1 2034   0.310   2.165   3.605 -0.7556 -1.4265  0.1571
  676TIP3    H2 2035   0.405   2.147   3.721 -0.5050 -2.7453 -0.2343
  677TIP3   OH2 2036   5.059   3.706   3.264  0.1897 -0.6698 -0.1987
  677TIP3    H1 2037   5.080   3.670   3.178  1.0173 -1.3477  0.2582
  677TIP3    H2 2038   5.051   3.800   3.251  0.6057 -0.7378 -0.9565
  678TIP3   OH2 2039   6.260   2.985   2.287  0.5904 -0.6029  0.2385
  678TIP3    H1 2040   6.331   3.027   2.239  0.0397 -1.2293 -1.1740
  678TIP3    H2 2041   6.233   3.051   2.352  0.8847  0.5595 -0.7720
  679TIP3   OH2 2042   4.027   4.796   1.495 -0.5219  0.2420  0.1678
  679TIP3    H1 2043   4.037   4.871   1.435 -1.8625 -0.4246 -0.9335
  679TIP3    H2 2044   3.936   4.802   1.525 -0.5967 -0.8525  0.1764
  680TIP3   OH2 2045   5.655   0.506   0.296 -0.1503  0.1017  0.3211
  680TIP3    H1 2046   5.624   0.418   0.317 -2.2561  1.1837  2.2069
  680TIP3    H2 2047   5.748   0.505   0.318 -0.1190 -1.6411  0.2171
  681TIP3   OH2 2048   5.543   4.252   4.780 -0.0331  0.2074 -0.0138
  681TIP3    H1 2049   5.561   4.314   4.709  0.6356 -0.1840 -0.1904
  681TIP3    H2 2050   5.626   4.208   4.795 -0.5644 -0.8340 -0.0624
  682TIP3   OH2 2051   5.576   4.038   0.876  0.1462 -0.4159 -0.0344
  682TIP3    H1 2052   5.514   4.094   0.830 -0.4475 -0.2570  0.9277
  682TIP3    H2 2053   5.656   4.090   0.880 -0.3333  0.3100  0.6643
  683TIP3   OH2 2054   0.951   0.720   1.537 -0.2133 -0.2957 -0.1793
  683TIP3    H1 2055   0.973   0.736   1.445  0.9417  0.4960  0.2116
  683TIP3    H2 2056   1.022   0.761   1.586 -0.6276 -1.0125  1.0651
  684TIP3   OH2 2057   0.768   4.733   1.576  0.2203 -0.3769  0.5724
  684TIP3    H1 2058   0.764   4.799   1.506  1.8832 -0.4707  0.3472
  684TIP3    H2 2059   0.789   4.652   1.530  1.0959 -0.4841  1.1393
  685TIP3   OH2 2060   1.311   2.697   4.584 -0.0014  0.4845  0.1922
  685TIP3    H1 2061   1.288   2.773   4.531 -4.2346  0.9124  2.2289
  685TIP3    H2 2062   1.249   2.629   4.557  0.9086 -0.8524  1.3120
  686TIP3   OH2 2063   3.157   1.210   2.143  0.0149 -0.0718 -0.2418
  686TIP3    H1 2064   3.145   1.291   2.192 -0.0392  0.2312 -0.7488
  686TIP3    H2 2065   3.193   1.148   2.207 -1.3922 -0.1160  0.5515
  687TIP3   OH2 2066   3.952   4.534   3.805  0.0603  0.1250  0.1566
  687TIP3    H1 2067   3.895   4.533   3.883 -1.2370 -0.3990 -0.7656
  687TIP3    H2 2068   3.901   4.580   3.739  0.0464 -1.6730 -1.1496
  688TIP3   OH2 2069   0.842   0.912   2.906  0.0683  0.1617 -0.0800
  688TIP3    H1 2070   0.761   0.867   2.881  0.4198 -0.1578 -0.6828
  688TIP3    H2 2071   0.816   1.002   2.922  0.0341  0.8184 -3.2076
  689TIP3   OH2 2072   4.729   2.095   1.953 -0.2446 -0.4903  0.7128
  689TIP3    H1 2073   4.703   2.025   1.892 -0.4418 -0.7901  1.1334
  689TIP3    H2 2074   4.731   2.174   1.899 -0.0054 -0.8235  0.2258
  690TIP3   OH2 2075   2.291   4.073   3.460  0.0255  0.6506 -0.5709
  690TIP3    H1 2076   2.270   3.989   3.418  0.3834  0.7768 -1.0041
  690TIP3    H2 2077   2.223   4.083   3.527  0.8213 -0.7066  0.4954
  691TIP3   OH2 2078   3.617   0.532   0.776 -0.1996 -0.3190  0.8531
  691TIP3    H1 2079   3.552   0.486   0.829 -1.5928 -1.4113 -1.6494
  691TIP3    H2 2080   3.681   0.465   0.752  0.4945  0.1917  1.2408
  692TIP3   OH2 2081   4.330   1.400   4.703 -0.4056  0.4010 -0.2355
  692TIP3    H1 2082   4.376   1.365   4.779  0.6118 -0.2756 -1.1274
  692TIP3    H2 2083   4.369   1.486   4.689  0.3399 -0.0130 -0.7585
  693TIP3   OH2 2084   5.030   4.883   0.135  0.0516 -0.4116  0.2880
  693TIP3    H1 2085   5.113   4.841   0.112  0.0953 -0.7001  0.9445
  693TIP3    H2 2086   4.963   4.822   0.103  0.1001 -0.5094  0.3747
  694TIP3   OH2 2087   4.129   0.955   3.854  0.5487 -0.2780 -0.0591
  694TIP3    H1 2088   4.199   0.983   3.795 -0.1205  0.4791 -0.5194
  694TIP3    H2 2089   4.062   1.023   3.845 -0.4584 -1.2352 -0.0133
  695TIP3   OH2 2090   4.068   0.338   1.081  0.1861 -0.1023 -0.1478
  695TIP3    H1 2091   4.006   0.393   1.032 -0.9555 -0.9414  0.2985
  695TIP3    H2 2092   4.134   0.314   1.017 -0.1000  0.5835 -0.7228
  696TIP3   OH2 2093   5.434   2.442   1.395 -0.0316 -0.1678  0.1487
  696TIP3    H1 2094   5.375   2.464   1.323 -2.2260 -0.2519  1.8288
  696TIP3    H2 2095   5.475   2.525   1.419 -1.5008  0.4421  0.6536
  697TIP3   OH2 2096   3.666   4.092   4.778  1.0424 -0.8557  0.2052
  697TIP3    H1 2097   3.760   4.085   4.766  1.5135 -0.2561  2.9107
  697TIP3    H2 2098   3.633   4.003   4.767  1.5632 -0.7836 -2.6770
  698TIP3   OH2 2099   2.995   3.564   2.086 -0.2928  0.6639 -0.1387
  698TIP3    H1 2100   2.960   3.641   2.042 -0.8988  0.2631 -0.3743
  698TIP3    H2 2101   3.088   3.562   2.063 -0.0664  1.8116  0.5937
  699TIP3   OH2 2102   3.324   5.854   4.207  0.1605  0.0348 -0.3119
  699TIP3    H1 2103   3.269   5.788   4.165 -0.9008 -0.5217  1.8179
  699TIP3    H2 2104   3.414   5.824   4.191 -0.2445 -0.7959 -1.0994
  700TIP3   OH2 2105   2.954   1.918   2.982  0.6540  0.5877 -0.4596
  700TIP3    H1 2106   2.990   2.001   3.014 -0.3982  0.3887  1.4326
  700TIP3    H2 2107   3.024   1.855   2.996  1.4168  1.1016 -1.7920
  701TIP3   OH2 2108   5.814   4.543   3.224  0.0225  0.4558  0.7441
  701TIP3    H1 2109   5.749   4.479   3.253 -1.6275  1.9611  0.5803
  701TIP3    H2 2110   5.773   4.628   3.242  1.8644  1.4748  0.3819
  702TIP3   OH2 2111   5.606   4.343   3.250 -0.0995 -0.1599 -0.8618
  702TIP3    H1 2112   5.633   4.335   3.158 -0.1497 -0.0797 -0.8834
  702TIP3    H2 2113   5.521   4.387   3.246 -0.8689 -1.5667 -0.8909
  703TIP3   OH2 2114   5.630   1.335   3.017 -0.4790 -0.1550 -0.5857
  703TIP3    H1 2115   5.609   1.372   3.103  0.2026 -1.0999  0.0071
  703TIP3    H2 2116   5.562   1.269   3.003  0.6405 -1.5533  0.2617
  704TIP3   OH2 2117   2.215   0.116   1.269  0.6444 -0.0931 -0.6227
  704TIP3    H1 2118   2.261   0.044   1.227  0.6549 -0.1282 -0.5513
  704TIP3    H2 2119   2.253   0.195   1.229  1.7968 -0.0651  0.4481
  705TIP3   OH2 2120   0.947   0.055   4.007  0.4747  0.0652  0.2391
  705TIP3    H1 2121   1.038   0.080   3.992  0.7946 -1.0922  0.1604
  705TIP3    H2 2122   0.897   0.136   3.994  1.4380  0.6040 -0.1839
  706TIP3   OH2 2123   1.341   0.942   0.539 -0.2751 -0.1058 -0.0999
  706TIP3    H1 2124   1.314   1.030   0.562  0.3627  0.4642 -1.4015
  706TIP3    H2 2125   1.393   0.953   0.459 -0.7530 -1.7306 -0.6768
  707TIP3   OH2 2126   2.958   1.702   4.460  0.0204  0.3159 -0.0873
  707TIP3    H1 2127   2.906   1.647   4.518 -1.0939  1.0061 -0.4111
  707TIP3    H2 2128   2.902   1.777   4.440  1.4011  1.4790  0.1564
  708TIP3   OH2 2129   2.362   2.438   3.668 -0.0285 -0.0944  0.2128
  708TIP3    H1 2130   2.292   2.411   3.607 -0.0577  0.4099  0.0219
  708TIP3    H2 2131   2.316   2.460   3.749 -0.0535 -0.1453  0.2123
  709TIP3   OH2 2132   0.905   2.221   4.531 -1.0843  0.3642  0.2441
  709TIP3    H1 2133   0.827   2.216   4.476 -1.8537  0.4416  1.2915
  709TIP3    H2 2134   0.892   2.300   4.584 -0.3474  0.3150  0.5106
  710TIP3   OH2 2135   2.067   1.297   1.653  0.0505 -0.0055 -0.1642
  710TIP3    H1 2136   2.004   1.363   1.683  0.3908 -0.3148  1.3513
  710TIP3    H2 2137   2.054   1.291   1.559 -0.0815  2.1388 -0.3297
  711TIP3   OH2 2138   1.995   0.815   4.962  0.0445  0.5154 -0.4259
  711TIP3    H1 2139   1.998   0.774   4.876  0.2156 -0.5691  0.0732
  711TIP3    H2 2140   1.913   0.864   4.963 -1.7754 -2.3275  0.0212
  712TIP3   OH2 2141   5.689   1.402   4.871  0.1387 -0.0912  0.1240
  712TIP3    H1 2142   5.729   1.443   4.794  0.4884  0.5089  0.6122
  712TIP3    H2 2143   5.691   1.308   4.853 -0.0770  0.0647 -0.7375
  713TIP3   OH2 2144   5.790   1.395   2.772 -0.2561  0.2241  0.6526
  713TIP3    H1 2145   5.717   1.399   2.711 -1.3466 -0.0736  1.8916
  713TIP3    H2 2146   5.749   1.403   2.859  1.2151  0.4054  1.3563
  714TIP3   OH2 2147   2.569   0.994   0.316 -0.3622 -0.4002 -0.1844
  714TIP3    H1 2148   2.644   0.989   0.257  0.6122  0.7652  0.9068
  714TIP3    H2 2149   2.499   1.032   0.264 -0.1826 -1.4028 -1.1869
  715TIP3   OH2 2150   5.411   0.562   0.162 -0.4285  0.0738  0.7131
  715TIP3    H1 2151   5.385   0.469   0.164 -1.4878  0.3118 -0.7116
  715TIP3    H2 2152   5.478   0.569   0.230  0.3033 -1.9312  0.2769
  716TIP3   OH2 2153   0.849   5.893   3.294 -0.4793 -0.4618  0.0493
  716TIP3    H1 2154   0.804   5.932   3.369 -0.3473 -1.0655  0.4424
  716TIP3    H2 2155   0.801   5.926   3.218 -1.2069 -0.6102  0.4355
  717TIP3   OH2 2156   4.305   1.866   4.863 -0.3552 -0.1337 -0.3944
  717TIP3    H1 2157   4.356   1.894   4.938  0.2704 -2.1000 -0.0369
  717TIP3    H2 2158   4.225   1.918   4.867  0.2752  0.7749  0.8211
  718TIP3   OH2 2159   6.087   1.137   4.209 -0.4485 -0.6734  0.3994
  718TIP3    H1 2160   6.087   1.105   4.299 -0.6056 -1.5833  0.0820
  718TIP3    H2 2161   6.179   1.157   4.190 -0.7645  3.1758  1.9924
  719TIP3   OH2 2162   5.835   1.506   0.725 -0.5884  0.0877  0.4592
  719TIP3    H1 2163   5.805   1.578   0.780  1.4992  1.9700 -0.6970
  719TIP3    H2 2164   5.923   1.485   0.758 -1.0032 -1.7052  0.5184
  720TIP3   OH2 2165   1.408   3.473   3.000  0.4723 -0.4203 -0.1505
  720TIP3    H1 2166   1.491   3.514   3.023 -0.2720 -0.0644  2.2018
  720TIP3    H2 2167   1.430   3.410   2.932  2.1859  1.5327 -1.5204
  721TIP3   OH2 2168   1.010   4.112   2.316  0.0536 -0.5675 -0.0621
  721TIP3    H1 2169   0.941   4.130   2.380 -0.5960 -3.5822  0.1930
  721TIP3    H2 2170   0.979   4.037   2.266  2.5637 -1.1966 -0.8377
  722TIP3   OH2 2171   1.255   5.540   2.190  0.2159 -0.2082 -0.3863
  722TIP3    H1 2172   1.287   5.563   2.277  1.2879  0.1653 -0.8625
  722TIP3    H2 2173   1.311   5.468   2.162 -0.4022 -0.6096 -0.6035
  723TIP3   OH2 2174   4.697   1.933   3.876 -0.0915  0.3170  0.1193
  723TIP3    H1 2175   4.617   1.937   3.823 -0.0533  2.1837  0.1301
  723TIP3    H2 2176   4.674   1.876   3.950 -1.6848  1.4085  0.5246
  724TIP3   OH2 2177   1.996   1.463   4.930 -0.2106  0.1202 -0.4401
  724TIP3    H1 2178   1.997   1.381   4.978  1.3423  0.3848  0.0169
  724TIP3    H2 2179   1.940   1.521   4.982  0.5974  0.0752  0.4986
  725TIP3   OH2 2180   1.213   4.228   1.311 -0.0403  0.2693 -0.0053
  725TIP3    H1 2181   1.201   4.321   1.332  1.1184  1.0152 -2.3521
  725TIP3    H2 2182   1.134   4.204   1.262  0.0835  0.2702 -0.2047
  726TIP3   OH2 2183   1.711   3.107   3.404  0.0263 -0.2500  0.5557
  726TIP3    H1 2184   1.663   3.104   3.487  0.0072  1.4234  0.6239
  726TIP3    H2 2185   1.801   3.128   3.428  0.3743 -1.2889  0.2480
  727TIP3   OH2 2186   3.655   0.244   4.881  0.1278  0.2474 -0.5667
  727TIP3    H1 2187   3.666   0.270   4.789  0.2615  2.8480  0.1060
  727TIP3    H2 2188   3.575   0.289   4.909 -0.5379 -1.3968  0.3463
  728TIP3   OH2 2189   6.304   4.532   3.698  0.0896  0.2260  0.1091
  728TIP3    H1 2190   6.386   4.482   3.699 -2.0308 -3.7146 -0.5708
  728TIP3    H2 2191   6.276   4.531   3.607 -0.7353  1.4557  0.3313
  729TIP3   OH2 2192   5.694   3.966   2.245  0.2673  0.0336 -0.1606
  729TIP3    H1 2193   5.704   4.061   2.250 -2.5239  0.4245 -0.4800
  729TIP3    H2 2194   5.702   3.936   2.335  1.6987  0.4760 -0.1198
  730TIP3   OH2 2195   3.442   0.135   1.020 -0.7071  0.0884 -0.4220
  730TIP3    H1 2196   3.454   0.040   1.018 -1.2666  0.0188 -1.3399
  730TIP3    H2 2197   3.349   0.147   1.039 -0.7611  0.4324 -0.8791
  731TIP3   OH2 2198   1.082   3.618   1.175 -0.5455 -0.2034 -0.5538
  731TIP3    H1 2199   1.161   3.661   1.143 -0.2308 -0.6245 -0.3441
  731TIP3    H2 2200   1.110   3.530   1.200 -0.8761 -0.0305  0.4757
  732TIP3   OH2 2201   2.538   2.043   1.894  0.0099  0.2271  0.3290
  732TIP3    H1 2202   2.565   2.051   1.803  0.8035 -0.7648  0.4541
  732TIP3    H2 2203   2.576   2.120   1.937  2.7683 -1.1180  0.4938
  733TIP3   OH2 2204   2.237   2.805   4.709 -0.0922  0.5018 -0.2049
  733TIP3    H1 2205   2.147   2.837   4.699  0.1638  1.3899  0.2909
  733TIP3    H2 2206   2.260   2.772   4.622 -0.6409  0.9342 -0.5188
  734TIP3   OH2 2207   0.648   1.645   4.141 -0.3366  0.3276 -0.0171
  734TIP3    H1 2208   0.684   1.625   4.055  0.3269  0.7944  0.1468
  734TIP3    H2 2209   0.643   1.741   4.143  1.0924  0.4045  1.0360
  735TIP3   OH2 2210   2.751   3.592   0.611 -0.0822  0.1396  0.2719
  735TIP3    H1 2211   2.780   3.588   0.520  1.3483  1.7195  0.6182
  735TIP3    H2 2212   2.655   3.590   0.605 -0.0820  1.7617 -1.4047
  736TIP3   OH2 2213   2.793   0.762   0.226 -0.1785 -0.0504  0.4093
  736TIP3    H1 2214   2.870   0.817   0.243 -0.3524 -0.2272  1.9260
  736TIP3    H2 2215   2.744   0.810   0.159  1.5374 -0.2508 -1.0934
  737TIP3   OH2 2216   5.315   0.227   4.291  0.3290  0.9973 -0.0480
  737TIP3    H1 2217   5.347   0.316   4.280 -1.6427  1.8998  0.8827
  737TIP3    H2 2218   5.289   0.222   4.383  0.1642 -0.4562 -0.1431
  738TIP3   OH2 2219   5.768   3.344   0.123  0.4467 -0.2162 -0.5056
  738TIP3    H1 2220   5.828   3.297   0.065 -0.6165 -0.7282 -1.2132
  738TIP3    H2 2221   5.720   3.403   0.065  0.8986  0.8859  0.1987
  739TIP3   OH2 2222   6.123   5.281   0.217  0.0277  0.4112  0.1090
  739TIP3    H1 2223   6.151   5.339   0.145 -0.8230  0.8849  0.1423
  739TIP3    H2 2224   6.118   5.194   0.177  0.7935  0.4444 -0.0778
  740TIP3   OH2 2225   3.432   0.045   5.124 -0.9425  0.2220 -0.5000
  740TIP3    H1 2226   3.495   0.025   5.193  1.0486  0.8086 -2.0628
  740TIP3    H2 2227   3.398   0.132   5.146  2.1048  1.9087 -1.8084
  741TIP3   OH2 2228   3.700   5.863   0.107  0.2331 -0.8851  0.3574
  741TIP3    H1 2229   3.782   5.909   0.123 -0.8062  1.0860  0.3572
  741TIP3    H2 2230   3.724   5.787   0.054  2.0507 -0.4335  0.4915
  742TIP3   OH2 2231   0.440   1.246   0.942  0.3881  0.3550  0.6480
  742TIP3    H1 2232   0.362   1.197   0.916  1.4611 -1.7659  1.2866
  742TIP3    H2 2233   0.503   1.180   0.970  2.4492  1.9910  0.1664
  743TIP3   OH2 2234   2.519   5.102   4.111 -0.4435 -0.4080  0.8680
  743TIP3    H1 2235   2.541   5.040   4.042 -2.1579 -1.8271  1.5330
  743TIP3    H2 2236   2.602   5.144   4.133  0.6297 -1.9049 -0.1391
  744TIP3   OH2 2237   1.540   3.406   1.742 -0.1877  0.1123  0.4005
  744TIP3    H1 2238   1.548   3.387   1.648  0.3074  2.6205 -0.1580
  744TIP3    H2 2239   1.497   3.329   1.779 -1.1925 -0.6054 -2.0485
  745TIP3   OH2 2240   6.220   3.282   1.964  0.0507 -0.3522 -0.7553
  745TIP3    H1 2241   6.134   3.311   1.933 -0.2727  0.0006  0.4324
  745TIP3    H2 2242   6.225   3.190   1.937 -0.9859 -0.5669 -0.2772
  746TIP3   OH2 2243   3.428   1.545   1.597 -0.1871 -1.0330 -0.4511
  746TIP3    H1 2244   3.350   1.535   1.542  0.9682  0.9056 -2.6035
  746TIP3    H2 2245   3.465   1.457   1.601 -2.7628 -2.1591  1.2276
  747TIP3   OH2 2246   1.508   4.657   0.695 -0.0350 -0.1505  0.4636
  747TIP3    H1 2247   1.567   4.644   0.621  0.2620 -1.2352  0.8797
  747TIP3    H2 2248   1.557   4.715   0.754 -0.0335  0.2293  0.0977
  748TIP3   OH2 2249   1.512   5.731   5.097  0.4969 -0.0648  0.0157
  748TIP3    H1 2250   1.480   5.784   5.024  0.0526  0.0376  0.2848
  748TIP3    H2 2251   1.498   5.785   5.175 -1.3192 -1.1341  0.4769
  749TIP3   OH2 2252   4.040   5.325   2.646  0.1794  0.1717  0.6890
  749TIP3    H1 2253   4.040   5.418   2.625 -0.3002  0.1405  0.5200
  749TIP3    H2 2254   3.975   5.316   2.716 -0.7412 -0.2093 -0.1863
  750TIP3   OH2 2255   2.125   1.804   0.841 -0.3934 -0.2518 -0.5381
  750TIP3    H1 2256   2.092   1.750   0.913 -0.3213  0.2030 -0.1579
  750TIP3    H2 2257   2.067   1.880   0.840  0.0985  0.1274 -0.4434
  751TIP3   OH2 2258   4.794   1.061   0.277  0.4137 -0.5461 -0.3291
  751TIP3    H1 2259   4.797   1.062   0.181  1.4950 -1.0344 -0.3145
  751TIP3    H2 2260   4.778   1.152   0.302  3.2192  0.2109 -0.9142
  752TIP3   OH2 2261   1.692   4.539   4.377  0.2528 -0.2720 -0.1626
  752TIP3    H1 2262   1.693   4.564   4.469 -0.3634 -1.9306  0.3177
  752TIP3    H2 2263   1.613   4.581   4.341 -0.5617 -1.1723  0.5354
  753TIP3   OH2 2264   0.086   0.842   0.698 -0.1382  0.0049 -0.6354
  753TIP3    H1 2265   0.033   0.837   0.619 -0.5549  0.5772 -0.3926
  753TIP3    H2 2266   0.163   0.788   0.678 -0.0231  0.5076 -1.5971
  754TIP3   OH2 2267   2.071   4.332   2.364 -0.2748 -0.1472  0.1667
  754TIP3    H1 2268   2.054   4.408   2.307  0.0872 -0.1108  0.1057
  754TIP3    H2 2269   2.043   4.257   2.312 -2.9139  0.0617  1.0903
  755TIP3   OH2 2270   1.284   3.400   4.687  0.1663  0.0946  0.1175
  755TIP3    H1 2271   1.348   3.339   4.650  0.4597 -0.8389  2.0644
  755TIP3    H2 2272   1.308   3.485   4.650  0.3385 -0.7682 -1.9091
  756TIP3   OH2 2273   0.834   2.152   5.125  0.4164 -0.1045  0.6168
  756TIP3    H1 2274   0.794   2.233   5.095  2.0411  0.9572  1.1849
  756TIP3    H2 2275   0.827   2.156   5.221 -1.3451 -1.6605  0.6113
  757TIP3   OH2 2276   0.113   5.898   3.065 -0.7170 -0.1378 -0.4755
  757TIP3    H1 2277   0.184   5.963   3.071 -0.5816  0.2689 -4.3508
  757TIP3    H2 2278   0.033   5.949   3.083 -0.5561  1.1187 -2.8972
  758TIP3   OH2 2279   5.434   3.590   0.320 -0.9638  0.3423  0.5369
  758TIP3    H1 2280   5.484   3.645   0.380 -1.8598  2.2599 -0.4118
  758TIP3    H2 2281   5.445   3.501   0.355  1.7210  0.8624  1.2932
  759TIP3   OH2 2282   3.318   2.322   1.445 -0.8489  0.6577  0.0186
  759TIP3    H1 2283   3.341   2.234   1.474 -0.0092  0.5671 -0.8552
  759TIP3    H2 2284   3.263   2.308   1.368 -0.3514  0.8781 -0.3865
  760TIP3   OH2 2285   1.076   0.210   4.330  0.0108 -0.5955 -0.4430
  760TIP3    H1 2286   1.014   0.140   4.351  1.4592 -1.3237  1.8419
  760TIP3    H2 2287   1.141   0.168   4.273  0.3806 -0.8780  0.1778
  761TIP3   OH2 2288   4.271   0.379   3.675 -0.8122 -0.0464  0.0418
  761TIP3    H1 2289   4.222   0.417   3.602  3.0937  0.2344 -2.7548
  761TIP3    H2 2290   4.264   0.285   3.663  0.0044  0.0023 -0.9065
  762TIP3   OH2 2291   0.435   5.400   2.613 -0.8185  0.4104  0.3566
  762TIP3    H1 2292   0.348   5.436   2.596 -0.8462  0.5178  0.7288
  762TIP3    H2 2293   0.445   5.330   2.549  0.0405  2.3434 -1.8065
  763TIP3   OH2 2294   5.596   0.639   1.679  0.2615 -0.4786  0.0804
  763TIP3    H1 2295   5.685   0.671   1.691  0.2488 -1.0438  1.9155
  763TIP3    H2 2296   5.591   0.618   1.586  1.5466  0.9627 -0.3600
  764TIP3   OH2 2297   0.351   4.739   5.091 -0.5267  0.0102 -0.1843
  764TIP3    H1 2298   0.363   4.822   5.137 -1.6881 -0.0011  0.1808
  764TIP3    H2 2299   0.363   4.672   5.159 -0.0707 -0.1049 -0.3749
  765TIP3   OH2 2300   4.325   0.867   2.882 -1.0254 -0.1539  0.3828
  765TIP3    H1 2301   4.344   0.889   2.791 -2.8291  1.6725  0.3771
  765TIP3    H2 2302   4.411   0.865   2.924 -0.2881  0.8017 -1.0021
  766TIP3   OH2 2303   6.098   1.956   3.606  0.2277 -0.1423 -0.1178
  766TIP3    H1 2304   6.182   1.998   3.587  0.2418 -0.3107 -0.4348
  766TIP3    H2 2305   6.121   1.880   3.660  0.2353  0.0672  0.1744
  767TIP3   OH2 2306   1.006   5.084   0.743 -0.2206 -0.1410  0.1739
  767TIP3    H1 2307   1.039   5.048   0.661  0.2636 -0.3466  0.4510
  767TIP3    H2 2308   0.965   5.009   0.787  0.4093 -0.2646  0.5615
  768TIP3   OH2 2309   4.171   3.512   2.818 -0.5439 -0.1397  0.1706
  768TIP3    H1 2310   4.258   3.544   2.844 -0.0396 -1.2449 -0.0771
  768TIP3    H2 2311   4.114   3.588   2.827  0.4109  0.5612  0.5370
  769TIP3   OH2 2312   5.873   1.500   0.444  0.3936  0.7988 -0.2070
  769TIP3    H1 2313   5.865   1.512   0.539 -0.7570  0.2922 -0.2247
  769TIP3    H2 2314   5.965   1.478   0.431  1.0178  2.6602  0.5784
  770TIP3   OH2 2315   3.560   2.965   3.043  0.1820  0.1929 -0.2558
  770TIP3    H1 2316   3.618   2.949   3.118 -0.5344  0.5324  0.3831
  770TIP3    H2 2317   3.525   3.053   3.058 -1.1834 -0.3424 -0.1560
  771TIP3   OH2 2318   4.982   4.577   4.935 -0.7619  0.5039 -0.2245
  771TIP3    H1 2319   5.018   4.665   4.941 -1.1300  0.7748 -1.6036
  771TIP3    H2 2320   4.995   4.552   4.843  0.9537 -1.5858  0.4881
  772TIP3   OH2 2321   2.133   1.277   1.366 -0.1776 -0.0540  0.1063
  772TIP3    H1 2322   2.079   1.356   1.365  1.4497  1.1171 -0.6099
  772TIP3    H2 2323   2.117   1.235   1.282 -2.4291 -1.5558  1.1885
  773TIP3   OH2 2324   2.865   3.969   4.331 -0.5981  0.3294 -0.1154
  773TIP3    H1 2325   2.932   4.020   4.375  0.4187  0.2088 -1.4407
  773TIP3    H2 2326   2.801   3.949   4.399  0.5189  0.7671  1.1066
  774TIP3   OH2 2327   3.964   0.131   3.260 -0.0258  0.0209  0.2315
  774TIP3    H1 2328   3.946   0.069   3.189 -0.6296  0.8471 -0.3680
  774TIP3    H2 2329   4.003   0.207   3.216 -0.4113  0.5449  0.7740
  775TIP3   OH2 2330   3.139   1.739   4.011  0.3742  0.5134  0.5400
  775TIP3    H1 2331   3.057   1.779   4.041  0.1650 -0.3393  1.1438
  775TIP3    H2 2332   3.114   1.650   3.986  1.1214  0.2285  0.7794
  776TIP3   OH2 2333   2.074   5.200   4.066 -0.0199 -0.1039 -0.2164
  776TIP3    H1 2334   2.110   5.112   4.053 -2.5690 -1.1937 -0.4684
  776TIP3    H2 2335   2.119   5.232   4.144  2.2595 -0.8642 -1.1284
  777TIP3   OH2 2336   6.342   4.962   3.217 -0.7318 -0.9073  0.3175
  777TIP3    H1 2337   6.282   4.999   3.153 -0.7479 -0.4585  0.5876
  777TIP3    H2 2338   6.356   4.872   3.188  2.2842  0.3166 -2.5285
  778TIP3   OH2 2339   2.874   2.382   3.106 -0.0619 -0.1510 -0.3962
  778TIP3    H1 2340   2.846   2.317   3.171 -2.2289  1.5198  0.4740
  778TIP3    H2 2341   2.808   2.377   3.037 -0.2404  1.0784 -0.3277
  779TIP3   OH2 2342   2.497   5.385   2.259  0.1714 -0.0271  0.2224
  779TIP3    H1 2343   2.428   5.419   2.316 -1.8067 -0.5657 -1.7246
  779TIP3    H2 2344   2.513   5.296   2.292 -0.6532 -0.1899  0.2031
  780TIP3   OH2 2345   3.775   5.389   0.041 -0.2685 -0.1020 -0.0041
  780TIP3    H1 2346   3.843   5.371   0.107 -0.1236 -0.9809 -0.3774
  780TIP3    H2 2347   3.693   5.374   0.087 -0.1829 -0.0721  0.1596
  781TIP3   OH2 2348   1.902   3.987   4.577  0.8205  0.3107  0.3006
  781TIP3    H1 2349   1.991   4.015   4.556  1.3518 -0.6160  1.2356
  781TIP3    H2 2350   1.869   3.949   4.496  1.3003  0.5866 -0.0302
  782TIP3   OH2 2351   3.918   2.219   0.894  0.0210 -0.0581 -0.6670
  782TIP3    H1 2352   3.834   2.242   0.932  0.8561  0.8043  0.7601
  782TIP3    H2 2353   3.911   2.244   0.802 -1.1700  0.2761 -0.4997
  783TIP3   OH2 2354   3.434   0.033   1.839 -0.4537  0.3437 -0.4972
  783TIP3    H1 2355   3.473   0.116   1.812 -0.6775  1.1748  1.4862
  783TIP3    H2 2356   3.505  -0.031   1.831  0.0388  0.9455 -1.0383
  784TIP3   OH2 2357   6.379   2.747   2.654 -0.1621  0.0486  0.0405
  784TIP3    H1 2358   6.387   2.655   2.629  0.9666 -0.4304  2.0364
  784TIP3    H2 2359   6.292   2.754   2.693 -0.3055 -0.1277 -0.2462
  785TIP3   OH2 2360   0.517   3.789   0.244  0.4347  0.0302 -0.1371
  785TIP3    H1 2361   0.571   3.865   0.224 -0.3257  1.0352  1.4227
  785TIP3    H2 2362   0.561   3.716   0.200  3.3735  0.6730  1.4947
  786TIP3   OH2 2363   6.116   2.107   2.916  0.0955  0.1006 -0.1656
  786TIP3    H1 2364   6.087   2.195   2.943  0.7855  0.2948 -0.0366
  786TIP3    H2 2365   6.094   2.051   2.990 -0.3817  0.1547 -0.2613
  787TIP3   OH2 2366   1.249   0.745   4.356  0.4483 -0.2434 -0.5334
  787TIP3    H1 2367   1.163   0.704   4.366 -0.5620  1.9036  0.3183
  787TIP3    H2 2368   1.237   0.835   4.388  3.4452 -0.3317  1.2587
  788TIP3   OH2 2369   2.419   3.141   4.580 -0.3385 -0.0605  0.7642
  788TIP3    H1 2370   2.482   3.070   4.572 -0.6190 -0.4476  1.8861
  788TIP3    H2 2371   2.348   3.105   4.633 -0.5410  1.0117  1.2484
  789TIP3   OH2 2372   0.675   3.152   4.481  0.1859 -0.2693  0.3277
  789TIP3    H1 2373   0.695   3.213   4.410  0.3774  0.2447  0.8263
  789TIP3    H2 2374   0.711   3.068   4.450 -1.4222 -0.5217 -1.0510
  790TIP3   OH2 2375   5.981   0.661   2.179 -0.3047  1.0238 -0.2372
  790TIP3    H1 2376   6.051   0.726   2.190 -0.1339  0.8173 -0.0923
  790TIP3    H2 2377   6.026   0.584   2.142 -0.4305  0.8396 -0.0046
  791TIP3   OH2 2378   2.862   1.728   1.522 -0.3927 -0.0989 -0.1110
  791TIP3    H1 2379   2.877   1.790   1.450 -1.5435  0.2670 -0.0501
  791TIP3    H2 2380   2.936   1.668   1.517 -0.8863 -0.6094 -2.1680
  792TIP3   OH2 2381   4.999   2.541   0.093  0.1057 -0.6106 -0.1594
  792TIP3    H1 2382   4.968   2.631   0.101  1.3988 -0.2622  1.2538
  792TIP3    H2 2383   4.922   2.487   0.110 -1.0058  0.1734 -2.3297
  793TIP3   OH2 2384   6.309   2.288   1.202 -0.6252 -0.8446  0.0144
  793TIP3    H1 2385   6.325   2.274   1.296  1.8589  0.2019 -0.1708
  793TIP3    H2 2386   6.244   2.358   1.199 -1.0601 -1.1916  0.9478
  794TIP3   OH2 2387   3.994   1.018   1.973  0.0317  0.5706  0.0839
  794TIP3    H1 2388   4.031   1.102   1.947 -0.4888  0.7590 -0.0542
  794TIP3    H2 2389   3.939   1.039   2.049 -1.5892  0.6837 -1.0687
  795TIP3   OH2 2390   1.402   1.980   1.317  0.0961  0.0915 -0.5264
  795TIP3    H1 2391   1.456   1.911   1.278 -0.0776 -0.0747 -0.4743
  795TIP3    H2 2392   1.350   1.935   1.383 -0.3627  0.1868 -0.8182
  796TIP3   OH2 2393   3.987   4.744   4.064  0.0743 -0.0634  0.4198
  796TIP3    H1 2394   4.048   4.671   4.049 -0.7549 -0.5035 -1.1085
  796TIP3    H2 2395   3.904   4.712   4.029 -0.3979  1.4711  0.0691
  797TIP3   OH2 2396   1.008   4.355   4.354  0.8006  0.0627 -0.3350
  797TIP3    H1 2397   1.072   4.299   4.310  0.9347  0.2199 -0.3384
  797TIP3    H2 2398   1.054   4.437   4.369  0.9154 -0.1429  0.5250
  798TIP3   OH2 2399   1.357   2.275   0.074  0.5456 -0.1768 -0.3645
  798TIP3    H1 2400   1.405   2.295   0.154  1.0620 -1.7801 -0.2422
  798TIP3    H2 2401   1.274   2.237   0.105  0.7492 -0.8053 -0.5861
  799TIP3   OH2 2402   2.305   0.590   2.863  0.5450 -0.9077  0.3833
  799TIP3    H1 2403   2.283   0.649   2.935 -0.4014  0.0851 -0.6705
  799TIP3    H2 2404   2.385   0.627   2.825  0.7129 -1.0898  0.5597
  800TIP3   OH2 2405   3.658   5.760   0.720 -0.4705 -0.2772 -0.0528
  800TIP3    H1 2406   3.565   5.762   0.696 -1.0838 -0.2131  2.1269
  800TIP3    H2 2407   3.680   5.852   0.735  0.1689 -0.2173 -1.2014
  801TIP3   OH2 2408   6.138   3.090   1.245  0.0088  0.0291  0.8988
  801TIP3    H1 2409   6.162   3.031   1.174  1.3131  1.7672 -0.1672
  801TIP3    H2 2410   6.042   3.088   1.247 -0.0065 -0.8478 -0.1974
  802TIP3   OH2 2411   4.419   3.214   1.841 -0.1765  0.5223 -0.8402
  802TIP3    H1 2412   4.398   3.217   1.934  0.2005 -0.5029 -0.7039
  802TIP3    H2 2413   4.514   3.214   1.837 -0.1644  2.4301 -1.3319
  803TIP3   OH2 2414   5.328   1.885   0.153 -0.5811  0.2092  0.2214
  803TIP3    H1 2415   5.371   1.877   0.238  0.1519  2.7883  0.1832
  803TIP3    H2 2416   5.356   1.807   0.105  1.3637  0.1224  1.3718
  804TIP3   OH2 2417   3.975   0.485   2.901  0.9010  0.0129  0.2641
  804TIP3    H1 2418   4.010   0.432   2.829  1.4224 -1.5425  1.6037
  804TIP3    H2 2419   4.043   0.550   2.918  1.0519 -0.0100 -0.2202
  805TIP3   OH2 2420   1.839   5.556   4.302 -0.7121 -0.1758  0.3822
  805TIP3    H1 2421   1.851   5.577   4.394  1.7751  0.3700  0.0184
  805TIP3    H2 2422   1.834   5.460   4.299 -0.2054 -0.2293  1.0512
  806TIP3   OH2 2423   4.173   3.541   0.515  0.2590 -0.3073 -0.1515
  806TIP3    H1 2424   4.130   3.574   0.594 -2.0701 -2.8641 -0.2320
  806TIP3    H2 2425   4.169   3.615   0.454 -2.2059  0.2356  0.5656
  807TIP3   OH2 2426   5.139   5.342   5.040 -0.3085 -0.1189 -0.3378
  807TIP3    H1 2427   5.147   5.379   4.952 -0.7280  0.3887 -0.1665
  807TIP3    H2 2428   5.168   5.412   5.098 -0.2730 -0.3666 -0.0578
  808TIP3   OH2 2429  -0.007   4.073   3.766  0.2110  0.1328 -0.0734
  808TIP3    H1 2430  -0.054   4.037   3.842  0.5346 -0.1042  0.0140
  808TIP3    H2 2431   0.082   4.086   3.796  0.5334 -0.7051 -0.6425
  809TIP3   OH2 2432   5.079   5.259   0.701 -0.2715  0.4723 -0.1877
  809TIP3    H1 2433   5.140   5.226   0.635  1.1418  0.3744  1.1212
  809TIP3    H2 2434   5.030   5.328   0.656  0.7982  0.5474 -1.2947
  810TIP3   OH2 2435   1.490   1.145   3.320  0.0471  0.8283  0.5214
  810TIP3    H1 2436   1.431   1.202   3.271  2.0683  0.6408 -2.3998
  810TIP3    H2 2437   1.507   1.192   3.401 -1.7852  2.2307  0.1629
  811TIP3   OH2 2438   0.068   2.226   0.249  0.4963 -0.0623  0.4513
  811TIP3    H1 2439   0.085   2.308   0.296 -0.0963 -0.3692  1.2261
  811TIP3    H2 2440  -0.021   2.236   0.217  0.9256  0.1783 -0.7085
  812TIP3   OH2 2441   2.306   3.919   1.164  0.3615 -0.6209 -0.6262
  812TIP3    H1 2442   2.352   3.949   1.242  0.1659 -1.0754 -0.3257
  812TIP3    H2 2443   2.354   3.841   1.136 -0.7293 -1.6344  0.2227
  813TIP3   OH2 2444   3.321   3.468   4.915  0.0082 -0.5436 -0.4395
  813TIP3    H1 2445   3.381   3.485   4.843  1.1985 -2.0045  0.1627
  813TIP3    H2 2446   3.298   3.555   4.948  1.1563  0.0720 -1.1910
  814TIP3   OH2 2447   3.737   1.843   1.613 -0.0251  0.3320 -0.1117
  814TIP3    H1 2448   3.800   1.908   1.645 -0.5428  1.4438 -1.2622
  814TIP3    H2 2449   3.671   1.838   1.682  1.5173 -1.2847  1.3996
  815TIP3   OH2 2450   3.703   3.971   1.435  0.1740 -0.3318 -0.2654
  815TIP3    H1 2451   3.718   3.941   1.525 -1.4205 -2.4896 -0.6365
  815TIP3    H2 2452   3.773   3.930   1.384  1.6543  1.6554  0.0448
  816TIP3   OH2 2453   3.280   3.899   4.556 -0.0559 -0.1333 -0.1788
  816TIP3    H1 2454   3.201   3.952   4.542 -1.8798 -2.4305  0.6807
  816TIP3    H2 2455   3.335   3.918   4.480 -2.1576  0.3973 -1.6863
  817TIP3   OH2 2456   3.921   0.563   3.637 -0.0937  0.0934  0.0341
  817TIP3    H1 2457   3.875   0.541   3.556 -1.2769  1.2156  0.3756
  817TIP3    H2 2458   4.012   0.575   3.610 -0.3860 -0.0097 -1.0492
  818TIP3   OH2 2459   0.166   4.768   4.509 -0.0236 -0.3400  0.1859
  818TIP3    H1 2460   0.161   4.830   4.581  1.8813 -1.0615  1.0230
  818TIP3    H2 2461   0.238   4.709   4.534  0.6766 -0.6278 -2.2701
  819TIP3   OH2 2462   3.364   1.611   2.327  0.0928  0.1359  0.5120
  819TIP3    H1 2463   3.323   1.560   2.397  0.6764  0.5580  1.1763
  819TIP3    H2 2464   3.441   1.650   2.368 -0.4237  1.6992  0.0659
  820TIP3   OH2 2465   1.661   0.158   2.748 -0.1460 -0.6011  0.9524
  820TIP3    H1 2466   1.651   0.253   2.741  0.4974 -0.5414  0.7226
  820TIP3    H2 2467   1.692   0.131   2.662 -0.2820 -1.0130  1.0323
  821TIP3   OH2 2468   4.393   1.954   3.786 -0.3525 -0.1036  0.0231
  821TIP3    H1 2469   4.331   1.894   3.744 -1.1593  0.6308  0.1415
  821TIP3    H2 2470   4.340   2.006   3.846  0.3368  0.6992 -0.0356
  822TIP3   OH2 2471   4.592   1.028   1.209 -0.1175  0.1085  0.0669
  822TIP3    H1 2472   4.680   1.030   1.247  0.1455  1.3664 -0.5776
  822TIP3    H2 2473   4.544   1.097   1.256 -0.7146 -0.4360  0.2758
  823TIP3   OH2 2474   3.354   5.960   4.612  0.3536  0.2942  0.0256
  823TIP3    H1 2475   3.369   5.927   4.523  0.3066 -0.9300  0.4430
  823TIP3    H2 2476   3.417   6.031   4.622  2.3981 -1.3946 -0.0492
  824TIP3   OH2 2477   1.448   5.686   0.863  0.5364  0.1674  0.2436
  824TIP3    H1 2478   1.474   5.594   0.871  0.0506 -0.0238 -0.3253
  824TIP3    H2 2479   1.529   5.733   0.843  1.0363  0.0634  1.8497
  825TIP3   OH2 2480   2.557   1.835   0.033  0.6409 -0.7882 -0.1490
  825TIP3    H1 2481   2.587   1.919   0.068 -0.7630 -0.0571 -0.6192
  825TIP3    H2 2482   2.570   1.773   0.105 -0.8684  0.3917  1.2276
  826TIP3   OH2 2483   2.071   1.338   0.330 -0.2960  0.2290  0.3499
  826TIP3    H1 2484   2.038   1.332   0.420  0.9662 -0.0389  0.8116
  826TIP3    H2 2485   2.073   1.431   0.312  0.3230  0.3328  0.9384
  827TIP3   OH2 2486   5.026   4.044   2.804  0.2132 -0.4224 -0.3034
  827TIP3    H1 2487   5.119   4.046   2.782  0.2145 -0.2856 -0.2894
  827TIP3    H2 2488   4.987   4.114   2.752  0.2007 -0.1575  0.0572
  828TIP3   OH2 2489   4.152   0.056   3.427 -0.2600  0.6511 -0.1109
  828TIP3    H1 2490   4.067   0.074   3.385 -0.8319  2.2467  1.6117
  828TIP3    H2 2491   4.214   0.113   3.380 -0.4812  0.8257 -0.1961
  829TIP3   OH2 2492   4.278   5.738   4.408 -0.0749  0.3583 -0.1245
  829TIP3    H1 2493   4.300   5.817   4.358  0.9122  1.0332  1.3258
  829TIP3    H2 2494   4.358   5.718   4.456 -0.1003 -1.9257 -0.9420
  830TIP3   OH2 2495   2.993   2.933   1.178 -0.1041 -0.5036  0.9214
  830TIP3    H1 2496   3.064   2.992   1.150 -1.4154  1.1100  0.8237
  830TIP3    H2 2497   3.004   2.855   1.124 -0.3150  1.0360 -1.5015
  831TIP3   OH2 2498   5.339   0.801   2.662  0.3642 -0.1648  0.0922
  831TIP3    H1 2499   5.272   0.734   2.673  0.7415 -0.2883  2.0451
  831TIP3    H2 2500   5.290   0.884   2.664  0.3135 -0.1539  3.2870
  832TIP3   OH2 2501   0.545   3.206   1.659 -0.2377 -0.1001 -0.7135
  832TIP3    H1 2502   0.459   3.182   1.693 -0.7688  1.5156 -0.8545
  832TIP3    H2 2503   0.552   3.300   1.674  0.9808  0.0304 -1.8803
  833TIP3   OH2 2504   1.153   0.983   4.065 -0.1445  0.4053 -0.0326
  833TIP3    H1 2505   1.117   1.033   3.991  0.0223  0.4125 -0.1101
  833TIP3    H2 2506   1.220   1.041   4.101  0.7672 -0.1799 -0.7553
  834TIP3   OH2 2507   1.387   3.464   2.022  0.3707 -0.6365 -0.3170
  834TIP3    H1 2508   1.461   3.406   2.003  2.0772  1.1712  0.3961
  834TIP3    H2 2509   1.316   3.405   2.046  1.6754 -2.4574 -0.6909
  835TIP3   OH2 2510   1.665   5.928   1.111 -0.3968  0.2079 -0.0952
  835TIP3    H1 2511   1.680   5.848   1.061  1.6447  0.1553  0.4936
  835TIP3    H2 2512   1.657   5.899   1.201 -0.9497  0.5628 -0.0264
  836TIP3   OH2 2513   3.170   4.311   0.386  0.3075 -0.8393 -0.2398
  836TIP3    H1 2514   3.265   4.319   0.385  0.2023  0.9247 -1.3802
  836TIP3    H2 2515   3.148   4.290   0.476  1.6854  0.2378  0.3767
  837TIP3   OH2 2516   1.993   0.919   1.111  0.8980 -1.0214  1.2004
  837TIP3    H1 2517   2.014   0.849   1.049  0.5491 -0.1128  0.0050
  837TIP3    H2 2518   2.077   0.961   1.129  0.6428  0.8821 -1.4322
  838TIP3   OH2 2519   6.100   5.815   2.465  0.1004  0.8115 -0.1511
  838TIP3    H1 2520   6.031   5.777   2.412 -0.6974  1.4097  0.4376
  838TIP3    H2 2521   6.123   5.747   2.528 -0.6302  0.9471  0.2667
  839TIP3   OH2 2522   1.588   2.634   5.137 -0.1581 -0.0214  0.1678
  839TIP3    H1 2523   1.515   2.633   5.074  0.6167  0.4280 -0.7672
  839TIP3    H2 2524   1.598   2.543   5.163 -0.2301 -0.2837 -0.6829
  840TIP3   OH2 2525   1.675   5.772   4.255 -0.8553 -0.0050  0.5735
  840TIP3    H1 2526   1.692   5.677   4.255  0.9660  0.1452 -2.7332
  840TIP3    H2 2527   1.716   5.804   4.335 -0.3939 -1.8725  1.1366
  841TIP3   OH2 2528   1.324   0.320   3.330 -0.1302  0.5306  0.4298
  841TIP3    H1 2529   1.341   0.413   3.318  1.0927  0.3374  0.5099
  841TIP3    H2 2530   1.289   0.313   3.419 -2.6786  1.1735 -0.4304
  842TIP3   OH2 2531   3.928   4.979   4.453  0.4497  0.1265 -0.3926
  842TIP3    H1 2532   3.953   4.896   4.413  0.8034 -1.1412  2.2513
  842TIP3    H2 2533   3.861   4.955   4.517  0.4509  1.8961  0.3221
  843TIP3   OH2 2534   3.702   5.243   5.117  0.5204  0.7405  0.0872
  843TIP3    H1 2535   3.756   5.226   5.194  0.5413  2.2901  0.4624
  843TIP3    H2 2536   3.614   5.257   5.152 -0.5154 -3.0082 -0.6256
  844TIP3   OH2 2537   1.541   2.618   4.714  0.6792 -0.1210  0.6839
  844TIP3    H1 2538   1.546   2.699   4.765 -0.0869  0.9342 -0.8415
  844TIP3    H2 2539   1.462   2.628   4.661  0.9769 -1.5455 -0.0775
  845TIP3   OH2 2540   0.140   0.906   3.511 -0.4636  0.5275  0.4947
  845TIP3    H1 2541   0.145   0.979   3.573  1.3967 -0.5866  1.7582
  845TIP3    H2 2542   0.138   0.828   3.566  1.1014 -0.4993 -0.7993
  846TIP3   OH2 2543   5.548   5.562   5.139  0.1191  0.2074 -1.0193
  846TIP3    H1 2544   5.455   5.551   5.156  0.3256 -0.2617 -0.1229
  846TIP3    H2 2545   5.566   5.654   5.160 -0.5815  0.9693 -3.4687
  847TIP3   OH2 2546   5.969   4.976   1.723 -0.4990 -0.0258  0.1539
  847TIP3    H1 2547   6.044   4.979   1.663  0.6412  0.5433  1.5294
  847TIP3    H2 2548   5.925   5.059   1.711 -1.1483 -0.5088 -0.9224
  848TIP3   OH2 2549   0.287   1.101   5.201 -0.2474  0.1141  0.5556
  848TIP3    H1 2550   0.343   1.033   5.164 -0.8095  0.6747 -1.4242
  848TIP3    H2 2551   0.322   1.182   5.166 -1.8942  0.5229 -0.1968
  849TIP3   OH2 2552   6.174   0.945   0.740  0.7217 -0.1632 -0.2747
  849TIP3    H1 2553   6.168   0.874   0.803 -0.4364  0.3429  0.2173
  849TIP3    H2 2554   6.268   0.958   0.726  0.9538 -1.7215 -0.3227
  850TIP3   OH2 2555   0.985   3.500   3.328 -0.4179 -0.4458  0.1477
  850TIP3    H1 2556   1.050   3.455   3.275  0.8022  0.0865  1.1203
  850TIP3    H2 2557   0.957   3.574   3.274  0.4111 -0.2115  0.0108
  851TIP3   OH2 2558   4.181   1.384   3.549  0.0490 -0.2889  0.0253
  851TIP3    H1 2559   4.092   1.360   3.524 -0.1418 -0.7087  1.0632
  851TIP3    H2 2560   4.193   1.345   3.636  0.8939  0.5946  0.3214
  852TIP3   OH2 2561   1.009   0.727   0.688  0.2917  0.4894 -0.0408
  852TIP3    H1 2562   1.046   0.674   0.617 -1.9595 -1.4323  0.0748
  852TIP3    H2 2563   0.967   0.800   0.643  0.4498  0.2754 -0.5536
  853TIP3   OH2 2564   3.765   0.573   0.164  0.5923  0.0927  0.4627
  853TIP3    H1 2565   3.761   0.479   0.182 -0.3543 -0.1943 -1.1194
  853TIP3    H2 2566   3.792   0.579   0.072 -0.0576  1.3385  0.3319
  854TIP3   OH2 2567   0.715   2.859   3.555  0.3377 -0.1435  0.2862
  854TIP3    H1 2568   0.646   2.810   3.511 -0.7274  1.5117  0.0609
  854TIP3    H2 2569   0.757   2.794   3.612 -1.1026 -1.2857  0.0982
  855TIP3   OH2 2570   4.752   3.554   0.347 -0.5888 -0.4821 -0.3255
  855TIP3    H1 2571   4.671   3.515   0.379 -0.9935  0.4477 -0.2103
  855TIP3    H2 2572   4.798   3.582   0.426 -0.9417  0.5388 -0.4774
  856TIP3   OH2 2573   5.702   4.363   3.595  0.0784  0.3483  0.3802
  856TIP3    H1 2574   5.631   4.403   3.545 -0.9408 -1.3942  0.3370
  856TIP3    H2 2575   5.737   4.434   3.648 -0.6655  1.6067 -0.7469
  857TIP3   OH2 2576   0.560   3.177   2.652 -0.3100  0.4630 -0.1096
  857TIP3    H1 2577   0.483   3.207   2.700 -1.3853  1.6551 -2.4050
  857TIP3    H2 2578   0.530   3.099   2.605  0.1341  0.4064 -0.3020
  858TIP3   OH2 2579   2.680   0.111   3.282 -0.1368  0.1494  0.2281
  858TIP3    H1 2580   2.625   0.160   3.342 -1.3725  0.1905 -0.8824
  858TIP3    H2 2581   2.698   0.029   3.327 -1.5970 -0.0986  0.4204
  859TIP3   OH2 2582   1.231   2.782   1.645 -0.0809 -0.2552  0.3515
  859TIP3    H1 2583   1.270   2.818   1.724  0.1096  1.0193 -0.2936
  859TIP3    H2 2584   1.143   2.818   1.642  0.5468  1.3069 -0.9789
  860TIP3   OH2 2585   5.097   1.438   4.019 -0.7700 -0.3760  0.3933
  860TIP3    H1 2586   5.027   1.449   3.955 -0.6118  0.1683  0.3106
  860TIP3    H2 2587   5.134   1.526   4.030  0.6983 -0.8579 -0.4626
  861TIP3   OH2 2588   1.710   4.352   4.656 -0.2332 -0.0047 -0.3326
  861TIP3    H1 2589   1.737   4.342   4.748  2.3410 -0.2949 -1.0475
  861TIP3    H2 2590   1.616   4.367   4.661 -0.3506 -0.9836  2.3025
  862TIP3   OH2 2591   2.671   3.365   0.435  0.3192 -0.2119  0.5665
  862TIP3    H1 2592   2.746   3.425   0.436  0.7354 -0.6718 -0.7749
  862TIP3    H2 2593   2.692   3.302   0.367 -2.2695  0.9482 -1.5005
  863TIP3   OH2 2594   5.339   2.035   2.126 -0.1423  0.1287 -0.5794
  863TIP3    H1 2595   5.302   2.042   2.039 -1.1904  1.8809 -0.0319
  863TIP3    H2 2596   5.415   2.092   2.125 -0.8015  1.0410 -0.0465
  864TIP3   OH2 2597   3.167   4.066   4.215  0.4237 -0.0742 -0.1149
  864TIP3    H1 2598   3.163   4.095   4.306  2.4861  0.5878 -0.1959
  864TIP3    H2 2599   3.124   3.981   4.216  0.8277 -0.3052  1.5766
  865TIP3   OH2 2600   1.002   4.341   0.439 -0.7158  0.2876  0.6873
  865TIP3    H1 2601   1.087   4.385   0.441 -0.8052  0.5976 -0.8692
  865TIP3    H2 2602   0.948   4.391   0.500  0.6722 -0.9962  3.0740
  866TIP3   OH2 2603   2.497   4.630   2.560  0.3469 -0.3122 -0.0460
  866TIP3    H1 2604   2.437   4.566   2.524 -1.3264  1.2819 -0.2527
  866TIP3    H2 2605   2.581   4.610   2.519 -0.5919 -1.0782 -1.7044
  867TIP3   OH2 2606   3.981   3.213   3.218  0.4033  0.0303 -0.5836
  867TIP3    H1 2607   4.009   3.265   3.143  1.2904 -0.1441 -0.3817
  867TIP3    H2 2608   3.981   3.123   3.185 -0.0144  0.0376 -0.6066
  868TIP3   OH2 2609   2.513   0.169   4.135 -0.3326  0.1833 -0.5324
  868TIP3    H1 2610   2.541   0.201   4.220 -0.2221 -1.3927  0.0577
  868TIP3    H2 2611   2.588   0.119   4.102 -0.7154 -0.0190 -1.1188
  869TIP3   OH2 2612   3.607   3.926   2.073  0.3432 -0.7016  0.1984
  869TIP3    H1 2613   3.617   3.854   2.010 -0.4945 -1.6138  1.0726
  869TIP3    H2 2614   3.513   3.943   2.075  0.6381  1.3779 -0.9957
  870TIP3   OH2 2615   0.524   3.161   0.316  0.7847  0.1438  0.3200
  870TIP3    H1 2616   0.460   3.221   0.352  1.5764  1.2548 -0.0845
  870TIP3    H2 2617   0.514   3.081   0.367 -2.3921 -0.5159 -1.0781
  871TIP3   OH2 2618   3.249   3.198   0.253 -0.1724  0.0186 -0.0017
  871TIP3    H1 2619   3.235   3.231   0.164  0.9811  0.5778  0.0120
  871TIP3    H2 2620   3.268   3.105   0.241  0.2109  0.1406 -0.3553
  872TIP3   OH2 2621   4.124   4.295   3.251 -0.0837  0.0094  1.0059
  872TIP3    H1 2622   4.212   4.269   3.224  0.7632  2.1138  1.5634
  872TIP3    H2 2623   4.083   4.331   3.172  0.0983  0.3700  1.0742
  873TIP3   OH2 2624   3.197   2.488   3.537 -0.5428  0.2251  0.2436
  873TIP3    H1 2625   3.138   2.451   3.472  0.2759  0.8653 -0.8959
  873TIP3    H2 2626   3.284   2.483   3.496 -0.0928  1.1798  1.0411
  874TIP3   OH2 2627   5.205   3.945   1.256 -0.0536  0.3124 -0.0794
  874TIP3    H1 2628   5.165   4.025   1.290 -0.8129 -0.3896  0.7233
  874TIP3    H2 2629   5.212   3.960   1.162 -0.9240  1.0100 -0.0450
  875TIP3   OH2 2630   2.726   4.375   0.754 -0.6294 -0.2750 -0.6122
  875TIP3    H1 2631   2.734   4.323   0.834  0.9819  0.2211 -0.4158
  875TIP3    H2 2632   2.648   4.340   0.711 -0.8442 -1.3610  0.5786
  876TIP3   OH2 2633   2.421   5.148   2.793  0.4736 -0.4829  0.6745
  876TIP3    H1 2634   2.411   5.090   2.717  1.0033  0.4191 -0.1190
  876TIP3    H2 2635   2.334   5.151   2.832  0.6333 -2.5140  1.3002
  877TIP3   OH2 2636   4.977   5.181   3.652 -0.4141  0.3810  0.1318
  877TIP3    H1 2637   4.988   5.177   3.557 -0.9794 -0.4531  0.0858
  877TIP3    H2 2638   4.920   5.256   3.667 -1.5991 -0.3768 -0.3407
  878TIP3   OH2 2639   0.824   5.554   3.820  0.0326 -0.0597  0.2303
  878TIP3    H1 2640   0.770   5.633   3.811  0.5236  0.1687 -0.8685
  878TIP3    H2 2641   0.881   5.573   3.894  1.1654  1.2614 -0.9101
  879TIP3   OH2 2642   0.758   1.636   3.875  0.2989 -0.3996 -0.0806
  879TIP3    H1 2643   0.849   1.608   3.882  0.5063  0.0931 -0.6528
  879TIP3    H2 2644   0.720   1.579   3.809  0.5112  0.1267 -0.6747
  880TIP3   OH2 2645   0.613   3.550   1.023 -0.2910 -0.3155 -0.2215
  880TIP3    H1 2646   0.568   3.611   0.964 -2.0673 -0.5361  0.8380
  880TIP3    H2 2647   0.628   3.472   0.969 -1.2035 -0.2385 -0.6105
  881TIP3   OH2 2648   3.311   2.161   3.589  0.5592  0.4436 -0.0336
  881TIP3    H1 2649   3.331   2.216   3.665  0.4588 -1.2875  1.3077
  881TIP3    H2 2650   3.388   2.168   3.533  2.3666 -1.1496  2.0547
  882TIP3   OH2 2651   0.480   1.864   3.206  0.3245 -0.8086 -0.6759
  882TIP3    H1 2652   0.526   1.911   3.276  0.3745 -0.9795 -0.5932
  882TIP3    H2 2653   0.542   1.864   3.133  1.1784 -2.5344 -0.0199
  883TIP3   OH2 2654   1.189   2.961   2.627  0.4532  0.6314  0.7611
  883TIP3    H1 2655   1.112   3.010   2.599  1.1042  0.8299 -0.7622
  883TIP3    H2 2656   1.153   2.879   2.662 -0.4746  0.9458  0.5749
  884TIP3   OH2 2657   3.519   1.355   2.981 -0.2192  0.2861 -0.2875
  884TIP3    H1 2658   3.605   1.372   3.019  0.0439 -1.0351 -0.2689
  884TIP3    H2 2659   3.483   1.443   2.965  0.8204  0.8574  0.3689
  885TIP3   OH2 2660   3.742   5.099   0.740  0.3776 -0.1198  0.1239
  885TIP3    H1 2661   3.796   5.028   0.776  0.0609  0.5090  1.9211
  885TIP3    H2 2662   3.652   5.067   0.747  0.2662  0.2738  0.5010
  886TIP3   OH2 2663   1.175   5.182   3.567  0.0219 -0.1580  0.2300
  886TIP3    H1 2664   1.225   5.251   3.523  1.9429 -1.2735  0.5346
  886TIP3    H2 2665   1.178   5.206   3.660  0.7097 -0.6144  0.3389
  887TIP3   OH2 2666   2.432   2.389   1.224  0.0512 -0.2558 -0.1745
  887TIP3    H1 2667   2.386   2.472   1.224 -0.2661 -0.4285 -0.2398
  887TIP3    H2 2668   2.467   2.381   1.135 -0.5448 -0.5309 -0.3878
  888TIP3   OH2 2669   0.275   5.845   3.955 -0.2282  0.3022 -0.1295
  888TIP3    H1 2670   0.211   5.898   4.003 -0.0705  0.3173  0.0626
  888TIP3    H2 2671   0.233   5.760   3.945  0.1188  0.0131  0.8541
  889TIP3   OH2 2672   3.767   0.522   2.376  0.4655 -0.3394  0.0971
  889TIP3    H1 2673   3.772   0.572   2.295  1.5462 -0.8115 -0.1452
  889TIP3    H2 2674   3.743   0.433   2.348  0.0065 -0.3075  0.3789
  890TIP3   OH2 2675   5.743   2.885   0.627  0.1269  0.6936 -0.1627
  890TIP3    H1 2676   5.757   2.799   0.666  1.3943  0.9284 -0.0369
  890TIP3    H2 2677   5.661   2.877   0.578 -0.7907  0.0011  1.4315
  891TIP3   OH2 2678   2.855   2.105   3.792  0.2468 -0.1226 -0.2377
  891TIP3    H1 2679   2.945   2.090   3.820  1.0501 -1.5464 -3.2070
  891TIP3    H2 2680   2.862   2.153   3.710 -1.7554  0.5460 -0.0729
  892TIP3   OH2 2681   2.449   5.838   3.040  0.0142 -0.2223 -0.0553
  892TIP3    H1 2682   2.448   5.857   2.947  0.7132  1.0357  0.1722
  892TIP3    H2 2683   2.369   5.876   3.074  0.3347  0.3880  0.0362
  893TIP3   OH2 2684   2.836   3.765   1.944 -0.4871 -0.5405 -0.1293
  893TIP3    H1 2685   2.831   3.853   1.906  0.8443 -1.0609 -1.6362
  893TIP3    H2 2686   2.759   3.719   1.909 -1.0024 -0.0806  0.3922
  894TIP3   OH2 2687   4.527   2.796   1.098  0.3197 -0.2780 -0.0153
  894TIP3    H1 2688   4.488   2.879   1.069 -1.0708 -0.0086  2.3541
  894TIP3    H2 2689   4.510   2.735   1.026 -0.2364  1.0182 -1.0382
  895TIP3   OH2 2690   3.704   2.931   0.359  0.1562  0.2032 -0.3607
  895TIP3    H1 2691   3.648   3.005   0.382 -1.4043 -0.8807 -0.5874
  895TIP3    H2 2692   3.679   2.862   0.420  1.4135 -0.2399 -0.3241
  896TIP3   OH2 2693   6.108   3.933   3.853  0.0117 -0.3289  0.0367
  896TIP3    H1 2694   6.056   3.856   3.877  0.2448 -0.2498  0.8225
  896TIP3    H2 2695   6.106   3.988   3.931 -1.5980  1.2881 -1.0664
  897TIP3   OH2 2696   5.245   4.939   4.308  0.4031 -0.0124 -0.0848
  897TIP3    H1 2697   5.256   4.964   4.216  1.1462  0.3267  0.0813
  897TIP3    H2 2698   5.152   4.918   4.317  0.6332 -1.6520 -1.2931
  898TIP3   OH2 2699   5.911   3.754   3.475  0.0867 -0.2128 -0.2842
  898TIP3    H1 2700   5.895   3.673   3.524  0.1549  0.3487  0.6889
  898TIP3    H2 2701   5.927   3.820   3.542 -3.8503  1.5364 -0.7445
  899TIP3   OH2 2702   2.506   4.367   2.027  0.1293 -0.2795 -0.3000
  899TIP3    H1 2703   2.492   4.440   1.966 -0.1221  0.5383  0.7133
  899TIP3    H2 2704   2.600   4.352   2.024  0.0713 -0.5406 -1.2097
  900TIP3   OH2 2705   1.122   2.288   2.865 -0.4046  0.4780 -0.0469
  900TIP3    H1 2706   1.149   2.321   2.951  1.2793  1.3929 -0.8646
  900TIP3    H2 2707   1.135   2.193   2.871 -0.5550  0.5038  0.7809
  901TIP3   OH2 2708   4.200   5.369   4.430  0.4641  0.0827  0.0972
  901TIP3    H1 2709   4.249   5.418   4.364  1.7476  0.6304  1.3909
  901TIP3    H2 2710   4.213   5.277   4.406  1.1317  0.2627 -0.2751
  902TIP3   OH2 2711   6.276   5.061   4.925 -0.8798  0.5215 -0.1306
  902TIP3    H1 2712   6.201   5.009   4.956 -1.4365  1.9623  1.0191
  902TIP3    H2 2713   6.353   5.013   4.955 -1.3790  0.1249  0.5335
  903TIP3   OH2 2714   1.427   1.126   1.513 -0.1435  0.8219 -0.5199
  903TIP3    H1 2715   1.500   1.079   1.473 -0.4788 -0.9919  0.8492
  903TIP3    H2 2716   1.452   1.134   1.606 -0.7395  2.1593 -0.4420
  904TIP3   OH2 2717   4.566   2.973   1.538 -0.8232  0.3427  0.5631
  904TIP3    H1 2718   4.525   2.906   1.483  1.2186 -0.2115 -0.3743
  904TIP3    H2 2719   4.650   2.934   1.564  0.3979  2.4880  0.0439
  905TIP3   OH2 2720   3.635   5.910   3.485 -0.3272 -0.4895 -0.5713
  905TIP3    H1 2721   3.556   5.956   3.459  0.4744  0.2021 -1.8796
  905TIP3    H2 2722   3.659   5.858   3.408 -0.7650 -2.5292  0.5904
  906TIP3   OH2 2723   2.292   3.059   3.534  0.0412  0.3092 -0.0709
  906TIP3    H1 2724   2.199   3.082   3.533  0.0799  0.4579 -1.1301
  906TIP3    H2 2725   2.319   3.070   3.625 -0.9734  0.2837  0.2412
  907TIP3   OH2 2726   4.532   1.670   3.619 -0.2124  0.1514  0.4120
  907TIP3    H1 2727   4.452   1.681   3.567 -0.4958  0.9436  1.0069
  907TIP3    H2 2728   4.528   1.579   3.649 -1.9482  0.7004  2.0932
  908TIP3   OH2 2729   2.629   5.252   5.138 -0.6435 -0.5097 -0.2660
  908TIP3    H1 2730   2.604   5.246   5.231 -1.0677 -1.6842 -0.4411
  908TIP3    H2 2731   2.664   5.166   5.117 -0.4454 -0.2148 -1.1726
  909TIP3   OH2 2732   0.876   3.780   1.400 -0.6352  0.1741 -0.0691
  909TIP3    H1 2733   0.971   3.787   1.407 -0.5476 -0.0589 -0.9575
  909TIP3    H2 2734   0.858   3.789   1.307 -1.5013  0.3888  0.1128
  910TIP3   OH2 2735   2.057   5.860   1.601 -1.0067  0.5295 -0.5601
  910TIP3    H1 2736   2.102   5.863   1.516 -2.0339  1.7314 -1.1072
  910TIP3    H2 2737   2.079   5.944   1.642  0.4656 -0.5333  0.9314
  911TIP3   OH2 2738   2.824   3.328   4.266  0.5593  0.1490 -0.1213
  911TIP3    H1 2739   2.899   3.385   4.251 -0.1428  0.7822 -1.3862
  911TIP3    H2 2740   2.774   3.333   4.185 -0.6918 -0.5053  0.5837
  912TIP3   OH2 2741   3.741   3.679   3.503 -0.0260  0.1701 -0.0011
  912TIP3    H1 2742   3.672   3.689   3.568  0.4751 -1.8884  0.9602
  912TIP3    H2 2743   3.709   3.610   3.445  0.0055  1.2363 -1.3303
  913TIP3   OH2 2744   5.395   0.011   3.202  0.0655 -0.1130 -0.0459
  913TIP3    H1 2745   5.403   0.101   3.170  4.0913  0.4205  1.7431
  913TIP3    H2 2746   5.403   0.019   3.297 -3.0781 -2.2326  0.5479
  914TIP3   OH2 2747   2.074   2.830   3.788 -0.0009  0.0736 -0.1248
  914TIP3    H1 2748   2.020   2.806   3.864  1.0673 -1.2107  0.2822
  914TIP3    H2 2749   2.090   2.747   3.743  1.1180  0.5085 -0.5725
  915TIP3   OH2 2750   6.291   4.502   2.305  0.3288  0.6808 -0.6685
  915TIP3    H1 2751   6.324   4.561   2.372 -0.6658  0.2070  0.2609
  915TIP3    H2 2752   6.198   4.524   2.297 -0.1365 -0.9317 -0.0912
  916TIP3   OH2 2753   2.731   1.184   1.456  0.5629  0.0607 -0.7445
  916TIP3    H1 2754   2.752   1.224   1.540  2.3448 -1.0294 -0.6004
  916TIP3    H2 2755   2.636   1.191   1.448  0.4423  0.8509  1.0040
  917TIP3   OH2 2756   4.384   5.223   1.617  0.3082  0.0561  0.4699
  917TIP3    H1 2757   4.351   5.293   1.673  0.6049 -1.6457  2.9005
  917TIP3    H2 2758   4.478   5.220   1.635  0.9209  1.0417 -2.0505
  918TIP3   OH2 2759   2.611   1.260  -0.013 -0.1107  0.0508 -0.2254
  918TIP3    H1 2760   2.526   1.261  -0.057  0.3543 -1.0718 -1.2120
  918TIP3    H2 2761   2.594   1.298   0.073 -1.9241 -1.3832  0.1201
  919TIP3   OH2 2762   6.370   5.646   4.742  0.3526 -0.3569  0.1846
  919TIP3    H1 2763   6.305   5.620   4.807  0.3787 -1.5585 -0.2486
  919TIP3    H2 2764   6.342   5.603   4.661  0.4489  0.9191 -0.5591
  920TIP3   OH2 2765   6.230   4.417   3.988  0.1042  0.2337  0.2066
  920TIP3    H1 2766   6.251   4.380   3.902  1.1342 -2.6586  1.5540
  920TIP3    H2 2767   6.137   4.399   4.000 -0.5031  2.3214 -0.9789
  921TIP3   OH2 2768   6.202   2.092   0.012 -0.4685  0.0994  0.1236
  921TIP3    H1 2769   6.181   1.999   0.003  1.2020 -0.2471 -0.4367
  921TIP3    H2 2770   6.175   2.114   0.101 -0.8873 -0.9070  0.2595
  922TIP3   OH2 2771   3.000   3.930   3.860  0.3563 -0.3864 -0.3806
  922TIP3    H1 2772   3.043   4.015   3.851  0.0646 -0.2672 -0.6752
  922TIP3    H2 2773   3.072   3.868   3.871  0.5423  0.0899  1.6679
  923TIP3   OH2 2774   1.658   4.662   4.648  0.4986  0.1186  0.5878
  923TIP3    H1 2775   1.567   4.656   4.676  0.6517  1.0596  1.3282
  923TIP3    H2 2776   1.681   4.754   4.661  1.2339  0.1189 -0.6252
  924TIP3   OH2 2777   3.091   4.619   1.681  0.2461  0.3881 -0.7755
  924TIP3    H1 2778   3.056   4.608   1.769 -0.8895  0.1633 -1.2414
  924TIP3    H2 2779   3.184   4.637   1.695  0.2043 -0.2130  0.4375
  925TIP3   OH2 2780   0.474   0.207   0.953  0.5008  0.4526  0.6051
  925TIP3    H1 2781   0.523   0.229   1.033  1.6223  1.1128 -0.2349
  925TIP3    H2 2782   0.479   0.111   0.949  3.1825  0.5447 -0.2853
  926TIP3   OH2 2783   3.439   4.525   0.945  0.3920  0.2549 -0.4443
  926TIP3    H1 2784   3.525   4.493   0.974 -0.4445  0.2235  2.2339
  926TIP3    H2 2785   3.376   4.466   0.986 -0.9959 -1.2642 -4.2936
  927TIP3   OH2 2786   2.978   0.958   3.997  0.1623  0.2670 -0.1090
  927TIP3    H1 2787   2.960   0.968   4.090  0.3460  2.1419 -0.2420
  927TIP3    H2 2788   3.034   0.880   3.991 -0.2938 -0.1990  1.2604
  928TIP3   OH2 2789   0.213   2.645   0.905 -0.1869  1.1602 -0.9220
  928TIP3    H1 2790   0.204   2.695   0.986 -1.5701  1.0971 -1.0184
  928TIP3    H2 2791   0.193   2.555   0.930  0.0671  1.0211 -1.2053
  929TIP3   OH2 2792   3.034   4.931   1.860 -0.3023 -0.0959 -0.3499
  929TIP3    H1 2793   3.034   4.953   1.767 -2.2319 -2.2709 -0.9717
  929TIP3    H2 2794   2.965   4.987   1.897 -0.5041 -0.2285 -0.5211
  930TIP3   OH2 2795   3.951   3.377   2.105  0.1928 -0.0252 -0.2350
  930TIP3    H1 2796   3.928   3.285   2.121 -0.3257  0.0903 -0.2859
  930TIP3    H2 2797   3.964   3.414   2.192 -0.0813 -0.0298 -0.1903
  931TIP3   OH2 2798   5.958   0.132   3.578 -0.3230 -0.0939  0.3932
  931TIP3    H1 2799   5.896   0.158   3.509 -1.2819  0.2697  1.3645
  931TIP3    H2 2800   6.043   0.135   3.535 -0.8098  0.9375 -0.5656
  932TIP3   OH2 2801   4.408   5.104   4.017 -0.6087  0.0127  0.5473
  932TIP3    H1 2802   4.488   5.150   4.044  0.0328 -1.2846  0.9556
  932TIP3    H2 2803   4.351   5.173   3.982  0.8094  0.9217 -0.0598
  933TIP3   OH2 2804   4.214   4.070   4.619  0.5273  0.1835 -0.0006
  933TIP3    H1 2805   4.233   3.994   4.674 -0.3183  1.5771  2.3788
  933TIP3    H2 2806   4.295   4.120   4.617  0.8922 -0.4179 -1.0272
  934TIP3   OH2 2807   3.685   5.699   2.951 -0.2618 -0.0113 -0.1893
  934TIP3    H1 2808   3.734   5.674   2.873 -1.4248 -0.4458 -0.7993
  934TIP3    H2 2809   3.694   5.795   2.954  0.3403 -0.0503 -0.4715
  935TIP3   OH2 2810   2.011   3.467   5.103  0.9269  0.0540 -0.1644
  935TIP3    H1 2811   1.968   3.425   5.028  0.5761 -0.4414  0.3055
  935TIP3    H2 2812   2.087   3.510   5.066  0.3927  0.3757 -0.9129
  936TIP3   OH2 2813   1.604   4.672   0.275  0.6105  0.4927  0.0875
  936TIP3    H1 2814   1.554   4.742   0.315 -0.2605  0.1739 -0.4157
  936TIP3    H2 2815   1.662   4.716   0.212  1.2235  0.8904  0.9102
  937TIP3   OH2 2816   1.719   2.715   2.641 -0.3458  0.0994  0.6965
  937TIP3    H1 2817   1.786   2.761   2.590  0.8494 -1.1399  1.0935
  937TIP3    H2 2818   1.636   2.752   2.611  0.4496  0.8659 -0.6349
  938TIP3   OH2 2819   0.433   1.297   0.081  0.4235 -0.1704  0.5441
  938TIP3    H1 2820   0.413   1.203   0.085 -1.8514  0.2913  1.7691
  938TIP3    H2 2821   0.525   1.303   0.109 -0.0260 -1.8953  2.6973
  939TIP3   OH2 2822   1.782   2.647   3.021  0.0950  0.1340 -0.2437
  939TIP3    H1 2823   1.787   2.578   2.955  0.0698  0.1670 -0.2794
  939TIP3    H2 2824   1.865   2.694   3.012 -0.7639  1.4406 -1.6543
  940TIP3   OH2 2825   0.501   1.997   4.423  0.3099 -0.0622 -0.5509
  940TIP3    H1 2826   0.466   2.085   4.413 -1.1816 -0.4584  0.7471
  940TIP3    H2 2827   0.585   2.009   4.468  0.8458  0.7624 -1.7203
  941TIP3   OH2 2828   3.273   3.958   3.548  0.7940  0.2991 -0.1090
  941TIP3    H1 2829   3.338   3.889   3.561 -0.2108 -0.9580 -1.4413
  941TIP3    H2 2830   3.192   3.912   3.528 -0.9112  1.7866  2.7523
  942TIP3   OH2 2831   4.254   0.856   1.571  0.0210 -0.3247  0.3015
  942TIP3    H1 2832   4.263   0.895   1.484  0.4420 -0.8259  0.1176
  942TIP3    H2 2833   4.171   0.810   1.569 -0.1700  0.0163  0.3044
  943TIP3   OH2 2834   3.376   0.717   4.557 -0.2650 -0.0205  0.4355
  943TIP3    H1 2835   3.401   0.789   4.615  0.5156  0.2408 -0.1972
  943TIP3    H2 2836   3.331   0.760   4.484 -1.6961 -0.3948  1.0649
  944TIP3   OH2 2837   0.835   0.643   0.218 -0.0101 -0.0173 -0.4411
  944TIP3    H1 2838   0.761   0.641   0.157  0.2655 -0.2808 -0.7708
  944TIP3    H2 2839   0.869   0.732   0.213  1.1845 -0.5218 -2.0991
  945TIP3   OH2 2840   5.398   1.336   4.308  0.0284  0.0608  0.3229
  945TIP3    H1 2841   5.304   1.325   4.319  0.2068 -2.3049 -0.0835
  945TIP3    H2 2842   5.434   1.327   4.397 -0.0182 -0.3844  0.2960
  946TIP3   OH2 2843   3.902   5.314   1.644  0.3809 -0.0796 -0.1855
  946TIP3    H1 2844   3.989   5.275   1.644  0.6387  0.4130 -1.6956
  946TIP3    H2 2845   3.916   5.407   1.663 -0.0409 -0.3431  1.5527
  947TIP3   OH2 2846   0.434   2.099   1.260 -0.0367  0.4615  0.3451
  947TIP3    H1 2847   0.485   2.096   1.179  0.3579  0.2567  0.6033
  947TIP3    H2 2848   0.343   2.105   1.230  0.1341  0.8616 -0.1138
  948TIP3   OH2 2849   4.790   1.792   1.359 -0.7762 -0.1038 -0.0357
  948TIP3    H1 2850   4.875   1.820   1.326 -0.7741 -1.1826 -1.0350
  948TIP3    H2 2851   4.727   1.833   1.300 -0.7803 -1.8799 -1.3834
  949TIP3   OH2 2852   0.460   4.735   0.331  0.8952  0.0149 -0.6062
  949TIP3    H1 2853   0.448   4.641   0.346  0.3655 -0.0235 -1.2344
  949TIP3    H2 2854   0.373   4.766   0.305  0.3063  1.2603  2.4170
  950TIP3   OH2 2855   3.203   1.867   4.519 -0.3732 -0.6834  0.1151
  950TIP3    H1 2856   3.236   1.780   4.543  0.2298 -0.2205  0.9744
  950TIP3    H2 2857   3.113   1.869   4.552 -0.0482 -0.6076  0.9958
  951TIP3   OH2 2858   0.705   1.480   3.622  0.0550  0.4781 -0.2844
  951TIP3    H1 2859   0.735   1.509   3.535 -0.2019 -0.6446 -0.7701
  951TIP3    H2 2860   0.617   1.515   3.629 -0.8051 -1.2848 -1.4780
  952TIP3   OH2 2861   1.040   3.258   3.906  0.3999 -0.3552  0.0256
  952TIP3    H1 2862   1.110   3.235   3.844  0.3113 -0.4001 -0.0574
  952TIP3    H2 2863   1.043   3.188   3.972 -0.1450 -0.8415 -0.4520
  953TIP3   OH2 2864   4.334   2.576   0.143  0.1485  0.5701 -0.2969
  953TIP3    H1 2865   4.267   2.536   0.088  1.0864 -0.9544 -0.3861
  953TIP3    H2 2866   4.358   2.656   0.097 -0.5929  0.4010 -0.9953
  954TIP3   OH2 2867   5.127   3.115   3.158 -0.0919 -0.0197 -0.1107
  954TIP3    H1 2868   5.043   3.071   3.169 -0.6774  0.8185 -1.0648
  954TIP3    H2 2869   5.133   3.175   3.233  0.4082 -1.1957  0.8290
  955TIP3   OH2 2870   5.084   3.867   2.550  0.5185 -0.1895 -0.2448
  955TIP3    H1 2871   5.102   3.810   2.625 -0.8604  1.9266  1.8803
  955TIP3    H2 2872   5.031   3.814   2.491 -1.0384 -1.0514  1.8061
  956TIP3   OH2 2873   0.979   5.025   1.952  0.1228 -0.0918  0.1154
  956TIP3    H1 2874   0.920   5.101   1.947  0.8147  0.4980  0.5385
  956TIP3    H2 2875   1.039   5.037   1.879  1.0053  0.4584  0.9114
  957TIP3   OH2 2876   1.993   0.638   3.192 -0.0069 -0.3250  0.2401
  957TIP3    H1 2877   1.929   0.708   3.182 -0.4015 -0.6904  0.1740
  957TIP3    H2 2878   1.943   0.557   3.181 -0.0501 -0.7199  2.7809
  958TIP3   OH2 2879   2.772   4.723   1.805  0.2014  0.1818  0.2783
  958TIP3    H1 2880   2.833   4.797   1.802 -0.0677  0.3724 -1.7872
  958TIP3    H2 2881   2.768   4.691   1.715 -0.7359 -1.5166  0.8710
  959TIP3   OH2 2882   3.935   1.228   2.473 -0.1877  0.2466 -0.2727
  959TIP3    H1 2883   3.983   1.275   2.542 -2.0494  1.9161 -0.0341
  959TIP3    H2 2884   3.991   1.236   2.396  1.7726 -1.3407  0.8772
  960TIP3   OH2 2885   2.529   2.440   4.753 -0.3962 -0.8358  0.1287
  960TIP3    H1 2886   2.534   2.361   4.806 -2.0582 -2.4514 -1.9505
  960TIP3    H2 2887   2.573   2.417   4.671 -1.9431 -0.0510 -0.9750
  961TIP3   OH2 2888   5.200   4.047   3.812  0.6508  0.0647  0.7725
  961TIP3    H1 2889   5.233   4.134   3.790  2.2853 -0.3925  1.2565
  961TIP3    H2 2890   5.246   4.024   3.893 -0.2360 -0.9851  0.9967
  962TIP3   OH2 2891   6.348   4.008   2.200  0.3864  0.1692  0.1732
  962TIP3    H1 2892   6.289   3.936   2.179 -0.3040  0.9398 -0.6088
  962TIP3    H2 2893   6.357   4.057   2.118  0.5149  1.1908  0.7777
  963TIP3   OH2 2894   0.135   0.355   0.038  0.5021  0.3849  0.1521
  963TIP3    H1 2895   0.062   0.404   0.000  0.3268 -0.5398 -0.7296
  963TIP3    H2 2896   0.113   0.347   0.131 -0.1047  0.8443  0.0534
  964TIP3   OH2 2897   0.001   4.286   1.197  0.2191  0.5048  0.6582
  964TIP3    H1 2898   0.082   4.303   1.148  0.8834 -1.6622  0.9228
  964TIP3    H2 2899   0.014   4.330   1.281  0.2953  1.7499  0.0300
  965TIP3   OH2 2900   4.666   3.506   1.720 -0.6763  0.7973 -0.1910
  965TIP3    H1 2901   4.696   3.415   1.714  0.4258  0.9786  1.7625
  965TIP3    H2 2902   4.736   3.557   1.679 -0.2007  0.9027  0.7153
  966TIP3   OH2 2903   3.596   2.388   4.936  0.6262 -0.0560  0.0623
  966TIP3    H1 2904   3.629   2.382   4.846 -2.3339  1.0852 -1.2417
  966TIP3    H2 2905   3.505   2.357   4.930 -0.1493  1.5204  2.3383
  967TIP3   OH2 2906   0.023   1.522   4.300 -0.3093  0.4411 -0.2267
  967TIP3    H1 2907  -0.023   1.528   4.216  0.5766  0.0792 -0.7507
  967TIP3    H2 2908   0.105   1.568   4.285  1.2086 -2.1781 -0.5166
  968TIP3   OH2 2909   4.891   2.779   2.574 -0.0085 -0.0040 -0.1262
  968TIP3    H1 2910   4.913   2.872   2.565  0.7018 -0.1696 -0.1755
  968TIP3    H2 2911   4.941   2.735   2.505  0.2479 -0.5051  0.3663
  969TIP3   OH2 2912   2.050   0.528   0.867  0.0433  0.2601 -0.1229
  969TIP3    H1 2913   2.084   0.617   0.863 -0.5034  0.5058  0.5895
  969TIP3    H2 2914   1.987   0.529   0.939  0.6917 -0.9219  0.4990
  970TIP3   OH2 2915   3.986   2.418   4.650  0.6252  0.1208  0.5585
  970TIP3    H1 2916   4.007   2.358   4.579  1.6933  1.3168 -0.1776
  970TIP3    H2 2917   4.015   2.504   4.618 -2.2974  1.3539  0.8706
  971TIP3   OH2 2918   4.978   5.810   0.562  0.4858  0.1747 -0.0235
  971TIP3    H1 2919   5.064   5.804   0.520  0.9439  2.1643  0.5302
  971TIP3    H2 2920   4.932   5.877   0.511 -0.3364 -0.0835  0.3658
  972TIP3   OH2 2921   2.557   5.369   0.599  0.1239  0.3428 -0.0226
  972TIP3    H1 2922   2.625   5.341   0.538  0.1586  0.8932 -0.2416
  972TIP3    H2 2923   2.484   5.397   0.544  0.4175  1.5161  0.1447
  973TIP3   OH2 2924   3.731   2.357   0.742 -0.1521 -0.1847  0.2514
  973TIP3    H1 2925   3.750   2.346   0.649  0.3165  4.8851 -0.5305
  973TIP3    H2 2926   3.638   2.339   0.750 -0.1247 -1.0889 -1.0916
  974TIP3   OH2 2927   4.973   4.616   0.897 -0.3367 -0.4229  0.0706
  974TIP3    H1 2928   4.982   4.585   0.807 -2.8152  2.5113 -1.3876
  974TIP3    H2 2929   4.894   4.573   0.930  0.6858 -1.6571  0.9879
  975TIP3   OH2 2930   1.272   5.763   2.759 -0.0643  0.6457 -0.7273
  975TIP3    H1 2931   1.194   5.796   2.715 -0.2803  0.7143 -0.3016
  975TIP3    H2 2932   1.278   5.671   2.733 -0.2995  0.6356 -0.7475
  976TIP3   OH2 2933   2.120   2.405   0.724 -0.5019  0.3883  0.3463
  976TIP3    H1 2934   2.157   2.477   0.674 -0.3551  0.9837  1.3024
  976TIP3    H2 2935   2.133   2.328   0.668 -1.1078  1.1543 -0.9054
  977TIP3   OH2 2936   5.790   4.171   4.846 -0.2883  0.3847  0.1001
  977TIP3    H1 2937   5.790   4.228   4.923  0.3320 -0.2660  0.5965
  977TIP3    H2 2938   5.870   4.118   4.855  0.1372  0.7366 -1.3254
  978TIP3   OH2 2939   0.462   1.841   1.375  0.8189 -0.0983 -0.3263
  978TIP3    H1 2940   0.381   1.792   1.387  1.1356  0.0083  3.8374
  978TIP3    H2 2941   0.435   1.924   1.337 -0.9223 -0.3545  0.2870
  979TIP3   OH2 2942   1.145   1.570   2.495  0.1277 -0.1276  0.1503
  979TIP3    H1 2943   1.189   1.492   2.530 -0.3470  0.0188  1.0897
  979TIP3    H2 2944   1.189   1.643   2.538  0.5975  0.1397 -0.7582
  980TIP3   OH2 2945   2.043   1.576   4.038  0.4234  0.2846 -0.1877
  980TIP3    H1 2946   2.067   1.598   3.948  0.7191 -1.0222 -0.4558
  980TIP3    H2 2947   2.101   1.503   4.061  0.6544  0.8657  1.2235
  981TIP3   OH2 2948   1.300   1.312   4.379  0.3861  0.0353  0.4224
  981TIP3    H1 2949   1.286   1.290   4.472  1.6403  1.8193  1.0964
  981TIP3    H2 2950   1.233   1.377   4.360 -1.2583 -1.8541 -0.6211
  982TIP3   OH2 2951   0.694   3.303   0.134 -0.3078 -0.3475 -0.4676
  982TIP3    H1 2952   0.690   3.391   0.171 -0.9308 -0.2212 -0.8229
  982TIP3    H2 2953   0.633   3.252   0.187 -0.1598 -0.4958 -0.4404
  983TIP3   OH2 2954   3.547   1.875   2.168 -0.2712 -0.1530  0.1301
  983TIP3    H1 2955   3.624   1.928   2.148  0.2394  0.3681  3.0133
  983TIP3    H2 2956   3.474   1.937   2.168 -0.1256  0.0308  0.6334
  984TIP3   OH2 2957   2.508   3.695   1.135  0.1342  0.3555  0.1390
  984TIP3    H1 2958   2.581   3.755   1.150  0.5860 -0.7435  3.1325
  984TIP3    H2 2959   2.523   3.661   1.047  2.7031  0.9215  0.2600
  985TIP3   OH2 2960   2.829   3.240   1.757  0.1585 -0.4127  0.0714
  985TIP3    H1 2961   2.762   3.270   1.696  1.2146  1.3704 -0.2882
  985TIP3    H2 2962   2.781   3.189   1.823 -1.4480  0.2978 -0.5069
  986TIP3   OH2 2963   2.608   5.889   2.539 -0.8781  0.2867  0.4525
  986TIP3    H1 2964   2.654   5.886   2.623  0.8066 -2.2889 -0.4590
  986TIP3    H2 2965   2.675   5.871   2.473 -2.3915  0.9543 -1.3728
  987TIP3   OH2 2966   3.546   0.242   4.388  0.1081  0.4489 -0.1502
  987TIP3    H1 2967   3.485   0.304   4.347 -0.1526 -0.4556 -1.1773
  987TIP3    H2 2968   3.584   0.194   4.315  2.2434  1.1100  0.4467
  988TIP3   OH2 2969   1.168   3.461   2.435 -0.7440 -0.2833 -0.2153
  988TIP3    H1 2970   1.223   3.524   2.389 -0.5929 -0.9476 -0.9530
  988TIP3    H2 2971   1.225   3.387   2.453 -0.8246 -0.0800  0.9683
  989TIP3   OH2 2972   3.889   3.673   2.000  0.5379 -0.3711 -0.3656
  989TIP3    H1 2973   3.802   3.640   2.023  0.9623 -0.3182  1.5332
  989TIP3    H2 2974   3.936   3.595   1.970  0.0814 -0.5502 -0.6350
  990TIP3   OH2 2975   5.926   0.515   0.309  0.4720  0.3618  0.2244
  990TIP3    H1 2976   5.952   0.469   0.230 -0.0004 -1.7740  1.2180
  990TIP3    H2 2977   5.978   0.596   0.309  0.5031  0.3943 -2.1899
  991TIP3   OH2 2978   1.077   0.553   4.174  0.4840  0.2400 -0.6870
  991TIP3    H1 2979   1.159   0.504   4.164  0.6282  0.4953 -0.7500
  991TIP3    H2 2980   1.074   0.611   4.098  0.5298  0.6527 -0.3729
  992TIP3   OH2 2981   4.277   4.096   3.653  0.3738  0.0932 -0.1766
  992TIP3    H1 2982   4.243   4.074   3.740 -0.8101  0.7285 -0.4718
  992TIP3    H2 2983   4.211   4.153   3.614 -0.2274 -1.9512 -2.3784
  993TIP3   OH2 2984   0.011   2.938   0.567  0.0227  0.1917 -0.5361
  993TIP3    H1 2985   0.054   2.930   0.653  2.5249 -1.8871 -1.8611
  993TIP3    H2 2986   0.055   3.012   0.526 -1.1531  1.1641 -0.1237
  994TIP3   OH2 2987   0.048   3.631   1.517 -0.5676  0.5017  0.0366
  994TIP3    H1 2988   0.122   3.588   1.559  0.4446  2.0929 -0.0215
  994TIP3    H2 2989  -0.029   3.590   1.556  0.3050 -1.5018 -0.2166
  995TIP3   OH2 2990   4.523   0.156   1.182  0.0066  0.4568  0.3644
  995TIP3    H1 2991   4.597   0.157   1.122  1.7021  0.2271  2.3099
  995TIP3    H2 2992   4.447   0.175   1.128  1.5466  1.2010 -1.6475
  996TIP3   OH2 2993   5.363   3.576   1.495 -0.4882 -0.6405 -0.4995
  996TIP3    H1 2994   5.355   3.622   1.411 -1.6828  2.0629  0.9813
  996TIP3    H2 2995   5.405   3.639   1.553 -1.9947 -1.4747  1.6076
  997TIP3   OH2 2996   5.930   3.575   4.832  0.3714 -0.2924  0.2202
  997TIP3    H1 2997   5.955   3.486   4.858 -0.2129 -0.7923 -0.8834
  997TIP3    H2 2998   6.012   3.625   4.837  1.0311 -1.2526 -0.6250
  998TIP3   OH2 2999   4.617   4.354   0.754  0.2543  0.6287 -0.2050
  998TIP3    H1 3000   4.529   4.388   0.735 -0.1204  1.5773  2.6662
  998TIP3    H2 3001   4.601   4.273   0.802  0.9448  0.5121 -0.1670
  999TIP3   OH2 3002   0.234   3.368   0.885  0.6603 -0.2884  0.1956
  999TIP3    H1 3003   0.304   3.340   0.944  1.0500  0.6802  0.2188
  999TIP3    H2 3004   0.258   3.331   0.800  0.8231 -0.5604  0.3586
 1000TIP3   OH2 3005   0.350   2.388   2.195 -0.7354 -0.4285 -0.6325
 1000TIP3    H1 3006   0.355   2.417   2.104 -0.7050 -1.7641 -1.0858
 1000TIP3    H2 3007   0.320   2.464   2.244  2.4150  1.3604 -1.2315
 1001TIP3   OH2 3008   2.254   4.035   3.958  0.1514 -0.5325 -0.1633
 1001TIP3    H1 3009   2.222   3.947   3.940 -1.8408 -0.4622  2.4830
 1001TIP3    H2 3010   2.343   4.022   3.990  0.1773 -1.4764 -0.5815
 1002TIP3   OH2 3011   6.265   3.705   2.374 -0.2784 -0.5893  0.1392
 1002TIP3    H1 3012   6.203   3.724   2.304  0.5168  0.7706 -0.2261
 1002TIP3    H2 3013   6.256   3.611   2.389 -4.0596 -0.1596  1.6778
 1003TIP3   OH2 3014   5.672   3.373   4.818  0.6267  0.6927  0.1963
 1003TIP3    H1 3015   5.677   3.449   4.759 -1.7282  0.7374 -0.0367
 1003TIP3    H2 3016   5.654   3.410   4.904  1.5285  0.4718  0.4984
 1004TIP3   OH2 3017   3.151   1.922   1.754  0.5367 -0.2640  0.0497
 1004TIP3    H1 3018   3.062   1.934   1.788  0.9349  0.6898  0.8013
 1004TIP3    H2 3019   3.168   1.828   1.766 -0.6034 -0.5961 -0.7370
 1005TIP3   OH2 3020   3.894   4.669   4.530  0.0779  0.3527  0.0491
 1005TIP3    H1 3021   3.953   4.685   4.456 -0.5396 -0.4600 -0.6383
 1005TIP3    H2 3022   3.826   4.613   4.494 -1.6337  1.9844  0.6087
 1006TIP3   OH2 3023   3.928   2.848   2.312  0.0101 -0.1728 -0.1996
 1006TIP3    H1 3024   3.911   2.754   2.308  0.5724 -0.2323 -1.6908
 1006TIP3    H2 3025   3.852   2.888   2.269 -1.2332  0.2405  2.1837
 1007TIP3   OH2 3026   3.693   2.299   1.326 -0.0500 -0.1449  0.4229
 1007TIP3    H1 3027   3.667   2.320   1.416  0.5905  0.5095  0.4683
 1007TIP3    H2 3028   3.764   2.361   1.307  1.0439 -1.4502  0.0976
 1008TIP3   OH2 3029   0.615   1.833   0.888  0.0580  0.2157  0.2353
 1008TIP3    H1 3030   0.529   1.865   0.917 -0.3745 -1.2326  0.6547
 1008TIP3    H2 3031   0.676   1.863   0.956 -0.0422  1.4945 -0.2073
 1009TIP3   OH2 3032   3.794   2.255   3.880  0.3235 -0.3238  0.1862
 1009TIP3    H1 3033   3.731   2.260   3.808  0.6764  1.7505 -0.0436
 1009TIP3    H2 3034   3.829   2.344   3.888  2.1130 -1.0677  1.3130
 1010TIP3   OH2 3035   6.000   1.608   2.808 -0.6660 -0.3056  0.2457
 1010TIP3    H1 3036   6.004   1.552   2.730  0.6061  0.2416 -0.1205
 1010TIP3    H2 3037   6.089   1.642   2.816 -1.2852  1.2381  0.7771
 1011TIP3   OH2 3038   1.206   0.442   4.594  0.1501  0.0096 -0.3931
 1011TIP3    H1 3039   1.221   0.430   4.688 -0.4501  0.8883 -0.1679
 1011TIP3    H2 3040   1.287   0.414   4.553  0.1075 -1.2174  0.3242
 1012TIP3   OH2 3041   2.831   0.489   1.327  0.1858  0.2052 -0.0249
 1012TIP3    H1 3042   2.847   0.431   1.402 -0.2146  0.6264  0.3926
 1012TIP3    H2 3043   2.873   0.571   1.352  1.0077  0.0092 -0.7424
 1013TIP3   OH2 3044   1.302   0.139   4.153  0.1191  0.1614 -0.2928
 1013TIP3    H1 3045   1.299   0.063   4.094  1.3184 -0.1921  0.0876
 1013TIP3    H2 3046   1.321   0.102   4.239 -1.0316  0.7389  0.2266
 1014TIP3   OH2 3047   3.894   0.295   2.665  0.0900  0.3893  0.2786
 1014TIP3    H1 3048   3.955   0.334   2.602  0.9626  0.9413  1.4346
 1014TIP3    H2 3049   3.858   0.219   2.619  1.6190  0.0679 -0.4605
 1015TIP3   OH2 3050   1.689   1.693   2.234 -0.3177  1.0630  0.1140
 1015TIP3    H1 3051   1.678   1.784   2.208 -0.2004  1.1382  0.3289
 1015TIP3    H2 3052   1.648   1.643   2.163 -0.1671  1.2736 -0.1213
 1016TIP3   OH2 3053   3.897   3.086   2.880  0.0262 -0.5289 -0.0276
 1016TIP3    H1 3054   3.813   3.131   2.869 -0.2678 -0.9183  0.5978
 1016TIP3    H2 3055   3.954   3.152   2.920 -0.2346 -0.5247  0.3442
 1017TIP3   OH2 3056   3.761   2.081   4.817  0.0613 -0.7265 -0.2241
 1017TIP3    H1 3057   3.721   2.133   4.747  0.5090 -1.8680 -1.3485
 1017TIP3    H2 3058   3.689   2.059   4.875 -0.2804  0.3965 -0.1918
 1018TIP3   OH2 3059   1.758   4.634   3.400  0.2329 -0.2457 -0.4452
 1018TIP3    H1 3060   1.703   4.692   3.453  1.8442 -0.4533  1.6047
 1018TIP3    H2 3061   1.706   4.554   3.390 -0.7609  0.4069 -0.6008
 1019TIP3   OH2 3062   4.793   4.642   3.075 -0.2392  0.2988 -0.1470
 1019TIP3    H1 3063   4.712   4.623   3.027 -0.1309  0.1057 -0.2530
 1019TIP3    H2 3064   4.763   4.683   3.156 -0.5455 -1.3485  0.6158
 1020TIP3   OH2 3065   1.488   2.467   4.352 -0.3525  0.2371 -0.1343
 1020TIP3    H1 3066   1.404   2.454   4.308  0.4418 -0.1223 -1.6228
 1020TIP3    H2 3067   1.502   2.562   4.351  1.4726  0.1554 -4.4666
 1021TIP3   OH2 3068   5.115   1.194   2.105 -0.4093 -0.0560  0.0008
 1021TIP3    H1 3069   5.203   1.206   2.069 -0.5023  1.4246  0.1678
 1021TIP3    H2 3070   5.129   1.187   2.200 -0.3784 -1.2449 -0.0769
 1022TIP3   OH2 3071   3.286   2.059   2.334  0.1843 -0.2104  0.0615
 1022TIP3    H1 3072   3.224   1.985   2.338  0.0725 -0.1915 -0.9907
 1022TIP3    H2 3073   3.359   2.032   2.390 -1.2109  0.2136  2.1926
 1023TIP3   OH2 3074   2.833   2.058   5.119 -0.3344 -0.5984 -0.2601
 1023TIP3    H1 3075   2.785   2.136   5.146  1.7546  0.9049 -0.6083
 1023TIP3    H2 3076   2.875   2.026   5.199 -0.2507 -0.6684 -0.3308
 1024TIP3   OH2 3077   0.082   1.712   2.038  0.1300 -1.2672 -0.1719
 1024TIP3    H1 3078   0.108   1.802   2.018 -0.8383 -0.6171  1.3602
 1024TIP3    H2 3079   0.131   1.690   2.117 -1.7904 -1.0158  1.1427
 1025TIP3   OH2 3080   1.404   2.276   1.321 -0.3126  0.1829  0.3133
 1025TIP3    H1 3081   1.420   2.216   1.248  2.2597  1.7538 -0.5179
 1025TIP3    H2 3082   1.441   2.232   1.397  0.6940  0.2475 -0.1199
 1026TIP3   OH2 3083   2.152   0.126   1.886 -0.4012 -0.4215 -0.0877
 1026TIP3    H1 3084   2.216   0.168   1.944 -1.5927  0.1750  0.8525
 1026TIP3    H2 3085   2.092   0.081   1.946 -1.4180 -0.1659 -0.8895
 1027TIP3   OH2 3086   5.229   2.528   4.869  0.5351 -0.4365  0.1297
 1027TIP3    H1 3087   5.258   2.549   4.958  1.9052 -0.0243 -0.3971
 1027TIP3    H2 3088   5.226   2.432   4.868  2.6372 -0.5392  0.0028
 1028TIP3   OH2 3089   2.098   3.106   0.511  0.0567  0.2265  0.0217
 1028TIP3    H1 3090   2.128   3.099   0.602  1.3812 -0.8992 -0.4820
 1028TIP3    H2 3091   2.027   3.043   0.504 -0.9559  1.2616  0.6036
 1029TIP3   OH2 3092   6.294   3.774   1.843 -0.3832  0.2458  0.0606
 1029TIP3    H1 3093   6.223   3.735   1.791  0.8722 -0.8036 -0.9302
 1029TIP3    H2 3094   6.335   3.836   1.784  0.1265  0.1388  0.2966
 1030TIP3   OH2 3095   3.403   3.991   3.824 -0.3340  0.3222 -0.0496
 1030TIP3    H1 3096   3.399   3.975   3.729  1.0662  0.1961 -0.1085
 1030TIP3    H2 3097   3.399   3.904   3.863 -0.7324  0.3631  0.0034
 1031TIP3   OH2 3098   5.817   0.236   3.375  0.4821 -0.2452 -0.0593
 1031TIP3    H1 3099   5.898   0.274   3.341  0.3355 -1.2076 -1.5880
 1031TIP3    H2 3100   5.756   0.239   3.301 -0.8100  0.2183  0.9853
 1032TIP3   OH2 3101   0.922   4.203   3.446  0.1173  0.1011 -0.2751
 1032TIP3    H1 3102   0.963   4.273   3.395  0.6558 -0.8595 -1.2293
 1032TIP3    H2 3103   0.922   4.235   3.536  1.5466  0.7898 -0.4830
 1033TIP3   OH2 3104   4.977   5.289   1.722  0.0751  0.7196 -0.0357
 1033TIP3    H1 3105   5.071   5.281   1.711 -0.0302 -1.2505  0.0863
 1033TIP3    H2 3106   4.942   5.293   1.633  0.1712 -0.3285 -0.1263
 1034TIP3   OH2 3107   4.712   2.434   4.486  0.2956  0.6160  0.6003
 1034TIP3    H1 3108   4.655   2.415   4.411 -1.3912  2.8814  1.1778
 1034TIP3    H2 3109   4.770   2.504   4.455  2.1692 -0.9783  0.3396
 1035TIP3   OH2 3110   6.331   2.496   2.713  0.0026  0.0333 -0.1335
 1035TIP3    H1 3111   6.302   2.488   2.804  0.5458  0.3553  0.0729
 1035TIP3    H2 3112   6.377   2.413   2.696  0.4270  0.2228  0.0816
 1036TIP3   OH2 3113   1.224   2.241   3.616 -0.1369  0.1911  0.3827
 1036TIP3    H1 3114   1.247   2.211   3.704  1.0815  0.0706  0.0417
 1036TIP3    H2 3115   1.133   2.270   3.624 -1.0508 -2.5108  1.0012
 1037TIP3   OH2 3116   1.161   0.730   1.902 -0.3444  0.2357 -0.3012
 1037TIP3    H1 3117   1.194   0.723   1.992 -1.2854  0.4064  0.0732
 1037TIP3    H2 3118   1.110   0.650   1.890 -2.1947  1.2761  0.1810
 1038TIP3   OH2 3119   2.072   2.225   2.725  0.5870  0.0583  0.2773
 1038TIP3    H1 3120   2.059   2.249   2.633 -0.5869 -0.0382  0.4012
 1038TIP3    H2 3121   2.065   2.129   2.725 -0.5940  0.1192  0.6079
 1039TIP3   OH2 3122   0.116   3.229   2.743 -0.4793  0.1921  0.2352
 1039TIP3    H1 3123   0.070   3.206   2.663 -0.2911  2.0152 -0.4395
 1039TIP3    H2 3124   0.046   3.244   2.807 -0.6075 -4.2735  1.4346
 1040TIP3   OH2 3125   1.116   5.361   4.512 -0.1032 -0.0049  0.1658
 1040TIP3    H1 3126   1.196   5.404   4.482 -0.9758  0.7978 -1.1165
 1040TIP3    H2 3127   1.147   5.289   4.567  1.4645  0.7607  0.3520
 1041TIP3   OH2 3128   2.073   5.625   1.745 -0.3775  0.2380  0.6081
 1041TIP3    H1 3129   1.995   5.589   1.703 -0.6529  0.6477  0.7560
 1041TIP3    H2 3130   2.069   5.719   1.725 -0.3858  0.4012  1.3419
 1042TIP3   OH2 3131   2.810   1.445   2.530 -0.3913 -0.6958  0.0801
 1042TIP3    H1 3132   2.788   1.459   2.622 -0.4858 -0.7520  0.0661
 1042TIP3    H2 3133   2.861   1.364   2.530  0.2719 -0.2827  0.1777
 1043TIP3   OH2 3134   0.655   5.560   4.458 -0.1303 -0.1049  0.1614
 1043TIP3    H1 3135   0.681   5.558   4.550  0.2533  1.6558  0.1356
 1043TIP3    H2 3136   0.738   5.557   4.410 -0.2778 -0.0827 -0.0947
 1044TIP3   OH2 3137   3.849   0.030   3.038  0.2998  0.5872  0.5398
 1044TIP3    H1 3138   3.803  -0.019   2.970  0.2600 -1.6860  2.1174
 1044TIP3    H2 3139   3.795   0.109   3.051 -0.7761  0.0676 -0.6382
 1045TIP3   OH2 3140   1.021   1.061   3.185  0.2970  0.4450  0.1620
 1045TIP3    H1 3141   1.053   1.143   3.148  0.0539 -0.3178 -1.9019
 1045TIP3    H2 3142   1.074   0.993   3.143 -1.0606 -0.5724  0.0220
 1046TIP3   OH2 3143   0.342   1.515   0.442  0.2572 -1.0862  0.3338
 1046TIP3    H1 3144   0.395   1.476   0.511 -2.6879 -2.0117  2.2350
 1046TIP3    H2 3145   0.299   1.441   0.399 -0.3289 -0.3258 -0.4353
 1047TIP3   OH2 3146   5.668   2.002   2.401  0.4331  0.4273  0.2857
 1047TIP3    H1 3147   5.678   2.064   2.329 -1.8254 -0.9949 -1.3906
 1047TIP3    H2 3148   5.733   1.934   2.383  1.3106  1.0905  0.8319
 1048TIP3   OH2 3149   3.006   4.410   3.276 -0.4752  0.6114 -0.2126
 1048TIP3    H1 3150   2.948   4.484   3.259 -0.6619  0.2476 -1.2678
 1048TIP3    H2 3151   2.990   4.350   3.203  2.1451  1.0682 -1.2977
 1049TIP3   OH2 3152   5.353   0.827   0.294 -0.0599  0.1089  0.6367
 1049TIP3    H1 3153   5.295   0.894   0.258  1.6676  1.7271  0.7370
 1049TIP3    H2 3154   5.329   0.747   0.247  0.0732  1.4953 -1.9578
 1050TIP3   OH2 3155   0.638   0.494   2.759  0.2742  0.2559  0.6252
 1050TIP3    H1 3156   0.652   0.460   2.671 -2.5606  1.8308 -0.5527
 1050TIP3    H2 3157   0.718   0.542   2.779  1.0540 -0.3020 -1.0118
 1051TIP3   OH2 3158   4.942   2.494   4.770  0.5224 -0.3317 -0.6895
 1051TIP3    H1 3159   5.018   2.515   4.825 -0.8069  0.4724  0.9498
 1051TIP3    H2 3160   4.910   2.579   4.741 -0.2194 -0.6072 -0.6851
 1052TIP3   OH2 3161   1.315   4.062   1.984  0.1199 -0.2815  0.0558
 1052TIP3    H1 3162   1.267   3.980   1.974 -1.3818  0.5569  0.1258
 1052TIP3    H2 3163   1.404   4.035   2.007 -0.0646 -1.8985 -0.9867
 1053TIP3   OH2 3164   0.747   4.156   4.495  0.1656  0.2331 -0.1767
 1053TIP3    H1 3165   0.778   4.241   4.463  0.5138  0.5778  1.0341
 1053TIP3    H2 3166   0.771   4.155   4.588  0.6161 -1.4020 -0.2887
 1054TIP3   OH2 3167   6.285   1.155   2.907  0.2327  0.6559  0.2073
 1054TIP3    H1 3168   6.348   1.172   2.977  0.5810  1.4974 -0.2921
 1054TIP3    H2 3169   6.201   1.144   2.952  0.7598 -0.8349  0.9122
 1055TIP3   OH2 3170   1.496   0.452   0.203  0.0006 -0.3361  0.3848
 1055TIP3    H1 3171   1.480   0.378   0.144 -0.0995  0.0576 -0.0961
 1055TIP3    H2 3172   1.548   0.416   0.274 -0.1305 -0.8890  0.2036
 1056TIP3   OH2 3173   0.193   0.158   3.795 -0.6293  0.1426 -0.2279
 1056TIP3    H1 3174   0.267   0.206   3.757 -0.3391 -0.2740 -0.1886
 1056TIP3    H2 3175   0.152   0.115   3.720 -1.1510  0.8008 -0.3255
 1057TIP3   OH2 3176   5.562   5.151   0.060  0.5153 -0.4722 -0.1501
 1057TIP3    H1 3177   5.537   5.104   0.140  1.2238 -1.0126 -0.2409
 1057TIP3    H2 3178   5.486   5.206   0.041  0.7599  0.5294  1.5284
 1058TIP3   OH2 3179   1.997   4.083   2.264  0.1849  0.1569  0.0755
 1058TIP3    H1 3180   1.937   4.026   2.310 -1.3215  1.4645 -0.1747
 1058TIP3    H2 3181   2.082   4.068   2.305 -0.6750 -0.3681  1.7332
 1059TIP3   OH2 3182   0.858   3.040   1.869 -0.0827  0.1832  0.2446
 1059TIP3    H1 3183   0.824   3.067   1.955  1.1862  1.0856  0.4821
 1059TIP3    H2 3184   0.911   3.114   1.839  0.1465 -0.4456 -0.9619
 1060TIP3   OH2 3185   2.818   2.881   0.268  0.2367 -0.3020  0.5588
 1060TIP3    H1 3186   2.754   2.915   0.206  0.4274 -2.1088 -0.7060
 1060TIP3    H2 3187   2.771   2.814   0.317  1.1124 -1.6609 -0.3905
 1061TIP3   OH2 3188   4.014   4.991   0.632  0.1862 -0.3388 -0.4890
 1061TIP3    H1 3189   3.978   4.939   0.704  0.9200  1.7681  1.5343
 1061TIP3    H2 3190   3.999   5.082   0.659  2.5462  0.5466 -1.9052
 1062TIP3   OH2 3191   2.693   2.011   3.105  0.5517 -0.1967 -0.8929
 1062TIP3    H1 3192   2.712   2.066   3.181 -0.5705 -0.0891 -0.6783
 1062TIP3    H2 3193   2.780   1.984   3.074  1.1575  1.6830 -1.0193
 1063TIP3   OH2 3194   3.201   3.435   4.512  0.1205 -0.3005  0.2660
 1063TIP3    H1 3195   3.165   3.511   4.557 -0.3394  0.8574 -1.9460
 1063TIP3    H2 3196   3.140   3.417   4.441  0.5833 -2.3323  0.3092
 1064TIP3   OH2 3197   0.923   2.339   1.231 -0.1008 -0.2077 -0.0064
 1064TIP3    H1 3198   0.996   2.335   1.293 -0.7550  0.8045  0.8669
 1064TIP3    H2 3199   0.944   2.274   1.165  2.2551  0.9225 -0.4859
 1065TIP3   OH2 3200   1.550   0.095   1.304  0.6752 -0.0953  0.1417
 1065TIP3    H1 3201   1.622   0.044   1.267  0.2348 -0.4100 -0.2903
 1065TIP3    H2 3202   1.520   0.150   1.232  1.5064  1.2126  0.7493
 1066TIP3   OH2 3203   1.951   1.707   2.948  0.3525  0.4455 -0.1474
 1066TIP3    H1 3204   1.931   1.735   3.038  0.6079  0.0497  0.0353
 1066TIP3    H2 3205   1.951   1.611   2.952  1.6547  0.4250 -0.2727
 1067TIP3   OH2 3206   4.421   2.495   4.832  0.4850  0.1686 -0.1164
 1067TIP3    H1 3207   4.412   2.401   4.848 -0.7195 -0.1921 -2.4878
 1067TIP3    H2 3208   4.514   2.509   4.819  0.7974 -0.4829  1.1919
 1068TIP3   OH2 3209   3.815   0.243   5.129  0.4278 -0.4232  0.0535
 1068TIP3    H1 3210   3.888   0.183   5.111 -0.7018 -1.3878 -1.5645
 1068TIP3    H2 3211   3.759   0.237   5.052 -1.5402  0.0535  1.3663
 1069TIP3   OH2 3212   2.616   2.756   4.486  0.3535  0.5932 -0.2793
 1069TIP3    H1 3213   2.673   2.693   4.443 -1.0032 -0.0558 -1.2057
 1069TIP3    H2 3214   2.597   2.717   4.571 -0.3900 -0.2484 -0.8036
 1070TIP3   OH2 3215   1.870   5.055   1.480  0.5866 -0.2789  0.1392
 1070TIP3    H1 3216   1.930   5.009   1.539  0.4123  0.3831  0.8529
 1070TIP3    H2 3217   1.910   5.142   1.468 -0.3175  0.2529  0.8055
 1071TIP3   OH2 3218   2.279   0.321   4.040  0.0318  0.2545  0.0291
 1071TIP3    H1 3219   2.314   0.236   4.013  2.3868  0.7824  1.0959
 1071TIP3    H2 3220   2.289   0.377   3.963 -0.3274 -0.1169 -0.2876
 1072TIP3   OH2 3221   2.495   3.998   4.071  0.3460 -0.8745  0.5453
 1072TIP3    H1 3222   2.583   4.035   4.070  0.5326 -1.3008  0.7065
 1072TIP3    H2 3223   2.509   3.904   4.080 -0.0840 -1.1209 -1.1391
 1073TIP3   OH2 3224   2.005   6.004   2.891  0.0780 -0.1697 -0.5974
 1073TIP3    H1 3225   1.963   5.972   2.811 -1.3837 -0.2043  0.1368
 1073TIP3    H2 3226   1.951   5.969   2.962  2.5068 -1.8528  0.5607
 1074TIP3   OH2 3227   6.014   5.942   1.224 -0.9073  0.1710 -0.5641
 1074TIP3    H1 3228   6.000   5.861   1.174 -0.7476 -1.0928  1.3321
 1074TIP3    H2 3229   6.084   5.987   1.176 -1.2441 -0.6055 -1.8620
 1075TIP3   OH2 3230   3.372   5.953   1.347  0.5676  0.0199 -0.6403
 1075TIP3    H1 3231   3.351   5.943   1.255  2.0528  0.9835 -1.1279
 1075TIP3    H2 3232   3.424   6.034   1.351  1.6550 -0.6963  0.8313
 1076TIP3   OH2 3233   0.433   3.105   3.730  0.6047 -0.0104 -0.0515
 1076TIP3    H1 3234   0.385   3.036   3.685 -0.7257 -0.4759  1.9808
 1076TIP3    H2 3235   0.507   3.124   3.672  0.1960 -2.0871 -1.3565
 1077TIP3   OH2 3236   6.304   5.249   1.206  0.0586 -0.2492  0.2352
 1077TIP3    H1 3237   6.245   5.184   1.166 -0.5758 -0.3029  1.2175
 1077TIP3    H2 3238   6.248   5.325   1.222  0.3835 -0.1032  0.6818
 1078TIP3   OH2 3239   3.907   4.250   5.074 -0.5540 -0.1233  0.1224
 1078TIP3    H1 3240   3.821   4.240   5.115 -0.5584  1.0080  0.4037
 1078TIP3    H2 3241   3.888   4.268   4.982 -0.5438 -2.6967 -0.4601
 1079TIP3   OH2 3242   5.186   5.569   0.717  0.5033 -0.7552 -0.0306
 1079TIP3    H1 3243   5.098   5.556   0.682 -0.4001  0.7698  1.4800
 1079TIP3    H2 3244   5.181   5.532   0.806  0.8178  0.8622  0.6917
 1080TIP3   OH2 3245   2.936   2.666   4.853  0.2100  0.1266  1.1318
 1080TIP3    H1 3246   2.998   2.736   4.876  0.2886  0.4816 -0.0963
 1080TIP3    H2 3247   2.866   2.675   4.917  0.0608  1.5543  0.8239
 1081TIP3   OH2 3248   5.737   1.173   4.730  0.1113 -0.1771  0.6563
 1081TIP3    H1 3249   5.797   1.141   4.797  0.4462 -1.2178 -0.1176
 1081TIP3    H2 3250   5.777   1.146   4.647 -1.6264 -1.2838  0.1252
 1082TIP3   OH2 3251   2.486   3.737   4.369 -0.2135 -0.1517 -0.0141
 1082TIP3    H1 3252   2.559   3.692   4.412 -0.3305  0.6835  1.1040
 1082TIP3    H2 3253   2.512   3.744   4.277  0.2643 -1.5424  0.0001
 1083TIP3   OH2 3254   0.770   2.633   2.544  0.2382 -0.2420 -0.3928
 1083TIP3    H1 3255   0.738   2.555   2.499 -1.8001  1.6201 -2.3801
 1083TIP3    H2 3256   0.738   2.624   2.634 -1.8356 -0.7079 -1.1435
 1084TIP3   OH2 3257   5.849   1.511   1.568  0.1787 -0.4470 -0.2310
 1084TIP3    H1 3258   5.944   1.521   1.577  0.1985 -0.1673 -0.6981
 1084TIP3    H2 3259   5.813   1.553   1.646  0.3199  2.3757 -1.5657
 1085TIP3   OH2 3260   4.756   0.663   3.692 -0.0203 -0.2811 -0.2393
 1085TIP3    H1 3261   4.778   0.738   3.747 -0.8955 -1.6994  2.2241
 1085TIP3    H2 3262   4.735   0.593   3.755  1.1591 -2.7292 -2.3804
 1086TIP3   OH2 3263   1.479   0.096   3.181 -0.3117 -0.5209 -0.5161
 1086TIP3    H1 3264   1.448   0.018   3.134  0.1549 -1.2283  0.3274
 1086TIP3    H2 3265   1.425   0.167   3.147 -1.5921 -1.4176 -0.4239
 1087TIP3   OH2 3266   5.260   3.342   4.869 -0.3548  0.2426 -0.2419
 1087TIP3    H1 3267   5.331   3.401   4.843  0.8290 -1.4355 -1.0794
 1087TIP3    H2 3268   5.204   3.394   4.926  1.4176  1.7330  0.2251
 1088TIP3   OH2 3269   1.731   4.153   5.003 -0.4597 -0.0511 -0.2623
 1088TIP3    H1 3270   1.805   4.194   4.957 -1.2329 -0.6219 -2.1110
 1088TIP3    H2 3271   1.697   4.089   4.941 -0.7264 -1.8938  1.6711
 1089TIP3   OH2 3272   0.763   5.346   1.610  0.2226  0.0318 -0.3665
 1089TIP3    H1 3273   0.830   5.279   1.625 -0.5028 -0.4803  0.6849
 1089TIP3    H2 3274   0.680   5.299   1.616 -0.3245  1.1068  1.0221
 1090TIP3   OH2 3275   2.636   4.168   4.663 -0.0075  0.1559  0.3919
 1090TIP3    H1 3276   2.587   4.242   4.626 -0.6166  0.2454  1.3541
 1090TIP3    H2 3277   2.615   4.094   4.605 -1.4256  0.1492  0.8843
 1091TIP3   OH2 3278   1.554   6.000   4.712 -0.3877 -0.6646 -0.2419
 1091TIP3    H1 3279   1.537   5.911   4.742 -3.0662  0.2207  1.1748
 1091TIP3    H2 3280   1.555   6.053   4.792  0.6632  0.6673 -1.0884
 1092TIP3   OH2 3281   3.538   3.146   0.429 -0.4293  0.2543  0.3800
 1092TIP3    H1 3282   3.539   3.216   0.494  1.4180  0.3779  0.2808
 1092TIP3    H2 3283   3.557   3.190   0.346  0.9425 -0.3388  0.3429
 1093TIP3   OH2 3284   2.828   1.903   1.298  0.0009 -0.2542 -0.2722
 1093TIP3    H1 3285   2.795   1.993   1.308 -0.6054 -0.6149  1.2660
 1093TIP3    H2 3286   2.773   1.865   1.229  1.7845  1.1938 -2.6847
 1094TIP3   OH2 3287   6.219   4.632   0.128 -0.1008 -0.0363 -0.9237
 1094TIP3    H1 3288   6.194   4.672   0.211  0.1880  1.9362 -1.7154
 1094TIP3    H2 3289   6.261   4.549   0.152 -2.5604 -0.9295  0.7090
 1095TIP3   OH2 3290   4.782   5.370   1.462  0.0737 -0.5308  0.2340
 1095TIP3    H1 3291   4.843   5.425   1.413 -0.7006 -1.6571 -2.1689
 1095TIP3    H2 3292   4.704   5.425   1.474 -0.3286 -0.7003 -1.2994
 1096TIP3   OH2 3293   1.120   0.435   3.841 -0.2047 -0.9162 -0.5872
 1096TIP3    H1 3294   1.156   0.421   3.929 -0.1374  1.3265 -0.1884
 1096TIP3    H2 3295   1.187   0.485   3.795 -1.9820  1.8999 -0.3760
 1097TIP3   OH2 3296   1.775   0.585   0.426 -0.0495 -0.3570 -0.4908
 1097TIP3    H1 3297   1.699   0.603   0.482  1.5442  0.8325  1.4596
 1097TIP3    H2 3298   1.809   0.502   0.459  1.3445  0.7250  0.9518
 1098TIP3   OH2 3299   4.538   3.503   4.464  0.1025  0.1199 -1.2702
 1098TIP3    H1 3300   4.618   3.452   4.452 -0.2812 -0.9072  0.3149
 1098TIP3    H2 3301   4.543   3.571   4.396  2.2791  0.0630 -1.2446
 1099TIP3   OH2 3302   0.095   0.230   1.701 -0.7059  0.9993  0.1744
 1099TIP3    H1 3303   0.124   0.149   1.659 -1.1604  0.9723 -0.1017
 1099TIP3    H2 3304   0.175   0.275   1.727 -0.4412  0.6862 -0.1030
 1100TIP3   OH2 3305   5.693   4.832   5.150  0.0447 -0.1391 -0.3077
 1100TIP3    H1 3306   5.758   4.762   5.159  1.1304  0.9223  0.3492
 1100TIP3    H2 3307   5.652   4.837   5.236 -0.4935 -0.4032 -0.5481
 1101TIP3   OH2 3308   2.071   3.342   0.909 -0.5536  0.6733  0.0200
 1101TIP3    H1 3309   2.003   3.277   0.924 -0.2565  0.4558  0.4493
 1101TIP3    H2 3310   2.073   3.393   0.990  1.2275 -0.6510  0.8837
 1102TIP3   OH2 3311   4.613   5.481   2.120 -0.0978  0.5415  0.1153
 1102TIP3    H1 3312   4.668   5.407   2.094  0.1838  1.2228 -1.2578
 1102TIP3    H2 3313   4.620   5.483   2.216 -0.8702 -1.7906  0.2912
 1103TIP3   OH2 3314   3.409   5.078   1.629  0.4306 -0.6686  0.3618
 1103TIP3    H1 3315   3.387   5.037   1.713 -0.6653 -2.2904 -0.6633
 1103TIP3    H2 3316   3.329   5.121   1.601  1.5275  2.2897  1.3680
 1104TIP3   OH2 3317   0.716   1.957   2.725  0.4929 -0.0940 -0.2747
 1104TIP3    H1 3318   0.777   2.025   2.756  0.9720 -0.8836  0.5592
 1104TIP3    H2 3319   0.734   1.950   2.631  0.1450  1.2138 -0.4608
 1105TIP3   OH2 3320   6.221   3.231   5.023  0.2261 -0.6820 -0.3788
 1105TIP3    H1 3321   6.173   3.223   4.940  0.6162  0.9977 -0.8110
 1105TIP3    H2 3322   6.282   3.304   5.008  0.9885 -0.9909  1.0671
 1106TIP3   OH2 3323   3.774   0.306   0.563  0.4827  0.6312  0.3473
 1106TIP3    H1 3324   3.780   0.279   0.472 -0.0828  0.5922  0.3126
 1106TIP3    H2 3325   3.864   0.309   0.595  0.5802 -1.1163  0.3053
 1107TIP3   OH2 3326   3.281   5.222   1.119  0.5101  0.2172  0.5720
 1107TIP3    H1 3327   3.366   5.252   1.089  1.0329 -0.8451  0.9455
 1107TIP3    H2 3328   3.292   5.128   1.133 -0.6607  0.1016  0.8431
 1108TIP3   OH2 3329   1.538   1.290   3.555 -0.2334 -0.2703  0.7801
 1108TIP3    H1 3330   1.454   1.316   3.592 -0.2017  0.2124  0.5275
 1108TIP3    H2 3331   1.579   1.238   3.623 -0.3654  0.2397  1.2606
 1109TIP3   OH2 3332   5.682   3.053   1.471 -0.1999  0.1325  0.3189
 1109TIP3    H1 3333   5.593   3.029   1.496 -0.5569 -1.1956 -1.9769
 1109TIP3    H2 3334   5.738   2.990   1.517 -0.5123  0.2482  0.8676
 1110TIP3   OH2 3335   5.531   1.521   1.259 -0.2879 -0.6642  0.1101
 1110TIP3    H1 3336   5.468   1.476   1.314 -0.2119  1.8828  2.5282
 1110TIP3    H2 3337   5.613   1.472   1.271 -0.5775 -0.8891  1.2901
 1111TIP3   OH2 3338   4.692   5.657   3.683  0.2551 -0.0258  0.8025
 1111TIP3    H1 3339   4.703   5.595   3.611 -0.7642 -1.0524  1.4807
 1111TIP3    H2 3340   4.604   5.693   3.671  1.2572  2.3025 -0.2824
 1112TIP3   OH2 3341   1.115   2.616   3.796  0.4403  0.0344 -0.1981
 1112TIP3    H1 3342   1.114   2.563   3.716  1.4307  0.8211 -0.7523
 1112TIP3    H2 3343   1.086   2.703   3.767  2.2914  0.7362 -0.0386
 1113TIP3   OH2 3344   1.643   1.803   3.098  0.2786  0.0527  0.3020
 1113TIP3    H1 3345   1.730   1.818   3.136  1.3456 -1.4023 -1.4264
 1113TIP3    H2 3346   1.655   1.815   3.004 -1.2095 -1.0258 -0.0548
 1114TIP3   OH2 3347   1.588   1.305   4.341  0.1455 -0.3228 -1.1519
 1114TIP3    H1 3348   1.575   1.396   4.318  1.2612  0.1718 -0.0133
 1114TIP3    H2 3349   1.512   1.282   4.395  0.9915  0.7176  0.5844
 1115TIP3   OH2 3350   5.134   1.735   3.748 -0.2598 -0.5914  0.2181
 1115TIP3    H1 3351   5.068   1.803   3.765 -0.6504 -1.3848  1.9967
 1115TIP3    H2 3352   5.135   1.728   3.652 -0.5108  1.6126 -0.0086
 1116TIP3   OH2 3353   0.506   2.678   3.528 -0.1315  0.3042  0.2044
 1116TIP3    H1 3354   0.473   2.745   3.588  0.2395  0.9664 -0.3180
 1116TIP3    H2 3355   0.462   2.696   3.445 -0.5010 -0.4932  0.2192
 1117TIP3   OH2 3356   0.151   3.108   0.432 -0.0444 -0.6761  0.0306
 1117TIP3    H1 3357   0.208   3.034   0.412  1.0036 -0.1949  1.0950
 1117TIP3    H2 3358   0.186   3.181   0.380 -0.5091 -0.6965 -0.3176
 1118TIP3   OH2 3359   3.399   5.463   1.407 -0.1599 -0.5112  0.1372
 1118TIP3    H1 3360   3.473   5.450   1.347  0.3434 -0.6794  0.7773
 1118TIP3    H2 3361   3.338   5.519   1.359  1.2028  1.1585  0.2605
 1119TIP3   OH2 3362   1.473   3.094   3.560  0.2631 -0.4986 -0.0159
 1119TIP3    H1 3363   1.409   3.165   3.558 -0.3770 -1.0551 -0.1662
 1119TIP3    H2 3364   1.436   3.028   3.500  1.5714 -0.3473 -1.0212
 1120TIP3   OH2 3365   1.878   3.119   4.367 -0.2199 -0.3846  0.3466
 1120TIP3    H1 3366   1.808   3.095   4.429  0.2812  0.5976  1.3092
 1120TIP3    H2 3367   1.842   3.192   4.318 -0.0000 -0.1117  0.5942
 1121TIP3   OH2 3368   1.716   5.095   1.040 -0.8407  0.2401  0.6976
 1121TIP3    H1 3369   1.752   5.057   0.960 -1.4822  0.8182  0.1203
 1121TIP3    H2 3370   1.663   5.025   1.077 -0.5761 -0.0177  0.5916
 1122TIP3   OH2 3371   5.064   0.039   1.553 -0.3436 -0.2707 -0.1136
 1122TIP3    H1 3372   5.000   0.109   1.565  1.5449  1.6239 -0.4768
 1122TIP3    H2 3373   5.096   0.051   1.463  0.4632 -1.2006  0.0356
 1123TIP3   OH2 3374   3.422   0.300   3.744 -0.2585 -0.2467 -0.2281
 1123TIP3    H1 3375   3.379   0.383   3.724  0.7555  0.4606  0.4154
 1123TIP3    H2 3376   3.354   0.248   3.787 -0.4687  0.9042  0.9025
 1124TIP3   OH2 3377   1.250   1.345   3.979 -0.1547 -0.1890  0.6112
 1124TIP3    H1 3378   1.253   1.268   4.036  0.6819  0.9042  2.1216
 1124TIP3    H2 3379   1.166   1.386   3.999  0.7054  0.9470  2.2010
 1125TIP3   OH2 3380   5.498   5.331   2.904 -0.4238  0.0878  0.0939
 1125TIP3    H1 3381   5.552   5.337   2.825  1.7511  0.3838  1.5220
 1125TIP3    H2 3382   5.539   5.263   2.956 -2.1124 -0.4443  0.8022
 1126TIP3   OH2 3383   5.498   5.085   3.821 -0.0382 -0.1513  0.6715
 1126TIP3    H1 3384   5.567   5.152   3.830  0.5542 -0.3368 -1.8483
 1126TIP3    H2 3385   5.546   5.003   3.815 -0.5850 -0.4579  0.5027
 1127TIP3   OH2 3386   1.436   2.206   2.775  0.1825  0.0168  0.3683
 1127TIP3    H1 3387   1.450   2.260   2.853 -0.2225  0.4912  0.1152
 1127TIP3    H2 3388   1.373   2.255   2.723 -1.1669 -1.2748  0.7204
 1128TIP3   OH2 3389   1.718   1.224   4.632 -0.5844  0.1300  0.8164
 1128TIP3    H1 3390   1.682   1.305   4.596 -1.3159 -1.2987 -1.9322
 1128TIP3    H2 3391   1.650   1.190   4.689 -0.9358  0.6659  0.7171
 1129TIP3   OH2 3392   0.435   3.703   0.871  0.4567 -0.0389 -0.0900
 1129TIP3    H1 3393   0.406   3.728   0.783  3.8617 -0.6162 -1.5585
 1129TIP3    H2 3394   0.428   3.784   0.922  0.3621  0.8942 -1.5220
 1130TIP3   OH2 3395   3.125   2.963   0.498 -0.0950 -0.3489  0.3477
 1130TIP3    H1 3396   3.060   3.031   0.483  0.9112  0.5216 -0.2444
 1130TIP3    H2 3397   3.144   2.929   0.411  0.4020 -0.4237  0.4806
 1131TIP3   OH2 3398   5.872   0.618   4.540 -0.3747  0.3950 -0.0269
 1131TIP3    H1 3399   5.957   0.607   4.497 -0.7204 -1.0532 -0.4152
 1131TIP3    H2 3400   5.877   0.560   4.616 -0.8466  0.6741  0.2196
 1132TIP3   OH2 3401   5.780   5.420   4.151 -0.3596  0.0289 -0.1459
 1132TIP3    H1 3402   5.786   5.479   4.226  1.2900 -0.1425 -0.1133
 1132TIP3    H2 3403   5.834   5.461   4.083 -1.1493 -0.2465 -0.9723
 1133TIP3   OH2 3404   6.304   3.422   0.693  0.3267 -0.2149  0.4303
 1133TIP3    H1 3405   6.280   3.506   0.655  1.7139  0.2287  0.4871
 1133TIP3    H2 3406   6.308   3.438   0.788  2.1845  0.1317  0.3422
 1134TIP3   OH2 3407   5.937   4.573   4.311 -0.4185 -0.3551  0.0420
 1134TIP3    H1 3408   5.987   4.529   4.380  3.0540  1.5432 -1.0237
 1134TIP3    H2 3409   6.003   4.598   4.246 -3.3196 -0.7448 -3.3035
 1135TIP3   OH2 3410   4.545   0.216   4.359 -0.8047  0.0256  0.0579
 1135TIP3    H1 3411   4.505   0.129   4.356 -1.3427  0.2388  0.7483
 1135TIP3    H2 3412   4.472   0.277   4.351 -0.3486  0.4229 -1.1906
 1136TIP3   OH2 3413   5.540   1.270   4.555  0.1482 -0.5202  0.4398
 1136TIP3    H1 3414   5.476   1.215   4.599 -1.6242  2.1959  1.5440
 1136TIP3    H2 3415   5.615   1.271   4.614 -0.4111 -0.5500  1.1760
 1137TIP3   OH2 3416   5.880   1.130   2.345  0.5985  0.0043  0.3496
 1137TIP3    H1 3417   5.809   1.167   2.398  1.5574  0.7694  1.1397
 1137TIP3    H2 3418   5.840   1.114   2.260 -0.2533  1.4734  0.4318
 1138TIP3   OH2 3419   3.655   3.502   2.025 -0.3532 -0.2665  0.1257
 1138TIP3    H1 3420   3.617   3.540   1.945 -0.4763 -1.5383 -0.4442
 1138TIP3    H2 3421   3.619   3.413   2.029 -1.2984  0.1449  2.2661
 1139TIP3   OH2 3422   0.112   4.329   3.335  0.2705  0.1446 -0.1949
 1139TIP3    H1 3423   0.167   4.349   3.411  0.5091  1.2037 -0.6311
 1139TIP3    H2 3424   0.171   4.288   3.272 -0.1053 -1.5561  0.4868
 1140TIP3   OH2 3425   3.111   3.180   3.928 -0.1218 -0.1959  0.4608
 1140TIP3    H1 3426   3.023   3.184   3.890 -0.0182  1.4150  0.3155
 1140TIP3    H2 3427   3.164   3.137   3.861 -0.6211 -0.3908  0.1853
 1141TIP3   OH2 3428   4.292   3.263   4.706 -0.5160 -0.1633  0.3152
 1141TIP3    H1 3429   4.206   3.300   4.687  0.3550  2.2582  0.7975
 1141TIP3    H2 3430   4.343   3.277   4.626 -0.4586 -1.3853  0.1111
 1142TIP3   OH2 3431   2.803   2.197   3.299  0.1369 -0.1923 -0.1654
 1142TIP3    H1 3432   2.720   2.240   3.323 -0.0093  0.5924 -1.9037
 1142TIP3    H2 3433   2.820   2.136   3.370 -1.7235 -0.0683  0.4385
 1143TIP3   OH2 3434   5.170   3.656   4.657 -0.2439  0.3738  0.1344
 1143TIP3    H1 3435   5.217   3.728   4.614 -1.6077 -0.5306 -3.1816
 1143TIP3    H2 3436   5.105   3.699   4.713  1.0753  1.6366  0.7514
 1144TIP3   OH2 3437   2.815   0.949   1.189  0.5416  0.0779 -0.0146
 1144TIP3    H1 3438   2.744   1.013   1.185  0.5800  0.1499  0.3887
 1144TIP3    H2 3439   2.800   0.891   1.114  0.8208  0.8835 -0.7040
 1145TIP3   OH2 3440   4.021   5.977   1.951 -0.1904  0.4140  0.1167
 1145TIP3    H1 3441   3.990   6.036   2.020 -0.1314  0.4271  0.1318
 1145TIP3    H2 3442   3.978   5.894   1.971 -1.0169  0.6909 -0.4412
 1146TIP3   OH2 3443   4.842   5.820   2.945 -0.0434  0.4489  1.1908
 1146TIP3    H1 3444   4.760   5.789   2.983 -0.6261  1.4121  0.7603
 1146TIP3    H2 3445   4.822   5.833   2.853 -0.0004  2.5765  1.4353
 1147TIP3   OH2 3446   0.899   5.113   3.716  0.1880 -0.0524 -0.5734
 1147TIP3    H1 3447   0.923   5.032   3.671  1.3595  0.3652 -0.7532
 1147TIP3    H2 3448   0.983   5.149   3.745 -0.2041  1.6272 -1.4192
 1148TIP3   OH2 3449   3.696   0.217   1.864 -0.1988  0.6892 -0.3132
 1148TIP3    H1 3450   3.732   0.302   1.840 -2.4143  1.4189 -1.3226
 1148TIP3    H2 3451   3.650   0.187   1.785  1.5563 -2.0786 -0.4121
 1149TIP3   OH2 3452   3.460   4.550   2.520  0.4066 -0.3800 -0.6644
 1149TIP3    H1 3453   3.444   4.602   2.599 -0.8147  0.9721 -1.7535
 1149TIP3    H2 3454   3.510   4.608   2.462 -1.2764 -0.2359 -2.0412
 1150TIP3   OH2 3455   1.105   5.005   3.935  0.2930 -0.3445 -0.4756
 1150TIP3    H1 3456   1.075   5.012   4.026  2.8579 -0.4737  0.4523
 1150TIP3    H2 3457   1.134   5.093   3.913 -0.2337 -0.3376 -1.1650
 1151TIP3   OH2 3458   0.312   0.027   3.339 -0.0673  0.4094  0.0204
 1151TIP3    H1 3459   0.382  -0.036   3.325 -0.2046  0.2821 -0.0913
 1151TIP3    H2 3460   0.358   0.111   3.349  0.0245  0.5750 -1.5643
 1152TIP3   OH2 3461   1.104   0.996   1.066 -0.3687  0.1424  0.1920
 1152TIP3    H1 3462   1.190   0.955   1.073  0.6487  2.0582 -0.4983
 1152TIP3    H2 3463   1.067   0.988   1.154 -0.0323 -1.7763  0.1921
 1153TIP3   OH2 3464   0.122   5.596   2.624 -0.0643  0.2263 -0.7304
 1153TIP3    H1 3465   0.127   5.535   2.697  1.3891 -0.9117 -1.7184
 1153TIP3    H2 3466   0.060   5.663   2.653 -0.5656 -0.9071  0.9817
 1154TIP3   OH2 3467   4.208   3.529   0.098  0.1923 -0.0631  0.0347
 1154TIP3    H1 3468   4.288   3.537   0.150  1.0856 -1.5897 -1.0318
 1154TIP3    H2 3469   4.139   3.511   0.163  0.8800  0.2895  0.8829
 1155TIP3   OH2 3470   2.948   5.584   2.527  0.3213 -0.0001 -0.8570
 1155TIP3    H1 3471   2.997   5.521   2.474 -2.2057 -1.1299 -1.9987
 1155TIP3    H2 3472   2.861   5.546   2.535 -0.7569  2.4742  0.0761
 1156TIP3   OH2 3473   3.499   5.559   3.681  0.4460  0.2274 -0.0322
 1156TIP3    H1 3474   3.529   5.490   3.739  0.8200 -1.0275 -1.6488
 1156TIP3    H2 3475   3.479   5.515   3.598 -0.2076  1.9093 -0.8372
 1157TIP3   OH2 3476   3.501   0.250   0.582 -0.2869 -0.2318  0.2233
 1157TIP3    H1 3477   3.470   0.285   0.665 -0.5182  2.3732 -0.8669
 1157TIP3    H2 3478   3.593   0.275   0.577  0.0201 -1.2994  0.1102
 1158TIP3   OH2 3479   5.226   2.178   0.091  0.0686 -0.1009  0.0004
 1158TIP3    H1 3480   5.189   2.265   0.076  0.4391  0.1259  0.3685
 1158TIP3    H2 3481   5.283   2.162   0.016  1.4759  0.7890  0.8233
 1159TIP3   OH2 3482   2.343   3.680   4.675  0.1975 -0.0916 -0.1588
 1159TIP3    H1 3483   2.353   3.585   4.679  2.1187 -0.1198 -3.0633
 1159TIP3    H2 3484   2.271   3.695   4.614 -0.7943  0.3781  1.0695
 1160TIP3   OH2 3485   1.268   1.056   4.591  0.0902 -0.5653  0.0424
 1160TIP3    H1 3486   1.234   1.000   4.661  0.6839 -1.8997 -0.7059
 1160TIP3    H2 3487   1.202   1.052   4.522  0.0420 -0.1702  0.0631
 1161TIP3   OH2 3488   3.251   5.090   4.873 -0.3214 -0.1010  0.2486
 1161TIP3    H1 3489   3.219   5.013   4.918  0.9674 -1.6370 -1.3233
 1161TIP3    H2 3490   3.248   5.068   4.780  0.0594  1.7437 -0.2617
 1162TIP3   OH2 3491   2.648   0.053   2.085 -0.1182 -0.3413 -0.4123
 1162TIP3    H1 3492   2.621   0.143   2.066  0.1518 -0.2229 -0.2452
 1162TIP3    H2 3493   2.581  -0.001   2.043 -0.5325 -0.0577 -0.1405
 1163TIP3   OH2 3494   0.695   3.076   3.875 -0.6821  0.1932  0.3094
 1163TIP3    H1 3495   0.692   3.170   3.894  0.8916  0.5410 -0.9436
 1163TIP3    H2 3496   0.633   3.064   3.803 -1.7630  0.0485  1.2541
 1164TIP3   OH2 3497   1.333   1.796   4.138  0.1201 -0.0565 -0.0618
 1164TIP3    H1 3498   1.356   1.708   4.167 -1.0553 -0.2183  0.4202
 1164TIP3    H2 3499   1.417   1.840   4.125  0.7068 -0.4846  2.0002
 1165TIP3   OH2 3500   5.858   2.090   1.710 -0.1395 -0.2011 -0.0261
 1165TIP3    H1 3501   5.904   2.006   1.710  1.6495  0.7175  0.9121
 1165TIP3    H2 3502   5.886   2.134   1.630 -0.8816 -0.3715 -0.3925
 1166TIP3   OH2 3503   5.058   4.661   3.110 -0.4341  0.1303  0.2917
 1166TIP3    H1 3504   4.966   4.635   3.100  0.1961 -2.5539  0.6709
 1166TIP3    H2 3505   5.106   4.578   3.110  1.8348  1.3446  1.8899
 1167TIP3   OH2 3506   1.957   2.083   4.448  0.6038 -0.2616  0.3738
 1167TIP3    H1 3507   1.918   2.014   4.501  2.5967 -0.9428  1.0428
 1167TIP3    H2 3508   2.051   2.062   4.446  0.9625  1.2583 -1.1716
 1168TIP3   OH2 3509   2.485   2.339   4.002  0.1487 -0.2580  0.5838
 1168TIP3    H1 3510   2.412   2.282   3.978  1.7481 -1.4623 -1.8074
 1168TIP3    H2 3511   2.546   2.333   3.928  1.3300  3.0542  1.1102
 1169TIP3   OH2 3512   1.127   3.183   1.555 -0.4567 -0.4228  0.2308
 1169TIP3    H1 3513   1.052   3.242   1.550 -1.1655 -1.3533 -0.2333
 1169TIP3    H2 3514   1.098   3.103   1.512  0.7927 -0.8094  0.0798
 1170TIP3   OH2 3515   2.412   3.545   0.219 -0.6281 -0.0304 -0.3431
 1170TIP3    H1 3516   2.353   3.470   0.213 -1.6227  0.4437  2.0821
 1170TIP3    H2 3517   2.424   3.558   0.313  0.3226  2.2424 -0.7107
 1171TIP3   OH2 3518   1.472   3.291   3.992  0.4702 -0.3777 -0.3617
 1171TIP3    H1 3519   1.386   3.316   3.960  1.2712  0.2584 -2.1779
 1171TIP3    H2 3520   1.481   3.198   3.969  0.9469  0.0168 -1.8658
 1172TIP3   OH2 3521   5.592   0.652   0.887  0.2004  0.3724  0.0645
 1172TIP3    H1 3522   5.652   0.716   0.925  1.4590 -0.5568 -0.3070
 1172TIP3    H2 3523   5.632   0.628   0.803  0.1550 -1.4449  0.5257
 1173TIP3   OH2 3524   2.637   0.268   4.387  0.3411  0.4700  0.6114
 1173TIP3    H1 3525   2.712   0.324   4.406 -0.0465  1.9866 -1.9392
 1173TIP3    H2 3526   2.569   0.298   4.446  1.1049  0.4779  1.5071
 1174TIP3   OH2 3527   3.250   4.508   3.019 -0.1586 -0.4573  0.7861
 1174TIP3    H1 3528   3.200   4.573   3.068 -0.4167 -0.0888  0.0367
 1174TIP3    H2 3529   3.186   4.440   2.997 -1.0449  1.2474 -2.4736
 1175TIP3   OH2 3530   0.672   5.590   2.432 -0.6254 -0.4546  0.6137
 1175TIP3    H1 3531   0.586   5.567   2.397 -0.6752 -2.1422  1.7129
 1175TIP3    H2 3532   0.660   5.676   2.471 -1.7739 -0.5855  0.5936
 1176TIP3   OH2 3533   5.903   5.310   2.453 -0.1654  0.1847 -0.3560
 1176TIP3    H1 3534   5.830   5.354   2.410 -1.6347 -1.4035  0.3682
 1176TIP3    H2 3535   5.880   5.217   2.449  0.7396 -0.1994  1.8120
 1177TIP3   OH2 3536   6.325   4.679   1.195 -0.8382  0.1866 -0.3648
 1177TIP3    H1 3537   6.353   4.769   1.210  0.3973 -0.3642  0.8502
 1177TIP3    H2 3538   6.404   4.633   1.167 -1.3639 -0.6172 -0.5775
 1178TIP3   OH2 3539   4.083   2.643   2.618 -0.1042 -0.4189 -0.0538
 1178TIP3    H1 3540   4.057   2.650   2.710 -0.1262 -1.7925  0.0590
 1178TIP3    H2 3541   4.003   2.618   2.572  0.0659 -0.4331 -0.3458
 1179TIP3   OH2 3542   5.642   3.460   5.134 -0.2074 -0.5398  0.0856
 1179TIP3    H1 3543   5.715   3.407   5.167 -0.1142 -0.2304  0.3851
 1179TIP3    H2 3544   5.585   3.471   5.210 -0.6242 -0.8764 -0.1786
 1180TIP3   OH2 3545   0.960   1.906   0.425  0.0217  0.4972 -0.1526
 1180TIP3    H1 3546   0.917   1.837   0.475 -0.3164  1.3957  0.8375
 1180TIP3    H2 3547   1.005   1.860   0.354 -1.4003 -0.5946 -0.3905
 1181TIP3   OH2 3548   1.104   3.889   1.614  0.0258 -0.6886 -0.4008
 1181TIP3    H1 3549   1.065   3.840   1.686 -0.1762  1.0515  0.7166
 1181TIP3    H2 3550   1.047   3.964   1.601  2.1897  1.2201  0.3693
 1182TIP3   OH2 3551   1.922   1.141   3.932 -0.4907  0.2316  0.3305
 1182TIP3    H1 3552   1.862   1.214   3.916  0.4068  1.1581  1.1354
 1182TIP3    H2 3553   2.009   1.178   3.920 -0.0408 -1.1597 -1.0636
 1183TIP3   OH2 3554   1.377   1.458   0.197  0.0256 -0.4384  0.2444
 1183TIP3    H1 3555   1.358   1.406   0.275 -1.1719 -0.4497 -0.0349
 1183TIP3    H2 3556   1.327   1.417   0.127  0.2799  0.1790 -0.3154
 1184TIP3   OH2 3557   5.212   2.481   3.836 -0.0591  0.1238 -0.4894
 1184TIP3    H1 3558   5.287   2.425   3.815 -0.7341 -0.5797 -1.0946
 1184TIP3    H2 3559   5.219   2.554   3.773 -1.4168 -1.3794 -2.4940
 1185TIP3   OH2 3560   5.349   5.214   1.460 -0.8348 -0.9910  0.1549
 1185TIP3    H1 3561   5.440   5.225   1.486 -0.9931 -0.3925  0.4635
 1185TIP3    H2 3562   5.333   5.120   1.467 -0.4441 -1.0156  0.7741
 1186TIP3   OH2 3563   6.094   4.886   2.111 -0.4547 -0.0063  0.2850
 1186TIP3    H1 3564   6.182   4.854   2.133 -0.6856 -1.6094 -0.9495
 1186TIP3    H2 3565   6.045   4.877   2.193  0.3841  0.4673  0.8638
 1187TIP3   OH2 3566   0.973   3.383   1.852 -0.2479 -0.0485 -0.5166
 1187TIP3    H1 3567   0.913   3.338   1.792 -1.7790 -0.0447  0.9471
 1187TIP3    H2 3568   1.040   3.421   1.795  0.1119 -2.6180 -1.9722
 1188TIP3   OH2 3569   4.819   5.871   0.011  0.3229  0.4807 -0.0006
 1188TIP3    H1 3570   4.829   5.957  -0.031 -1.8785  0.0105 -1.6554
 1188TIP3    H2 3571   4.728   5.869   0.039  0.8645 -0.5944  1.8151
 1189TIP3   OH2 3572   4.424   1.731   4.393  0.0932  0.3458  0.1549
 1189TIP3    H1 3573   4.364   1.806   4.399  0.4195  0.7034 -0.8142
 1189TIP3    H2 3574   4.503   1.761   4.437  1.3579  1.8000 -2.7545
 1190TIP3   OH2 3575   5.605   0.737   3.435 -0.4857 -0.1198  0.1077
 1190TIP3    H1 3576   5.644   0.823   3.449 -0.3551 -0.1282 -0.1877
 1190TIP3    H2 3577   5.614   0.721   3.341 -1.0533 -0.1956  0.0595
 1191TIP3   OH2 3578   5.601   1.002   0.848  0.5656 -0.6369 -0.9198
 1191TIP3    H1 3579   5.595   0.953   0.931  0.1413 -0.3508 -0.7780
 1191TIP3    H2 3580   5.646   1.083   0.872 -0.6382 -0.0064 -0.7082
 1192TIP3   OH2 3581   1.988   3.821   1.459  0.6684  0.5176  0.1728
 1192TIP3    H1 3582   2.081   3.814   1.480  0.6416 -0.5066  0.0132
 1192TIP3    H2 3583   1.973   3.751   1.396 -0.3250  0.3201  0.6089
 1193TIP3   OH2 3584   5.364   5.009   2.000 -0.2568 -0.0238  0.2279
 1193TIP3    H1 3585   5.305   5.047   2.065 -1.2488 -0.7315 -0.2354
 1193TIP3    H2 3586   5.310   4.947   1.951  0.5734  0.1569 -0.9756
 1194TIP3   OH2 3587   1.368   1.690   2.100  0.2260  0.1568 -0.3626
 1194TIP3    H1 3588   1.299   1.635   2.136  0.3226  0.3227  0.0835
 1194TIP3    H2 3589   1.375   1.763   2.161 -0.9239  1.4604 -1.7041
 1195TIP3   OH2 3590   5.504   3.994   4.550  0.5336  0.0578 -0.3589
 1195TIP3    H1 3591   5.540   3.965   4.466 -1.4160 -1.4331 -0.7407
 1195TIP3    H2 3592   5.545   4.079   4.565 -0.3171  1.2259 -3.6727
 1196TIP3   OH2 3593   3.627   5.670   4.129  0.2646  0.8618 -0.1718
 1196TIP3    H1 3594   3.681   5.626   4.063  4.4753  0.3680  3.1897
 1196TIP3    H2 3595   3.644   5.764   4.115  1.2462  0.7544  0.2100
 1197TIP3   OH2 3596   0.435   5.586   2.303  0.1170  0.1761  0.0929
 1197TIP3    H1 3597   0.445   5.676   2.333 -0.7015  0.2790  0.0893
 1197TIP3    H2 3598   0.353   5.586   2.253  0.5336 -0.3936 -0.6094
 1198TIP3   OH2 3599   5.039   2.731   2.344  0.4865  0.5574 -0.0404
 1198TIP3    H1 3600   5.107   2.665   2.340  1.0173  1.0882  0.0897
 1198TIP3    H2 3601   4.993   2.724   2.260 -0.8201 -1.3846  0.7865
 1199TIP3   OH2 3602   0.313   3.418   3.792 -0.2933 -0.6442 -0.4206
 1199TIP3    H1 3603   0.260   3.459   3.724 -0.7326 -0.2272  0.1624
 1199TIP3    H2 3604   0.295   3.325   3.785 -1.2320 -0.4963 -0.1347
 1200TIP3   OH2 3605   5.937   1.967   0.867  0.0726  0.3641  0.0115
 1200TIP3    H1 3606   5.900   2.053   0.884 -0.1772  0.6870 -1.9105
 1200TIP3    H2 3607   5.952   1.966   0.773  1.5478 -1.1291  0.2206
 1201TIP3   OH2 3608   0.102   0.109   5.003  0.4194 -0.3660 -0.1685
 1201TIP3    H1 3609   0.059   0.045   5.060 -1.6604  0.2987 -0.8871
 1201TIP3    H2 3610   0.094   0.192   5.050  0.2506 -0.1085 -0.6462
 1202TIP3   OH2 3611   0.307   5.993   0.179 -0.2112  0.1580 -0.0375
 1202TIP3    H1 3612   0.401   5.984   0.192 -0.1377 -1.1189 -1.1943
 1202TIP3    H2 3613   0.275   5.904   0.171 -1.3023  0.6117 -1.0544
 1203TIP3   OH2 3614   1.182   5.024   1.739  0.1600 -0.4961 -0.4405
 1203TIP3    H1 3615   1.270   5.044   1.772  0.1257 -0.0809 -0.6019
 1203TIP3    H2 3616   1.195   4.945   1.685  0.6313  0.1827 -1.3563
 1204TIP3   OH2 3617   1.549   3.821   1.455  0.3198 -0.5939  0.3802
 1204TIP3    H1 3618   1.602   3.896   1.431 -0.3056  0.7322  2.8063
 1204TIP3    H2 3619   1.597   3.780   1.528  0.6757 -2.6311 -0.9097
 1205TIP3   OH2 3620   4.072   2.636   3.556  0.3556  0.2794  0.3208
 1205TIP3    H1 3621   4.050   2.544   3.574 -0.5039  0.3146 -0.4872
 1205TIP3    H2 3622   4.168   2.639   3.559  0.3690 -0.5130  0.9609
 1206TIP3   OH2 3623   5.792   1.927   5.044  0.1699  0.4826  0.5013
 1206TIP3    H1 3624   5.784   1.910   4.950 -0.4498  0.3540  0.5785
 1206TIP3    H2 3625   5.873   1.883   5.069 -0.5376 -0.9424  0.3632
 1207TIP3   OH2 3626   5.029   4.642   3.832 -0.0102 -0.0364 -0.6073
 1207TIP3    H1 3627   5.070   4.616   3.914 -0.1275 -0.9585 -0.8286
 1207TIP3    H2 3628   5.036   4.565   3.776 -0.6091  0.3287 -1.2048
 1208TIP3   OH2 3629   5.741   4.545   4.098 -0.2768  0.2776  0.2203
 1208TIP3    H1 3630   5.778   4.582   4.179 -0.1783 -0.2276  0.4143
 1208TIP3    H2 3631   5.690   4.469   4.128  0.8434 -0.7152 -0.2980
 1209TIP3   OH2 3632   1.853   3.834   4.014  0.4824  0.0386 -0.1570
 1209TIP3    H1 3633   1.823   3.810   4.101  0.6495  2.9076  0.7900
 1209TIP3    H2 3634   1.789   3.899   3.984  1.8327  0.9820 -1.0829
 1210TIP3   OH2 3635   0.415   3.946   3.642 -0.2570 -0.2132  0.0524
 1210TIP3    H1 3636   0.338   3.994   3.673  2.0449  1.6126  3.6578
 1210TIP3    H2 3637   0.405   3.858   3.676 -0.7976 -0.0120  0.4178
 1211TIP3   OH2 3638   0.302   0.952   3.073  0.2806 -0.6470  0.0711
 1211TIP3    H1 3639   0.242   1.024   3.091 -0.8222 -0.7419 -2.6727
 1211TIP3    H2 3640   0.250   0.873   3.088  1.0083 -0.8783  1.5534
 1212TIP3   OH2 3641   5.185   2.357   2.694 -0.1172  0.0374 -0.2440
 1212TIP3    H1 3642   5.142   2.322   2.616 -0.7161 -1.5744  0.7595
 1212TIP3    H2 3643   5.126   2.424   2.726  0.8138  1.7514 -1.9330
 1213TIP3   OH2 3644   5.998   5.506   1.012 -0.0768 -0.9255 -0.4515
 1213TIP3    H1 3645   5.943   5.540   1.082  0.3038 -1.2063 -0.0081
 1213TIP3    H2 3646   6.087   5.507   1.048  0.3147  0.0908 -1.3667
 1214TIP3   OH2 3647   4.268   1.930   4.521 -0.1956  0.4543  0.5608
 1214TIP3    H1 3648   4.186   1.950   4.477 -1.1295 -2.3095  0.8243
 1214TIP3    H2 3649   4.246   1.932   4.614 -0.2880 -1.2325  0.6114
 1215TIP3   OH2 3650   3.477   1.012   3.782 -0.2450  0.3805 -0.4977
 1215TIP3    H1 3651   3.488   1.072   3.856 -0.0453  0.3974 -0.5405
 1215TIP3    H2 3652   3.566   0.996   3.751 -0.3619  0.7077 -1.0063
 1216TIP3   OH2 3653   1.353   2.872   1.884  0.5065  0.0970  0.5310
 1216TIP3    H1 3654   1.337   2.934   1.955 -2.5257 -1.1036  1.0586
 1216TIP3    H2 3655   1.363   2.788   1.928 -0.4811 -0.5168 -0.3814
 1217TIP3   OH2 3656   3.974   3.828   3.617  0.0927  0.1703  0.0476
 1217TIP3    H1 3657   3.932   3.753   3.575 -4.0267  1.3622  1.5029
 1217TIP3    H2 3658   3.978   3.895   3.549 -1.1480  0.2217 -0.0099
 1218TIP3   OH2 3659   3.678   2.900   2.222  0.1614  0.6198 -0.1651
 1218TIP3    H1 3660   3.604   2.859   2.179  0.7471 -0.8753  0.1737
 1218TIP3    H2 3661   3.644   2.982   2.256 -1.8130 -0.7373  1.3769
 1219TIP3   OH2 3662   3.549   3.297   1.403 -0.6673  0.5244 -0.0912
 1219TIP3    H1 3663   3.540   3.391   1.386  1.5422  0.7149 -0.5135
 1219TIP3    H2 3664   3.541   3.256   1.317  3.2457  0.8393 -0.7573
 1220TIP3   OH2 3665   5.155   0.517   3.508 -0.0429 -0.1158 -0.2246
 1220TIP3    H1 3666   5.250   0.522   3.499 -0.1150  1.3488 -0.3608
 1220TIP3    H2 3667   5.131   0.594   3.560 -1.0330 -1.1662  0.9561
 1221TIP3   OH2 3668   0.344   1.283   2.196  0.1675  0.5330 -0.4415
 1221TIP3    H1 3669   0.328   1.302   2.103 -0.4985  1.1896 -0.2129
 1221TIP3    H2 3670   0.390   1.361   2.228 -1.2103  1.1311  0.1690
 1222TIP3   OH2 3671   1.238   5.332   1.675 -0.0825 -0.7144  0.6638
 1222TIP3    H1 3672   1.303   5.314   1.743  1.0354  0.2268 -0.1238
 1222TIP3    H2 3673   1.168   5.378   1.721  1.0102  0.6056  1.0735
 1223TIP3   OH2 3674   4.592   0.736   4.209 -0.2930  0.3733  0.1839
 1223TIP3    H1 3675   4.618   0.654   4.250 -1.0799  0.6463  1.2880
 1223TIP3    H2 3676   4.499   0.726   4.193 -0.1224  0.5366 -0.9510
 1224TIP3   OH2 3677   4.321   2.861   0.685 -0.3491  0.1012  0.4979
 1224TIP3    H1 3678   4.272   2.897   0.759 -1.4279  1.8126 -0.9702
 1224TIP3    H2 3679   4.254   2.845   0.618  0.6167 -1.2449 -0.1896
 1225TIP3   OH2 3680   2.318   2.387   2.071  0.5959 -0.6061  0.2336
 1225TIP3    H1 3681   2.248   2.355   2.014  0.7701  0.5244 -0.6766
 1225TIP3    H2 3682   2.337   2.475   2.037 -0.1236  0.6328  2.8113
 1226TIP3   OH2 3683   2.678   5.188   2.695 -0.5054 -0.0747 -0.2046
 1226TIP3    H1 3684   2.589   5.166   2.723 -0.7879  0.8297 -0.3670
 1226TIP3    H2 3685   2.701   5.120   2.632  0.0152 -1.9781  1.8942
 1227TIP3   OH2 3686   3.042   1.537   1.692  0.3441 -0.1765 -0.3216
 1227TIP3    H1 3687   3.014   1.507   1.778 -0.3195 -0.8171 -0.7545
 1227TIP3    H2 3688   3.108   1.604   1.711  2.0184 -2.0094  0.6806
 1228TIP3   OH2 3689   0.675   2.294   2.549 -0.2502 -0.4125 -0.4443
 1228TIP3    H1 3690   0.732   2.266   2.621  0.3495 -0.3922 -0.8992
 1228TIP3    H2 3691   0.689   2.229   2.480  0.4918  0.4931 -1.1841
 1229TIP3   OH2 3692   3.526   0.489   0.379  0.3226 -0.6401 -0.0755
 1229TIP3    H1 3693   3.528   0.472   0.473  0.6341 -0.8514 -0.1178
 1229TIP3    H2 3694   3.580   0.568   0.368  1.2205 -1.2600 -0.2024
 1230TIP3   OH2 3695   0.279   2.886   3.929 -0.2141  0.2324 -0.3303
 1230TIP3    H1 3696   0.284   2.812   3.869  0.2786 -0.5511  0.6434
 1230TIP3    H2 3697   0.370   2.911   3.944 -0.3971  1.8290 -1.5540
 1231TIP3   OH2 3698   3.458   5.974   3.967 -0.6973 -0.1214  1.2071
 1231TIP3    H1 3699   3.456   6.056   3.918  1.1545 -1.5510 -1.5014
 1231TIP3    H2 3700   3.366   5.949   3.976 -1.2293  1.6747  1.1107
 1232TIP3   OH2 3701   4.609   0.765   2.902  0.0937  0.2710 -0.5799
 1232TIP3    H1 3702   4.666   0.835   2.932 -0.1286 -0.0551  0.6602
 1232TIP3    H2 3703   4.612   0.700   2.972 -1.3114 -0.0320 -0.7745
 1233TIP3   OH2 3704   3.198   1.474   2.856 -0.4867 -0.4225 -0.0473
 1233TIP3    H1 3705   3.254   1.400   2.880  1.1895  0.4542 -1.1332
 1233TIP3    H2 3706   3.246   1.551   2.884 -1.0539  0.3742 -1.1852
 1234TIP3   OH2 3707   4.363   3.477   2.109  0.0683  0.0795  0.0305
 1234TIP3    H1 3708   4.400   3.544   2.050  0.1603  0.1947  0.2180
 1234TIP3    H2 3709   4.402   3.395   2.079  0.3841  0.1853  0.1490
 1235TIP3   OH2 3710   3.048   4.975   1.601 -0.2894 -0.0268 -0.0794
 1235TIP3    H1 3711   3.086   4.917   1.535 -1.1571  0.3930 -0.9716
 1235TIP3    H2 3712   2.980   5.024   1.555 -0.6790  0.5442  1.0423
 1236TIP3   OH2 3713   3.957   3.949   4.806 -0.1707  0.8917 -0.4988
 1236TIP3    H1 3714   4.020   4.012   4.839  0.2239  0.3105 -0.1272
 1236TIP3    H2 3715   3.937   3.893   4.881 -1.5489  1.3941 -0.4542
 1237TIP3   OH2 3716   2.143   1.037   1.702  0.2665 -0.3986  0.2270
 1237TIP3    H1 3717   2.128   1.128   1.678  0.1385 -0.5474 -0.2666
 1237TIP3    H2 3718   2.098   0.986   1.634  0.4729 -0.8275  0.4061
 1238TIP3   OH2 3719   4.986   0.394   3.273 -0.6751 -0.1930 -0.1879
 1238TIP3    H1 3720   4.928   0.351   3.209  0.5421  0.0432 -1.5053
 1238TIP3    H2 3721   5.022   0.469   3.225  1.3995 -0.8457  0.2711
 1239TIP3   OH2 3722   2.156   4.796   2.688 -0.3647  0.1192  0.1953
 1239TIP3    H1 3723   2.128   4.887   2.679 -2.1670 -0.2558  1.5733
 1239TIP3    H2 3724   2.146   4.759   2.600  0.8462  1.3277 -0.4987
 1240TIP3   OH2 3725   2.984   5.219   0.200  0.0420  0.0220  0.6252
 1240TIP3    H1 3726   3.058   5.266   0.162 -0.2789  0.3967  0.4632
 1240TIP3    H2 3727   2.955   5.273   0.273 -2.3103  1.7469 -1.4272
 1241TIP3   OH2 3728   4.478   4.300   3.346  0.4870  0.0649  0.0073
 1241TIP3    H1 3729   4.462   4.211   3.313  1.5953 -0.2742  0.3423
 1241TIP3    H2 3730   4.546   4.335   3.288 -0.0606  0.7738 -0.2310
 1242TIP3   OH2 3731   1.250   1.292   5.006  0.8587 -0.6832 -0.0261
 1242TIP3    H1 3732   1.314   1.361   5.020 -0.2038  0.0174  1.7318
 1242TIP3    H2 3733   1.193   1.296   5.083 -0.7913 -1.8187 -1.1160
 1243TIP3   OH2 3734   3.758   0.489   3.063  0.1708  0.2406  0.2647
 1243TIP3    H1 3735   3.824   0.480   2.993  0.5984  0.0270  0.6901
 1243TIP3    H2 3736   3.764   0.582   3.087  0.9981  0.0220  0.9522
 1244TIP3   OH2 3737   1.974   4.707   2.957 -0.6317 -0.1064  0.3947
 1244TIP3    H1 3738   1.896   4.656   2.935 -0.2914  0.0712 -1.3727
 1244TIP3    H2 3739   1.973   4.712   3.052 -2.4695 -0.5822  0.4429
 1245TIP3   OH2 3740   0.759   1.964   4.553  0.0555  0.0752 -0.0357
 1245TIP3    H1 3741   0.823   2.028   4.522 -0.0993  0.8095  1.1075
 1245TIP3    H2 3742   0.798   1.879   4.532  0.4897  0.5260 -1.1298
 1246TIP3   OH2 3743   3.106   5.801   3.180  0.1447 -0.2005  0.1841
 1246TIP3    H1 3744   3.140   5.712   3.192 -0.5464 -0.5922 -0.7268
 1246TIP3    H2 3745   3.184   5.855   3.171  0.5714 -0.7059  0.7571
 1247TIP3   OH2 3746   6.186   5.266   4.360 -0.4049  0.4691 -0.2363
 1247TIP3    H1 3747   6.153   5.197   4.302  0.3239 -0.3453  0.3041
 1247TIP3    H2 3748   6.210   5.337   4.300 -0.5396 -0.0006 -0.8626
 1248TIP3   OH2 3749   1.192   2.161   5.112 -0.2653  0.3112  0.4186
 1248TIP3    H1 3750   1.158   2.072   5.124 -1.0224  0.7750  1.8788
 1248TIP3    H2 3751   1.285   2.154   5.133  0.0978 -0.4727 -1.2476
 1249TIP3   OH2 3752   4.125   1.170   3.093 -0.2385 -0.3237  0.5869
 1249TIP3    H1 3753   4.041   1.216   3.099 -1.5844 -2.3844 -1.0743
 1249TIP3    H2 3754   4.156   1.165   3.183 -1.4274  1.2432  1.1432
 1250TIP3   OH2 3755   5.379   3.974   1.540 -0.6061 -0.2607  0.4221
 1250TIP3    H1 3756   5.323   3.901   1.511 -0.9429 -0.2986  1.1389
 1250TIP3    H2 3757   5.343   4.051   1.497 -0.5401 -0.4530  0.0254
 1251TIP3   OH2 3758   4.045   3.257   3.986 -0.1182  0.5701  0.2619
 1251TIP3    H1 3759   4.091   3.335   4.017 -0.2864  0.0431  1.9345
 1251TIP3    H2 3760   4.011   3.215   4.065  0.2161 -1.3748 -0.5452
 1252TIP3   OH2 3761   5.917   4.931   0.043 -0.0132 -0.2450  0.0932
 1252TIP3    H1 3762   5.883   4.853  -0.001  0.2830 -0.9369  1.0467
 1252TIP3    H2 3763   5.873   5.004   0.000  2.2212 -0.6275 -3.2194
 1253TIP3   OH2 3764   0.972   1.226   0.077  0.4460  0.1570 -0.3716
 1253TIP3    H1 3765   0.931   1.234   0.163  0.8441 -1.2091 -0.0232
 1253TIP3    H2 3766   0.970   1.314   0.040 -0.1936  0.6582  0.8223
 1254TIP3   OH2 3767   0.197   5.191   4.337 -0.2539 -0.2089  0.5107
 1254TIP3    H1 3768   0.146   5.239   4.273 -1.3282 -1.6871  0.2278
 1254TIP3    H2 3769   0.278   5.242   4.346 -1.1190  1.3413 -0.1545
 1255TIP3   OH2 3770   0.329   3.684   3.342 -0.0855 -0.1931 -0.1533
 1255TIP3    H1 3771   0.396   3.681   3.410 -1.0277 -0.0861  0.8025
 1255TIP3    H2 3772   0.315   3.777   3.327 -0.5188 -0.2085  0.1532
 1256TIP3   OH2 3773   2.796   2.713   1.428  0.0936 -0.1461 -0.6978
 1256TIP3    H1 3774   2.727   2.648   1.428 -0.0820 -0.0090 -2.2428
 1256TIP3    H2 3775   2.877   2.663   1.441 -0.1955 -0.4124  0.1552
 1257TIP3   OH2 3776   4.443   5.999   4.781  0.0821  0.4028 -0.5236
 1257TIP3    H1 3777   4.398   6.066   4.833 -1.4131 -0.3231 -0.8334
 1257TIP3    H2 3778   4.419   5.916   4.822 -0.5137 -0.1308 -1.8662
 1258TIP3   OH2 3779   5.220   2.090   1.880  0.2736 -0.0157 -0.2242
 1258TIP3    H1 3780   5.141   2.115   1.929 -0.4561 -1.9911 -0.2762
 1258TIP3    H2 3781   5.241   2.166   1.827 -1.6632  0.5494 -0.2484
 1259TIP3   OH2 3782   0.854   5.681   1.329  0.1971  0.5553 -0.1006
 1259TIP3    H1 3783   0.854   5.649   1.420  0.4262  1.7765  0.3433
 1259TIP3    H2 3784   0.772   5.730   1.321  0.1779  0.4560 -0.5630
 1260TIP3   OH2 3785   5.826   5.743   0.450  0.2069  0.2261  0.3250
 1260TIP3    H1 3786   5.736   5.710   0.449  0.7609 -1.4653  1.7551
 1260TIP3    H2 3787   5.868   5.700   0.376 -0.2636  1.4987 -0.7331
 1261TIP3   OH2 3788   4.001   1.188   3.759 -0.4747 -0.1884 -0.1791
 1261TIP3    H1 3789   3.929   1.245   3.788  0.7774  2.2037 -1.4339
 1261TIP3    H2 3790   3.986   1.176   3.665  0.0668 -0.7456 -0.1970
 1262TIP3   OH2 3791   2.843   4.348   2.766 -0.4509 -0.2034 -0.0801
 1262TIP3    H1 3792   2.766   4.323   2.817 -1.1973  1.0777 -0.5369
 1262TIP3    H2 3793   2.822   4.320   2.676 -1.0646  1.4658 -0.4945
 1263TIP3   OH2 3794   2.255   5.091   3.220  0.0505  0.4062 -0.1185
 1263TIP3    H1 3795   2.252   5.181   3.251  0.7289  0.5411 -0.4184
 1263TIP3    H2 3796   2.254   5.038   3.300  1.3194  0.7389  0.1460
 1264TIP3   OH2 3797   0.521   1.402   1.610  0.2828 -0.0449  0.1880
 1264TIP3    H1 3798   0.589   1.411   1.544 -0.6431 -1.2226 -0.9988
 1264TIP3    H2 3799   0.538   1.316   1.650 -0.6199 -0.4621 -0.2946
 1265TIP3   OH2 3800   3.169   2.652   4.498  0.1040  0.0515 -0.4740
 1265TIP3    H1 3801   3.075   2.645   4.512 -0.0110  0.3440 -1.0584
 1265TIP3    H2 3802   3.185   2.608   4.414  0.7405 -1.4704  0.4038
 1266TIP3   OH2 3803   1.609   2.357   0.636 -0.2475  0.1028 -0.2126
 1266TIP3    H1 3804   1.602   2.452   0.630 -0.0638  0.1168 -0.2034
 1266TIP3    H2 3805   1.678   2.334   0.573  0.2219  0.0439  0.3207
 1267TIP3   OH2 3806   1.073   3.082   1.113 -0.1052 -0.6267 -0.0148
 1267TIP3    H1 3807   1.155   3.111   1.071 -0.1209 -0.4540  0.0703
 1267TIP3    H2 3808   1.014   3.157   1.103 -0.3071 -0.8105 -0.2180
 1268TIP3   OH2 3809   3.563   2.871   3.810  0.2942 -0.1559 -0.0798
 1268TIP3    H1 3810   3.658   2.882   3.810  0.2018  1.5062 -2.7825
 1268TIP3    H2 3811   3.549   2.786   3.768  0.5255 -1.6052  2.5193
 1269TIP3   OH2 3812   0.236   0.319   0.308 -0.0895 -0.0696 -0.0926
 1269TIP3    H1 3813   0.217   0.276   0.391 -2.7984 -0.3939 -0.7927
 1269TIP3    H2 3814   0.207   0.409   0.320  1.0947  0.3341 -0.1717
 1270TIP3   OH2 3815   5.566   5.013   2.271  0.0545  0.2762  0.1718
 1270TIP3    H1 3816   5.518   5.090   2.241  0.2811 -0.2739 -1.7374
 1270TIP3    H2 3817   5.540   4.944   2.211  2.0305 -0.4246  0.0608
 1271TIP3   OH2 3818   3.774   3.211   1.577  0.1971  0.0832  0.5799
 1271TIP3    H1 3819   3.709   3.257   1.523 -0.4807 -1.0157  0.4025
 1271TIP3    H2 3820   3.733   3.205   1.663 -0.0966 -0.8836  0.3883
 1272TIP3   OH2 3821   3.034   0.213   0.487 -0.1749 -0.3592  0.1289
 1272TIP3    H1 3822   3.027   0.208   0.391 -0.2648 -0.4683  0.1412
 1272TIP3    H2 3823   3.112   0.161   0.507  1.1912  1.5187 -0.0768
 1273TIP3   OH2 3824   5.800   2.634   2.924  0.5730  0.3742  0.4193
 1273TIP3    H1 3825   5.894   2.623   2.940  0.5538  0.7557  0.8372
 1273TIP3    H2 3826   5.779   2.569   2.858  1.3444  1.0087 -0.4744
 1274TIP3   OH2 3827   4.257   2.635   1.242 -0.0625 -0.1690  0.1059
 1274TIP3    H1 3828   4.282   2.564   1.183 -0.8038 -1.5662  1.3863
 1274TIP3    H2 3829   4.335   2.652   1.295 -0.0248 -0.3693  0.1135
 1275TIP3   OH2 3830   4.094   3.813   0.418 -0.0209 -0.2460 -0.0150
 1275TIP3    H1 3831   4.167   3.868   0.448 -0.1806 -0.7419  1.3309
 1275TIP3    H2 3832   4.081   3.839   0.327  2.7080 -1.0633 -0.7339
 1276TIP3   OH2 3833   0.352   1.753   0.764  0.3918 -0.1012 -0.0893
 1276TIP3    H1 3834   0.329   1.773   0.674 -0.6236  0.5973  0.3152
 1276TIP3    H2 3835   0.291   1.684   0.790  0.8989 -0.5384 -0.0311
 1277TIP3   OH2 3836   2.584   3.072   1.978  0.3510  0.4429 -0.1792
 1277TIP3    H1 3837   2.552   3.131   1.909 -1.2500 -0.0129  0.1449
 1277TIP3    H2 3838   2.564   2.984   1.945 -0.6508  0.2229  0.9409
 1278TIP3   OH2 3839   6.293   4.755   3.879 -0.7775 -0.6222  0.5931
 1278TIP3    H1 3840   6.314   4.676   3.829 -0.5792 -0.1038 -0.1490
 1278TIP3    H2 3841   6.316   4.827   3.821 -3.6044 -0.0023  0.1199
 1279TIP3   OH2 3842   0.636   3.948   2.629  0.4529  0.2327  0.6537
 1279TIP3    H1 3843   0.594   3.951   2.542  0.7193  0.6255  0.5351
 1279TIP3    H2 3844   0.617   3.860   2.662 -0.7223  0.4921  0.7227
 1280TIP3   OH2 3845   4.723   3.597   2.745 -0.3713 -0.0154  0.3350
 1280TIP3    H1 3846   4.677   3.660   2.690 -0.0731 -0.5129 -0.5156
 1280TIP3    H2 3847   4.708   3.627   2.835  2.0172  2.8350 -0.0903
 1281TIP3   OH2 3848   0.736   4.152   2.021 -0.1097 -0.2963  0.5299
 1281TIP3    H1 3849   0.716   4.117   2.107  1.3635 -3.6923 -0.3578
 1281TIP3    H2 3850   0.684   4.098   1.961  1.6415 -0.4613 -0.8996
 1282TIP3   OH2 3851   0.190   4.512   5.021  0.2471  0.4094  0.2680
 1282TIP3    H1 3852   0.245   4.559   5.084 -1.0224 -0.5226  2.1652
 1282TIP3    H2 3853   0.100   4.527   5.052 -0.6058  1.4790 -2.4375
 1283TIP3   OH2 3854   2.240   4.461   1.196 -0.7777  0.4696  0.2114
 1283TIP3    H1 3855   2.283   4.535   1.239 -0.6054 -1.1482  3.0842
 1283TIP3    H2 3856   2.148   4.486   1.191 -0.9373  0.4761  2.2775
 1284TIP3   OH2 3857   4.038   0.450   0.365  0.1608 -0.3604  0.4207
 1284TIP3    H1 3858   4.087   0.370   0.346  0.2714 -0.3255  0.5508
 1284TIP3    H2 3859   4.002   0.435   0.453  1.4578  0.3427  1.0997
 1285TIP3   OH2 3860   5.056   0.828   2.356 -0.0303 -0.4054 -0.7453
 1285TIP3    H1 3861   5.044   0.822   2.450  0.2974  1.1064 -0.5868
 1285TIP3    H2 3862   4.977   0.788   2.319  0.5351 -2.4014  0.1239
 1286TIP3   OH2 3863   4.428   4.277   0.118 -0.1207 -0.5369  0.8075
 1286TIP3    H1 3864   4.369   4.352   0.121  0.1384 -0.3409  1.0284
 1286TIP3    H2 3865   4.514   4.313   0.139 -0.0015 -0.8991  0.9488
 1287TIP3   OH2 3866   5.721   1.887   1.058  0.0632  0.2225 -0.2500
 1287TIP3    H1 3867   5.791   1.940   1.019  0.5226  1.4310  2.0182
 1287TIP3    H2 3868   5.640   1.930   1.032  0.3372  0.7801 -0.1849
 1288TIP3   OH2 3869   3.573   4.044   0.429 -0.2791 -0.5929  0.3863
 1288TIP3    H1 3870   3.481   4.050   0.454  0.2534  1.2008  2.1348
 1288TIP3    H2 3871   3.609   4.131   0.449  1.6264 -1.0078 -0.9952
 1289TIP3   OH2 3872   0.539   3.866   3.060  0.1848 -0.0648 -0.5084
 1289TIP3    H1 3873   0.515   3.840   3.148 -0.6524 -0.7641 -0.9293
 1289TIP3    H2 3874   0.634   3.853   3.056  0.0786 -1.0816 -0.0421
 1290TIP3   OH2 3875   5.437   5.861   4.990 -0.4517 -0.0213  0.7261
 1290TIP3    H1 3876   5.394   5.946   4.975 -0.2391 -0.3401 -2.1566
 1290TIP3    H2 3877   5.521   5.884   5.031 -0.9441  1.0484  1.1777
 1291TIP3   OH2 3878   1.467   3.073   5.101  0.0637  0.4237 -0.0689
 1291TIP3    H1 3879   1.496   2.991   5.142 -1.2697  0.2379  0.5829
 1291TIP3    H2 3880   1.373   3.076   5.119  0.0487  1.9976 -0.2725
 1292TIP3   OH2 3881   1.204   4.153   1.761  0.2148 -0.2453 -0.1187
 1292TIP3    H1 3882   1.254   4.140   1.842 -0.8384  0.5576  0.6972
 1292TIP3    H2 3883   1.112   4.147   1.788 -0.1647  0.3511 -1.2044
 1293TIP3   OH2 3884   1.490   5.597   3.606  0.1973  0.3900 -0.7879
 1293TIP3    H1 3885   1.414   5.628   3.654 -0.0272  0.2410 -1.0462
 1293TIP3    H2 3886   1.559   5.661   3.626  0.0404  0.4535 -0.4550
 1294TIP3   OH2 3887   5.716   0.329   3.838 -0.9734 -0.3308 -0.1385
 1294TIP3    H1 3888   5.809   0.341   3.816 -0.9372 -1.1194 -0.4554
 1294TIP3    H2 3889   5.687   0.415   3.865  0.2175 -0.3513  1.3532
 1295TIP3   OH2 3890   4.476   0.157   2.836  0.2908 -0.1777  0.2748
 1295TIP3    H1 3891   4.384   0.148   2.811  0.2354 -1.0196  0.7405
 1295TIP3    H2 3892   4.510   0.226   2.779 -0.1818 -1.0442 -1.1030
 1296TIP3   OH2 3893   5.243   0.827   3.125 -0.0462  0.2260  0.0133
 1296TIP3    H1 3894   5.155   0.803   3.096  0.2329  1.2213 -1.8293
 1296TIP3    H2 3895   5.231   0.855   3.216 -1.7843  1.0400 -0.4217
 1297TIP3   OH2 3896   2.190   5.491   0.274  0.1451 -0.2081 -0.0360
 1297TIP3    H1 3897   2.113   5.482   0.217 -0.0207  5.5055 -1.2696
 1297TIP3    H2 3898   2.161   5.550   0.343  3.0520  1.0569  0.2173
 1298TIP3   OH2 3899   4.731   2.702   4.349 -0.1259  0.2389  0.1251
 1298TIP3    H1 3900   4.647   2.726   4.390  0.5433  2.4995  0.2983
 1298TIP3    H2 3901   4.751   2.776   4.291  0.8622 -1.1224 -1.3394
 1299TIP3   OH2 3902   4.629   2.160   3.035 -0.0738  0.2091 -0.1966
 1299TIP3    H1 3903   4.600   2.176   3.124 -0.5292 -0.0568 -0.2919
 1299TIP3    H2 3904   4.551   2.171   2.981 -0.2101 -1.2930 -0.3715
 1300TIP3   OH2 3905   2.016   0.886   4.023 -0.2037  0.3024 -0.2455
 1300TIP3    H1 3906   2.025   0.808   3.968 -0.7321 -0.2312  0.4095
 1300TIP3    H2 3907   1.999   0.957   3.961 -3.0080 -0.6376 -0.7203
 1301TIP3   OH2 3908   3.251   0.311   2.124  0.8096  0.0418  0.0446
 1301TIP3    H1 3909   3.269   0.403   2.102 -0.1906  0.4034  0.6361
 1301TIP3    H2 3910   3.165   0.294   2.085  0.6432 -0.3980  0.5999
 1302TIP3   OH2 3911   0.250   3.778   4.562 -0.0983 -0.2378 -0.1348
 1302TIP3    H1 3912   0.322   3.840   4.549 -0.2612  0.3517  1.4590
 1302TIP3    H2 3913   0.293   3.692   4.565  0.0599 -0.3498 -2.9689
 1303TIP3   OH2 3914   6.281   2.715   0.345 -0.3659 -0.3171  0.3810
 1303TIP3    H1 3915   6.256   2.765   0.423  0.5303 -0.0642  0.5138
 1303TIP3    H2 3916   6.344   2.770   0.300  0.8767 -1.4374  0.6855
 1304TIP3   OH2 3917   5.825   3.675   4.589  0.0076  0.0701 -0.0316
 1304TIP3    H1 3918   5.912   3.712   4.574 -0.8296  2.3373  0.3364
 1304TIP3    H2 3919   5.825   3.651   4.682  0.7858 -1.6605 -0.4239
 1305TIP3   OH2 3920   3.736   3.585   0.217 -0.3532  0.0777 -0.3500
 1305TIP3    H1 3921   3.774   3.529   0.150 -0.5734  0.3465 -0.7041
 1305TIP3    H2 3922   3.643   3.590   0.194 -0.4527  0.0819  0.0385
 1306TIP3   OH2 3923   3.411   0.999   1.259  0.2112 -0.3335 -0.6378
 1306TIP3    H1 3924   3.321   0.970   1.243 -0.4970  0.7288  1.2654
 1306TIP3    H2 3925   3.456   0.919   1.288 -0.5102 -0.5517 -0.0859
 1307TIP3   OH2 3926   6.313   5.775   4.201  0.4247 -0.3977 -0.4876
 1307TIP3    H1 3927   6.362   5.827   4.137  2.6187 -0.8459  0.7342
 1307TIP3    H2 3928   6.379   5.722   4.245 -1.2142 -1.2382  1.1052
 1308TIP3   OH2 3929   2.801   4.095   1.831 -0.0842  0.2881 -0.5118
 1308TIP3    H1 3930   2.834   4.150   1.760 -1.3035  0.4384 -0.9905
 1308TIP3    H2 3931   2.712   4.073   1.804 -0.6358  0.4932  1.0474
 1309TIP3   OH2 3932   2.855   4.653   1.502  0.3709  0.6635 -0.0648
 1309TIP3    H1 3933   2.942   4.633   1.536  0.7242 -0.7901 -1.7279
 1309TIP3    H2 3934   2.869   4.723   1.438  0.4186  0.0056 -0.7813
 1310TIP3   OH2 3935   4.502   0.903   4.622 -0.3476  0.5233 -0.4582
 1310TIP3    H1 3936   4.562   0.930   4.693  0.0744  2.5103 -1.5028
 1310TIP3    H2 3937   4.510   0.808   4.620 -0.0402  0.4242  1.8606
 1311TIP3   OH2 3938   2.875   1.045   3.454 -0.3923 -0.1584  0.7463
 1311TIP3    H1 3939   2.957   1.012   3.418 -0.1104 -1.3491  2.4321
 1311TIP3    H2 3940   2.898   1.080   3.540 -1.5048  0.2690  0.8886
 1312TIP3   OH2 3941   2.108   4.736   2.419  0.1985  0.9876  0.2990
 1312TIP3    H1 3942   2.047   4.810   2.419 -1.2132 -0.1418  0.6096
 1312TIP3    H2 3943   2.052   4.659   2.425  1.3495 -0.4076 -3.7357
 1313TIP3   OH2 3944   4.656   0.318   3.723  0.7335  0.4968 -0.2128
 1313TIP3    H1 3945   4.663   0.383   3.792 -1.5859 -1.5197  2.1148
 1313TIP3    H2 3946   4.721   0.252   3.744  1.4143  0.8285 -1.1808
 1314TIP3   OH2 3947   0.062   5.075   3.459 -0.6929  0.7928  0.3501
 1314TIP3    H1 3948   0.123   5.143   3.429 -0.0486 -0.1974 -0.6419
 1314TIP3    H2 3949   0.051   5.017   3.384 -1.1451 -0.2741  1.2116
 1315TIP3   OH2 3950   5.147   1.130   2.991 -0.0828 -0.0480  0.2014
 1315TIP3    H1 3951   5.058   1.149   2.961  0.5718  0.9026 -1.2662
 1315TIP3    H2 3952   5.140   1.124   3.087 -1.3400  2.2826  0.3112
 1316TIP3   OH2 3953   3.779   1.409   1.791  0.4672  0.3682  0.3263
 1316TIP3    H1 3954   3.699   1.370   1.759 -0.4039  0.1038  2.6216
 1316TIP3    H2 3955   3.811   1.462   1.718 -1.2845 -0.2437 -0.9502
 1317TIP3   OH2 3956   1.096   1.301   3.058  0.0297  0.4274 -0.0113
 1317TIP3    H1 3957   1.131   1.289   2.970 -0.3135  0.2984 -0.1308
 1317TIP3    H2 3958   1.054   1.387   3.056  2.5751  1.7790  0.8743
 1318TIP3   OH2 3959   4.804   4.708   2.673 -0.1972  0.4633 -0.1205
 1318TIP3    H1 3960   4.737   4.748   2.618 -0.7223 -0.0181  0.1515
 1318TIP3    H2 3961   4.841   4.781   2.723  0.3255  0.9084 -1.1466
 1319TIP3   OH2 3962   0.351   4.879   3.069  0.4713  0.3360  0.2103
 1319TIP3    H1 3963   0.349   4.892   2.974 -0.4526  0.0420  0.1733
 1319TIP3    H2 3964   0.382   4.962   3.105 -1.0102  1.1203 -0.2533
 1320TIP3   OH2 3965   1.705   2.723   1.765  0.4508  0.3637  0.3973
 1320TIP3    H1 3966   1.642   2.663   1.725 -0.5467  0.5737  1.5772
 1320TIP3    H2 3967   1.777   2.667   1.793  0.0888 -0.1152  0.3851
 1321TIP3   OH2 3968   2.037   3.802   1.874 -0.7788 -0.2030  0.4977
 1321TIP3    H1 3969   2.089   3.754   1.939 -1.4645 -0.3620  0.9389
 1321TIP3    H2 3970   2.082   3.885   1.864  1.2794 -1.4283 -1.3448
 1322TIP3   OH2 3971   4.504   5.825   4.580  0.0169 -0.7973 -0.3341
 1322TIP3    H1 3972   4.568   5.862   4.518 -0.4595 -0.8020 -0.8373
 1322TIP3    H2 3973   4.494   5.892   4.647  1.9673 -1.5622  0.7882
 1323TIP3   OH2 3974   2.589   4.844   3.592  0.4464  0.1165 -0.3964
 1323TIP3    H1 3975   2.617   4.762   3.634  1.1949  1.5329  2.0065
 1323TIP3    H2 3976   2.516   4.818   3.535  0.3918 -2.1434  0.6110
 1324TIP3   OH2 3977   3.164   1.872   3.769  0.2815 -0.7306 -0.6483
 1324TIP3    H1 3978   3.155   1.963   3.799 -1.4900 -1.0972  0.0671
 1324TIP3    H2 3979   3.159   1.819   3.848  0.2719 -1.5073 -1.1527
 1325TIP3   OH2 3980   1.686   1.032   2.779 -0.1534 -0.2298 -0.1171
 1325TIP3    H1 3981   1.730   1.116   2.770  2.6081 -1.3210  1.7987
 1325TIP3    H2 3982   1.671   1.022   2.873  0.9713 -2.4372 -0.1011
 1326TIP3   OH2 3983   1.592   0.682   1.034  0.3152  0.7040 -0.4173
 1326TIP3    H1 3984   1.508   0.643   1.058 -0.5685  0.3133 -3.6325
 1326TIP3    H2 3985   1.571   0.773   1.012  0.2545  0.1587 -2.9643
 1327TIP3   OH2 3986   0.619   5.386   3.705  0.2370  0.1803  0.0216
 1327TIP3    H1 3987   0.624   5.312   3.766 -1.1848  1.1184  1.3675
 1327TIP3    H2 3988   0.701   5.434   3.719 -0.9634  1.6813  3.0950
 1328TIP3   OH2 3989   0.125   1.311   2.488  0.1912 -0.0617 -0.2174
 1328TIP3    H1 3990   0.187   1.319   2.561  0.8112  1.7309 -0.8835
 1328TIP3    H2 3991   0.052   1.261   2.524  1.6885 -1.6174  0.8141
 1329TIP3   OH2 3992   5.008   2.025   1.038  0.6725 -0.0274  0.3326
 1329TIP3    H1 3993   4.972   1.937   1.041 -0.4850  0.4631  1.7038
 1329TIP3    H2 3994   4.992   2.054   0.947 -1.2494 -0.3255  0.5238
 1330TIP3   OH2 3995   1.495   4.125   2.930 -0.2029  0.6809  0.1439
 1330TIP3    H1 3996   1.561   4.171   2.879 -1.3297  1.7952 -0.3682
 1330TIP3    H2 3997   1.413   4.142   2.883 -1.1614  1.0802  1.8921
 1331TIP3   OH2 3998   1.135   4.374   3.423  0.5066 -0.1007  0.0196
 1331TIP3    H1 3999   1.204   4.333   3.371  0.2276 -0.6145  0.0519
 1331TIP3    H2 4000   1.141   4.331   3.509 -0.4627 -0.8342 -0.2612
 1332TIP3   OH2 4001   3.491   0.871   4.225 -0.2050  0.6180 -0.0782
 1332TIP3    H1 4002   3.473   0.962   4.201  0.9334  0.6685 -0.8725
 1332TIP3    H2 4003   3.405   0.830   4.231 -0.7541  1.8333  0.6830
 1333TIP3   OH2 4004   3.175   3.802   4.870  0.4985  0.0949 -0.1355
 1333TIP3    H1 4005   3.204   3.741   4.938 -1.0399 -0.3987  0.1312
 1333TIP3    H2 4006   3.126   3.869   4.918  0.7008  0.5866 -0.6104
 1334TIP3   OH2 4007   1.671   2.281   2.166 -0.1153  0.0747  0.0419
 1334TIP3    H1 4008   1.589   2.325   2.147 -0.0834 -0.0195 -0.3120
 1334TIP3    H2 4009   1.725   2.294   2.088 -0.8343 -2.3142 -0.9510
 1335TIP3   OH2 4010   0.918   3.875   2.203  0.0818 -1.2003 -0.1432
 1335TIP3    H1 4011   0.826   3.856   2.185 -0.0483 -1.0812  0.3799
 1335TIP3    H2 4012   0.938   3.824   2.282  0.5088 -1.3483 -0.3422
 1336TIP3   OH2 4013   6.015   3.822   0.287 -0.7031 -0.2849 -0.1986
 1336TIP3    H1 4014   6.092   3.813   0.231  0.3326  1.2405  0.8932
 1336TIP3    H2 4015   5.996   3.916   0.287 -1.6995 -0.4725  0.6681
 1337TIP3   OH2 4016   5.571   5.700   0.425  0.3111 -0.4395  0.1704
 1337TIP3    H1 4017   5.507   5.649   0.474 -0.7148 -1.2323 -1.9269
 1337TIP3    H2 4018   5.549   5.686   0.333  0.5869  2.9842 -0.5614
 1338TIP3   OH2 4019   3.587   1.469   2.164 -0.6065 -0.1055 -0.3401
 1338TIP3    H1 4020   3.512   1.514   2.204 -0.4273 -0.9279  1.0063
 1338TIP3    H2 4021   3.561   1.377   2.161  0.1266 -0.3205 -0.3928
 1339TIP3   OH2 4022   0.988   3.144   3.347 -0.4367  0.2180 -0.2027
 1339TIP3    H1 4023   0.892   3.149   3.351 -0.4606 -0.9249  1.7239
 1339TIP3    H2 4024   1.015   3.122   3.436  1.8417  3.1785  0.0136
 1340TIP3   OH2 4025   0.603   0.215   0.341  0.2138  0.2513 -0.1200
 1340TIP3    H1 4026   0.619   0.138   0.396 -0.4585  0.7709  0.8272
 1340TIP3    H2 4027   0.551   0.181   0.268 -1.4595  0.0524  1.1060
 1341TIP3   OH2 4028   0.164   3.004   1.039 -0.2075  0.2328  0.2589
 1341TIP3    H1 4029   0.232   3.072   1.032 -0.6303  0.6770  0.4137
 1341TIP3    H2 4030   0.207   2.932   1.085 -0.0149  0.7488  0.8984
 1342TIP3   OH2 4031   4.801   3.384   1.277 -0.1869 -0.1180  0.0586
 1342TIP3    H1 4032   4.837   3.336   1.203  0.9053  0.0816  0.4456
 1342TIP3    H2 4033   4.743   3.321   1.321 -1.1344 -0.1216 -1.1500
 1343TIP3   OH2 4034   4.861   2.045   3.310 -0.3459  0.9616 -0.1018
 1343TIP3    H1 4035   4.766   2.058   3.302 -0.4074  1.4626  1.1627
 1343TIP3    H2 4036   4.875   2.030   3.404  0.6225 -0.9050 -0.5101
 1344TIP3   OH2 4037   5.318   0.215   1.571  0.0309  0.6117  0.8776
 1344TIP3    H1 4038   5.294   0.241   1.660 -1.1887  0.0856  0.7199
 1344TIP3    H2 4039   5.289   0.124   1.564 -1.2246  1.0854 -0.5223
 1345TIP3   OH2 4040   4.611   3.418   0.031  0.3100 -0.4342  0.6064
 1345TIP3    H1 4041   4.678   3.485   0.017  0.4469 -0.3388  1.6273
 1345TIP3    H2 4042   4.654   3.352   0.084 -0.2665 -0.5944  0.8857
 1346TIP3   OH2 4043   4.486   4.741   2.901 -0.0665  0.1272  0.0463
 1346TIP3    H1 4044   4.508   4.834   2.907  1.2298 -0.1646 -0.0781
 1346TIP3    H2 4045   4.407   4.739   2.846 -0.4502  1.1858  0.5349
 1347TIP3   OH2 4046   0.577   5.359   3.403 -0.2757  0.2504 -0.1987
 1347TIP3    H1 4047   0.664   5.321   3.391  0.3737  1.1877  1.2568
 1347TIP3    H2 4048   0.578   5.394   3.492 -2.0762  0.4823 -0.2283
 1348TIP3   OH2 4049   2.765   4.367   0.065 -0.0617 -0.0231 -0.6247
 1348TIP3    H1 4050   2.747   4.292   0.122  0.2962 -1.3660 -2.1869
 1348TIP3    H2 4051   2.727   4.442   0.111 -0.6033 -1.1815  0.9085
 1349TIP3   OH2 4052   0.552   5.684   2.001 -0.4403 -0.1365  0.3706
 1349TIP3    H1 4053   0.504   5.755   2.045  1.3235  1.2797  0.1175
 1349TIP3    H2 4054   0.495   5.660   1.927 -1.1447  0.9259  0.5357
 1350TIP3   OH2 4055   1.948   4.452   4.535  0.6533  0.3807  0.2506
 1350TIP3    H1 4056   1.873   4.426   4.588  0.1880  0.8168 -0.1815
 1350TIP3    H2 4057   1.920   4.435   4.445  1.4753 -0.4687  0.1351
 1351TIP3   OH2 4058   2.923   3.560   2.452 -0.0059 -0.4614 -0.0141
 1351TIP3    H1 4059   2.942   3.503   2.527 -1.3767  0.8194  1.3627
 1351TIP3    H2 4060   3.008   3.571   2.409  1.2466  0.3141  2.4721
 1352TIP3   OH2 4061   3.253   5.189   0.337  0.1085 -0.1586  0.3641
 1352TIP3    H1 4062   3.235   5.220   0.248 -2.2349 -1.4117  0.3273
 1352TIP3    H2 4063   3.211   5.254   0.394 -0.3331 -0.5261  0.4638
 1353TIP3   OH2 4064   5.839   1.149   3.004  0.4691 -0.0796 -0.1122
 1353TIP3    H1 4065   5.788   1.109   2.934  1.2505 -0.1810 -0.6494
 1353TIP3    H2 4066   5.777   1.204   3.051 -0.0683  0.0156 -0.9078
 1354TIP3   OH2 4067   5.891   5.572   3.173  0.2179 -0.1569  0.0116
 1354TIP3    H1 4068   5.820   5.562   3.235  0.9581  3.6536  1.7752
 1354TIP3    H2 4069   5.855   5.627   3.103  0.3407 -1.6940 -1.3404
 1355TIP3   OH2 4070   1.318   3.701   4.310  0.0495  0.0118  0.7591
 1355TIP3    H1 4071   1.278   3.640   4.248 -0.2117  0.2967  0.6500
 1355TIP3    H2 4072   1.282   3.675   4.395  0.2582 -0.2528  0.7683
 1356TIP3   OH2 4073   4.313   2.199   1.875  0.3279  0.2591 -0.0811
 1356TIP3    H1 4074   4.385   2.208   1.937 -0.9426 -0.1534  1.5160
 1356TIP3    H2 4075   4.247   2.261   1.906 -0.5176 -0.2777 -0.7674
 1357TIP3   OH2 4076   3.078   1.437   4.626  0.0498 -0.1012 -0.1405
 1357TIP3    H1 4077   3.129   1.517   4.613 -0.8644  0.2594 -1.7462
 1357TIP3    H2 4078   2.990   1.460   4.594 -0.2315 -1.7421 -0.6172
 1358TIP3   OH2 4079   0.886   0.696   2.149  0.6539  0.0614 -0.0610
 1358TIP3    H1 4080   0.900   0.790   2.157 -0.2802  0.2722 -0.7952
 1358TIP3    H2 4081   0.836   0.685   2.068 -1.4037 -0.8526  1.2573
 1359TIP3   OH2 4082   2.600   2.671   3.198  0.0769  0.1422  0.0920
 1359TIP3    H1 4083   2.575   2.734   3.266  0.0050  0.0974  0.1067
 1359TIP3    H2 4084   2.577   2.586   3.234  0.2482  0.1006  0.1034
 1360TIP3   OH2 4085   2.324   4.842   0.699 -0.4203 -0.0370  0.2683
 1360TIP3    H1 4086   2.363   4.797   0.775  0.5519 -0.7547 -0.6316
 1360TIP3    H2 4087   2.371   4.925   0.693 -0.9449  0.3133  0.8184
 1361TIP3   OH2 4088   2.161   3.142   3.188 -0.1320  0.3156 -0.1180
 1361TIP3    H1 4089   2.238   3.093   3.160  0.0082  0.5966 -0.2189
 1361TIP3    H2 4090   2.166   3.143   3.284 -0.4089 -0.3121 -0.0880
 1362TIP3   OH2 4091   1.942   3.954   4.872 -0.5286 -0.7669 -0.2898
 1362TIP3    H1 4092   1.957   3.860   4.865  1.4217 -0.3837 -2.0244
 1362TIP3    H2 4093   1.899   3.978   4.790  0.4287  0.0742 -0.5630
 1363TIP3   OH2 4094   4.034   5.653   4.626 -0.1680 -0.2657 -0.1616
 1363TIP3    H1 4095   4.057   5.708   4.700  0.0280 -0.3984 -0.1222
 1363TIP3    H2 4096   3.950   5.613   4.650  0.0998 -0.6399  0.1759
 1364TIP3   OH2 4097   1.651   4.206   4.430 -0.3093 -0.0525 -0.3491
 1364TIP3    H1 4098   1.653   4.258   4.350 -0.9224  1.6700  0.7013
 1364TIP3    H2 4099   1.691   4.262   4.497 -0.4539 -1.1587  0.7080
 1365TIP3   OH2 4100   3.165   0.770   4.027 -0.5521 -0.2022  0.1066
 1365TIP3    H1 4101   3.234   0.792   3.965  0.0455 -0.1835  0.7721
 1365TIP3    H2 4102   3.157   0.675   4.021 -1.9873 -0.0263 -1.5513
 1366TIP3   OH2 4103   5.104   2.673   1.339 -0.3177  0.4614  0.2244
 1366TIP3    H1 4104   5.162   2.643   1.269 -2.1483 -0.9617 -0.7527
 1366TIP3    H2 4105   5.058   2.748   1.300 -0.1530  0.7148  0.5133
 1367TIP3   OH2 4106   5.724   5.047   1.052 -0.3290 -0.2645  0.0502
 1367TIP3    H1 4107   5.678   4.967   1.078 -0.7977 -0.0224 -0.0221
 1367TIP3    H2 4108   5.794   5.016   0.994  1.6224 -0.9553  2.6262
 1368TIP3   OH2 4109   3.531   4.812   3.289 -0.5344 -0.1070  0.2863
 1368TIP3    H1 4110   3.453   4.867   3.300  0.3809  1.2567  0.2492
 1368TIP3    H2 4111   3.525   4.779   3.200 -1.1493 -0.1395  0.3353
 1369TIP3   OH2 4112   3.137   5.767   4.663  0.4173 -0.0829 -0.0460
 1369TIP3    H1 4113   3.058   5.821   4.651  0.1396 -0.6004 -0.6322
 1369TIP3    H2 4114   3.209   5.825   4.641  0.3094  0.7801  1.6893
 1370TIP3   OH2 4115   3.009   1.561   3.482  0.0340  0.1497 -0.3357
 1370TIP3    H1 4116   3.042   1.551   3.393 -1.9080 -1.0302 -1.0017
 1370TIP3    H2 4117   3.056   1.496   3.533  0.4717  0.1666 -0.7173
 1371TIP3   OH2 4118   2.156   3.574   1.986 -0.3817  0.2535 -0.1332
 1371TIP3    H1 4119   2.122   3.551   2.073 -0.2329 -0.2378 -0.1995
 1371TIP3    H2 4120   2.182   3.490   1.948  2.3991  0.7158  0.5471
 1372TIP3   OH2 4121   5.990   4.537   4.689 -0.5921 -0.6946 -0.3477
 1372TIP3    H1 4122   6.017   4.476   4.620 -1.4809 -0.3229 -1.0483
 1372TIP3    H2 4123   6.072   4.573   4.723 -0.0962 -1.6264 -0.5145
 1373TIP3   OH2 4124   5.792   0.022   4.486  0.0421  0.3607  0.4820
 1373TIP3    H1 4125   5.728   0.045   4.418 -0.8249 -1.2285  0.7068
 1373TIP3    H2 4126   5.819   0.106   4.523 -2.5865  1.0951  0.9469
 1374TIP3   OH2 4127   1.723   2.152   0.824  0.3486 -0.7171 -0.2836
 1374TIP3    H1 4128   1.665   2.186   0.755  0.4225 -0.4678 -0.2254
 1374TIP3    H2 4129   1.777   2.227   0.848 -0.0263 -0.6570  0.4034
 1375TIP3   OH2 4130   2.723   1.618   3.077  0.4657 -0.0551 -0.1969
 1375TIP3    H1 4131   2.797   1.647   3.130 -0.4914 -0.4329  1.4175
 1375TIP3    H2 4132   2.730   1.669   2.997  1.1362  1.6762  0.8997
 1376TIP3   OH2 4133   4.855   4.882   3.715  0.0538  0.3766 -0.0513
 1376TIP3    H1 4134   4.869   4.974   3.737  0.3663 -0.1692  2.3120
 1376TIP3    H2 4135   4.931   4.836   3.750  0.5904 -0.6909 -2.3910
 1377TIP3   OH2 4136   0.830   5.256   1.949 -0.1194  0.0846 -0.3440
 1377TIP3    H1 4137   0.777   5.215   1.881 -1.1260 -1.3503  1.2080
 1377TIP3    H2 4138   0.782   5.336   1.971 -2.8890 -2.0351  2.2761
 1378TIP3   OH2 4139   5.786   5.165   4.156 -0.1262  0.0179  0.1832
 1378TIP3    H1 4140   5.825   5.142   4.072  1.1897  1.1304  0.4389
 1378TIP3    H2 4141   5.783   5.261   4.155  1.1196  0.1307  1.8686
 1379TIP3   OH2 4142   5.455   4.886   1.683 -0.3340 -0.3430 -0.2570
 1379TIP3    H1 4143   5.397   4.933   1.623  0.1995 -0.7693 -1.1199
 1379TIP3    H2 4144   5.511   4.955   1.719  0.0782 -0.2190 -1.0989
 1380TIP3   OH2 4145   1.055   2.307   1.802 -0.5236  0.3469  0.1568
 1380TIP3    H1 4146   1.012   2.243   1.858 -0.6716  0.7122  0.4697
 1380TIP3    H2 4147   1.035   2.391   1.843 -0.8943  0.6410 -0.6185
 1381TIP3   OH2 4148   5.827   2.209   3.297  0.3716 -0.1178  0.1264
 1381TIP3    H1 4149   5.827   2.148   3.371  0.3798 -1.3557 -0.8540
 1381TIP3    H2 4150   5.756   2.270   3.315 -0.4832 -1.2092  0.5211
 1382TIP3   OH2 4151   3.110   2.113   3.898 -0.2827  0.0871 -0.3241
 1382TIP3    H1 4152   3.122   2.205   3.879 -0.2325 -0.1357 -1.4020
 1382TIP3    H2 4153   3.147   2.102   3.986 -0.0780  1.0371 -0.2833
 1383TIP3   OH2 4154   4.199   1.492   0.622  0.3241  0.1828  0.0313
 1383TIP3    H1 4155   4.271   1.464   0.678  0.8096  1.3293 -0.0002
 1383TIP3    H2 4156   4.241   1.515   0.539 -0.2030 -0.0546 -0.3035
 1384TIP3   OH2 4157   6.389   5.733   1.902 -0.0984 -0.2510 -0.5776
 1384TIP3    H1 4158   6.312   5.687   1.870 -0.9677 -0.4502  1.6364
 1384TIP3    H2 4159   6.358   5.781   1.979  1.8372  0.2370 -0.0468
 1385TIP3   OH2 4160   5.674   2.942   2.413 -0.3488  0.4246  0.4744
 1385TIP3    H1 4161   5.589   2.907   2.387 -0.3291  0.9471 -0.3121
 1385TIP3    H2 4162   5.709   2.877   2.474 -1.0713 -0.0587  0.3859
 1386TIP3   OH2 4163   1.108   3.732   3.744 -0.5670  0.4135 -0.8367
 1386TIP3    H1 4164   1.159   3.811   3.762 -0.8282  0.0116  2.3469
 1386TIP3    H2 4165   1.120   3.715   3.651  1.5218  2.7891 -1.0807
 1387TIP3   OH2 4166   3.851   2.655   5.106  0.5345  0.4345  0.3259
 1387TIP3    H1 4167   3.853   2.573   5.056 -4.1644  1.2402 -1.6438
 1387TIP3    H2 4168   3.931   2.701   5.079  0.1495 -0.8192 -3.6301
 1388TIP3   OH2 4169   1.599   1.605   0.722 -0.4271  0.0857 -0.3488
 1388TIP3    H1 4170   1.574   1.671   0.657  1.0075  1.8170  0.7810
 1388TIP3    H2 4171   1.538   1.619   0.795 -0.3418 -0.0980 -0.2414
 1389TIP3   OH2 4172   5.665   1.152   1.845 -0.0931 -0.1707  0.3141
 1389TIP3    H1 4173   5.703   1.067   1.822  0.8375  0.1498  0.6434
 1389TIP3    H2 4174   5.643   1.192   1.761 -2.6987 -1.6680  0.1886
 1390TIP3   OH2 4175   4.018   2.137   4.653 -0.1368  0.2174  0.2126
 1390TIP3    H1 4176   3.968   2.085   4.716  0.7486  0.1653  0.8881
 1390TIP3    H2 4177   4.086   2.179   4.705 -2.2804  4.1563  0.2476
 1391TIP3   OH2 4178   4.266   3.620   3.627 -0.1732  0.0056 -0.2696
 1391TIP3    H1 4179   4.251   3.686   3.559  0.0125 -0.7485 -1.0485
 1391TIP3    H2 4180   4.205   3.549   3.606  0.1243 -0.3803  0.1603
 1392TIP3   OH2 4181   5.568   4.807   1.077 -0.3515  0.2306 -0.2417
 1392TIP3    H1 4182   5.474   4.817   1.062 -0.1503  1.1877 -1.0173
 1392TIP3    H2 4183   5.597   4.748   1.008 -0.1485  1.1450 -0.9596
 1393TIP3   OH2 4184   2.600   1.133   1.100  0.0889  0.5119  0.1958
 1393TIP3    H1 4185   2.557   1.211   1.133  1.6113  0.9211  1.3013
 1393TIP3    H2 4186   2.607   1.147   1.005 -0.9804  1.0276  0.1891
 1394TIP3   OH2 4187   5.421   0.254   2.774  0.5151 -0.1645  0.0176
 1394TIP3    H1 4188   5.491   0.189   2.773  0.4011 -0.3896  1.8383
 1394TIP3    H2 4189   5.402   0.266   2.867 -0.7975  1.0483 -0.3753
 1395TIP3   OH2 4190   4.440   1.263   2.216 -0.0773 -0.2883 -0.1809
 1395TIP3    H1 4191   4.404   1.316   2.144  0.6409 -1.7152 -1.6598
 1395TIP3    H2 4192   4.473   1.327   2.279 -1.5193  1.0152 -0.6934
 1396TIP3   OH2 4193   3.022   0.610   4.630  0.0393  0.3867  0.8011
 1396TIP3    H1 4194   3.008   0.516   4.644 -0.8372 -0.0549 -2.1504
 1396TIP3    H2 4195   3.015   0.649   4.717 -0.5642 -2.1617  1.9976
 1397TIP3   OH2 4196   5.321   4.296   2.945 -0.3456  0.3464 -0.5327
 1397TIP3    H1 4197   5.379   4.250   2.884  0.5906  1.2125 -0.3096
 1397TIP3    H2 4198   5.373   4.368   2.979 -0.8803 -0.0445  1.2326
 1398TIP3   OH2 4199   6.141   4.191   3.362 -0.0457 -0.0355  0.3928
 1398TIP3    H1 4200   6.114   4.245   3.437  0.9163  0.0640  0.6748
 1398TIP3    H2 4201   6.228   4.158   3.385  0.2838  0.0253 -0.6928
 1399TIP3   OH2 4202   6.104   1.060   1.307 -0.8429  0.1334  0.0227
 1399TIP3    H1 4203   6.171   1.121   1.277 -0.5201  1.0281  2.3357
 1399TIP3    H2 4204   6.152   0.991   1.352 -1.3683 -0.2143  0.0597
 1400TIP3   OH2 4205   2.934   3.048   4.885  0.3582 -0.4135  0.2310
 1400TIP3    H1 4206   2.874   3.118   4.909  0.0837 -0.3494 -0.5952
 1400TIP3    H2 4207   2.878   2.973   4.867  0.6874 -1.0369  1.6935
 1401TIP3   OH2 4208   4.610   1.419   2.361 -0.4906 -0.1668 -0.4181
 1401TIP3    H1 4209   4.600   1.428   2.456 -0.5672 -0.2747 -0.4162
 1401TIP3    H2 4210   4.693   1.372   2.351 -0.9781 -1.0683 -0.3686
 1402TIP3   OH2 4211   4.416   0.466   0.469  0.2663 -0.3946  0.6180
 1402TIP3    H1 4212   4.491   0.515   0.504 -1.0075  0.8729  1.6847
 1402TIP3    H2 4213   4.432   0.376   0.497  1.5764 -0.2259  0.4986
 1403TIP3   OH2 4214   4.377   5.672   3.944  0.0303  0.2086  0.1454
 1403TIP3    H1 4215   4.314   5.703   4.009  1.4331 -1.4627  2.4245
 1403TIP3    H2 4216   4.401   5.751   3.895 -1.6196  1.3874  1.1131
 1404TIP3   OH2 4217   0.419   0.407   4.657  0.1751  0.2369 -0.1984
 1404TIP3    H1 4218   0.498   0.381   4.610 -0.0753 -0.3095 -0.3239
 1404TIP3    H2 4219   0.373   0.465   4.597  0.8516  1.1782  0.1719
 1405TIP3   OH2 4220   1.903   2.901   0.483 -0.5168  0.6261  0.0565
 1405TIP3    H1 4221   1.841   2.916   0.412 -1.9525 -0.7401  0.9797
 1405TIP3    H2 4222   1.929   2.809   0.474  0.8896  0.9869  0.0937
 1406TIP3   OH2 4223   2.032   2.618   3.203 -0.2468  0.2940  0.4542
 1406TIP3    H1 4224   1.979   2.540   3.217  1.7488 -1.1135  0.6836
 1406TIP3    H2 4225   2.008   2.677   3.274 -1.1912 -0.4457  0.7654
 1407TIP3   OH2 4226   0.311   0.923   4.814 -0.0139 -0.3128  0.7334
 1407TIP3    H1 4227   0.368   0.854   4.781 -0.8559  0.1394 -1.9293
 1407TIP3    H2 4228   0.369   0.998   4.827  0.2314 -0.1399 -1.0311
 1408TIP3   OH2 4229   4.543   0.779   0.131 -0.0750  0.0514  0.4961
 1408TIP3    H1 4230   4.577   0.725   0.059 -2.7121 -1.3864  0.1942
 1408TIP3    H2 4231   4.492   0.718   0.185 -1.5875  1.8609  1.2374
 1409TIP3   OH2 4232   4.918   1.826   4.619  0.1100  0.4847 -0.4008
 1409TIP3    H1 4233   4.997   1.787   4.581 -1.1869 -1.3220 -1.4463
 1409TIP3    H2 4234   4.925   1.809   4.713 -0.3106 -2.3428 -0.7888
 1410TIP3   OH2 4235   0.760   5.767   1.051 -0.2393 -0.2725  0.2633
 1410TIP3    H1 4236   0.682   5.756   1.104 -1.0728  0.7087 -0.7090
 1410TIP3    H2 4237   0.737   5.727   0.967  1.0603 -1.8220  0.5987
 1411TIP3   OH2 4238   6.247   5.408   1.531 -0.6618 -0.0265 -0.2421
 1411TIP3    H1 4239   6.312   5.427   1.463 -2.3133  1.1856 -1.5622
 1411TIP3    H2 4240   6.163   5.426   1.489 -1.9068 -1.9191  1.2914
 1412TIP3   OH2 4241   1.097   5.009   0.468  0.2766 -0.0759  0.1247
 1412TIP3    H1 4242   1.099   4.926   0.421 -0.6471 -0.6094  1.0012
 1412TIP3    H2 4243   1.043   5.066   0.414 -0.6956 -0.6526  0.4552
 1413TIP3   OH2 4244   4.634   5.280   4.068 -0.2333  0.1327  0.2977
 1413TIP3    H1 4245   4.634   5.359   4.014 -0.7288 -0.6356 -0.8637
 1413TIP3    H2 4246   4.707   5.228   4.035  0.1350  0.1183  1.1040
 1414TIP3   OH2 4247   4.927   2.895   4.869  0.2124  0.6451 -0.2742
 1414TIP3    H1 4248   4.882   2.846   4.800  0.8193  0.6996 -0.7180
 1414TIP3    H2 4249   4.877   2.976   4.878 -0.2518  0.3531 -0.1882
 1415TIP3   OH2 4250   3.382   2.981   0.575  0.0506 -0.3659  0.1266
 1415TIP3    H1 4251   3.288   2.982   0.557 -0.0607  1.1658  0.6921
 1415TIP3    H2 4252   3.419   3.046   0.515  0.6498 -0.4250  0.4165
 1416TIP3   OH2 4253   0.820   2.164   3.852  0.3269 -0.0935 -0.2197
 1416TIP3    H1 4254   0.822   2.183   3.946 -0.8537 -0.1773 -0.1558
 1416TIP3    H2 4255   0.861   2.078   3.844  0.5766 -0.0165  0.2044
 1417TIP3   OH2 4256   3.960   3.074   0.341 -0.2249  0.0564  0.2731
 1417TIP3    H1 4257   3.983   3.107   0.255 -0.8849 -0.4178 -0.1001
 1417TIP3    H2 4258   3.881   3.022   0.326  0.2662 -0.9282  0.9849
 1418TIP3   OH2 4259   3.548   1.880   1.795  0.1635  0.2236  0.0002
 1418TIP3    H1 4260   3.489   1.867   1.869  0.8247  0.8660  0.6603
 1418TIP3    H2 4261   3.591   1.964   1.814 -0.1330  0.7247 -1.4408
 1419TIP3   OH2 4262   1.133   2.614   4.341 -0.5843 -0.4120 -0.0761
 1419TIP3    H1 4263   1.157   2.528   4.305  0.5746  0.0073 -0.3595
 1419TIP3    H2 4264   1.102   2.663   4.265 -3.2818 -1.2037  0.4099
 1420TIP3   OH2 4265   2.234   3.079   5.111 -0.3649 -0.3382  0.1597
 1420TIP3    H1 4266   2.153   3.125   5.131 -0.2220 -0.5576  1.3457
 1420TIP3    H2 4267   2.261   3.041   5.195  0.9946 -0.2214 -0.2059
 1421TIP3   OH2 4268   3.227   2.754   1.885  0.1758 -0.1723 -0.0902
 1421TIP3    H1 4269   3.133   2.732   1.888  0.4089 -1.1439  0.6367
 1421TIP3    H2 4270   3.238   2.797   1.800 -0.8125 -0.6230 -0.4729
 1422TIP3   OH2 4271   5.327   4.297   4.540  0.2446  0.3194 -0.1199
 1422TIP3    H1 4272   5.292   4.324   4.625  1.7735 -1.9771  1.3756
 1422TIP3    H2 4273   5.258   4.243   4.501  0.3645 -0.4597  0.7218
 1423TIP3   OH2 4274   6.276   0.949   3.367  0.5880 -0.5038  0.9521
 1423TIP3    H1 4275   6.350   0.933   3.426  0.1435 -0.4822  1.5315
 1423TIP3    H2 4276   6.249   1.039   3.387  0.8180 -0.2762  0.2712
 1424TIP3   OH2 4277   5.964   3.823   4.217 -0.0102  0.0680  0.2980
 1424TIP3    H1 4278   5.896   3.760   4.239 -0.0930 -0.1440 -0.5321
 1424TIP3    H2 4279   5.917   3.905   4.199 -0.1560 -0.3319 -1.2534
 1425TIP3   OH2 4280   2.898   4.332   1.074 -0.4310 -0.1786  0.7543
 1425TIP3    H1 4281   2.844   4.391   1.127 -0.3339  1.2408 -0.6597
 1425TIP3    H2 4282   2.973   4.386   1.048 -1.5502 -0.0599 -2.6368
 1426TIP3   OH2 4283   1.408   1.514   4.981 -0.9356 -0.4063  0.1803
 1426TIP3    H1 4284   1.417   1.587   5.042  1.2731 -0.6224  0.1915
 1426TIP3    H2 4285   1.485   1.520   4.925 -1.0996 -2.2770 -0.3071
 1427TIP3   OH2 4286   3.072   2.399   3.788  0.2464  0.0528 -0.0941
 1427TIP3    H1 4287   2.999   2.380   3.729 -0.0366  1.5926 -0.2928
 1427TIP3    H2 4288   3.145   2.418   3.730  0.1071  1.0506  0.0404
 1428TIP3   OH2 4289   2.864   5.132   1.948  0.1145 -0.2888 -0.4053
 1428TIP3    H1 4290   2.902   5.219   1.957  1.9901 -1.1302  0.4337
 1428TIP3    H2 4291   2.787   5.132   2.006  0.6245  0.5250  0.2836
 1429TIP3   OH2 4292   6.363   4.895   0.275  0.5371  0.2429 -0.5090
 1429TIP3    H1 4293   6.371   4.969   0.335  0.3115  1.0117 -1.4066
 1429TIP3    H2 4294   6.292   4.919   0.216  1.6721  0.1660 -1.9779
 1430TIP3   OH2 4295   1.413   3.932   3.731  0.1310  0.1108  0.7430
 1430TIP3    H1 4296   1.404   3.853   3.677  0.9699 -1.3608  2.6251
 1430TIP3    H2 4297   1.325   3.970   3.732 -0.0391 -0.1243 -1.1216
 1431TIP3   OH2 4298   2.713   5.415   2.515 -0.1710 -0.8370 -0.0659
 1431TIP3    H1 4299   2.681   5.374   2.596 -2.9058 -0.1456 -0.7103
 1431TIP3    H2 4300   2.655   5.490   2.501 -0.0007 -1.1216 -2.8458
 1432TIP3   OH2 4301   2.745   2.746   2.608 -0.7139 -0.0998  0.0903
 1432TIP3    H1 4302   2.762   2.809   2.538 -1.3669 -0.8518 -0.7716
 1432TIP3    H2 4303   2.651   2.732   2.605 -0.7653 -0.0886  1.1925
 1433TIP3   OH2 4304   4.335   1.348   0.216 -0.6539  0.2886  0.1828
 1433TIP3    H1 4305   4.290   1.294   0.151  0.3518  1.2817 -1.4102
 1433TIP3    H2 4306   4.351   1.289   0.289 -1.4081 -1.0123 -0.6569
 1434TIP3   OH2 4307   0.790   0.269   0.792 -0.5872  0.0226  0.6664
 1434TIP3    H1 4308   0.811   0.352   0.749 -2.3323  0.7866  1.1909
 1434TIP3    H2 4309   0.756   0.294   0.877 -2.3215 -1.1248  0.3579
 1435TIP3   OH2 4310   3.644   0.863   2.110 -0.6841  0.1345  0.0697
 1435TIP3    H1 4311   3.586   0.814   2.052 -4.4380  3.0534  0.9828
 1435TIP3    H2 4312   3.610   0.844   2.198  0.2814  1.2928  0.7116
 1436TIP3   OH2 4313   5.108   2.343   5.054 -0.1751  0.2208  0.2973
 1436TIP3    H1 4314   5.115   2.260   5.102 -0.4664  1.0571  1.8457
 1436TIP3    H2 4315   5.083   2.317   4.965  0.5413 -1.3897  0.5286
 1437TIP3   OH2 4316   3.068   5.908   2.310 -0.2755  0.2180  0.3023
 1437TIP3    H1 4317   3.121   5.833   2.281  1.3443  0.8098  1.5697
 1437TIP3    H2 4318   3.095   5.979   2.252  0.0705  0.4359  0.7261
 1438TIP3   OH2 4319   2.967   4.937   0.255 -0.0291 -0.2580  0.3053
 1438TIP3    H1 4320   2.962   5.029   0.284  1.3817 -0.6735  2.0549
 1438TIP3    H2 4321   2.887   4.923   0.206 -0.8305  1.5970  0.9909
 1439TIP3   OH2 4322   4.230   2.195   0.053 -0.1649 -0.4871  0.4295
 1439TIP3    H1 4323   4.139   2.178   0.027  0.7417 -2.4653 -1.7791
 1439TIP3    H2 4324   4.263   2.255  -0.014  0.9736 -2.2285 -0.6558
 1440TIP3   OH2 4325   3.217   5.363   0.536 -0.2447  0.1848 -0.2465
 1440TIP3    H1 4326   3.274   5.429   0.496  0.9181  0.7095  2.0454
 1440TIP3    H2 4327   3.129   5.399   0.527  0.1032  0.8267 -1.2295
 1441TIP3   OH2 4328   1.140   0.138   0.584 -0.1757  0.5679  0.0251
 1441TIP3    H1 4329   1.208   0.081   0.619 -0.0428  0.9275  0.3648
 1441TIP3    H2 4330   1.168   0.157   0.494  0.2821  0.8764  0.2298
 1442TIP3   OH2 4331   1.937   4.649   3.694  0.4159  0.2134  0.1134
 1442TIP3    H1 4332   1.875   4.721   3.691  1.2785  0.9498 -0.2758
 1442TIP3    H2 4333   1.931   4.616   3.784 -1.3204 -0.4520 -0.2039
 1443TIP3   OH2 4334   0.172   3.255   1.881 -0.1049 -0.3481  0.2846
 1443TIP3    H1 4335   0.112   3.279   1.811  1.4164 -0.3366 -1.0642
 1443TIP3    H2 4336   0.194   3.163   1.863  0.1975 -0.3813  0.8087
 1444TIP3   OH2 4337   5.061   1.731   2.408 -0.0944  0.2792 -0.2197
 1444TIP3    H1 4338   5.046   1.822   2.433  1.7812  0.1369  1.6997
 1444TIP3    H2 4339   5.155   1.728   2.388  0.6740 -1.8604  3.0709
 1445TIP3   OH2 4340   4.303   2.031   2.244 -0.0999  0.1902 -0.2265
 1445TIP3    H1 4341   4.327   2.108   2.192 -1.8000  1.1219  0.3279
 1445TIP3    H2 4342   4.382   2.012   2.296  0.5399  1.1803 -0.7992
 1446TIP3   OH2 4343   2.739   3.972   1.367  0.0213  0.7608 -0.2441
 1446TIP3    H1 4344   2.773   3.907   1.428 -0.8774  1.5071  1.1185
 1446TIP3    H2 4345   2.812   4.033   1.353  1.1094 -0.8227 -2.0908
 1447TIP3   OH2 4346   5.976   4.316   4.056 -0.2937 -0.3104 -0.1668
 1447TIP3    H1 4347   5.932   4.288   3.975 -0.7041 -1.7262  0.5160
 1447TIP3    H2 4348   5.915   4.378   4.096 -0.5708 -0.4213 -0.4108
 1448TIP3   OH2 4349   1.910   0.188   1.313 -0.2752  0.2254 -0.0287
 1448TIP3    H1 4350   1.853   0.128   1.361 -0.8910 -1.0062 -2.1560
 1448TIP3    H2 4351   1.988   0.136   1.295 -0.5054  0.2740 -1.2401
 1449TIP3   OH2 4352   3.869   3.740   4.666  0.1054  0.1954 -0.4167
 1449TIP3    H1 4353   3.919   3.811   4.707 -0.9927  0.4264  0.5536
 1449TIP3    H2 4354   3.897   3.661   4.712 -0.5665  0.3542  0.2804
 1450TIP3   OH2 4355   4.182   4.984   0.432  0.3210  0.1144  0.1227
 1450TIP3    H1 4356   4.198   5.074   0.401 -2.8442  0.2365 -1.6250
 1450TIP3    H2 4357   4.119   4.995   0.503 -0.7190 -0.7037 -0.6431
 1451TIP3   OH2 4358   4.664   1.148   0.574 -0.4675 -0.0620 -0.1346
 1451TIP3    H1 4359   4.707   1.063   0.582  0.1594  0.3623  1.2669
 1451TIP3    H2 4360   4.616   1.158   0.656  0.2253  1.3313  0.1284
 1452TIP3   OH2 4361   2.694   0.901   3.647 -0.1622 -0.4511  1.0499
 1452TIP3    H1 4362   2.771   0.899   3.590 -0.5539 -0.1005  0.4951
 1452TIP3    H2 4363   2.683   0.811   3.676 -1.3794 -1.1764 -1.3936
 1453TIP3   OH2 4364   3.188   0.442   0.605 -0.0062  0.3122  0.0007
 1453TIP3    H1 4365   3.116   0.379   0.597 -0.8836  1.0868  1.4361
 1453TIP3    H2 4366   3.254   0.397   0.657  0.9018 -0.6437 -1.8610
 1454TIP3   OH2 4367   4.919   3.968   0.913  0.6141 -0.1206 -0.2890
 1454TIP3    H1 4368   4.934   3.925   0.829  2.3207  1.7174 -0.9776
 1454TIP3    H2 4369   4.997   3.949   0.964  0.2649  0.0839  0.3314
 1455TIP3   OH2 4370   0.933   3.184   5.204  0.2115 -0.1101  0.4411
 1455TIP3    H1 4371   0.884   3.221   5.130  0.2935  0.3697  0.6239
 1455TIP3    H2 4372   0.911   3.091   5.202 -0.4153  0.0316  0.2964
 1456TIP3   OH2 4373   1.225   2.278   0.448  0.0998 -0.5152  0.0111
 1456TIP3    H1 4374   1.261   2.191   0.432 -3.5854 -2.0583 -0.8107
 1456TIP3    H2 4375   1.153   2.286   0.386 -1.3562  2.0463  1.8411
 1457TIP3   OH2 4376   4.916   0.942   2.760  0.1327  1.2152 -0.2122
 1457TIP3    H1 4377   4.885   0.952   2.851 -0.3618 -1.9061  0.0661
 1457TIP3    H2 4378   4.848   0.985   2.708 -1.6507 -0.2801  0.7392
 1458TIP3   OH2 4379   0.357   3.184   4.806 -0.3075 -0.4557 -0.2739
 1458TIP3    H1 4380   0.357   3.278   4.789 -1.4145 -0.7543 -2.2858
 1458TIP3    H2 4381   0.449   3.158   4.792  0.0010  0.3109  0.2736
 1459TIP3   OH2 4382   3.990   3.744   0.899  0.2281  0.2036 -0.4718
 1459TIP3    H1 4383   4.041   3.663   0.900  1.5642  0.9959  1.0502
 1459TIP3    H2 4384   4.033   3.800   0.963 -2.4298  1.0560  0.7128
 1460TIP3   OH2 4385   1.244   5.618   1.923  0.4543 -0.4194  0.5709
 1460TIP3    H1 4386   1.162   5.569   1.913 -1.0545  2.0289  0.1908
 1460TIP3    H2 4387   1.258   5.621   2.018 -2.3072  2.6313  1.0636
 1461TIP3   OH2 4388   1.204   1.967   1.671  0.3291  0.3289 -0.1940
 1461TIP3    H1 4389   1.202   2.016   1.753  0.3326  1.5412 -0.9101
 1461TIP3    H2 4390   1.130   1.999   1.621  3.0390  3.2796 -2.7131
 1462TIP3   OH2 4391   1.042   5.442   1.833 -0.4052 -0.7442 -0.0453
 1462TIP3    H1 4392   0.956   5.435   1.793 -0.6209  1.4210 -0.0814
 1462TIP3    H2 4393   1.029   5.411   1.923 -0.7759 -2.1074 -0.5456
 1463TIP3   OH2 4394   2.989   4.704   0.587  0.5571 -0.2864 -0.5049
 1463TIP3    H1 4395   3.034   4.775   0.633  0.3708  0.2978 -1.2095
 1463TIP3    H2 4396   3.003   4.627   0.642  2.7394 -0.2225 -0.9004
 1464TIP3   OH2 4397   3.361   4.474   1.618 -0.1710  0.2829  0.7011
 1464TIP3    H1 4398   3.436   4.446   1.566 -1.0215  2.0257 -1.6233
 1464TIP3    H2 4399   3.395   4.543   1.675 -0.2034  2.0564 -1.3377
 1465TIP3   OH2 4400   5.066   5.429   0.342 -0.3687 -0.0742  0.1735
 1465TIP3    H1 4401   4.975   5.397   0.340  0.0050 -1.1679 -1.0627
 1465TIP3    H2 4402   5.062   5.516   0.303 -1.2150  0.9491  2.3663
 1466TIP3   OH2 4403   6.073   3.101   4.796  0.8017  0.1654  0.3397
 1466TIP3    H1 4404   6.041   3.050   4.871  1.7444  1.7036  1.8810
 1466TIP3    H2 4405   6.006   3.089   4.728 -0.1704 -1.1773  1.4721
 1467TIP3   OH2 4406   2.128   1.495   3.542 -0.4185  0.2824  0.5598
 1467TIP3    H1 4407   2.123   1.413   3.590  1.3763  0.9565  2.0231
 1467TIP3    H2 4408   2.173   1.473   3.461 -1.7916 -0.5219 -0.0206
 1468TIP3   OH2 4409   2.508   2.402   0.681 -0.3291  0.3558  0.6738
 1468TIP3    H1 4410   2.464   2.487   0.689 -1.9152 -0.4730  1.0894
 1468TIP3    H2 4411   2.512   2.387   0.586 -0.8174  0.5083  0.6248
 1469TIP3   OH2 4412   5.219   1.091   2.364  0.7182 -0.2951  0.2387
 1469TIP3    H1 4413   5.179   1.011   2.329  0.4578  0.1854 -0.5855
 1469TIP3    H2 4414   5.189   1.094   2.455  0.9148 -1.2473  0.3484
 1470TIP3   OH2 4415   2.555   4.011   0.975  0.2207  0.0401  0.1510
 1470TIP3    H1 4416   2.613   4.087   0.966  0.8615 -0.3843  0.6243
 1470TIP3    H2 4417   2.470   4.042   0.945  0.1348  1.3722  1.6517
 1471TIP3   OH2 4418   4.398   1.488   1.684 -0.5651  0.4449 -0.2991
 1471TIP3    H1 4419   4.386   1.397   1.711 -2.7424  1.0399  0.8733
 1471TIP3    H2 4420   4.492   1.493   1.662 -0.3992 -2.0755 -0.5090
 1472TIP3   OH2 4421   0.861   1.119   4.188  0.6014  0.3598 -0.4964
 1472TIP3    H1 4422   0.812   1.108   4.269  0.3942  2.5901 -0.2457
 1472TIP3    H2 4423   0.860   1.033   4.147 -1.4890 -0.2144  0.6257
 1473TIP3   OH2 4424   5.602   4.849   3.511 -0.5552  0.1531  0.6248
 1473TIP3    H1 4425   5.644   4.845   3.597 -0.3365  1.2775  0.5736
 1473TIP3    H2 4426   5.537   4.918   3.518 -1.2405 -0.4218  0.1758
 1474TIP3   OH2 4427   2.672   1.329   2.808 -0.2659  0.2078  0.1551
 1474TIP3    H1 4428   2.626   1.285   2.736 -0.0483  0.6915 -0.2933
 1474TIP3    H2 4429   2.637   1.418   2.808 -1.1943 -0.1304  1.4899
 1475TIP3   OH2 4430   1.161   3.680   3.480  0.0084 -0.0330 -0.2582
 1475TIP3    H1 4431   1.127   3.610   3.424  1.5746  0.1014 -1.4716
 1475TIP3    H2 4432   1.125   3.760   3.442 -0.6429 -0.0861  0.2489
 1476TIP3   OH2 4433   0.019   1.249   1.361  0.5997  0.3946  0.2660
 1476TIP3    H1 4434   0.056   1.338   1.364 -4.5804  2.9041  1.3899
 1476TIP3    H2 4435   0.003   1.234   1.268  2.5675  0.0308 -0.0488
 1477TIP3   OH2 4436   3.419   2.818   2.096 -0.7675 -0.4691  0.1208
 1477TIP3    H1 4437   3.411   2.742   2.040  0.1546 -0.4847 -0.0088
 1477TIP3    H2 4438   3.329   2.845   2.114 -1.0805 -1.0058 -0.6161
 1478TIP3   OH2 4439   2.167   0.675   1.771  0.0846  0.0306  0.0316
 1478TIP3    H1 4440   2.145   0.752   1.719  1.3717  0.6230  0.3251
 1478TIP3    H2 4441   2.181   0.606   1.707 -1.1272  0.0104 -0.2313
 1479TIP3   OH2 4442   2.216   0.165   0.106  0.6035 -0.1254 -0.0648
 1479TIP3    H1 4443   2.276   0.202   0.041  1.0727  0.6096  0.7694
 1479TIP3    H2 4444   2.268   0.098   0.150  0.3227 -0.5423 -0.3688
 1480TIP3   OH2 4445   3.704   1.709   5.113  0.4175 -0.3961  0.0441
 1480TIP3    H1 4446   3.716   1.615   5.129  1.1461 -0.7490 -2.3002
 1480TIP3    H2 4447   3.633   1.713   5.049  0.3757  0.6840  0.1438
 1481TIP3   OH2 4448   4.614   5.089   0.475 -0.0390 -0.3339 -0.1818
 1481TIP3    H1 4449   4.582   5.029   0.542 -1.7165 -2.7216 -2.8939
 1481TIP3    H2 4450   4.687   5.042   0.434  0.9856  1.1045 -0.0758
 1482TIP3   OH2 4451   1.640   3.794   0.594  0.0015  0.2999  0.4536
 1482TIP3    H1 4452   1.568   3.785   0.656  0.2985  0.6874  0.8630
 1482TIP3    H2 4453   1.597   3.824   0.513 -0.1191  2.2874  1.2009
 1483TIP3   OH2 4454   2.493   2.040   2.583  0.4479 -0.5862 -0.1286
 1483TIP3    H1 4455   2.575   2.000   2.554 -0.1409 -0.8977 -1.4565
 1483TIP3    H2 4456   2.431   1.968   2.585  0.0417 -0.2305  0.2203
 1484TIP3   OH2 4457   2.719   5.643   3.631  0.2410  0.3740  0.1855
 1484TIP3    H1 4458   2.623   5.638   3.638  0.2650  0.7708  0.9011
 1484TIP3    H2 4459   2.750   5.632   3.721  0.7738  2.2623  0.2776
 1485TIP3   OH2 4460   3.762   4.567   4.036  0.0384  0.0581 -0.1564
 1485TIP3    H1 4461   3.726   4.481   4.058 -0.0508 -0.2342 -1.3872
 1485TIP3    H2 4462   3.687   4.617   4.003 -0.5280  1.5818  3.0501
 1486TIP3   OH2 4463   3.032   3.052   4.621 -0.1287  0.1150 -0.0221
 1486TIP3    H1 4464   3.125   3.071   4.633 -0.3632  2.5754 -1.4143
 1486TIP3    H2 4465   2.993   3.072   4.706  0.7672 -2.6040  1.1076
 1487TIP3   OH2 4466   4.090   3.708   1.425 -0.9214 -0.0400 -0.3837
 1487TIP3    H1 4467   4.112   3.763   1.501  0.5991  0.7924 -1.3539
 1487TIP3    H2 4468   4.033   3.640   1.460 -1.2385  1.0093  1.2668
 1488TIP3   OH2 4469   4.916   4.502   1.286 -0.0934  0.1009  0.4940
 1488TIP3    H1 4470   4.831   4.534   1.318 -0.6845 -1.0259  0.1182
 1488TIP3    H2 4471   4.973   4.578   1.289 -1.5018  1.2772 -0.5967
 1489TIP3   OH2 4472   2.354   0.396   1.837  0.0843  0.1749 -0.0857
 1489TIP3    H1 4473   2.363   0.479   1.883 -0.5115 -0.4337  1.2009
 1489TIP3    H2 4474   2.432   0.389   1.783  0.6718  1.0599  0.6300
 1490TIP3   OH2 4475   3.745   5.560   2.457  0.3067  0.3133 -0.3997
 1490TIP3    H1 4476   3.738   5.621   2.384  0.9921  0.5332 -0.2850
 1490TIP3    H2 4477   3.756   5.474   2.415 -1.5016  0.1332 -0.5710
 1491TIP3   OH2 4478   3.914   3.867   2.533 -0.8000  0.1948  0.0186
 1491TIP3    H1 4479   3.871   3.800   2.479 -1.2566  1.9000 -1.8245
 1491TIP3    H2 4480   3.859   3.873   2.611 -0.4636 -1.9009  0.4889
 1492TIP3   OH2 4481   2.622   1.426   5.098 -0.1686  0.0775  0.1421
 1492TIP3    H1 4482   2.550   1.447   5.157  1.5873  0.8860  2.1170
 1492TIP3    H2 4483   2.627   1.501   5.038 -0.2032  0.5800  0.7649
 1493TIP3   OH2 4484   2.558   2.744   3.782  0.1577  0.7737  0.0206
 1493TIP3    H1 4485   2.623   2.716   3.846 -2.0422 -0.8048  1.7381
 1493TIP3    H2 4486   2.485   2.776   3.835 -1.8778 -0.8164 -1.6352
 1494TIP3   OH2 4487   0.756   0.835   3.606  0.4738 -0.3563  0.5692
 1494TIP3    H1 4488   0.716   0.909   3.652  0.1321 -0.9275  1.2089
 1494TIP3    H2 4489   0.776   0.772   3.675  0.1049 -1.1710 -0.0467
 1495TIP3   OH2 4490   5.501   1.366   3.279  0.6194  0.1188 -0.1418
 1495TIP3    H1 4491   5.426   1.397   3.229  1.1859  2.5275  0.3364
 1495TIP3    H2 4492   5.474   1.283   3.316 -2.2868  1.4479  1.0002
 1496TIP3   OH2 4493   3.398   0.995   4.477  0.2836  0.0304  0.4829
 1496TIP3    H1 4494   3.414   1.004   4.383 -0.4285 -0.7555  0.2819
 1496TIP3    H2 4495   3.321   1.050   4.494  1.9375  2.3303  1.1220
 1497TIP3   OH2 4496   0.497   2.396   1.077  0.8392  0.9339 -0.1587
 1497TIP3    H1 4497   0.456   2.316   1.044  0.7457  0.8408  0.1800
 1497TIP3    H2 4498   0.515   2.447   0.998  2.1445 -0.0073 -0.4969
 1498TIP3   OH2 4499   1.893   2.356   0.907  0.5302 -0.8262 -0.2655
 1498TIP3    H1 4500   1.848   2.441   0.909 -0.3543 -1.1947 -2.2260
 1498TIP3    H2 4501   1.960   2.366   0.839  0.3607 -1.7178 -0.5745
 1499TIP3   OH2 4502   1.771   0.821   0.240 -0.1774 -0.3712 -0.8224
 1499TIP3    H1 4503   1.760   0.908   0.279  1.4011 -0.3964 -0.2715
 1499TIP3    H2 4504   1.808   0.768   0.310  0.1469 -1.1433 -1.5614
 1500TIP3   OH2 4505   4.208   0.387   2.674 -0.1019 -0.0138  0.5719
 1500TIP3    H1 4506   4.274   0.456   2.668  0.9110 -1.0061 -0.4007
 1500TIP3    H2 4507   4.136   0.417   2.619  0.0990  0.5003  0.5854
 1501TIP3   OH2 4508   1.280   3.650   5.123 -0.0575  0.0312 -0.4783
 1501TIP3    H1 4509   1.298   3.564   5.084  1.0231  0.6471 -1.4149
 1501TIP3    H2 4510   1.258   3.631   5.214 -2.4993 -1.4481 -1.2763
 1502TIP3   OH2 4511   2.190   4.409   4.833 -0.1159  0.2940  0.1381
 1502TIP3    H1 4512   2.231   4.483   4.788  1.2756 -0.3665  0.2652
 1502TIP3    H2 4513   2.130   4.448   4.895 -0.7209  1.2729 -1.0184
 1503TIP3   OH2 4514   5.794   3.944  -0.011 -0.0006  0.1892 -0.1432
 1503TIP3    H1 4515   5.778   4.019   0.047 -0.7719  0.8313 -1.1578
 1503TIP3    H2 4516   5.889   3.934  -0.011  0.0572  0.6159  0.6796
 1504TIP3   OH2 4517   0.483   1.104   4.160 -0.0329 -0.5166 -0.2196
 1504TIP3    H1 4518   0.415   1.076   4.221 -0.0119 -0.3376 -0.1133
 1504TIP3    H2 4519   0.487   1.199   4.170  0.2472 -0.5271 -0.2065
 1505TIP3   OH2 4520   1.905   5.606   1.223  0.7355 -0.0425  0.7931
 1505TIP3    H1 4521   1.873   5.632   1.309  0.0071 -0.4280  0.6544
 1505TIP3    H2 4522   1.885   5.512   1.217 -0.1003  0.1681 -0.1428
 1506TIP3   OH2 4523   3.540   2.676   2.678  0.0021  0.1895 -0.4018
 1506TIP3    H1 4524   3.470   2.735   2.648  0.6360  1.4197  0.4603
 1506TIP3    H2 4525   3.617   2.732   2.686  0.6574 -0.7878  0.3427
 1507TIP3   OH2 4526   3.816   5.551   0.617  0.2152 -0.4994 -0.1217
 1507TIP3    H1 4527   3.741   5.591   0.661  1.2599  0.4204  0.8877
 1507TIP3    H2 4528   3.813   5.586   0.528 -0.5128 -0.4268 -0.0750
 1508TIP3   OH2 4529   0.930   0.199   2.481 -0.2359 -0.0931  0.6304
 1508TIP3    H1 4530   0.900   0.289   2.483 -0.9121 -0.3140  0.6700
 1508TIP3    H2 4531   0.850   0.147   2.473  0.2288 -0.6042 -1.5957
 1509TIP3   OH2 4532   5.201   5.950   4.364  0.0141  0.0504 -0.7113
 1509TIP3    H1 4533   5.225   5.886   4.296 -0.8626 -0.9148 -0.1414
 1509TIP3    H2 4534   5.147   5.901   4.425 -0.4555  1.2867 -0.0996
 1510TIP3   OH2 4535   5.281   0.721   2.199 -0.5863  0.0627  0.3961
 1510TIP3    H1 4536   5.205   0.766   2.235  0.5635  2.2319  0.3351
 1510TIP3    H2 4537   5.347   0.727   2.268  0.2723  0.3896 -0.4299
 1511TIP3   OH2 4538   0.300   0.067   2.829  0.3692 -0.3100 -0.0683
 1511TIP3    H1 4539   0.356   0.145   2.836  0.6441 -0.4418 -0.7462
 1511TIP3    H2 4540   0.227   0.095   2.775  1.0446 -0.8277 -1.2916
 1512TIP3   OH2 4541   5.024   1.933   1.316  0.1256  0.2650  0.1220
 1512TIP3    H1 4542   4.981   1.983   1.247 -1.7319 -1.3106  0.0423
 1512TIP3    H2 4543   5.117   1.945   1.300 -0.2367  0.3463 -2.3822
 1513TIP3   OH2 4544   3.603   2.705   4.539 -0.1014 -0.6195 -0.5105
 1513TIP3    H1 4545   3.550   2.771   4.494 -1.1390 -1.5283 -0.6783
 1513TIP3    H2 4546   3.650   2.754   4.606 -0.7544  0.3052 -0.7000
 1514TIP3   OH2 4547   3.673   0.513   2.636 -0.4006 -0.5524  0.4591
 1514TIP3    H1 4548   3.689   0.512   2.542  0.1667 -0.7308  0.5519
 1514TIP3    H2 4549   3.722   0.438   2.670 -1.9452 -1.4970  0.6971
 1515TIP3   OH2 4550   1.677   4.372   1.337  0.1576 -0.5974  0.1274
 1515TIP3    H1 4551   1.662   4.405   1.425 -0.5056 -3.1600  1.0608
 1515TIP3    H2 4552   1.765   4.333   1.341  0.8426  0.7385 -0.8848
 1516TIP3   OH2 4553   6.147   5.318   3.196  0.2934 -0.0035  0.0664
 1516TIP3    H1 4554   6.166   5.379   3.125  0.7145 -1.2977 -0.9822
 1516TIP3    H2 4555   6.086   5.255   3.157  0.3389 -0.5909  0.9214
 1517TIP3   OH2 4556   5.187   1.798   3.199  0.2370 -0.3742  0.3843
 1517TIP3    H1 4557   5.101   1.800   3.156 -0.0440  1.1448  0.9700
 1517TIP3    H2 4558   5.238   1.737   3.146 -1.0801 -1.0294 -0.1963
 1518TIP3   OH2 4559   3.798   5.022   3.275 -0.1447  0.6626  0.7794
 1518TIP3    H1 4560   3.809   5.031   3.369 -1.3319 -0.9789  1.1158
 1518TIP3    H2 4561   3.786   4.928   3.261 -1.4967  1.0260 -0.8127
 1519TIP3   OH2 4562   1.288   4.383   0.463 -0.2650 -0.5010 -0.0554
 1519TIP3    H1 4563   1.369   4.335   0.475 -0.2111 -0.3992 -0.0097
 1519TIP3    H2 4564   1.252   4.393   0.551 -0.3352 -0.5604 -0.0770
 1520TIP3   OH2 4565   3.850   4.826   2.346  0.0279  0.3311  0.2945
 1520TIP3    H1 4566   3.902   4.812   2.267  2.1937  1.2687  1.4610
 1520TIP3    H2 4567   3.793   4.900   2.325  0.9845  0.9363 -0.2588
 1521TIP3   OH2 4568   3.133   3.988   1.947  0.0385  0.7594 -0.2300
 1521TIP3    H1 4569   3.117   4.027   1.861 -0.2179 -0.4070 -0.7282
 1521TIP3    H2 4570   3.060   4.018   2.001 -3.1077 -2.9792 -1.9576
 1522TIP3   OH2 4571   3.478   3.165   2.066 -0.4263  0.2806 -0.4171
 1522TIP3    H1 4572   3.401   3.162   2.010  0.1453 -0.4423 -1.1983
 1522TIP3    H2 4573   3.446   3.143   2.153 -1.0207 -0.5970 -0.8377
 1523TIP3   OH2 4574   5.456   1.212   2.271 -0.1456  0.2067  0.5720
 1523TIP3    H1 4575   5.502   1.135   2.238 -1.2619  0.6408 -2.2047
 1523TIP3    H2 4576   5.378   1.177   2.315  0.3506 -0.2919  1.0747
 1524TIP3   OH2 4577   3.734   1.745   3.442  0.2320 -0.2534  0.2420
 1524TIP3    H1 4578   3.696   1.741   3.530  1.7699 -3.7946  0.9271
 1524TIP3    H2 4579   3.687   1.677   3.394  2.0896 -1.1399 -0.4138
 1525TIP3   OH2 4580   2.928   4.493   3.858  0.2999  0.0999  0.3485
 1525TIP3    H1 4581   2.918   4.398   3.865  2.0173 -0.3958 -2.3536
 1525TIP3    H2 4582   2.967   4.519   3.941 -0.1658 -1.5788  1.1286
 1526TIP3   OH2 4583   1.916   2.308   2.940 -0.1136 -0.2499 -0.0115
 1526TIP3    H1 4584   1.970   2.276   2.867 -1.9302 -0.3155 -1.4208
 1526TIP3    H2 4585   1.876   2.388   2.906  0.6145  0.9049  1.7295
 1527TIP3   OH2 4586   4.157   0.222   0.283  0.5035 -0.4127  0.5358
 1527TIP3    H1 4587   4.147   0.127   0.279 -0.5831 -0.2843 -1.9673
 1527TIP3    H2 4588   4.252   0.236   0.280  0.6608 -1.4252  0.3753
 1528TIP3   OH2 4589   0.669   3.304   0.889  0.0692 -0.2765  0.3053
 1528TIP3    H1 4590   0.690   3.210   0.883 -0.2554 -0.4395  1.5157
 1528TIP3    H2 4591   0.651   3.330   0.799 -1.7706 -1.8510  0.1472
 1529TIP3   OH2 4592   2.279   2.181   2.235  0.6671  0.3966 -0.8727
 1529TIP3    H1 4593   2.301   2.228   2.316 -1.4890  0.2633 -0.1548
 1529TIP3    H2 4594   2.300   2.243   2.165 -0.3298  1.7356 -0.0414
 1530TIP3   OH2 4595   1.370   0.963   2.044  0.4802  0.0856  0.3750
 1530TIP3    H1 4596   1.446   1.015   2.071 -0.5197  1.6838  0.2573
 1530TIP3    H2 4597   1.396   0.925   1.960  1.5259 -0.2727  0.8369
 1531TIP3   OH2 4598   1.163   2.982   0.397  0.1352 -0.2715 -0.2018
 1531TIP3    H1 4599   1.108   2.980   0.475  0.9453 -0.0025  0.3838
 1531TIP3    H2 4600   1.249   2.955   0.428  0.3655 -0.5868 -1.0904
 1532TIP3   OH2 4601   0.404   5.614   3.665  0.4899 -0.1112  0.3892
 1532TIP3    H1 4602   0.347   5.545   3.633  0.2336  0.4978 -0.5092
 1532TIP3    H2 4603   0.493   5.587   3.641  0.3606  0.0187 -0.2378
 1533TIP3   OH2 4604   0.949   2.232   3.363  0.2142 -0.2524 -0.0048
 1533TIP3    H1 4605   0.878   2.288   3.332 -1.3252 -1.7629  0.6425
 1533TIP3    H2 4606   0.951   2.246   3.458  1.4737  0.4988 -0.1117
 1534TIP3   OH2 4607   2.131   2.498   3.824 -0.3814 -0.0212 -0.1337
 1534TIP3    H1 4608   2.098   2.533   3.741 -0.6854 -1.5138 -0.6671
 1534TIP3    H2 4609   2.076   2.421   3.841  0.4599 -0.4237  0.8485
 1535TIP3   OH2 4610   5.744   1.550   4.635 -0.8639  0.2449 -0.1020
 1535TIP3    H1 4611   5.689   1.629   4.635  0.2331  1.0353  1.0496
 1535TIP3    H2 4612   5.735   1.515   4.546 -1.6089  1.4894 -0.5448
 1536TIP3   OH2 4613   0.511   5.612   3.237 -0.7228 -0.2808  1.0507
 1536TIP3    H1 4614   0.601   5.636   3.216 -1.1370  0.6664  0.2874
 1536TIP3    H2 4615   0.519   5.532   3.290  0.5568 -0.1746  1.0421
 1537TIP3   OH2 4616   5.807   0.212   4.075 -0.0197  0.3432 -0.1927
 1537TIP3    H1 4617   5.886   0.243   4.120  0.1417  0.9574 -0.8796
 1537TIP3    H2 4618   5.809   0.257   3.991 -0.0413 -1.1926 -1.0362
 1538TIP3   OH2 4619   4.045   2.722   0.266 -0.4108 -0.1617  0.6266
 1538TIP3    H1 4620   4.089   2.646   0.228  0.4432  0.8404 -0.4396
 1538TIP3    H2 4621   3.952   2.702   0.260 -0.2331 -0.6558 -0.6542
 1539TIP3   OH2 4622   3.963   4.759   3.324 -0.0364 -0.1299 -0.2853
 1539TIP3    H1 4623   3.995   4.707   3.250 -1.2015 -1.3698  0.0527
 1539TIP3    H2 4624   4.042   4.795   3.364  0.7664 -1.2323 -0.8294
 1540TIP3   OH2 4625   2.325   3.897   0.538 -0.0853  0.4226 -0.1776
 1540TIP3    H1 4626   2.398   3.915   0.597 -0.7242  0.8781  0.4938
 1540TIP3    H2 4627   2.363   3.904   0.450  0.1090  3.6145  0.0327
 1541TIP3   OH2 4628   0.481   5.305   4.786 -0.2451 -0.7157 -0.0440
 1541TIP3    H1 4629   0.481   5.311   4.882  0.7613 -0.1135 -0.0662
 1541TIP3    H2 4630   0.390   5.324   4.761 -0.4075 -0.3516  0.7662
 1542TIP3   OH2 4631   4.153   2.160   1.218 -0.3376 -0.6097 -0.0090
 1542TIP3    H1 4632   4.247   2.148   1.206 -0.6013 -1.6296 -1.2270
 1542TIP3    H2 4633   4.133   2.239   1.168 -0.0446 -0.0453  0.7474
 1543TIP3   OH2 4634   0.838   0.103   5.172 -0.2936  0.1966 -0.7432
 1543TIP3    H1 4635   0.808   0.193   5.184 -0.8569  0.1374 -1.6345
 1543TIP3    H2 4636   0.758   0.051   5.170  0.0210 -0.3106 -0.3907
 1544TIP3   OH2 4637   0.363   0.544   2.723  0.6309 -0.2447  0.3481
 1544TIP3    H1 4638   0.456   0.554   2.707  0.3081  1.7130 -0.6842
 1544TIP3    H2 4639   0.329   0.502   2.644  0.4217  0.5994 -0.0257
 1545TIP3   OH2 4640   0.810   2.675   3.761 -0.1689 -0.1375  0.2964
 1545TIP3    H1 4641   0.812   2.633   3.847 -1.6673 -0.1167  0.3772
 1545TIP3    H2 4642   0.890   2.727   3.757  0.3621 -0.8489  1.3085
 1546TIP3   OH2 4643   0.206   5.018   0.501  0.1040 -0.2709  0.4781
 1546TIP3    H1 4644   0.257   5.030   0.421  0.9388  1.9732  1.2519
 1546TIP3    H2 4645   0.140   5.088   0.498  1.1133  0.8447  2.4184
 1547TIP3   OH2 4646   4.449   1.241   1.798 -0.7783 -0.1748  0.0925
 1547TIP3    H1 4647   4.542   1.237   1.820 -0.7389 -1.1691 -0.2102
 1547TIP3    H2 4648   4.406   1.183   1.861 -1.3253  0.9633  0.8056
 1548TIP3   OH2 4649   2.552   0.112   1.140  0.0349  0.6770  0.3085
 1548TIP3    H1 4650   2.542   0.206   1.127 -1.0342  0.5521  0.1837
 1548TIP3    H2 4651   2.510   0.095   1.224 -1.3118  0.0602 -0.4615
 1549TIP3   OH2 4652   5.947   5.836   2.786  0.2011  0.1057  0.3583
 1549TIP3    H1 4653   5.891   5.907   2.757  0.4945 -0.2923 -1.3333
 1549TIP3    H2 4654   6.003   5.817   2.710 -0.8526 -2.8783  0.1728
 1550TIP3   OH2 4655   1.073   5.766   1.166 -0.2382 -0.0225  0.6805
 1550TIP3    H1 4656   0.992   5.770   1.216 -0.2779 -0.1294  0.6270
 1550TIP3    H2 4657   1.102   5.675   1.175  0.5522  0.3286  1.7474
 1551TIP3   OH2 4658   4.539   2.718   4.560 -0.2088  0.0468 -0.4466
 1551TIP3    H1 4659   4.447   2.692   4.559 -0.4033  0.4567  1.5441
 1551TIP3    H2 4660   4.545   2.780   4.633  0.8491  3.2853 -3.0721
 1552TIP3   OH2 4661   3.244   4.246   0.050  0.5469 -0.0608 -0.0587
 1552TIP3    H1 4662   3.303   4.292   0.110 -2.2217  0.7643  2.2535
 1552TIP3    H2 4663   3.240   4.157   0.084 -0.5417  0.2423  0.6400
 1553TIP3   OH2 4664   0.830   2.624   1.755 -0.1446 -0.1561  0.2297
 1553TIP3    H1 4665   0.840   2.603   1.662 -0.8984  0.5210 -0.0185
 1553TIP3    H2 4666   0.781   2.706   1.755  1.0514  0.5801  1.1995
 1554TIP3   OH2 4667   0.319   5.340   3.908  0.3071  0.2989  0.0870
 1554TIP3    H1 4668   0.293   5.334   3.816 -0.6904 -0.0001  0.3783
 1554TIP3    H2 4669   0.305   5.252   3.943 -0.1509  0.6181  0.7305
 1555TIP3   OH2 4670   3.436   0.414   4.877 -0.5509 -0.6200 -0.0845
 1555TIP3    H1 4671   3.411   0.416   4.785 -2.6970 -1.0988  0.4402
 1555TIP3    H2 4672   3.398   0.494   4.914  0.5970 -0.2462  0.3394
 1556TIP3   OH2 4673   5.448   1.315   0.693 -0.1434  0.3072  0.0448
 1556TIP3    H1 4674   5.404   1.250   0.748  0.4549  0.2318  0.4563
 1556TIP3    H2 4675   5.537   1.281   0.683  0.0324  0.8130 -0.1527
 1557TIP3   OH2 4676   4.215   2.945   4.614 -0.0350 -0.3869 -0.6760
 1557TIP3    H1 4677   4.160   3.001   4.558  1.7212  0.9733 -1.1332
 1557TIP3    H2 4678   4.298   2.992   4.620  1.2771 -2.6393 -0.4520
 1558TIP3   OH2 4679   1.716   0.002   2.028  0.2774 -0.3469 -0.5582
 1558TIP3    H1 4680   1.731   0.030   2.118 -1.9362 -0.2593 -0.1494
 1558TIP3    H2 4681   1.701   0.083   1.980 -0.4680 -0.4830 -0.5722
 1559TIP3   OH2 4682   0.915   4.789   1.254 -0.5641 -0.6849  0.0682
 1559TIP3    H1 4683   0.837   4.734   1.242 -1.9966  1.4227 -1.0058
 1559TIP3    H2 4684   0.974   4.763   1.184 -2.6370  1.2897 -2.6193
 1560TIP3   OH2 4685   1.839   5.278   3.594  0.5084 -0.3119  0.1683
 1560TIP3    H1 4686   1.843   5.244   3.683 -0.1479  0.8780  0.6746
 1560TIP3    H2 4687   1.766   5.230   3.554  1.1936 -1.2860  0.0680
 1561TIP3   OH2 4688   1.015   3.407   3.636  0.0094 -0.2895 -0.0766
 1561TIP3    H1 4689   0.999   3.430   3.545 -0.1632 -0.8648 -0.1969
 1561TIP3    H2 4690   1.017   3.491   3.682 -0.1089 -0.0095 -0.5743
 1562TIP3   OH2 4691   5.884   0.473   4.768  0.6004 -0.4071 -0.1275
 1562TIP3    H1 4692   5.839   0.543   4.816  0.5151  0.7877 -1.8491
 1562TIP3    H2 4693   5.850   0.392   4.806  0.5931  0.4614  1.8289
 1563TIP3   OH2 4694   2.478   3.006   1.481  0.7853 -0.1377  0.0982
 1563TIP3    H1 4695   2.557   3.057   1.497  0.6145 -0.1713  1.1243
 1563TIP3    H2 4696   2.497   2.956   1.401  2.2658 -1.0523  0.9794
 1564TIP3   OH2 4697   3.571   5.061   0.991 -0.6807  0.8261  0.5090
 1564TIP3    H1 4698   3.577   4.967   0.972  0.2269  0.8261  0.7281
 1564TIP3    H2 4699   3.662   5.091   0.989 -1.0060  1.8090 -0.0706
 1565TIP3   OH2 4700   0.262   3.952   4.215 -0.0805  0.2104 -0.4123
 1565TIP3    H1 4701   0.323   4.011   4.171 -0.5667  1.1306  0.1296
 1565TIP3    H2 4702   0.181   4.003   4.224 -0.4049 -0.4242  0.3492
 1566TIP3   OH2 4703   5.938   3.874   2.630  0.1471 -0.1311 -0.8901
 1566TIP3    H1 4704   5.953   3.947   2.569 -0.9616  1.2096  0.3780
 1566TIP3    H2 4705   5.847   3.849   2.616 -0.5594  1.1033  1.0862
 1567TIP3   OH2 4706   4.978   0.391   4.432  0.5583  0.1661 -0.4664
 1567TIP3    H1 4707   4.925   0.320   4.396 -0.7508  1.0064 -0.2598
 1567TIP3    H2 4708   5.066   0.353   4.440  0.0923 -1.1412 -1.1841
 1568TIP3   OH2 4709   0.465   0.956   5.049  0.0545  0.0854 -0.2404
 1568TIP3    H1 4710   0.548   0.994   5.078  0.1743 -0.4041  0.0599
 1568TIP3    H2 4711   0.446   1.000   4.966  1.4154 -0.9377 -1.1266
 1569TIP3   OH2 4712   0.950   5.067   1.079  0.4065 -0.1484 -0.2266
 1569TIP3    H1 4713   1.036   5.028   1.063  1.4100  1.9096 -0.2054
 1569TIP3    H2 4714   0.964   5.126   1.154 -0.7663  0.9758 -0.8559
 1570TIP3   OH2 4715   3.149   3.137   3.645  0.0642 -0.4432 -0.2158
 1570TIP3    H1 4716   3.059   3.119   3.619 -0.5230 -0.1479  1.4627
 1570TIP3    H2 4717   3.203   3.083   3.587 -1.2459 -1.3938 -0.5753
 1571TIP3   OH2 4718   1.874   4.389   2.911 -0.1876  0.1774  0.2018
 1571TIP3    H1 4719   1.828   4.426   2.986 -0.2678  0.6413 -0.0648
 1571TIP3    H2 4720   1.804   4.361   2.852 -0.1262 -0.1497  0.2876
 1572TIP3   OH2 4721   4.470   5.395   0.063  0.3064 -0.6174  0.1217
 1572TIP3    H1 4722   4.455   5.305   0.092  0.6875 -1.2102 -1.3944
 1572TIP3    H2 4723   4.481   5.387  -0.032 -0.1865  1.1013 -0.1057
 1573TIP3   OH2 4724   4.687   4.910   4.106 -0.3853 -0.4530  0.0609
 1573TIP3    H1 4725   4.726   4.984   4.059  0.8004 -0.0977  1.5248
 1573TIP3    H2 4726   4.704   4.834   4.050 -0.0040  0.1236 -0.6139
 1574TIP3   OH2 4727   5.511   1.250   1.400 -0.0075  0.2070 -0.0712
 1574TIP3    H1 4728   5.430   1.244   1.349 -0.3771  1.4678  0.3341
 1574TIP3    H2 4729   5.568   1.184   1.361 -1.4316 -1.1336  0.0375
 1575TIP3   OH2 4730   6.039   2.639   3.307 -0.3827 -0.2423 -0.0666
 1575TIP3    H1 4731   6.044   2.729   3.274 -1.2945 -1.3675 -3.6480
 1575TIP3    H2 4732   5.946   2.626   3.326 -0.2394 -0.4351  0.5152
 1576TIP3   OH2 4733   0.549   5.719   4.970 -0.7073 -0.3573 -0.1655
 1576TIP3    H1 4734   0.474   5.692   5.023 -0.6819  0.6454  0.4066
 1576TIP3    H2 4735   0.533   5.679   4.884 -2.0935  0.1431 -0.1666
 1577TIP3   OH2 4736   1.031   2.528   1.961  0.2634 -0.3466 -0.2289
 1577TIP3    H1 4737   0.982   2.556   2.039 -3.0004 -2.3377 -1.3666
 1577TIP3    H2 4738   1.005   2.589   1.893  1.6067  0.2215 -0.2652
 1578TIP3   OH2 4739   0.683   3.753   2.235 -0.0420 -0.0121  0.3456
 1578TIP3    H1 4740   0.603   3.712   2.203 -0.1127  0.1380  0.3276
 1578TIP3    H2 4741   0.710   3.700   2.309  1.1697 -1.5390 -1.0950
 1579TIP3   OH2 4742   4.031   3.645   3.833  0.3473  0.0046  0.4846
 1579TIP3    H1 4743   4.108   3.593   3.811 -0.0105 -0.9245  1.3351
 1579TIP3    H2 4744   4.025   3.710   3.763  0.9873 -0.9126 -0.4612
 1580TIP3   OH2 4745   6.018   3.878   1.054  1.1342 -0.4939  0.7688
 1580TIP3    H1 4746   6.099   3.832   1.034  2.0720  1.4670 -0.2066
 1580TIP3    H2 4747   5.956   3.847   0.989  1.7252 -0.4659  0.1819
 1581TIP3   OH2 4748   0.839   4.602   0.973 -0.5133  0.3374  0.1705
 1581TIP3    H1 4749   0.794   4.612   1.057  2.0293 -1.3416  1.8846
 1581TIP3    H2 4750   0.776   4.557   0.917 -1.4234 -0.9004  2.0641
 1582TIP3   OH2 4751   4.192   3.913   2.946  0.3952  0.0026  0.0703
 1582TIP3    H1 4752   4.238   3.900   3.029 -0.4608  1.5225  0.8217
 1582TIP3    H2 4753   4.115   3.857   2.952  0.5527 -0.2136  0.1087
 1583TIP3   OH2 4754   3.441   4.202   4.709 -0.1228 -0.1070  1.1281
 1583TIP3    H1 4755   3.536   4.205   4.716 -0.0680  1.3400  0.2005
 1583TIP3    H2 4756   3.416   4.123   4.757  1.7183 -1.7598 -0.4010
 1584TIP3   OH2 4757   3.032   0.998   0.814 -0.1983 -0.0523 -0.6539
 1584TIP3    H1 4758   2.965   1.048   0.769  0.6996  2.6859  0.8301
 1584TIP3    H2 4759   3.113   1.018   0.768  0.4587  1.4095  1.0110
 1585TIP3   OH2 4760   2.120   1.382   0.624  0.2890 -0.2733  0.3719
 1585TIP3    H1 4761   2.132   1.477   0.621 -0.0791 -0.2262  0.3365
 1585TIP3    H2 4762   2.180   1.353   0.692  1.4783 -0.1882 -0.6005
 1586TIP3   OH2 4763   1.674   0.428   0.861  0.7382  0.4193  0.5726
 1586TIP3    H1 4764   1.657   0.516   0.894  0.6199  0.8866 -0.6821
 1586TIP3    H2 4765   1.734   0.389   0.925  2.0146  1.9544  0.3641
 1587TIP3   OH2 4766   0.175   4.249   2.593 -0.1177  0.2429  0.2300
 1587TIP3    H1 4767   0.248   4.196   2.626 -0.8364  0.2984  2.0271
 1587TIP3    H2 4768   0.123   4.187   2.542  1.4031  0.3208 -1.5351
 1588TIP3   OH2 4769   3.692   5.510   4.350  0.3540 -0.5175  0.4307
 1588TIP3    H1 4770   3.683   5.549   4.263  0.6361 -1.5803 -0.1001
 1588TIP3    H2 4771   3.785   5.514   4.369  0.2889 -0.2549  0.7066
 1589TIP3   OH2 4772   0.843   1.697   0.565  0.4282 -0.5031 -0.1910
 1589TIP3    H1 4773   0.760   1.744   0.559  0.6680  0.0726  0.8341
 1589TIP3    H2 4774   0.845   1.663   0.654  2.6043  2.0855  0.8993
 1590TIP3   OH2 4775   5.006   4.687   2.150  0.2522 -0.0159  0.2949
 1590TIP3    H1 4776   5.006   4.728   2.064 -1.6209 -0.8236 -0.1506
 1590TIP3    H2 4777   5.042   4.753   2.209 -1.5790  1.8778 -0.5625
 1591TIP3   OH2 4778   0.842   2.831   4.921  0.2966  0.1822 -0.4408
 1591TIP3    H1 4779   0.866   2.905   4.866 -0.1549 -0.5313 -1.6165
 1591TIP3    H2 4780   0.909   2.765   4.904  1.4710  0.7511  1.5987
 1592TIP3   OH2 4781   4.789   3.037   4.568  0.1367 -0.4692 -0.0081
 1592TIP3    H1 4782   4.708   3.014   4.612 -0.9640  1.5356 -0.8505
 1592TIP3    H2 4783   4.778   3.006   4.478 -0.5490  1.4076 -0.6254
 1593TIP3   OH2 4784   0.461   1.535   3.724  0.1048  0.1615  0.1536
 1593TIP3    H1 4785   0.392   1.520   3.659 -0.7924  1.0472  0.8702
 1593TIP3    H2 4786   0.437   1.478   3.798  0.9215 -0.5713 -0.1290
 1594TIP3   OH2 4787   0.254   3.919   0.954 -0.5426 -0.4215 -0.0589
 1594TIP3    H1 4788   0.182   3.958   0.904 -1.0071 -0.5123  0.5281
 1594TIP3    H2 4789   0.237   3.825   0.950  1.1510 -0.7098 -2.3628
 1595TIP3   OH2 4790   2.720   2.899   3.565  0.1810 -0.1095  0.7204
 1595TIP3    H1 4791   2.672   2.882   3.646  1.8052 -2.8066  1.2331
 1595TIP3    H2 4792   2.728   2.814   3.523  0.3994  1.0328 -1.7561
 1596TIP3   OH2 4793   1.244   2.385   4.262 -0.0708 -0.1241  0.7376
 1596TIP3    H1 4794   1.196   2.374   4.180  1.3762 -2.8250  0.1280
 1596TIP3    H2 4795   1.260   2.296   4.292 -0.7722  0.7740  4.1632
 1597TIP3   OH2 4796   4.431   1.576   2.257  0.8414 -0.2818  0.2343
 1597TIP3    H1 4797   4.502   1.524   2.295  0.9055 -0.4080 -0.0545
 1597TIP3    H2 4798   4.390   1.618   2.332 -1.0352 -2.9716  0.8744
 1598TIP3   OH2 4799   1.730   4.619   0.525  0.2560  0.0474  0.5834
 1598TIP3    H1 4800   1.805   4.671   0.496  0.0125 -0.4883 -1.0871
 1598TIP3    H2 4801   1.700   4.574   0.447 -1.2402 -0.4936  1.4301
 1599TIP3   OH2 4802   1.361   5.302   2.102 -0.3396  0.2580  0.1618
 1599TIP3    H1 4803   1.412   5.281   2.023  0.7221  1.3230  0.5245
 1599TIP3    H2 4804   1.293   5.235   2.105  0.6343 -0.8284 -0.7236
 1600TIP3   OH2 4805   4.354   1.774   0.177 -0.2685 -0.8645 -0.3276
 1600TIP3    H1 4806   4.321   1.795   0.090 -1.9531  0.1278  0.4955
 1600TIP3    H2 4807   4.380   1.859   0.214 -2.4998 -0.7674  1.2249
 1601TIP3   OH2 4808   4.135   4.930   1.801  0.0560  0.1125  0.3947
 1601TIP3    H1 4809   4.054   4.960   1.759  0.3195 -0.9779 -0.9635
 1601TIP3    H2 4810   4.205   4.969   1.748  0.5691  2.9773  2.8942
 1602TIP3   OH2 4811   2.219   2.077   4.442 -0.4224  0.0208 -0.0585
 1602TIP3    H1 4812   2.292   2.029   4.480 -0.5019  1.1464  1.6511
 1602TIP3    H2 4813   2.245   2.096   4.352  0.6099 -1.1067 -0.0127
 1603TIP3   OH2 4814   3.754   5.954   2.817  0.3646  0.4453  0.1861
 1603TIP3    H1 4815   3.781   5.951   2.725  0.0253  0.2853  0.0898
 1603TIP3    H2 4816   3.829   5.990   2.863  0.8164 -0.1743 -0.0499
 1604TIP3   OH2 4817   3.565   0.480   3.477 -0.4535  0.1021 -0.0361
 1604TIP3    H1 4818   3.564   0.413   3.545  1.8613 -1.1382 -1.1050
 1604TIP3    H2 4819   3.658   0.498   3.463 -0.9607  1.8869 -1.3888
 1605TIP3   OH2 4820   3.360   0.826   0.642  0.7512 -0.0726  0.1582
 1605TIP3    H1 4821   3.371   0.852   0.551  1.2374  0.4782  0.3719
 1605TIP3    H2 4822   3.448   0.832   0.680  0.7193 -1.1652  0.4418
 1606TIP3   OH2 4823   4.044   2.001   4.426  0.2033 -0.2260  0.3186
 1606TIP3    H1 4824   3.989   2.033   4.354  1.3453 -0.5023 -0.7124
 1606TIP3    H2 4825   4.023   2.058   4.500 -0.1439  0.8249 -0.5655
 1607TIP3   OH2 4826   4.518   3.567   0.925  0.3266 -0.6984 -0.5007
 1607TIP3    H1 4827   4.512   3.540   0.833  0.9842 -0.7647 -0.5265
 1607TIP3    H2 4828   4.587   3.633   0.927 -1.7286  1.5886 -0.5594
 1608TIP3   OH2 4829  -0.035   0.042   4.004 -0.2416 -0.3627  0.4979
 1608TIP3    H1 4830   0.022   0.058   4.080  2.6665 -1.7729 -1.2207
 1608TIP3    H2 4831   0.021  -0.003   3.941 -2.6590  0.3007 -2.3403
 1609TIP3   OH2 4832   4.393   4.049   2.501  0.6393 -0.4045  0.5940
 1609TIP3    H1 4833   4.316   4.062   2.446  0.8399 -0.4919  0.2922
 1609TIP3    H2 4834   4.362   3.996   2.574  0.4595 -0.6150  0.3655
 1610TIP3   OH2 4835   2.190   1.699   3.254  0.1953 -0.4263 -0.0580
 1610TIP3    H1 4836   2.276   1.739   3.241  1.1426 -1.5391  2.2502
 1610TIP3    H2 4837   2.138   1.767   3.296 -0.3399  0.4719 -2.0423
 1611TIP3   OH2 4838   1.789   1.222   1.185 -0.2308 -0.1685  0.3310
 1611TIP3    H1 4839   1.868   1.261   1.148 -0.0982 -0.4310  0.3325
 1611TIP3    H2 4840   1.717   1.267   1.141 -0.0738 -0.3740 -0.1456
 1612TIP3   OH2 4841   1.671   1.424   2.045  0.0851  0.1805  0.0737
 1612TIP3    H1 4842   1.760   1.444   2.018 -0.1769  0.0720 -0.9335
 1612TIP3    H2 4843   1.616   1.484   1.994 -0.3185  2.1830  2.6581
 1613TIP3   OH2 4844   2.611   4.216   2.912  0.7692 -0.1133 -0.0249
 1613TIP3    H1 4845   2.571   4.175   2.836 -1.6048 -1.1780  1.6776
 1613TIP3    H2 4846   2.697   4.175   2.919  0.0019 -1.9217 -0.6554
 1614TIP3   OH2 4847   1.521   3.862   2.108 -0.2046 -0.3713 -0.2854
 1614TIP3    H1 4848   1.521   3.856   2.203 -0.9075  0.2643 -0.2400
 1614TIP3    H2 4849   1.610   3.891   2.085 -0.8209  2.3035  0.3794
 1615TIP3   OH2 4850   0.779   5.269   4.649  0.1304  0.2654 -0.1173
 1615TIP3    H1 4851   0.781   5.271   4.745  1.3802 -1.1450 -0.0736
 1615TIP3    H2 4852   0.692   5.301   4.626 -0.5174 -0.2130  1.5175
 1616TIP3   OH2 4853   4.469   3.405   4.005 -0.2154  0.2714 -0.0350
 1616TIP3    H1 4854   4.538   3.339   4.013  0.0882  0.6506  0.5459
 1616TIP3    H2 4855   4.458   3.416   3.911  0.5772  0.2672 -0.1356
 1617TIP3   OH2 4856   3.555   5.437   1.159  0.1508  0.4437  0.1778
 1617TIP3    H1 4857   3.597   5.521   1.173 -0.2728  0.8085 -0.6425
 1617TIP3    H2 4858   3.517   5.444   1.071 -1.2211 -0.0198  0.7025
 1618TIP3   OH2 4859   1.514   2.713   3.057 -0.3570  0.0041  0.0765
 1618TIP3    H1 4860   1.598   2.672   3.036 -0.9396 -0.8750 -0.6100
 1618TIP3    H2 4861   1.535   2.806   3.068  0.7018 -0.2037 -0.0888
 1619TIP3   OH2 4862   5.773   2.670   0.810 -0.1610  0.4401 -0.4795
 1619TIP3    H1 4863   5.833   2.699   0.879  1.2122 -3.2658  0.0831
 1619TIP3    H2 4864   5.708   2.617   0.856 -0.7211 -0.0191 -1.7548
 1620TIP3   OH2 4865   1.215   1.828   0.760  0.3317  0.2204  0.0516
 1620TIP3    H1 4866   1.210   1.733   0.748  0.4050  0.1618  0.4499
 1620TIP3    H2 4867   1.259   1.839   0.844 -1.7055  0.5641  1.1427
 1621TIP3   OH2 4868   3.263   0.123   0.564  0.0741 -0.1166 -0.2812
 1621TIP3    H1 4869   3.305   0.071   0.632  1.9797  2.6999  0.9143
 1621TIP3    H2 4870   3.333   0.181   0.532 -1.5685  0.8654 -2.3835
 1622TIP3   OH2 4871   4.971   2.164   0.778 -0.6906  0.0640  0.1496
 1622TIP3    H1 4872   4.878   2.185   0.770 -1.0288 -1.5910 -0.7221
 1622TIP3    H2 4873   5.014   2.215   0.709 -0.9015  0.9949  0.6908
 1623TIP3   OH2 4874   4.490   4.206   4.176  0.1046 -0.0935 -0.5698
 1623TIP3    H1 4875   4.412   4.176   4.130  0.0791  0.7306 -1.0842
 1623TIP3    H2 4876   4.457   4.268   4.241  0.0729 -1.7290  1.0270
 1624TIP3   OH2 4877   0.711   4.007   0.767  0.2651  0.2140 -0.6344
 1624TIP3    H1 4878   0.650   4.073   0.801 -0.3392 -0.2474 -0.8093
 1624TIP3    H2 4879   0.797   4.039   0.794 -0.0111  1.0886 -0.7378
 1625TIP3   OH2 4880   4.450   4.557   1.513 -0.0856 -0.2492 -0.4840
 1625TIP3    H1 4881   4.410   4.480   1.554  0.4452 -1.0788 -1.4605
 1625TIP3    H2 4882   4.379   4.597   1.464 -0.7504  0.8153  1.2882
 1626TIP3   OH2 4883   4.243   4.831   3.929  0.8512 -0.1709 -0.2149
 1626TIP3    H1 4884   4.263   4.898   3.995  1.2545 -1.0551  0.5753
 1626TIP3    H2 4885   4.204   4.880   3.857  1.7940  1.0192  0.0472
 1627TIP3   OH2 4886   2.638   1.178   2.571 -0.2279 -0.3049  0.1612
 1627TIP3    H1 4887   2.731   1.196   2.585 -0.1148 -0.8935  0.1849
 1627TIP3    H2 4888   2.636   1.125   2.491 -0.6530  0.7972 -0.5976
 1628TIP3   OH2 4889   1.075   2.687   1.334  0.3842 -0.1685 -0.1486
 1628TIP3    H1 4890   0.988   2.682   1.373  0.8531 -1.2579  0.8012
 1628TIP3    H2 4891   1.110   2.599   1.341  1.0529 -0.0800 -1.7933
 1629TIP3   OH2 4892   1.656   1.631   1.620 -0.1695  0.1564  0.0562
 1629TIP3    H1 4893   1.592   1.609   1.552 -1.0577  0.3127  0.8251
 1629TIP3    H2 4894   1.603   1.658   1.695  0.7372 -1.4231  1.3313
 1630TIP3   OH2 4895   4.802   5.823   2.634 -0.5283  0.4241  0.1715
 1630TIP3    H1 4896   4.822   5.739   2.594  0.6976  0.5700  0.4266
 1630TIP3    H2 4897   4.708   5.820   2.651 -1.0367  0.2038 -2.2935
 1631TIP3   OH2 4898   0.842   1.329   2.195  0.2733  0.3829  0.0176
 1631TIP3    H1 4899   0.892   1.342   2.276  0.6160  0.3294 -0.1810
 1631TIP3    H2 4900   0.909   1.324   2.127  0.0089  0.0097 -0.2157
 1632TIP3   OH2 4901   2.883   0.226   1.151 -0.0254 -0.5923 -0.2852
 1632TIP3    H1 4902   2.818   0.236   1.082  0.3554 -1.5597 -0.8082
 1632TIP3    H2 4903   2.880   0.309   1.199 -2.4873 -1.0487  0.4653
 1633TIP3   OH2 4904   2.765   2.227   0.378 -0.1964 -0.5617  0.7451
 1633TIP3    H1 4905   2.840   2.216   0.436  0.2080 -1.2968  0.0995
 1633TIP3    H2 4906   2.737   2.318   0.392  1.8567  0.2932 -0.1837
 1634TIP3   OH2 4907   0.377   1.839   4.611  0.4746  0.0525 -0.1418
 1634TIP3    H1 4908   0.406   1.926   4.584 -0.9968  0.4369 -0.5841
 1634TIP3    H2 4909   0.454   1.783   4.598  1.3966  1.2461  0.0049
 1635TIP3   OH2 4910   6.132   0.594   3.834 -0.0304  0.2171 -0.1979
 1635TIP3    H1 4911   6.119   0.663   3.769 -0.2716  1.7013  1.3453
 1635TIP3    H2 4912   6.044   0.569   3.861  0.0760  0.2830  0.2198
 1636TIP3   OH2 4913   1.826   2.169   4.818  0.1829 -0.5035  0.3183
 1636TIP3    H1 4914   1.810   2.177   4.724 -0.3992 -0.4547  0.4178
 1636TIP3    H2 4915   1.743   2.195   4.859  0.4938 -0.3273  0.8519
 1637TIP3   OH2 4916   0.623   1.943   0.155  0.0501 -0.4317  0.1904
 1637TIP3    H1 4917   0.589   1.861   0.119 -1.2615 -0.7670  2.0528
 1637TIP3    H2 4918   0.566   1.962   0.229  1.6336  1.0630  1.0950
 1638TIP3   OH2 4919   4.012   3.169   1.696  0.1209 -0.5122  0.6156
 1638TIP3    H1 4920   4.042   3.246   1.746  2.2308  0.2950 -1.7129
 1638TIP3    H2 4921   3.939   3.202   1.644 -0.6015 -0.7768  1.4319
 1639TIP3   OH2 4922   5.826   4.886   2.981 -0.5066  0.2221  0.0781
 1639TIP3    H1 4923   5.796   4.802   2.948  2.7567 -1.3382  0.6998
 1639TIP3    H2 4924   5.762   4.909   3.048 -0.5062 -2.8023  1.2737
 1640TIP3   OH2 4925   5.229   5.372   2.416 -0.3022  0.1928  0.0480
 1640TIP3    H1 4926   5.235   5.333   2.503 -1.3958 -0.3657 -0.1089
 1640TIP3    H2 4927   5.174   5.312   2.367 -0.0623  0.7384 -0.9038
 1641TIP3   OH2 4928   5.265   1.603   3.013 -0.0568 -0.3957 -0.2331
 1641TIP3    H1 4929   5.243   1.511   3.022  0.5176 -0.3100  3.2765
 1641TIP3    H2 4930   5.361   1.605   3.020 -0.1113  0.4991  0.3979
 1642TIP3   OH2 4931   3.381   2.333   0.301 -0.1060 -0.0223  0.2622
 1642TIP3    H1 4932   3.366   2.359   0.392 -2.1972  1.6433 -0.4665
 1642TIP3    H2 4933   3.385   2.416   0.253 -0.7312 -0.8978 -1.3869
 1643TIP3   OH2 4934   2.429   1.437   1.885 -0.4621 -0.0165  0.3892
 1643TIP3    H1 4935   2.378   1.376   1.832 -0.4265 -0.6335  1.0609
 1643TIP3    H2 4936   2.438   1.394   1.970 -0.3640  0.8811  0.8450
 1644TIP3   OH2 4937   0.149   4.722   3.436  0.9014  0.8799  0.0350
 1644TIP3    H1 4938   0.198   4.696   3.358  1.9685 -0.6433  1.1570
 1644TIP3    H2 4939   0.058   4.703   3.415  1.3415 -1.0328 -0.3006
 1645TIP3   OH2 4940   1.029   2.875   3.761 -0.2979  0.1651 -0.4296
 1645TIP3    H1 4941   1.038   2.900   3.853  0.0339 -1.1594 -0.0816
 1645TIP3    H2 4942   1.022   2.959   3.714  0.7848  0.8960  0.6552
 1646TIP3   OH2 4943   3.483   3.517   4.707  0.0587  0.2519  0.1704
 1646TIP3    H1 4944   3.503   3.423   4.703 -0.6159  0.1273 -0.7006
 1646TIP3    H2 4945   3.515   3.551   4.624  1.8417  1.1418  1.1676
 1647TIP3   OH2 4946   3.190   4.832   4.969  0.3899  0.5443 -0.1766
 1647TIP3    H1 4947   3.110   4.834   5.022  0.9238  1.1922  0.6351
 1647TIP3    H2 4948   3.261   4.836   5.033  1.1315 -1.5219 -0.7799
 1648TIP3   OH2 4949   5.757   0.201   2.437 -0.3960 -0.1344  0.3448
 1648TIP3    H1 4950   5.692   0.171   2.374 -1.0816  0.0120  0.9761
 1648TIP3    H2 4951   5.828   0.136   2.431 -0.1008  0.2848 -1.1080
 1649TIP3   OH2 4952   0.313   0.646   0.340 -0.0893 -0.5131 -0.3715
 1649TIP3    H1 4953   0.371   0.574   0.364 -0.6933 -1.0200 -0.4318
 1649TIP3    H2 4954   0.333   0.663   0.248  0.4948 -0.1767 -0.1936
 1650TIP3   OH2 4955   0.721   4.473   4.909 -0.2683 -0.4038 -0.0249
 1650TIP3    H1 4956   0.643   4.418   4.910 -0.7476  0.1955 -1.2280
 1650TIP3    H2 4957   0.755   4.464   4.820  0.0205  0.6940 -0.0438
 1651TIP3   OH2 4958   4.127   1.106   1.642  0.1934  0.1520 -0.0659
 1651TIP3    H1 4959   4.145   1.012   1.644  0.0306  0.1280  0.3666
 1651TIP3    H2 4960   4.141   1.131   1.551  0.3622 -0.2668 -0.1580
 1652TIP3   OH2 4961   5.144   1.310   2.666 -0.0411 -0.2842  0.4538
 1652TIP3    H1 4962   5.202   1.385   2.656 -0.7901  0.4542  1.3702
 1652TIP3    H2 4963   5.082   1.337   2.734  0.6006 -2.3190  1.9343
 1653TIP3   OH2 4964   4.064   0.713   2.706 -0.0172  0.3238  0.0986
 1653TIP3    H1 4965   4.131   0.669   2.654  0.5472  2.2558 -0.8967
 1653TIP3    H2 4966   4.112   0.747   2.782 -0.3277 -0.1929  0.5359
 1654TIP3   OH2 4967   2.105   3.123   2.685  0.1018  0.1529  0.1225
 1654TIP3    H1 4968   2.057   3.157   2.760 -1.1514  1.3740 -1.1553
 1654TIP3    H2 4969   2.163   3.195   2.659 -1.2992  0.7789 -1.5407
 1655TIP3   OH2 4970   2.112   5.123   2.382 -0.1525 -0.3093 -0.2490
 1655TIP3    H1 4971   2.046   5.193   2.379  0.0281 -0.1643 -0.9534
 1655TIP3    H2 4972   2.074   5.058   2.441  0.5865  1.2796  2.1344
 1656TIP3   OH2 4973   0.570   1.841   2.122  0.1730  0.2536 -0.0679
 1656TIP3    H1 4974   0.651   1.871   2.080  1.7259 -1.0465  1.8377
 1656TIP3    H2 4975   0.515   1.811   2.049  1.6451  0.5875 -1.3728
 1657TIP3   OH2 4976   3.513   5.286   4.342 -0.1328 -0.2813 -0.6778
 1657TIP3    H1 4977   3.569   5.362   4.329 -1.2162  0.5810 -0.4802
 1657TIP3    H2 4978   3.503   5.279   4.437 -0.3856 -0.3933 -0.7104
 1658TIP3   OH2 4979   5.939   3.142   3.678  0.5607 -0.4018 -0.1531
 1658TIP3    H1 4980   5.981   3.104   3.600  0.0267 -0.1464 -0.5650
 1658TIP3    H2 4981   6.013   3.172   3.732  0.9294 -0.4120 -0.6417
 1659TIP3   OH2 4982   2.633   0.994   1.957 -0.2064 -0.0759  0.0609
 1659TIP3    H1 4983   2.548   1.012   1.917  0.6266  0.2144 -1.6400
 1659TIP3    H2 4984   2.674   1.079   1.966  0.3959 -0.3261 -0.2783
 1660TIP3   OH2 4985   5.630   5.304   0.433 -0.0647  0.4337 -0.5449
 1660TIP3    H1 4986   5.687   5.337   0.364 -0.2795  1.4178 -0.2680
 1660TIP3    H2 4987   5.543   5.337   0.411  0.1127  1.9976  0.9437
 1661TIP3   OH2 4988   5.592   2.339   0.777  0.3991  0.7383 -0.4623
 1661TIP3    H1 4989   5.574   2.381   0.861  0.0543 -0.4415  0.0831
 1661TIP3    H2 4990   5.573   2.406   0.711  2.0692  2.1381  0.4339
 1662TIP3   OH2 4991   6.020   3.953   4.825  0.4223 -0.0645 -0.1887
 1662TIP3    H1 4992   6.073   3.941   4.746  0.0293  0.3348 -0.5252
 1662TIP3    H2 4993   6.078   3.996   4.887  1.0225 -1.2349  0.0794
 1663TIP3   OH2 4994   2.310   2.433   4.571  0.3132  0.1420  0.4466
 1663TIP3    H1 4995   2.368   2.442   4.647  0.9203 -1.9901  0.2935
 1663TIP3    H2 4996   2.269   2.347   4.582  0.2679 -0.1352 -1.5509
 1664TIP3   OH2 4997   5.916   3.111   1.649 -0.1166  0.0265 -0.2278
 1664TIP3    H1 4998   5.971   3.038   1.676 -1.7247 -1.0668  0.2752
 1664TIP3    H2 4999   5.831   3.094   1.691 -1.1065  1.1643 -1.6401
 1665TIP3   OH2 5000   4.682   1.217   4.190  0.2517 -0.1867 -0.4495
 1665TIP3    H1 5001   4.637   1.226   4.274 -0.9441  3.1226 -1.2716
 1665TIP3    H2 5002   4.714   1.127   4.189 -1.2774 -0.9076  2.7324
 1666TIP3   OH2 5003   4.521   2.562   2.596 -0.1767  0.2449 -0.6187
 1666TIP3    H1 5004   4.490   2.646   2.631  1.4305  0.7274 -0.2601
 1666TIP3    H2 5005   4.567   2.585   2.516  0.9204 -0.1742 -0.1354
 1667TIP3   OH2 5006   6.234   1.665   3.475  0.3356 -0.3317  0.3228
 1667TIP3    H1 5007   6.256   1.621   3.392 -0.2138 -0.1326  0.0690
 1667TIP3    H2 5008   6.319   1.686   3.513  0.6351  1.1779 -1.0433
 1668TIP3   OH2 5009   0.563   5.065   1.910 -0.0035  0.0226 -0.1011
 1668TIP3    H1 5010   0.530   5.154   1.899  1.8406  0.6178 -1.4261
 1668TIP3    H2 5011   0.604   5.065   1.997 -1.1526  0.0313  0.4609
 1669TIP3   OH2 5012   1.899   3.265   2.814  0.2460  0.3383 -0.4904
 1669TIP3    H1 5013   1.908   3.303   2.726 -0.0898  0.4882 -0.4608
 1669TIP3    H2 5014   1.855   3.182   2.800  1.0148 -0.0717 -0.5589
 1670TIP3   OH2 5015   5.119   5.406   0.042  0.6215  0.6677 -0.0732
 1670TIP3    H1 5016   5.069   5.408  -0.039  0.8564 -0.2843 -0.2516
 1670TIP3    H2 5017   5.131   5.499   0.065 -0.1284  0.9270 -0.6907
 1671TIP3   OH2 5018   4.024   1.485   0.860  0.1055  0.4214 -0.0474
 1671TIP3    H1 5019   4.081   1.552   0.821 -0.2505 -0.3777 -2.0677
 1671TIP3    H2 5020   3.942   1.531   0.877  0.5336  0.9834  0.5428
 1672TIP3   OH2 5021   0.856   5.927   0.749  0.6509 -0.1457  0.5043
 1672TIP3    H1 5022   0.915   5.866   0.793  0.6081 -2.5716 -2.4555
 1672TIP3    H2 5023   0.768   5.893   0.769  0.6042 -0.7339 -0.5942
 1673TIP3   OH2 5024   4.385   5.311   2.725  0.5987  0.9025 -0.0443
 1673TIP3    H1 5025   4.347   5.228   2.755 -0.3348  0.2781 -2.7077
 1673TIP3    H2 5026   4.372   5.371   2.799  1.5796 -1.3340  2.0788
 1674TIP3   OH2 5027   1.706   0.207   2.280  0.1702  0.5045 -0.2773
 1674TIP3    H1 5028   1.649   0.260   2.224  1.5038 -0.5371 -2.7648
 1674TIP3    H2 5029   1.765   0.270   2.321 -0.5091  1.2500 -0.4244
 1675TIP3   OH2 5030   0.504   1.596   3.235 -0.6650  0.1138 -0.0066
 1675TIP3    H1 5031   0.562   1.521   3.234 -1.5412 -0.5842  0.4500
 1675TIP3    H2 5032   0.563   1.672   3.229  0.4167 -0.4927  2.0397
 1676TIP3   OH2 5033   5.541   5.220   4.806  0.4247  0.3969  0.0979
 1676TIP3    H1 5034   5.617   5.190   4.756 -0.0325  0.2725 -0.5485
 1676TIP3    H2 5035   5.468   5.166   4.773  0.3488 -0.7122  1.9439
 1677TIP3   OH2 5036   5.406   4.888   3.080  0.2913 -0.4120 -0.1121
 1677TIP3    H1 5037   5.327   4.939   3.097  0.2150 -0.0852 -1.3628
 1677TIP3    H2 5038   5.447   4.931   3.005  1.9650 -0.2368  0.8481
 1678TIP3   OH2 5039   5.530   1.634   4.038  0.4479  0.2260  0.1003
 1678TIP3    H1 5040   5.609   1.683   4.061  1.2601 -0.7440 -0.5557
 1678TIP3    H2 5041   5.542   1.548   4.078  0.7118 -0.6334 -1.7213
 1679TIP3   OH2 5042   6.313   1.900   0.523 -0.0548  0.4709  0.2926
 1679TIP3    H1 5043   6.339   1.974   0.578 -0.1197  1.3729 -0.8603
 1679TIP3    H2 5044   6.367   1.909   0.445 -0.2659 -0.5530  0.0196
 1680TIP3   OH2 5045   0.356   2.189   3.038  0.2950 -0.2714  0.1050
 1680TIP3    H1 5046   0.276   2.140   3.020 -0.0911 -0.5884  2.3905
 1680TIP3    H2 5047   0.425   2.123   3.036 -0.1811 -0.9820  2.8497
 1681TIP3   OH2 5048   5.190   3.624   2.256  0.5767  0.5744 -0.4513
 1681TIP3    H1 5049   5.163   3.667   2.175  0.2676  0.1767 -0.5612
 1681TIP3    H2 5050   5.118   3.566   2.279  0.9328  0.2032 -0.2404
 1682TIP3   OH2 5051   1.031   3.927   2.978 -0.1638 -0.7624 -0.3167
 1682TIP3    H1 5052   1.068   3.927   2.890 -2.3551 -0.6930 -1.3108
 1682TIP3    H2 5053   0.936   3.933   2.964 -0.5347  0.0423  2.0724
 1683TIP3   OH2 5054   0.959   5.541   0.272 -0.3148 -0.1691 -0.3030
 1683TIP3    H1 5055   0.929   5.630   0.257  1.0722  0.2704 -0.6111
 1683TIP3    H2 5056   1.032   5.550   0.333  0.8695 -0.9314 -1.5721
 1684TIP3   OH2 5057   0.534   4.730   4.408  0.3488  0.0510 -0.2970
 1684TIP3    H1 5058   0.462   4.697   4.355  0.8916 -0.4868 -0.7111
 1684TIP3    H2 5059   0.603   4.664   4.399  0.8438  0.4902  0.1996
 1685TIP3   OH2 5060   6.037   0.376   3.271 -0.1373  0.5146  0.0122
 1685TIP3    H1 5061   6.015   0.455   3.321  2.3176  1.9091 -0.9726
 1685TIP3    H2 5062   6.018   0.399   3.180 -0.2638 -0.3918 -0.2032
 1686TIP3   OH2 5063   6.040   1.311   2.736  0.1107  0.7437  0.2839
 1686TIP3    H1 5064   6.050   1.237   2.796 -0.8136 -0.8970 -1.4923
 1686TIP3    H2 5065   5.959   1.353   2.763 -0.2997  0.0165  0.1928
 1687TIP3   OH2 5066   3.801   2.521   0.020 -0.2706  0.3825  0.1807
 1687TIP3    H1 5067   3.817   2.441   0.070 -0.3630 -0.9661 -1.8352
 1687TIP3    H2 5068   3.770   2.584   0.085  1.0199 -0.7937  2.0597
 1688TIP3   OH2 5069   4.518   3.156   0.201 -0.6238  0.6054 -0.1383
 1688TIP3    H1 5070   4.445   3.206   0.239 -0.2314  2.1254 -1.3032
 1688TIP3    H2 5071   4.561   3.116   0.277 -1.6123  1.1179  0.7300
 1689TIP3   OH2 5072   1.142   3.998   3.734  0.5886 -0.1321 -0.1499
 1689TIP3    H1 5073   1.066   3.974   3.787  1.9683  0.7631  2.3837
 1689TIP3    H2 5074   1.123   4.085   3.701 -0.1079 -0.5289 -0.8193
 1690TIP3   OH2 5075   0.483   0.135   0.646  0.6206 -0.2448  0.3193
 1690TIP3    H1 5076   0.569   0.105   0.617  1.0041 -2.0926  2.9604
 1690TIP3    H2 5077   0.503   0.203   0.711  0.0681 -0.2414  0.4879
 1691TIP3   OH2 5078   2.749   0.833   4.839 -0.2297 -0.1871  0.0093
 1691TIP3    H1 5079   2.712   0.795   4.919 -2.4346  1.1553 -0.2901
 1691TIP3    H2 5080   2.673   0.859   4.787  1.1497  0.0602 -2.0267
 1692TIP3   OH2 5081   1.997   2.141   1.078  0.3786 -0.8805  0.5020
 1692TIP3    H1 5082   1.938   2.154   1.152  0.4659  0.0206  0.4210
 1692TIP3    H2 5083   1.985   2.218   1.023  0.2698 -1.5715 -0.4640
 1693TIP3   OH2 5084   0.729   0.132   0.565  0.0072  0.2927  0.1443
 1693TIP3    H1 5085   0.782   0.169   0.494  2.0826 -1.6160  0.5829
 1693TIP3    H2 5086   0.743   0.191   0.639 -1.3149  1.7087 -0.6964
 1694TIP3   OH2 5087   3.421   2.328   4.430  0.4747 -0.0772  0.3706
 1694TIP3    H1 5088   3.345   2.274   4.450 -0.5607  1.1560 -0.1032
 1694TIP3    H2 5089   3.426   2.391   4.501 -1.6599  2.6547 -1.7013
 1695TIP3   OH2 5090   2.167   4.018   4.487 -0.1443  0.0942  0.2133
 1695TIP3    H1 5091   2.124   4.064   4.414 -0.6786  0.0405  0.4868
 1695TIP3    H2 5092   2.218   4.085   4.531  1.3789 -0.1573 -1.0660
 1696TIP3   OH2 5093   3.875   2.426   4.916  0.1740  0.0270  0.0795
 1696TIP3    H1 5094   3.925   2.427   4.834  0.4033 -0.3306  0.2076
 1696TIP3    H2 5095   3.801   2.368   4.898 -0.6280  1.1707 -0.3499
 1697TIP3   OH2 5096   0.688   0.380   0.004 -0.3107  0.4956  0.0588
 1697TIP3    H1 5097   0.767   0.424   0.035 -0.5467 -0.5066  2.2971
 1697TIP3    H2 5098   0.711   0.287   0.003 -1.1730  0.2736 -0.2214
 1698TIP3   OH2 5099   3.761   1.472   0.627  0.1017 -0.1413  0.3321
 1698TIP3    H1 5100   3.769   1.535   0.698 -0.3751  1.6131 -1.0910
 1698TIP3    H2 5101   3.746   1.388   0.670 -1.3964  1.0510  2.2742
 1699TIP3   OH2 5102   5.686   5.581   4.571 -0.9292  0.2467  0.8457
 1699TIP3    H1 5103   5.629   5.505   4.557 -1.3218  0.7918 -0.7710
 1699TIP3    H2 5104   5.691   5.591   4.666 -1.2608 -1.5023  1.0750
 1700TIP3   OH2 5105   0.368   5.183   5.041 -0.5020 -0.3288 -0.5332
 1700TIP3    H1 5106   0.348   5.112   5.102 -1.9618  0.4792 -0.0226
 1700TIP3    H2 5107   0.395   5.139   4.961  1.7122 -1.4130  0.7321
 1701TIP3   OH2 5108   0.238   0.320   2.232 -0.1344 -0.5164 -0.1207
 1701TIP3    H1 5109   0.204   0.370   2.158  0.9712 -0.1244 -0.3895
 1701TIP3    H2 5110   0.234   0.229   2.204 -1.3780 -0.5271  0.0430
 1702TIP3   OH2 5111   5.363   3.190   2.070 -0.9587 -0.4781  0.0802
 1702TIP3    H1 5112   5.440   3.247   2.066  0.7569 -2.5199  1.2701
 1702TIP3    H2 5113   5.326   3.206   2.157 -0.7692 -0.7910  0.2214
 1703TIP3   OH2 5114   0.070   2.497   3.194 -0.4800 -0.7184 -0.0796
 1703TIP3    H1 5115   0.109   2.546   3.121  0.4375 -0.6730  0.4249
 1703TIP3    H2 5116   0.046   2.564   3.258  1.0070 -0.9089  0.7211
 1704TIP3   OH2 5117   4.223   5.225   1.209 -0.0558  0.5687  0.4439
 1704TIP3    H1 5118   4.304   5.258   1.170  0.9700 -2.8141 -0.5951
 1704TIP3    H2 5119   4.154   5.255   1.148  1.0161 -0.6709 -1.4717
 1705TIP3   OH2 5120   5.866   5.696   1.216  0.3055 -0.2540  0.1204
 1705TIP3    H1 5121   5.790   5.665   1.166 -0.1180 -0.9606  1.1605
 1705TIP3    H2 5122   5.831   5.762   1.275  0.4623 -0.7242  0.7425
 1706TIP3   OH2 5123   0.266   5.331   0.547  0.1345  0.0932  0.1578
 1706TIP3    H1 5124   0.279   5.250   0.497  0.1540  0.2184 -0.0399
 1706TIP3    H2 5125   0.172   5.348   0.540  0.0514 -0.1743  0.6047
 1707TIP3   OH2 5126   5.672   1.936   2.084  0.3578 -0.1328  0.0793
 1707TIP3    H1 5127   5.723   1.883   2.144  0.8049  1.0925  0.8125
 1707TIP3    H2 5128   5.731   2.006   2.057 -0.0345 -0.3087 -1.3204
 1708TIP3   OH2 5129   2.957   2.887   0.868  0.3089  0.1774 -0.3236
 1708TIP3    H1 5130   3.041   2.933   0.865 -1.1699  3.1830  0.8394
 1708TIP3    H2 5131   2.945   2.854   0.778  2.2847  0.4559 -0.7363
 1709TIP3   OH2 5132   5.740   4.288   2.708  0.2648  0.4486 -0.0929
 1709TIP3    H1 5133   5.706   4.217   2.762 -1.7577  2.4734  1.5023
 1709TIP3    H2 5134   5.662   4.320   2.661  1.1677  1.4579 -0.9415
 1710TIP3   OH2 5135   2.362   5.422   5.132 -0.4204 -0.0746 -0.0490
 1710TIP3    H1 5136   2.443   5.377   5.160 -0.9139 -0.4225  0.8764
 1710TIP3    H2 5137   2.391   5.509   5.106  0.1139  0.2637  1.5313
 1711TIP3   OH2 5138   5.712   5.164   4.526 -0.1702 -0.3167  0.6413
 1711TIP3    H1 5139   5.656   5.236   4.497 -0.9034 -1.0164  0.2631
 1711TIP3    H2 5140   5.800   5.201   4.526 -0.4599  0.4242 -0.0998
 1712TIP3   OH2 5141   4.913   2.477   0.521 -0.2422 -0.2113  0.9994
 1712TIP3    H1 5142   4.826   2.445   0.546 -0.5035  0.0216  0.4214
 1712TIP3    H2 5143   4.903   2.502   0.429  0.4869 -0.3521  0.8770
 1713TIP3   OH2 5144   4.290   0.888   3.376  0.1436 -0.2626  0.3960
 1713TIP3    H1 5145   4.331   0.857   3.457  3.2408 -1.0278 -1.2742
 1713TIP3    H2 5146   4.362   0.931   3.329 -2.4216  3.6480 -0.3650
 1714TIP3   OH2 5147   0.549   1.086   3.108  0.0772  0.3909 -0.0008
 1714TIP3    H1 5148   0.594   1.031   3.172 -0.5610 -0.4447 -0.2398
 1714TIP3    H2 5149   0.467   1.039   3.090 -0.0939  0.9939 -0.8573
 1715TIP3   OH2 5150   3.062   5.404   1.621  0.7179  0.7371 -0.2132
 1715TIP3    H1 5151   3.033   5.469   1.556 -0.1803 -0.8062 -1.4216
 1715TIP3    H2 5152   3.099   5.333   1.569 -0.0897 -0.5668  0.9295
 1716TIP3   OH2 5153   3.284   5.978   0.306 -0.2140 -0.2375  0.5113
 1716TIP3    H1 5154   3.233   5.969   0.226  0.6519  1.2851 -0.2558
 1716TIP3    H2 5155   3.270   5.896   0.353 -2.3089 -0.3683 -0.2614
 1717TIP3   OH2 5156   6.145   5.834   5.123 -0.1369 -0.1330 -0.0264
 1717TIP3    H1 5157   6.214   5.786   5.079 -0.8087 -0.8552 -0.3206
 1717TIP3    H2 5158   6.190   5.895   5.181  0.7361 -0.5010 -0.3121
 1718TIP3   OH2 5159   5.738   0.239   1.001  0.0785  0.0206 -0.0804
 1718TIP3    H1 5160   5.830   0.264   1.002  0.5373 -1.3899 -1.5506
 1718TIP3    H2 5161   5.691   0.317   1.028  1.7157  0.6988  0.9229
 1719TIP3   OH2 5162   2.095   4.503   2.757  0.2629  0.0197  0.3420
 1719TIP3    H1 5163   2.046   4.442   2.812 -0.8480  0.8540  0.2904
 1719TIP3    H2 5164   2.035   4.526   2.687  1.2757 -0.1391 -0.5971
 1720TIP3   OH2 5165   0.746   3.716   0.758 -0.3932 -0.1948 -0.4265
 1720TIP3    H1 5166   0.702   3.695   0.676 -1.5158 -1.1361  0.3919
 1720TIP3    H2 5167   0.695   3.788   0.796 -0.6198 -0.5935  0.0321
 1721TIP3   OH2 5168   5.772   5.369   0.229 -0.4858  0.0624  0.0457
 1721TIP3    H1 5169   5.828   5.445   0.214 -2.2865  1.5245  0.2945
 1721TIP3    H2 5170   5.756   5.333   0.142  0.4462 -0.1051 -0.0675
 1722TIP3   OH2 5171   4.047   0.530   1.559 -0.5518  0.1865  0.1722
 1722TIP3    H1 5172   4.068   0.490   1.475  0.2903 -4.6505  2.3408
 1722TIP3    H2 5173   4.129   0.527   1.608 -1.7959 -0.5921  2.3204
 1723TIP3   OH2 5174   5.724   3.655   1.511  0.1176  0.4032 -0.3950
 1723TIP3    H1 5175   5.806   3.665   1.558 -0.4714 -0.1508  0.8007
 1723TIP3    H2 5176   5.658   3.693   1.569 -0.7246 -0.9313 -0.4206
 1724TIP3   OH2 5177   5.903   0.993   2.665  0.2835  0.5391  0.1512
 1724TIP3    H1 5178   5.838   1.058   2.693  1.0973  2.4433 -2.0037
 1724TIP3    H2 5179   5.895   0.991   2.570  0.9801 -1.8576  0.0858
 1725TIP3   OH2 5180   1.015   1.385   1.970  0.0614 -0.4688 -0.3037
 1725TIP3    H1 5181   1.047   1.444   1.901  0.2528  0.9748  0.9476
 1725TIP3    H2 5182   1.091   1.330   1.992  0.3833 -0.0638 -0.3844
 1726TIP3   OH2 5183   5.989   2.672   4.291  0.4149  0.1261  0.4193
 1726TIP3    H1 5184   5.946   2.613   4.229 -2.2038  0.5716  1.6524
 1726TIP3    H2 5185   6.072   2.630   4.311 -0.0302 -1.5694 -1.0346
 1727TIP3   OH2 5186   5.668   5.528   3.385 -0.2715  0.2300  0.5364
 1727TIP3    H1 5187   5.573   5.512   3.387 -0.4594  1.0929 -0.2845
 1727TIP3    H2 5188   5.686   5.572   3.468 -0.4098 -0.8140  1.1271
 1728TIP3   OH2 5189   3.496   3.012   5.068 -0.1465 -0.5369 -0.0665
 1728TIP3    H1 5190   3.577   3.063   5.073  0.3519 -1.3275  0.0623
 1728TIP3    H2 5191   3.517   2.940   5.009 -0.4329 -1.3238  0.7736
 1729TIP3   OH2 5192   0.489   2.152   1.517  0.5142 -0.4903  0.1539
 1729TIP3    H1 5193   0.558   2.218   1.515 -0.0977  0.1545  0.1616
 1729TIP3    H2 5194   0.482   2.121   1.427 -0.5590  0.8892 -0.2600
 1730TIP3   OH2 5195   3.606   1.125   2.755  0.3844 -0.2415 -0.3564
 1730TIP3    H1 5196   3.694   1.162   2.748 -0.2898  1.6992  0.6263
 1730TIP3    H2 5197   3.569   1.166   2.833 -0.9880 -1.9482 -0.0317
 1731TIP3   OH2 5198   5.994   4.550   3.694  1.1228 -0.0231 -0.0015
 1731TIP3    H1 5199   6.007   4.481   3.628  2.2096  1.0144 -0.9208
 1731TIP3    H2 5200   6.082   4.568   3.727  0.9633  1.4425 -0.3298
 1732TIP3   OH2 5201   4.959   5.489   0.616  0.3172  0.0506  0.3917
 1732TIP3    H1 5202   4.987   5.512   0.528 -0.4804  1.7645  0.5447
 1732TIP3    H2 5203   4.870   5.522   0.622 -0.5560 -2.2251  1.0478
 1733TIP3   OH2 5204   1.500   4.344   1.978 -0.1441 -0.1319 -0.0830
 1733TIP3    H1 5205   1.485   4.414   1.914  1.0840 -1.6681 -2.1896
 1733TIP3    H2 5206   1.413   4.308   1.994 -0.4189 -0.1468 -1.4622
 1734TIP3   OH2 5207   4.661   4.057   3.141 -0.0603  0.2707 -0.1490
 1734TIP3    H1 5208   4.735   4.117   3.132  2.6025 -2.5769  0.8227
 1734TIP3    H2 5209   4.633   4.068   3.232  1.0325 -0.4932  0.3097
 1735TIP3   OH2 5210   5.925   1.593   3.676 -0.1213 -0.0218 -0.2116
 1735TIP3    H1 5211   5.893   1.610   3.588 -1.3715 -1.1540  0.0044
 1735TIP3    H2 5212   5.953   1.502   3.675 -0.2622 -0.0849  0.5825
 1736TIP3   OH2 5213   6.377   1.939   4.816  0.1615 -0.4841  0.3640
 1736TIP3    H1 5214   6.298   1.887   4.828 -0.5482  0.1592 -1.1883
 1736TIP3    H2 5215   6.346   2.019   4.773  1.4887  0.3424  0.9054
 1737TIP3   OH2 5216   4.895   2.701   3.092 -0.0304 -0.3016 -0.6099
 1737TIP3    H1 5217   4.867   2.701   3.000 -2.3247 -0.8064  0.0352
 1737TIP3    H2 5218   4.843   2.631   3.132 -0.5496  1.2209  1.4999
 1738TIP3   OH2 5219   0.998   3.703   1.783  0.3606 -0.1518 -0.2456
 1738TIP3    H1 5220   0.914   3.682   1.741  0.8656  0.8187 -1.8062
 1738TIP3    H2 5221   1.052   3.625   1.769 -0.0796 -0.5493  0.2452
 1739TIP3   OH2 5222   2.691   5.848   1.766 -0.1575  0.2934  0.2001
 1739TIP3    H1 5223   2.670   5.813   1.679 -1.9051 -2.7291  1.6767
 1739TIP3    H2 5224   2.786   5.852   1.768 -0.0639  0.2597 -1.7607
 1740TIP3   OH2 5225   4.887   4.994   2.137  0.1367  0.2938  0.7228
 1740TIP3    H1 5226   4.979   4.986   2.163  1.2425  1.5285 -2.3138
 1740TIP3    H2 5227   4.890   5.042   2.054 -3.3832  1.7518  1.2464
 1741TIP3   OH2 5228   5.418   5.261   2.217 -0.3796 -0.2198  0.0591
 1741TIP3    H1 5229   5.408   5.295   2.306  1.7221 -3.3139  1.6084
 1741TIP3    H2 5230   5.471   5.327   2.172 -0.0571  0.6060  1.5932
 1742TIP3   OH2 5231   1.871   2.528   2.760  0.5822  0.2342  0.1642
 1742TIP3    H1 5232   1.957   2.565   2.739 -0.1461  0.8618 -2.0179
 1742TIP3    H2 5233   1.808   2.590   2.721 -0.7806 -1.5244 -0.5943
 1743TIP3   OH2 5234   0.624   5.120   2.886  0.6163  0.1800 -0.0713
 1743TIP3    H1 5235   0.613   5.203   2.839 -0.9125 -0.4895 -0.9582
 1743TIP3    H2 5236   0.633   5.054   2.818 -2.4483 -0.9203  0.4460
 1744TIP3   OH2 5237   2.733   5.589   0.658  0.2222 -0.1356 -0.2120
 1744TIP3    H1 5238   2.716   5.669   0.608 -0.6014 -0.3399 -0.2643
 1744TIP3    H2 5239   2.670   5.526   0.624  0.4145 -0.6119  0.3101
 1745TIP3   OH2 5240   3.959   2.759   2.859 -0.3029 -1.1755 -0.1595
 1745TIP3    H1 5241   3.883   2.738   2.913 -0.3518  0.0790  0.2898
 1745TIP3    H2 5242   4.031   2.712   2.901  0.3726  2.2615  3.1638
 1746TIP3   OH2 5243   2.390   1.948   3.777 -0.5375 -0.2176  0.2530
 1746TIP3    H1 5244   2.389   1.936   3.682 -1.0397 -1.3417  0.3877
 1746TIP3    H2 5245   2.475   1.916   3.805 -0.1794  0.6091  0.1313
 1747TIP3   OH2 5246   5.873   5.147   1.271  0.0426  0.4204 -0.3593
 1747TIP3    H1 5247   5.843   5.100   1.194  0.7203 -0.7199  0.0486
 1747TIP3    H2 5248   5.825   5.230   1.268 -1.6945 -0.5345 -0.7462
 1748TIP3   OH2 5249   6.320   5.506   3.389 -0.0955 -0.0714 -0.6043
 1748TIP3    H1 5250   6.266   5.439   3.348  0.5786 -0.7662 -0.3770
 1748TIP3    H2 5251   6.271   5.587   3.377 -1.0149 -0.6316 -0.7065
 1749TIP3   OH2 5252   3.393   1.348   4.114  0.2936 -0.0240 -0.0164
 1749TIP3    H1 5253   3.333   1.419   4.091 -1.7728 -1.6080  0.1681
 1749TIP3    H2 5254   3.451   1.387   4.179 -0.8045  1.4942  0.1282
 1750TIP3   OH2 5255   0.565   5.389   5.049  0.4403  0.1360 -0.4262
 1750TIP3    H1 5256   0.535   5.314   5.100 -0.3072  0.2172 -0.7428
 1750TIP3    H2 5257   0.509   5.461   5.077  1.6144  0.7744  0.4061
 1751TIP3   OH2 5258   0.354   2.134   4.083 -0.0783 -0.4782 -0.1040
 1751TIP3    H1 5259   0.276   2.189   4.084 -1.0171 -1.7740 -0.1318
 1751TIP3    H2 5260   0.331   2.060   4.026  1.4373 -0.5073 -0.7297
 1752TIP3   OH2 5261   4.806   5.266   3.181  0.4125  0.0057 -0.1125
 1752TIP3    H1 5262   4.726   5.294   3.138  0.6803  0.4049 -0.3605
 1752TIP3    H2 5263   4.864   5.238   3.110 -0.1645 -2.0661  0.1802
 1753TIP3   OH2 5264   1.070   4.986   2.351 -0.4070 -0.1434  0.0944
 1753TIP3    H1 5265   1.037   5.068   2.313 -0.5572 -0.0527  0.4184
 1753TIP3    H2 5266   1.002   4.922   2.331 -0.0635 -0.3073 -0.5965
 1754TIP3   OH2 5267   0.291   0.209   4.140  0.0304 -0.5194  0.0441
 1754TIP3    H1 5268   0.294   0.297   4.176  0.3518 -0.8497  0.8561
 1754TIP3    H2 5269   0.304   0.220   4.046 -1.9377  0.4592 -0.1571
 1755TIP3   OH2 5270   6.182   1.767   4.931 -0.2968 -0.2468 -0.3958
 1755TIP3    H1 5271   6.193   1.672   4.938  0.9063 -0.4753 -3.6021
 1755TIP3    H2 5272   6.124   1.778   4.855 -0.8914  1.6163  0.2791
 1756TIP3   OH2 5273   4.300   1.043   0.695  0.2147 -0.2596  0.2029
 1756TIP3    H1 5274   4.365   0.993   0.746  0.2780 -0.6857 -0.2871
 1756TIP3    H2 5275   4.272   1.113   0.754  1.7870  0.4788  0.1158
 1757TIP3   OH2 5276   5.539   0.981   4.014 -0.7601 -0.0367  0.0911
 1757TIP3    H1 5277   5.551   1.033   3.934  1.8955 -2.0268 -0.9339
 1757TIP3    H2 5278   5.627   0.964   4.046 -1.4483 -3.6076  0.5051
 1758TIP3   OH2 5279   5.889   3.514   1.032  0.2829 -0.5080 -0.1717
 1758TIP3    H1 5280   5.864   3.563   1.110  0.5224 -1.6239  0.6280
 1758TIP3    H2 5281   5.923   3.581   0.972 -1.5443  0.6177 -0.0410
 1759TIP3   OH2 5282   0.906   5.532   4.105  0.3207 -0.9320  0.0226
 1759TIP3    H1 5283   0.996   5.556   4.085  0.0832  0.9503  0.9386
 1759TIP3    H2 5284   0.893   5.563   4.195 -1.7567  0.5440 -0.6989
 1760TIP3   OH2 5285   5.125   2.277   0.595  0.0718  0.0059 -0.1208
 1760TIP3    H1 5286   5.167   2.250   0.514  1.5070  2.0972 -0.1337
 1760TIP3    H2 5287   5.054   2.334   0.568  0.7791  1.0015  0.0689
 1761TIP3   OH2 5288   2.921   0.509   0.235  0.0053  0.0531  0.5839
 1761TIP3    H1 5289   2.884   0.450   0.169 -1.9951 -0.6105  2.2040
 1761TIP3    H2 5290   2.879   0.594   0.217 -0.7096 -0.1801  1.0890
 1762TIP3   OH2 5291   5.816   5.847   4.260  0.0201  0.1969 -0.0966
 1762TIP3    H1 5292   5.885   5.896   4.216  0.6664 -1.0361 -0.4903
 1762TIP3    H2 5293   5.735   5.875   4.217  0.7237 -1.9553 -3.1413
 1763TIP3   OH2 5294   0.661   3.778   1.880  0.2306  0.2608 -0.7060
 1763TIP3    H1 5295   0.707   3.733   1.810 -2.1808 -2.4469 -0.7180
 1763TIP3    H2 5296   0.660   3.716   1.953 -1.3378  1.1117  0.0679
 1764TIP3   OH2 5297   4.755   5.934   0.354  0.0635  0.4358 -0.3169
 1764TIP3    H1 5298   4.725   5.938   0.263  1.0675 -0.0155 -0.6781
 1764TIP3    H2 5299   4.676   5.953   0.406 -0.2645  1.9114 -1.2943
 1765TIP3   OH2 5300   4.492   2.147   1.656 -0.0507  0.0336  0.1329
 1765TIP3    H1 5301   4.445   2.224   1.625 -0.8415 -0.7136 -0.5782
 1765TIP3    H2 5302   4.428   2.098   1.707 -0.6301 -1.8321 -2.2125
 1766TIP3   OH2 5303   2.218   3.734   4.409  0.3104 -0.2068 -0.8241
 1766TIP3    H1 5304   2.202   3.829   4.412  0.7509 -0.0851 -1.8669
 1766TIP3    H2 5305   2.313   3.726   4.406  0.2597 -0.6472 -1.5049
 1767TIP3   OH2 5306   4.301   0.337   0.886  0.1713  0.1818  0.4893
 1767TIP3    H1 5307   4.275   0.306   0.800 -0.7839  1.4939  0.2866
 1767TIP3    H2 5308   4.396   0.347   0.880 -0.0002  1.3137 -0.7795
 1768TIP3   OH2 5309   3.322   3.958   0.144  0.4775 -0.4180 -0.0415
 1768TIP3    H1 5310   3.308   3.936   0.236  0.3998  0.4723  0.1685
 1768TIP3    H2 5311   3.387   4.029   0.146  0.4652 -0.3821 -0.6656
 1769TIP3   OH2 5312   4.017   0.013   0.987  0.4650 -0.1973  0.0857
 1769TIP3    H1 5313   4.005   0.104   0.960 -0.6643 -1.1297 -3.0712
 1769TIP3    H2 5314   3.930  -0.016   1.015  1.1304  0.0369  2.6179
 1770TIP3   OH2 5315   3.739   1.682   2.293  0.0859  0.1204 -0.5772
 1770TIP3    H1 5316   3.701   1.610   2.242  2.6796 -1.0687 -1.0039
 1770TIP3    H2 5317   3.711   1.761   2.248 -1.3750 -0.6953 -1.1593
 1771TIP3   OH2 5318   1.766   1.061   2.293 -0.2944 -0.2884  0.5110
 1771TIP3    H1 5319   1.769   1.108   2.377  1.5147  0.8855 -0.1359
 1771TIP3    H2 5320   1.713   1.117   2.236 -0.6491 -0.5609  0.5695
 1772TIP3   OH2 5321   4.753   0.372   0.089  0.0580 -0.2468 -0.0807
 1772TIP3    H1 5322   4.801   0.300   0.048  2.8291  1.8973 -0.9337
 1772TIP3    H2 5323   4.761   0.356   0.183  0.5223 -1.1098 -0.2554
 1773TIP3   OH2 5324   6.162   4.710   0.378 -0.0628  0.1846 -0.3617
 1773TIP3    H1 5325   6.250   4.734   0.407  0.3130 -0.8641 -0.5740
 1773TIP3    H2 5326   6.107   4.783   0.403  0.6603  0.3254  0.8597
 1774TIP3   OH2 5327   1.812   5.147   3.028  0.6079 -0.3700 -0.1464
 1774TIP3    H1 5328   1.883   5.111   3.081 -1.4339 -0.6958  2.5828
 1774TIP3    H2 5329   1.761   5.201   3.089  0.0282  2.1670 -2.6565
 1775TIP3   OH2 5330   5.631   5.655   1.107  0.3584 -0.0905  0.2152
 1775TIP3    H1 5331   5.592   5.716   1.169 -0.2268 -0.6774  0.4389
 1775TIP3    H2 5332   5.581   5.668   1.027  1.2067  0.7687 -0.1947
 1776TIP3   OH2 5333   6.288   3.414   0.114  0.2717  0.8565 -0.0467
 1776TIP3    H1 5334   6.244   3.330   0.103  0.9249  0.6966 -1.7597
 1776TIP3    H2 5335   6.379   3.397   0.091  0.3124  2.1418 -0.9393
 1777TIP3   OH2 5336   5.020   1.931   4.916  0.6226 -0.0508  0.0839
 1777TIP3    H1 5337   5.048   2.010   4.871 -0.6645  0.2555 -0.2208
 1777TIP3    H2 5338   5.078   1.862   4.883  1.6082  0.7188  0.1918
 1778TIP3   OH2 5339   6.107   5.230   2.288  0.0243  0.4158 -0.0413
 1778TIP3    H1 5340   6.030   5.257   2.338  0.2473 -0.2142  0.6580
 1778TIP3    H2 5341   6.072   5.178   2.216 -0.2250  0.3157  0.1486
 1779TIP3   OH2 5342   3.018   2.937   2.903 -0.1014  0.5895  0.4456
 1779TIP3    H1 5343   2.953   2.906   2.966 -0.4392 -0.0667 -0.2008
 1779TIP3    H2 5344   3.054   2.856   2.865 -0.3579  0.9717 -0.6396
 1780TIP3   OH2 5345   3.052   3.825   2.212 -0.4232 -0.3033 -0.2226
 1780TIP3    H1 5346   3.005   3.884   2.153  1.3486  0.3926 -1.0282
 1780TIP3    H2 5347   2.984   3.771   2.252 -2.0783  1.9792  0.2164
 1781TIP3   OH2 5348   3.752   5.142   4.828 -0.3778 -0.0382  0.0179
 1781TIP3    H1 5349   3.773   5.111   4.916 -0.4990  2.3858  0.9731
 1781TIP3    H2 5350   3.816   5.211   4.811 -1.1545  0.3892 -1.2603
 1782TIP3   OH2 5351   1.087   0.155   0.853  0.3524  0.3660 -0.1659
 1782TIP3    H1 5352   1.070   0.136   0.761  0.6071 -0.9206  0.0405
 1782TIP3    H2 5353   1.169   0.110   0.872 -0.7195 -1.1074  1.2199
 1783TIP3   OH2 5354   2.610   2.485   1.007  0.3256 -0.2869 -0.0981
 1783TIP3    H1 5355   2.572   2.572   1.022 -1.4573 -1.3066  1.8651
 1783TIP3    H2 5356   2.688   2.483   1.062 -0.4354 -0.3950  1.0049
 1784TIP3   OH2 5357   1.998   0.244   1.652  0.3233 -0.7861 -0.5619
 1784TIP3    H1 5358   1.956   0.178   1.596 -1.8862 -0.2097  0.2900
 1784TIP3    H2 5359   2.036   0.195   1.724  0.3255 -1.2714 -0.8891
 1785TIP3   OH2 5360   3.398   1.944   3.037 -0.1685  0.1230  0.5809
 1785TIP3    H1 5361   3.372   1.948   3.129 -1.9842  0.4075  0.1050
 1785TIP3    H2 5362   3.487   1.978   3.035 -0.1064  0.1237  2.2211
 1786TIP3   OH2 5363   2.994   0.240   2.090 -0.6196  0.4971 -0.5754
 1786TIP3    H1 5364   2.924   0.267   2.150  0.7309 -1.4542  2.1102
 1786TIP3    H2 5365   2.979   0.147   2.076  1.5288 -0.0561  0.3477
 1787TIP3   OH2 5366   5.257   3.141   0.085 -0.0369  0.2533  0.0158
 1787TIP3    H1 5367   5.319   3.206   0.051 -1.3176  0.6137 -1.8460
 1787TIP3    H2 5368   5.270   3.142   0.179  0.0849  3.1943  0.0760
 1788TIP3   OH2 5369   0.874   1.234   0.891  0.9656  0.1873 -0.0675
 1788TIP3    H1 5370   0.842   1.145   0.903  0.7298  0.3148  0.2775
 1788TIP3    H2 5371   0.880   1.270   0.980 -1.1267  1.2511 -0.2762
 1789TIP3   OH2 5372   3.379   4.335   5.162 -0.1782 -0.5962 -0.1737
 1789TIP3    H1 5373   3.446   4.302   5.102  2.8671  1.3551  1.8346
 1789TIP3    H2 5374   3.313   4.266   5.164  1.3781 -2.3838 -2.8525
 1790TIP3   OH2 5375   4.954   1.557   3.510  0.3399 -0.1983 -0.1731
 1790TIP3    H1 5376   4.865   1.533   3.485  0.3281 -0.4475  0.0971
 1790TIP3    H2 5377   4.944   1.625   3.575  0.3517 -0.0951 -0.2787
 1791TIP3   OH2 5378   6.134   5.126   4.675 -0.2885  0.1345 -0.0769
 1791TIP3    H1 5379   6.206   5.111   4.736 -0.9069 -1.3653  0.3538
 1791TIP3    H2 5380   6.111   5.038   4.644 -1.4457  0.6552 -0.7452
 1792TIP3   OH2 5381   3.493   5.025   2.175  0.2196 -0.5123  0.1766
 1792TIP3    H1 5382   3.586   5.020   2.196  0.5753 -1.3727 -1.4794
 1792TIP3    H2 5383   3.453   5.063   2.253  1.8624 -0.7241  1.1590
 1793TIP3   OH2 5384   3.952   5.357   4.692  0.2867 -0.0942 -0.1604
 1793TIP3    H1 5385   4.038   5.384   4.722  0.4457  1.8430 -2.0477
 1793TIP3    H2 5386   3.891   5.393   4.757  0.8394 -0.4700  0.5694
 1794TIP3   OH2 5387   2.376   0.121   3.668  0.5489  0.0246  0.5612
 1794TIP3    H1 5388   2.308   0.169   3.621 -1.3011 -0.6002  2.4518
 1794TIP3    H2 5389   2.355   0.028   3.655  0.8659 -0.1768  1.3548
 1795TIP3   OH2 5390   2.414   4.418   5.081 -0.5900 -0.2435  0.3904
 1795TIP3    H1 5391   2.420   4.347   5.018 -2.4094  0.3415 -0.4993
 1795TIP3    H2 5392   2.471   4.391   5.153  0.4558 -1.5562 -0.8791
 1796TIP3   OH2 5393   5.415   3.531   4.700  0.2706  0.1727  0.7645
 1796TIP3    H1 5394   5.340   3.573   4.659  0.2092  0.1434  0.8486
 1796TIP3    H2 5395   5.478   3.602   4.713 -0.0015  0.3122  1.2989
 1797TIP3   OH2 5396   3.958   0.231   1.550 -0.1609  0.4955  0.5834
 1797TIP3    H1 5397   3.942   0.305   1.609  0.8205  1.5304 -0.4009
 1797TIP3    H2 5398   4.030   0.183   1.591 -0.1227  0.6630  0.7140
 1798TIP3   OH2 5399   6.059   5.704   1.634 -0.0633 -0.3483 -0.2580
 1798TIP3    H1 5400   6.026   5.678   1.721 -0.1127 -0.0304 -0.1810
 1798TIP3    H2 5401   6.141   5.749   1.652 -1.9850  3.5107  0.0593
 1799TIP3   OH2 5402   4.732   1.461   0.358  0.1080  0.5064 -0.1730
 1799TIP3    H1 5403   4.785   1.530   0.396  0.2015  1.7014 -2.3136
 1799TIP3    H2 5404   4.654   1.457   0.413  0.2617  2.0664  0.2030
 1800TIP3   OH2 5405   4.197   1.848   1.177 -0.0811 -0.1601 -0.6166
 1800TIP3    H1 5406   4.142   1.924   1.160  0.0894 -0.1670 -1.2299
 1800TIP3    H2 5407   4.285   1.876   1.152  0.2296 -0.0901  0.5377
 1801TIP3   OH2 5408   3.874   5.342   2.373 -0.5310  0.3366 -0.5082
 1801TIP3    H1 5409   3.948   5.387   2.332 -0.4877  0.4078 -0.3526
 1801TIP3    H2 5410   3.905   5.320   2.461 -0.3004 -0.6193 -0.8131
 1802TIP3   OH2 5411   4.899   5.857   3.767  0.4562  0.0630 -0.3168
 1802TIP3    H1 5412   4.838   5.784   3.758 -0.3274  0.3329  2.0073
 1802TIP3    H2 5413   4.898   5.900   3.682 -2.1499 -0.3311 -0.5605
 1803TIP3   OH2 5414   5.501   3.678   4.990  0.1577 -0.3321 -0.1415
 1803TIP3    H1 5415   5.569   3.649   5.051 -0.0551  0.7741  0.6514
 1803TIP3    H2 5416   5.548   3.701   4.910  0.5288 -1.0231 -0.1354
 1804TIP3   OH2 5417   0.542   1.826   3.569  0.9193  0.2667 -0.1693
 1804TIP3    H1 5418   0.458   1.857   3.603  0.9191  0.2831 -0.1847
 1804TIP3    H2 5419   0.547   1.735   3.596  0.4671 -0.0146 -0.9900
 1805TIP3   OH2 5420   6.332   2.838   3.618  0.0100  0.1239  0.2314
 1805TIP3    H1 5421   6.345   2.754   3.662  1.3902  0.7076  1.0180
 1805TIP3    H2 5422   6.239   2.858   3.630 -0.4312 -1.4616 -0.3249
 1806TIP3   OH2 5423   4.350   5.552   2.092  0.0595 -0.2885 -0.0161
 1806TIP3    H1 5424   4.433   5.521   2.129 -0.7235 -1.3327  0.9411
 1806TIP3    H2 5425   4.298   5.578   2.168 -1.0035 -0.9771 -0.4755
 1807TIP3   OH2 5426   4.274   1.075   4.612  0.3588  0.0274 -0.1863
 1807TIP3    H1 5427   4.336   1.002   4.619 -1.3433 -1.3249  2.1169
 1807TIP3    H2 5428   4.191   1.035   4.587 -0.5691  1.1553  0.9116
 1808TIP3   OH2 5429   5.711   1.072   5.164  0.1881 -0.3717 -0.0052
 1808TIP3    H1 5430   5.785   1.046   5.109  0.2090 -2.3823  0.8931
 1808TIP3    H2 5431   5.634   1.044   5.115  0.2283 -2.8337  1.2241
 1809TIP3   OH2 5432   4.431   3.479   0.231  0.5865  0.0443  0.6726
 1809TIP3    H1 5433   4.465   3.434   0.154 -0.7982 -0.7301  0.4786
 1809TIP3    H2 5434   4.405   3.408   0.290 -1.4646  0.5405  0.4403
 1810TIP3   OH2 5435   1.253   3.242   3.492 -0.1235 -0.9936  0.2667
 1810TIP3    H1 5436   1.166   3.203   3.493 -0.7671  0.3394 -0.7050
 1810TIP3    H2 5437   1.275   3.249   3.399  0.8055 -0.8386  0.4861
 1811TIP3   OH2 5438   5.229   3.385   1.920  0.0110 -0.3893 -0.0156
 1811TIP3    H1 5439   5.292   3.449   1.955  1.7665 -2.1967  0.3254
 1811TIP3    H2 5440   5.268   3.300   1.940 -2.1193 -1.5877 -0.6745
 1812TIP3   OH2 5441   3.216   2.324   2.405 -0.0475 -0.2957 -0.1916
 1812TIP3    H1 5442   3.281   2.265   2.444 -0.4074 -2.6868 -2.8252
 1812TIP3    H2 5443   3.145   2.266   2.377 -1.6121  1.7641 -0.7320
 1813TIP3   OH2 5444   3.322   4.122   1.340  0.1803  0.0274  0.3119
 1813TIP3    H1 5445   3.273   4.176   1.402 -0.3591 -0.2021  0.0879
 1813TIP3    H2 5446   3.375   4.065   1.395  0.9539  0.9418  0.5568
 1814TIP3   OH2 5447   0.530   4.021   1.850  0.1488 -0.2821  0.4956
 1814TIP3    H1 5448   0.571   3.934   1.855 -0.6363 -0.9970 -2.8834
 1814TIP3    H2 5449   0.598   4.077   1.813  1.0340  0.9765  3.6914
 1815TIP3   OH2 5450   6.062   5.820   0.926 -0.3400  0.0110  0.4393
 1815TIP3    H1 5451   6.023   5.744   0.971  2.6143 -1.6592  0.4134
 1815TIP3    H2 5452   6.013   5.826   0.843 -2.8443  0.3135  1.8512
 1816TIP3   OH2 5453   5.949   3.094   0.165  0.5487 -0.3573 -0.0576
 1816TIP3    H1 5454   5.923   3.150   0.092 -2.3466 -1.4899 -0.0237
 1816TIP3    H2 5455   5.959   3.153   0.239  1.9583  0.6020 -0.9665
 1817TIP3   OH2 5456   3.947   4.012   1.809 -0.2523 -0.1618 -0.0310
 1817TIP3    H1 5457   3.975   4.095   1.771 -0.2040 -0.2224 -0.1274
 1817TIP3    H2 5458   3.958   4.024   1.903 -3.5011  1.2039  0.3250
 1818TIP3   OH2 5459   0.941   0.922   4.939 -0.1540 -0.1986 -0.1406
 1818TIP3    H1 5460   0.957   0.923   5.033 -1.6236  1.2259  0.1332
 1818TIP3    H2 5461   0.884   0.847   4.925  0.3766 -0.6419  0.0316
 1819TIP3   OH2 5462   4.853   3.299   0.546 -0.0866 -0.4092  0.3679
 1819TIP3    H1 5463   4.859   3.204   0.539  0.2625 -0.8427  4.3040
 1819TIP3    H2 5464   4.759   3.317   0.556 -0.3678 -0.0216 -2.2193
 1820TIP3   OH2 5465   5.749   3.554   3.089  0.6454  0.0704 -0.6052
 1820TIP3    H1 5466   5.750   3.594   3.002  1.4039  0.8706 -0.2445
 1820TIP3    H2 5467   5.749   3.629   3.149 -0.3523 -0.4721  0.0885
 1821TIP3   OH2 5468   4.631   4.014   2.848 -0.1862  0.1500  0.2792
 1821TIP3    H1 5469   4.567   4.085   2.851  0.1401  0.4229  1.7217
 1821TIP3    H2 5470   4.644   3.989   2.940  1.6204 -0.0244  0.0253
 1822TIP3   OH2 5471   0.408   1.388   4.173  0.9949 -0.0095 -0.0175
 1822TIP3    H1 5472   0.321   1.384   4.135  0.8572 -0.7565  0.3424
 1822TIP3    H2 5473   0.397   1.440   4.252  1.2754  1.5162 -0.9457
 1823TIP3   OH2 5474   2.502   4.471   3.180 -0.6690  0.2126 -0.3903
 1823TIP3    H1 5475   2.477   4.464   3.273 -0.2711  0.0544 -0.2938
 1823TIP3    H2 5476   2.476   4.560   3.156  0.1425  0.6130  0.1552
 1824TIP3   OH2 5477   4.845   3.241   0.075  0.0038  0.5850 -0.2891
 1824TIP3    H1 5478   4.893   3.285   0.145  0.8596  0.7509 -0.9653
 1824TIP3    H2 5479   4.898   3.254  -0.003 -1.2531  0.9723 -1.1205
 1825TIP3   OH2 5480   5.686   1.802   0.676  0.4447 -0.2648  0.3603
 1825TIP3    H1 5481   5.709   1.760   0.593 -2.1766 -0.7559 -0.1866
 1825TIP3    H2 5482   5.676   1.730   0.738  4.0381  0.1606  1.7193
 1826TIP3   OH2 5483   6.048   6.003   1.510 -0.2338  0.7020  0.5483
 1826TIP3    H1 5484   6.093   5.960   1.583  1.3804 -2.0520 -1.8444
 1826TIP3    H2 5485   5.969   5.951   1.496  0.9576 -0.6995 -1.4137
 1827TIP3   OH2 5486   3.779   5.540   2.712 -0.4162  0.1753 -0.3959
 1827TIP3    H1 5487   3.692   5.521   2.748  0.4086 -2.5432  0.4188
 1827TIP3    H2 5488   3.767   5.537   2.617 -1.0722 -1.2575 -0.3053
 1828TIP3   OH2 5489   3.562   5.943   1.824  0.6461 -0.4681 -0.1055
 1828TIP3    H1 5490   3.527   5.883   1.758  0.4356  0.0121 -0.4373
 1828TIP3    H2 5491   3.524   6.028   1.802 -2.8165 -0.9459  3.1119
 1829TIP3   OH2 5492   5.594   1.574   2.371 -0.7362 -0.1744  0.1984
 1829TIP3    H1 5493   5.596   1.580   2.467 -0.0185 -0.2829  0.1967
 1829TIP3    H2 5494   5.507   1.539   2.350 -1.1938  0.5934  0.7670
 1830TIP3   OH2 5495   2.320   5.504   3.772  0.2709 -0.8457  0.3727
 1830TIP3    H1 5496   2.249   5.456   3.728 -0.4662 -0.1143  0.7336
 1830TIP3    H2 5497   2.372   5.540   3.701  0.2285 -1.3173  0.0995
 1831TIP3   OH2 5498   3.019   5.656   0.809  0.4697 -0.1155 -0.3667
 1831TIP3    H1 5499   2.963   5.702   0.746  2.1733 -0.6151 -2.3496
 1831TIP3    H2 5500   2.977   5.570   0.819 -1.0244  0.7151  0.9641
 1832TIP3   OH2 5501   4.730   3.172   5.122  0.1867 -0.1636 -0.1544
 1832TIP3    H1 5502   4.717   3.126   5.039  1.4302  1.2631 -1.1924
 1832TIP3    H2 5503   4.647   3.218   5.136 -1.5124 -3.3829  1.4670
 1833TIP3   OH2 5504   3.574   5.145   0.349  0.1011  0.1480  0.6247
 1833TIP3    H1 5505   3.513   5.078   0.377  0.6193 -0.2449  0.8229
 1833TIP3    H2 5506   3.629   5.103   0.283 -0.9992  1.0131 -0.8912
 1834TIP3   OH2 5507   0.059   1.255   4.919  0.3709  0.4407 -0.1583
 1834TIP3    H1 5508   0.007   1.331   4.891  0.0183  0.3126  0.1398
 1834TIP3    H2 5509   0.046   1.251   5.013  1.1404  0.5574 -0.0437
 1835TIP3   OH2 5510   2.270   3.352   2.696 -0.0091  1.3301 -0.0659
 1835TIP3    H1 5511   2.282   3.441   2.730 -0.3450  2.0788 -1.7956
 1835TIP3    H2 5512   2.355   3.328   2.660  0.2746  0.6374  0.9894
 1836TIP3   OH2 5513   5.776   1.429   1.054  0.2441  0.4283 -0.4304
 1836TIP3    H1 5514   5.698   1.393   1.012  1.0584 -0.7317 -0.9830
 1836TIP3    H2 5515   5.777   1.390   1.142  1.2167 -1.1048 -1.0855
 1837TIP3   OH2 5516   2.899   0.293   5.027 -0.3241 -0.1977  0.0267
 1837TIP3    H1 5517   2.973   0.343   5.061  0.3819  0.5134 -2.3427
 1837TIP3    H2 5518   2.836   0.360   4.999 -1.8815 -0.7847  1.8586
 1838TIP3   OH2 5519   2.527   5.389   3.913  0.0128  0.1344 -0.1626
 1838TIP3    H1 5520   2.451   5.430   3.870 -0.5707 -1.6369 -0.9190
 1838TIP3    H2 5521   2.492   5.354   3.995  0.1442 -0.1653 -0.2328
 1839TIP3   OH2 5522   5.474   3.375   0.484  0.5578  0.4779  0.7998
 1839TIP3    H1 5523   5.563   3.339   0.486  0.7960  0.9590 -0.1688
 1839TIP3    H2 5524   5.435   3.349   0.567  1.3253 -0.4580  0.8844
 1840TIP3   OH2 5525   5.863   2.446   4.090 -0.0194  0.2526  0.0251
 1840TIP3    H1 5526   5.887   2.487   4.007  1.3469 -1.6712 -0.6072
 1840TIP3    H2 5527   5.776   2.409   4.074 -0.7230  1.7558  0.2106
 1841TIP3   OH2 5528   6.163   4.929   0.742  0.0396  0.7671  0.1574
 1841TIP3    H1 5529   6.188   5.021   0.737 -0.8415  1.1647  1.9502
 1841TIP3    H2 5530   6.233   4.882   0.696  0.3434  2.3382 -1.0540
 1842TIP3   OH2 5531   5.680   3.761   2.566  0.0099 -0.0476 -0.2075
 1842TIP3    H1 5532   5.628   3.832   2.528  0.6004  1.3725  1.4934
 1842TIP3    H2 5533   5.667   3.687   2.506 -2.3161  0.8457 -0.9114
 1843TIP3   OH2 5534   0.191   0.246   0.594  0.8549  0.1435  0.1010
 1843TIP3    H1 5535   0.133   0.180   0.633  0.6329  0.1363 -0.2382
 1843TIP3    H2 5536   0.279   0.211   0.606  0.8323  0.4269  1.1426
 1844TIP3   OH2 5537   5.607   2.831   2.928 -0.0010 -0.4015 -0.2462
 1844TIP3    H1 5538   5.665   2.757   2.944  0.8133  0.1497 -0.5607
 1844TIP3    H2 5539   5.620   2.888   3.004  0.2635 -0.0444 -0.5487
 1845TIP3   OH2 5540   2.897   3.108   0.496  0.2072  0.3645  0.1523
 1845TIP3    H1 5541   2.849   3.069   0.423  2.5257  0.0398 -1.3159
 1845TIP3    H2 5542   2.848   3.081   0.574 -2.0742  0.2873 -1.2064
 1846TIP3   OH2 5543   1.490   3.614   4.075 -0.1872  0.3211 -0.2199
 1846TIP3    H1 5544   1.465   3.582   3.988  0.9121  1.4536 -0.9933
 1846TIP3    H2 5545   1.447   3.700   4.081 -1.2766 -0.2790  0.8917
 1847TIP3   OH2 5546   3.278   4.852   2.470  0.1636  0.2152 -0.6191
 1847TIP3    H1 5547   3.300   4.939   2.438 -0.0293  0.0911 -1.1060
 1847TIP3    H2 5548   3.312   4.793   2.402  0.6163 -0.1072 -0.1181
 1848TIP3   OH2 5549   3.375   2.680   4.024  0.0458  0.1672 -0.3321
 1848TIP3    H1 5550   3.389   2.596   4.068  0.9513  0.4310 -0.0907
 1848TIP3    H2 5551   3.456   2.729   4.040 -0.6146  1.2306 -0.1462
 1849TIP3   OH2 5552   4.135   0.528   0.727  0.2140  0.2983 -0.1912
 1849TIP3    H1 5553   4.139   0.616   0.691  0.8368 -0.1424 -1.2563
 1849TIP3    H2 5554   4.214   0.519   0.781 -0.3809  0.7296  0.7861
 1850TIP3   OH2 5555   1.322   4.783   3.495  0.0208 -0.0351  0.1210
 1850TIP3    H1 5556   1.321   4.832   3.413  0.3360 -0.3584 -0.0815
 1850TIP3    H2 5557   1.365   4.700   3.472  2.3780  0.8038  1.1342
 1851TIP3   OH2 5558   5.361   1.985   3.349 -0.3334 -0.4169  0.3318
 1851TIP3    H1 5559   5.311   1.958   3.272  1.7280  0.2646 -1.3868
 1851TIP3    H2 5560   5.356   1.911   3.409  0.6294 -2.3995 -1.8599
 1852TIP3   OH2 5561   2.500   5.348   1.980  0.1562 -0.3931 -0.0154
 1852TIP3    H1 5562   2.484   5.355   2.075  0.1962 -2.2467  0.1820
 1852TIP3    H2 5563   2.569   5.411   1.962 -0.6689  0.8489  0.9512
 1853TIP3   OH2 5564   2.516   3.319   2.569  0.2522  0.1744  0.3344
 1853TIP3    H1 5565   2.597   3.309   2.619  1.3492 -0.5712 -1.4941
 1853TIP3    H2 5566   2.519   3.410   2.537  0.2851  0.2010  0.4135
 1854TIP3   OH2 5567   2.967   3.258   0.276 -0.4862 -0.0155  0.3875
 1854TIP3    H1 5568   3.061   3.273   0.275 -0.1759 -1.7395  1.1339
 1854TIP3    H2 5569   2.948   3.227   0.365 -1.4144 -1.6750 -0.3493
 1855TIP3   OH2 5570   3.056   1.570   0.151 -0.0017  0.0673 -0.0396
 1855TIP3    H1 5571   2.977   1.600   0.106  0.6672 -0.7410 -1.8371
 1855TIP3    H2 5572   3.128   1.598   0.095  0.9301 -0.1284  1.0332
 1856TIP3   OH2 5573   5.715   0.882   2.470 -0.1348  0.2130  0.6169
 1856TIP3    H1 5574   5.705   0.939   2.394 -1.5489  0.4068  0.9217
 1856TIP3    H2 5575   5.640   0.822   2.466  0.6914 -0.8883  0.9365
 1857TIP3   OH2 5576   5.248   3.694   5.071 -0.7574 -0.5521  0.1581
 1857TIP3    H1 5577   5.340   3.686   5.046 -1.2745 -1.8660 -1.5765
 1857TIP3    H2 5578   5.231   3.617   5.125 -0.4024  0.7247  2.1956
 1858TIP3   OH2 5579   5.563   2.199   4.794 -0.0234 -0.2688  0.0663
 1858TIP3    H1 5580   5.653   2.214   4.825  0.1965 -2.1807  0.4775
 1858TIP3    H2 5581   5.531   2.127   4.848 -2.3709  1.3189  0.9179
 1859TIP3   OH2 5582   3.308   3.928   3.217  0.3048  0.2576  0.2939
 1859TIP3    H1 5583   3.286   3.903   3.127  1.5087  0.5092 -0.0900
 1859TIP3    H2 5584   3.241   3.885   3.270 -0.6882  0.4658 -0.7451
 1860TIP3   OH2 5585   2.406   5.453   2.700  0.1849  0.4314  0.3302
 1860TIP3    H1 5586   2.431   5.492   2.616 -1.4330 -0.4953 -0.6438
 1860TIP3    H2 5587   2.489   5.425   2.739  0.8914 -0.5597 -1.7162
 1861TIP3   OH2 5588   6.351   3.605   3.910  0.4875 -0.2073 -0.2284
 1861TIP3    H1 5589   6.289   3.624   3.980  1.0454  1.4903 -0.1321
 1861TIP3    H2 5590   6.298   3.598   3.831  0.0605  0.1325  0.0253
 1862TIP3   OH2 5591   0.603   2.959   2.098 -0.0568 -0.2838  0.2947
 1862TIP3    H1 5592   0.642   3.042   2.068  0.3700 -0.9175 -0.9825
 1862TIP3    H2 5593   0.519   2.985   2.136  0.5098  0.8416  0.8400
 1863TIP3   OH2 5594   0.213   4.922   2.133  0.2574  0.5801 -0.2211
 1863TIP3    H1 5595   0.124   4.896   2.155  0.6553 -1.9904 -1.3266
 1863TIP3    H2 5596   0.204   4.979   2.057 -0.5488  2.4391  1.2038
 1864TIP3   OH2 5597   4.054   1.683   4.390  0.3608 -0.2683  0.2334
 1864TIP3    H1 5598   4.017   1.748   4.450 -0.1603 -0.3053 -0.0384
 1864TIP3    H2 5599   4.094   1.735   4.320  2.3095 -0.1845  1.3516
 1865TIP3   OH2 5600   3.492   2.073   4.918  0.0012  0.2146 -0.3222
 1865TIP3    H1 5601   3.443   2.131   4.859 -1.2665  0.0124  0.4926
 1865TIP3    H2 5602   3.477   1.985   4.882 -0.0805  0.1706 -0.1826
 1866TIP3   OH2 5603   2.182   5.632   3.356  0.2692 -0.2396 -0.0833
 1866TIP3    H1 5604   2.166   5.650   3.263 -2.2092  2.1372  0.6927
 1866TIP3    H2 5605   2.253   5.691   3.380  0.2151 -0.1128 -0.2323
 1867TIP3   OH2 5606   1.774   5.209   4.601  0.6143  0.3609 -0.0489
 1867TIP3    H1 5607   1.783   5.226   4.695 -1.8121 -1.7318  0.6686
 1867TIP3    H2 5608   1.843   5.146   4.581  0.6350  0.2149  0.4827
 1868TIP3   OH2 5609   4.974   4.923   5.112  0.2221 -0.0121  0.0230
 1868TIP3    H1 5610   4.966   4.960   5.200 -2.4771  1.5472 -0.7406
 1868TIP3    H2 5611   5.055   4.961   5.077  0.4864  0.6318  1.2683
 1869TIP3   OH2 5612   1.956   0.216   0.068  0.0044 -0.4938  0.0264
 1869TIP3    H1 5613   2.050   0.206   0.083  0.8912  1.1513 -3.5473
 1869TIP3    H2 5614   1.934   0.301   0.109  0.1624 -0.6332  0.4073
 1870TIP3   OH2 5615   4.329   5.966   1.594 -0.0381 -0.1018  0.0076
 1870TIP3    H1 5616   4.259   5.954   1.529  1.6173  0.4171 -1.9816
 1870TIP3    H2 5617   4.359   5.877   1.613 -2.1828 -0.4846  2.1090
 1871TIP3   OH2 5618   0.395   3.577   4.062  0.2525 -0.4106  0.2732
 1871TIP3    H1 5619   0.370   3.562   3.971  0.7883  2.0101 -0.3504
 1871TIP3    H2 5620   0.487   3.602   4.058  0.3669 -0.5963  1.5188
 1872TIP3   OH2 5621   5.881   0.082   0.796  0.6325 -1.0170  0.6270
 1872TIP3    H1 5622   5.955   0.142   0.783 -0.4446  0.1481 -0.3236
 1872TIP3    H2 5623   5.834   0.084   0.713  0.0626 -2.5191  0.8812
 1873TIP3   OH2 5624   3.061   0.743   3.667 -0.3578 -0.1067 -0.1271
 1873TIP3    H1 5625   3.021   0.674   3.615 -0.2761  0.2875 -0.7197
 1873TIP3    H2 5626   3.085   0.810   3.604 -1.4879  0.9854  0.5629
 1874TIP3   OH2 5627   0.887   5.858   0.469 -0.2958  0.2399 -0.3479
 1874TIP3    H1 5628   0.811   5.895   0.425 -0.0316 -0.1356 -1.1583
 1874TIP3    H2 5629   0.882   5.890   0.559 -2.1204 -0.8410 -0.0248
 1875TIP3   OH2 5630   4.179   2.869   1.719 -0.6276 -0.4166 -0.3413
 1875TIP3    H1 5631   4.217   2.950   1.686 -1.3982  0.1027  0.0387
 1875TIP3    H2 5632   4.117   2.842   1.651 -0.8344 -0.3524 -0.1783
 1876TIP3   OH2 5633   0.709   2.263   4.344  0.3265  0.3240 -0.1221
 1876TIP3    H1 5634   0.696   2.355   4.370 -0.0001  0.1976  0.1754
 1876TIP3    H2 5635   0.644   2.248   4.275 -0.2860  0.0467  0.5005
 1877TIP3   OH2 5636   5.425   3.183   4.471 -0.7606 -0.2602 -0.8099
 1877TIP3    H1 5637   5.375   3.105   4.446  0.3365 -1.2547  0.0018
 1877TIP3    H2 5638   5.467   3.159   4.553 -0.8445  1.4062 -0.2331
 1878TIP3   OH2 5639   2.295   2.280   1.610  0.8491 -0.1422 -1.0547
 1878TIP3    H1 5640   2.214   2.304   1.566  1.3563 -0.9117 -2.4890
 1878TIP3    H2 5641   2.328   2.205   1.560  2.1745 -0.1764 -0.1904
 1879TIP3   OH2 5642   2.910   1.496   2.786 -0.2911  0.2962  0.0237
 1879TIP3    H1 5643   2.855   1.450   2.849 -1.3122  1.5084  0.0742
 1879TIP3    H2 5644   3.000   1.476   2.813 -0.6962  0.6700  1.7859
 1880TIP3   OH2 5645   1.836   2.253   1.596 -0.4265 -0.8560  0.4481
 1880TIP3    H1 5646   1.831   2.195   1.520 -1.2672 -0.3168  0.0850
 1880TIP3    H2 5647   1.791   2.204   1.666  1.2582 -1.8147  0.9371
 1881TIP3   OH2 5648   0.609   1.414   4.961  0.0831 -0.2690  0.1507
 1881TIP3    H1 5649   0.546   1.432   5.031 -0.6526 -0.9517 -0.3250
 1881TIP3    H2 5650   0.657   1.337   4.992  0.2594 -0.1279  0.2302
 1882TIP3   OH2 5651   2.159   2.447   0.984 -0.2640  0.5614 -0.1748
 1882TIP3    H1 5652   2.141   2.418   0.894 -1.7307 -0.3188  0.3834
 1882TIP3    H2 5653   2.215   2.524   0.972 -1.1979  1.0354 -1.8922
 1883TIP3   OH2 5654   5.241   4.169   3.359  0.2975  0.4238  0.9895
 1883TIP3    H1 5655   5.287   4.107   3.303  0.0417  0.0286  1.2108
 1883TIP3    H2 5656   5.305   4.193   3.426  0.3281  0.2330  1.0281
 1884TIP3   OH2 5657   0.004   2.035   3.546  0.3445  0.2082  0.6008
 1884TIP3    H1 5658   0.065   2.096   3.505  0.2933  0.0329  0.2608
 1884TIP3    H2 5659  -0.004   1.963   3.484 -0.8549  0.6219  0.2453
 1885TIP3   OH2 5660   4.117   2.022   0.834  0.0488 -0.3915  0.3921
 1885TIP3    H1 5661   4.121   2.053   0.743  2.6140 -0.2574  0.4749
 1885TIP3    H2 5662   4.053   2.080   0.876 -1.1421 -0.4101 -1.2803
 1886TIP3   OH2 5663   4.064   1.659   1.424 -0.0903 -0.1267  0.0296
 1886TIP3    H1 5664   4.097   1.731   1.369  0.0296  0.2007  0.5272
 1886TIP3    H2 5665   4.082   1.580   1.372 -1.2433  0.2732 -1.0304
 1887TIP3   OH2 5666   4.877   3.618   4.797 -0.1581  0.3993  0.6325
 1887TIP3    H1 5667   4.873   3.680   4.724 -0.7209 -0.1445  0.1945
 1887TIP3    H2 5668   4.838   3.665   4.871 -1.9140  0.0868 -0.0529
 1888TIP3   OH2 5669   3.443   3.645   0.204  0.2515 -0.6269  0.3184
 1888TIP3    H1 5670   3.404   3.731   0.192  0.3251 -0.4927  0.9702
 1888TIP3    H2 5671   3.385   3.585   0.158  1.1241 -0.0380 -1.6271
 1889TIP3   OH2 5672   4.116   1.905   0.020  0.0800  0.5830  0.4705
 1889TIP3    H1 5673   4.042   1.926  -0.038 -0.3312  1.5249  1.2970
 1889TIP3    H2 5674   4.076   1.891   0.106  0.8227  0.6833  0.8402
 1890TIP3   OH2 5675   5.924   4.190   1.488 -0.7432  0.0688  0.0709
 1890TIP3    H1 5676   5.965   4.257   1.434 -0.2506  0.9462  1.4633
 1890TIP3    H2 5677   5.926   4.111   1.435  0.0800  0.8002 -1.0236
 1891TIP3   OH2 5678   3.905   3.171   4.189  0.2473 -0.1333 -0.0159
 1891TIP3    H1 5679   3.875   3.140   4.274 -2.3579  2.7893  0.2873
 1891TIP3    H2 5680   3.837   3.144   4.127 -0.1463  1.4985 -0.3573
 1892TIP3   OH2 5681   6.154   4.404   4.458  0.8700  0.1074 -0.7042
 1892TIP3    H1 5682   6.234   4.364   4.494  1.5880  1.3117 -0.8819
 1892TIP3    H2 5683   6.182   4.492   4.432 -0.3381  0.2702 -1.5167
 1893TIP3   OH2 5684   3.369   2.789   3.024  0.1729 -0.0583 -0.3937
 1893TIP3    H1 5685   3.317   2.813   3.100  1.6503 -1.5390  1.1742
 1893TIP3    H2 5686   3.442   2.850   3.024 -0.8790  1.2973 -1.9355
 1894TIP3   OH2 5687   1.139   5.407   1.365 -0.0945  0.0563 -0.2608
 1894TIP3    H1 5688   1.107   5.495   1.387  1.0847  0.4384 -0.0461
 1894TIP3    H2 5689   1.188   5.379   1.442  2.8924  0.8434 -1.7264
 1895TIP3   OH2 5690   3.145   1.457   0.895 -0.3936  0.0670  0.5495
 1895TIP3    H1 5691   3.093   1.470   0.815  1.1000  2.7529 -0.1038
 1895TIP3    H2 5692   3.214   1.397   0.869 -1.6124 -1.4527  0.7054
 1896TIP3   OH2 5693   2.206   4.029   1.826 -0.0839  0.4673 -0.6396
 1896TIP3    H1 5694   2.293   4.016   1.789 -0.3715 -0.4151 -1.0407
 1896TIP3    H2 5695   2.221   4.068   1.912  0.7910 -1.0706 -0.0589
 1897TIP3   OH2 5696   0.152   1.571   1.088  0.0736  0.3318 -0.3870
 1897TIP3    H1 5697   0.128   1.663   1.074 -0.2156 -0.1434 -4.0672
 1897TIP3    H2 5698   0.159   1.535   1.000  1.5237 -2.8860  0.8957
 1898TIP3   OH2 5699   3.057   3.000   2.511 -0.3213 -0.2228 -0.2983
 1898TIP3    H1 5700   2.964   2.986   2.490 -0.4757 -1.5545  1.0528
 1898TIP3    H2 5701   3.064   3.094   2.527 -1.2914 -0.0072 -1.0249
 1899TIP3   OH2 5702   2.431   5.305   0.358 -0.3208 -0.6158 -0.2619
 1899TIP3    H1 5703   2.362   5.363   0.326 -1.2517 -0.5640  1.7227
 1899TIP3    H2 5704   2.494   5.302   0.286 -1.2565  1.1769 -1.2336
 1900TIP3   OH2 5705   2.075   4.061   1.590 -0.1473 -0.1471  0.0646
 1900TIP3    H1 5706   2.101   4.056   1.682  0.7412  0.3613 -0.1539
 1900TIP3    H2 5707   2.042   3.973   1.570 -2.0220  0.2026  1.3396
 1901TIP3   OH2 5708   4.937   2.383   4.253  0.4873 -0.5905 -0.0538
 1901TIP3    H1 5709   4.865   2.442   4.232  1.1459  0.8826  1.5086
 1901TIP3    H2 5710   5.007   2.407   4.192  0.8072  0.4054  0.6780
 1902TIP3   OH2 5711   1.256   2.730   1.149 -0.7061  0.6846 -0.3084
 1902TIP3    H1 5712   1.193   2.729   1.221 -1.9157  0.5448 -1.3512
 1902TIP3    H2 5713   1.288   2.639   1.145 -1.2725  0.4901 -0.4919
 1903TIP3   OH2 5714   3.764   5.009   0.183  0.3397  0.1967  0.4070
 1903TIP3    H1 5715   3.806   4.971   0.261 -0.9503  2.0910  2.1232
 1903TIP3    H2 5716   3.836   5.047   0.133  1.1292 -0.4745  1.0073
 1904TIP3   OH2 5717   5.534   4.911   4.934 -0.1111  0.3975  0.8329
 1904TIP3    H1 5718   5.596   4.880   5.000 -0.7618 -1.7701  0.5175
 1904TIP3    H2 5719   5.551   4.857   4.857 -1.0558  1.1565  0.0609
 1905TIP3   OH2 5720   4.895   3.817   2.929 -0.1095  0.2910  0.1669
 1905TIP3    H1 5721   4.925   3.858   3.010 -2.9721  1.8877  0.5402
 1905TIP3    H2 5722   4.911   3.883   2.862 -0.4756  0.1576 -0.0492
 1906TIP3   OH2 5723   5.714   2.420   3.434  0.5111 -0.3543  0.2335
 1906TIP3    H1 5724   5.658   2.439   3.509  0.8803 -1.1731  0.7236
 1906TIP3    H2 5725   5.803   2.417   3.469  0.7105 -0.5340 -0.2686
 1907TIP3   OH2 5726   2.801   3.660   5.179  0.0184 -0.2038 -0.0586
 1907TIP3    H1 5727   2.757   3.575   5.181  0.5167 -0.4581  0.5093
 1907TIP3    H2 5728   2.803   3.684   5.086 -0.6355 -0.5430 -0.1631
 1908TIP3   OH2 5729   2.858   1.990   4.323  0.2945  0.7057 -0.2703
 1908TIP3    H1 5730   2.817   2.015   4.240  0.8456  1.4881 -0.3135
 1908TIP3    H2 5731   2.952   1.994   4.305  0.4162 -0.3609  0.0390
 1909TIP3   OH2 5732   1.424   1.047   5.106  0.4034 -0.1543 -0.3437
 1909TIP3    H1 5733   1.455   1.070   5.193 -1.9606  0.0030  0.5165
 1909TIP3    H2 5734   1.379   1.125   5.075  1.0773 -0.2607 -1.6884
 1910TIP3   OH2 5735   1.289   3.291   3.763  0.0495 -0.3886  1.1102
 1910TIP3    H1 5736   1.262   3.288   3.671 -0.1632 -0.2815  1.1688
 1910TIP3    H2 5737   1.317   3.382   3.777  0.6704 -0.5566  0.9859
 1911TIP3   OH2 5738   2.919   4.208   3.866 -0.0947 -0.4358  0.4036
 1911TIP3    H1 5739   2.958   4.202   3.779  0.3710 -1.4564  0.6774
 1911TIP3    H2 5740   2.824   4.207   3.850 -0.0687  2.1138 -0.2607
 1912TIP3   OH2 5741   4.379   0.827   2.400 -0.3789  0.5526 -0.1304
 1912TIP3    H1 5742   4.462   0.874   2.389  0.7163 -0.8410  1.7242
 1912TIP3    H2 5743   4.315   0.896   2.419  0.2287  1.6895 -1.9512
 1913TIP3   OH2 5744   3.476   4.877   1.460  0.0552  0.3782  0.1777
 1913TIP3    H1 5745   3.566   4.854   1.484 -0.2355  0.8626  1.8625
 1913TIP3    H2 5746   3.459   4.957   1.509 -2.3973 -1.4764  2.6835
 1914TIP3   OH2 5747   2.110   1.594   1.050  0.6074  0.1436  0.2825
 1914TIP3    H1 5748   2.182   1.567   0.992  0.0182  1.3585 -1.0658
 1914TIP3    H2 5749   2.051   1.519   1.051  1.2000 -0.3315  0.2579
 1915TIP3   OH2 5750   0.955   0.469   0.048 -0.2584  0.2208  0.3091
 1915TIP3    H1 5751   1.037   0.425   0.069  0.6680  1.2823 -0.9944
 1915TIP3    H2 5752   0.927   0.508   0.131  1.3780  1.1802  0.4317
 1916TIP3   OH2 5753   6.018   2.320   0.484 -0.0628  0.1547 -0.0819
 1916TIP3    H1 5754   6.098   2.373   0.489 -1.3409  2.4871 -2.1943
 1916TIP3    H2 5755   5.956   2.365   0.541 -0.8154  0.3046 -0.9857
 1917TIP3   OH2 5756   4.399   3.661   2.877  0.2148  0.0066  0.0999
 1917TIP3    H1 5757   4.379   3.731   2.939  1.3971  1.4397 -1.0582
 1917TIP3    H2 5758   4.482   3.625   2.908 -0.4268 -1.0124  0.7391
 1918TIP3   OH2 5759   6.223   0.724   4.942 -0.0371 -0.1465  0.1741
 1918TIP3    H1 5760   6.201   0.665   4.870  0.1951  0.9507 -0.8056
 1918TIP3    H2 5761   6.319   0.722   4.947 -0.0795 -0.9121  1.0640
 1919TIP3   OH2 5762   5.377   5.118   1.080 -0.5697  0.5719 -0.4361
 1919TIP3    H1 5763   5.442   5.171   1.033 -2.1644  1.1203 -2.1669
 1919TIP3    H2 5764   5.338   5.063   1.013  0.8641 -2.7890  1.2768
 1920TIP3   OH2 5765   1.942   5.776   3.433 -0.1838 -0.0183 -0.1295
 1920TIP3    H1 5766   2.026   5.731   3.424  0.4545  0.9696  0.7322
 1920TIP3    H2 5767   1.964   5.869   3.433 -1.0761  0.2254  1.8840
 1921TIP3   OH2 5768   1.629   5.704   3.089  0.4633  0.3392 -0.1183
 1921TIP3    H1 5769   1.723   5.715   3.101  0.4555  0.1335  0.1346
 1921TIP3    H2 5770   1.620   5.664   3.002  0.5379  1.5173 -0.6794
 1922TIP3   OH2 5771   6.212   1.503   4.963 -0.8026  0.2193  0.0063
 1922TIP3    H1 5772   6.150   1.432   4.978 -0.6920  0.0722 -0.2292
 1922TIP3    H2 5773   6.226   1.504   4.868 -0.3779  0.1918  0.0648
 1923TIP3   OH2 5774   4.189   3.456   4.096 -0.6877  0.0421  0.0767
 1923TIP3    H1 5775   4.279   3.465   4.065 -1.0119  0.3486 -0.8171
 1923TIP3    H2 5776   4.192   3.482   4.188  0.0854  0.2890 -0.0127
 1924TIP3   OH2 5777   1.859   4.803   2.699 -0.3555 -0.5390  0.2510
 1924TIP3    H1 5778   1.938   4.817   2.751 -0.3107 -0.2775  0.1126
 1924TIP3    H2 5779   1.792   4.857   2.742 -0.3734 -0.4937  0.1670
 1925TIP3   OH2 5780   6.260   4.061   1.270  0.1308  0.0195  0.6522
 1925TIP3    H1 5781   6.328   3.994   1.257 -0.3390  0.0200 -2.4679
 1925TIP3    H2 5782   6.303   4.143   1.248 -0.2327  0.3550  1.1652
 1926TIP3   OH2 5783   4.502   3.119   4.903  0.1871 -0.4345  0.3107
 1926TIP3    H1 5784   4.418   3.164   4.895 -0.4829 -1.3687  1.7217
 1926TIP3    H2 5785   4.567   3.186   4.884 -0.7861  1.0882  2.0903
 1927TIP3   OH2 5786   0.849   3.642   3.623 -0.3633  0.2242 -0.3813
 1927TIP3    H1 5787   0.899   3.700   3.681  0.8997  0.5695 -1.7726
 1927TIP3    H2 5788   0.824   3.569   3.680 -0.9145  1.5035  1.0942
 1928TIP3   OH2 5789   2.943   5.146   0.961 -0.1291  0.4077  0.8857
 1928TIP3    H1 5790   2.858   5.111   0.932 -0.4780  1.1039  1.0571
 1928TIP3    H2 5791   2.991   5.068   0.990 -0.0364 -0.2244 -0.8399
 1929TIP3   OH2 5792   0.749   0.724   0.488  0.0080  0.0524 -0.5548
 1929TIP3    H1 5793   0.772   0.698   0.399  0.6178  0.2780 -0.4679
 1929TIP3    H2 5794   0.730   0.818   0.482  1.3427  0.3691 -0.2228
 1930TIP3   OH2 5795   4.938   2.387   3.300  0.4255  0.1377  0.1912
 1930TIP3    H1 5796   5.030   2.383   3.275  0.3578 -1.7803  0.1424
 1930TIP3    H2 5797   4.934   2.342   3.384 -0.5590 -0.3077 -0.0815
 1931TIP3   OH2 5798   5.811   1.714   3.013  0.7124 -0.0936  0.0856
 1931TIP3    H1 5799   5.885   1.682   2.962  0.4590  1.9794 -1.7347
 1931TIP3    H2 5800   5.821   1.809   3.012 -0.0561  0.0992  2.8585
 1932TIP3   OH2 5801   6.161   0.522   4.758 -1.0018  0.0923 -0.0243
 1932TIP3    H1 5802   6.072   0.513   4.792 -1.4887  1.2423 -0.9405
 1932TIP3    H2 5803   6.202   0.438   4.777 -2.0788 -0.2341  0.9840
 1933TIP3   OH2 5804   2.930   2.530   3.346  0.8019 -0.1225 -0.3971
 1933TIP3    H1 5805   2.892   2.467   3.285  1.5839 -0.8215 -0.1731
 1933TIP3    H2 5806   2.949   2.607   3.291  0.0749 -0.1673 -0.7204
 1934TIP3   OH2 5807   3.239   0.225  -0.009 -0.1122  0.4292 -0.1659
 1934TIP3    H1 5808   3.279   0.310   0.006 -1.2862  1.0060 -0.2372
 1934TIP3    H2 5809   3.201   0.200   0.075 -1.5371  0.9369 -0.6265
 1935TIP3   OH2 5810   4.985   2.358   1.232  0.1017 -0.7183 -0.0231
 1935TIP3    H1 5811   4.932   2.377   1.310  0.7520  0.4885  0.1601
 1935TIP3    H2 5812   4.925   2.368   1.159  0.5866  3.7817 -0.0852
 1936TIP3   OH2 5813   2.030   5.437   3.912  0.3325 -0.0741  0.2446
 1936TIP3    H1 5814   2.042   5.387   3.992 -0.8193 -0.7320  0.0367
 1936TIP3    H2 5815   2.051   5.527   3.935  2.8062 -0.6756  0.5414
 1937TIP3   OH2 5816   0.056   2.350   0.504  0.1530 -0.0824 -0.2222
 1937TIP3    H1 5817   0.022   2.422   0.557 -1.4197 -0.1668 -1.0569
 1937TIP3    H2 5818   0.145   2.336   0.537  0.7683  2.6580 -0.4416
 1938TIP3   OH2 5819   5.643   3.322   3.837  0.0314 -0.3938  0.6771
 1938TIP3    H1 5820   5.664   3.412   3.863  0.7709 -0.5485  0.6338
 1938TIP3    H2 5821   5.581   3.333   3.765 -0.0997  0.0764  0.8530
 1939TIP3   OH2 5822   2.096   5.057   3.690  0.1330  0.4744  0.8715
 1939TIP3    H1 5823   2.180   5.012   3.702  0.3894  1.2172  2.0521
 1939TIP3    H2 5824   2.119   5.150   3.689 -0.8055  0.7690  2.7292
 1940TIP3   OH2 5825   2.761   0.976   4.556 -0.5316  0.1642 -0.1638
 1940TIP3    H1 5826   2.811   1.031   4.616 -1.2572  0.9127 -0.2272
 1940TIP3    H2 5827   2.678   0.961   4.600 -0.2321 -1.1797  0.0001
 1941TIP3   OH2 5828   4.686   2.876   2.270  0.1618 -0.1355 -0.3877
 1941TIP3    H1 5829   4.701   2.851   2.178  0.7049  0.5704 -0.5057
 1941TIP3    H2 5830   4.716   2.967   2.274 -3.1884  1.0879 -0.3538
 1942TIP3   OH2 5831   6.048   0.177   4.698 -0.3632 -0.0879  0.4608
 1942TIP3    H1 5832   6.053   0.082   4.705  2.5720 -0.2876 -2.0816
 1942TIP3    H2 5833   6.019   0.193   4.608 -0.9675  1.4617  0.8928
 1943TIP3   OH2 5834   2.366   3.320   1.380  0.6932 -0.0113  0.0489
 1943TIP3    H1 5835   2.356   3.333   1.286 -0.0930  1.2621  0.2773
 1943TIP3    H2 5836   2.277   3.310   1.413  0.8593  0.8988  0.8122
 1944TIP3   OH2 5837   4.827   0.383   4.970 -0.6153 -0.6504 -0.0346
 1944TIP3    H1 5838   4.744   0.380   5.018 -0.6319  0.3422  0.0357
 1944TIP3    H2 5839   4.816   0.456   4.909  0.9628  0.9336  1.4599
 1945TIP3   OH2 5840   0.918   1.331   3.725  0.1070  0.4099  0.0612
 1945TIP3    H1 5841   0.827   1.358   3.713  0.5656  1.2751 -1.8773
 1945TIP3    H2 5842   0.959   1.405   3.770  0.6355  1.7135 -2.3953
 1946TIP3   OH2 5843   0.933   5.572   4.389 -0.2923 -0.5661 -0.2631
 1946TIP3    H1 5844   0.970   5.487   4.410 -0.2353 -0.0078  2.2194
 1946TIP3    H2 5845   1.007   5.632   4.389 -0.0768 -0.6723 -3.6174
 1947TIP3   OH2 5846   1.600   4.150   1.583  0.4986 -0.3247 -0.2786
 1947TIP3    H1 5847   1.513   4.113   1.590 -0.0441  1.0435  0.8108
 1947TIP3    H2 5848   1.652   4.084   1.536 -0.7326 -1.7911  0.3667
 1948TIP3   OH2 5849   0.281   4.127   1.899  0.1522 -0.0661 -0.0954
 1948TIP3    H1 5850   0.291   4.210   1.852 -0.6541 -0.4446 -0.9756
 1948TIP3    H2 5851   0.369   4.090   1.901  0.3419  0.3388 -0.6099
 1949TIP3   OH2 5852   4.569   5.850   3.025  0.1210 -0.4778 -0.3794
 1949TIP3    H1 5853   4.496   5.868   3.085 -0.3423  1.7111 -1.4908
 1949TIP3    H2 5854   4.569   5.924   2.965  1.6856 -1.7180 -2.0080
 1950TIP3   OH2 5855   3.899   2.414   0.489 -1.0222 -0.3661  0.1389
 1950TIP3    H1 5856   3.942   2.497   0.509 -0.5340 -0.1027 -1.7580
 1950TIP3    H2 5857   3.957   2.347   0.526 -1.5276  0.1038  1.8600
 1951TIP3   OH2 5858   5.572   5.706   1.568 -0.5276 -0.3909 -0.3703
 1951TIP3    H1 5859   5.618   5.712   1.652 -1.2560 -1.5148  0.1345
 1951TIP3    H2 5860   5.502   5.770   1.574  1.5989  2.2489 -1.6290
 1952TIP3   OH2 5861   5.295   4.592   2.056  0.2530 -0.1404  0.0296
 1952TIP3    H1 5862   5.265   4.577   2.146  0.1993  0.8606  0.1881
 1952TIP3    H2 5863   5.215   4.590   2.004  0.0812  0.7965  0.2241
 1953TIP3   OH2 5864   0.760   0.629   1.911 -0.1978 -0.0118 -0.2916
 1953TIP3    H1 5865   0.708   0.704   1.880 -0.8295 -0.3784 -0.1408
 1953TIP3    H2 5866   0.698   0.556   1.912 -0.3583  0.0522  2.2645
 1954TIP3   OH2 5867   5.753   4.581   0.482 -0.1688  0.6715  0.0848
 1954TIP3    H1 5868   5.765   4.606   0.573 -0.1674  0.8215  0.0436
 1954TIP3    H2 5869   5.788   4.654   0.432 -1.5042  1.2518 -0.0415
 1955TIP3   OH2 5870   5.881   2.061   3.514  0.1621  0.6220 -0.1568
 1955TIP3    H1 5871   5.961   2.026   3.552  0.3627 -1.1280 -1.9995
 1955TIP3    H2 5872   5.825   1.984   3.501 -0.3193  1.2603 -2.2956
 1956TIP3   OH2 5873   2.608   4.844   3.215  0.6487  0.0846 -0.0810
 1956TIP3    H1 5874   2.681   4.817   3.271 -0.4428 -1.8217  0.4721
 1956TIP3    H2 5875   2.646   4.912   3.159  1.8743  1.9212  2.7081
 1957TIP3   OH2 5876   2.921   5.913   5.177 -0.2869  0.3044 -0.1473
 1957TIP3    H1 5877   2.975   5.873   5.108  0.2362  0.4644  0.1643
 1957TIP3    H2 5878   2.863   5.972   5.130  0.0142  0.3585 -0.4613
 1958TIP3   OH2 5879   1.151   1.357   4.653  0.0361  0.2943  0.3040
 1958TIP3    H1 5880   1.084   1.399   4.600 -0.1112 -0.6270 -0.2558
 1958TIP3    H2 5881   1.103   1.304   4.716  0.2187 -0.9954 -0.6109
 1959TIP3   OH2 5882   0.679   2.856   2.819  0.2066 -0.1925 -0.0072
 1959TIP3    H1 5883   0.701   2.918   2.889 -0.4421 -0.4642  0.4529
 1959TIP3    H2 5884   0.675   2.910   2.740 -3.0960  0.9614  0.7923
 1960TIP3   OH2 5885   3.221   3.215   3.318 -0.7035 -0.1365 -0.0470
 1960TIP3    H1 5886   3.170   3.211   3.237 -0.6814 -0.1778 -0.0594
 1960TIP3    H2 5887   3.303   3.170   3.296 -0.2144  0.8704 -0.3500
 1961TIP3   OH2 5888   2.641   3.976   0.550  0.5399  0.2110 -0.1012
 1961TIP3    H1 5889   2.675   3.917   0.482 -0.9364 -0.3889 -0.3472
 1961TIP3    H2 5890   2.630   3.921   0.627 -0.9684  0.1054 -0.3701
 1962TIP3   OH2 5891   5.744   3.033   1.865 -0.0631  0.2675  0.0486
 1962TIP3    H1 5892   5.699   2.953   1.838  0.7005 -0.1505 -0.0017
 1962TIP3    H2 5893   5.834   3.006   1.883  0.4260  1.2608 -0.7777
 1963TIP3   OH2 5894   3.888   1.091   0.816  0.1878 -0.5413 -0.3045
 1963TIP3    H1 5895   3.916   1.023   0.755  1.3762  1.0099 -1.5667
 1963TIP3    H2 5896   3.957   1.157   0.813 -1.5886  1.4325 -0.2454
 1964TIP3   OH2 5897   5.214   5.103   3.752 -0.4203 -0.7039  0.3979
 1964TIP3    H1 5898   5.228   5.008   3.744  0.0879 -0.4712 -2.4975
 1964TIP3    H2 5899   5.121   5.115   3.732  0.1444 -0.4090 -2.4498
 1965TIP3   OH2 5900   4.749   2.176   0.607  0.0601 -0.4162  0.0909
 1965TIP3    H1 5901   4.716   2.229   0.534 -0.4128  0.7449  1.1159
 1965TIP3    H2 5902   4.694   2.097   0.605 -0.4837 -0.0381 -0.3133
 1966TIP3   OH2 5903   4.848   4.540   1.599  0.4192  0.4399  0.2275
 1966TIP3    H1 5904   4.828   4.589   1.680 -1.0626  1.0582 -0.4700
 1966TIP3    H2 5905   4.943   4.528   1.602  0.7168  2.4770  0.9547
 1967TIP3   OH2 5906   1.939   4.746   3.228 -0.2340  0.3138  0.0253
 1967TIP3    H1 5907   1.876   4.683   3.264 -0.1748  1.5169  2.4074
 1967TIP3    H2 5908   1.914   4.830   3.267  1.4474  1.2502 -0.8112
 1968TIP3   OH2 5909   6.110   4.530   2.858 -0.3108 -0.2024 -0.2164
 1968TIP3    H1 5910   6.145   4.528   2.947  0.5424  1.7404 -0.4754
 1968TIP3    H2 5911   6.016   4.547   2.870 -0.0192  1.1609  0.3127
 1969TIP3   OH2 5912   4.606   5.515   3.914  0.2151 -0.4157  1.0538
 1969TIP3    H1 5913   4.646   5.578   3.854 -0.3118 -0.0668  1.0543
 1969TIP3    H2 5914   4.533   5.564   3.954  0.0594 -0.8959  1.3685
 1970TIP3   OH2 5915   2.346   0.329   3.056  0.1876  0.1568 -0.1302
 1970TIP3    H1 5916   2.263   0.291   3.086  0.0722 -0.5558 -1.2892
 1970TIP3    H2 5917   2.340   0.326   2.960  1.7733 -0.3837 -0.2329
 1971TIP3   OH2 5918   3.761   4.768   1.464 -0.1374  0.0797  0.4136
 1971TIP3    H1 5919   3.768   4.834   1.395 -0.4898  0.4737  0.7549
 1971TIP3    H2 5920   3.763   4.685   1.417 -0.8111  0.3535 -0.1182
 1972TIP3   OH2 5921   2.639   5.318   0.159 -0.0320  0.2001  0.6430
 1972TIP3    H1 5922   2.652   5.246   0.098 -2.7604  0.0631  0.0807
 1972TIP3    H2 5923   2.713   5.376   0.144  1.5876 -1.8392  0.2379
 1973TIP3   OH2 5924   1.203   2.399   4.692 -0.2165  0.2126  0.0126
 1973TIP3    H1 5925   1.138   2.336   4.662 -0.3712 -0.4312  1.6191
 1973TIP3    H2 5926   1.287   2.354   4.680 -0.3271 -0.3223  1.1617
 1974TIP3   OH2 5927   4.153   0.760   3.644  0.0930 -0.2660  0.0218
 1974TIP3    H1 5928   4.244   0.734   3.656  0.7268  0.9706 -1.6963
 1974TIP3    H2 5929   4.119   0.773   3.733  1.6059 -0.6664  0.6789
 1975TIP3   OH2 5930   5.849   4.240   5.131 -0.0675  0.0112  0.4751
 1975TIP3    H1 5931   5.917   4.295   5.092 -0.2793  0.0734  0.1923
 1975TIP3    H2 5932   5.801   4.299   5.189 -1.2572  0.5258 -0.9653
 1976TIP3   OH2 5933   1.874   2.416   0.219  0.0403 -0.2246  0.3032
 1976TIP3    H1 5934   1.820   2.338   0.210 -1.4159  0.3710  2.7536
 1976TIP3    H2 5935   1.962   2.388   0.196 -0.4465 -2.5790  1.0309
 1977TIP3   OH2 5936   1.318   2.817   4.020  0.4116 -0.5660  0.4147
 1977TIP3    H1 5937   1.404   2.835   3.980 -0.2987  1.1412 -0.4792
 1977TIP3    H2 5938   1.304   2.891   4.080 -0.7242 -0.4259  0.0084
 1978TIP3   OH2 5939   1.606   4.748   0.937  0.4427  0.0927 -0.5009
 1978TIP3    H1 5940   1.565   4.811   0.997  1.1344 -0.1082  0.1933
 1978TIP3    H2 5941   1.640   4.679   0.994  1.6257  0.1837 -1.0646
 1979TIP3   OH2 5942   4.669   5.171   1.648  0.4209  0.2622 -0.9180
 1979TIP3    H1 5943   4.699   5.146   1.735 -1.2869  1.8528  0.2114
 1979TIP3    H2 5944   4.748   5.203   1.604  1.5857 -1.9000 -0.5305
 1980TIP3   OH2 5945   2.192   0.651   1.380 -0.3821  0.2290  0.0282
 1980TIP3    H1 5946   2.132   0.582   1.355 -1.0995  1.0071 -0.4420
 1980TIP3    H2 5947   2.229   0.683   1.297 -0.5004  0.7957  0.1861
 1981TIP3   OH2 5948   5.676   1.730   3.789 -0.5602  0.0439  0.5125
 1981TIP3    H1 5949   5.715   1.714   3.703  1.6725  0.7420  1.3310
 1981TIP3    H2 5950   5.608   1.663   3.797 -0.5141 -0.3250 -1.5882
 1982TIP3   OH2 5951   4.562   3.638   5.179  0.2026 -0.0392 -0.0694
 1982TIP3    H1 5952   4.505   3.705   5.140 -1.5902 -1.4313  0.0128
 1982TIP3    H2 5953   4.520   3.618   5.263  1.0919 -0.7939  0.2028
 1983TIP3   OH2 5954   4.606   0.784   1.492 -0.5572  0.3690 -0.6244
 1983TIP3    H1 5955   4.673   0.847   1.465  2.4900 -2.5478 -0.5758
 1983TIP3    H2 5956   4.582   0.811   1.580  1.4914  0.8962 -0.1788
 1984TIP3   OH2 5957   2.347   4.414   2.692 -0.2391 -0.1931 -0.2444
 1984TIP3    H1 5958   2.361   4.501   2.728  0.4152  0.1829 -1.3799
 1984TIP3    H2 5959   2.259   4.390   2.721 -0.1233  0.5006  0.7357
 1985TIP3   OH2 5960   2.690   5.705   1.512  0.9406  0.3400  0.1084
 1985TIP3    H1 5961   2.644   5.649   1.450 -2.3053  0.2030  2.3876
 1985TIP3    H2 5962   2.705   5.787   1.464  1.6785 -0.8780 -1.8531
 1986TIP3   OH2 5963   5.927   0.725   3.677  0.7500 -0.0682 -0.2362
 1986TIP3    H1 5964   5.913   0.813   3.712 -0.1095 -0.1691 -0.3179
 1986TIP3    H2 5965   5.871   0.668   3.730  2.1429 -0.7500  0.5715
 1987TIP3   OH2 5966   3.506   3.568   1.371 -0.2109  0.1219 -0.1336
 1987TIP3    H1 5967   3.582   3.589   1.425  1.1916 -0.2496 -1.8573
 1987TIP3    H2 5968   3.491   3.648   1.320 -1.8138  0.6362  1.0746
 1988TIP3   OH2 5969   1.542   1.714   4.785 -0.7684  0.5782 -0.1400
 1988TIP3    H1 5970   1.633   1.696   4.763 -0.9906  1.1313 -1.6361
 1988TIP3    H2 5971   1.493   1.687   4.707 -2.0434 -0.9699  1.1180
 1989TIP3   OH2 5972   2.239   5.821   1.071  0.1855  0.4968  0.1984
 1989TIP3    H1 5973   2.169   5.825   1.006  0.3952  0.8732 -0.0083
 1989TIP3    H2 5974   2.198   5.848   1.153  0.5318  2.7301 -0.2959
 1990TIP3   OH2 5975   1.783   0.064   0.215  0.2796  0.1845  0.0631
 1990TIP3    H1 5976   1.855   0.104   0.167  0.1876  0.1038 -0.1453
 1990TIP3    H2 5977   1.809  -0.028   0.224  0.6401  0.3520  0.8239
 1991TIP3   OH2 5978   0.272   2.633   2.415 -0.0572  0.5891 -0.3625
 1991TIP3    H1 5979   0.214   2.558   2.432  0.2784  0.4057 -0.0081
 1991TIP3    H2 5980   0.326   2.640   2.494  0.3147  0.8440 -0.6342
 1992TIP3   OH2 5981   4.958   0.929   0.789  0.2143  0.2483 -0.4632
 1992TIP3    H1 5982   4.891   0.977   0.740 -0.6392 -0.1130  0.3098
 1992TIP3    H2 5983   5.028   0.914   0.726 -1.4148 -1.4072 -2.0119
 1993TIP3   OH2 5984   5.171   5.680   2.580  0.1448 -0.4471  0.1123
 1993TIP3    H1 5985   5.141   5.753   2.526 -0.9307 -0.4395  0.6947
 1993TIP3    H2 5986   5.229   5.630   2.523  0.7891  0.7693 -0.3454
 1994TIP3   OH2 5987   5.254   2.845   0.545  0.0180  0.0809  0.3277
 1994TIP3    H1 5988   5.212   2.930   0.560 -0.0756 -0.2357  2.0499
 1994TIP3    H2 5989   5.187   2.781   0.566  0.3681 -0.4313 -0.1017
 1995TIP3   OH2 5990   3.135   1.075   1.285  0.2445  0.2007 -0.0511
 1995TIP3    H1 5991   3.140   1.156   1.234  0.7265 -0.6216 -1.3670
 1995TIP3    H2 5992   3.111   1.008   1.222  1.5950 -0.9936  0.6352
 1996TIP3   OH2 5993   5.400   0.277   0.356 -0.5074 -0.0231  0.2490
 1996TIP3    H1 5994   5.384   0.183   0.354 -1.3285  0.0955  0.6568
 1996TIP3    H2 5995   5.316   0.315   0.380 -0.5788  0.9251 -1.3295
 1997TIP3   OH2 5996   1.758   1.959   0.491  0.3156  0.0614  0.0539
 1997TIP3    H1 5997   1.809   1.902   0.549 -3.1876 -1.9369  1.5259
 1997TIP3    H2 5998   1.723   1.900   0.424  1.2956  1.6797 -1.9894
 1998TIP3   OH2 5999   5.522   2.543   0.616 -0.1090 -0.6990  0.2886
 1998TIP3    H1 6000   5.427   2.559   0.613  0.1416  0.6956 -0.7433
 1998TIP3    H2 6001   5.562   2.626   0.592  1.4142 -1.1269  1.2121
 1999TIP3   OH2 6002   1.685   0.251   4.353 -0.2879 -0.1776  0.0040
 1999TIP3    H1 6003   1.663   0.236   4.262  0.9987 -1.1266 -0.1835
 1999TIP3    H2 6004   1.759   0.313   4.350 -1.6681  1.5927  0.5280
 2000TIP3   OH2 6005   3.193   1.495   2.570  0.1424  0.7465 -0.1953
 2000TIP3    H1 6006   3.195   1.490   2.666 -0.9698  0.2954 -0.1850
 2000TIP3    H2 6007   3.169   1.585   2.551 -1.2002  0.4434 -0.0124
 2001TIP3   OH2 6008   3.428   2.479   2.807  0.0187 -0.6883  0.2875
 2001TIP3    H1 6009   3.477   2.509   2.884  0.4406 -0.2246 -0.1566
 2001TIP3    H2 6010   3.453   2.539   2.737  1.4919 -2.4697 -0.8333
 2002TIP3   OH2 6011   5.005   5.413   4.763 -0.6189  0.1489  0.0206
 2002TIP3    H1 6012   4.954   5.483   4.803 -1.3071 -0.6150  0.5089
 2002TIP3    H2 6013   5.069   5.459   4.707 -1.0047  1.1548  0.3795
 2003TIP3   OH2 6014   3.555   4.427   1.865  0.9141  0.3086  0.1642
 2003TIP3    H1 6015   3.612   4.446   1.790 -1.3517 -2.3426 -2.4748
 2003TIP3    H2 6016   3.591   4.346   1.903  0.5108  0.1707  0.2568
 2004TIP3   OH2 6017   5.420   4.958   0.245  0.4010 -0.1008 -0.8518
 2004TIP3    H1 6018   5.490   4.967   0.310 -0.6934  0.9146  0.2315
 2004TIP3    H2 6019   5.340   4.975   0.294 -0.6925 -1.8193 -1.9284
 2005TIP3   OH2 6020   0.283   3.967   3.348 -0.1910 -0.1217  0.3143
 2005TIP3    H1 6021   0.340   4.038   3.378  0.3053 -1.2998  2.3614
 2005TIP3    H2 6022   0.198   3.986   3.387 -0.6408  0.4356 -0.8875
 2006TIP3   OH2 6023   3.621   4.573   3.677 -0.6552  0.4029 -0.1509
 2006TIP3    H1 6024   3.612   4.491   3.629  0.7484 -0.6920  1.3613
 2006TIP3    H2 6025   3.647   4.637   3.611  0.6505 -0.9334 -0.9860
 2007TIP3   OH2 6026   3.682   0.251   1.350  0.2108  0.2917  0.2255
 2007TIP3    H1 6027   3.667   0.156   1.344  2.5752 -0.3636  2.7093
 2007TIP3    H2 6028   3.596   0.288   1.367 -1.0684 -1.1361 -2.5011
 2008TIP3   OH2 6029   1.011   0.494   1.918  0.1604  0.2472 -0.7584
 2008TIP3    H1 6030   0.920   0.524   1.910 -0.2859 -0.9400 -0.3115
 2008TIP3    H2 6031   1.007   0.401   1.897  1.0582 -0.0958  0.4989
 2009TIP3   OH2 6032   6.007   2.281   2.525  0.9184 -0.6561 -0.8270
 2009TIP3    H1 6033   6.061   2.244   2.455  1.1870 -1.0426 -0.4204
 2009TIP3    H2 6034   6.055   2.262   2.606  1.6392  1.5784 -0.6580
 2010TIP3   OH2 6035   0.907   1.735   3.180  0.7641 -0.2391  0.4764
 2010TIP3    H1 6036   0.913   1.803   3.247  2.8592  0.2065 -0.0725
 2010TIP3    H2 6037   0.834   1.762   3.124 -0.1379  0.0990  1.7878
 2011TIP3   OH2 6038   4.300   4.348   1.649 -0.2600 -0.3995  0.4054
 2011TIP3    H1 6039   4.339   4.278   1.597  1.8834  0.7077  0.3913
 2011TIP3    H2 6040   4.211   4.356   1.616  0.5909 -0.6468 -2.2190
 2012TIP3   OH2 6041   2.462   5.607   3.543 -0.0141  0.2513  0.6536
 2012TIP3    H1 6042   2.419   5.688   3.515  2.2090  1.9799  1.9811
 2012TIP3    H2 6043   2.499   5.571   3.462 -0.3914  0.9478  0.1566
 2013TIP3   OH2 6044   1.821   2.580   3.475 -1.0080  0.1335  0.3888
 2013TIP3    H1 6045   1.790   2.592   3.385  1.5194 -2.2214 -0.9654
 2013TIP3    H2 6046   1.780   2.498   3.503 -1.1213  0.4216  1.0725
 2014TIP3   OH2 6047   0.275   1.648   2.675  0.6647  0.3636  0.6533
 2014TIP3    H1 6048   0.331   1.650   2.598  0.1744 -1.1481  0.2079
 2014TIP3    H2 6049   0.326   1.600   2.741  1.3859  2.2813  1.5835
 2015TIP3   OH2 6050   0.261   4.413   2.366  0.0466 -0.2291  0.0387
 2015TIP3    H1 6051   0.201   4.396   2.294  1.1221 -2.1548 -0.4722
 2015TIP3    H2 6052   0.219   4.375   2.443  0.1888 -0.7504 -0.1399
 2016TIP3   OH2 6053   3.338   5.676   3.352 -0.3166 -0.2758 -0.0063
 2016TIP3    H1 6054   3.433   5.673   3.339 -0.3246 -2.3085  0.0933
 2016TIP3    H2 6055   3.322   5.763   3.388  1.2537  0.8382 -1.7978
 2017TIP3   OH2 6056   1.297   4.648   4.570  0.8167 -0.3073  0.3469
 2017TIP3    H1 6057   1.329   4.633   4.658 -0.3287  1.3843  1.1020
 2017TIP3    H2 6058   1.333   4.733   4.545 -2.2194  1.2896  0.9264
 2018TIP3   OH2 6059   2.434   0.638   1.496  0.2215  0.4698 -0.6350
 2018TIP3    H1 6060   2.339   0.633   1.484 -0.5858  0.7265  3.9065
 2018TIP3    H2 6061   2.462   0.707   1.436 -2.1282 -0.5480 -3.1489
 2019TIP3   OH2 6062   2.378   1.332   0.331  0.1984 -0.4034  0.0771
 2019TIP3    H1 6063   2.348   1.325   0.421 -2.0943  2.2354 -0.3212
 2019TIP3    H2 6064   2.369   1.244   0.294 -0.4021 -1.1572  1.9399
 2020TIP3   OH2 6065   5.413   1.491   1.674  0.3735 -0.1821  0.0684
 2020TIP3    H1 6066   5.504   1.462   1.668  0.5669  0.4679 -0.2053
 2020TIP3    H2 6067   5.413   1.579   1.636 -0.5476 -0.5543 -0.8704
 2021TIP3   OH2 6068   2.260   5.224   1.528 -0.4366 -0.3974  0.8195
 2021TIP3    H1 6069   2.325   5.264   1.586  1.8446 -0.6041 -1.3919
 2021TIP3    H2 6070   2.250   5.135   1.561  0.1122 -0.2295  1.4605
 2022TIP3   OH2 6071   1.947   5.043   2.075  0.2209  0.2178  0.3265
 2022TIP3    H1 6072   1.927   5.120   2.023  0.4663  0.9428  1.2785
 2022TIP3    H2 6073   2.041   5.050   2.093  0.5187 -0.9726 -0.6293
 2023TIP3   OH2 6074   5.899   2.837   3.655  0.2867 -0.7851  0.0371
 2023TIP3    H1 6075   5.838   2.763   3.658 -0.1200 -0.4375  0.4686
 2023TIP3    H2 6076   5.849   2.911   3.689  1.8253 -1.1145  3.4381
 2024TIP3   OH2 6077   3.288   4.566   0.716 -0.4293 -0.0589 -0.0562
 2024TIP3    H1 6078   3.315   4.551   0.807 -1.3418 -0.2404  0.1941
 2024TIP3    H2 6079   3.203   4.522   0.708  0.6715 -2.0490 -1.6512
 2025TIP3   OH2 6080   6.150   2.279   4.963  0.0039  0.2888 -0.4772
 2025TIP3    H1 6081   6.179   2.369   4.950  2.0847 -0.2421  0.1929
 2025TIP3    H2 6082   6.178   2.233   4.884 -0.7029  0.1100 -0.6385
 2026TIP3   OH2 6083   4.397   2.893   2.093  0.2295 -0.4784  0.2084
 2026TIP3    H1 6084   4.383   2.802   2.121 -2.4276 -0.1270  0.2834
 2026TIP3    H2 6085   4.397   2.888   1.997  2.6791 -0.8248  0.1678
 2027TIP3   OH2 6086   1.751   5.918   4.038 -0.4465  0.1504  0.0115
 2027TIP3    H1 6087   1.779   5.860   3.968 -3.6330  1.2066 -2.3762
 2027TIP3    H2 6088   1.719   5.860   4.107 -0.3319 -0.9151 -0.8203
 2028TIP3   OH2 6089   4.526   5.747   4.280 -0.0929  0.6228 -0.0063
 2028TIP3    H1 6090   4.497   5.835   4.254 -0.2521  0.6045  0.1099
 2028TIP3    H2 6091   4.592   5.724   4.215 -1.5341 -0.0278 -1.2891
 2029TIP3   OH2 6092   1.156   5.964   3.513 -0.5027  0.5250  0.2596
 2029TIP3    H1 6093   1.228   6.014   3.476  1.0499 -0.6645  1.5433
 2029TIP3    H2 6094   1.145   5.890   3.454  0.8821 -0.4933  1.2077
 2030TIP3   OH2 6095   3.452   0.416   2.333 -0.5637 -0.1198  0.1043
 2030TIP3    H1 6096   3.382   0.470   2.371 -1.2749 -0.8129 -0.1776
 2030TIP3    H2 6097   3.446   0.433   2.239 -1.2063 -1.1544 -0.0481
 2031TIP3   OH2 6098   1.192   0.759   1.643  0.4679 -0.2271  0.6143
 2031TIP3    H1 6099   1.195   0.746   1.738  1.2481  0.5939  0.7174
 2031TIP3    H2 6100   1.271   0.715   1.610 -0.1895 -1.1605  0.2478
 2032TIP3   OH2 6101   1.091   5.152   0.230  0.5787 -0.0879 -0.2213
 2032TIP3    H1 6102   1.182   5.136   0.255  0.6847  0.2113 -0.4150
 2032TIP3    H2 6103   1.097   5.199   0.147  0.2467  0.1313 -0.1207
 2033TIP3   OH2 6104   0.375   1.203   3.912  0.0783  0.5177 -0.0308
 2033TIP3    H1 6105   0.332   1.280   3.949 -0.4624  1.2783 -2.0937
 2033TIP3    H2 6106   0.414   1.159   3.987 -2.3019  1.0653  1.6598
 2034TIP3   OH2 6107   1.225   3.698   4.590 -0.5263 -0.0515  0.7990
 2034TIP3    H1 6108   1.281   3.717   4.665 -0.4339  0.4293  0.6103
 2034TIP3    H2 6109   1.156   3.764   4.593 -1.2048 -0.7598  1.1441
 2035TIP3   OH2 6110   3.285   3.130   1.871 -0.1866 -0.4141  0.3679
 2035TIP3    H1 6111   3.215   3.189   1.845  0.9773  3.0490  4.1120
 2035TIP3    H2 6112   3.243   3.065   1.927 -0.8288 -0.1291  0.2184
 2036TIP3   OH2 6113   4.667   3.017   0.937  0.2556 -0.1215  0.1833
 2036TIP3    H1 6114   4.685   2.923   0.939 -0.1929 -0.1936  0.8661
 2036TIP3    H2 6115   4.607   3.032   1.010  0.8657  0.8137  0.5072
 2037TIP3   OH2 6116   3.741   1.145   4.944  0.0019  0.5930  0.2670
 2037TIP3    H1 6117   3.691   1.067   4.920 -0.8653  1.0597  0.5218
 2037TIP3    H2 6118   3.832   1.118   4.935 -0.2796  0.0532 -1.2857
 2038TIP3   OH2 6119   5.996   5.760   1.922  0.3471  0.5639 -0.7234
 2038TIP3    H1 6120   6.043   5.720   1.995  1.5816  0.0222 -1.7540
 2038TIP3    H2 6121   5.986   5.852   1.946  1.7200  0.6313 -0.3348
 2039TIP3   OH2 6122   6.144   5.658   4.886  0.3632  0.2051  0.2702
 2039TIP3    H1 6123   6.071   5.621   4.836  0.2147  1.1047 -0.1953
 2039TIP3    H2 6124   6.121   5.750   4.898  1.5450  0.5757 -0.1480
 2040TIP3   OH2 6125   0.210   5.140   2.757 -0.3811  0.3313  0.5146
 2040TIP3    H1 6126   0.285   5.082   2.772 -0.9470 -0.4219  0.4951
 2040TIP3    H2 6127   0.205   5.148   2.662 -0.0858  0.7139  0.5276
 2041TIP3   OH2 6128   0.481   2.798   5.156  0.0673  0.0294  0.2934
 2041TIP3    H1 6129   0.506   2.832   5.070  0.5037 -1.5588 -0.2356
 2041TIP3    H2 6130   0.494   2.872   5.215  3.5118  0.1330 -0.3881
 2042TIP3   OH2 6131   2.380   1.387   4.850  0.2655  0.2603 -0.2378
 2042TIP3    H1 6132   2.303   1.417   4.803  0.8943  1.0602 -0.7701
 2042TIP3    H2 6133   2.419   1.321   4.792 -0.1365 -0.3267  0.1414
 2043TIP3   OH2 6134   4.742   4.910   4.954 -0.2372  0.6876  0.0573
 2043TIP3    H1 6135   4.829   4.941   4.980  0.1300 -0.8689  0.8037
 2043TIP3    H2 6136   4.708   4.866   5.032 -1.1350  0.1089 -0.6379
 2044TIP3   OH2 6137   1.836   4.766   1.638  0.3070 -0.1762 -0.0592
 2044TIP3    H1 6138   1.854   4.694   1.700  2.0352 -0.3219 -0.6736
 2044TIP3    H2 6139   1.876   4.842   1.679 -0.7987  0.2861  0.1909
 2045TIP3   OH2 6140   2.872   4.948   3.177 -0.8287  0.0462  0.1900
 2045TIP3    H1 6141   2.874   5.011   3.105  1.3762 -1.8205 -1.5689
 2045TIP3    H2 6142   2.927   4.988   3.244 -0.4340  0.5450 -0.4092
 2046TIP3   OH2 6143   1.118   2.002   2.195 -0.0171  0.0666 -0.0495
 2046TIP3    H1 6144   1.207   2.013   2.229 -0.2757  1.0153  0.3353
 2046TIP3    H2 6145   1.069   1.966   2.268 -0.1968  0.5562  0.0701
 2047TIP3   OH2 6146   5.777   1.395   1.320 -0.5888 -0.8090  0.0809
 2047TIP3    H1 6147   5.796   1.445   1.400 -0.2537  0.0903 -0.5405
 2047TIP3    H2 6148   5.779   1.303   1.348 -0.1772 -0.5212  1.0473
 2048TIP3   OH2 6149   0.349   4.888   3.588 -0.3157 -0.1486  0.3746
 2048TIP3    H1 6150   0.303   4.877   3.672  0.1827 -1.3012  0.5124
 2048TIP3    H2 6151   0.280   4.904   3.525 -0.9930 -2.1683  0.5232
 2049TIP3   OH2 6152   1.104   4.406   1.684  0.1127  0.7548  0.3213
 2049TIP3    H1 6153   1.134   4.430   1.597 -0.5590  0.5146  0.0181
 2049TIP3    H2 6154   1.168   4.342   1.715 -0.4243 -0.2299 -0.5656
 2050TIP3   OH2 6155   5.021   1.969   2.543  0.0070  0.1478 -0.3941
 2050TIP3    H1 6156   5.078   1.923   2.605  1.4623  1.2084 -0.8989
 2050TIP3    H2 6157   4.948   2.001   2.597  1.9672  2.3485  1.1818
 2051TIP3   OH2 6158   4.502   3.046   0.614 -0.3774  0.0853  0.1911
 2051TIP3    H1 6159   4.577   3.016   0.666 -0.9927  0.8129  1.5389
 2051TIP3    H2 6160   4.438   2.974   0.621 -0.2217 -0.0787 -0.0684
 2052TIP3   OH2 6161   2.329   2.165   4.206  0.5172 -0.1544  0.0460
 2052TIP3    H1 6162   2.277   2.241   4.230  0.7912  0.2393 -0.5753
 2052TIP3    H2 6163   2.299   2.143   4.117 -0.3964 -1.5032  0.6480
 2053TIP3   OH2 6164   3.668   4.495   1.407  0.4163  0.6664  0.5593
 2053TIP3    H1 6165   3.697   4.405   1.387  1.8638  1.3210 -0.4299
 2053TIP3    H2 6166   3.608   4.517   1.336  0.7557  0.7878  0.3066
 2054TIP3   OH2 6167   6.359   4.055   2.484  0.1665  0.4839  0.4917
 2054TIP3    H1 6168   6.393   4.034   2.397 -0.1254 -0.9962  0.7027
 2054TIP3    H2 6169   6.268   4.082   2.469  0.2489  0.6593  0.3032
 2055TIP3   OH2 6170   0.364   3.236   2.833  0.1019  0.0965  0.5492
 2055TIP3    H1 6171   0.274   3.243   2.800  0.1666 -0.0424  0.3403
 2055TIP3    H2 6172   0.365   3.152   2.879  0.5758 -0.7341 -0.8896
 2056TIP3   OH2 6173   0.983   2.380   0.883 -0.2049 -0.2018  0.0890
 2056TIP3    H1 6174   0.978   2.450   0.948  1.3703 -1.4076  1.6002
 2056TIP3    H2 6175   0.983   2.425   0.798 -2.7857  1.4036  0.8228
 2057TIP3   OH2 6176   1.426   3.084   4.703 -0.3363 -0.1632 -0.1980
 2057TIP3    H1 6177   1.334   3.060   4.714 -0.5662  0.8757  0.3285
 2057TIP3    H2 6178   1.473   3.025   4.761 -0.5182 -1.6043 -1.4678
 2058TIP3   OH2 6179   2.380   1.957   0.978 -0.3357  0.1253 -0.4710
 2058TIP3    H1 6180   2.360   1.880   0.924  0.8155 -1.0761  0.7317
 2058TIP3    H2 6181   2.344   1.936   1.064  1.7970 -0.0607  0.4536
 2059TIP3   OH2 6182   0.931   3.323   4.421  0.1870 -0.2508  0.7051
 2059TIP3    H1 6183   0.973   3.345   4.504 -0.8874 -2.0233  1.7876
 2059TIP3    H2 6184   0.954   3.231   4.407  1.8976  0.4638 -1.9856
 2060TIP3   OH2 6185   2.896   1.635   0.855 -0.1075  0.0483 -0.4739
 2060TIP3    H1 6186   2.910   1.717   0.903  1.8874 -0.8081  0.5436
 2060TIP3    H2 6187   2.952   1.643   0.778  1.1047 -0.8081  0.2774
 2061TIP3   OH2 6188   5.164   1.704   3.461  0.6679  0.4150 -0.0655
 2061TIP3    H1 6189   5.138   1.747   3.379 -0.8574  0.8475  0.6075
 2061TIP3    H2 6190   5.094   1.639   3.477  0.9751  0.2946  0.8549
 2062TIP3   OH2 6191   2.105   1.143   0.804  0.0870 -0.3085 -0.4693
 2062TIP3    H1 6192   2.195   1.166   0.781 -0.5348  2.0096 -0.9262
 2062TIP3    H2 6193   2.088   1.062   0.758  1.3880  0.1525 -1.8409
 2063TIP3   OH2 6194   4.315   5.930   1.904 -0.0693 -0.2638  0.3580
 2063TIP3    H1 6195   4.221   5.949   1.903 -0.5251 -2.2243 -0.0827
 2063TIP3    H2 6196   4.350   5.975   1.827 -0.8818 -0.4514 -0.1359
 2064TIP3   OH2 6197   2.532   4.011   1.972 -0.4707  0.0288  0.0918
 2064TIP3    H1 6198   2.444   4.032   2.004 -0.1981  1.1775  0.1247
 2064TIP3    H2 6199   2.522   4.007   1.877 -0.6806 -0.4661  0.1312
 2065TIP3   OH2 6200   3.673   5.966   5.038  0.1036  0.3811  0.5193
 2065TIP3    H1 6201   3.632   5.915   4.968  2.1579  0.2007 -0.6377
 2065TIP3    H2 6202   3.652   5.918   5.118  0.8061 -1.5425 -0.3837
 2066TIP3   OH2 6203   1.170   1.880   1.967 -0.0051 -0.8114 -0.0020
 2066TIP3    H1 6204   1.265   1.882   1.956 -0.0636 -0.0516 -0.4175
 2066TIP3    H2 6205   1.155   1.931   2.047 -0.2545  1.5272 -1.4654
 2067TIP3   OH2 6206   0.255   4.260   1.606 -0.3745  0.2840  0.0117
 2067TIP3    H1 6207   0.224   4.318   1.536 -0.1039  1.2678  0.6753
 2067TIP3    H2 6208   0.338   4.299   1.634 -0.4430 -0.1354  0.8321
 2068TIP3   OH2 6209   4.679   2.556   5.018  0.4453  0.4265  0.3160
 2068TIP3    H1 6210   4.694   2.498   5.092  0.1685  0.0124  0.0506
 2068TIP3    H2 6211   4.766   2.579   4.986  0.6038 -2.0553 -1.3031
 2069TIP3   OH2 6212   3.505   3.944   4.385 -0.0695 -0.0677 -0.0742
 2069TIP3    H1 6213   3.556   4.001   4.443 -1.6291  2.2467 -0.8451
 2069TIP3    H2 6214   3.571   3.896   4.334  1.3917  2.5334 -0.7988
 2070TIP3   OH2 6215   2.505   5.060   1.125 -0.4259  0.5077 -0.5150
 2070TIP3    H1 6216   2.451   4.985   1.098  0.8980 -0.3332 -0.9003
 2070TIP3    H2 6217   2.491   5.125   1.057 -0.0479 -0.1593 -1.2390
 2071TIP3   OH2 6218   1.882   1.886   1.633 -0.0624 -0.1102 -0.1821
 2071TIP3    H1 6219   1.923   1.849   1.554  0.0528 -0.0394 -0.1545
 2071TIP3    H2 6220   1.954   1.924   1.682 -0.1664  0.0454 -0.1503
 2072TIP3   OH2 6221   2.085   0.897   3.320  0.4698  0.1077  0.0919
 2072TIP3    H1 6222   2.038   0.852   3.391  0.4573 -1.8295 -1.0697
 2072TIP3    H2 6223   2.021   0.904   3.249  0.9521  0.5586 -0.3063
 2073TIP3   OH2 6224   1.920   0.825   2.823  0.1471 -0.5621 -0.6423
 2073TIP3    H1 6225   1.849   0.867   2.774  0.4684 -1.1252 -1.6094
 2073TIP3    H2 6226   1.988   0.809   2.758  2.2260  2.1646  0.6887
 2074TIP3   OH2 6227   0.667   2.824   1.835  0.0972 -1.0011  0.3058
 2074TIP3    H1 6228   0.725   2.899   1.825 -0.6589 -0.4588 -0.1332
 2074TIP3    H2 6229   0.642   2.826   1.928 -0.1765 -0.5086  0.2251
 2075TIP3   OH2 6230   0.101   5.923   0.490 -0.1425 -0.4998 -0.3159
 2075TIP3    H1 6231   0.092   5.829   0.502  1.2314 -0.6402 -0.2037
 2075TIP3    H2 6232   0.190   5.942   0.518 -0.8928  1.0962  1.1926
 2076TIP3   OH2 6233   4.485   4.679   5.118  0.0833 -0.3144 -0.1910
 2076TIP3    H1 6234   4.493   4.604   5.177  1.7914 -1.3574 -1.6300
 2076TIP3    H2 6235   4.558   4.736   5.141  0.1911 -0.2576 -0.6710
 2077TIP3   OH2 6236   4.834   3.687   1.937  0.0995  0.3071  0.3899
 2077TIP3    H1 6237   4.867   3.726   2.018 -0.5260  1.1453  0.2595
 2077TIP3    H2 6238   4.847   3.755   1.871 -1.4728  0.5320  0.2603
 2078TIP3   OH2 6239   2.322   0.435   3.797  0.3000 -0.0309 -0.3450
 2078TIP3    H1 6240   2.315   0.526   3.769  0.4628  0.4964  1.1992
 2078TIP3    H2 6241   2.268   0.386   3.735 -0.9684  1.3154 -0.3631
 2079TIP3   OH2 6242   3.798   1.968   2.121  0.5233 -0.6170 -0.5493
 2079TIP3    H1 6243   3.796   1.996   2.029 -1.8099  2.3601  0.2457
 2079TIP3    H2 6244   3.884   1.994   2.152  0.5116  0.4714 -1.3618
 2080TIP3   OH2 6245   4.516   3.841   1.647  0.1254  0.2916  0.4935
 2080TIP3    H1 6246   4.478   3.928   1.638  0.7972  0.7067  1.5420
 2080TIP3    H2 6247   4.456   3.795   1.706 -0.5586 -0.1809 -0.5318
 2081TIP3   OH2 6248   5.681   4.871   3.798  0.4952 -0.0074  0.0937
 2081TIP3    H1 6249   5.763   4.839   3.835  0.2742  1.1926  1.7417
 2081TIP3    H2 6250   5.613   4.837   3.856 -0.1358 -0.4551 -0.8817
 2082TIP3   OH2 6251   1.214   5.964   0.774 -0.2624  0.2399 -0.6361
 2082TIP3    H1 6252   1.285   5.931   0.830 -1.5689 -1.8740 -0.0883
 2082TIP3    H2 6253   1.145   5.898   0.783 -2.8406  2.8384 -0.1142
 2083TIP3   OH2 6254   2.583   2.188   3.497  0.3463 -0.0133  0.0470
 2083TIP3    H1 6255   2.655   2.126   3.497 -0.4048 -0.9020 -0.0289
 2083TIP3    H2 6256   2.505   2.135   3.514 -0.4148  0.7667 -0.9025
 2084TIP3   OH2 6257   3.153   2.247   1.922 -0.1217  0.0158  0.7150
 2084TIP3    H1 6258   3.178   2.291   2.003 -0.2043  0.3103  0.5837
 2084TIP3    H2 6259   3.166   2.154   1.939 -0.3776  0.0604  1.1473
 2085TIP3   OH2 6260   3.778   0.193   0.848 -0.2289  0.0507  0.3457
 2085TIP3    H1 6261   3.768   0.256   0.776 -2.0358 -0.1056  0.4065
 2085TIP3    H2 6262   3.742   0.239   0.924 -0.3673 -0.5970  0.6692
 2086TIP3   OH2 6263   2.279   4.941   4.147 -0.0908  0.1030 -0.2958
 2086TIP3    H1 6264   2.263   4.933   4.053  0.7100  0.3591 -0.4633
 2086TIP3    H2 6265   2.352   5.002   4.153 -0.3871  0.3921  0.5174
 2087TIP3   OH2 6266   6.205   3.555   3.669 -0.3156 -0.0873 -0.1823
 2087TIP3    H1 6267   6.210   3.642   3.630  1.4211  0.2986  0.8253
 2087TIP3    H2 6268   6.215   3.495   3.594  0.2185  0.5963 -0.6724
 2088TIP3   OH2 6269   5.283   0.351   3.315 -0.3445  0.4071  0.3309
 2088TIP3    H1 6270   5.251   0.263   3.331  2.1585 -1.2220 -2.6480
 2088TIP3    H2 6271   5.211   0.408   3.342 -2.6762 -2.5562  0.8710
 2089TIP3   OH2 6272   4.259   1.738   2.909  0.2865  0.0225  0.1422
 2089TIP3    H1 6273   4.181   1.764   2.860  0.4452  1.0284  0.4098
 2089TIP3    H2 6274   4.264   1.801   2.981  2.4741  1.2243 -0.9939
 2090TIP3   OH2 6275   3.304   3.356   3.706 -0.1179  1.0363 -0.5257
 2090TIP3    H1 6276   3.246   3.283   3.684  0.4206 -0.1171  1.5499
 2090TIP3    H2 6277   3.375   3.350   3.643  1.0684 -1.7060  0.9097
 2091TIP3   OH2 6278   1.898   5.488   0.907  0.2844 -0.6784 -0.1333
 2091TIP3    H1 6279   1.836   5.454   0.843 -0.1833  1.4555 -0.9071
 2091TIP3    H2 6280   1.886   5.432   0.984 -0.4530 -2.1506 -1.2636
 2092TIP3   OH2 6281   2.191   5.169   2.938 -0.1592  0.0897 -0.2505
 2092TIP3    H1 6282   2.133   5.119   2.880  1.4502 -1.7426 -0.3934
 2092TIP3    H2 6283   2.164   5.144   3.026 -1.0994  1.0900 -0.2362
 2093TIP3   OH2 6284   0.371   5.393   1.378  0.1365  0.1705  0.4931
 2093TIP3    H1 6285   0.287   5.348   1.382  0.8642 -1.1610  2.1261
 2093TIP3    H2 6286   0.430   5.339   1.432  1.7878  1.5652  0.1738
 2094TIP3   OH2 6287   5.684   1.944   2.687 -0.4659 -0.2420 -0.2454
 2094TIP3    H1 6288   5.644   2.019   2.730  0.1980 -0.4918  0.8304
 2094TIP3    H2 6289   5.663   1.956   2.594  0.4088  1.7651 -0.2285
 2095TIP3   OH2 6290   1.492   1.728   0.493 -0.3359  0.4710 -0.1944
 2095TIP3    H1 6291   1.545   1.730   0.413 -0.3344 -1.1338 -0.2575
 2095TIP3    H2 6292   1.506   1.814   0.533 -0.0825  1.1778 -1.7445
 2096TIP3   OH2 6293   5.852   5.077   2.780 -0.2516 -0.3046 -0.4310
 2096TIP3    H1 6294   5.832   5.017   2.853  1.1765 -1.5097 -0.9719
 2096TIP3    H2 6295   5.927   5.037   2.737 -0.6620  0.7371 -2.1872
 2097TIP3   OH2 6296   5.255   1.643   1.423  0.4123  0.0715  0.5110
 2097TIP3    H1 6297   5.319   1.704   1.460  0.0024  0.9053 -0.1119
 2097TIP3    H2 6298   5.189   1.632   1.491 -0.9134  2.4513 -0.2587
 2098TIP3   OH2 6299   4.997   0.566   0.020  0.0107 -0.6307 -0.2584
 2098TIP3    H1 6300   5.014   0.472   0.011  0.3205 -0.4696 -1.5135
 2098TIP3    H2 6301   5.082   0.607   0.005  0.2469 -0.2086  1.9949
 2099TIP3   OH2 6302   5.755   5.714   3.859 -0.3793 -0.3703 -0.1594
 2099TIP3    H1 6303   5.790   5.628   3.885  0.9179 -0.2608 -1.4237
 2099TIP3    H2 6304   5.833   5.766   3.841 -1.1652  0.0074 -2.7922
 2100TIP3   OH2 6305   0.667   2.119   3.174  0.0372  0.2786 -0.1717
 2100TIP3    H1 6306   0.677   2.135   3.268 -0.5758  0.6672 -0.1742
 2100TIP3    H2 6307   0.644   2.204   3.137 -0.1237  0.0423 -0.6197
 2101TIP3   OH2 6308   1.097   5.746   3.293 -0.2153 -0.5891  0.3038
 2101TIP3    H1 6309   1.067   5.663   3.329 -0.1647 -0.5102  0.5274
 2101TIP3    H2 6310   1.023   5.805   3.301  0.2422 -0.1618  1.6064
 2102TIP3   OH2 6311   3.652   1.117   1.446  1.1612  0.4370 -0.5924
 2102TIP3    H1 6312   3.726   1.064   1.417  0.8532 -1.3881  1.7013
 2102TIP3    H2 6313   3.591   1.116   1.372  1.4197 -1.9982 -0.8551
 2103TIP3   OH2 6314   4.450   0.224   1.851  0.3805  0.1619 -0.5113
 2103TIP3    H1 6315   4.470   0.131   1.843 -1.8457 -0.4023 -0.1003
 2103TIP3    H2 6316   4.450   0.241   1.945  1.8043  0.8666 -0.6075
 2104TIP3   OH2 6317   1.734   4.524   3.108 -0.3016  0.4404 -0.7457
 2104TIP3    H1 6318   1.682   4.506   3.186  0.2914  0.8606 -0.2399
 2104TIP3    H2 6319   1.675   4.571   3.049 -0.6074  0.5757 -0.3344
 2105TIP3   OH2 6320   3.967   5.309   0.219 -0.3295  0.3938  0.2911
 2105TIP3    H1 6321   4.035   5.316   0.151 -0.8788  0.3336 -0.2759
 2105TIP3    H2 6322   4.014   5.279   0.297  0.1530 -0.5115 -0.3352
 2106TIP3   OH2 6323   5.642   3.655   4.244  0.4262 -0.1303  0.1553
 2106TIP3    H1 6324   5.714   3.595   4.264 -1.2474 -2.2562  0.2490
 2106TIP3    H2 6325   5.564   3.600   4.251 -1.2861  2.2649  0.8781
 2107TIP3   OH2 6326   5.036   4.626   4.289 -0.0582  0.2375 -0.0740
 2107TIP3    H1 6327   5.126   4.621   4.324  0.4498  1.8437 -1.0712
 2107TIP3    H2 6328   5.018   4.719   4.283 -2.2211 -0.0530  1.0753
 2108TIP3   OH2 6329   1.675   1.796   1.303 -0.9208 -0.1478 -0.2178
 2108TIP3    H1 6330   1.735   1.835   1.240 -1.8656  0.0756 -1.0195
 2108TIP3    H2 6331   1.731   1.749   1.365  0.0871  0.4623 -0.6492
 2109TIP3   OH2 6332   3.082   0.603   0.984 -0.7152 -0.1726 -0.3123
 2109TIP3    H1 6333   3.081   0.641   0.897  0.7824 -1.5131 -0.9705
 2109TIP3    H2 6334   3.093   0.509   0.970  0.1774 -0.3603  1.3061
 2110TIP3   OH2 6335   0.003   5.467   2.154  0.6359 -0.3732 -0.0279
 2110TIP3    H1 6336   0.076   5.528   2.144 -0.0602  0.6578  0.9132
 2110TIP3    H2 6337   0.022   5.421   2.236 -0.0351  0.3288  0.5445
 2111TIP3   OH2 6338   4.850   5.982   5.171  0.5146 -0.4425 -0.3086
 2111TIP3    H1 6339   4.790   5.908   5.177  1.3390 -1.1620 -0.7034
 2111TIP3    H2 6340   4.850   6.006   5.078  1.0325 -0.6039 -0.3486
 2112TIP3   OH2 6341   5.882   4.787   0.346  0.1043 -0.0576 -0.3027
 2112TIP3    H1 6342   5.907   4.780   0.254 -0.7272  2.3770 -0.7936
 2112TIP3    H2 6343   5.912   4.874   0.372  1.3360 -1.1195  2.1068
 2113TIP3   OH2 6344   0.578   1.668   4.586 -0.0914 -0.2255  0.3998
 2113TIP3    H1 6345   0.615   1.608   4.650  2.0146 -2.3847 -2.5436
 2113TIP3    H2 6346   0.654   1.714   4.549 -1.4948  3.3195  1.4681
 2114TIP3   OH2 6347   6.264   1.519   1.162  0.1749 -0.0686  0.2298
 2114TIP3    H1 6348   6.197   1.520   1.093 -0.3730  1.8234  0.7440
 2114TIP3    H2 6349   6.347   1.514   1.115 -0.2613 -2.1750 -0.4246
 2115TIP3   OH2 6350   5.825   1.037   4.497  0.1023  1.0821  0.3737
 2115TIP3    H1 6351   5.916   1.035   4.469  0.4493  0.8690  1.4638
 2115TIP3    H2 6352   5.783   0.968   4.445  0.7467  0.6159  0.4579
 2116TIP3   OH2 6353   6.178   2.476   4.357 -0.4761 -0.7232  0.0899
 2116TIP3    H1 6354   6.232   2.445   4.429 -0.9790 -0.7691  0.4530
 2116TIP3    H2 6355   6.111   2.408   4.347 -0.6138 -0.5456 -0.1896
 2117TIP3   OH2 6356   2.481   0.013   3.113 -0.2755  0.6833 -0.5518
 2117TIP3    H1 6357   2.517  -0.024   3.033  0.4261 -0.5134  0.2961
 2117TIP3    H2 6358   2.547   0.076   3.143  0.2433 -0.0942 -0.0338
 2118TIP3   OH2 6359   1.976   0.046   1.027  0.0792 -0.0148  0.0864
 2118TIP3    H1 6360   2.012  -0.017   0.965 -1.1600  0.0453 -0.7323
 2118TIP3    H2 6361   2.030   0.124   1.017  0.4726 -0.3280 -0.2433
 2119TIP3   OH2 6362   2.798   0.508   0.489  0.1033  0.2038  0.1986
 2119TIP3    H1 6363   2.803   0.601   0.512 -2.3627  0.5070 -0.1848
 2119TIP3    H2 6364   2.863   0.497   0.419  2.0152  1.0794  1.7469
 2120TIP3   OH2 6365   6.261   2.097   0.948 -0.2034 -0.2755  0.5159
 2120TIP3    H1 6366   6.224   2.037   0.883 -2.6363 -0.3794  1.8506
 2120TIP3    H2 6367   6.235   2.184   0.918 -0.0937 -0.2051  0.6229
 2121TIP3   OH2 6368   4.742   0.227   1.038 -0.4668 -0.5650 -0.0218
 2121TIP3    H1 6369   4.814   0.288   1.052  0.3740 -1.5108 -0.0858
 2121TIP3    H2 6370   4.784   0.147   1.008 -1.5623 -1.1103 -0.1625
 2122TIP3   OH2 6371   1.639   1.964   4.177 -0.5729 -0.6788 -0.1053
 2122TIP3    H1 6372   1.692   1.941   4.101  1.2167 -0.9036  1.1517
 2122TIP3    H2 6373   1.656   2.057   4.191  0.6533 -1.0682  1.1450
 2123TIP3   OH2 6374   0.683   0.087   2.675  0.0280  0.6680 -0.4012
 2123TIP3    H1 6375   0.635   0.130   2.604 -1.2770 -2.0545 -1.3184
 2123TIP3    H2 6376   0.662  -0.006   2.665  0.4753  0.0520  3.0561
 2124TIP3   OH2 6377   1.947   1.806   5.144  0.1045  0.2570  0.0123
 2124TIP3    H1 6378   1.951   1.801   5.240  1.7929 -1.7059 -0.1010
 2124TIP3    H2 6379   1.915   1.720   5.117  1.1012  0.2488 -1.2295
 2125TIP3   OH2 6380   0.427   3.700   2.136  0.4125 -0.0014 -0.2496
 2125TIP3    H1 6381   0.400   3.710   2.045  0.8363 -3.3746 -0.8477
 2125TIP3    H2 6382   0.346   3.709   2.186  0.0592  1.1117 -0.9762
 2126TIP3   OH2 6383   3.712   1.274   3.756 -0.4233 -0.4283  0.0218
 2126TIP3    H1 6384   3.742   1.196   3.709  1.0196 -0.7192  1.3520
 2126TIP3    H2 6385   3.659   1.241   3.828  0.0633 -0.1854  0.4977
 2127TIP3   OH2 6386   1.004   5.544   3.623  0.5492  0.7796  0.5704
 2127TIP3    H1 6387   0.959   5.556   3.707 -1.7470  0.8089 -0.5788
 2127TIP3    H2 6388   1.017   5.449   3.617  0.3872  0.7401  0.7932
 2128TIP3   OH2 6389   3.212   3.426   0.400 -0.0891 -0.4352  0.0502
 2128TIP3    H1 6390   3.244   3.359   0.339 -0.6982  0.8464 -1.7531
 2128TIP3    H2 6391   3.291   3.471   0.429  0.1315 -0.1664 -0.9163
 2129TIP3   OH2 6392   3.209   5.547   4.283 -0.0492 -0.4778 -0.2381
 2129TIP3    H1 6393   3.161   5.626   4.256  0.4654  0.1364  0.6053
 2129TIP3    H2 6394   3.144   5.476   4.275 -1.5294  0.5083  2.0480
 2130TIP3   OH2 6395   3.700   3.348   2.608 -0.1139  0.1608 -0.9715
 2130TIP3    H1 6396   3.658   3.263   2.625 -0.2405  0.2491 -0.8359
 2130TIP3    H2 6397   3.676   3.369   2.518 -0.4189  0.2414 -0.8735
 2131TIP3   OH2 6398   0.475   2.548   0.831  0.3037  0.4061  0.2809
 2131TIP3    H1 6399   0.380   2.561   0.830 -0.0291 -1.6065  0.8641
 2131TIP3    H2 6400   0.505   2.589   0.750 -1.0907  0.9004 -0.0232
 2132TIP3   OH2 6401   4.010   1.803   1.962 -0.3359 -0.1649  0.6271
 2132TIP3    H1 6402   3.955   1.734   1.997 -0.3053 -1.9892 -2.6284
 2132TIP3    H2 6403   4.073   1.759   1.905 -0.1564  2.4795 -1.4465
 2133TIP3   OH2 6404   4.041   5.104   3.056  0.0742  0.2435 -0.4056
 2133TIP3    H1 6405   3.990   5.064   3.127  0.6574 -0.4229 -0.3465
 2133TIP3    H2 6406   3.976   5.147   3.001 -0.5758 -0.7080 -0.4083
 2134TIP3   OH2 6407   3.225   2.137   4.573  0.3037 -0.1136 -0.9881
 2134TIP3    H1 6408   3.195   2.047   4.566 -0.7360  0.1929 -0.6733
 2134TIP3    H2 6409   3.146   2.190   4.563  1.1206  0.8476 -2.9359
 2135TIP3   OH2 6410   2.311   0.309   2.783  0.8323  0.3798  0.7528
 2135TIP3    H1 6411   2.330   0.403   2.789 -0.1301  0.7176 -0.8247
 2135TIP3    H2 6412   2.251   0.302   2.708  0.6257 -1.4588  1.0577
 2136TIP3   OH2 6413   4.978   5.131   1.065 -0.3787  0.2533  0.0455
 2136TIP3    H1 6414   4.887   5.158   1.057 -0.7854 -0.7017  1.1622
 2136TIP3    H2 6415   4.983   5.049   1.016 -0.1678  0.1967  0.1577
 2137TIP3   OH2 6416   5.969   0.803   0.218  0.0430 -0.5746 -0.7914
 2137TIP3    H1 6417   6.028   0.855   0.165  1.7989 -1.5906  0.0847
 2137TIP3    H2 6418   6.000   0.815   0.308 -0.2729 -2.1241 -0.4433
 2138TIP3   OH2 6419   4.168   0.082   3.685  0.1772 -0.3558 -0.1028
 2138TIP3    H1 6420   4.102   0.151   3.679 -0.0665 -0.5821 -0.0409
 2138TIP3    H2 6421   4.202   0.073   3.596  2.4350  1.9994  0.4129
 2139TIP3   OH2 6422   5.828   1.010   0.404 -0.6629  0.2853  0.4484
 2139TIP3    H1 6423   5.814   0.938   0.341 -0.3895  0.4240  0.2279
 2139TIP3    H2 6424   5.887   1.070   0.359  0.5750 -0.2379  1.3249
 2140TIP3   OH2 6425   0.172   4.698   1.488 -0.2602  0.7544  0.3019
 2140TIP3    H1 6426   0.221   4.743   1.419 -1.2617 -0.2578 -1.1256
 2140TIP3    H2 6427   0.093   4.750   1.500  0.1378  1.1976  1.0557
 2141TIP3   OH2 6428   2.015   0.501   4.110  0.0489 -0.2163 -0.4895
 2141TIP3    H1 6429   2.018   0.560   4.034  0.1782 -2.8672 -2.6731
 2141TIP3    H2 6430   2.073   0.429   4.087  0.2573 -1.0584  2.2696
 2142TIP3   OH2 6431   0.671   0.368   1.914  0.1952 -0.9785 -0.7223
 2142TIP3    H1 6432   0.717   0.331   1.989 -2.0374 -0.8925  0.7856
 2142TIP3    H2 6433   0.600   0.306   1.897  0.5358 -0.9028 -2.7066
 2143TIP3   OH2 6434   0.888   1.529   0.234  0.5118 -0.1603 -0.0020
 2143TIP3    H1 6435   0.900   1.527   0.328 -0.6387  1.5138  0.2227
 2143TIP3    H2 6436   0.954   1.591   0.202  1.7412 -1.6579 -0.4885
 2144TIP3   OH2 6437   4.991   0.764   3.052  0.3321 -0.0842  0.4224
 2144TIP3    H1 6438   4.962   0.828   2.987 -0.9296 -0.5605  0.5050
 2144TIP3    H2 6439   4.935   0.780   3.128  1.4530  0.1264  1.2364
 2145TIP3   OH2 6440   5.381   0.963   1.533  0.0964 -0.4019 -0.0876
 2145TIP3    H1 6441   5.458   1.019   1.545  0.8811 -1.5365  0.4227
 2145TIP3    H2 6442   5.368   0.961   1.438  0.4768  0.0890 -0.1556
 2146TIP3   OH2 6443   1.801   3.142   1.613 -0.3128  0.1709 -0.1442
 2146TIP3    H1 6444   1.734   3.074   1.598  0.5408 -0.4794 -1.1535
 2146TIP3    H2 6445   1.807   3.187   1.529 -1.0453  1.6931  0.5894
 2147TIP3   OH2 6446   1.088   4.005   4.029  0.1464  0.3540  0.0893
 2147TIP3    H1 6447   1.004   3.963   4.008 -0.1938  1.6931 -1.4206
 2147TIP3    H2 6448   1.153   3.939   4.007 -0.4631 -1.1922  2.4605
 2148TIP3   OH2 6449   0.758   2.429   3.291 -0.2182  0.6859  0.6912
 2148TIP3    H1 6450   0.779   2.515   3.328  1.0620  0.5222  0.3613
 2148TIP3    H2 6451   0.666   2.415   3.315 -0.2283  1.8197  1.3778
 2149TIP3   OH2 6452   5.624   4.825   3.211 -0.2586  0.2528  0.6343
 2149TIP3    H1 6453   5.538   4.853   3.181 -0.9405 -0.8812  1.4338
 2149TIP3    H2 6454   5.613   4.811   3.305  0.3821 -1.2983  0.5112
 2150TIP3   OH2 6455   5.557   4.460   4.528  0.5249  0.1109 -0.0864
 2150TIP3    H1 6456   5.463   4.456   4.511  0.4681  0.4447  0.1528
 2150TIP3    H2 6457   5.586   4.539   4.483  0.6514  0.1367  0.0424
 2151TIP3   OH2 6458   5.929   1.577   2.438  0.3463 -0.3141 -0.1081
 2151TIP3    H1 6459   5.857   1.536   2.485 -1.8306  1.5637 -1.5761
 2151TIP3    H2 6460   6.002   1.515   2.445 -0.8642 -1.5409  2.8514
 2152TIP3   OH2 6461   4.897   2.842   5.125 -0.6035 -0.2634  0.1876
 2152TIP3    H1 6462   4.926   2.875   5.040  0.4858 -0.0024  0.6390
 2152TIP3    H2 6463   4.949   2.763   5.139  0.3171  0.4805  1.2303
 2153TIP3   OH2 6464   0.931   5.880   4.211 -0.1431  0.7816  0.3158
 2153TIP3    H1 6465   0.883   5.800   4.235  1.2410 -0.9131 -2.1874
 2153TIP3    H2 6466   0.920   5.937   4.287  0.4407 -2.5082  3.1282
 2154TIP3   OH2 6467   3.894   2.523   3.896  0.1815  0.4604 -0.2984
 2154TIP3    H1 6468   3.863   2.504   3.985 -2.5652  1.1206 -1.0241
 2154TIP3    H2 6469   3.986   2.547   3.907  0.6005 -1.7391  2.0474
 2155TIP3   OH2 6470   1.676   0.600   4.133 -0.1112  0.2839  0.1374
 2155TIP3    H1 6471   1.626   0.595   4.214  0.1358 -0.4137  0.2568
 2155TIP3    H2 6472   1.731   0.677   4.143 -1.5188  1.3794 -0.2181
 2156TIP3   OH2 6473   2.548   4.276   1.746  0.4019 -0.1900 -0.6401
 2156TIP3    H1 6474   2.504   4.355   1.778  1.4443  0.2592 -0.2714
 2156TIP3    H2 6475   2.621   4.309   1.694  0.9344 -0.9212 -0.3579
 2157TIP3   OH2 6476   3.568   4.336   3.520  0.2686  0.0903 -0.1797
 2157TIP3    H1 6477   3.488   4.284   3.514  1.3611 -1.9552  1.4461
 2157TIP3    H2 6478   3.602   4.339   3.431 -0.9017 -0.1650 -0.6526
 2158TIP3   OH2 6479   1.186   2.287   2.144 -0.6109  0.4795  0.6890
 2158TIP3    H1 6480   1.183   2.197   2.112  0.5018  0.0369  1.7762
 2158TIP3    H2 6481   1.097   2.305   2.173 -0.8480 -0.2539  0.4314
 2159TIP3   OH2 6482   3.452   4.373   4.062 -0.1509  0.0653  0.1593
 2159TIP3    H1 6483   3.459   4.467   4.045  1.1099 -0.0583 -0.1620
 2159TIP3    H2 6484   3.398   4.366   4.140  0.0485  1.0855  0.4038
 2160TIP3   OH2 6485   3.669   3.436   4.995 -0.3013 -0.3699 -0.3802
 2160TIP3    H1 6486   3.750   3.486   5.005 -0.9124  0.5464  0.1831
 2160TIP3    H2 6487   3.604   3.502   4.971 -1.1997 -0.8429  0.6845
 2161TIP3   OH2 6488   2.420   3.581   2.498 -0.3341  0.4719 -0.4171
 2161TIP3    H1 6489   2.436   3.622   2.413 -2.0935  0.0482 -0.9893
 2161TIP3    H2 6490   2.328   3.603   2.518 -0.1146  0.0979  1.1146
 2162TIP3   OH2 6491   4.567   5.684   1.941  0.5780 -0.3452  0.3457
 2162TIP3    H1 6492   4.482   5.671   1.984 -0.1816 -0.5092 -1.1489
 2162TIP3    H2 6493   4.619   5.609   1.970  0.0305 -0.5480  0.8378
 2163TIP3   OH2 6494   2.236   5.991   4.402  0.2585  0.3119 -0.4208
 2163TIP3    H1 6495   2.291   5.927   4.357  0.2930 -0.0038  0.0631
 2163TIP3    H2 6496   2.152   5.987   4.356  0.4257  0.2996 -0.7271
 2164TIP3   OH2 6497   2.610   2.259   5.118 -0.0513 -0.3451  0.7856
 2164TIP3    H1 6498   2.652   2.344   5.105 -1.2098  0.2852  1.0234
 2164TIP3    H2 6499   2.602   2.223   5.030  1.8106 -0.9199  0.8047
 2165TIP3   OH2 6500   5.837   1.149   2.085  0.3211  0.1185 -0.2204
 2165TIP3    H1 6501   5.749   1.135   2.052  0.0496  0.8914  0.1536
 2165TIP3    H2 6502   5.868   1.227   2.039 -0.3647  1.7144  1.8555
 2166TIP3   OH2 6503   0.050   4.044   3.496  0.1458 -0.9129 -0.2545
 2166TIP3    H1 6504   0.023   4.070   3.584  2.2033 -0.0803  0.1845
 2166TIP3    H2 6505   0.006   3.960   3.481 -3.0563  0.5507  0.1108
 2167TIP3   OH2 6506   3.193   1.087   0.230 -0.1085 -0.3318 -0.9747
 2167TIP3    H1 6507   3.191   1.136   0.148  1.4156  0.6123 -0.4795
 2167TIP3    H2 6508   3.282   1.097   0.262 -0.0979 -2.4039 -0.2015
 2168TIP3   OH2 6509   5.186   0.749   3.968 -0.4829 -0.5224 -0.4417
 2168TIP3    H1 6510   5.229   0.749   4.053 -2.0449  0.6329  0.4144
 2168TIP3    H2 6511   5.170   0.656   3.949 -0.1535 -0.7939  0.5421
 2169TIP3   OH2 6512   0.935   4.976   4.184 -0.0300  0.2685 -0.6448
 2169TIP3    H1 6513   0.948   5.067   4.209  1.1664  0.6085 -2.3246
 2169TIP3    H2 6514   0.844   4.972   4.155 -0.0406  0.9736 -0.7272
 2170TIP3   OH2 6515   3.956   2.632   1.748 -0.3679 -0.0736  0.4158
 2170TIP3    H1 6516   3.915   2.719   1.749 -1.5527 -0.6074  0.0887
 2170TIP3    H2 6517   3.897   2.577   1.799  0.2543 -0.7429  0.4261
 2171TIP3   OH2 6518   1.010   3.060   4.319  0.1349  0.2671  0.2268
 2171TIP3    H1 6519   0.950   2.987   4.335  0.8937 -0.2762  0.6647
 2171TIP3    H2 6520   1.079   3.049   4.385  1.9502 -0.4561 -1.6770
 2172TIP3   OH2 6521   4.387   5.430   3.649  0.3936  0.2777  0.5072
 2172TIP3    H1 6522   4.449   5.360   3.671  1.0242  0.8064  0.4333
 2172TIP3    H2 6523   4.305   5.403   3.690  0.5321 -0.6839  0.1770
 2173TIP3   OH2 6524   5.724   4.279   2.259  0.4172  0.4901 -0.3070
 2173TIP3    H1 6525   5.703   4.371   2.275 -3.7913 -0.2628 -0.2368
 2173TIP3    H2 6526   5.701   4.265   2.168  1.1679 -0.4648 -0.3538
 2174TIP3   OH2 6527   1.666   2.437   4.564  0.0166 -0.0013 -0.1930
 2174TIP3    H1 6528   1.643   2.515   4.614  1.3390 -0.0681  0.5624
 2174TIP3    H2 6529   1.602   2.434   4.493 -1.4210  0.5399  1.0204
 2175TIP3   OH2 6530   5.596   5.872   3.039 -0.2234 -0.3684 -0.3931
 2175TIP3    H1 6531   5.518   5.836   3.083  1.1487  0.8005  3.3769
 2175TIP3    H2 6532   5.662   5.803   3.050  1.2712  1.3780  3.3232
 2176TIP3   OH2 6533   1.887   2.532   4.664 -0.1768 -0.0202  0.8762
 2176TIP3    H1 6534   1.947   2.478   4.613  1.1650  1.7307  0.4967
 2176TIP3    H2 6535   1.803   2.487   4.659  0.2730 -0.7050 -1.5875
 2177TIP3   OH2 6536   1.641   1.424   4.857 -0.4415  0.0853  0.5399
 2177TIP3    H1 6537   1.647   1.448   4.765  0.4734 -0.1386  0.5309
 2177TIP3    H2 6538   1.662   1.331   4.860 -1.1181 -0.0615  0.9030
 2178TIP3   OH2 6539   2.498   0.949   3.119  0.4733  0.2347  0.3810
 2178TIP3    H1 6540   2.546   1.031   3.131  0.1596  0.4230  0.3608
 2178TIP3    H2 6541   2.476   0.948   3.026  0.4240  0.1565  0.3939
 2179TIP3   OH2 6542   4.913   0.714   1.999  0.3593  0.2138 -0.3089
 2179TIP3    H1 6543   4.917   0.667   1.916  1.0191 -0.6023  0.1732
 2179TIP3    H2 6544   5.004   0.736   2.019  0.4842 -1.3697  1.1665
 2180TIP3   OH2 6545   2.680   4.106   3.233 -0.0901 -0.0453 -0.2497
 2180TIP3    H1 6546   2.637   4.074   3.312  1.2408  0.3342  0.6704
 2180TIP3    H2 6547   2.643   4.194   3.220 -0.9307 -0.4386 -0.5486
 2181TIP3   OH2 6548   5.714   1.807   3.491 -0.9335  0.0473 -0.1050
 2181TIP3    H1 6549   5.805   1.799   3.463 -1.0106  0.1269 -0.3713
 2181TIP3    H2 6550   5.665   1.830   3.412 -1.3753 -1.2546 -0.2445
 2182TIP3   OH2 6551   6.197   3.528   1.658 -0.4555  0.2101 -0.6118
 2182TIP3    H1 6552   6.166   3.512   1.747 -0.5492  1.0620 -0.4824
 2182TIP3    H2 6553   6.122   3.509   1.602 -0.2139 -0.9375 -0.5732
 2183TIP3   OH2 6554   5.855   0.646   2.518 -0.5890  0.2250 -0.0969
 2183TIP3    H1 6555   5.803   0.726   2.525 -0.0138  0.5275  1.1492
 2183TIP3    H2 6556   5.803   0.579   2.562 -0.6500  0.1536 -0.2818
 2184TIP3   OH2 6557   0.928   4.090   1.557  0.0425 -0.5663 -0.5179
 2184TIP3    H1 6558   0.917   4.170   1.608  1.6727 -0.4045 -0.3512
 2184TIP3    H2 6559   0.907   4.116   1.467 -0.6397 -0.2703 -0.2759
 2185TIP3   OH2 6560   4.448   5.005   3.351 -0.7061  0.0348  0.4257
 2185TIP3    H1 6561   4.478   5.087   3.312  1.5051 -1.1931 -0.6328
 2185TIP3    H2 6562   4.501   4.995   3.430  0.3264 -1.1719 -0.3740
 2186TIP3   OH2 6563   4.768   4.115   0.125  0.2269 -0.2316  0.0421
 2186TIP3    H1 6564   4.739   4.205   0.134  0.5321 -0.0956 -0.2883
 2186TIP3    H2 6565   4.721   4.067   0.193 -0.1576  0.1217  0.0272
 2187TIP3   OH2 6566   4.927   1.188   1.627  0.4908  0.1574  0.1066
 2187TIP3    H1 6567   4.879   1.267   1.603 -0.7912 -0.4903  0.4481
 2187TIP3    H2 6568   4.875   1.149   1.698  0.9074 -1.1633 -0.2822
 2188TIP3   OH2 6569   3.350   4.654   1.827  0.5481  0.1394  0.3212
 2188TIP3    H1 6570   3.281   4.664   1.893  0.1650 -1.5623  0.2038
 2188TIP3    H2 6571   3.403   4.733   1.837 -0.5723  0.7978  1.3960
 2189TIP3   OH2 6572   1.021   4.379   2.987  0.1713  0.0563  0.5486
 2189TIP3    H1 6573   0.929   4.399   2.967  0.1012 -0.1867  0.6286
 2189TIP3    H2 6574   1.041   4.432   3.064 -0.4142 -1.1823  1.5934
 2190TIP3   OH2 6575   1.673   3.973   0.833 -0.5792 -0.9463  0.3776
 2190TIP3    H1 6576   1.694   4.021   0.913 -0.2002 -0.2720 -0.1147
 2190TIP3    H2 6577   1.596   4.018   0.797  1.4580  1.2583 -1.6226
 2191TIP3   OH2 6578   3.810   2.595   2.183 -0.0365 -0.5030  0.2655
 2191TIP3    H1 6579   3.715   2.585   2.187 -0.1390  0.0547 -0.6801
 2191TIP3    H2 6580   3.825   2.673   2.130  0.9361  0.0118  1.2371
 2192TIP3   OH2 6581   2.533   4.775   4.802  0.5189  0.0144 -0.2431
 2192TIP3    H1 6582   2.599   4.837   4.771  0.0006  0.2634 -0.8627
 2192TIP3    H2 6583   2.536   4.783   4.897  1.8744 -0.4947 -0.2202
 2193TIP3   OH2 6584   3.712   1.208   0.281  1.0929 -0.0111 -0.0482
 2193TIP3    H1 6585   3.708   1.129   0.228  0.2996  0.3354 -0.5185
 2193TIP3    H2 6586   3.751   1.180   0.364 -1.5089 -1.4264  0.7861
 2194TIP3   OH2 6587   1.822   4.918   3.689  0.8978 -0.3754 -0.0139
 2194TIP3    H1 6588   1.903   4.965   3.710  0.7367 -1.3155  3.2503
 2194TIP3    H2 6589   1.755   4.960   3.743  0.1425 -2.4053  0.6993
 2195TIP3   OH2 6590   3.694   1.184   4.202 -0.1881 -0.0385 -0.4140
 2195TIP3    H1 6591   3.761   1.116   4.206 -0.7766 -0.5978  0.3909
 2195TIP3    H2 6592   3.683   1.211   4.293 -2.7621 -1.6987 -0.1264
 2196TIP3   OH2 6593   3.677   2.909   2.800 -0.0412 -0.6443  0.2918
 2196TIP3    H1 6594   3.641   2.944   2.882 -0.7085 -1.0204  0.1641
 2196TIP3    H2 6595   3.771   2.924   2.807 -0.1445 -0.2465  0.9219
 2197TIP3   OH2 6596   2.598   0.482   1.734  1.3444 -0.3682 -0.3267
 2197TIP3    H1 6597   2.650   0.552   1.774 -0.6902  0.7988  0.4128
 2197TIP3    H2 6598   2.561   0.522   1.656 -0.4859 -0.2882  0.5241
 2198TIP3   OH2 6599   5.147   1.740   4.767  0.8449 -0.2261  0.6209
 2198TIP3    H1 6600   5.242   1.733   4.759  0.9167 -0.0430  1.2727
 2198TIP3    H2 6601   5.114   1.656   4.735  1.2842 -0.7062  1.4138
 2199TIP3   OH2 6602   5.781   2.299   1.044 -0.2497  0.0047  0.4794
 2199TIP3    H1 6603   5.690   2.327   1.052  0.3053  2.2372 -0.1880
 2199TIP3    H2 6604   5.798   2.249   1.124 -2.1098 -0.7030  0.4775
 2200TIP3   OH2 6605   0.727   2.916   2.534  0.3228 -0.3125  0.8100
 2200TIP3    H1 6606   0.811   2.954   2.510  0.1024 -0.6024 -0.5325
 2200TIP3    H2 6607   0.744   2.823   2.545  0.2552 -0.3123  0.9188
 2201TIP3   OH2 6608   5.976   2.768   0.399  0.4064 -0.0667  0.3254
 2201TIP3    H1 6609   5.888   2.730   0.391  0.3210 -0.2538  1.8509
 2201TIP3    H2 6610   6.021   2.742   0.318 -0.3060 -1.6694  0.4199
 2202TIP3   OH2 6611   2.908   2.035   1.926 -0.4370 -0.5712 -0.3453
 2202TIP3    H1 6612   2.850   1.982   1.872  0.7756 -0.8026 -1.4581
 2202TIP3    H2 6613   2.942   2.102   1.866 -0.0841 -0.0195  0.4546
 2203TIP3   OH2 6614   1.069   2.895   3.279 -0.1107  0.3113  1.0477
 2203TIP3    H1 6615   1.064   2.873   3.186 -0.1956 -0.6129  1.2620
 2203TIP3    H2 6616   1.050   2.989   3.282 -0.1899  0.3360  0.1435
 2204TIP3   OH2 6617   0.056   0.626   1.451 -0.3193  0.2651  0.0229
 2204TIP3    H1 6618   0.089   0.586   1.531  0.3401 -2.1321 -1.3500
 2204TIP3    H2 6619  -0.028   0.581   1.435 -0.5772  0.9106 -0.4770
 2205TIP3   OH2 6620   5.956   5.581   0.186 -0.4333 -0.2445  0.6122
 2205TIP3    H1 6621   6.040   5.537   0.197 -0.1784  0.0800 -0.0183
 2205TIP3    H2 6622   5.939   5.579   0.092 -0.6780  0.5152  0.6342
 2206TIP3   OH2 6623   4.721   2.657   1.297  0.7335 -0.8194 -0.1341
 2206TIP3    H1 6624   4.764   2.576   1.269  0.4521 -0.8409 -0.5220
 2206TIP3    H2 6625   4.717   2.711   1.218 -1.2079 -1.3874 -0.4895
 2207TIP3   OH2 6626   2.629   3.343   4.507  0.0438 -0.7039 -0.2368
 2207TIP3    H1 6627   2.556   3.293   4.544 -0.1624 -1.3689 -1.4859
 2207TIP3    H2 6628   2.682   3.277   4.461  0.0180  0.1369 -1.5278
 2208TIP3   OH2 6629   3.033   2.938   1.486 -0.3820 -0.2792 -0.2100
 2208TIP3    H1 6630   3.001   2.895   1.407  3.1575 -0.3105 -1.7837
 2208TIP3    H2 6631   3.039   3.031   1.462  0.5063 -0.2544  0.0761
 2209TIP3   OH2 6632   5.140   2.934   2.917 -0.2276 -0.2861 -0.3020
 2209TIP3    H1 6633   5.183   2.983   2.987  0.1360 -0.8073 -0.1591
 2209TIP3    H2 6634   5.047   2.935   2.940 -0.0385 -0.9880  0.5196
 2210TIP3   OH2 6635   2.562   5.462   4.609  0.3313 -0.2190 -0.0502
 2210TIP3    H1 6636   2.655   5.467   4.587  0.1962  0.8151 -0.4561
 2210TIP3    H2 6637   2.560   5.422   4.696  1.0711 -1.3494 -0.5161
 2211TIP3   OH2 6638   2.946   0.967   2.839 -0.2367 -0.1668  0.0400
 2211TIP3    H1 6639   2.946   0.874   2.862 -2.3294 -0.0864  0.5774
 2211TIP3    H2 6640   3.037   0.985   2.814  0.5959 -1.9599  1.4519
 2212TIP3   OH2 6641   1.261   1.775   1.498 -0.4844 -0.0917 -0.3260
 2212TIP3    H1 6642   1.258   1.842   1.566 -1.7785  0.3420 -0.7744
 2212TIP3    H2 6643   1.169   1.748   1.487 -0.2488 -0.4575 -1.5880
 2213TIP3   OH2 6644   2.818   4.064   2.830  0.4115 -0.5024  0.1244
 2213TIP3    H1 6645   2.886   4.119   2.791  0.5234 -0.8963 -0.2517
 2213TIP3    H2 6646   2.865   4.009   2.893  0.3899 -0.5545  0.0950
 2214TIP3   OH2 6647   3.816   3.602   3.124  0.2514  0.5733 -0.2777
 2214TIP3    H1 6648   3.748   3.669   3.117 -0.2978  0.0050 -0.4777
 2214TIP3    H2 6649   3.864   3.607   3.041 -0.2387  0.2454 -0.5863
 2215TIP3   OH2 6650   3.934   5.912   5.109 -0.1266 -0.3659 -0.0852
 2215TIP3    H1 6651   3.854   5.931   5.060 -0.2193 -0.1209  0.1577
 2215TIP3    H2 6652   3.909   5.844   5.171  0.1136 -1.0361 -0.7028
 2216TIP3   OH2 6653   4.952   0.758   5.198  0.0203 -0.4177 -0.3377
 2216TIP3    H1 6654   4.996   0.800   5.124 -0.0366  1.4630  0.6472
 2216TIP3    H2 6655   5.010   0.686   5.223 -0.6724 -2.0628 -3.0871
 2217TIP3   OH2 6656   5.111   3.397   0.460  0.2359  0.3128 -0.3177
 2217TIP3    H1 6657   5.029   3.378   0.506  0.1383 -0.0197 -0.6302
 2217TIP3    H2 6658   5.159   3.454   0.520  0.7830 -1.3455  0.9104
 2218TIP3   OH2 6659   1.671   2.369   2.639 -0.1585  0.2047  0.2490
 2218TIP3    H1 6660   1.635   2.312   2.707 -0.7923  1.5756  1.0844
 2218TIP3    H2 6661   1.744   2.414   2.681 -1.3993  2.0834  0.4788
 2219TIP3   OH2 6662   1.212   5.857   0.491 -0.5862  0.2464  0.2761
 2219TIP3    H1 6663   1.234   5.867   0.584 -1.9802 -1.1322  0.7966
 2219TIP3    H2 6664   1.123   5.891   0.483 -0.5605  0.1463 -0.5060
 2220TIP3   OH2 6665   0.421   3.401   1.321  0.0651 -0.0403 -0.4678
 2220TIP3    H1 6666   0.402   3.494   1.314 -1.5769 -0.3244 -0.2495
 2220TIP3    H2 6667   0.442   3.374   1.232  1.9545  0.7834 -0.3124
 2221TIP3   OH2 6668   4.206   0.289   2.917 -0.5590  0.3393  0.1088
 2221TIP3    H1 6669   4.236   0.321   2.832 -0.2863  1.8155  0.7294
 2221TIP3    H2 6670   4.170   0.202   2.898 -0.9305  0.8156 -1.5871
 2222TIP3   OH2 6671   1.098   0.707   3.530  0.3060 -0.1582  0.1606
 2222TIP3    H1 6672   1.055   0.789   3.504 -2.2384 -1.0698  1.1479
 2222TIP3    H2 6673   1.035   0.639   3.506  1.8702 -1.7454  0.3933
 2223TIP3   OH2 6674   4.936   3.053   2.592 -0.0350 -0.1187 -0.3097
 2223TIP3    H1 6675   4.890   3.129   2.627 -0.9098 -1.1636  0.9144
 2223TIP3    H2 6676   5.027   3.082   2.584 -0.4269  1.1783 -0.2785
 2224TIP3   OH2 6677   2.443   4.271   1.327  0.2479  0.4458 -0.0009
 2224TIP3    H1 6678   2.399   4.351   1.354  0.0026  0.6530 -0.9833
 2224TIP3    H2 6679   2.536   4.289   1.344  0.0719  0.4300  1.0197
 2225TIP3   OH2 6680   1.579   3.395   2.559 -0.7445  0.0705 -0.2530
 2225TIP3    H1 6681   1.578   3.490   2.565  0.7944  0.0644  0.6419
 2225TIP3    H2 6682   1.514   3.374   2.492 -1.1359  1.7333 -0.4293
 2226TIP3   OH2 6683   4.444   5.036   2.392  0.5906  0.0003 -0.0410
 2226TIP3    H1 6684   4.400   4.984   2.325 -1.2767  2.1505 -0.6011
 2226TIP3    H2 6685   4.534   5.003   2.393  0.1299 -1.5146 -2.0920
 2227TIP3   OH2 6686   4.536   5.416   4.419  0.0104  0.2532  0.0268
 2227TIP3    H1 6687   4.534   5.427   4.514  0.5305  2.0380 -0.1422
 2227TIP3    H2 6688   4.629   5.423   4.397  0.1652 -2.3420 -0.4215
 2228TIP3   OH2 6689   1.068   0.739   3.940  0.1362 -0.1330  0.9432
 2228TIP3    H1 6690   1.099   0.816   3.988  0.7848  0.8026 -0.9008
 2228TIP3    H2 6691   1.133   0.725   3.872 -0.7421 -1.4399  0.3239
 2229TIP3   OH2 6692   3.734   0.103   3.472 -0.0836 -0.0494  0.2629
 2229TIP3    H1 6693   3.765   0.179   3.423 -1.2410 -1.0289 -2.1023
 2229TIP3    H2 6694   3.751   0.028   3.415 -0.4997 -1.4023  1.8304
 2230TIP3   OH2 6695   3.196   2.816   0.766 -0.1026  0.4565  0.3228
 2230TIP3    H1 6696   3.176   2.837   0.675  0.2831 -2.4664 -0.5582
 2230TIP3    H2 6697   3.258   2.883   0.794  0.9066  0.6113 -2.0652
 2231TIP3   OH2 6698   0.280   1.861   3.675  0.1221  0.0584  0.1985
 2231TIP3    H1 6699   0.256   1.931   3.735  0.6907  1.0955 -0.7483
 2231TIP3    H2 6700   0.241   1.782   3.713 -1.2407  1.0097  0.8535
 2232TIP3   OH2 6701   1.302   3.151   0.198 -0.0106 -0.2657  0.2967
 2232TIP3    H1 6702   1.301   3.180   0.289  1.4593 -2.6269  1.1375
 2232TIP3    H2 6703   1.244   3.075   0.196 -0.4878  0.1063 -0.8944
 2233TIP3   OH2 6704   5.804   2.429   2.390  0.3982 -0.1568 -0.4241
 2233TIP3    H1 6705   5.883   2.392   2.427  0.7035 -3.3459 -3.6698
 2233TIP3    H2 6706   5.741   2.357   2.389 -1.5141  1.4096 -0.7335
 2234TIP3   OH2 6707   3.750   3.113   4.846 -0.0440 -0.1466 -0.0646
 2234TIP3    H1 6708   3.844   3.131   4.852 -0.0216 -0.1626 -0.3197
 2234TIP3    H2 6709   3.727   3.138   4.756 -0.0614 -1.1530 -0.3603
 2235TIP3   OH2 6710   2.840   5.626   0.320  0.3897  0.8712 -0.1944
 2235TIP3    H1 6711   2.885   5.707   0.346 -0.1205  0.6445  1.5145
 2235TIP3    H2 6712   2.748   5.643   0.338  0.2356  0.0485 -0.1716
 2236TIP3   OH2 6713   5.172   5.002   0.351  0.3324 -0.2227  0.0745
 2236TIP3    H1 6714   5.110   4.999   0.423  1.7429 -1.6280  1.3133
 2236TIP3    H2 6715   5.121   4.978   0.274 -1.3833  2.0946  0.3928
 2237TIP3   OH2 6716   2.936   0.166   4.094  0.4620  0.4801  0.1201
 2237TIP3    H1 6717   2.931   0.260   4.109  3.1324  0.9401 -1.1524
 2237TIP3    H2 6718   2.962   0.129   4.178 -1.3101  0.7487  0.8090
 2238TIP3   OH2 6719   1.634   3.963   3.915 -0.3357 -0.5740 -0.3738
 2238TIP3    H1 6720   1.623   4.059   3.917 -0.0539 -0.5419 -0.3687
 2238TIP3    H2 6721   1.585   3.935   3.837  1.4183 -0.1868 -1.6651
 2239TIP3   OH2 6722   2.421   5.739   0.153  0.4074 -0.0956 -0.1414
 2239TIP3    H1 6723   2.361   5.665   0.145  1.7383 -1.1458 -0.5184
 2239TIP3    H2 6724   2.461   5.747   0.067  0.3992  0.9797 -0.0601
 2240TIP3   OH2 6725   2.164   2.164   3.579  0.4130  0.1791 -0.0940
 2240TIP3    H1 6726   2.076   2.127   3.570  0.9687 -0.7952 -1.8879
 2240TIP3    H2 6727   2.161   2.245   3.528  0.1155  1.0664  1.2513
 2241TIP3   OH2 6728   2.841   3.104   4.414 -0.1742 -0.1533 -0.7904
 2241TIP3    H1 6729   2.844   3.190   4.373 -0.7284  0.4869  0.4771
 2241TIP3    H2 6730   2.897   3.112   4.492 -2.5253 -0.0206  0.9690
 2242TIP3   OH2 6731   5.791   4.934   4.687  0.0421 -0.5318  0.3999
 2242TIP3    H1 6732   5.785   4.986   4.608 -0.6215 -1.2666 -0.0507
 2242TIP3    H2 6733   5.719   4.870   4.680  0.9791 -1.6781  0.7877
 2243TIP3   OH2 6734   6.057   1.824   4.692  0.3901 -0.7221  0.1425
 2243TIP3    H1 6735   5.980   1.868   4.656  1.1883 -0.4423 -1.2868
 2243TIP3    H2 6736   6.127   1.844   4.630  2.1961  0.8850  2.5206
 2244TIP3   OH2 6737   0.683   0.349   2.505  0.3287 -0.0300 -0.1918
 2244TIP3    H1 6738   0.715   0.409   2.437 -0.1583 -1.5171 -1.8002
 2244TIP3    H2 6739   0.590   0.338   2.485  0.5437 -1.8252 -0.3692
 2245TIP3   OH2 6740   3.694   3.129   2.393 -0.5489 -0.3402 -0.3735
 2245TIP3    H1 6741   3.679   3.212   2.347 -0.6125 -0.5503 -0.7305
 2245TIP3    H2 6742   3.789   3.127   2.408 -0.5361 -0.2445 -0.4400
 2246TIP3   OH2 6743   2.202   5.286   4.754 -0.2764  0.0616  0.0060
 2246TIP3    H1 6744   2.240   5.311   4.670 -1.3939 -2.3897 -1.3321
 2246TIP3    H2 6745   2.211   5.191   4.757 -0.8228  0.0247  2.4056
 2247TIP3   OH2 6746   2.368   1.098   0.516  0.4221 -0.1702  0.0110
 2247TIP3    H1 6747   2.422   1.175   0.535 -0.6027  0.9283 -1.2958
 2247TIP3    H2 6748   2.430   1.032   0.484  1.2246  0.3765  0.4138
 2248TIP3   OH2 6749   4.080   2.033   2.065 -0.6387 -0.3376  0.0952
 2248TIP3    H1 6750   4.044   1.951   2.031 -0.0183 -1.0551  1.1082
 2248TIP3    H2 6751   4.160   2.007   2.109  0.1735  0.9894 -0.5519
 2249TIP3   OH2 6752   3.507   0.578   3.009  0.1167 -0.5007 -0.3006
 2249TIP3    H1 6753   3.455   0.639   3.062 -0.0727 -1.4647  0.6534
 2249TIP3    H2 6754   3.594   0.580   3.048 -0.1693 -1.6452  0.4453
 2250TIP3   OH2 6755   4.947   3.430   2.217  0.0812  0.1131 -0.5093
 2250TIP3    H1 6756   4.897   3.462   2.292 -0.3585 -1.2650 -0.1889
 2250TIP3    H2 6757   4.880   3.410   2.151  0.0552 -2.5604  0.2285
 2251TIP3   OH2 6758   2.619   3.863   2.820 -0.4555  0.9092 -0.3978
 2251TIP3    H1 6759   2.678   3.937   2.803  0.9228  0.0720  0.4890
 2251TIP3    H2 6760   2.615   3.817   2.737  0.1912  0.9616 -0.4663
 2252TIP3   OH2 6761   4.774   5.313   2.824 -0.2975  0.2037 -0.4299
 2252TIP3    H1 6762   4.843   5.270   2.874 -1.5571 -0.5887  0.6962
 2252TIP3    H2 6763   4.792   5.289   2.733  2.2537  1.9833 -0.4814
 2253TIP3   OH2 6764   6.178   4.599   1.750  0.4897  0.6252 -0.3896
 2253TIP3    H1 6765   6.262   4.636   1.722  1.3224 -0.9284 -0.0256
 2253TIP3    H2 6766   6.192   4.574   1.841  0.4004 -1.7800 -0.9809
 2254TIP3   OH2 6767   4.727   1.236   1.907 -0.6818  0.2509  0.0321
 2254TIP3    H1 6768   4.745   1.234   2.001  0.6702 -1.6097 -0.2062
 2254TIP3    H2 6769   4.783   1.305   1.873 -0.2579  0.1146  0.4452
 2255TIP3   OH2 6770   2.815   5.792   2.361 -0.0583 -0.2806  0.2639
 2255TIP3    H1 6771   2.876   5.848   2.312  0.1081  0.0819  0.8824
 2255TIP3    H2 6772   2.871   5.739   2.418 -0.3029 -0.1649  0.6117
 2256TIP3   OH2 6773   4.065   4.273   2.508  0.3839  0.3566 -0.1210
 2256TIP3    H1 6774   3.981   4.319   2.511  0.4859  0.5271  0.2248
 2256TIP3    H2 6775   4.069   4.225   2.591  0.7388  0.5537 -0.0193
 2257TIP3   OH2 6776   4.828   2.319   2.889 -0.7582  0.6258  0.3707
 2257TIP3    H1 6777   4.900   2.273   2.931  0.0231  0.4082 -1.1415
 2257TIP3    H2 6778   4.749   2.284   2.931 -0.0625 -0.2552  0.9699
 2258TIP3   OH2 6779   6.311   0.543   0.536 -0.2492  0.0360  0.2739
 2258TIP3    H1 6780   6.225   0.567   0.569 -0.3089  2.3538 -1.4021
 2258TIP3    H2 6781   6.361   0.522   0.615 -1.6225  1.0938  1.4893
 2259TIP3   OH2 6782   4.199   4.556   3.957  0.3338 -0.1802 -0.2130
 2259TIP3    H1 6783   4.124   4.515   3.915  1.2892 -0.8347 -1.3417
 2259TIP3    H2 6784   4.206   4.642   3.915 -1.0405  0.7821  1.4160
 2260TIP3   OH2 6785   1.667   5.390   2.031  0.3380 -0.1932  0.5039
 2260TIP3    H1 6786   1.702   5.316   2.081 -2.0419 -1.9901 -0.3189
 2260TIP3    H2 6787   1.618   5.441   2.095  1.4183  0.3505  0.9337
 2261TIP3   OH2 6788   5.664   1.243   2.503 -0.1664 -0.2672 -0.0282
 2261TIP3    H1 6789   5.616   1.264   2.583 -1.0092  1.3366 -0.9125
 2261TIP3    H2 6790   5.600   1.255   2.433  1.1727  0.7012 -1.1355
 2262TIP3   OH2 6791   0.077   3.441   4.977  0.0331  0.4440 -0.0966
 2262TIP3    H1 6792   0.082   3.465   4.885  0.3191  0.9308  0.0390
 2262TIP3    H2 6793   0.168   3.428   5.003  0.1847  2.6728  0.7102
 2263TIP3   OH2 6794   0.969   2.132   1.576 -0.0863  0.3065 -0.4926
 2263TIP3    H1 6795   0.990   2.166   1.663  1.8846 -1.2746 -0.2492
 2263TIP3    H2 6796   0.900   2.068   1.591  0.6716 -0.4062  0.0435
 2264TIP3   OH2 6797   3.372   2.910   1.395 -0.3302  0.5492 -0.4651
 2264TIP3    H1 6798   3.369   2.927   1.301  0.8862 -2.7059 -1.2274
 2264TIP3    H2 6799   3.288   2.869   1.414 -0.4734  0.9790 -0.1378
 2265TIP3   OH2 6800   1.899   2.247   4.211 -0.5827 -0.5325  0.2838
 2265TIP3    H1 6801   1.921   2.165   4.256 -0.9522 -1.4085 -1.0712
 2265TIP3    H2 6802   1.804   2.241   4.197 -0.2204 -1.1828 -2.2424
 2266TIP3   OH2 6803   0.860   0.892   4.017 -0.2174  0.7419  0.7013
 2266TIP3    H1 6804   0.873   0.803   3.983 -0.0317  1.0113  0.0611
 2266TIP3    H2 6805   0.900   0.949   3.951 -2.8446  1.4885 -0.3930
 2267TIP3   OH2 6806   5.728   0.715   2.085  0.0745 -0.2694  0.1001
 2267TIP3    H1 6807   5.707   0.632   2.043  1.1213 -0.7044  0.4038
 2267TIP3    H2 6808   5.815   0.702   2.123 -0.3655  0.4889  1.4284
 2268TIP3   OH2 6809   0.576   2.488   1.665 -0.3991 -0.5716 -0.2468
 2268TIP3    H1 6810   0.649   2.538   1.701 -0.3709 -1.0023  0.3013
 2268TIP3    H2 6811   0.611   2.400   1.652 -0.5908 -0.5784 -0.7459
 2269TIP3   OH2 6812   5.889   3.754   0.858  0.1719 -0.3800 -0.1253
 2269TIP3    H1 6813   5.940   3.713   0.787  0.2288 -0.1091 -0.2437
 2269TIP3    H2 6814   5.823   3.806   0.812  0.1334 -0.2990  0.0240
 2270TIP3   OH2 6815   0.428   0.411   3.934 -0.5971 -0.7172 -0.1928
 2270TIP3    H1 6816   0.417   0.494   3.888 -0.1778 -0.6982 -0.2584
 2270TIP3    H2 6817   0.369   0.418   4.010  0.7234  0.3760  0.7925
 2271TIP3   OH2 6818   0.539   2.640   0.074 -0.2941  0.1734 -0.1037
 2271TIP3    H1 6819   0.572   2.608  -0.010  1.7203  0.4041  0.5404
 2271TIP3    H2 6820   0.541   2.735   0.066  3.2339  0.3657  1.2551
 2272TIP3   OH2 6821   3.020   4.484   4.692  0.0828 -0.5740  0.7052
 2272TIP3    H1 6822   3.049   4.562   4.644  2.6463 -1.0448  1.3462
 2272TIP3    H2 6823   2.985   4.426   4.624 -1.2830  0.8592  0.1431
 2273TIP3   OH2 6824   3.229   5.520   0.880 -0.4251  0.2850 -0.0841
 2273TIP3    H1 6825   3.218   5.615   0.880 -2.3190  0.1087  1.0829
 2273TIP3    H2 6826   3.158   5.487   0.825 -0.4151 -0.4968  0.3560
 2274TIP3   OH2 6827   5.654   3.829   0.716 -0.1862  0.1247 -0.1603
 2274TIP3    H1 6828   5.650   3.891   0.789 -2.6195 -0.4737  0.3068
 2274TIP3    H2 6829   5.707   3.873   0.649  1.4046  1.0254  1.6151
 2275TIP3   OH2 6830   3.701   0.885   4.841 -0.0659 -0.1108  0.0172
 2275TIP3    H1 6831   3.783   0.840   4.861  0.0154 -0.2194 -0.5507
 2275TIP3    H2 6832   3.636   0.844   4.898  0.6832  1.5251  2.2046
 2276TIP3   OH2 6833   5.550   1.424   2.025 -0.0315  0.2200 -0.3270
 2276TIP3    H1 6834   5.559   1.360   1.955  0.4390  0.7920 -0.8042
 2276TIP3    H2 6835   5.634   1.422   2.070 -0.4251 -0.3398  0.3996
 2277TIP3   OH2 6836   0.733   4.394   5.202 -0.1710  0.5944  0.4983
 2277TIP3    H1 6837   0.818   4.404   5.245  0.4875 -0.7493 -0.4052
 2277TIP3    H2 6838   0.750   4.412   5.110 -0.3104 -1.8575 -0.0844
 2278TIP3   OH2 6839   2.403   4.517   0.700  0.9987  0.4255 -0.1067
 2278TIP3    H1 6840   2.444   4.489   0.619  3.1134  1.3878  0.5740
 2278TIP3    H2 6841   2.458   4.481   0.769  1.8933  3.3032  0.8146
 2279TIP3   OH2 6842   4.334   2.636   2.152 -0.1535  0.1302 -0.1801
 2279TIP3    H1 6843   4.248   2.612   2.118 -0.2652 -0.9282  0.7619
 2279TIP3    H2 6844   4.324   2.632   2.248  0.8452  0.3418 -0.0516
 2280TIP3   OH2 6845   4.136   4.074   3.914  0.0086  0.2647 -0.3010
 2280TIP3    H1 6846   4.170   4.123   3.989  2.9340 -1.0876 -0.5923
 2280TIP3    H2 6847   4.123   3.985   3.947 -2.6154  0.5036 -0.4649
 2281TIP3   OH2 6848   4.524   1.197   0.798 -0.0844 -0.0413 -0.2615
 2281TIP3    H1 6849   4.570   1.128   0.846 -0.0532 -0.4008 -0.8042
 2281TIP3    H2 6850   4.448   1.216   0.852 -0.0966 -0.5013 -0.1072
 2282TIP3   OH2 6851   2.199   3.665   3.772 -0.0250  0.0882 -0.6171
 2282TIP3    H1 6852   2.130   3.692   3.711  0.4019 -0.1616 -1.2262
 2282TIP3    H2 6853   2.188   3.722   3.848 -1.0015 -0.0599 -0.6364
 2283TIP3   OH2 6854   4.059   5.635   4.189 -0.0598 -0.0578  0.2348
 2283TIP3    H1 6855   4.125   5.579   4.147 -0.4869 -0.2998 -0.1211
 2283TIP3    H2 6856   3.988   5.641   4.125  0.0188  0.9779  0.2179
 2284TIP3   OH2 6857   0.918   4.250   2.727  0.7666  0.1670  0.2241
 2284TIP3    H1 6858   0.956   4.208   2.804 -0.7179  0.1579  0.9715
 2284TIP3    H2 6859   0.940   4.343   2.737  0.9406  0.1020  0.4407
 2285TIP3   OH2 6860   1.095   5.925   0.192 -0.6274  0.8395  0.1581
 2285TIP3    H1 6861   1.015   5.958   0.232 -0.3914  1.4674  0.1261
 2285TIP3    H2 6862   1.164   5.982   0.226 -0.4711  1.7247 -1.5139
 2286TIP3   OH2 6863   4.990   0.758   1.466 -0.2357  0.4689 -0.4747
 2286TIP3    H1 6864   4.982   0.785   1.557  1.2876  0.0239 -0.1960
 2286TIP3    H2 6865   5.039   0.676   1.468 -0.9598 -0.0293 -1.6338
 2287TIP3   OH2 6866   2.262   0.428   2.295 -0.3926  0.0114  0.1755
 2287TIP3    H1 6867   2.247   0.462   2.207 -2.2347 -1.5747 -0.1936
 2287TIP3    H2 6868   2.213   0.486   2.353 -1.3878 -0.4750 -0.1608
 2288TIP3   OH2 6869   2.569   0.737   1.117  0.5899  0.2988  0.1020
 2288TIP3    H1 6870   2.532   0.666   1.064  1.1356  1.7321 -2.4045
 2288TIP3    H2 6871   2.663   0.720   1.118  0.6537  0.6368  0.0192
 2289TIP3   OH2 6872   0.164   3.483   3.565 -0.4243 -0.0777 -0.1941
 2289TIP3    H1 6873   0.186   3.419   3.497 -3.0028  0.6754 -1.8905
 2289TIP3    H2 6874   0.080   3.520   3.537 -1.2395  0.8557  3.0348
 2290TIP3   OH2 6875   0.648   5.249   1.175  0.5037 -0.3978 -0.5499
 2290TIP3    H1 6876   0.696   5.323   1.138  1.4870 -0.6048  0.2732
 2290TIP3    H2 6877   0.699   5.223   1.251 -0.0707 -1.6467 -0.5690
 2291TIP3   OH2 6878   4.206   2.892   3.207  0.6233 -0.5030 -0.1303
 2291TIP3    H1 6879   4.266   2.967   3.206  0.1284 -0.0010  2.2386
 2291TIP3    H2 6880   4.121   2.930   3.186  0.2976 -0.2799  1.4910
 2292TIP3   OH2 6881   3.109   2.416   2.682 -0.4497 -0.3089 -0.5579
 2292TIP3    H1 6882   3.186   2.382   2.637 -0.9459 -0.4862 -1.2915
 2292TIP3    H2 6883   3.072   2.480   2.621 -1.1250 -0.5431 -0.4023
 2293TIP3   OH2 6884   6.255   3.744   1.072 -0.1143  0.0636 -0.4746
 2293TIP3    H1 6885   6.332   3.724   1.017  0.9411  1.1043  0.5610
 2293TIP3    H2 6886   6.292   3.760   1.159 -1.7297 -1.3636  0.5464
 2294TIP3   OH2 6887   0.740   5.700   3.143  0.2306  0.0028  0.3707
 2294TIP3    H1 6888   0.727   5.772   3.082  1.5848 -0.5202 -0.5871
 2294TIP3    H2 6889   0.771   5.742   3.223 -2.9212  0.8375  1.2857
 2295TIP3   OH2 6890   0.196   0.552   3.467 -0.1811 -0.2704  0.6771
 2295TIP3    H1 6891   0.209   0.563   3.373  0.7796  1.0435  0.9285
 2295TIP3    H2 6892   0.274   0.591   3.506 -1.0984  0.2641  2.0538
 2296TIP3   OH2 6893   4.474  -0.014   3.778 -0.0506  0.2313  0.4183
 2296TIP3    H1 6894   4.405   0.035   3.733 -0.9037 -0.1979  1.2234
 2296TIP3    H2 6895   4.554   0.007   3.730 -0.8954 -0.0657 -1.1923
 2297TIP3   OH2 6896   2.544   0.191   1.434 -0.1048 -0.2690  0.2857
 2297TIP3    H1 6897   2.560   0.279   1.399  0.2718 -1.0441 -1.6384
 2297TIP3    H2 6898   2.462   0.199   1.482 -0.0731  1.1438  0.1485
 2298TIP3   OH2 6899   1.832   4.616   0.111  0.2871 -0.4956 -0.1834
 2298TIP3    H1 6900   1.804   4.525   0.114 -0.1417 -0.3381  1.4660
 2298TIP3    H2 6901   1.884   4.628   0.190  1.4106  0.3824 -1.0133
 2299TIP3   OH2 6902   5.457   5.066   3.550  0.1375 -0.0147  0.2859
 2299TIP3    H1 6903   5.371   5.025   3.542 -0.2423  0.9318 -0.6859
 2299TIP3    H2 6904   5.462   5.093   3.642 -0.2342 -0.8450  0.5581
 2300TIP3   OH2 6905   1.177   5.710   4.356  0.5558 -0.1596 -0.3760
 2300TIP3    H1 6906   1.196   5.732   4.447  0.4571 -0.1433 -0.3596
 2300TIP3    H2 6907   1.262   5.714   4.312  0.7385 -0.9467 -0.1180
 2301TIP3   OH2 6908   4.517   5.216   1.314  0.1280  0.2738 -0.4559
 2301TIP3    H1 6909   4.525   5.275   1.239  2.3261 -0.0498 -0.5489
 2301TIP3    H2 6910   4.487   5.272   1.386  0.0889  1.0471 -1.0685
 2302TIP3   OH2 6911   3.302   1.243   3.109 -0.2886  0.2897  0.1108
 2302TIP3    H1 6912   3.263   1.164   3.072 -0.1816 -0.1088  0.8381
 2302TIP3    H2 6913   3.387   1.251   3.067 -0.8662  0.8045 -1.0048
 2303TIP3   OH2 6914   2.848   1.336   1.256 -0.2886 -0.3737 -0.2832
 2303TIP3    H1 6915   2.811   1.282   1.326  1.3798 -1.5205 -0.2242
 2303TIP3    H2 6916   2.920   1.384   1.298 -0.8030  0.7838 -0.6818
 2304TIP3   OH2 6917   3.234   4.702   0.423 -0.0232 -0.0929  0.2226
 2304TIP3    H1 6918   3.204   4.711   0.333 -0.0309 -0.0920  0.2252
 2304TIP3    H2 6919   3.157   4.720   0.476  0.5360  2.4837  0.2985
 2305TIP3   OH2 6920   2.948   5.281   2.736 -0.1907 -0.1451  0.1794
 2305TIP3    H1 6921   2.946   5.369   2.775 -0.0532  1.8897 -3.9439
 2305TIP3    H2 6922   2.860   5.269   2.699 -0.0943 -1.6401  0.3670
 2306TIP3   OH2 6923   5.090   0.066   3.090 -0.3237 -0.4946 -0.2061
 2306TIP3    H1 6924   5.123  -0.024   3.085  0.1990 -0.3140 -0.0598
 2306TIP3    H2 6925   5.047   0.072   3.175  3.0580  0.5068  1.6193
 2307TIP3   OH2 6926   5.659   2.289   1.746 -0.3022  0.3420  0.0243
 2307TIP3    H1 6927   5.703   2.205   1.734  1.1435  1.1329 -0.5549
 2307TIP3    H2 6928   5.601   2.297   1.670 -2.0929 -1.0392  1.1661
 2308TIP3   OH2 6929   4.031   0.098   5.090 -0.4306 -0.1661 -0.4947
 2308TIP3    H1 6930   4.066   0.023   5.138  0.9903  0.8923  0.2262
 2308TIP3    H2 6931   4.108   0.140   5.052 -1.2371  0.7108 -1.2174
 2309TIP3   OH2 6932   3.085   3.299   1.826 -0.2420 -0.3407 -0.5516
 2309TIP3    H1 6933   3.100   3.393   1.835 -0.8744 -0.4280  1.9724
 2309TIP3    H2 6934   2.992   3.291   1.805 -0.0261 -0.3934 -1.5258
 2310TIP3   OH2 6935   4.722   3.311   4.502  0.2368  0.2418  0.7844
 2310TIP3    H1 6936   4.721   3.219   4.473  0.5608  0.3958  0.2626
 2310TIP3    H2 6937   4.795   3.315   4.564  2.4057  0.8338 -1.6326
 2311TIP3   OH2 6938   3.086   5.393   1.114 -0.3346 -0.0285 -0.4023
 2311TIP3    H1 6939   3.125   5.459   1.056  0.0886  0.1223  0.0454
 2311TIP3    H2 6940   3.149   5.322   1.115 -0.0449  0.2289  0.3500
 2312TIP3   OH2 6941   2.927   3.237   2.095 -0.4056 -0.0185  0.4825
 2312TIP3    H1 6942   2.884   3.278   2.020 -1.3880 -0.9664  0.5079
 2312TIP3    H2 6943   2.871   3.259   2.169  0.0036  0.0346  0.7806
 2313TIP3   OH2 6944   5.534   5.143   1.827 -0.7217 -0.1207  0.3054
 2313TIP3    H1 6945   5.614   5.161   1.877 -0.7488  0.3487  0.1823
 2313TIP3    H2 6946   5.475   5.101   1.891  0.3058 -2.2759 -0.0853
 2314TIP3   OH2 6947   3.942   0.941   5.183  0.2014  0.1398  0.2846
 2314TIP3    H1 6948   4.000   0.903   5.249  0.1111 -1.2582 -0.4004
 2314TIP3    H2 6949   3.984   0.920   5.099  0.7726  2.6360 -0.1295
 2315TIP3   OH2 6950   3.554   3.492   2.833  0.9198  0.3495  0.4989
 2315TIP3    H1 6951   3.546   3.581   2.799  2.5367  0.6334  0.7967
 2315TIP3    H2 6952   3.617   3.499   2.905  1.4245 -1.0965  0.2356
 2316TIP3   OH2 6953   1.770   4.268   3.867  0.1419 -0.6735 -0.0033
 2316TIP3    H1 6954   1.847   4.225   3.905  0.9796  1.8016  1.2983
 2316TIP3    H2 6955   1.718   4.295   3.942  1.3480  3.4628 -0.4319
 2317TIP3   OH2 6956   4.249   3.318   5.005  0.3556  0.3723 -0.1335
 2317TIP3    H1 6957   4.196   3.292   5.079  0.0604  0.2942 -0.3696
 2317TIP3    H2 6958   4.215   3.267   4.932  1.2486 -0.2485 -0.1334
 2318TIP3   OH2 6959   5.173   2.777   4.761  0.7209  0.6495  0.1659
 2318TIP3    H1 6960   5.173   2.704   4.822  0.4964  0.6555  0.1749
 2318TIP3    H2 6961   5.105   2.836   4.793 -0.6272 -0.1702 -1.0547
 2319TIP3   OH2 6962   0.955   1.966   3.328  0.2421 -0.0842  0.1764
 2319TIP3    H1 6963   1.045   1.936   3.344  0.7085  0.8264 -0.6796
 2319TIP3    H2 6964   0.957   2.060   3.345 -0.8625 -0.2380  1.3799
 2320TIP3   OH2 6965   4.493   3.619   2.349 -0.6111 -0.0311  0.0152
 2320TIP3    H1 6966   4.490   3.675   2.427  0.6371  3.0300 -1.9599
 2320TIP3    H2 6967   4.419   3.649   2.296 -0.0778 -0.4514 -0.9858
 2321TIP3   OH2 6968   2.640   4.556   0.208 -0.0691 -0.2363  0.0323
 2321TIP3    H1 6969   2.688   4.555   0.291  1.2376  1.1717 -0.6564
 2321TIP3    H2 6970   2.577   4.627   0.218 -0.3680 -0.5010  0.0468
 2322TIP3   OH2 6971   4.763   3.743   5.011 -0.1315  0.4209  0.6267
 2322TIP3    H1 6972   4.724   3.692   5.083  0.4088  0.4804  0.9702
 2322TIP3    H2 6973   4.841   3.782   5.050  0.8185 -0.4992 -0.3211
 2323TIP3   OH2 6974   0.916   2.637   2.214 -0.2895 -0.2956  0.1390
 2323TIP3    H1 6975   0.833   2.685   2.217 -1.5324 -2.1505 -1.5856
 2323TIP3    H2 6976   0.981   2.698   2.249 -2.4707  0.9581  2.2331
 2324TIP3   OH2 6977   3.942   1.855   3.306 -0.0915 -0.1933 -0.2683
 2324TIP3    H1 6978   3.903   1.820   3.386 -0.7869  0.6488 -0.2238
 2324TIP3    H2 6979   3.901   1.941   3.295 -0.1861 -0.3962 -1.6618
 2325TIP3   OH2 6980   3.758   3.859   0.252 -0.6775  0.2390  0.0097
 2325TIP3    H1 6981   3.757   3.763   0.251 -0.5178  0.2312  0.2825
 2325TIP3    H2 6982   3.690   3.883   0.314  0.7515  0.2336  1.6776
 2326TIP3   OH2 6983   2.104   1.595   0.176  0.4741  0.0690 -0.2770
 2326TIP3    H1 6984   2.090   1.680   0.218  1.1192  0.1303 -0.1687
 2326TIP3    H2 6985   2.021   1.576   0.132  0.5932  1.1695 -1.0340
 2327TIP3   OH2 6986   5.420   4.114   4.094 -0.0937 -0.2580 -0.1576
 2327TIP3    H1 6987   5.359   4.047   4.062 -1.4191  1.5810 -1.6639
 2327TIP3    H2 6988   5.446   4.162   4.016  1.4831  0.4903  0.7835
 2328TIP3   OH2 6989   1.590   3.976   0.400 -0.5033 -0.4438  0.2544
 2328TIP3    H1 6990   1.548   4.049   0.354  1.1586 -0.5545 -1.5234
 2328TIP3    H2 6991   1.642   4.019   0.469  2.0251  0.3670 -1.9702
 2329TIP3   OH2 6992   1.914   2.640   2.355  0.4271  0.2595  0.0114
 2329TIP3    H1 6993   1.919   2.544   2.356 -0.1064  0.2084 -1.2968
 2329TIP3    H2 6994   1.995   2.667   2.311  0.5442  0.4245  0.3209
 2330TIP3   OH2 6995   3.252   2.280   3.263 -0.1232 -0.2416  0.2104
 2330TIP3    H1 6996   3.197   2.358   3.257  1.5216  0.9917  0.4574
 2330TIP3    H2 6997   3.334   2.311   3.300  0.9016 -1.9325 -0.4969
 2331TIP3   OH2 6998   5.052   1.335   3.272  0.2247  0.2247  0.3599
 2331TIP3    H1 6999   5.041   1.389   3.351 -0.1768  1.1334 -0.3026
 2331TIP3    H2 7000   4.997   1.258   3.288  0.8977 -0.0655  1.3697
 2332TIP3   OH2 7001   5.738   3.572   3.860 -0.3786  0.1107  0.2509
 2332TIP3    H1 7002   5.818   3.541   3.903  1.1550 -2.7664 -4.0336
 2332TIP3    H2 7003   5.753   3.666   3.847  1.7460 -0.1269  0.6653
 2333TIP3   OH2 7004   3.928   0.456   4.709  0.2633 -0.0624  0.1514
 2333TIP3    H1 7005   3.859   0.403   4.669 -2.0417  2.3560  0.6502
 2333TIP3    H2 7006   3.910   0.452   4.803  1.5230 -0.2699  0.4055
 2334TIP3   OH2 7007   6.329   4.631   5.112  0.1398 -0.7535 -0.3170
 2334TIP3    H1 7008   6.330   4.722   5.144 -1.9203 -0.4070 -1.0792
 2334TIP3    H2 7009   6.256   4.591   5.159 -0.6684 -1.2335 -1.9175
 2335TIP3   OH2 7010   4.807   1.641   4.836 -0.2430 -0.5795  1.0644
 2335TIP3    H1 7011   4.757   1.685   4.767  0.1727 -0.7337  0.6590
 2335TIP3    H2 7012   4.757   1.657   4.916 -1.2026 -1.1401  0.5951
 2336TIP3   OH2 7013   4.887   5.080   4.027  0.2066 -0.1853 -0.2511
 2336TIP3    H1 7014   4.935   5.122   4.097  1.1165  0.2823 -1.1374
 2336TIP3    H2 7015   4.950   5.020   3.986 -0.7072 -1.5196  0.2036
 2337TIP3   OH2 7016   2.604   1.128   0.837 -0.2869 -0.4599  0.3887
 2337TIP3    H1 7017   2.556   1.045   0.833 -1.5775  0.2983 -0.7335
 2337TIP3    H2 7018   2.677   1.117   0.776  0.0891 -1.0710  0.9308
 2338TIP3   OH2 7019   1.670   0.790   3.786  0.0636 -0.1163 -0.6408
 2338TIP3    H1 7020   1.693   0.853   3.717  1.8336  1.1224  0.9595
 2338TIP3    H2 7021   1.628   0.843   3.854  1.3015 -0.6742  0.6147
 2339TIP3   OH2 7022   0.895   4.784   2.733 -0.2708 -0.4460 -0.1306
 2339TIP3    H1 7023   0.944   4.862   2.706 -2.1859  0.5840 -0.8020
 2339TIP3    H2 7024   0.919   4.772   2.825 -0.2843  1.2422  0.1294
 2340TIP3   OH2 7025   1.632   4.330   2.754  0.4389  0.4134 -0.4004
 2340TIP3    H1 7026   1.669   4.321   2.667 -0.3961 -1.3053 -0.6246
 2340TIP3    H2 7027   1.546   4.369   2.740 -0.8106 -2.2202 -0.7082
 2341TIP3   OH2 7028   1.246   0.278   3.581  0.7795 -0.0995 -0.3967
 2341TIP3    H1 7029   1.247   0.182   3.578  1.3214 -0.1617  1.0276
 2341TIP3    H2 7030   1.180   0.300   3.646  1.4144  0.4479  0.0781
 2342TIP3   OH2 7031   2.775   4.790   2.096  0.2773 -0.0228  0.1606
 2342TIP3    H1 7032   2.744   4.881   2.101 -1.3567 -0.4428 -1.1934
 2342TIP3    H2 7033   2.728   4.753   2.021  0.8026 -2.0240  0.7516
 2343TIP3   OH2 7034   0.087   3.356   1.136  0.6658  0.3837 -0.2325
 2343TIP3    H1 7035   0.146   3.338   1.064  1.3797  1.6821 -0.0083
 2343TIP3    H2 7036   0.134   3.419   1.191 -0.2358  0.1416  0.8651
 2344TIP3   OH2 7037   3.121   4.308   2.128 -0.2620 -0.5184 -0.2470
 2344TIP3    H1 7038   3.133   4.374   2.060  2.2489  0.9834  1.4490
 2344TIP3    H2 7039   3.187   4.241   2.108  0.8049  0.1574  0.8757
 2345TIP3   OH2 7040   2.734   4.986   0.898  0.5747 -0.3194 -0.1875
 2345TIP3    H1 7041   2.735   4.977   0.803  0.6265 -0.0534 -0.2114
 2345TIP3    H2 7042   2.670   5.056   0.915 -0.3089 -1.1521  0.0362
 2346TIP3   OH2 7043   5.218   2.198   3.500  0.0099 -0.0673  0.3865
 2346TIP3    H1 7044   5.285   2.188   3.568  1.1697 -0.0379 -0.7131
 2346TIP3    H2 7045   5.253   2.151   3.425 -1.3663 -0.3145 -0.1268
 2347TIP3   OH2 7046   3.406   2.015   0.374 -0.1523 -0.0177  0.7877
 2347TIP3    H1 7047   3.348   2.055   0.439  0.2805 -0.8405  1.6953
 2347TIP3    H2 7048   3.469   1.965   0.425 -0.8833 -2.1799 -0.3270
 2348TIP3   OH2 7049   1.516   3.916   2.404  0.2567  0.1742  0.7052
 2348TIP3    H1 7050   1.533   4.010   2.397 -0.4528  0.4541  2.3399
 2348TIP3    H2 7051   1.421   3.909   2.407  0.2316 -0.7581 -1.0123
 2349TIP3   OH2 7052   3.861   0.518   3.908  0.5603 -0.1385 -0.1112
 2349TIP3    H1 7053   3.794   0.453   3.889  0.5366 -0.0709 -0.2611
 2349TIP3    H2 7054   3.908   0.529   3.825  0.9546 -0.4111  0.0686
 2350TIP3   OH2 7055   0.232   2.705   4.162  0.3179 -0.0113 -0.1408
 2350TIP3    H1 7056   0.141   2.683   4.139 -0.5987  1.5477  1.7064
 2350TIP3    H2 7057   0.251   2.783   4.110 -0.7046  1.7502  2.0071
 2351TIP3   OH2 7058   3.448   4.187   1.095 -0.2431 -0.3206 -0.3677
 2351TIP3    H1 7059   3.493   4.102   1.101  1.9153  0.7082 -0.8971
 2351TIP3    H2 7060   3.418   4.204   1.184  1.5346 -0.5331  0.3264
 2352TIP3   OH2 7061   1.985   4.967   1.171  0.1655 -0.3844 -0.1444
 2352TIP3    H1 7062   1.966   4.927   1.087  1.4982 -0.4452 -0.4450
 2352TIP3    H2 7063   1.912   4.942   1.227 -1.4821  0.8268 -1.6340
 2353TIP3   OH2 7064   1.956   1.432   2.898 -0.0475 -0.4467 -0.0536
 2353TIP3    H1 7065   1.923   1.356   2.851  0.2380  0.6981 -2.2576
 2353TIP3    H2 7066   2.015   1.396   2.964  0.7741 -2.1097 -1.6009
 2354TIP3   OH2 7067   0.705   2.428   0.200  0.7374 -0.5893  0.1148
 2354TIP3    H1 7068   0.659   2.421   0.284 -1.2021  0.0949 -0.8213
 2354TIP3    H2 7069   0.658   2.497   0.153  2.6219 -0.0153 -1.0293
 2355TIP3   OH2 7070   4.767   5.752   4.846 -0.0606  0.1748 -0.4568
 2355TIP3    H1 7071   4.726   5.705   4.918 -0.9838  1.5190 -0.0766
 2355TIP3    H2 7072   4.713   5.732   4.769  0.3307 -0.4338 -0.5834
 2356TIP3   OH2 7073   5.611   4.268   1.436 -0.2519 -0.5282  0.2414
 2356TIP3    H1 7074   5.583   4.184   1.399 -1.4899  0.2296 -0.6222
 2356TIP3    H2 7075   5.689   4.291   1.386 -1.0895 -0.2051 -0.9631
 2357TIP3   OH2 7076   3.077   0.416   4.290 -0.4368 -0.1630 -0.0470
 2357TIP3    H1 7077   3.108   0.375   4.371  1.2958  1.6320  0.2614
 2357TIP3    H2 7078   3.002   0.468   4.318 -0.0705  0.1634  0.3454
 2358TIP3   OH2 7079   5.070   0.994   1.179 -0.2664  0.1475  0.5807
 2358TIP3    H1 7080   5.048   1.009   1.270 -1.4169  1.4069  0.1257
 2358TIP3    H2 7081   4.992   1.019   1.130 -0.8367 -3.3523 -0.6151
 2359TIP3   OH2 7082   6.264   1.230   3.428  0.0067 -0.3049 -0.0098
 2359TIP3    H1 7083   6.345   1.207   3.473 -0.7364 -1.5630  0.7709
 2359TIP3    H2 7084   6.275   1.321   3.403  1.4328 -0.2890  0.5815
 2360TIP3   OH2 7085   1.895   3.801   2.869 -0.4453 -0.5881  0.0798
 2360TIP3    H1 7086   1.862   3.867   2.930 -2.8291 -0.3033 -1.4177
 2360TIP3    H2 7087   1.960   3.752   2.921 -1.1844  0.6419  2.3177
 2361TIP3   OH2 7088   0.396   2.500   1.935 -0.1982  0.4678  0.2354
 2361TIP3    H1 7089   0.372   2.559   1.864 -0.1835  0.8367  0.5301
 2361TIP3    H2 7090   0.471   2.451   1.902  0.2567  1.1396  0.2534
 2362TIP3   OH2 7091   2.043   2.845   2.046  0.0894  0.0706  0.1581
 2362TIP3    H1 7092   2.076   2.914   1.987 -0.9572  1.2243  0.8743
 2362TIP3    H2 7093   2.022   2.891   2.127  1.7080 -1.5278  1.5547
 2363TIP3   OH2 7094   5.668   4.248   1.986 -0.0967  0.2745  0.1774
 2363TIP3    H1 7095   5.711   4.296   1.915  0.5217 -0.7835 -0.1887
 2363TIP3    H2 7096   5.618   4.180   1.941  0.2570 -0.3708  0.7414
 2364TIP3   OH2 7097   3.780   0.740   3.150 -0.7474 -0.3508 -0.3743
 2364TIP3    H1 7098   3.814   0.790   3.223  0.3941 -2.5931  0.7425
 2364TIP3    H2 7099   3.799   0.793   3.073  0.8291  0.6797  0.6854
 2365TIP3   OH2 7100   5.791   0.948   3.257 -0.1387  0.3128  0.3141
 2365TIP3    H1 7101   5.794   0.924   3.349 -2.1492  0.9477  0.5819
 2365TIP3    H2 7102   5.771   1.041   3.256  1.8753  0.7978 -0.7847
 2366TIP3   OH2 7103   0.305   0.388   2.496  0.1600 -0.2149  0.1934
 2366TIP3    H1 7104   0.269   0.392   2.407 -0.5461 -1.1155  0.4239
 2366TIP3    H2 7105   0.293   0.297   2.522 -0.8989  0.3184  1.7290
 2367TIP3   OH2 7106   3.054   0.058   3.658 -0.1028  0.6403  0.3542
 2367TIP3    H1 7107   3.090  -0.002   3.592 -0.9327  0.1073  0.3780
 2367TIP3    H2 7108   3.094   0.142   3.637  0.1430  0.3384 -0.4320
 2368TIP3   OH2 7109   0.024   5.108   4.543  0.5314  0.0727  0.3440
 2368TIP3    H1 7110   0.091   5.130   4.479 -1.2300  1.4583 -1.1515
 2368TIP3    H2 7111  -0.054   5.154   4.512 -1.0748 -1.3152  2.0959
 2369TIP3   OH2 7112   3.706   0.344   4.609 -0.2494  0.1192  0.3211
 2369TIP3    H1 7113   3.659   0.303   4.537 -0.7669  1.1412  0.0677
 2369TIP3    H2 7114   3.676   0.434   4.610 -0.4128  0.0808  1.9501
 2370TIP3   OH2 7115   3.806   0.932   4.524 -0.0154  0.1858  0.7498
 2370TIP3    H1 7116   3.797   0.945   4.429  2.8844  1.9601  0.6012
 2370TIP3    H2 7117   3.836   0.842   4.533  0.9518  0.3998 -0.1591
 2371TIP3   OH2 7118   5.919   5.812   0.709 -0.2094 -0.1554 -0.2122
 2371TIP3    H1 7119   5.861   5.746   0.745  1.1710 -1.5513 -0.4479
 2371TIP3    H2 7120   5.903   5.810   0.615 -0.7257  0.4403 -0.1494
 2372TIP3   OH2 7121   6.093   4.444   0.485 -0.0764 -0.0096 -0.2774
 2372TIP3    H1 7122   6.181   4.424   0.517 -0.0125  1.3101  0.4482
 2372TIP3    H2 7123   6.101   4.532   0.448 -1.1557  0.2289  0.0265
 2373TIP3   OH2 7124   5.264   5.553   5.142 -0.0482 -0.3531  0.7821
 2373TIP3    H1 7125   5.239   5.640   5.111 -0.4726 -0.7534 -0.0343
 2373TIP3    H2 7126   5.239   5.552   5.234 -2.4022 -0.4744  0.1827
 2374TIP3   OH2 7127   0.572   2.503   0.503 -0.6118 -0.4426 -0.1261
 2374TIP3    H1 7128   0.594   2.410   0.512 -1.2130 -1.0090 -3.3628
 2374TIP3    H2 7129   0.656   2.546   0.489 -0.3604 -0.4973  1.0917
 2375TIP3   OH2 7130   1.252   2.396   2.632 -0.2480 -0.5060 -0.4188
 2375TIP3    H1 7131   1.188   2.375   2.701 -0.6251  0.3025 -0.5180
 2375TIP3    H2 7132   1.219   2.475   2.591  0.4916 -0.4317 -0.8969
 2376TIP3   OH2 7133   2.811   0.434   2.182  0.3748  0.1198 -0.3201
 2376TIP3    H1 7134   2.717   0.443   2.171  0.3398  1.4712  0.7275
 2376TIP3    H2 7135   2.825   0.443   2.276  1.7045  2.0315 -0.6342
 2377TIP3   OH2 7136   3.307   1.376   0.189 -0.1825  0.3077  0.5239
 2377TIP3    H1 7137   3.285   1.458   0.234  1.9380  2.0383 -1.4033
 2377TIP3    H2 7138   3.225   1.348   0.149 -0.6932  2.1351  0.2310
 2378TIP3   OH2 7139   0.968   3.064   2.478 -0.3201  0.4950 -0.1364
 2378TIP3    H1 7140   0.919   3.110   2.547 -0.8387  1.0946 -0.8888
 2378TIP3    H2 7141   0.982   3.130   2.411 -0.5938 -0.3024 -0.9984
 2379TIP3   OH2 7142   3.047   4.084   0.857 -0.6327 -0.2373 -0.8743
 2379TIP3    H1 7143   3.110   4.138   0.904 -0.9321 -0.0646 -0.6690
 2379TIP3    H2 7144   3.045   4.001   0.905 -0.3225 -0.3655 -1.0736
 2380TIP3   OH2 7145   5.625   0.935   2.185  0.4961 -0.5478  0.4910
 2380TIP3    H1 7146   5.533   0.923   2.161  0.8174 -0.2334 -0.9573
 2380TIP3    H2 7147   5.668   0.857   2.152  0.5058 -1.6602  2.8620
 2381TIP3   OH2 7148   0.041   1.238   4.333  0.5875 -0.1361  0.5801
 2381TIP3    H1 7149   0.013   1.226   4.424  0.7202 -0.5576  0.5657
 2381TIP3    H2 7150   0.057   1.332   4.325  0.0245 -0.0159  0.8351
 2382TIP3   OH2 7151   4.442   0.332   2.442 -0.1931  0.3858  0.5327
 2382TIP3    H1 7152   4.350   0.304   2.441 -0.8970  2.5360  0.5139
 2382TIP3    H2 7153   4.475   0.304   2.527 -0.7990 -0.5440  0.4746
 2383TIP3   OH2 7154   0.118   4.264   4.889  0.0606 -0.0763  0.6527
 2383TIP3    H1 7155   0.094   4.289   4.800  1.3180 -2.0119 -0.2813
 2383TIP3    H2 7156   0.158   4.343   4.926  1.0073  0.2998 -1.0673
 2384TIP3   OH2 7157   4.884   5.142   4.535  0.0650  0.3201  0.2193
 2384TIP3    H1 7158   4.844   5.145   4.448  0.2881 -4.3382 -0.3099
 2384TIP3    H2 7159   4.813   5.115   4.593  0.3853  1.3954  1.1585
 2385TIP3   OH2 7160   2.516   1.405   2.397 -0.7003  0.6370  0.1920
 2385TIP3    H1 7161   2.504   1.359   2.314 -1.6509  2.9465 -1.0557
 2385TIP3    H2 7162   2.556   1.340   2.455 -0.5930 -1.2565 -1.8573
 2386TIP3   OH2 7163   2.416   0.646   4.870  0.4604 -0.2093 -0.0870
 2386TIP3    H1 7164   2.383   0.736   4.870 -1.9637 -1.0097  1.3946
 2386TIP3    H2 7165   2.444   0.632   4.960 -0.9096 -1.4749  0.1734
 2387TIP3   OH2 7166   2.072   4.645   1.444 -0.0363 -0.0312 -0.1078
 2387TIP3    H1 7167   2.112   4.595   1.515  0.5889  1.7942  0.8812
 2387TIP3    H2 7168   2.009   4.703   1.488  1.1568  1.9220 -0.8628
 2388TIP3   OH2 7169   5.025   1.121   4.095  0.5476  0.1662 -0.3212
 2388TIP3    H1 7170   5.027   1.061   4.170 -1.3382 -0.6770 -0.8929
 2388TIP3    H2 7171   5.109   1.106   4.051  0.6042 -1.2080  0.1947
 2389TIP3   OH2 7172   1.435   5.589   1.675 -0.3978 -0.8322  0.6196
 2389TIP3    H1 7173   1.413   5.499   1.650  0.2964 -0.5344 -1.2633
 2389TIP3    H2 7174   1.363   5.641   1.641 -0.2379 -0.5601  0.6956
 2390TIP3   OH2 7175   3.771   4.700   0.573 -0.1889  0.1082 -0.7760
 2390TIP3    H1 7176   3.679   4.692   0.597 -0.2580  1.5032 -0.4739
 2390TIP3    H2 7177   3.817   4.711   0.656 -0.0102  1.4185 -1.0244
 2391TIP3   OH2 7178   0.755   5.955   3.053 -0.3289 -0.0125  0.6535
 2391TIP3    H1 7179   0.799   6.036   3.024  0.1160 -0.5582 -0.2347
 2391TIP3    H2 7180   0.668   5.960   3.014 -0.2282 -0.0497  0.4167
 2392TIP3   OH2 7181   5.675   4.537   2.318 -0.3487 -0.4422 -0.5015
 2392TIP3    H1 7182   5.612   4.533   2.391 -1.3653 -0.2463 -1.3445
 2392TIP3    H2 7183   5.643   4.607   2.262  0.9051 -0.0238 -0.7220
 2393TIP3   OH2 7184   3.585   1.570   2.492 -0.1669  0.2360  0.2184
 2393TIP3    H1 7185   3.662   1.608   2.449  1.1046 -2.1687  0.1799
 2393TIP3    H2 7186   3.567   1.629   2.565  0.4532  1.9416 -0.9600
 2394TIP3   OH2 7187   3.400   0.784   0.333 -0.1365  0.1247  0.2668
 2394TIP3    H1 7188   3.339   0.710   0.346 -0.1767  0.3310  1.3876
 2394TIP3    H2 7189   3.484   0.750   0.364 -0.0236  0.3583  0.2120
 2395TIP3   OH2 7190   5.801   0.691   4.924 -0.3092 -0.1732  0.0169
 2395TIP3    H1 7191   5.793   0.748   4.848  2.0610 -0.7106 -0.7268
 2395TIP3    H2 7192   5.853   0.742   4.987 -0.4826 -0.5076  0.4398
 2396TIP3   OH2 7193   1.724   1.850   2.812 -0.2065 -0.0742 -0.6242
 2396TIP3    H1 7194   1.809   1.812   2.836 -0.1729  0.6716  0.5137
 2396TIP3    H2 7195   1.736   1.879   2.721 -0.2218 -2.6466 -1.5296
 2397TIP3   OH2 7196   4.414   2.055   0.915  0.2313 -0.7348  0.4686
 2397TIP3    H1 7197   4.387   1.970   0.880 -1.7087 -0.2441  0.6590
 2397TIP3    H2 7198   4.383   2.119   0.850  1.5887 -0.1463  0.3698
 2398TIP3   OH2 7199   2.315   3.369   1.096  0.0361  0.7159  0.1445
 2398TIP3    H1 7200   2.233   3.408   1.125  0.9138  1.9980  1.0650
 2398TIP3    H2 7201   2.311   3.371   1.001 -0.5484  1.7852  0.1779
 2399TIP3   OH2 7202   5.092   4.086   2.019  0.0887 -0.3821 -0.0224
 2399TIP3    H1 7203   5.017   4.146   2.021  0.7504  0.4422  1.0645
 2399TIP3    H2 7204   5.126   4.093   1.930  0.6949  1.5895  0.3082
 2400TIP3   OH2 7205   0.790   0.400   1.320  0.5416 -0.4760 -0.1137
 2400TIP3    H1 7206   0.843   0.402   1.399  0.1241  0.5964  0.1517
 2400TIP3    H2 7207   0.718   0.461   1.337 -0.2829 -1.2276 -0.8127
 2401TIP3   OH2 7208   1.742   3.765   1.684  0.1182 -0.1069 -0.0688
 2401TIP3    H1 7209   1.806   3.754   1.755  0.8389  0.5213 -0.6067
 2401TIP3    H2 7210   1.795   3.789   1.608 -0.6558 -0.7235 -0.8128
 2402TIP3   OH2 7211   4.291   4.752   4.206  0.6441 -0.3076  0.0174
 2402TIP3    H1 7212   4.299   4.709   4.121  0.0457  0.4296 -0.4174
 2402TIP3    H2 7213   4.378   4.746   4.244  1.2304  0.4519 -1.1708
 2403TIP3   OH2 7214   1.244   2.019   3.434 -0.5127 -0.1516  0.2510
 2403TIP3    H1 7215   1.285   2.064   3.360 -2.8044  1.9580  0.1286
 2403TIP3    H2 7216   1.267   2.073   3.510  0.6767 -1.5349  0.9130
 2404TIP3   OH2 7217   0.598   0.704   3.287 -0.4626 -0.6141 -1.0941
 2404TIP3    H1 7218   0.598   0.799   3.294 -1.9586 -0.6204 -0.7759
 2404TIP3    H2 7219   0.548   0.685   3.207 -1.1235 -1.1467 -0.5686
 2405TIP3   OH2 7220   4.343   5.882   0.117  0.2572 -0.5832 -0.2690
 2405TIP3    H1 7221   4.253   5.851   0.105  0.5140 -1.4859  0.0403
 2405TIP3    H2 7222   4.387   5.809   0.160  1.5430 -0.7742 -1.8182
 2406TIP3   OH2 7223   5.750   0.299   2.691 -0.0405 -0.0512 -0.0439
 2406TIP3    H1 7224   5.763   0.267   2.602  0.1605  0.1977 -0.1051
 2406TIP3    H2 7225   5.704   0.228   2.736 -0.4063 -0.0639 -0.4287
 2407TIP3   OH2 7226   4.823   1.182   3.943  0.1419 -0.3258 -0.4081
 2407TIP3    H1 7227   4.754   1.201   4.006  0.2059  0.8208 -0.6633
 2407TIP3    H2 7228   4.899   1.158   3.996 -0.1043 -0.4078 -0.0927
 2408TIP3   OH2 7229   0.223   5.394   4.744  0.2762  0.1925 -0.5263
 2408TIP3    H1 7230   0.143   5.345   4.763  1.1776 -1.2768 -0.3321
 2408TIP3    H2 7231   0.220   5.469   4.804 -0.1958 -0.7058  0.6027
 2409TIP3   OH2 7232   1.173   5.584   0.427 -0.1251 -0.0843  0.0650
 2409TIP3    H1 7233   1.220   5.659   0.464 -1.5260  0.7278  0.2368
 2409TIP3    H2 7234   1.129   5.544   0.501  0.3779 -0.9263 -0.0768
 2410TIP3   OH2 7235   2.038   0.825   1.522 -0.0091  0.2124  0.8936
 2410TIP3    H1 7236   1.966   0.771   1.490 -1.0282  0.2708  2.9800
 2410TIP3    H2 7237   2.115   0.790   1.477 -1.3201  0.4362 -1.7435
 2411TIP3   OH2 7238   0.504   0.783   0.891 -0.5695  0.2530 -0.0913
 2411TIP3    H1 7239   0.411   0.777   0.912 -0.5823 -0.4884 -0.3141
 2411TIP3    H2 7240   0.533   0.692   0.886 -0.3004  0.4066 -2.1169
 2412TIP3   OH2 7241   1.898   0.887   3.118 -0.2846 -0.0801 -0.3496
 2412TIP3    H1 7242   1.841   0.964   3.121  0.9591  0.8262  0.9381
 2412TIP3    H2 7243   1.924   0.879   3.027  0.4454  1.7082 -0.3250
 2413TIP3   OH2 7244   0.084   2.564   4.606 -0.3047 -0.3409  0.1112
 2413TIP3    H1 7245   0.168   2.599   4.636 -2.0933  1.8558  3.1416
 2413TIP3    H2 7246   0.042   2.639   4.563 -0.8774 -1.3346 -1.1126
 2414TIP3   OH2 7247   3.525   3.916   1.220  0.2722 -0.2109  0.0160
 2414TIP3    H1 7248   3.609   3.959   1.201 -0.9733  1.1151 -3.0927
 2414TIP3    H2 7249   3.519   3.918   1.316  3.8926 -0.6694  0.3917
 2415TIP3   OH2 7250   2.746   5.993   4.168  0.0998 -0.4742 -0.0394
 2415TIP3    H1 7251   2.661   5.998   4.125  0.1006 -1.7671 -0.2383
 2415TIP3    H2 7252   2.799   5.936   4.112  0.3528 -1.5409  1.2140
 2416TIP3   OH2 7253   2.030   4.220   0.927  0.0319  0.0949 -0.2766
 2416TIP3    H1 7254   2.052   4.228   1.020 -0.4302 -0.3728 -0.1160
 2416TIP3    H2 7255   1.951   4.164   0.927  0.9279 -1.2180 -1.0458
 2417TIP3   OH2 7256   3.322   4.805   3.762 -0.0688 -0.3716  0.0600
 2417TIP3    H1 7257   3.265   4.825   3.836 -1.1591  1.6269 -1.2426
 2417TIP3    H2 7258   3.276   4.736   3.714 -0.5393  0.0148 -0.0478
 2418TIP3   OH2 7259   1.681   0.927   5.174 -0.3051 -0.0183  0.1370
 2418TIP3    H1 7260   1.597   0.953   5.136 -0.3191 -0.7693 -0.3763
 2418TIP3    H2 7261   1.664   0.920   5.268 -1.3585 -2.0435 -0.1498
 2419TIP3   OH2 7262   4.221   4.477   2.762 -0.6555  0.0911  0.4631
 2419TIP3    H1 7263   4.258   4.492   2.849  0.4181  1.3080 -0.1578
 2419TIP3    H2 7264   4.157   4.547   2.750 -1.7668 -0.8459  0.7560
 2420TIP3   OH2 7265   5.670   4.323   4.239  0.0380 -0.3879  0.4584
 2420TIP3    H1 7266   5.710   4.283   4.316 -0.7640  0.0583  1.1232
 2420TIP3    H2 7267   5.576   4.312   4.253 -0.1354 -2.6546 -1.7311
 2421TIP3   OH2 7268   4.151   0.451   3.431  0.4359  0.0762  0.7668
 2421TIP3    H1 7269   4.145   0.535   3.384 -0.5610 -0.4409 -0.0810
 2421TIP3    H2 7270   4.119   0.386   3.368 -2.8000 -0.4414  2.6885
 2422TIP3   OH2 7271   1.753   5.935   4.465 -0.0730  0.1762  0.0092
 2422TIP3    H1 7272   1.745   6.015   4.414 -2.1920 -0.2626 -0.4693
 2422TIP3    H2 7273   1.719   5.958   4.552  0.6639  0.1448  0.3143
 2423TIP3   OH2 7274   2.546   1.026   4.333 -0.1333 -0.2026 -0.2003
 2423TIP3    H1 7275   2.530   1.100   4.391 -0.2912 -0.2874 -0.1341
 2423TIP3    H2 7276   2.487   0.958   4.365 -2.3482  0.6359 -2.1918
 2424TIP3   OH2 7277   2.353   1.816   4.198 -0.0458 -0.2317  0.6890
 2424TIP3    H1 7278   2.320   1.808   4.108  0.7488 -0.7426  0.4295
 2424TIP3    H2 7279   2.274   1.820   4.252 -0.5535  0.8784 -0.0842
 2425TIP3   OH2 7280   5.009   0.470   2.980 -0.0937  0.3465 -0.6856
 2425TIP3    H1 7281   5.078   0.473   2.914 -0.2613  2.7604 -0.8601
 2425TIP3    H2 7282   4.992   0.562   3.001  1.1409 -0.2298  3.9739
 2426TIP3   OH2 7283   4.151   1.560   2.637  0.2007 -0.4962 -0.5648
 2426TIP3    H1 7284   4.187   1.519   2.715  2.2225 -0.4832 -1.4280
 2426TIP3    H2 7285   4.057   1.566   2.654  0.6702  0.4475  2.2905
 2427TIP3   OH2 7286   3.547   5.102   0.023 -0.0176 -0.1026 -0.1278
 2427TIP3    H1 7287   3.640   5.078   0.014 -0.1321 -0.4340 -0.4525
 2427TIP3    H2 7288   3.531   5.101   0.117  0.4267  0.4131 -0.0411
 2428TIP3   OH2 7289   2.821   4.825   4.075  0.4244 -0.8917 -0.7475
 2428TIP3    H1 7290   2.770   4.755   4.034  1.5278 -1.0518 -1.9297
 2428TIP3    H2 7291   2.809   4.900   4.017  1.5491 -0.9525 -1.0818
 2429TIP3   OH2 7292   4.375   2.775   3.799  0.3119 -0.7054 -0.3078
 2429TIP3    H1 7293   4.288   2.815   3.794  0.4291 -0.3049  0.5080
 2429TIP3    H2 7294   4.432   2.848   3.823  1.2416 -0.5210 -2.8522
 2430TIP3   OH2 7295   2.652   1.957   3.891 -0.1093  0.3293  0.3586
 2430TIP3    H1 7296   2.692   2.031   3.846 -1.3961 -0.8029 -2.9884
 2430TIP3    H2 7297   2.726   1.908   3.927  0.7651  3.1463  2.7602
 2431TIP3   OH2 7298   2.856   2.923   1.840  0.0093 -0.8741 -0.0986
 2431TIP3    H1 7299   2.834   2.962   1.755 -1.1715 -0.4794  0.3617
 2431TIP3    H2 7300   2.887   2.835   1.819  1.9969 -0.0058 -1.0998
 2432TIP3   OH2 7301   2.388   2.892   0.236 -0.0980  0.3134  0.2292
 2432TIP3    H1 7302   2.380   2.836   0.159  0.6037 -1.4589  1.3848
 2432TIP3    H2 7303   2.317   2.863   0.294  1.2737 -0.5630  1.5283
 2433TIP3   OH2 7304   4.673   4.093   2.429  0.1361  0.5045 -0.4048
 2433TIP3    H1 7305   4.582   4.071   2.450 -0.3117 -1.0686 -3.5074
 2433TIP3    H2 7306   4.724   4.026   2.476 -0.4754 -0.0540 -0.5088
 2434TIP3   OH2 7307   0.301   0.660   0.664 -0.2001  0.1206  0.3138
 2434TIP3    H1 7308   0.329   0.691   0.578 -1.1905  0.0799 -0.0383
 2434TIP3    H2 7309   0.277   0.568   0.650 -1.6999  0.4885  0.3036
 2435TIP3   OH2 7310   1.708   5.850   0.631 -0.1768 -0.7117 -0.0798
 2435TIP3    H1 7311   1.648   5.871   0.703 -0.5932 -1.3724 -0.2208
 2435TIP3    H2 7312   1.751   5.769   0.659  0.2329 -0.5499 -0.2366
 2436TIP3   OH2 7313   4.434   2.800   1.348 -0.3255 -0.6451  0.2852
 2436TIP3    H1 7314   4.384   2.881   1.332  2.0895  0.8138 -0.4454
 2436TIP3    H2 7315   4.486   2.788   1.268 -0.3654 -2.7772  0.5232
 2437TIP3   OH2 7316   3.543   2.192   3.305 -0.0278 -0.1250  0.0567
 2437TIP3    H1 7317   3.521   2.155   3.219 -0.2127  0.4015 -0.1253
 2437TIP3    H2 7318   3.525   2.286   3.296  2.1635  0.3303 -0.0497
 2438TIP3   OH2 7319   2.576   3.412   2.028 -0.4800  0.0431 -0.2728
 2438TIP3    H1 7320   2.643   3.436   2.092 -1.5241  0.1152  0.8527
 2438TIP3    H2 7321   2.580   3.480   1.961  0.6352 -0.0233 -0.2810
 2439TIP3   OH2 7322   5.502   1.392   1.017  0.0374 -0.1274  0.1643
 2439TIP3    H1 7323   5.478   1.436   1.099  0.1632 -0.4921  0.4019
 2439TIP3    H2 7324   5.498   1.461   0.951 -1.1428 -0.0609  0.2806
 2440TIP3   OH2 7325   5.504   1.567   5.008 -0.5705 -0.1768 -0.6641
 2440TIP3    H1 7326   5.458   1.493   5.048 -1.6466 -0.1885 -1.8620
 2440TIP3    H2 7327   5.581   1.528   4.967 -0.7427 -0.5161 -0.6642
 2441TIP3   OH2 7328   0.786   3.982   2.844  0.5747 -0.2122  0.1719
 2441TIP3    H1 7329   0.718   3.997   2.779  1.1497  0.1504 -0.3583
 2441TIP3    H2 7330   0.830   3.902   2.814  1.1022  0.1832 -0.1132
 2442TIP3   OH2 7331   5.287   4.043   0.984 -0.1527 -0.0116 -0.0539
 2442TIP3    H1 7332   5.240   4.102   0.925 -1.6043 -1.4406 -0.4015
 2442TIP3    H2 7333   5.367   4.090   1.007  0.3469  0.7311 -2.9557
 2443TIP3   OH2 7334   6.161   4.306   2.650 -0.1748 -0.2290  1.0293
 2443TIP3    H1 7335   6.147   4.282   2.559  0.4806 -0.2490  0.9336
 2443TIP3    H2 7336   6.089   4.367   2.670  0.8225  1.3997 -0.1043
 2444TIP3   OH2 7337   2.779   2.928   2.391 -0.5843  0.1518 -0.4356
 2444TIP3    H1 7338   2.783   2.890   2.303  2.3521  2.2371 -1.3924
 2444TIP3    H2 7339   2.745   3.017   2.377  1.4041  1.0726  0.1953
 2445TIP3   OH2 7340   1.866   5.172   3.875  0.4219 -0.4153  0.1914
 2445TIP3    H1 7341   1.787   5.181   3.929 -0.5667  0.4763 -1.3333
 2445TIP3    H2 7342   1.934   5.215   3.926 -0.8094  1.7592  0.1703
 2446TIP3   OH2 7343   3.686   4.709   4.277  0.5258 -0.4708  0.2418
 2446TIP3    H1 7344   3.597   4.731   4.252  0.4646 -0.1532  0.7180
 2446TIP3    H2 7345   3.719   4.656   4.205 -0.4975 -1.7539  0.6846
 2447TIP3   OH2 7346   6.364   4.140   1.952  0.0481 -0.5385 -0.0809
 2447TIP3    H1 7347   6.285   4.175   1.912  1.7943  1.6502 -1.9183
 2447TIP3    H2 7348   6.406   4.090   1.882  0.5212 -1.2579  0.7061
 2448TIP3   OH2 7349   4.171   4.947   1.006  0.1477  0.2766  0.0351
 2448TIP3    H1 7350   4.108   4.896   0.956  0.2519 -0.1289  0.3086
 2448TIP3    H2 7351   4.118   4.993   1.072  0.2400 -1.0076  1.0574
 2449TIP3   OH2 7352   4.339   0.655   2.618  0.2410  0.1899 -0.2776
 2449TIP3    H1 7353   4.431   0.634   2.630  0.6615  2.1423  0.2704
 2449TIP3    H2 7354   4.337   0.719   2.547 -0.7887 -0.3554 -0.7751
 2450TIP3   OH2 7355   4.383   4.078   3.175 -0.5706  0.1031 -1.0306
 2450TIP3    H1 7356   4.370   4.009   3.240 -3.1699 -0.3142 -1.8630
 2450TIP3    H2 7357   4.465   4.055   3.132 -1.0437 -2.1669 -0.8535
 2451TIP3   OH2 7358   3.402   1.020   5.023 -0.0877  0.5531 -0.6938
 2451TIP3    H1 7359   3.458   1.007   4.946  0.4141  0.0513 -0.2537
 2451TIP3    H2 7360   3.459   1.064   5.086 -0.0420 -0.3543 -0.0824
 2452TIP3   OH2 7361   3.084   2.868   0.238 -0.8786 -0.0251  0.4372
 2452TIP3    H1 7362   2.989   2.879   0.241 -0.8878  0.0404  0.0621
 2452TIP3    H2 7363   3.097   2.773   0.233 -0.9390 -0.0243  0.2256
 2453TIP3   OH2 7364   2.498   3.565   1.457 -0.3639  0.0963 -0.2890
 2453TIP3    H1 7365   2.499   3.479   1.415  0.8885 -0.3778  0.6208
 2453TIP3    H2 7366   2.549   3.621   1.398 -1.2553  0.2440 -0.9258
 2454TIP3   OH2 7367   1.628   3.742   0.977 -0.5945  0.0270  0.1287
 2454TIP3    H1 7368   1.698   3.691   0.935 -0.4017  0.3783  0.0158
 2454TIP3    H2 7369   1.638   3.830   0.940 -2.1311 -0.2894 -1.1445
 2455TIP3   OH2 7370   0.702   1.115   4.980 -0.1337  0.0510 -0.3108
 2455TIP3    H1 7371   0.731   1.106   5.071  0.3329  3.2047 -0.0204
 2455TIP3    H2 7372   0.783   1.111   4.929 -0.2036 -0.0651 -0.4124
 2456TIP3   OH2 7373   0.323   4.091   0.279 -0.4567 -0.2000  0.3942
 2456TIP3    H1 7374   0.321   4.008   0.325  0.9795 -0.8915 -0.7158
 2456TIP3    H2 7375   0.317   4.068   0.186  0.4755  0.8706  0.0367
 2457TIP3   OH2 7376   5.525   2.680   1.532  0.4553  0.0308 -0.4574
 2457TIP3    H1 7377   5.553   2.766   1.564 -0.3073  0.0927  0.0638
 2457TIP3    H2 7378   5.447   2.659   1.584  0.5339 -0.8987 -0.7012
 2458TIP3   OH2 7379   5.364   2.229   3.746  0.2548  0.2231  0.0036
 2458TIP3    H1 7380   5.286   2.229   3.800 -0.6642  0.6042 -1.2652
 2458TIP3    H2 7381   5.402   2.141   3.758 -1.6599 -0.8262 -1.1103
 2459TIP3   OH2 7382   3.649   0.516   5.099  0.2074 -0.2603  0.1169
 2459TIP3    H1 7383   3.651   0.476   5.013  0.8262 -1.2340  0.5718
 2459TIP3    H2 7384   3.612   0.603   5.084 -2.0523 -1.3133 -0.7500
 2460TIP3   OH2 7385   2.348   1.882   4.621 -0.2151  0.1985 -0.2412
 2460TIP3    H1 7386   2.389   1.896   4.706 -1.0570 -2.8273  0.7708
 2460TIP3    H2 7387   2.404   1.818   4.577  0.5055  2.0987 -2.2878
 2461TIP3   OH2 7388   0.140   2.334   1.907  0.3170  0.1435 -0.2952
 2461TIP3    H1 7389   0.074   2.403   1.910 -1.1047 -1.0582 -1.7364
 2461TIP3    H2 7390   0.221   2.379   1.887 -0.6352  1.3869 -1.5741
 2462TIP3   OH2 7391   0.478   3.851   4.964 -0.3017 -0.1105 -0.1667
 2462TIP3    H1 7392   0.409   3.915   4.953  1.0185  1.5037  0.5704
 2462TIP3    H2 7393   0.432   3.769   4.985 -1.9643  1.4196  2.8687
 2463TIP3   OH2 7394   2.644   4.878   1.402  0.1817 -0.5593  0.3121
 2463TIP3    H1 7395   2.707   4.909   1.337  0.1980 -0.1567  0.5174
 2463TIP3    H2 7396   2.609   4.957   1.442  0.2283 -0.7996  0.8489
 2464TIP3   OH2 7397   0.069   1.596   0.314  0.0948  0.2383 -0.1428
 2464TIP3    H1 7398   0.126   1.562   0.382 -0.9889 -0.4442  0.4524
 2464TIP3    H2 7399   0.124   1.598   0.235  0.1180 -3.5390 -0.3994
 2465TIP3   OH2 7400   4.852   1.296   2.163  0.2385  0.2233  0.6563
 2465TIP3    H1 7401   4.938   1.253   2.158  0.4760  0.3554  2.7035
 2465TIP3    H2 7402   4.866   1.370   2.222 -1.0490  0.9000  0.1517
 2466TIP3   OH2 7403   1.491   1.673   3.327 -0.2904  0.5152  0.2321
 2466TIP3    H1 7404   1.541   1.726   3.265 -0.1593 -0.7191 -0.7716
 2466TIP3    H2 7405   1.412   1.648   3.278 -0.1104 -0.6203  0.5012
 2467TIP3   OH2 7406   1.256   4.159   2.741 -0.2041 -0.1915 -0.3569
 2467TIP3    H1 7407   1.258   4.220   2.667 -1.0043 -0.2400 -0.4238
 2467TIP3    H2 7408   1.183   4.100   2.722 -1.8804  1.1370  1.5143
 2468TIP3   OH2 7409   3.368   4.694   2.241 -0.2579 -0.1728  0.1551
 2468TIP3    H1 7410   3.341   4.602   2.244 -0.2319 -0.2345 -1.0629
 2468TIP3    H2 7411   3.464   4.690   2.242 -0.2332 -0.2324 -1.0555
 2469TIP3   OH2 7412   5.722   2.703   0.284 -0.0047 -0.0112  0.1946
 2469TIP3    H1 7413   5.721   2.608   0.281  1.6259 -0.0596  0.3139
 2469TIP3    H2 7414   5.648   2.726   0.341  1.3907 -1.3624  2.7495
 2470TIP3   OH2 7415   0.030   0.538   1.784 -0.4198 -0.4481 -0.3004
 2470TIP3    H1 7416   0.006   0.630   1.793 -0.1558 -0.2803 -1.1957
 2470TIP3    H2 7417   0.116   0.539   1.744 -0.8338 -1.0769 -1.2528
 2471TIP3   OH2 7418   0.553   2.753   3.855 -0.1691  0.4795  0.6841
 2471TIP3    H1 7419   0.537   2.662   3.881 -0.9842  0.9715  2.0570
 2471TIP3    H2 7420   0.639   2.752   3.814 -0.4730 -1.0232  0.0073
 2472TIP3   OH2 7421   5.153   4.516   4.043 -0.0476 -0.7448 -0.5169
 2472TIP3    H1 7422   5.090   4.444   4.053 -1.5406  0.5380 -0.3588
 2472TIP3    H2 7423   5.149   4.564   4.126 -0.9947  0.9776 -1.5050
 2473TIP3   OH2 7424   1.258   0.182   0.310 -0.3182 -0.3625  0.3350
 2473TIP3    H1 7425   1.316   0.242   0.262  0.0261 -0.3577  0.7461
 2473TIP3    H2 7426   1.300   0.096   0.300 -0.1327 -0.3272  0.7985
 2474TIP3   OH2 7427   0.124  -0.005   4.244  0.0227  0.2774  0.7182
 2474TIP3    H1 7428   0.187   0.058   4.209  0.6219 -0.7350 -0.0714
 2474TIP3    H2 7429   0.102   0.029   4.331  1.9366  0.4660  1.1583
 2475TIP3   OH2 7430   1.903   5.700   3.064 -0.0390 -0.0749  0.3798
 2475TIP3    H1 7431   1.995   5.692   3.089  0.2358  0.0848 -0.5574
 2475TIP3    H2 7432   1.899   5.669   2.974 -0.6381  1.2291 -0.0716
 2476TIP3   OH2 7433   4.384   2.372   4.353  0.5929 -0.0125 -0.1476
 2476TIP3    H1 7434   4.444   2.409   4.288  0.1570 -0.0949 -0.6075
 2476TIP3    H2 7435   4.319   2.441   4.368  1.2077  0.3497  0.8967
 2477TIP3   OH2 7436   0.273   5.691   4.752  0.0300  0.4537  0.0608
 2477TIP3    H1 7437   0.181   5.667   4.744  0.0479  0.1535  0.6964
 2477TIP3    H2 7438   0.303   5.702   4.662 -0.5374  0.2091 -0.1615
 2478TIP3   OH2 7439   1.593   3.306   2.847  0.2046  0.3151 -0.0948
 2478TIP3    H1 7440   1.616   3.310   2.754  1.0968 -0.1427  0.0994
 2478TIP3    H2 7441   1.662   3.356   2.891  0.0290  0.1573  0.3656
 2479TIP3   OH2 7442   3.776   5.629   4.746 -1.0279 -0.0397 -0.7895
 2479TIP3    H1 7443   3.766   5.598   4.836  0.7136 -1.5477 -1.0591
 2479TIP3    H2 7444   3.694   5.606   4.702 -1.4744 -0.2465  0.1360
 2480TIP3   OH2 7445   3.766   3.800   4.343  0.6122  0.0836  0.0618
 2480TIP3    H1 7446   3.826   3.810   4.417 -0.0974 -1.5579  0.9280
 2480TIP3    H2 7447   3.780   3.710   4.313 -1.7344 -0.5210  0.6202
 2481TIP3   OH2 7448   3.778   4.231   2.831 -0.6238 -0.0235  0.3380
 2481TIP3    H1 7449   3.789   4.322   2.802  1.6811  1.3441  4.4707
 2481TIP3    H2 7450   3.693   4.230   2.876  0.5315  1.1143  2.7680
 2482TIP3   OH2 7451   5.315   4.716   4.782  0.3493 -0.8686  0.3337
 2482TIP3    H1 7452   5.378   4.757   4.842 -0.4920  0.1956  0.5210
 2482TIP3    H2 7453   5.242   4.778   4.778  0.0562 -1.2901 -1.2124
 2483TIP3   OH2 7454   4.381   2.651   4.079 -0.3202 -0.1119 -0.1405
 2483TIP3    H1 7455   4.355   2.698   4.158 -2.4031  1.1095 -1.4310
 2483TIP3    H2 7456   4.460   2.696   4.049 -1.0122  1.1648 -0.1364
 2484TIP3   OH2 7457   5.976   4.249   3.066 -0.2367 -0.1200 -0.6013
 2484TIP3    H1 7458   5.974   4.164   3.110  2.0949  1.0674  2.0994
 2484TIP3    H2 7459   6.054   4.245   3.011  0.5923  0.6213  0.4766
 2485TIP3   OH2 7460   5.003   0.112   4.389  0.4255  0.1562  0.3929
 2485TIP3    H1 7461   4.970   0.047   4.327  0.7026  1.1813 -0.8644
 2485TIP3    H2 7462   5.014   0.064   4.471  1.7726 -1.6639 -0.7979
 2486TIP3   OH2 7463   4.078   4.931   3.733 -0.3477 -0.5698  0.5416
 2486TIP3    H1 7464   4.098   4.930   3.639  1.4860 -0.6929  0.8975
 2486TIP3    H2 7465   4.005   4.870   3.743 -0.9706 -0.0997 -0.8681
 2487TIP3   OH2 7466   0.060   3.168   2.140 -0.7561 -0.4008 -0.8293
 2487TIP3    H1 7467   0.029   3.225   2.070  0.3978  0.0136 -1.0257
 2487TIP3    H2 7468   0.120   3.107   2.096 -0.8937 -0.8653 -0.3866
 2488TIP3   OH2 7469   3.618   4.215   3.768 -0.3678  0.0774 -0.8315
 2488TIP3    H1 7470   3.580   4.268   3.698  1.1363  0.7341 -1.1907
 2488TIP3    H2 7471   3.660   4.142   3.723 -0.8859 -0.4384 -0.4771
 2489TIP3   OH2 7472   3.620   1.422   3.344 -0.3856 -0.3265  0.0209
 2489TIP3    H1 7473   3.671   1.433   3.264 -1.9921 -0.6921 -1.0728
 2489TIP3    H2 7474   3.635   1.331   3.370  1.0194  0.0872  0.8053
 2490TIP3   OH2 7475   5.097   4.976   1.250 -0.1840 -0.2078  0.2123
 2490TIP3    H1 7476   5.030   5.018   1.197 -1.5843 -3.9598 -1.3762
 2490TIP3    H2 7477   5.180   5.008   1.214 -1.0781  1.6683 -0.3073
 2491TIP3   OH2 7478   4.783   4.690   3.968 -0.2813  0.8874 -0.2201
 2491TIP3    H1 7479   4.874   4.704   3.941 -0.4895  0.2149 -1.3353
 2491TIP3    H2 7480   4.749   4.627   3.905 -1.4171  0.8385  0.4197
 2492TIP3   OH2 7481   3.548   0.572   1.070  0.2718 -0.4342 -0.3244
 2492TIP3    H1 7482   3.616   0.638   1.052  0.1455 -0.3191 -0.3786
 2492TIP3    H2 7483   3.593   0.488   1.060  0.3554 -0.3618 -0.5690
 2493TIP3   OH2 7484   3.208   0.466   2.670  0.2472  0.4227 -0.1710
 2493TIP3    H1 7485   3.116   0.443   2.655  0.3710 -0.8760  0.9135
 2493TIP3    H2 7486   3.226   0.534   2.605 -1.2748  0.2051 -0.8698
 2494TIP3   OH2 7487   3.499   5.516   2.778 -0.3767  0.7329  0.4827
 2494TIP3    H1 7488   3.459   5.581   2.720  0.2196  1.1248  0.4933
 2494TIP3    H2 7489   3.470   5.540   2.865 -2.4134 -0.6893  0.2596
 2495TIP3   OH2 7490   2.318   5.553   2.370 -0.2783  0.5288 -0.2583
 2495TIP3    H1 7491   2.285   5.591   2.288 -0.0919  0.6284 -0.2872
 2495TIP3    H2 7492   2.242   5.555   2.429 -0.5635 -0.0447 -0.5975
 2496TIP3   OH2 7493   4.941   0.456   0.849  0.8437 -0.1195  0.0323
 2496TIP3    H1 7494   5.013   0.433   0.908 -0.0547  0.9842  1.6628
 2496TIP3    H2 7495   4.914   0.543   0.877 -1.2125 -0.5485 -0.4080
 2497TIP3   OH2 7496   1.922   4.584   2.544 -0.3694 -0.7004  0.7213
 2497TIP3    H1 7497   1.852   4.554   2.487 -0.9385  0.0698  1.0070
 2497TIP3    H2 7498   1.882   4.652   2.599  0.9242  0.7236 -0.0191
 2498TIP3   OH2 7499   3.890   1.326   4.497 -0.0736  0.4802  0.0891
 2498TIP3    H1 7500   3.801   1.306   4.528  0.2191 -1.3234 -0.1380
 2498TIP3    H2 7501   3.931   1.371   4.571 -1.3888  2.1084 -0.0897
 2499TIP3   OH2 7502   0.884   1.593   1.638  0.1642 -0.4724  0.0911
 2499TIP3    H1 7503   0.911   1.503   1.617  0.4564 -0.4478  0.3531
 2499TIP3    H2 7504   0.904   1.643   1.559 -0.2731 -0.6934 -0.1619
 2500TIP3   OH2 7505   0.193   2.058   2.332 -0.1637 -0.0550 -0.3705
 2500TIP3    H1 7506   0.144   2.078   2.253  0.3699 -2.0912 -1.3031
 2500TIP3    H2 7507   0.268   2.118   2.330 -1.3045  1.3977 -0.2217
 2501TIP3   OH2 7508   0.269   4.941   4.728  0.3490 -0.8003  0.4880
 2501TIP3    H1 7509   0.348   4.979   4.768 -0.8781  2.6379  0.0014
 2501TIP3    H2 7510   0.222   5.016   4.692 -2.5488 -2.8598 -0.3925
 2502TIP3   OH2 7511   0.482   5.896   2.902  0.0383  0.1097  0.7779
 2502TIP3    H1 7512   0.437   5.825   2.857 -0.7281 -0.1874  1.9650
 2502TIP3    H2 7513   0.481   5.969   2.840  0.2472 -0.6990 -0.1944
 2503TIP3   OH2 7514   1.271   3.696   2.309  0.6681 -0.0560  0.2530
 2503TIP3    H1 7515   1.271   3.771   2.368  1.8538  1.5716 -1.7002
 2503TIP3    H2 7516   1.200   3.714   2.248  2.5552  0.9183 -1.8149
 2504TIP3   OH2 7517   4.540   5.642   0.129  0.3190  0.4007 -0.0593
 2504TIP3    H1 7518   4.562   5.644   0.035 -0.6855  2.0362 -0.3084
 2504TIP3    H2 7519   4.516   5.551   0.146 -0.1212  0.2057 -1.5670
 2505TIP3   OH2 7520   1.014   0.391   0.621  1.1117 -0.5264  0.6523
 2505TIP3    H1 7521   1.069   0.313   0.619 -0.2440 -1.5072  0.1691
 2505TIP3    H2 7522   1.056   0.451   0.559  1.2972 -1.4876 -0.1836
 2506TIP3   OH2 7523   0.382   2.420   4.778  0.2319 -0.2218 -0.3163
 2506TIP3    H1 7524   0.404   2.475   4.853 -3.5073  0.9095  0.1571
 2506TIP3    H2 7525   0.392   2.478   4.702 -0.7698  0.2375 -0.1192
 2507TIP3   OH2 7526   1.561   0.464   3.747  0.3545 -0.4228  0.1393
 2507TIP3    H1 7527   1.613   0.423   3.679  0.2956 -0.6472  0.2277
 2507TIP3    H2 7528   1.537   0.393   3.806 -1.7647 -0.7271 -0.9665
 2508TIP3   OH2 7529   5.011   0.561   4.223 -0.1187 -0.2015 -0.6353
 2508TIP3    H1 7530   5.010   0.482   4.169 -0.7181 -0.1774 -0.6686
 2508TIP3    H2 7531   4.992   0.530   4.311 -1.0435 -0.0323 -0.7576
 2509TIP3   OH2 7532   0.992   2.885   1.686 -0.3795 -0.0663  0.2694
 2509TIP3    H1 7533   0.943   2.951   1.734  1.1116  3.1581 -2.2059
 2509TIP3    H2 7534   0.943   2.874   1.604  1.1667  0.7896 -0.8453
 2510TIP3   OH2 7535   1.761   5.539   3.720 -0.2555 -0.4213 -0.5241
 2510TIP3    H1 7536   1.673   5.523   3.756 -0.0127  0.5979  0.5707
 2510TIP3    H2 7537   1.783   5.458   3.674 -1.4887 -0.9489 -0.2221
 2511TIP3   OH2 7538   1.194   4.171   4.276 -0.0617  0.1118  0.0597
 2511TIP3    H1 7539   1.163   4.102   4.217  0.9955 -0.1439 -0.2333
 2511TIP3    H2 7540   1.219   4.124   4.356 -1.8897  0.5076  0.9110
 2512TIP3   OH2 7541   6.202   5.469   0.416  0.4196  0.5221 -0.4082
 2512TIP3    H1 7542   6.137   5.486   0.484 -1.1961 -0.6100 -1.6012
 2512TIP3    H2 7543   6.157   5.415   0.351  2.0158  1.2052 -2.2065
 2513TIP3   OH2 7544   1.243   3.959   4.451  0.0999 -0.1701 -0.2564
 2513TIP3    H1 7545   1.252   3.869   4.418  0.1285 -0.7559  1.2674
 2513TIP3    H2 7546   1.305   3.964   4.523  1.4436  1.6905 -1.4672
 2514TIP3   OH2 7547   6.327   4.822   4.160  0.2954 -0.5163  0.6496
 2514TIP3    H1 7548   6.397   4.850   4.219  0.2226  0.7405  0.1722
 2514TIP3    H2 7549   6.300   4.903   4.116 -0.0437 -1.3240 -0.6724
 2515TIP3   OH2 7550   3.284   1.205   1.545  0.1371 -0.5146 -0.5683
 2515TIP3    H1 7551   3.256   1.163   1.464 -2.6180 -0.9133  0.4597
 2515TIP3    H2 7552   3.203   1.242   1.581  1.4351  0.4362  1.5532
 2516TIP3   OH2 7553   2.280   5.671   1.408 -0.0849  0.3485  0.0530
 2516TIP3    H1 7554   2.324   5.739   1.459  0.0190  0.0751  0.3379
 2516TIP3    H2 7555   2.208   5.715   1.364  0.6099  0.8638 -0.6108
 2517TIP3   OH2 7556   3.971   4.969   2.765 -0.0496  0.7991 -0.3780
 2517TIP3    H1 7557   4.058   4.994   2.734 -0.0102 -0.4771 -1.3932
 2517TIP3    H2 7558   3.926   5.052   2.782  1.8466  1.4916  1.6850
 2518TIP3   OH2 7559   2.547   3.990   3.438  0.1232  0.0944 -0.4021
 2518TIP3    H1 7560   2.589   3.965   3.521 -0.7880 -2.4475 -0.6380
 2518TIP3    H2 7561   2.456   4.008   3.463 -0.3494 -1.4462 -0.9108
 2519TIP3   OH2 7562   5.848   5.589   4.343  0.5143  0.5468 -0.2562
 2519TIP3    H1 7563   5.834   5.679   4.313  2.1570  0.2463 -2.1499
 2519TIP3    H2 7564   5.792   5.580   4.420 -2.4478  2.0543 -2.0574
 2520TIP3   OH2 7565   0.184   3.348   0.600  0.2547  0.3221 -0.0436
 2520TIP3    H1 7566   0.103   3.353   0.651 -0.0098  0.1021 -0.4380
 2520TIP3    H2 7567   0.172   3.411   0.529  0.8962  1.1213  0.5341
 2521TIP3   OH2 7568   4.402   3.436   1.669 -0.2644 -0.3515 -0.2182
 2521TIP3    H1 7569   4.479   3.494   1.671 -0.1097 -0.5405 -0.6045
 2521TIP3    H2 7570   4.419   3.372   1.739 -0.3916  0.0097  0.1466
 2522TIP3   OH2 7571   1.576   0.018   3.424 -0.3974 -0.3708 -0.0379
 2522TIP3    H1 7572   1.666   0.012   3.392 -0.0940 -2.3509  1.0479
 2522TIP3    H2 7573   1.527   0.052   3.349  1.2449  1.0020 -0.5830
 2523TIP3   OH2 7574   2.566   1.777   3.484 -0.2259  0.1895  0.1455
 2523TIP3    H1 7575   2.472   1.791   3.496 -0.5313 -0.1696 -1.5541
 2523TIP3    H2 7576   2.576   1.682   3.481 -0.2905  0.1739 -2.4771
 2524TIP3   OH2 7577   1.424   4.679   4.821  0.0430  0.1325 -0.3669
 2524TIP3    H1 7578   1.351   4.659   4.881  0.2479  0.6138  0.0476
 2524TIP3    H2 7579   1.480   4.737   4.871  0.2396  0.5087 -1.0246
 2525TIP3   OH2 7580   2.892   3.290   3.291 -0.1860  0.2724 -0.0702
 2525TIP3    H1 7581   2.927   3.203   3.272 -0.1649  0.2247  0.1821
 2525TIP3    H2 7582   2.895   3.296   3.386  2.5880  1.6720 -0.1292
 2526TIP3   OH2 7583   5.206   2.706   3.675 -0.3092  0.3023 -0.3469
 2526TIP3    H1 7584   5.288   2.755   3.671 -1.1177  1.7832  0.2660
 2526TIP3    H2 7585   5.138   2.774   3.670 -1.4793 -0.7488  0.7600
 2527TIP3   OH2 7586   0.147   1.198   3.096  0.2266  0.0567  0.1244
 2527TIP3    H1 7587   0.200   1.224   3.171  1.8990 -1.6929 -0.3800
 2527TIP3    H2 7588   0.159   1.268   3.032  1.3363  0.0453  0.3129
 2528TIP3   OH2 7589   3.839   5.239   0.436 -0.2910 -0.5345 -0.2851
 2528TIP3    H1 7590   3.757   5.190   0.433 -0.9639  0.5423 -0.3794
 2528TIP3    H2 7591   3.840   5.288   0.354 -0.9015  1.4845  0.8314
 2529TIP3   OH2 7592   5.399   5.740   2.006  0.0160 -0.5995 -0.1946
 2529TIP3    H1 7593   5.382   5.674   1.939 -1.0428  0.1594 -0.7122
 2529TIP3    H2 7594   5.443   5.693   2.076 -1.5197 -2.0687 -0.1573
 2530TIP3   OH2 7595   1.367   1.958   0.985 -0.6562 -0.6565 -0.0858
 2530TIP3    H1 7596   1.323   2.042   0.970 -1.0695 -1.1318 -1.7227
 2530TIP3    H2 7597   1.318   1.918   1.057 -1.7783 -0.3934 -0.6790
 2531TIP3   OH2 7598   1.827   0.403   1.795  0.2834 -0.4835  0.6756
 2531TIP3    H1 7599   1.897   0.414   1.860 -0.0425 -0.7364  1.0729
 2531TIP3    H2 7600   1.870   0.358   1.722  0.6993 -0.0215  0.6299
 2532TIP3   OH2 7601   4.185   3.549   0.871 -0.0009  0.3148  0.0292
 2532TIP3    H1 7602   4.177   3.538   0.966 -1.7331  1.1400  0.0193
 2532TIP3    H2 7603   4.272   3.516   0.850 -0.8483 -3.2252  1.3895
 2533TIP3   OH2 7604   6.153   5.441   4.143 -0.3061  0.1529  0.5020
 2533TIP3    H1 7605   6.114   5.413   4.060  0.9211  1.5242 -0.6073
 2533TIP3    H2 7606   6.100   5.516   4.171  0.5476  1.0423 -0.1980
 2534TIP3   OH2 7607   4.350   2.367   3.959  0.1799 -0.4140 -0.4563
 2534TIP3    H1 7608   4.390   2.443   4.000 -0.9966  0.1588 -0.3250
 2534TIP3    H2 7609   4.422   2.322   3.914  1.0394  0.2797  0.2084
 2535TIP3   OH2 7610   5.071   3.150   0.868  0.9825 -0.3798 -0.4321
 2535TIP3    H1 7611   5.106   3.133   0.780  1.5330  0.7706 -0.4540
 2535TIP3    H2 7612   5.113   3.083   0.923  0.4524 -1.2603 -1.0694
 2536TIP3   OH2 7613   5.227   2.956   2.650 -0.4669 -0.2244 -0.2890
 2536TIP3    H1 7614   5.189   2.971   2.736  0.8318 -0.6633  0.3900
 2536TIP3    H2 7615   5.316   2.992   2.656  0.3811 -2.1188 -0.7382
 2537TIP3   OH2 7616   3.354   3.709   4.176 -0.0831 -0.0921 -0.1438
 2537TIP3    H1 7617   3.370   3.690   4.268  0.7920  3.2485  0.5261
 2537TIP3    H2 7618   3.260   3.725   4.170 -0.2160 -0.7809  0.0408
 2538TIP3   OH2 7619   0.624   5.167   4.384 -0.0982 -0.5422 -0.6711
 2538TIP3    H1 7620   0.629   5.210   4.299 -0.6572 -0.2725 -0.5714
 2538TIP3    H2 7621   0.700   5.199   4.432 -0.4196  0.2029 -0.6586
 2539TIP3   OH2 7622   3.294   4.877   3.099  0.3169  0.0278 -0.3894
 2539TIP3    H1 7623   3.207   4.855   3.064  0.1160  1.0774 -0.6048
 2539TIP3    H2 7624   3.278   4.901   3.190  0.3371  0.4346 -0.4893
 2540TIP3   OH2 7625   5.453   3.737   0.091  0.2134 -0.6456  0.2235
 2540TIP3    H1 7626   5.530   3.775   0.133  0.6136 -0.4941 -0.6441
 2540TIP3    H2 7627   5.421   3.674   0.156  0.7914 -0.3801  0.7858
 2541TIP3   OH2 7628   3.731   0.254   2.896  0.4566  0.4414  0.0882
 2541TIP3    H1 7629   3.747   0.334   2.945  2.1655  1.8073 -2.4524
 2541TIP3    H2 7630   3.793   0.257   2.823 -2.1163 -1.1720 -2.4374
 2542TIP3   OH2 7631   5.633   4.030   2.513  0.4758 -0.2525  0.2186
 2542TIP3    H1 7632   5.712   4.078   2.537 -1.0874  0.7478  3.9590
 2542TIP3    H2 7633   5.566   4.098   2.502 -0.5199 -1.2572 -0.0703
 2543TIP3   OH2 7634   2.753   3.180   0.986 -0.0153 -0.0442  0.3642
 2543TIP3    H1 7635   2.795   3.100   0.953  0.4950  0.3914 -0.0574
 2543TIP3    H2 7636   2.711   3.219   0.910 -0.3937  0.0101  0.5995
 2544TIP3   OH2 7637   6.343   4.983   3.713  0.2116  0.2693  0.2266
 2544TIP3    H1 7638   6.251   4.978   3.685  0.3244 -0.7199  0.0045
 2544TIP3    H2 7639   6.390   5.012   3.634  0.2839 -0.7216 -0.1085
 2545TIP3   OH2 7640   3.628   2.003   3.473  0.1134  0.1199 -0.1600
 2545TIP3    H1 7641   3.613   1.934   3.409  0.0014 -0.4021  0.4255
 2545TIP3    H2 7642   3.601   2.083   3.428 -0.2843 -0.2822 -0.6486
 2546TIP3   OH2 7643   4.903   1.588   2.641  0.4087  0.1155 -0.0877
 2546TIP3    H1 7644   4.967   1.632   2.585  0.4772 -0.2788 -0.3166
 2546TIP3    H2 7645   4.913   1.631   2.726  1.1997 -0.1595 -0.0372
 2547TIP3   OH2 7646   1.140   2.851   0.044 -0.4877  0.2784 -0.0919
 2547TIP3    H1 7647   1.150   2.911  -0.030 -1.5892  1.0108  0.3285
 2547TIP3    H2 7648   1.134   2.764   0.003  0.2104  0.5395 -0.7713
 2548TIP3   OH2 7649   1.351   0.839   2.416 -0.1136 -0.0263  0.0763
 2548TIP3    H1 7650   1.339   0.795   2.500 -0.0255  2.2504  1.3530
 2548TIP3    H2 7651   1.310   0.925   2.427  1.3682  0.9843 -1.6322
 2549TIP3   OH2 7652   4.078   5.205   3.518  0.0511 -0.2389  0.9680
 2549TIP3    H1 7653   4.041   5.223   3.432  0.0624 -0.4683  0.9162
 2549TIP3    H2 7654   4.008   5.160   3.566 -0.6401  1.5402  1.7185
 2550TIP3   OH2 7655   6.152   1.526   1.563 -0.0798 -0.3062 -0.5787
 2550TIP3    H1 7656   6.153   1.566   1.475  0.2020 -2.0521 -1.4055
 2550TIP3    H2 7657   6.180   1.597   1.621  1.1104  0.5280 -2.0714
 2551TIP3   OH2 7658   6.271   3.465   0.960  0.4119 -0.3499  0.7549
 2551TIP3    H1 7659   6.327   3.423   1.025  0.3311 -0.6170  0.6557
 2551TIP3    H2 7660   6.241   3.546   1.002  1.1386 -0.0378  0.6776
 2552TIP3   OH2 7661   4.612   5.401   2.996 -0.9390  0.1266 -0.1630
 2552TIP3    H1 7662   4.685   5.368   2.944  0.6273  0.9657  1.3875
 2552TIP3    H2 7663   4.567   5.463   2.938  0.7721  1.0668 -0.5380
 2553TIP3   OH2 7664   3.843   2.983   1.180 -0.5827  0.2856 -0.0109
 2553TIP3    H1 7665   3.794   2.900   1.185 -0.6837  0.4252  2.5039
 2553TIP3    H2 7666   3.870   3.000   1.270  0.8760  2.1677 -0.7492
 2554TIP3   OH2 7667   3.734   2.735   1.178 -0.0539 -0.2665  0.0276
 2554TIP3    H1 7668   3.639   2.731   1.167 -0.0507 -0.0897 -0.0643
 2554TIP3    H2 7669   3.768   2.669   1.118 -0.1865 -1.2350  0.9949
 2555TIP3   OH2 7670   4.439   1.681   4.095 -0.2056  0.0118 -0.1687
 2555TIP3    H1 7671   4.394   1.679   4.180  1.0548 -1.1299  0.5286
 2555TIP3    H2 7672   4.379   1.727   4.037 -0.7739  1.5544  1.5310
 2556TIP3   OH2 7673   5.838   3.968   1.818  0.2919  0.1362 -0.0313
 2556TIP3    H1 7674   5.792   4.043   1.781 -1.1748  0.1972  1.7529
 2556TIP3    H2 7675   5.872   4.000   1.902 -0.6049 -1.2145  0.8964
 2557TIP3   OH2 7676   3.220   2.151   4.164 -0.0901 -0.5082 -0.1824
 2557TIP3    H1 7677   3.187   2.076   4.212 -1.8297 -0.3423 -1.0541
 2557TIP3    H2 7678   3.167   2.225   4.194  0.7719  0.1583 -0.2336
 2558TIP3   OH2 7679   0.775   4.159   3.067 -0.0755  0.4926 -0.6607
 2558TIP3    H1 7680   0.741   4.133   2.982 -1.8943  0.2774  0.0880
 2558TIP3    H2 7681   0.758   4.253   3.072  0.2065  0.5425 -0.6053
 2559TIP3   OH2 7682   4.254   5.958   3.041 -0.2410  0.1557 -0.0125
 2559TIP3    H1 7683   4.251   5.981   2.948  0.8283 -0.1389 -0.1293
 2559TIP3    H2 7684   4.198   6.022   3.083 -1.4964 -0.2618 -0.9638
 2560TIP3   OH2 7685   6.133   5.814   0.167 -0.3348 -0.0897 -0.1439
 2560TIP3    H1 7686   6.123   5.816   0.072 -0.4194 -0.0980 -0.1348
 2560TIP3    H2 7687   6.065   5.753   0.197  0.4489 -1.0089 -0.1815
 2561TIP3   OH2 7688   0.001   5.938   0.757 -0.1451  0.1418 -0.7689
 2561TIP3    H1 7689   0.062   5.904   0.823 -0.4327  0.5921 -0.2617
 2561TIP3    H2 7690   0.057   5.964   0.684  0.1898 -0.2446 -0.6578
 2562TIP3   OH2 7691   4.038   2.058   2.953  0.2429 -0.3783  0.2337
 2562TIP3    H1 7692   4.003   2.056   3.042  2.0362 -0.2240  0.9888
 2562TIP3    H2 7693   4.060   2.150   2.938  0.5993 -0.5141 -0.0899
 2563TIP3   OH2 7694   2.752   3.544   1.290  0.7775  0.7765  0.5206
 2563TIP3    H1 7695   2.697   3.521   1.215  2.1681 -0.0008 -0.3209
 2563TIP3    H2 7696   2.833   3.494   1.276  0.9575  0.3542  2.7282
 2564TIP3   OH2 7697   5.796   2.841   3.976 -0.1779  0.1750 -0.3263
 2564TIP3    H1 7698   5.891   2.857   3.975  0.3593 -2.4709 -0.2652
 2564TIP3    H2 7699   5.769   2.848   3.885  0.5483 -1.1942 -0.6742
 2565TIP3   OH2 7700   1.579   0.337   3.446 -0.1100  0.0524  0.2508
 2565TIP3    H1 7701   1.525   0.286   3.386 -1.0838  2.3155 -0.9367
 2565TIP3    H2 7702   1.602   0.276   3.516 -1.6850 -1.8033 -0.7612
 2566TIP3   OH2 7703   4.085   4.695   2.919 -0.0339 -0.2832  0.2414
 2566TIP3    H1 7704   4.116   4.729   3.004 -0.4843  0.7365  0.0014
 2566TIP3    H2 7705   4.036   4.616   2.942 -1.3574  0.7347  1.0947
 2567TIP3   OH2 7706   2.036   4.342   0.620 -0.2981 -0.6471  0.2495
 2567TIP3    H1 7707   1.978   4.336   0.696  0.2680  0.3368  0.7821
 2567TIP3    H2 7708   2.091   4.263   0.626  0.1307 -0.2887  1.2035
 2568TIP3   OH2 7709   3.599   4.312   3.092  0.1392  0.4114  0.0573
 2568TIP3    H1 7710   3.595   4.218   3.108  1.2015  0.1056 -1.2804
 2568TIP3    H2 7711   3.657   4.346   3.161  1.7451 -0.3166 -0.8751
 2569TIP3   OH2 7712   4.356   1.563   3.427  0.8195 -0.1549  0.1691
 2569TIP3    H1 7713   4.410   1.491   3.394  2.4701  1.1309 -0.0278
 2569TIP3    H2 7714   4.289   1.519   3.480  1.8471 -1.8327  0.1602
 2570TIP3   OH2 7715   3.281   1.260   4.684 -0.1037 -0.1152 -0.0957
 2570TIP3    H1 7716   3.220   1.329   4.662 -0.6141 -0.6856 -0.4964
 2570TIP3    H2 7717   3.340   1.255   4.609  0.2278  0.1931  0.1369
 2571TIP3   OH2 7718   2.225   3.534   4.954 -0.3365 -0.2328  0.0303
 2571TIP3    H1 7719   2.249   3.484   4.876 -1.0200 -2.3375  1.0748
 2571TIP3    H2 7720   2.259   3.622   4.938 -0.1584 -0.6795 -2.4615
 2572TIP3   OH2 7721   0.134   5.099   3.905 -0.1566 -0.0461  0.3970
 2572TIP3    H1 7722   0.110   5.056   3.823  0.5487  1.5506 -0.6994
 2572TIP3    H2 7723   0.064   5.076   3.966 -0.6016 -1.4102 -0.5880
 2573TIP3   OH2 7724   2.851   1.897   0.945  0.6191 -0.2394 -0.0629
 2573TIP3    H1 7725   2.831   1.958   1.017 -0.3916 -1.2721  0.5617
 2573TIP3    H2 7726   2.931   1.932   0.906  1.3398  0.2433  1.7125
 2574TIP3   OH2 7727   1.785   1.712   3.721 -0.1663  0.3896 -0.5128
 2574TIP3    H1 7728   1.814   1.736   3.632  0.2102 -0.9837 -0.7798
 2574TIP3    H2 7729   1.705   1.663   3.707  1.2264 -2.0728 -0.3339
 2575TIP3   OH2 7730   3.164   2.137   0.453 -0.2090  0.0541  0.6709
 2575TIP3    H1 7731   3.205   2.102   0.533 -1.0532 -2.0787  0.2496
 2575TIP3    H2 7732   3.079   2.170   0.482 -0.0058  0.4228  0.8497
 2576TIP3   OH2 7733   2.727   5.751   4.462 -0.1603 -0.5723 -0.2688
 2576TIP3    H1 7734   2.731   5.667   4.417  1.3855 -0.8692  0.3666
 2576TIP3    H2 7735   2.636   5.780   4.451 -0.4878 -1.8859 -1.2611
 2577TIP3   OH2 7736   0.076   1.263   2.109  0.4836  0.0802 -0.0598
 2577TIP3    H1 7737   0.131   1.323   2.159  0.9158 -0.8699  0.6349
 2577TIP3    H2 7738  -0.013   1.297   2.121  0.6789  0.3747  0.6205
 2578TIP3   OH2 7739   5.961   1.849   1.725  0.1412 -0.1103 -0.2095
 2578TIP3    H1 7740   5.955   1.820   1.816 -0.3677  0.5025 -0.0386
 2578TIP3    H2 7741   6.045   1.815   1.694  0.7974  0.5434  0.8027
 2579TIP3   OH2 7742   0.787   2.394   3.021  0.6202  0.3136 -0.3702
 2579TIP3    H1 7743   0.766   2.426   3.108 -0.5229 -0.2786 -0.4119
 2579TIP3    H2 7744   0.846   2.320   3.036  1.1871  0.7938 -0.1616
 2580TIP3   OH2 7745   5.877   5.302   3.346 -0.2666 -0.0102 -0.2230
 2580TIP3    H1 7746   5.893   5.294   3.253  3.3424  2.6276 -0.0372
 2580TIP3    H2 7747   5.816   5.376   3.354  0.0420  0.2707 -0.4694
 2581TIP3   OH2 7748   0.174   4.683   0.284  0.8315 -0.3824  0.3664
 2581TIP3    H1 7749   0.123   4.624   0.340 -1.4599 -1.0083 -2.1525
 2581TIP3    H2 7750   0.126   4.766   0.288  1.3908 -0.0555  0.3131
 2582TIP3   OH2 7751   0.437   1.603   1.874 -0.0489 -0.1247  0.6944
 2582TIP3    H1 7752   0.521   1.557   1.867 -1.1010 -1.9621 -1.1762
 2582TIP3    H2 7753   0.436   1.662   1.798  0.7484  2.2248  2.3858
 2583TIP3   OH2 7754   1.222   0.906   3.058 -0.0274  0.0458 -0.2856
 2583TIP3    H1 7755   1.158   0.854   3.011  0.1503 -0.1850 -0.2724
 2583TIP3    H2 7756   1.292   0.921   2.995 -0.4331  0.9463 -0.5471
 2584TIP3   OH2 7757   2.141   5.585   5.019  0.2938  0.8594  0.1241
 2584TIP3    H1 7758   2.124   5.495   5.048  0.4584 -0.0720 -2.3698
 2584TIP3    H2 7759   2.236   5.590   5.010  0.2412  1.0207 -0.3993
 2585TIP3   OH2 7760   1.894   2.376   3.244  0.1943  0.0360  0.3141
 2585TIP3    H1 7761   1.801   2.381   3.266  0.4394 -1.3519  1.8928
 2585TIP3    H2 7762   1.896   2.339   3.156 -0.7536  0.5229  0.0718
 2586TIP3   OH2 7763   4.308   2.524   0.778  0.4020  0.0538  0.3982
 2586TIP3    H1 7764   4.266   2.484   0.703 -2.6574  1.7136  1.0532
 2586TIP3    H2 7765   4.402   2.509   0.764 -0.1004 -0.6979 -3.0891
 2587TIP3   OH2 7766   2.414   3.158   0.294 -0.0401 -0.0241  0.0521
 2587TIP3    H1 7767   2.416   3.068   0.261 -1.7863 -0.2302  0.3698
 2587TIP3    H2 7768   2.496   3.197   0.264  0.1000 -1.2915 -1.3556
 2588TIP3   OH2 7769   0.937   4.780   2.101  0.2740  0.4541  1.1424
 2588TIP3    H1 7770   0.949   4.870   2.069  0.0002  0.3391  0.7053
 2588TIP3    H2 7771   1.025   4.744   2.107  0.2875  0.2026 -0.3088
 2589TIP3   OH2 7772   4.725   3.325   3.467  0.4687 -0.3441 -0.6533
 2589TIP3    H1 7773   4.810   3.285   3.482  0.3425 -0.6258 -0.6855
 2589TIP3    H2 7774   4.708   3.377   3.546  1.6287  1.4452 -1.5201
 2590TIP3   OH2 7775   1.179   3.172   4.967  0.0160 -0.1972 -0.5148
 2590TIP3    H1 7776   1.099   3.207   5.006  0.1786  1.2934 -1.4506
 2590TIP3    H2 7777   1.248   3.231   4.996  0.4654 -0.3024 -1.3332
 2591TIP3   OH2 7778   2.820   5.562   3.382  0.2095  0.2239  0.1330
 2591TIP3    H1 7779   2.778   5.586   3.465  2.3003  1.3245  0.9584
 2591TIP3    H2 7780   2.813   5.467   3.378 -3.2730  0.3534 -0.3809
 2592TIP3   OH2 7781   2.077   0.600   2.377 -0.4140  0.0176 -0.0785
 2592TIP3    H1 7782   2.014   0.659   2.336 -0.7339 -1.1407 -1.3117
 2592TIP3    H2 7783   2.085   0.633   2.466 -2.8531  0.1263  0.1689
 2593TIP3   OH2 7784   0.898   1.300   1.513 -0.0225  0.2640 -0.4836
 2593TIP3    H1 7785   0.864   1.222   1.471 -2.1635  0.0335  1.5040
 2593TIP3    H2 7786   0.948   1.268   1.588  0.0957  0.7649 -0.3408
 2594TIP3   OH2 7787   4.925   1.366   2.489  0.1283  0.3671 -0.6809
 2594TIP3    H1 7788   4.892   1.454   2.509 -1.1949 -0.0981 -0.6873
 2594TIP3    H2 7789   4.997   1.353   2.550  1.1027  1.8822 -1.4388
 2595TIP3   OH2 7790   0.601   5.972   4.127  0.4008  0.5233 -0.3840
 2595TIP3    H1 7791   0.643   5.896   4.167 -0.4832 -0.8426 -1.9202
 2595TIP3    H2 7792   0.672   6.017   4.082  0.9501  0.6834  0.6058
 2596TIP3   OH2 7793   4.888   4.224   3.097 -0.7385  0.0237 -0.2876
 2596TIP3    H1 7794   4.918   4.283   3.028  0.6420  1.2509  1.2815
 2596TIP3    H2 7795   4.930   4.141   3.077  2.3693  1.1999  0.7709
 2597TIP3   OH2 7796   2.857   3.517   3.781  0.7891  0.0274 -0.2334
 2597TIP3    H1 7797   2.846   3.548   3.871 -1.4990 -0.4160 -0.3026
 2597TIP3    H2 7798   2.854   3.421   3.788 -0.6260  0.0053 -0.8807
 2598TIP3   OH2 7799   0.116   1.329   0.642  0.1206  0.4809 -0.8171
 2598TIP3    H1 7800   0.086   1.327   0.551  1.1846  0.0230 -1.1702
 2598TIP3    H2 7801   0.211   1.329   0.636  0.2583  2.4451  0.2490
 2599TIP3   OH2 7802   5.851   2.166   1.994 -0.1185  0.1603 -0.1875
 2599TIP3    H1 7803   5.841   2.143   1.902 -0.4420  0.4998 -0.2430
 2599TIP3    H2 7804   5.945   2.171   2.009 -0.0289  2.5782 -1.1425
 2600TIP3   OH2 7805   4.021   5.770   1.568 -0.7919  0.0485  0.1863
 2600TIP3    H1 7806   3.942   5.735   1.526 -0.3749 -0.6325 -0.0462
 2600TIP3    H2 7807   4.066   5.693   1.602 -0.8627  0.5356  1.4642
 2601TIP3   OH2 7808   0.434   5.863   2.399 -0.1406 -0.5262 -0.3029
 2601TIP3    H1 7809   0.381   5.850   2.478  1.1299  1.4790  0.9652
 2601TIP3    H2 7810   0.373   5.903   2.337 -0.7790 -0.6646  0.2128
 2602TIP3   OH2 7811   2.089   3.213   3.472  0.4633  0.5344  0.7919
 2602TIP3    H1 7812   2.097   3.306   3.494 -0.7522  0.4222  1.7651
 2602TIP3    H2 7813   2.004   3.186   3.507  0.4142 -0.7520 -0.2095
 2603TIP3   OH2 7814   5.488   3.182   4.780  0.1846 -0.2914 -0.5324
 2603TIP3    H1 7815   5.564   3.232   4.810  0.9338 -2.2511  1.1025
 2603TIP3    H2 7816   5.413   3.236   4.803  1.0076  1.8762 -2.5407
 2604TIP3   OH2 7817   4.131   1.753   0.905 -0.2880 -0.2106  0.1652
 2604TIP3    H1 7818   4.072   1.734   0.978  1.2541 -0.4602  1.4107
 2604TIP3    H2 7819   4.134   1.848   0.900 -0.9022 -0.1974 -0.0079
 2605TIP3   OH2 7820   2.046   2.878   3.351 -0.1096  0.4219  0.2724
 2605TIP3    H1 7821   2.139   2.886   3.328 -0.1988  2.1568  0.3627
 2605TIP3    H2 7822   2.047   2.854   3.444  0.2740  1.8437  0.6551
 2606TIP3   OH2 7823   4.875   1.712   0.441 -0.1563  0.0206  0.2923
 2606TIP3    H1 7824   4.970   1.703   0.432  0.4986  2.9452  2.6685
 2606TIP3    H2 7825   4.864   1.790   0.495 -3.9687  0.0728 -0.3281
 2607TIP3   OH2 7826   2.103   4.945   4.984  0.0765 -0.6390 -0.1345
 2607TIP3    H1 7827   2.138   5.013   5.043  0.1626 -0.4117 -0.4462
 2607TIP3    H2 7828   2.019   4.981   4.956  0.1185 -0.6672 -0.2934
 2608TIP3   OH2 7829   5.275   4.280   1.537  0.5977  0.3423 -0.2318
 2608TIP3    H1 7830   5.285   4.334   1.459 -1.3291  0.8846 -0.1516
 2608TIP3    H2 7831   5.347   4.306   1.594  1.2315  0.9089 -1.2753
 2609TIP3   OH2 7832   0.087   1.850   2.773  0.6417 -0.0709 -0.7177
 2609TIP3    H1 7833   0.139   1.774   2.749 -1.6241 -1.6293 -0.9242
 2609TIP3    H2 7834   0.143   1.925   2.749  1.8377 -1.5886 -3.0931
 2610TIP3   OH2 7835   6.097   2.402   1.943 -0.1224  0.2310 -0.2985
 2610TIP3    H1 7836   6.120   2.310   1.957 -0.4606  0.2304  0.2692
 2610TIP3    H2 7837   6.021   2.416   1.999  1.3674  1.4992  1.5214
 2611TIP3   OH2 7838   3.080   5.756   2.703 -0.3664  0.3911 -0.1209
 2611TIP3    H1 7839   3.056   5.847   2.681 -0.7704 -0.0726 -1.7748
 2611TIP3    H2 7840   3.023   5.703   2.647  0.4813 -0.8724  0.1853
 2612TIP3   OH2 7841   3.492   2.816   0.048  0.1873 -0.4696 -0.5299
 2612TIP3    H1 7842   3.582   2.839   0.071  0.8544 -1.9101 -1.5243
 2612TIP3    H2 7843   3.446   2.899   0.044  1.6300  0.3656 -0.6288
 2613TIP3   OH2 7844   0.208   3.150   1.468 -0.4222 -0.0464  0.9039
 2613TIP3    H1 7845   0.282   3.130   1.409  0.2886 -0.8424  2.0272
 2613TIP3    H2 7846   0.131   3.143   1.412  0.1199 -2.1191  0.3324
 2614TIP3   OH2 7847   2.574   5.595   0.342  0.3962 -0.3327 -0.5825
 2614TIP3    H1 7848   2.507   5.592   0.410  1.0015  0.8755  0.1101
 2614TIP3    H2 7849   2.526   5.617   0.262  0.0017  0.9507 -0.0165
 2615TIP3   OH2 7850   2.558   0.638   3.441 -0.6402 -0.7528 -0.1139
 2615TIP3    H1 7851   2.492   0.589   3.392 -0.3365 -1.6159  0.3236
 2615TIP3    H2 7852   2.538   0.730   3.422 -0.6045 -1.0555 -1.7329
 2616TIP3   OH2 7853   1.517   0.453   1.288  0.4807  0.2279 -0.0886
 2616TIP3    H1 7854   1.456   0.519   1.254  0.5813  0.4568  0.1731
 2616TIP3    H2 7855   1.520   0.386   1.219 -0.4702 -0.0478  0.1118
 2617TIP3   OH2 7856   6.089   2.613   3.002 -0.0119  0.4203 -0.4514
 2617TIP3    H1 7857   6.078   2.644   3.092  1.1110  2.0200 -0.8323
 2617TIP3    H2 7858   6.128   2.526   3.012 -1.5987 -0.2352  0.6071
 2618TIP3   OH2 7859   1.312   0.410   4.122 -0.5173  0.1432  0.1139
 2618TIP3    H1 7860   1.377   0.443   4.184  0.4523  0.7338 -1.1483
 2618TIP3    H2 7861   1.307   0.316   4.140  0.9009  0.0327  0.1019
 2619TIP3   OH2 7862   1.325   1.262   2.858  0.0976 -0.0975  0.4562
 2619TIP3    H1 7863   1.352   1.309   2.937  2.8370  2.0219 -1.5683
 2619TIP3    H2 7864   1.336   1.170   2.881  0.2564  0.4126  2.6874
 2620TIP3   OH2 7865   1.540   3.809   2.854 -0.6329 -0.2436 -0.2263
 2620TIP3    H1 7866   1.569   3.756   2.929  0.2503  0.2625 -0.2025
 2620TIP3    H2 7867   1.526   3.896   2.890  1.2658  0.3854 -0.9167
 2621TIP3   OH2 7868   5.178   2.966   3.449 -0.8259  0.6450  0.1509
 2621TIP3    H1 7869   5.157   2.884   3.405 -1.8602  0.9446  0.0616
 2621TIP3    H2 7870   5.138   2.958   3.535 -2.0137  1.5418 -0.2971
 2622TIP3   OH2 7871   2.650   4.770   2.926 -0.1574  0.3627 -0.3526
 2622TIP3    H1 7872   2.743   4.791   2.924 -0.3753  1.3424 -0.5886
 2622TIP3    H2 7873   2.606   4.854   2.939 -0.9987 -0.1255  0.1268
 2623TIP3   OH2 7874   2.129   4.303   1.480 -0.0856  0.5914  0.4746
 2623TIP3    H1 7875   2.132   4.220   1.527  2.0728  0.5235  0.3155
 2623TIP3    H2 7876   2.218   4.338   1.486 -0.7343  2.5041 -0.1719
 2624TIP3   OH2 7877   5.995   3.943   3.124  0.5810 -0.2173 -0.0363
 2624TIP3    H1 7878   5.995   3.961   3.218 -1.7458 -1.0768  0.1925
 2624TIP3    H2 7879   6.078   3.898   3.109  1.1002  0.1180  1.5534
 2625TIP3   OH2 7880   3.340   4.198   1.691 -0.5113  0.2471 -0.3335
 2625TIP3    H1 7881   3.355   4.290   1.673 -1.4248  0.2175 -1.2641
 2625TIP3    H2 7882   3.326   4.194   1.786  0.8838  0.8551 -0.0659
 2626TIP3   OH2 7883   2.601   4.699   4.230  0.2546 -0.1239  0.0436
 2626TIP3    H1 7884   2.579   4.702   4.323  0.7479  0.4037  0.1465
 2626TIP3    H2 7885   2.676   4.757   4.221 -0.5016  0.7631 -0.8709
 2627TIP3   OH2 7886   1.300   1.409   3.725  0.6007 -0.2518 -0.5471
 2627TIP3    H1 7887   1.281   1.421   3.818 -0.2897 -0.2397 -0.7277
 2627TIP3    H2 7888   1.225   1.362   3.691 -0.4372  2.1327 -1.8172
 2628TIP3   OH2 7889   3.224   4.911   3.370  0.5267 -0.2507  1.2858
 2628TIP3    H1 7890   3.209   4.829   3.418  2.9507 -0.6587  1.4617
 2628TIP3    H2 7891   3.249   4.974   3.437  1.5889 -0.1858  0.8466
 2629TIP3   OH2 7892   2.696   3.328   0.739  0.0159 -0.1359 -0.7044
 2629TIP3    H1 7893   2.766   3.384   0.705 -0.1659  0.9223  0.5999
 2629TIP3    H2 7894   2.622   3.388   0.752 -0.3689 -0.7831  0.1758
 2630TIP3   OH2 7895   2.507   2.638   3.509 -0.0431 -0.0619 -0.9064
 2630TIP3    H1 7896   2.590   2.653   3.553  0.2155  1.0650 -1.7357
 2630TIP3    H2 7897   2.453   2.594   3.575  0.6157  0.7828  0.2387
 2631TIP3   OH2 7898   4.726   3.747   3.836  0.6882 -0.2209  0.7460
 2631TIP3    H1 7899   4.813   3.784   3.824  0.9982 -0.6324  1.6413
 2631TIP3    H2 7900   4.740   3.668   3.888  0.1773 -2.2349 -1.9148
 2632TIP3   OH2 7901   5.541   4.358   1.671  0.4708  0.0034  0.0276
 2632TIP3    H1 7902   5.573   4.306   1.597 -0.4516 -1.1171  0.3928
 2632TIP3    H2 7903   5.620   4.392   1.713  1.1323 -1.4975  0.0616
 2633TIP3   OH2 7904   1.081   0.981   4.365 -1.0376  0.1349  0.3375
 2633TIP3    H1 7905   0.988   1.000   4.378 -2.0421 -3.6451 -0.0474
 2633TIP3    H2 7906   1.092   0.978   4.270 -0.2756  1.4134  0.3733
 2634TIP3   OH2 7907   2.598   1.770   4.529  0.1369 -0.4735  0.1825
 2634TIP3    H1 7908   2.599   1.681   4.493  1.2266 -0.7758  0.9236
 2634TIP3    H2 7909   2.644   1.763   4.613  0.5658  0.8641  0.0857
 2635TIP3   OH2 7910   6.128   4.009   4.323 -0.2234 -0.3046 -0.1314
 2635TIP3    H1 7911   6.140   4.046   4.236  2.0028  1.7988  0.9671
 2635TIP3    H2 7912   6.061   3.941   4.311  0.0920 -0.1771 -3.4543
 2636TIP3   OH2 7913   6.251   3.575   2.947 -0.9039  0.0255  0.5921
 2636TIP3    H1 7914   6.191   3.649   2.945 -2.8478 -1.4065  2.0176
 2636TIP3    H2 7915   6.225   3.521   2.872  0.0272  0.3745 -0.0104
 2637TIP3   OH2 7916   4.756   5.331   0.403  0.4238 -0.0050  0.3153
 2637TIP3    H1 7917   4.704   5.260   0.441 -0.2490  0.4365  0.2267
 2637TIP3    H2 7918   4.735   5.330   0.310 -0.0190  0.6708  0.4057
 2638TIP3   OH2 7919   2.104   2.678   2.733 -0.6658  0.9246  0.3450
 2638TIP3    H1 7920   2.058   2.749   2.687 -0.3586  1.1542  0.3890
 2638TIP3    H2 7921   2.157   2.636   2.665 -0.2505  1.2324  0.4750
 2639TIP3   OH2 7922   1.300   5.334   2.916  0.0684 -0.8120 -0.5350
 2639TIP3    H1 7923   1.395   5.343   2.918  0.0206 -0.2083 -0.7824
 2639TIP3    H2 7924   1.273   5.342   3.008  0.0016  2.1838 -0.7222
 2640TIP3   OH2 7925   1.305   1.230   2.262 -0.2842  1.0790  0.0507
 2640TIP3    H1 7926   1.237   1.163   2.268 -2.6156  2.9745 -2.6864
 2640TIP3    H2 7927   1.257   1.313   2.261  2.3162  2.7166  0.7608
 2641TIP3   OH2 7928   4.888   1.814   3.149  0.2505  0.2469 -0.3904
 2641TIP3    H1 7929   4.907   1.900   3.186 -0.4472  0.3807 -0.3168
 2641TIP3    H2 7930   4.803   1.791   3.187  0.7143 -0.7521  0.0819
 2642TIP3   OH2 7931   2.276   0.627   1.099  0.9614 -0.0021 -0.1604
 2642TIP3    H1 7932   2.230   0.681   1.035  1.1549  2.5809  1.7116
 2642TIP3    H2 7933   2.347   0.586   1.049  0.2463  0.7441 -1.8676
 2643TIP3   OH2 7934   0.947   3.331   1.426  0.0916 -0.5699 -0.5093
 2643TIP3    H1 7935   0.891   3.388   1.373  0.4497 -0.0056 -0.2973
 2643TIP3    H2 7936   1.032   3.334   1.382  0.3964 -0.0874  0.0884
 2644TIP3   OH2 7937   0.723   2.591   2.854 -0.1271 -0.4147  0.1761
 2644TIP3    H1 7938   0.730   2.544   2.937 -0.0292  0.0928  0.4593
 2644TIP3    H2 7939   0.707   2.682   2.879 -1.4594 -0.4719 -0.3718
 2645TIP3   OH2 7940   2.286   1.651   1.392 -0.1570 -0.0547  0.1399
 2645TIP3    H1 7941   2.363   1.685   1.439  0.9685 -1.2857 -0.7446
 2645TIP3    H2 7942   2.317   1.636   1.303 -1.3655 -0.7564 -0.1813
 2646TIP3   OH2 7943   3.118   1.415   3.253  0.5813  0.1512  0.3644
 2646TIP3    H1 7944   3.032   1.423   3.212  0.9116  1.7717 -0.0700
 2646TIP3    H2 7945   3.160   1.342   3.208  0.0491  0.4080 -0.5567
 2647TIP3   OH2 7946   1.556   4.689   2.660 -0.3325 -0.1196 -0.1679
 2647TIP3    H1 7947   1.461   4.687   2.646 -0.3531  1.5325 -0.5054
 2647TIP3    H2 7948   1.590   4.617   2.608 -1.3775 -0.5103 -0.3256
 2648TIP3   OH2 7949   2.235   6.013   0.182 -0.3597  0.7023 -0.0389
 2648TIP3    H1 7950   2.299   5.941   0.183  1.0188  1.8812  0.1669
 2648TIP3    H2 7951   2.151   5.970   0.192  0.4249 -0.8882  0.0911
 2649TIP3   OH2 7952   0.086   2.407   1.435  0.0283 -0.5427 -0.4546
 2649TIP3    H1 7953   0.155   2.431   1.373  0.2395 -0.8974 -0.3576
 2649TIP3    H2 7954   0.026   2.482   1.434 -0.0165 -0.5820 -1.1488
 2650TIP3   OH2 7955   2.154   4.418   1.960 -0.4971  0.5863 -0.2319
 2650TIP3    H1 7956   2.215   4.349   1.987 -1.2891 -0.4780 -1.1033
 2650TIP3    H2 7957   2.196   4.460   1.886 -0.7646 -0.0834 -0.7705
 2651TIP3   OH2 7958   0.001   2.810   4.484  0.4108 -0.0593  0.4771
 2651TIP3    H1 7959   0.011   2.841   4.394 -0.1898  0.7153  0.6581
 2651TIP3    H2 7960   0.016   2.888   4.538 -1.3455  0.0148  0.9376
 2652TIP3   OH2 7961   1.480   3.909   4.251 -0.5642  0.0624  0.0616
 2652TIP3    H1 7962   1.541   3.915   4.325 -1.1903  0.8403  0.5173
 2652TIP3    H2 7963   1.426   3.833   4.271  1.2649 -1.6861 -1.1422
 2653TIP3   OH2 7964   0.956   2.124   1.077  0.0236  0.1387 -0.1354
 2653TIP3    H1 7965   0.980   2.101   0.987 -0.9046  1.1296 -0.6534
 2653TIP3    H2 7966   1.004   2.060   1.131 -0.0556 -1.0149 -1.3597
 2654TIP3   OH2 7967   4.195   4.940   3.469 -0.0234 -0.2834  0.1937
 2654TIP3    H1 7968   4.270   4.926   3.411 -0.2082 -1.1942  0.1688
 2654TIP3    H2 7969   4.193   5.035   3.482  1.5226 -0.3093  0.7289
 2655TIP3   OH2 7970   2.722   3.241   2.764 -0.1997  0.0980  0.0904
 2655TIP3    H1 7971   2.813   3.223   2.740 -0.3077 -0.2697 -0.0556
 2655TIP3    H2 7972   2.728   3.300   2.839  0.1416  1.0940 -0.7171
 2656TIP3   OH2 7973   6.055   2.577   2.634  0.1045 -0.3285 -0.0309
 2656TIP3    H1 7974   6.041   2.546   2.544 -0.9990  1.6569 -0.5921
 2656TIP3    H2 7975   6.145   2.550   2.654  0.2539 -1.1326 -1.5834
 2657TIP3   OH2 7976   5.652   2.789   1.791  0.0860 -0.1748 -0.0537
 2657TIP3    H1 7977   5.567   2.751   1.809 -0.4962  0.8782 -0.4679
 2657TIP3    H2 7978   5.714   2.718   1.807 -0.8488 -0.9178  0.3860
 2658TIP3   OH2 7979   5.171   3.537   0.705  0.0034  0.3011 -0.1541
 2658TIP3    H1 7980   5.092   3.575   0.744  0.4540 -0.5360  1.6626
 2658TIP3    H2 7981   5.241   3.597   0.729 -0.1856  1.8585 -3.0216
 2659TIP3   OH2 7982   6.094   4.683   2.618  0.0154 -0.0156  0.3925
 2659TIP3    H1 7983   6.005   4.650   2.609  0.4116 -1.9149  2.4732
 2659TIP3    H2 7984   6.122   4.654   2.705  2.0773  2.0153  0.5211
 2660TIP3   OH2 7985   3.155   4.177   3.658 -0.3635  0.3328 -0.2643
 2660TIP3    H1 7986   3.214   4.193   3.731 -0.4040 -0.1312 -0.1310
 2660TIP3    H2 7987   3.196   4.105   3.609 -0.5224  0.3960 -0.4914
 2661TIP3   OH2 7988   0.318   3.858   2.866 -0.2621 -0.4062  0.1521
 2661TIP3    H1 7989   0.297   3.768   2.841 -0.3075 -0.6660  1.1134
 2661TIP3    H2 7990   0.395   3.851   2.921 -1.4120 -0.0622  1.8709
 2662TIP3   OH2 7991   0.079   4.738   0.898 -0.3685  0.4408 -0.1902
 2662TIP3    H1 7992  -0.015   4.727   0.910 -0.4702  0.9865 -0.4433
 2662TIP3    H2 7993   0.102   4.816   0.949 -0.0781  0.3838 -0.2289
 2663TIP3   OH2 7994   4.606   2.616   3.754 -0.3708  0.4309  0.0103
 2663TIP3    H1 7995   4.656   2.696   3.768  0.6822 -0.2337  0.2436
 2663TIP3    H2 7996   4.517   2.645   3.737  0.2209  1.7004 -1.1041
 2664TIP3   OH2 7997   5.482   4.625   0.526  0.3714 -0.3647 -0.5015
 2664TIP3    H1 7998   5.570   4.613   0.489 -0.2637 -0.8569 -1.9261
 2664TIP3    H2 7999   5.427   4.642   0.450 -0.8117 -0.3102  0.3513
 2665TIP3   OH2 8000   1.399   0.878   3.287  0.1963  0.3414  0.3517
 2665TIP3    H1 8001   1.428   0.969   3.295 -0.6086  0.7728 -1.2320
 2665TIP3    H2 8002   1.324   0.882   3.227  0.4606 -1.4361 -0.1466
 2666TIP3   OH2 8003   5.232   5.302   1.227  0.6874 -0.1574 -0.4413
 2666TIP3    H1 8004   5.314   5.305   1.178  1.0413 -0.6995  0.1029
 2666TIP3    H2 8005   5.245   5.232   1.291 -0.8407 -1.5117 -1.5077
 2667TIP3   OH2 8006   3.807   4.708   5.071 -0.0813 -0.3537  0.4108
 2667TIP3    H1 8007   3.746   4.637   5.091 -0.7728 -0.1500 -0.8445
 2667TIP3    H2 8008   3.885   4.664   5.039 -0.2412 -0.5823  0.3275
 2668TIP3   OH2 8009   1.901   0.472   0.207 -0.1177 -0.0450 -0.1727
 2668TIP3    H1 8010   1.830   0.492   0.267 -1.2467 -1.7792 -0.8667
 2668TIP3    H2 8011   1.905   0.547   0.148 -0.4610  0.6620  0.6801
 2669TIP3   OH2 8012   1.306   2.706   2.532 -0.3149 -0.1644  0.0535
 2669TIP3    H1 8013   1.337   2.738   2.617 -2.0241  0.4613  0.4811
 2669TIP3    H2 8014   1.369   2.637   2.509  1.8689  1.5928  0.3976
 2670TIP3   OH2 8015   1.826   4.338   0.093 -0.0490  0.4147  0.3295
 2670TIP3    H1 8016   1.790   4.345   0.005  1.8667  0.7792 -0.4761
 2670TIP3    H2 8017   1.844   4.245   0.104 -0.3956  0.3531  0.3882
 2671TIP3   OH2 8018   2.713   1.529   3.419 -0.1044  0.0747 -0.0110
 2671TIP3    H1 8019   2.693   1.449   3.468  1.5389  0.1936  0.9272
 2671TIP3    H2 8020   2.809   1.535   3.421  0.0956  0.0218 -3.3921
 2672TIP3   OH2 8021   0.243   4.933   1.760 -0.4069 -0.2742 -0.5618
 2672TIP3    H1 8022   0.238   5.002   1.694 -0.8955  0.8031  0.5822
 2672TIP3    H2 8023   0.328   4.891   1.744  1.3181  2.5040  0.5544
 2673TIP3   OH2 8024   3.949   5.440   4.424  0.0633 -0.4480 -0.3388
 2673TIP3    H1 8025   4.041   5.440   4.398  0.3276  2.7617  0.2373
 2673TIP3    H2 8026   3.949   5.409   4.515  1.0673  2.2743  0.6932
 2674TIP3   OH2 8027   1.110   0.125   3.203  0.5528 -0.0509  0.0127
 2674TIP3    H1 8028   1.187   0.172   3.170  0.7014 -1.7137 -2.2054
 2674TIP3    H2 8029   1.036   0.175   3.169  0.6561  0.3576  0.3739
 2675TIP3   OH2 8030   2.380   5.701   4.621  0.0668  0.0534  0.5067
 2675TIP3    H1 8031   2.426   5.631   4.667 -0.9905 -0.5599  0.6659
 2675TIP3    H2 8032   2.369   5.668   4.531 -0.7917 -0.1725  0.6871
 2676TIP3   OH2 8033   2.905   4.179   4.657  0.3882  0.2877  0.4225
 2676TIP3    H1 8034   2.912   4.254   4.716 -1.3771 -0.1122  1.2119
 2676TIP3    H2 8035   2.811   4.162   4.650  0.6640 -0.9363 -0.9210
 2677TIP3   OH2 8036   2.479   5.891   4.280 -0.2678  0.4939  0.0301
 2677TIP3    H1 8037   2.433   5.913   4.198  0.5212 -0.9916 -0.8594
 2677TIP3    H2 8038   2.572   5.898   4.258  0.0452 -2.4568 -0.0598
 2678TIP3   OH2 8039   0.143   1.142   4.679  0.2448 -0.0886 -0.3540
 2678TIP3    H1 8040   0.208   1.076   4.702 -0.3585 -0.6169 -0.1499
 2678TIP3    H2 8041   0.123   1.187   4.761 -0.4696 -0.6734 -0.2040
 2679TIP3   OH2 8042   3.586   3.030   3.531 -0.0309 -0.0828 -0.2995
 2679TIP3    H1 8043   3.522   3.070   3.472  0.2408  0.3586 -0.2974
 2679TIP3    H2 8044   3.551   3.048   3.619 -0.5029 -0.8527 -0.3212
 2680TIP3   OH2 8045   4.624   2.474   4.219 -0.2897 -0.0619  0.1071
 2680TIP3    H1 8046   4.659   2.563   4.225  1.4679 -0.7277  0.4646
 2680TIP3    H2 8047   4.631   2.452   4.126  0.4040 -0.2407  0.1967
 2681TIP3   OH2 8048   4.051   5.656   0.337  0.0814  0.7406  0.0723
 2681TIP3    H1 8049   3.964   5.615   0.336  0.2555  0.3694 -0.4254
 2681TIP3    H2 8050   4.103   5.602   0.277  0.7692  0.7168  0.6730
 2682TIP3   OH2 8051   5.816   2.247   4.866 -0.0960 -0.4658  0.3585
 2682TIP3    H1 8052   5.850   2.333   4.840  0.3039 -1.1771 -1.6247
 2682TIP3    H2 8053   5.881   2.185   4.834 -1.3741 -1.6299 -0.0562
 2683TIP3   OH2 8054   5.119   1.503   0.744 -0.1163 -0.5794  0.1152
 2683TIP3    H1 8055   5.082   1.425   0.786 -0.5148 -0.0108  0.8538
 2683TIP3    H2 8056   5.055   1.572   0.762  0.7102  0.1492  0.3361
 2684TIP3   OH2 8057   1.132   1.128   1.547  0.1197 -0.2341  0.3835
 2684TIP3    H1 8058   1.135   1.119   1.643  1.5215 -1.7385  0.2409
 2684TIP3    H2 8059   1.223   1.142   1.522 -0.1381 -0.5821 -0.7886
 2685TIP3   OH2 8060   2.956   1.804   3.581 -0.1970 -0.2064  0.4147
 2685TIP3    H1 8061   2.985   1.799   3.672  0.4779  0.5422  0.2624
 2685TIP3    H2 8062   2.978   1.719   3.544  0.4675 -0.1734  0.7042
 2686TIP3   OH2 8063   3.576   3.296   4.233 -0.0411  0.0602 -0.4351
 2686TIP3    H1 8064   3.629   3.219   4.214 -0.7493 -0.7777  0.8269
 2686TIP3    H2 8065   3.492   3.279   4.191  0.1250  0.6080 -0.9973
 2687TIP3   OH2 8066   1.496   4.187   1.222 -0.0645  0.4156 -0.1889
 2687TIP3    H1 8067   1.428   4.186   1.290 -1.6215  1.1305 -1.6520
 2687TIP3    H2 8068   1.558   4.253   1.251  0.4615 -0.7995  1.5715
 2688TIP3   OH2 8069   0.924   3.571   0.058  0.3294 -0.3813  0.5827
 2688TIP3    H1 8070   0.936   3.493   0.111  0.6981 -0.1887  0.7899
 2688TIP3    H2 8071   0.999   3.627   0.080  0.5581 -0.3535 -0.2334
 2689TIP3   OH2 8072   0.341   4.621   4.232 -0.3730  0.4094 -0.2373
 2689TIP3    H1 8073   0.370   4.637   4.142 -1.0405  0.4297 -0.4565
 2689TIP3    H2 8074   0.247   4.605   4.224 -0.5404  0.9561  0.5192
 2690TIP3   OH2 8075   6.369   2.951   2.964 -0.1625  0.6452 -0.3244
 2690TIP3    H1 8076   6.329   3.032   2.995  0.6463  1.9821 -2.4965
 2690TIP3    H2 8077   6.296   2.899   2.930 -0.5367  1.0833 -0.1891
 2691TIP3   OH2 8078   4.935   4.630   5.209 -0.2114  0.1429  0.8240
 2691TIP3    H1 8079   4.935   4.604   5.117 -2.7965 -0.6613  0.9817
 2691TIP3    H2 8080   4.969   4.720   5.208 -0.8442  0.3989 -1.0117
 2692TIP3   OH2 8081   5.362   2.485   0.257 -0.1632 -0.0827  0.0806
 2692TIP3    H1 8082   5.332   2.476   0.167  0.0729  2.4244 -0.3247
 2692TIP3    H2 8083   5.324   2.569   0.287  1.5952  0.2641  1.5193
 2693TIP3   OH2 8084   1.182   4.118   4.840  0.3452 -0.1015  0.4087
 2693TIP3    H1 8085   1.224   4.191   4.886  0.7160  0.3522 -0.6274
 2693TIP3    H2 8086   1.158   4.154   4.755 -0.4807 -0.8845  0.2961
 2694TIP3   OH2 8087   3.347   5.673   2.624  0.2983 -0.0403 -0.1430
 2694TIP3    H1 8088   3.355   5.655   2.530 -3.1222 -1.8701 -0.2280
 2694TIP3    H2 8089   3.257   5.703   2.635  0.2935 -0.8390  2.6989
 2695TIP3   OH2 8090   4.191   5.420   0.809 -0.3501 -0.7488  0.2252
 2695TIP3    H1 8091   4.268   5.364   0.821  1.3155  1.3651  0.0583
 2695TIP3    H2 8092   4.162   5.440   0.898  0.1849 -0.4254  0.3325
 2696TIP3   OH2 8093   1.702   0.328   4.059  0.3808 -0.2577  0.3232
 2696TIP3    H1 8094   1.619   0.297   4.021  0.3626 -1.1588  1.0703
 2696TIP3    H2 8095   1.690   0.423   4.067 -0.6778 -0.4021  0.6618
 2697TIP3   OH2 8096   5.055   0.037   4.901 -1.4663 -0.0373 -0.5372
 2697TIP3    H1 8097   5.040   0.090   4.823  0.8830  2.7024  0.6913
 2697TIP3    H2 8098   5.012   0.084   4.972  0.4904  0.1930  0.5653
 2698TIP3   OH2 8099   0.889   1.882   3.825 -0.2150 -0.0870 -0.1149
 2698TIP3    H1 8100   0.884   1.866   3.731  1.3167 -2.7112  0.1540
 2698TIP3    H2 8101   0.829   1.818   3.864  3.1500 -3.0147  0.8315
 2699TIP3   OH2 8102   2.073   4.532   0.242 -0.1359  0.0494 -0.2834
 2699TIP3    H1 8103   2.093   4.535   0.148 -2.5002 -0.9612 -0.8824
 2699TIP3    H2 8104   2.044   4.443   0.258  1.1172 -0.0644  1.6588
 2700TIP3   OH2 8105   4.790   2.491   2.669 -0.1815 -0.3266  0.0701
 2700TIP3    H1 8106   4.789   2.438   2.749 -0.0412 -1.7250 -0.8077
 2700TIP3    H2 8107   4.698   2.505   2.648 -0.2161  0.6437  0.8454
 2701TIP3   OH2 8108   4.274   4.525   0.517 -0.2393  0.1494 -0.0324
 2701TIP3    H1 8109   4.262   4.528   0.422  1.6579 -0.1418 -0.3260
 2701TIP3    H2 8110   4.298   4.614   0.541  1.2759 -0.2017 -0.1640
 2702TIP3   OH2 8111   1.181   5.255   5.039 -0.1369 -0.6355  0.1792
 2702TIP3    H1 8112   1.232   5.214   5.109  1.9111  0.8977 -0.3126
 2702TIP3    H2 8113   1.179   5.189   4.969  1.2905 -0.7116  0.1842
 2703TIP3   OH2 8114   5.847   5.374   1.942 -0.0414 -0.0598  0.3780
 2703TIP3    H1 8115   5.916   5.435   1.914  0.1919 -0.6699 -0.4216
 2703TIP3    H2 8116   5.894   5.303   1.985 -0.2170 -0.2251  0.2963
 2704TIP3   OH2 8117   0.459   1.147   4.842  0.2661 -0.5864  0.3831
 2704TIP3    H1 8118   0.416   1.222   4.883  2.1458  0.7680 -0.0211
 2704TIP3    H2 8119   0.552   1.163   4.853  0.8049 -1.3718 -2.2798
 2705TIP3   OH2 8120   1.282   5.860   1.020 -0.0961 -0.4947 -0.4290
 2705TIP3    H1 8121   1.322   5.773   1.012  0.0469 -0.7080  1.9406
 2705TIP3    H2 8122   1.196   5.843   1.059  0.6453  0.5178  1.7464
 2706TIP3   OH2 8123   3.048   0.148   4.835 -0.4098 -0.3081 -0.0646
 2706TIP3    H1 8124   2.972   0.114   4.787 -0.7242  1.5586 -0.9963
 2706TIP3    H2 8125   3.010   0.208   4.899  0.2362  4.2334 -3.4529
 2707TIP3   OH2 8126   1.435   0.553   4.329 -0.1502 -0.3787  0.1891
 2707TIP3    H1 8127   1.431   0.517   4.418 -0.7203 -0.1101  0.2726
 2707TIP3    H2 8128   1.361   0.614   4.324 -1.7293 -2.2704 -1.2851
 2708TIP3   OH2 8129   2.771   0.114   3.817 -0.1004 -0.0127 -0.5440
 2708TIP3    H1 8130   2.695   0.059   3.795 -1.4900  1.7456 -0.3561
 2708TIP3    H2 8131   2.742   0.203   3.798  2.2266  0.6616 -1.2303
 2709TIP3   OH2 8132   0.593   3.441   2.167 -0.1762  0.0297 -0.4236
 2709TIP3    H1 8133   0.502   3.444   2.137 -0.4408 -1.0313  0.2408
 2709TIP3    H2 8134   0.638   3.505   2.111 -1.5064  1.3192 -0.1031
 2710TIP3   OH2 8135   0.460   0.446   0.407 -0.0473  0.3599  0.2793
 2710TIP3    H1 8136   0.439   0.428   0.315 -0.1654  1.3637  0.0957
 2710TIP3    H2 8137   0.506   0.368   0.437 -0.5698 -0.2472 -0.4481
 2711TIP3   OH2 8138   6.008   0.863   5.076  0.3786 -0.4670  0.1106
 2711TIP3    H1 8139   6.090   0.827   5.043  0.4911  0.0712 -0.2115
 2711TIP3    H2 8140   6.016   0.859   5.172  0.2729 -1.5346  0.0843
 2712TIP3   OH2 8141   0.281   2.478   4.291 -0.2733 -0.6271  0.1412
 2712TIP3    H1 8142   0.251   2.500   4.379  2.2608 -0.9763  1.1671
 2712TIP3    H2 8143   0.277   2.560   4.242 -1.0398 -0.2882  0.7544
 2713TIP3   OH2 8144   5.170   5.127   2.169 -0.3685 -0.9449  0.6348
 2713TIP3    H1 8145   5.102   5.190   2.195 -0.4888 -0.9934  0.4390
 2713TIP3    H2 8146   5.252   5.176   2.180 -0.5545 -0.1256 -1.2347
 2714TIP3   OH2 8147   2.090   2.668   5.140  0.3546 -0.1884  0.0396
 2714TIP3    H1 8148   2.067   2.610   5.067  0.0133 -0.4288  0.3287
 2714TIP3    H2 8149   2.160   2.724   5.106 -0.3140  0.2129 -0.7087
 2715TIP3   OH2 8150   5.008   5.777   4.554 -0.4827 -0.2539 -0.0780
 2715TIP3    H1 8151   5.041   5.688   4.565 -0.4585 -0.1420  0.8166
 2715TIP3    H2 8152   4.926   5.766   4.506 -1.6663 -0.9856  1.9871
 2716TIP3   OH2 8153   0.546   3.171   5.023 -0.2463  0.4371 -0.2566
 2716TIP3    H1 8154   0.527   3.079   5.005  1.0124  0.5609 -2.7423
 2716TIP3    H2 8155   0.461   3.212   5.032 -0.8244 -1.0142  1.4220
 2717TIP3   OH2 8156   6.266   4.471   3.438  0.3451  0.1589 -0.0034
 2717TIP3    H1 8157   6.207   4.480   3.363 -1.8125 -0.5303  1.5549
 2717TIP3    H2 8158   6.348   4.438   3.399  0.1676  2.1475 -2.3595
 2718TIP3   OH2 8159   2.310   5.683   0.807  0.6519 -0.0662 -0.0630
 2718TIP3    H1 8160   2.382   5.638   0.853 -0.1275  0.1620  1.4426
 2718TIP3    H2 8161   2.234   5.670   0.864 -0.4584 -0.0899 -1.5055
 2719TIP3   OH2 8162   2.740   3.074   1.274  0.1768  0.1765 -0.1427
 2719TIP3    H1 8163   2.830   3.045   1.259  0.2459  0.3481 -0.0750
 2719TIP3    H2 8164   2.719   3.127   1.197  1.2518  2.7528  1.2109
 2720TIP3   OH2 8165   4.495   4.644   0.993 -0.6257  1.0220 -0.5828
 2720TIP3    H1 8166   4.580   4.603   0.978 -0.3704  1.1647  0.4148
 2720TIP3    H2 8167   4.515   4.734   1.018 -1.0079  0.8110  0.5602
 2721TIP3   OH2 8168   1.331   4.879   2.555  0.1482  0.0101 -0.2298
 2721TIP3    H1 8169   1.346   4.973   2.566 -2.1969  0.2813  1.6601
 2721TIP3    H2 8170   1.270   4.873   2.482 -1.9039  0.3090  1.3582
 2722TIP3   OH2 8171   0.535   4.934   0.517 -0.1993 -0.0489 -0.0033
 2722TIP3    H1 8172   0.628   4.946   0.534 -0.5177  0.5462  1.5209
 2722TIP3    H2 8173   0.531   4.889   0.433  1.4503  0.0701 -0.1740
 2723TIP3   OH2 8174   2.055   4.827   0.681 -0.0514  0.2793 -0.3063
 2723TIP3    H1 8175   2.150   4.827   0.684 -0.0637  1.0959  0.1794
 2723TIP3    H2 8176   2.032   4.740   0.646  0.8260 -0.4676  0.9009
 2724TIP3   OH2 8177   5.902   1.118   1.482 -0.2605  0.2974  0.1904
 2724TIP3    H1 8178   5.974   1.124   1.419 -0.0870  0.9605  0.4475
 2724TIP3    H2 8179   5.945   1.100   1.565 -0.4545 -0.0664  0.2162
 2725TIP3   OH2 8180   6.168   1.548   2.175  0.1195 -0.1794 -0.1121
 2725TIP3    H1 8181   6.125   1.477   2.221 -1.4534  2.1764  2.3507
 2725TIP3    H2 8182   6.257   1.550   2.210  0.3486 -1.2131 -0.6044
 2726TIP3   OH2 8183   3.226   0.428   1.180 -0.2097 -0.5673  0.0311
 2726TIP3    H1 8184   3.216   0.492   1.110  1.8536 -0.1632  0.0591
 2726TIP3    H2 8185   3.211   0.478   1.260 -0.4866 -0.5622 -0.0222
 2727TIP3   OH2 8186   5.391   4.651   1.497 -0.1188 -0.3946  0.8847
 2727TIP3    H1 8187   5.387   4.585   1.428 -1.5243  0.0361  0.5010
 2727TIP3    H2 8188   5.484   4.673   1.505  0.0135  0.4679 -1.8030
 2728TIP3   OH2 8189   2.524   4.865   3.953  0.5073  0.2266  0.3728
 2728TIP3    H1 8190   2.583   4.796   3.921  0.7023  1.1779 -1.5038
 2728TIP3    H2 8191   2.494   4.834   4.038  0.8088 -2.0307 -0.2710
 2729TIP3   OH2 8192   5.586   5.248   0.943  0.8552  0.1394  0.1133
 2729TIP3    H1 8193   5.648   5.180   0.967 -0.6532 -1.1164  0.6309
 2729TIP3    H2 8194   5.580   5.243   0.848 -1.2373 -2.3994  0.2761
 2730TIP3   OH2 8195   5.441   2.840   2.318  0.2335  0.1872 -0.4581
 2730TIP3    H1 8196   5.368   2.899   2.299  0.3727  1.4602  2.3755
 2730TIP3    H2 8197   5.403   2.772   2.374  0.8113 -0.3613 -0.7201
 2731TIP3   OH2 8198   0.110   5.837   4.938  0.1095 -0.0671 -0.2349
 2731TIP3    H1 8199   0.051   5.788   4.880  1.1440 -0.1260 -1.2554
 2731TIP3    H2 8200   0.198   5.811   4.911  0.6334  0.7624  0.6154
 2732TIP3   OH2 8201   0.375   2.230   4.466 -0.2203  1.0223  0.0112
 2732TIP3    H1 8202   0.373   2.280   4.548 -0.9168 -0.3426  0.8619
 2732TIP3    H2 8203   0.282   2.221   4.442 -0.0701  0.6089 -0.4181
 2733TIP3   OH2 8204   5.352   3.289   0.706  0.0140 -0.1528 -0.0124
 2733TIP3    H1 8205   5.285   3.240   0.659  0.5361 -0.1455 -0.7748
 2733TIP3    H2 8206   5.306   3.366   0.740 -0.4175 -0.2828 -0.2992
 2734TIP3   OH2 8207   0.425   4.401   4.387  0.4590 -0.0251  0.3273
 2734TIP3    H1 8208   0.516   4.407   4.360  0.1145  0.1057 -0.9083
 2734TIP3    H2 8209   0.377   4.448   4.319 -0.4378  0.9228  1.5728
 2735TIP3   OH2 8210   5.284   3.738   3.008  0.0737  0.1424 -0.2808
 2735TIP3    H1 8211   5.312   3.787   3.085 -0.1687 -2.1287  1.3745
 2735TIP3    H2 8212   5.313   3.648   3.025 -0.7083 -0.5973 -2.4747
 2736TIP3   OH2 8213   5.535   2.430   3.654 -0.2960 -0.1739 -0.6657
 2736TIP3    H1 8214   5.451   2.390   3.676 -0.1856  0.0488  0.2439
 2736TIP3    H2 8215   5.600   2.368   3.686 -0.0920  1.5308  2.6901
 2737TIP3   OH2 8216   0.877   2.673   3.387 -0.0130 -0.6237 -0.5426
 2737TIP3    H1 8217   0.957   2.716   3.358  0.0982 -0.7938 -0.4867
 2737TIP3    H2 8218   0.808   2.711   3.333 -0.1003  0.5785  0.3775
 2738TIP3   OH2 8219   1.932   4.660   4.289 -0.2771 -0.2312  0.0485
 2738TIP3    H1 8220   1.918   4.620   4.203 -0.5568 -0.4775  0.2058
 2738TIP3    H2 8221   1.847   4.653   4.333  0.1509 -1.1481  0.7724
 2739TIP3   OH2 8222   4.990   3.647   3.657  0.1716  0.1762 -0.1892
 2739TIP3    H1 8223   5.053   3.585   3.621  0.0813 -0.4341  0.6818
 2739TIP3    H2 8224   5.034   3.732   3.651  1.1099 -0.2451  0.4378
 2740TIP3   OH2 8225   5.206   4.058   1.754 -0.0857  0.0780  0.2718
 2740TIP3    H1 8226   5.196   3.962   1.757  0.0197  0.0624  0.1170
 2740TIP3    H2 8227   5.167   4.083   1.671  1.2145  0.0140 -0.3802
 2741TIP3   OH2 8228   2.154   2.799   4.269  0.2110 -0.2247 -0.2394
 2741TIP3    H1 8229   2.181   2.738   4.200  0.0107  0.3549 -0.8391
 2741TIP3    H2 8230   2.220   2.788   4.337  1.4449  0.4782 -1.2713
 2742TIP3   OH2 8231   0.485   0.246   2.872  0.0070 -0.0748  0.0930
 2742TIP3    H1 8232   0.548   0.195   2.822 -1.0447 -0.1324 -1.2262
 2742TIP3    H2 8233   0.523   0.334   2.877  0.8298 -0.4480  0.5484
 2743TIP3   OH2 8234   5.171   4.518   1.819  0.1690  0.4297  0.3100
 2743TIP3    H1 8235   5.151   4.527   1.726  0.0864 -1.6870  0.0803
 2743TIP3    H2 8236   5.258   4.478   1.821  0.9207  2.0004  1.2021
 2744TIP3   OH2 8237   0.405   1.856   4.901 -0.4279 -0.4753 -0.2291
 2744TIP3    H1 8238   0.394   1.810   4.818 -1.1349  0.9790 -0.9962
 2744TIP3    H2 8239   0.387   1.948   4.879 -1.8120 -0.2023  1.7502
 2745TIP3   OH2 8240   2.920   4.700   0.917 -0.4315  0.3213 -0.0096
 2745TIP3    H1 8241   2.943   4.636   0.849  0.5522  0.1420  0.4742
 2745TIP3    H2 8242   2.825   4.691   0.927 -0.2483 -1.5382  0.4946
 2746TIP3   OH2 8243   4.054   1.776   4.000 -0.4323 -0.1721 -0.0555
 2746TIP3    H1 8244   4.133   1.803   4.048 -0.7846 -1.2202  1.1613
 2746TIP3    H2 8245   3.984   1.783   4.065 -1.1533 -0.3379 -0.8135
 2747TIP3   OH2 8246   3.476   3.944   5.093 -0.6346  0.1214 -0.1076
 2747TIP3    H1 8247   3.555   3.954   5.146 -1.5620  3.0346  0.9220
 2747TIP3    H2 8248   3.414   3.902   5.153 -0.9258  1.1470  0.3324
 2748TIP3   OH2 8249   5.761   5.806   2.396  0.1942 -0.2372 -0.2206
 2748TIP3    H1 8250   5.690   5.753   2.359  0.3974  0.2685 -1.3706
 2748TIP3    H2 8251   5.717   5.871   2.450 -0.0554 -1.6504  1.3791
 2749TIP3   OH2 8252   6.062   5.946   4.130 -0.4995  0.4456 -0.9052
 2749TIP3    H1 8253   6.092   6.031   4.098 -0.1434 -0.0719 -2.0236
 2749TIP3    H2 8254   6.135   5.911   4.181 -1.1833  1.4109  0.7958
 2750TIP3   OH2 8255   1.560   0.971   0.065 -0.2412  0.0603 -0.0042
 2750TIP3    H1 8256   1.593   1.061   0.060 -0.2480  0.1176  0.8583
 2750TIP3    H2 8257   1.635   0.916   0.041 -0.1434  0.2832 -0.2076
 2751TIP3   OH2 8258   4.270   1.734   2.477  0.0680 -0.0095 -0.6375
 2751TIP3    H1 8259   4.227   1.716   2.394 -0.3875  0.2927 -0.4692
 2751TIP3    H2 8260   4.225   1.678   2.540 -0.0681  0.2895 -0.4654
 2752TIP3   OH2 8261   4.061   1.818   0.302  0.2382 -0.1803 -0.1139
 2752TIP3    H1 8262   4.101   1.748   0.355 -0.3399  0.4230  1.1541
 2752TIP3    H2 8263   3.973   1.827   0.337  0.0432  0.6559 -0.7968
 2753TIP3   OH2 8264   1.393   2.066   3.161  0.7767  0.1779  0.8129
 2753TIP3    H1 8265   1.390   2.143   3.103  0.1782 -0.5120 -0.1115
 2753TIP3    H2 8266   1.416   1.994   3.103 -0.2711 -0.6155  1.3394
 2754TIP3   OH2 8267   1.132   4.791   1.002 -0.0114  0.9140 -0.2386
 2754TIP3    H1 8268   1.129   4.886   1.013  1.5755  1.1607 -1.5144
 2754TIP3    H2 8269   1.159   4.779   0.911  1.1924 -0.7381  0.2956
 2755TIP3   OH2 8270   0.789   1.551   3.363  0.2548 -0.0627  0.0709
 2755TIP3    H1 8271   0.832   1.599   3.293 -1.3199 -1.3740 -1.9366
 2755TIP3    H2 8272   0.746   1.478   3.318 -4.2455  1.2213  1.7315
 2756TIP3   OH2 8273   4.555   1.306   4.586  0.0855  0.1863 -0.1709
 2756TIP3    H1 8274   4.559   1.220   4.543  0.0349  0.0785  0.0396
 2756TIP3    H2 8275   4.462   1.323   4.597  0.1042  0.1080  0.1079
 2757TIP3   OH2 8276   2.802   2.211   0.980  0.2058 -0.2434 -0.6062
 2757TIP3    H1 8277   2.818   2.263   1.059 -0.8303 -3.3218  1.8793
 2757TIP3    H2 8278   2.889   2.183   0.952  0.5169 -1.1267  1.0589
 2758TIP3   OH2 8279   6.166   4.157   2.908 -0.3156  0.6189  0.0733
 2758TIP3    H1 8280   6.160   4.174   2.814  0.8281  1.1897  0.0728
 2758TIP3    H2 8281   6.233   4.088   2.915 -1.7232 -0.7575  0.3713
 2759TIP3   OH2 8282   4.603   5.525   3.270 -0.1696  0.2177 -0.1232
 2759TIP3    H1 8283   4.510   5.521   3.295 -0.1704  0.7359 -0.0244
 2759TIP3    H2 8284   4.606   5.483   3.184 -1.0468  2.8239 -1.5563
 2760TIP3   OH2 8285   1.611   1.157   4.888 -0.1206 -0.4412 -0.3568
 2760TIP3    H1 8286   1.522   1.135   4.916  0.1276 -1.4245 -0.3240
 2760TIP3    H2 8287   1.664   1.083   4.915  0.9190  0.6248  0.6127
 2761TIP3   OH2 8288   6.135   2.505   1.294 -0.1303  0.0846  0.1521
 2761TIP3    H1 8289   6.094   2.535   1.213  1.5620 -0.3221 -0.9022
 2761TIP3    H2 8290   6.076   2.535   1.363 -2.0436 -0.2507 -1.2465
 2762TIP3   OH2 8291   2.568   3.824   0.746 -0.3313  0.1496 -0.3603
 2762TIP3    H1 8292   2.486   3.782   0.768  0.1086 -0.5419 -0.0113
 2762TIP3    H2 8293   2.616   3.828   0.828  1.0284 -1.7846 -0.9995
 2763TIP3   OH2 8294   4.325   2.718   3.420 -0.3175 -0.3712 -0.7688
 2763TIP3    H1 8295   4.415   2.738   3.444 -0.0671 -0.7850 -1.3567
 2763TIP3    H2 8296   4.299   2.789   3.361 -0.8308  0.4777  0.4393
 2764TIP3   OH2 8297   5.199   0.391   2.688 -0.2773 -0.4481  0.1919
 2764TIP3    H1 8298   5.194   0.485   2.706 -1.0049 -0.3143 -0.6324
 2764TIP3    H2 8299   5.286   0.366   2.718  0.2496  0.6625 -0.3199
 2765TIP3   OH2 8300   1.110   5.669   1.477  0.2858 -0.0046  0.3803
 2765TIP3    H1 8301   1.149   5.713   1.553  0.8220 -0.0174  0.1206
 2765TIP3    H2 8302   1.025   5.638   1.508 -0.2189  1.4345  0.4975
 2766TIP3   OH2 8303   4.293   5.612   0.624 -0.7490 -0.2760  0.2922
 2766TIP3    H1 8304   4.236   5.576   0.692 -2.3272 -0.9887 -1.3407
 2766TIP3    H2 8305   4.346   5.538   0.595  0.2153  0.1180  0.9570
 2767TIP3   OH2 8306   2.662   1.685   1.014 -0.2185  0.4396 -0.4012
 2767TIP3    H1 8307   2.721   1.753   0.982  0.8346  0.0604  0.6605
 2767TIP3    H2 8308   2.662   1.618   0.945 -0.1025  0.8334 -0.7860
 2768TIP3   OH2 8309   4.158   1.143   1.360  0.2722  0.1384 -0.7249
 2768TIP3    H1 8310   4.149   1.207   1.290 -0.9119 -0.1085 -0.8313
 2768TIP3    H2 8311   4.172   1.060   1.314  2.1476  0.3433 -0.5804
 2769TIP3   OH2 8312   6.069   3.793   2.864  0.3841  0.0016 -0.4486
 2769TIP3    H1 8313   6.024   3.854   2.923  2.1811  1.0658 -0.1049
 2769TIP3    H2 8314   6.049   3.825   2.776  0.7397  0.6707 -0.2920
 2770TIP3   OH2 8315   5.917   0.758   3.108 -0.6198 -0.0496 -0.2076
 2770TIP3    H1 8316   5.903   0.846   3.142 -1.5610  0.0241 -0.7516
 2770TIP3    H2 8317   5.829   0.726   3.086 -0.4789 -1.7105  1.3717
 2771TIP3   OH2 8318   5.615   5.223   1.570  0.0925  0.0994  0.0762
 2771TIP3    H1 8319   5.671   5.147   1.558  0.2127 -0.1365  1.8211
 2771TIP3    H2 8320   5.579   5.212   1.658 -2.1811  0.5886 -0.7284
 2772TIP3   OH2 8321   1.445   4.436   3.569  0.2289  0.3345 -0.3443
 2772TIP3    H1 8322   1.436   4.350   3.610 -0.8292  0.7790  0.4166
 2772TIP3    H2 8323   1.537   4.460   3.583  0.4190 -0.4768 -0.1704
 2773TIP3   OH2 8324   0.856   1.844   2.064  0.4026  0.5277  0.0372
 2773TIP3    H1 8325   0.949   1.834   2.048  0.3843  0.1185  0.1833
 2773TIP3    H2 8326   0.816   1.764   2.029  0.1224  0.6342  0.1064
 2774TIP3   OH2 8327   2.844   3.763   4.679 -0.1728 -0.4995  0.1438
 2774TIP3    H1 8328   2.939   3.756   4.684 -0.2014 -1.1064 -0.0142
 2774TIP3    H2 8329   2.820   3.708   4.604 -0.6419 -0.3194  0.1618
 2775TIP3   OH2 8330   5.583   2.043   4.460  0.2775  0.0413  0.0595
 2775TIP3    H1 8331   5.528   2.120   4.444  0.6167  0.5042  0.9929
 2775TIP3    H2 8332   5.523   1.969   4.459 -0.1586  0.3976 -0.2156
 2776TIP3   OH2 8333   1.849   4.092   3.655 -0.2666  0.4385 -0.9646
 2776TIP3    H1 8334   1.834   4.145   3.733  1.2492  2.0973 -1.7294
 2776TIP3    H2 8335   1.765   4.091   3.610 -0.9576  0.0905  0.2621
 2777TIP3   OH2 8336   0.429   3.400   0.433 -0.3712  0.2575  0.1240
 2777TIP3    H1 8337   0.419   3.469   0.367 -2.0143 -1.6104 -1.7192
 2777TIP3    H2 8338   0.351   3.408   0.488  0.5917  1.2873  1.3929
 2778TIP3   OH2 8339   2.709   1.302   4.782  0.2664  0.7410 -0.8553
 2778TIP3    H1 8340   2.781   1.242   4.764 -0.5721 -0.4476 -0.3872
 2778TIP3    H2 8341   2.679   1.278   4.870 -0.3379  1.5822 -0.8173
 2779TIP3   OH2 8342   2.258   3.081   1.927  0.4014 -0.2247 -0.1802
 2779TIP3    H1 8343   2.268   3.076   1.832 -0.4087 -0.3927 -0.2589
 2779TIP3    H2 8344   2.264   3.175   1.946 -1.1479 -0.0183 -0.6027
 2780TIP3   OH2 8345   3.112   3.613   1.103  0.1910  0.2448  0.1373
 2780TIP3    H1 8346   3.073   3.600   1.190  0.8998 -0.1601  0.4010
 2780TIP3    H2 8347   3.118   3.524   1.066  0.5712  0.3369 -0.0269
 2781TIP3   OH2 8348   3.173   0.291   4.513  0.6754  0.5328 -0.0090
 2781TIP3    H1 8349   3.246   0.321   4.567 -0.9175 -0.3893  2.8287
 2781TIP3    H2 8350   3.095   0.307   4.566 -1.0142 -0.5819 -1.9965
 2782TIP3   OH2 8351   3.427   2.450   4.144 -0.1920 -0.4628 -0.6456
 2782TIP3    H1 8352   3.435   2.441   4.239 -0.9169  0.6300 -0.4584
 2782TIP3    H2 8353   3.466   2.370   4.108  2.1341  0.0793  0.4766
 2783TIP3   OH2 8354   2.481   2.143   2.851 -0.0902  1.0181  0.1188
 2783TIP3    H1 8355   2.478   2.124   2.757 -0.3256  0.3194  0.2592
 2783TIP3    H2 8356   2.504   2.059   2.891  2.4754  1.8288  0.5165
 2784TIP3   OH2 8357   0.966   0.417   3.217  0.4257 -0.5311 -0.6036
 2784TIP3    H1 8358   0.979   0.421   3.123  0.6431 -0.6397 -0.5799
 2784TIP3    H2 8359   1.013   0.493   3.251  1.8394 -1.4463 -0.4333
 2785TIP3   OH2 8360   2.289   3.712   0.822 -0.4565  0.2059 -0.0474
 2785TIP3    H1 8361   2.234   3.753   0.888  0.1733  2.8185 -1.0338
 2785TIP3    H2 8362   2.233   3.709   0.744 -0.5071 -0.9224  0.0179
 2786TIP3   OH2 8363   5.616   0.868   1.080  0.0168  0.5009 -0.5200
 2786TIP3    H1 8364   5.651   0.821   1.156 -0.5502 -1.3806 -1.3766
 2786TIP3    H2 8365   5.522   0.854   1.085 -0.1060  1.0669 -1.1408
 2787TIP3   OH2 8366   1.905   1.774   3.209  0.2720 -0.2534 -0.2589
 2787TIP3    H1 8367   1.908   1.718   3.287  1.6006 -0.1974 -0.2414
 2787TIP3    H2 8368   1.943   1.857   3.237 -2.0358  0.8638 -0.1827
 2788TIP3   OH2 8369   5.400   2.689   1.837  0.3770  0.1711  0.2973
 2788TIP3    H1 8370   5.358   2.773   1.854  3.0458  1.8362 -0.8202
 2788TIP3    H2 8371   5.337   2.641   1.783 -0.9457  1.6907  0.4335
 2789TIP3   OH2 8372   2.860   1.186   2.956  0.1974  0.3069 -0.1892
 2789TIP3    H1 8373   2.796   1.225   2.898 -2.2981 -1.7754  0.9265
 2789TIP3    H2 8374   2.900   1.116   2.905 -0.8136 -0.4689  0.0517
 2790TIP3   OH2 8375   3.177   0.185   3.298 -0.1973 -0.1625 -0.0524
 2790TIP3    H1 8376   3.112   0.214   3.361  1.0446  0.0334  1.2033
 2790TIP3    H2 8377   3.247   0.148   3.352  0.4611 -0.9312 -1.3774
 2791TIP3   OH2 8378   1.760   0.585   2.542  0.0221  0.5226 -0.2868
 2791TIP3    H1 8379   1.728   0.661   2.591 -0.8417 -0.2653  0.3999
 2791TIP3    H2 8380   1.695   0.516   2.558  1.5826 -0.8553  0.4070
 2792TIP3   OH2 8381   1.577   2.978   1.648  1.0068 -0.5279 -0.1372
 2792TIP3    H1 8382   1.571   3.032   1.727 -0.0576 -1.0893  0.1839
 2792TIP3    H2 8383   1.626   2.901   1.676  0.0309 -1.0481  0.1723
 2793TIP3   OH2 8384   0.113   2.175   4.371 -0.1120 -1.0095 -0.1009
 2793TIP3    H1 8385   0.126   2.209   4.283 -0.3876  0.4645  0.4073
 2793TIP3    H2 8386   0.063   2.094   4.358 -0.7368 -0.4609 -1.2373
 2794TIP3   OH2 8387   6.300   4.877   4.684 -0.0087 -0.0322 -0.8643
 2794TIP3    H1 8388   6.247   4.864   4.606 -1.0988  0.6791 -0.2559
 2794TIP3    H2 8389   6.331   4.967   4.677 -1.1921  0.4706  0.1571
 2795TIP3   OH2 8390   4.581   5.312   4.998 -0.1554 -0.0105 -0.0310
 2795TIP3    H1 8391   4.532   5.302   4.916  1.1161 -0.3636 -0.7666
 2795TIP3    H2 8392   4.611   5.403   4.997 -0.5942  0.1442  0.3196
 2796TIP3   OH2 8393   3.371   0.847   3.287  0.1275  0.0073 -0.3063
 2796TIP3    H1 8394   3.420   0.926   3.264  0.5506 -0.6239 -1.6758
 2796TIP3    H2 8395   3.297   0.846   3.227  0.6878 -1.1502 -1.0231
 2797TIP3   OH2 8396   0.121   1.720   2.349 -0.3467 -0.2087 -0.3637
 2797TIP3    H1 8397   0.057   1.791   2.348  0.3910  0.5144  0.9627
 2797TIP3    H2 8398   0.197   1.756   2.394 -0.3825 -2.1519  1.4647
 2798TIP3   OH2 8399   2.689   1.141   3.179 -0.2385  0.4997 -0.4527
 2798TIP3    H1 8400   2.753   1.141   3.108  1.8243  2.0871  1.2668
 2798TIP3    H2 8401   2.718   1.069   3.237 -1.6775 -0.5435 -0.9720
 2799TIP3   OH2 8402   2.662   3.395   4.046  0.5699  0.7479  0.0488
 2799TIP3    H1 8403   2.644   3.365   3.957  0.4286 -1.2316  0.7056
 2799TIP3    H2 8404   2.575   3.403   4.086  0.6616  1.1632  0.1740
 2800TIP3   OH2 8405   0.463   4.070   4.622 -0.3787  0.8889  0.4996
 2800TIP3    H1 8406   0.540   4.056   4.677  0.4452  1.6810 -0.4146
 2800TIP3    H2 8407   0.472   4.008   4.550  0.5528  2.4051 -0.7497
 2801TIP3   OH2 8408   3.261   2.379   5.202 -0.1907  0.5642 -0.4747
 2801TIP3    H1 8409   3.166   2.381   5.214  0.0042  0.6740  1.4997
 2801TIP3    H2 8410   3.279   2.451   5.142 -1.2982  1.0115 -0.3031
 2802TIP3   OH2 8411   2.289   5.154   0.514 -0.8849  0.3596  0.2614
 2802TIP3    H1 8412   2.336   5.210   0.452 -1.5957 -0.2283 -0.8538
 2802TIP3    H2 8413   2.217   5.117   0.462 -0.5397 -1.4295  0.9983
 2803TIP3   OH2 8414   5.548   2.775   1.271  0.1793 -0.3349 -0.1429
 2803TIP3    H1 8415   5.606   2.706   1.238  1.6452  0.6187  0.3429
 2803TIP3    H2 8416   5.553   2.767   1.366  0.1753  0.3036 -0.0874
 2804TIP3   OH2 8417   5.471   0.311   5.125 -0.3336  0.2563  0.0350
 2804TIP3    H1 8418   5.443   0.336   5.213  0.4858  0.2088  0.3200
 2804TIP3    H2 8419   5.455   0.217   5.121  0.6470  0.0575  0.5360
 2805TIP3   OH2 8420   3.755   1.605   4.674  0.3332  0.0892  0.1014
 2805TIP3    H1 8421   3.665   1.627   4.651  0.8740 -0.1486 -2.6471
 2805TIP3    H2 8422   3.755   1.510   4.682  0.5244 -0.0325 -1.1041
 2806TIP3   OH2 8423   5.822   4.956   4.360  0.3347  0.3510  0.2329
 2806TIP3    H1 8424   5.803   5.041   4.400  0.6493 -0.1315  1.4403
 2806TIP3    H2 8425   5.881   4.977   4.288  0.5919  1.1411  0.6593
 2807TIP3   OH2 8426   2.222   1.828   3.950 -0.0746 -0.5229  0.6065
 2807TIP3    H1 8427   2.287   1.870   3.894 -1.7146  0.9958 -0.2824
 2807TIP3    H2 8428   2.176   1.767   3.892 -0.8400  0.0131  0.6301
 2808TIP3   OH2 8429   1.458   2.736   4.296 -0.9512  0.1971 -0.0902
 2808TIP3    H1 8430   1.396   2.767   4.230  0.7872  0.2136 -1.7911
 2808TIP3    H2 8431   1.540   2.782   4.276 -0.9134  2.0229  3.5909
 2809TIP3   OH2 8432   1.349   2.812   0.513 -0.1579 -0.4330 -0.7057
 2809TIP3    H1 8433   1.276   2.762   0.551  1.9746 -2.3045  1.2559
 2809TIP3    H2 8434   1.395   2.849   0.589  1.3396  0.0890 -1.8142
 2810TIP3   OH2 8435   3.023   4.086   2.401 -0.4159  0.6369  0.1450
 2810TIP3    H1 8436   3.096   4.127   2.447  0.8538 -0.7229 -0.5901
 2810TIP3    H2 8437   3.011   4.002   2.445 -0.0644 -0.1021 -1.1125
 2811TIP3   OH2 8438   6.043   5.019   3.654  0.0178  0.5160 -0.0240
 2811TIP3    H1 8439   5.949   5.025   3.636 -0.3065 -0.5016  1.2334
 2811TIP3    H2 8440   6.082   5.083   3.595 -1.3839  0.3980 -1.1403
 2812TIP3   OH2 8441   2.033   0.679   3.834 -0.0205  0.3632 -0.3939
 2812TIP3    H1 8442   2.107   0.660   3.777 -0.4107 -1.0435 -0.4804
 2812TIP3    H2 8443   1.960   0.629   3.796  0.0194 -1.7785  2.0422
 2813TIP3   OH2 8444   0.383   1.458   1.273  0.2095  0.5185  0.2569
 2813TIP3    H1 8445   0.394   1.496   1.186  1.4792  1.0063  0.5980
 2813TIP3    H2 8446   0.464   1.482   1.319  1.0174 -2.4138  0.5671
 2814TIP3   OH2 8447   1.053   2.968   1.380  0.1712 -0.6844 -0.9426
 2814TIP3    H1 8448   1.088   2.883   1.353  0.3460 -0.8250 -0.2895
 2814TIP3    H2 8449   1.051   3.020   1.300  0.1459 -1.2750 -1.3305
 2815TIP3   OH2 8450   4.221   0.019   4.826  0.7874 -0.2764  0.3089
 2815TIP3    H1 8451   4.216  -0.064   4.778 -0.6518 -0.4599  0.7066
 2815TIP3    H2 8452   4.137   0.062   4.807  0.8180  0.3175  1.4433
 2816TIP3   OH2 8453   4.000   3.491   0.289 -0.0209  0.2194  0.2546
 2816TIP3    H1 8454   3.921   3.546   0.288 -0.5544 -0.5296 -0.0148
 2816TIP3    H2 8455   4.033   3.497   0.378  0.1121  1.2189  0.1524
 2817TIP3   OH2 8456   3.962   1.483   0.144 -0.4034  0.4483  0.2413
 2817TIP3    H1 8457   3.973   1.491   0.239 -3.0030 -0.5575  0.7222
 2817TIP3    H2 8458   3.959   1.389   0.128  2.6144  0.4976 -1.3104
 2818TIP3   OH2 8459   1.477   0.890   1.791  0.7510  0.0035  0.1911
 2818TIP3    H1 8460   1.535   0.905   1.716  1.1111  0.0641  0.4802
 2818TIP3    H2 8461   1.472   0.795   1.799  0.5118 -0.0051 -0.0655
 2819TIP3   OH2 8462   6.339   4.638   3.210  0.0716  0.0395  0.3956
 2819TIP3    H1 8463   6.381   4.554   3.193 -0.6415 -1.0999  3.4953
 2819TIP3    H2 8464   6.248   4.626   3.183  0.8664  1.5977 -3.7253
 2820TIP3   OH2 8465   1.834   5.253   4.328 -0.2838 -0.4603 -0.1351
 2820TIP3    H1 8466   1.891   5.176   4.321  1.3947  0.7739 -0.7225
 2820TIP3    H2 8467   1.812   5.259   4.421  1.2584 -0.4909  0.2484
 2821TIP3   OH2 8468   2.827   5.524   0.078 -0.2873  0.6153  0.5618
 2821TIP3    H1 8469   2.888   5.563   0.141  1.2818  0.9480 -1.0826
 2821TIP3    H2 8470   2.786   5.599   0.035  1.3404  0.5172 -1.2879
 2822TIP3   OH2 8471   2.414   1.020   4.884 -0.3013 -0.0853 -0.0592
 2822TIP3    H1 8472   2.476   1.070   4.937 -1.5452  1.8283 -0.2980
 2822TIP3    H2 8473   2.355   0.980   4.948 -0.0516 -0.2233  0.0879
 2823TIP3   OH2 8474   0.446   3.094   3.251  0.3297 -0.1397  0.0935
 2823TIP3    H1 8475   0.402   3.043   3.319 -0.6885 -0.2908 -0.6518
 2823TIP3    H2 8476   0.379   3.156   3.221  1.2023  0.8706  0.1948
 2824TIP3   OH2 8477   3.801   5.397   0.863  0.2382  0.3055 -0.1151
 2824TIP3    H1 8478   3.713   5.395   0.899  0.6727 -1.6165  1.0310
 2824TIP3    H2 8479   3.841   5.476   0.899 -0.9339  1.0746 -0.4756
 2825TIP3   OH2 8480   5.157   2.236   1.412 -0.2866  0.1481 -0.1559
 2825TIP3    H1 8481   5.088   2.262   1.351 -1.3048 -0.4377  0.7123
 2825TIP3    H2 8482   5.190   2.154   1.377  0.4759  0.7676 -0.9489
 2826TIP3   OH2 8483   0.179   2.070   4.983 -0.5901 -0.4816 -0.1950
 2826TIP3    H1 8484   0.124   2.023   4.920 -1.9101  1.3875 -0.5222
 2826TIP3    H2 8485   0.235   2.125   4.929 -0.0738 -0.6043  0.2125
 2827TIP3   OH2 8486   0.634   2.504   4.460  0.2627 -0.0987  0.1750
 2827TIP3    H1 8487   0.664   2.552   4.537 -1.5541  2.4537 -0.5755
 2827TIP3    H2 8488   0.538   2.510   4.464  0.0939 -0.6110 -1.8327
 2828TIP3   OH2 8489   1.793   3.363   1.403  0.0522  0.0088 -0.3172
 2828TIP3    H1 8490   1.800   3.451   1.366 -1.3343  0.0215 -0.6013
 2828TIP3    H2 8491   1.719   3.323   1.358  0.5913 -1.2815 -0.1193
 2829TIP3   OH2 8492   4.321   0.591   1.599 -0.6523  0.6343  0.0851
 2829TIP3    H1 8493   4.321   0.608   1.505  0.0058  1.5288  0.2286
 2829TIP3    H2 8494   4.350   0.674   1.638  0.3027 -0.0992  0.9947
 2830TIP3   OH2 8495   1.384   1.296   1.307  0.2571 -0.2368  0.7415
 2830TIP3    H1 8496   1.403   1.232   1.375  1.1002  0.0785  0.8174
 2830TIP3    H2 8497   1.404   1.381   1.347  0.3346 -0.0190  0.2557
 2831TIP3   OH2 8498   1.118   3.039   4.053 -0.0530 -0.6913 -0.5651
 2831TIP3    H1 8499   1.045   3.018   4.111  0.8911 -1.1411  0.4996
 2831TIP3    H2 8500   1.196   3.032   4.108  0.8972 -1.2533 -1.9112
 2832TIP3   OH2 8501   1.871   3.133   3.614 -0.3530  0.6555 -0.0804
 2832TIP3    H1 8502   1.872   3.048   3.657 -0.3241  0.6930 -0.0063
 2832TIP3    H2 8503   1.829   3.192   3.677 -0.2920  0.7152 -0.0951
 2833TIP3   OH2 8504   0.851   0.658   4.294 -0.1915  0.1830 -0.1397
 2833TIP3    H1 8505   0.819   0.696   4.212 -0.7345 -0.0076 -0.0262
 2833TIP3    H2 8506   0.936   0.621   4.273 -0.1494  0.4933 -0.5185
 2834TIP3   OH2 8507   4.723   4.294   0.482 -0.3020  0.2424 -0.5724
 2834TIP3    H1 8508   4.774   4.221   0.518  1.1249  0.7398 -1.5236
 2834TIP3    H2 8509   4.702   4.348   0.558  0.9669  0.2519 -0.2092
 2835TIP3   OH2 8510   6.200   3.808   3.415 -0.1711 -0.3652 -0.1168
 2835TIP3    H1 8511   6.111   3.780   3.436 -0.6037  1.1634  0.2106
 2835TIP3    H2 8512   6.199   3.824   3.321 -0.5286  0.5243  0.0231
 2836TIP3   OH2 8513   5.013   0.215   5.084  0.3241  0.1699  0.5430
 2836TIP3    H1 8514   4.963   0.271   5.025  0.6781 -0.6857 -0.6141
 2836TIP3    H2 8515   5.007   0.257   5.169 -2.8911 -0.1849  0.6048
 2837TIP3   OH2 8516   0.948   0.110   1.288 -0.5834 -0.1106  0.4980
 2837TIP3    H1 8517   1.008   0.184   1.285 -0.3434 -0.3365 -0.3903
 2837TIP3    H2 8518   0.927   0.092   1.196 -1.3955 -0.5297  0.7561
 2838TIP3   OH2 8519   1.416   5.432   3.988 -0.3387  0.2947 -0.3230
 2838TIP3    H1 8520   1.510   5.450   3.992 -0.4770  0.8359  0.7834
 2838TIP3    H2 8521   1.411   5.344   3.950  0.6199  0.1671 -0.1946
 2839TIP3   OH2 8522   1.572   1.647   1.925 -0.1625 -0.0325  0.3773
 2839TIP3    H1 8523   1.494   1.658   1.980  0.2102  1.3178  0.6659
 2839TIP3    H2 8524   1.592   1.735   1.894  2.2403 -0.0343  1.6891
 2840TIP3   OH2 8525   2.966   3.028   3.473 -0.2453 -0.0063  0.5382
 2840TIP3    H1 8526   2.978   2.972   3.396  1.1676  0.4007  0.4225
 2840TIP3    H2 8527   2.874   3.019   3.496 -0.4640 -0.9047 -0.6093
 2841TIP3   OH2 8528   0.015   4.533   0.467 -0.4563 -0.2027  0.0510
 2841TIP3    H1 8529   0.023   4.531   0.562  0.4625 -0.9413 -0.0234
 2841TIP3    H2 8530   0.056   4.451   0.438  0.9199  0.8155 -1.0669
 2842TIP3   OH2 8531   3.506   3.202   3.836  0.5026  0.3181 -0.7494
 2842TIP3    H1 8532   3.444   3.251   3.783 -0.2268 -0.0712 -0.2826
 2842TIP3    H2 8533   3.455   3.128   3.870  0.7219  0.9624  1.0989
 2843TIP3   OH2 8534   3.336   2.586   0.745 -0.4412  0.0430  0.2219
 2843TIP3    H1 8535   3.320   2.584   0.650 -1.0857 -0.8386  0.3316
 2843TIP3    H2 8536   3.267   2.641   0.780 -0.9368 -0.6138  0.2952
 2844TIP3   OH2 8537   4.187   1.729   3.215  0.0502 -0.7666  0.1309
 2844TIP3    H1 8538   4.221   1.702   3.300  2.0206  1.0552  0.0052
 2844TIP3    H2 8539   4.134   1.806   3.233 -1.7562 -1.9076 -0.0381
 2845TIP3   OH2 8540   2.659   0.421   0.691 -0.1298 -0.0061  0.3048
 2845TIP3    H1 8541   2.717   0.457   0.624 -1.7574  1.7868 -0.2427
 2845TIP3    H2 8542   2.577   0.470   0.680 -0.9501 -0.7386  2.6118
 2846TIP3   OH2 8543   2.549   0.242   3.476  0.1845 -0.0457  0.1081
 2846TIP3    H1 8544   2.505   0.203   3.552 -0.9523  0.6842 -0.1590
 2846TIP3    H2 8545   2.608   0.307   3.514 -0.0649  0.0164  0.3955
 2847TIP3   OH2 8546   3.949   2.201   1.691 -0.2991 -0.6275 -0.2181
 2847TIP3    H1 8547   3.866   2.240   1.663  0.4032  1.7918  0.8495
 2847TIP3    H2 8548   3.992   2.175   1.610 -1.4818 -0.6031 -0.8736
 2848TIP3   OH2 8549   3.820   4.970   5.040  0.1225 -0.1432 -0.2536
 2848TIP3    H1 8550   3.822   4.875   5.045  0.7175 -0.1091  0.2732
 2848TIP3    H2 8551   3.763   4.997   5.112  2.0246 -0.0106  1.2871
 2849TIP3   OH2 8552   4.463   1.261   1.306 -0.0292 -0.0696 -0.0511
 2849TIP3    H1 8553   4.544   1.288   1.349 -0.0523  0.2224 -0.1855
 2849TIP3    H2 8554   4.403   1.241   1.377 -0.0447  0.3392  0.0527
 2850TIP3   OH2 8555   3.050   4.946   0.725  0.1746  0.7781  0.6039
 2850TIP3    H1 8556   3.032   4.990   0.809  0.2788  2.5298 -0.2416
 2850TIP3    H2 8557   2.964   4.935   0.685  0.2410  1.2332  0.3322
 2851TIP3   OH2 8558   6.364   5.233   0.462 -0.1239 -0.2262 -0.3132
 2851TIP3    H1 8559   6.307   5.192   0.528  0.5317 -3.2545 -1.4581
 2851TIP3    H2 8560   6.308   5.298   0.420 -1.6878 -0.7803  0.7990
 2852TIP3   OH2 8561   5.912   5.089   2.100 -0.4903 -0.5498  1.0333
 2852TIP3    H1 8562   5.824   5.054   2.111 -0.4588 -1.6875 -1.7205
 2852TIP3    H2 8563   5.966   5.014   2.076  0.6617  0.5233  0.0828
 2853TIP3   OH2 8564   3.975   5.389   3.246  0.1177  0.3514 -0.2519
 2853TIP3    H1 8565   4.050   5.396   3.186 -0.5062 -1.7806 -1.3707
 2853TIP3    H2 8566   3.900   5.375   3.188 -1.0720  1.7530  0.8889
 2854TIP3   OH2 8567   3.441   3.523   0.466 -0.2629 -0.1468 -0.2433
 2854TIP3    H1 8568   3.484   3.571   0.395 -0.3590  0.6873  0.2574
 2854TIP3    H2 8569   3.513   3.479   0.512 -0.2940 -1.5327 -1.4543
 2855TIP3   OH2 8570   2.524   3.720   3.265  0.0090  0.3279 -0.5811
 2855TIP3    H1 8571   2.561   3.646   3.217 -0.2741  0.2071 -0.6126
 2855TIP3    H2 8572   2.564   3.797   3.225  0.3082  0.1933 -0.5460
 2856TIP3   OH2 8573   3.036   0.785   4.851  0.0065 -0.2212 -0.0932
 2856TIP3    H1 8574   2.951   0.820   4.879  0.4996  0.4492  0.6350
 2856TIP3    H2 8575   3.098   0.856   4.870  0.9117 -1.1621  0.5832
 2857TIP3   OH2 8576   0.171   1.527   0.823 -0.6186 -0.1848  0.8742
 2857TIP3    H1 8577   0.170   1.445   0.773  0.9997 -0.1799  0.7818
 2857TIP3    H2 8578   0.082   1.560   0.815 -0.6592 -0.6220 -1.3087
 2858TIP3   OH2 8579   0.346   1.277   3.242  0.4201 -0.2566 -0.1200
 2858TIP3    H1 8580   0.342   1.202   3.301  2.1763  1.6910  2.7391
 2858TIP3    H2 8581   0.430   1.266   3.196  0.2434 -0.5083 -0.3821
 2859TIP3   OH2 8582   1.990   0.073   3.576  0.1448 -0.1844 -0.1427
 2859TIP3    H1 8583   2.011   0.166   3.584 -0.0765 -0.2806  2.2319
 2859TIP3    H2 8584   2.018   0.035   3.659  0.1286 -2.2337 -1.0224
 2860TIP3   OH2 8585   1.120   0.559   2.358 -0.3121  0.0526 -0.5326
 2860TIP3    H1 8586   1.157   0.593   2.277  1.3551  0.4494  0.3584
 2860TIP3    H2 8587   1.089   0.471   2.336 -1.0424  0.6158 -1.8804
 2861TIP3   OH2 8588   0.138   1.588   3.609  0.3818  0.0200  0.5288
 2861TIP3    H1 8589   0.187   1.589   3.527 -2.7244  1.1588 -1.4893
 2861TIP3    H2 8590   0.121   1.496   3.626  0.5533 -0.2114 -0.4729
 2862TIP3   OH2 8591   3.569   2.550   2.275 -0.0647 -0.2014 -0.2195
 2862TIP3    H1 8592   3.612   2.516   2.353  0.5909 -2.2361 -1.4016
 2862TIP3    H2 8593   3.478   2.567   2.302 -0.0579 -1.6562  0.7861
 2863TIP3   OH2 8594   4.357   5.519   4.245 -0.3025  0.1106  0.0739
 2863TIP3    H1 8595   4.397   5.606   4.245 -0.0266 -0.0156 -0.0720
 2863TIP3    H2 8596   4.416   5.465   4.298 -1.5802  0.5065  2.0534
 2864TIP3   OH2 8597   3.258   0.055   3.943 -0.0840 -0.2015 -0.0287
 2864TIP3    H1 8598   3.288   0.004   3.868  0.1695 -0.4028  0.2073
 2864TIP3    H2 8599   3.243  -0.009   4.012  0.8554  0.0941  0.4699
 2865TIP3   OH2 8600   3.297   5.228   3.845  0.4602 -0.2738  0.1805
 2865TIP3    H1 8601   3.315   5.172   3.921  0.7081  0.1171  0.4121
 2865TIP3    H2 8602   3.244   5.299   3.880 -0.0653 -0.4965 -0.1630
 2866TIP3   OH2 8603   0.137   1.319   0.350  0.2399 -0.6372  0.1044
 2866TIP3    H1 8604   0.126   1.226   0.366 -0.6556 -0.3808  1.1218
 2866TIP3    H2 8605   0.068   1.342   0.288  1.6984 -0.9997 -1.7523
 2867TIP3   OH2 8606   2.098   4.946   1.587  0.3671 -0.6365 -1.0128
 2867TIP3    H1 8607   2.142   4.904   1.514  0.5589 -2.0905 -0.0890
 2867TIP3    H2 8608   2.132   4.903   1.665 -1.2678 -0.4807 -0.1573
 2868TIP3   OH2 8609   2.969   5.573   4.651  0.0025 -0.0230  0.4121
 2868TIP3    H1 8610   3.047   5.628   4.643 -0.1799  0.6009  2.2213
 2868TIP3    H2 8611   2.902   5.633   4.684 -0.3486 -1.1785  1.9258
 2869TIP3   OH2 8612   1.629   2.904   4.785  0.3652 -1.0094  0.5921
 2869TIP3    H1 8613   1.668   2.852   4.715 -0.8813 -1.2444  0.0509
 2869TIP3    H2 8614   1.700   2.915   4.849  0.9652 -2.4259  0.2015
 2870TIP3   OH2 8615   1.450   2.153   0.725  0.5344  0.3865  0.5673
 2870TIP3    H1 8616   1.375   2.195   0.767 -0.0452 -0.2596  0.2038
 2870TIP3    H2 8617   1.510   2.224   0.705 -0.6263  1.1244 -0.4571
 2871TIP3   OH2 8618   5.353   3.864   2.475  0.0791  0.3982  0.0685
 2871TIP3    H1 8619   5.357   3.921   2.398 -1.3065 -1.4401 -1.4537
 2871TIP3    H2 8620   5.259   3.857   2.495  0.3567  0.0634  1.3354
 2872TIP3   OH2 8621   2.983   0.831   4.445 -0.0190  0.1163 -0.3290
 2872TIP3    H1 8622   2.999   0.747   4.487 -0.5836 -0.0483 -0.4283
 2872TIP3    H2 8623   2.918   0.874   4.502  0.0753  0.3754 -0.4153
 2873TIP3   OH2 8624   6.061   3.619   2.564 -0.2476  0.3937  0.1535
 2873TIP3    H1 8625   6.030   3.702   2.601  0.3789  0.6006  0.2239
 2873TIP3    H2 8626   6.009   3.607   2.485 -0.9592  0.4099  0.6052
 2874TIP3   OH2 8627   5.277   1.639   3.955 -0.1099  0.0410  0.3535
 2874TIP3    H1 8628   5.241   1.666   3.870  1.0122 -0.6164 -0.3602
 2874TIP3    H2 8629   5.371   1.634   3.940 -0.0347 -1.5718  1.2109
 2875TIP3   OH2 8630   2.993   5.870   1.038 -0.1156  0.1705 -0.3800
 2875TIP3    H1 8631   3.086   5.890   1.027 -0.4435  1.1752 -1.6360
 2875TIP3    H2 8632   2.975   5.802   0.972 -0.1725 -0.4011  0.2141
 2876TIP3   OH2 8633   0.308   2.274   0.614 -0.0196 -0.3553  0.3171
 2876TIP3    H1 8634   0.380   2.335   0.600  0.4081 -0.2907  2.5328
 2876TIP3    H2 8635   0.350   2.195   0.650 -0.9094 -0.8424  0.3105
 2877TIP3   OH2 8636   1.806   3.634   1.258  0.0963  0.2050 -0.3389
 2877TIP3    H1 8637   1.812   3.676   1.172 -0.9191  2.3356  0.5513
 2877TIP3    H2 8638   1.714   3.608   1.266  0.4119 -0.9529 -0.2983
 2878TIP3   OH2 8639   2.140   4.209  -0.009 -0.4060 -0.1027  0.2090
 2878TIP3    H1 8640   2.215   4.153   0.014 -0.2245  0.1074  0.1275
 2878TIP3    H2 8641   2.143   4.279   0.056  0.4495  0.8159 -0.7882
 2879TIP3   OH2 8642   4.744   0.898   2.492 -0.5411 -0.5519 -0.2038
 2879TIP3    H1 8643   4.667   0.907   2.436 -0.1976 -0.8402 -0.7345
 2879TIP3    H2 8644   4.757   0.985   2.530 -0.2732 -0.1216 -1.2521
 2880TIP3   OH2 8645   0.900   1.192   0.342  0.4513  0.6034  0.8165
 2880TIP3    H1 8646   0.982   1.191   0.390  1.0067 -3.6388  0.1542
 2880TIP3    H2 8647   0.845   1.126   0.385 -2.1763  2.3611  0.4372
 2881TIP3   OH2 8648   5.657   2.285   5.091 -0.5792  0.6704 -0.9021
 2881TIP3    H1 8649   5.633   2.377   5.079 -0.3522  0.6387 -1.6747
 2881TIP3    H2 8650   5.727   2.271   5.028  0.2215  0.2820  0.0575
 2882TIP3   OH2 8651   4.443   4.690   3.195 -0.3177 -0.2337 -0.0017
 2882TIP3    H1 8652   4.499   4.767   3.200  1.2507 -1.3172  0.0098
 2882TIP3    H2 8653   4.467   4.639   3.273 -0.8289 -1.0408 -0.3623
 2883TIP3   OH2 8654   4.764   4.667   1.841 -0.2564  0.0404 -0.2722
 2883TIP3    H1 8655   4.755   4.730   1.913 -2.1994 -1.1846  0.6403
 2883TIP3    H2 8656   4.784   4.584   1.884  2.7815 -0.0059 -1.4871
 2884TIP3   OH2 8657   6.216   2.189   2.686  0.2057 -0.4189 -0.1113
 2884TIP3    H1 8658   6.280   2.118   2.680  0.2853 -0.5011  1.2888
 2884TIP3    H2 8659   6.177   2.179   2.773 -2.3476 -0.8722 -1.2126
 2885TIP3   OH2 8660   3.342   2.277   4.766  0.0359 -0.0215 -0.2915
 2885TIP3    H1 8661   3.351   2.365   4.729  1.0332 -0.7420 -1.8986
 2885TIP3    H2 8662   3.299   2.226   4.697 -0.3165 -0.8564  0.5221
 2886TIP3   OH2 8663   1.133   4.278   3.712  0.6684 -0.0584 -0.0510
 2886TIP3    H1 8664   1.062   4.320   3.760  0.7184 -0.5646  0.4891
 2886TIP3    H2 8665   1.202   4.266   3.778  1.3025  0.5253 -0.5929
 2887TIP3   OH2 8666   0.822   4.581   2.579 -0.0265  0.3082  0.0797
 2887TIP3    H1 8667   0.754   4.541   2.633 -0.4480  1.9353  0.8116
 2887TIP3    H2 8668   0.850   4.658   2.629  2.8145 -0.6218  0.1009
 2888TIP3   OH2 8669   4.794   2.091   2.703  0.1116  0.4677 -0.3174
 2888TIP3    H1 8670   4.823   2.165   2.757  0.8963  0.8896 -1.2760
 2888TIP3    H2 8671   4.709   2.119   2.670 -1.5673 -0.7942  2.5430
 2889TIP3   OH2 8672   4.348   4.504   3.012  0.0050 -0.0679  0.2119
 2889TIP3    H1 8673   4.393   4.577   3.054  2.6275 -0.8507 -1.0138
 2889TIP3    H2 8674   4.419   4.452   2.973 -1.9474 -1.9254 -1.0452
 2890TIP3   OH2 8675   3.302   3.088   4.333 -0.5109 -0.0450 -0.0428
 2890TIP3    H1 8676   3.302   3.165   4.275 -2.2757 -0.8372 -1.1855
 2890TIP3    H2 8677   3.264   3.018   4.279 -1.3328 -1.0625  1.7746
 2891TIP3   OH2 8678   2.492   0.257   4.974  0.3657  0.2458  0.2134
 2891TIP3    H1 8679   2.513   0.286   5.063  0.6216 -0.0731  0.2601
 2891TIP3    H2 8680   2.408   0.213   4.983  0.6001 -0.1763  0.3836
 2892TIP3   OH2 8681   2.854   2.698   3.111  0.2268 -0.4705  0.1262
 2892TIP3    H1 8682   2.865   2.679   3.018  0.3959 -4.0270  0.7395
 2892TIP3    H2 8683   2.759   2.695   3.125  0.2613 -0.9468  0.2507
 2893TIP3   OH2 8684   1.770   1.219   2.532 -0.2578  0.1963 -0.6396
 2893TIP3    H1 8685   1.803   1.305   2.559  1.6996  0.2621 -2.9690
 2893TIP3    H2 8686   1.676   1.224   2.550 -0.1206  2.5798 -0.1385
 2894TIP3   OH2 8687   0.542   1.021   1.056 -0.2202 -0.3983  0.2069
 2894TIP3    H1 8688   0.460   0.974   1.075 -0.7918 -0.1320 -1.3676
 2894TIP3    H2 8689   0.609   0.972   1.102 -1.3406 -0.2155  2.1203
 2895TIP3   OH2 8690   4.503   4.762   4.408  0.1318  0.2911 -0.0516
 2895TIP3    H1 8691   4.474   4.767   4.499 -1.4892 -0.1650 -0.5074
 2895TIP3    H2 8692   4.484   4.849   4.372  0.3470  0.3301 -0.0711
 2896TIP3   OH2 8693   1.441   4.384   0.746  0.2069  0.3981 -0.0816
 2896TIP3    H1 8694   1.413   4.463   0.699 -4.6466 -1.4046 -0.8064
 2896TIP3    H2 8695   1.423   4.404   0.838 -0.5179  0.3737 -0.2086
 2897TIP3   OH2 8696   6.288   0.276   4.791  0.2636  0.6829 -0.4666
 2897TIP3    H1 8697   6.300   0.221   4.868  0.9357  1.0941 -0.2623
 2897TIP3    H2 8698   6.223   0.230   4.738 -0.1450  0.3594  0.3055
 2898TIP3   OH2 8699   0.668   4.490   0.041  0.4931  0.0413 -0.5263
 2898TIP3    H1 8700   0.681   4.537   0.122 -2.2353 -0.7872  0.4992
 2898TIP3    H2 8701   0.665   4.398   0.067  1.0742 -0.3643 -1.8040
 2899TIP3   OH2 8702   1.283   1.278   0.850 -0.5158 -0.3153 -0.4339
 2899TIP3    H1 8703   1.375   1.283   0.876 -1.0662  2.3188  1.4652
 2899TIP3    H2 8704   1.240   1.231   0.922 -0.9069  0.1761 -0.3376
 2900TIP3   OH2 8705   0.577   5.378   0.008 -0.1248  0.0556 -0.0697
 2900TIP3    H1 8706   0.644   5.347  -0.053 -0.9192 -0.2394 -0.8190
 2900TIP3    H2 8707   0.626   5.411   0.083  0.8396 -3.5810  1.1303
 2901TIP3   OH2 8708   2.420   1.247   2.173 -0.0420  0.2359 -0.5258
 2901TIP3    H1 8709   2.378   1.161   2.183  2.0209 -0.6188  1.8393
 2901TIP3    H2 8710   2.347   1.307   2.156 -1.9070 -1.5793  0.5583
 2902TIP3   OH2 8711   4.064   0.353   1.868 -0.4330  0.4817  0.3829
 2902TIP3    H1 8712   4.016   0.300   1.932 -0.4368  0.2492  0.1882
 2902TIP3    H2 8713   4.156   0.336   1.887 -0.3868 -1.4861 -1.1916
 2903TIP3   OH2 8714   3.607   4.776   0.975  0.4589 -0.2950 -0.3337
 2903TIP3    H1 8715   3.702   4.785   0.964  0.7369 -1.8902  0.4817
 2903TIP3    H2 8716   3.582   4.710   0.911 -0.3890  1.1046 -1.5364
 2904TIP3   OH2 8717   4.588   4.399   4.453 -0.3214  0.0101 -0.0587
 2904TIP3    H1 8718   4.569   4.480   4.500 -0.3622  1.1338 -1.9359
 2904TIP3    H2 8719   4.630   4.427   4.372  0.5765 -1.9176 -0.3122
 2905TIP3   OH2 8720   2.105   3.531   2.519  0.3154 -0.6628 -0.2173
 2905TIP3    H1 8721   2.161   3.460   2.551  0.4543 -0.8574 -0.8813
 2905TIP3    H2 8722   2.018   3.509   2.551  0.4754 -0.7868  0.1369
 2906TIP3   OH2 8723   0.876   3.714   2.736 -0.1328 -0.5912 -0.5234
 2906TIP3    H1 8724   0.857   3.651   2.666 -1.0588 -0.7219 -0.1675
 2906TIP3    H2 8725   0.822   3.685   2.810  0.0115  0.1803 -0.1071
 2907TIP3   OH2 8726   0.343   3.160   0.713  0.4831 -0.4171 -0.2325
 2907TIP3    H1 8727   0.293   3.079   0.720 -0.0928 -0.0044  0.7164
 2907TIP3    H2 8728   0.287   3.219   0.662  0.1384 -0.0668  0.5365
 2908TIP3   OH2 8729   0.366   2.429   3.816 -0.3202 -0.0990 -0.4217
 2908TIP3    H1 8730   0.451   2.427   3.861 -0.5775 -0.2159  0.0649
 2908TIP3    H2 8731   0.346   2.336   3.801 -1.4726 -0.2520  1.6121
 2909TIP3   OH2 8732   1.256   4.233   2.196  0.2617 -0.6948  0.1492
 2909TIP3    H1 8733   1.181   4.207   2.249 -0.2636 -0.6321 -0.5563
 2909TIP3    H2 8734   1.257   4.171   2.123  0.6384 -0.4259 -0.0809
 2910TIP3   OH2 8735   2.019   2.582   4.899 -0.3796 -0.1270  0.5444
 2910TIP3    H1 8736   2.051   2.492   4.894 -0.8611 -0.2236 -1.2556
 2910TIP3    H2 8737   1.967   2.594   4.820  0.9431  2.2398 -0.0638
 2911TIP3   OH2 8738   6.352   2.578   3.711  0.0887  0.3210  0.4951
 2911TIP3    H1 8739   6.312   2.530   3.784  0.6211  1.4015  1.5496
 2911TIP3    H2 8740   6.305   2.548   3.633  0.2330 -1.6776  1.1300
 2912TIP3   OH2 8741   4.230   0.606   3.878 -0.5147  0.3788  0.2408
 2912TIP3    H1 8742   4.249   0.533   3.819  0.3329  0.7457  0.0449
 2912TIP3    H2 8743   4.201   0.564   3.959 -0.9725 -0.1470 -0.1880
 2913TIP3   OH2 8744   3.819   2.186   4.398 -0.1440 -0.0645  0.5524
 2913TIP3    H1 8745   3.876   2.263   4.409 -0.9234  0.6901 -0.5656
 2913TIP3    H2 8746   3.814   2.173   4.303 -1.2345 -0.5795  0.6705
 2914TIP3   OH2 8747   1.250   5.677   3.661  0.9327  0.4339  0.1786
 2914TIP3    H1 8748   1.239   5.753   3.719  0.4059 -1.4388  2.7289
 2914TIP3    H2 8749   1.161   5.652   3.636  1.0339  0.0881  0.1548
 2915TIP3   OH2 8750   1.677   2.466   1.688  0.2694 -0.5561 -0.4393
 2915TIP3    H1 8751   1.747   2.418   1.644  0.5510 -0.7680  0.2126
 2915TIP3    H2 8752   1.599   2.412   1.675  0.1384 -0.1361 -1.4815
 2916TIP3   OH2 8753   5.303   0.121   2.153 -0.0413 -0.7796 -0.5972
 2916TIP3    H1 8754   5.385   0.124   2.203 -0.6651 -0.2743  0.4353
 2916TIP3    H2 8755   5.330   0.135   2.062  0.7259  3.5417  0.0549
 2917TIP3   OH2 8756   3.814   5.777   4.387 -0.4382  0.6464  0.8504
 2917TIP3    H1 8757   3.739   5.738   4.343 -0.5493  1.8188 -0.0666
 2917TIP3    H2 8758   3.781   5.861   4.420  0.7186  1.7166 -0.5793
 2918TIP3   OH2 8759   5.915   3.484   4.035  0.4843  0.1904  0.2094
 2918TIP3    H1 8760   5.932   3.390   4.033  1.1357  0.2861  0.8616
 2918TIP3    H2 8761   5.896   3.504   4.127 -4.8272 -0.1440 -0.5067
 2919TIP3   OH2 8762   0.968   3.984   1.190 -0.0001 -0.3640 -0.0762
 2919TIP3    H1 8763   0.918   4.059   1.223 -0.0208 -0.2968 -0.2620
 2919TIP3    H2 8764   0.906   3.936   1.134 -0.3546 -1.1659  0.9598
 2920TIP3   OH2 8765   3.585   2.579   5.147 -0.3860 -0.7576 -0.0967
 2920TIP3    H1 8766   3.661   2.633   5.124 -0.2313 -0.3546  1.2985
 2920TIP3    H2 8767   3.588   2.506   5.085  0.6475 -0.2896 -0.6126
 2921TIP3   OH2 8768   6.228   1.690   2.637  0.3018 -0.1748 -0.0281
 2921TIP3    H1 8769   6.260   1.682   2.547  0.5227  1.4095 -0.1188
 2921TIP3    H2 8770   6.287   1.753   2.678  0.5702 -1.3264  1.4215
 2922TIP3   OH2 8771   4.686   3.066   2.761  0.3727 -0.3620 -0.0414
 2922TIP3    H1 8772   4.736   3.147   2.776 -0.7434  0.4459 -0.5260
 2922TIP3    H2 8773   4.640   3.082   2.679 -0.3600 -1.2454  0.1867
 2923TIP3   OH2 8774   4.178   5.681   1.889 -0.2678 -0.2238  0.1212
 2923TIP3    H1 8775   4.247   5.653   1.949  0.2164  0.3422 -0.1507
 2923TIP3    H2 8776   4.201   5.772   1.868 -0.9062 -0.1419 -0.2503
 2924TIP3   OH2 8777   5.356   1.195   1.160  1.2658  0.4869  0.6625
 2924TIP3    H1 8778   5.269   1.231   1.142  0.6833 -0.4464  1.4761
 2924TIP3    H2 8779   5.413   1.234   1.094 -0.1736 -0.5581 -1.2818
 2925TIP3   OH2 8780   1.202   0.033   2.185 -0.1967  0.3227 -0.1944
 2925TIP3    H1 8781   1.107   0.031   2.174 -0.3197 -0.7229  0.8351
 2925TIP3    H2 8782   1.221  -0.042   2.242  1.3657 -0.1119 -1.2392
 2926TIP3   OH2 8783   1.563   5.942   0.845 -0.5050 -0.4334  0.3341
 2926TIP3    H1 8784   1.560   5.960   0.939  0.2486  1.0992  0.0938
 2926TIP3    H2 8785   1.599   6.022   0.807 -0.7851 -1.0444 -1.2631
 2927TIP3   OH2 8786   4.517   0.936   2.707 -0.1236 -0.0994  0.8325
 2927TIP3    H1 8787   4.557   1.010   2.753  0.3701 -0.4204  0.9384
 2927TIP3    H2 8788   4.574   0.862   2.728  0.5846 -0.1128 -0.9246
 2928TIP3   OH2 8789   1.239   5.071   4.851  0.3667 -0.1967  1.1190
 2928TIP3    H1 8790   1.331   5.090   4.868  0.6577  1.0682 -1.5074
 2928TIP3    H2 8791   1.228   5.084   4.757 -2.2176 -1.6206  1.1295
 2929TIP3   OH2 8792   4.564   1.034   2.303 -0.2809  0.1560 -0.9059
 2929TIP3    H1 8793   4.523   1.112   2.265 -2.3933 -0.7587 -0.6625
 2929TIP3    H2 8794   4.598   0.986   2.227 -0.9607  0.2545 -1.2878
 2930TIP3   OH2 8795   5.531   1.969   3.716  0.5815  0.1863 -0.1370
 2930TIP3    H1 8796   5.591   1.898   3.740  0.7165  0.2275 -0.3527
 2930TIP3    H2 8797   5.467   1.928   3.658  1.0583  0.3836 -0.8214
 2931TIP3   OH2 8798   4.309   2.361   0.297  0.5462 -0.3825 -0.5780
 2931TIP3    H1 8799   4.330   2.438   0.246 -2.3716  0.4270 -0.7583
 2931TIP3    H2 8800   4.259   2.306   0.237 -1.0382 -0.4268  0.7154
 2932TIP3   OH2 8801   1.776   1.016   0.924  0.2648 -0.2511  0.2565
 2932TIP3    H1 8802   1.839   1.047   0.989  0.1979  1.5859 -0.4748
 2932TIP3    H2 8803   1.825   1.015   0.842  0.2766 -2.2993  0.2435
 2933TIP3   OH2 8804   1.102   2.681   0.346  0.0096  0.1070 -0.2056
 2933TIP3    H1 8805   1.072   2.634   0.269  0.7969  0.4132 -0.7117
 2933TIP3    H2 8806   1.144   2.760   0.311  0.5361  0.1595  0.5250
 2934TIP3   OH2 8807   3.574   1.957   3.993 -0.5286  0.2116 -1.0963
 2934TIP3    H1 8808   3.557   1.880   4.047  0.7520  0.2907 -0.5315
 2934TIP3    H2 8809   3.555   1.929   3.904  0.2442 -0.8745 -0.9349
 2935TIP3   OH2 8810   3.728   3.989   0.729  0.4679  0.5990 -0.2616
 2935TIP3    H1 8811   3.795   3.933   0.689  0.5757  0.7564 -0.3020
 2935TIP3    H2 8812   3.687   4.034   0.655  1.0381  1.3042 -0.1642
 2936TIP3   OH2 8813   0.923   4.369   0.789  0.4178 -0.3936  0.2831
 2936TIP3    H1 8814   0.869   4.317   0.848  0.3898 -1.3084 -0.5287
 2936TIP3    H2 8815   0.866   4.391   0.716  1.0744 -1.2067 -0.4901
 2937TIP3   OH2 8816   5.651   3.210   0.346 -0.8327  0.8962  0.0617
 2937TIP3    H1 8817   5.729   3.167   0.382 -1.2871  1.0923  1.2983
 2937TIP3    H2 8818   5.683   3.254   0.267 -0.2020 -1.1125 -0.8821
 2938TIP3   OH2 8819   6.378   0.024   0.681  0.7048  0.2537  0.3503
 2938TIP3    H1 8820   6.310  -0.030   0.639  1.3834 -0.0749 -0.3638
 2938TIP3    H2 8821   6.353   0.026   0.773  0.0970 -0.4258  0.2183
 2939TIP3   OH2 8822   4.782   5.498   3.492  0.4237 -0.0948 -0.6935
 2939TIP3    H1 8823   4.870   5.495   3.454 -0.6128 -0.1895 -3.2236
 2939TIP3    H2 8824   4.723   5.488   3.418 -1.7467 -1.6500  1.1209
 2940TIP3   OH2 8825   5.908   3.196   4.038 -0.0200  0.1483 -0.1987
 2940TIP3    H1 8826   5.913   3.209   3.943  0.8257  0.9118 -0.0686
 2940TIP3    H2 8827   5.973   3.128   4.056 -1.0728 -0.9224 -0.2988
 2941TIP3   OH2 8828   4.397   5.109   0.277 -0.2251  0.0215 -0.2723
 2941TIP3    H1 8829   4.403   5.025   0.233  0.7611  0.8782 -1.8793
 2941TIP3    H2 8830   4.475   5.112   0.333 -0.1523 -0.0663 -0.3671
 2942TIP3   OH2 8831   0.314   1.055   3.686  0.1716 -0.2144 -0.0813
 2942TIP3    H1 8832   0.316   1.113   3.762 -0.1688 -2.8840  2.1391
 2942TIP3    H2 8833   0.376   0.985   3.707  1.3620 -0.2095 -3.1025
 2943TIP3   OH2 8834   2.690   2.391   4.530  0.9062  0.4685  0.2477
 2943TIP3    H1 8835   2.640   2.390   4.449  0.3536  1.9926  0.5415
 2943TIP3    H2 8836   2.733   2.476   4.531 -2.5707  2.5095  3.5125
 2944TIP3   OH2 8837   0.885   0.413   3.694 -0.3890 -0.3092  0.1225
 2944TIP3    H1 8838   0.969   0.447   3.724 -1.5179  0.9297  2.1949
 2944TIP3    H2 8839   0.886   0.321   3.721  0.0636 -0.1436  0.6988
 2945TIP3   OH2 8840   0.480   3.228   3.972  0.4043  0.2564  0.2984
 2945TIP3    H1 8841   0.502   3.317   3.946  0.6963  0.1224  0.0797
 2945TIP3    H2 8842   0.447   3.187   3.893 -0.0143  0.2589  0.4711
 2946TIP3   OH2 8843   0.561   5.083   0.116 -0.4221 -0.2639  0.1433
 2946TIP3    H1 8844   0.655   5.101   0.118 -0.4111 -0.3152  0.0739
 2946TIP3    H2 8845   0.552   5.006   0.060 -0.4192 -0.8178  0.8883
 2947TIP3   OH2 8846   5.485   4.956   1.313 -0.0657 -0.2305 -0.8357
 2947TIP3    H1 8847   5.504   4.894   1.243  0.5821  1.2762 -2.0555
 2947TIP3    H2 8848   5.436   5.026   1.270  3.9548  2.8980 -0.9563
 2948TIP3   OH2 8849   0.333   1.769   0.493 -0.6124 -0.4861  0.1557
 2948TIP3    H1 8850   0.336   1.676   0.471 -0.9135 -0.8994  1.7889
 2948TIP3    H2 8851   0.240   1.789   0.502 -0.4975 -0.3264  1.0187
 2949TIP3   OH2 8852   4.134   2.353   3.618 -0.5935 -0.6007  0.6219
 2949TIP3    H1 8853   4.126   2.386   3.707  0.8928  0.3223  0.4428
 2949TIP3    H2 8854   4.138   2.258   3.628  0.2684 -0.4760  1.6078
 2950TIP3   OH2 8855   4.089   2.760   4.780  0.4550 -0.0727 -0.4141
 2950TIP3    H1 8856   4.127   2.836   4.737  1.7654 -0.9822 -0.9357
 2950TIP3    H2 8857   4.073   2.789   4.870  0.7903  0.8588 -0.6404
 2951TIP3   OH2 8858   4.974   5.604   2.234 -0.1536  0.4143  0.0976
 2951TIP3    H1 8859   4.930   5.602   2.320  1.2393  0.6218  0.8414
 2951TIP3    H2 8860   4.913   5.651   2.178 -1.1240  0.2284  0.9583
 2952TIP3   OH2 8861   0.148   1.392   2.906  0.3380  0.0637  0.4009
 2952TIP3    H1 8862   0.184   1.435   2.984 -1.3934  0.1899  1.1635
 2952TIP3    H2 8863   0.078   1.450   2.876  1.4708  0.4057 -1.7520
 2953TIP3   OH2 8864   2.453   2.595   4.164 -0.5049  0.1183  0.3044
 2953TIP3    H1 8865   2.468   2.515   4.114 -0.3765  0.6270 -0.4949
 2953TIP3    H2 8866   2.367   2.626   4.134 -0.5732  0.2599  0.6391
 2954TIP3   OH2 8867   2.753   2.950   1.555 -0.2174  0.0199 -0.4322
 2954TIP3    H1 8868   2.737   2.877   1.496 -1.5914  2.3332 -3.2016
 2954TIP3    H2 8869   2.832   2.993   1.521 -1.6660  2.0501 -1.4952
 2955TIP3   OH2 8870   0.910   4.324   0.181 -0.2276 -0.3626  0.6790
 2955TIP3    H1 8871   0.864   4.241   0.165 -0.0714 -0.2320 -0.5634
 2955TIP3    H2 8872   0.945   4.316   0.269 -0.9983 -1.2502  0.9155
 2956TIP3   OH2 8873   5.497   3.753   1.656 -0.3963 -0.1063  0.0854
 2956TIP3    H1 8874   5.553   3.780   1.729  1.7380 -2.3046 -0.6008
 2956TIP3    H2 8875   5.464   3.835   1.620  1.0991  1.2131  1.5289
 2957TIP3   OH2 8876   0.623   5.705   3.921  0.2291 -0.1876 -0.3531
 2957TIP3    H1 8877   0.586   5.623   3.955  0.3920  0.0463  0.4233
 2957TIP3    H2 8878   0.554   5.743   3.867 -0.3177 -0.2236  0.3115
 2958TIP3   OH2 8879   0.229   0.834   2.080  0.0555  0.4090 -0.3468
 2958TIP3    H1 8880   0.206   0.760   2.024 -0.8788  0.5693 -0.1933
 2958TIP3    H2 8881   0.145   0.874   2.103  0.5809  1.9611 -1.0030
 2959TIP3   OH2 8882   2.106   3.567   1.708 -0.0701 -0.3285  0.0472
 2959TIP3    H1 8883   2.022   3.525   1.725  0.3543 -0.5756  1.8520
 2959TIP3    H2 8884   2.101   3.651   1.753  0.2025  0.2104 -0.9061
 2960TIP3   OH2 8885   6.077   5.082   1.425 -0.1177  0.6261  0.3723
 2960TIP3    H1 8886   6.078   5.167   1.470 -1.8915  0.6608  0.4267
 2960TIP3    H2 8887   6.010   5.092   1.357 -0.9590 -0.9720  0.9172
 2961TIP3   OH2 8888   1.346   4.420   2.811 -0.0953 -0.3065 -0.7192
 2961TIP3    H1 8889   1.277   4.485   2.792  0.7826  0.5281 -1.1354
 2961TIP3    H2 8890   1.311   4.338   2.777 -1.4040 -0.1489  0.1603
 2962TIP3   OH2 8891   4.704   4.721   3.314  0.2679 -1.0041  0.6375
 2962TIP3    H1 8892   4.681   4.709   3.406 -2.7391  0.6251  0.2383
 2962TIP3    H2 8893   4.716   4.815   3.305  0.7661 -1.1720 -0.6052
 2963TIP3   OH2 8894   1.068   5.311   3.849  0.1931 -0.0761  0.1359
 2963TIP3    H1 8895   0.997   5.315   3.913  0.5502 -0.2073  0.5486
 2963TIP3    H2 8896   1.121   5.389   3.866  0.0102  0.1550 -0.3378
 2964TIP3   OH2 8897   1.493   1.285   2.482  0.5016 -0.0016  0.1202
 2964TIP3    H1 8898   1.452   1.278   2.397 -0.2969  3.2563  0.0875
 2964TIP3    H2 8899   1.552   1.360   2.474  0.2215  0.5629  2.4595
 2965TIP3   OH2 8900   2.070   2.600   3.589 -0.1775 -0.1201 -0.3018
 2965TIP3    H1 8901   1.977   2.602   3.566 -0.3293  0.7315  0.3474
 2965TIP3    H2 8902   2.109   2.544   3.522 -1.2358 -0.9350 -0.2732
 2966TIP3   OH2 8903   0.331   0.807   1.672  0.4927  0.2234  0.3068
 2966TIP3    H1 8904   0.243   0.830   1.703  0.1341 -1.7622  0.9397
 2966TIP3    H2 8905   0.351   0.873   1.606 -1.3084  0.9619  0.4260
 2967TIP3   OH2 8906   3.865   1.564   2.008 -0.2733 -0.1129  0.0759
 2967TIP3    H1 8907   3.829   1.510   2.079  0.7599 -1.1689 -0.1710
 2967TIP3    H2 8908   3.838   1.520   1.928 -1.5203  1.1339 -0.2324
 2968TIP3   OH2 8909   6.381   3.291   1.658 -0.2804  0.1770 -0.0800
 2968TIP3    H1 8910   6.394   3.260   1.569  0.9795  0.1347  0.0969
 2968TIP3    H2 8911   6.308   3.353   1.652  0.2099  0.6662 -1.2589
 2969TIP3   OH2 8912   0.329   2.186   0.145 -0.1013 -0.4377 -0.5848
 2969TIP3    H1 8913   0.334   2.092   0.129 -1.1948 -0.3965 -1.3038
 2969TIP3    H2 8914   0.238   2.202   0.168  0.4126  0.2341  1.1101
 2970TIP3   OH2 8915   3.932   1.651   1.092  0.7552 -0.3747 -0.0245
 2970TIP3    H1 8916   3.920   1.746   1.101 -0.6500 -0.5700  0.3150
 2970TIP3    H2 8917   3.843   1.615   1.095  1.1569 -1.5928 -1.5039
 2971TIP3   OH2 8918   3.735   0.329   0.035  0.1278  0.3450 -0.5014
 2971TIP3    H1 8919   3.823   0.304   0.006  0.1467 -0.2428  0.0433
 2971TIP3    H2 8920   3.694   0.247   0.063 -0.1364  0.7805  0.4463
 2972TIP3   OH2 8921   4.030   3.501   3.539 -0.1096 -0.1731 -0.7328
 2972TIP3    H1 8922   3.956   3.440   3.541 -1.0043  0.8804 -0.6666
 2972TIP3    H2 8923   4.035   3.530   3.448  0.5490 -0.6273 -0.8407
 2973TIP3   OH2 8924   4.515   1.416   3.849 -0.4945  0.4254 -0.4951
 2973TIP3    H1 8925   4.519   1.420   3.944  0.2101  1.3129 -0.5528
 2973TIP3    H2 8926   4.603   1.390   3.822 -1.0118 -1.0549 -0.8659
 2974TIP3   OH2 8927   4.336  -0.018   3.067 -0.6475 -0.2229 -0.3747
 2974TIP3    H1 8928   4.265   0.019   3.016 -0.1460  0.2709 -0.7158
 2974TIP3    H2 8929   4.349   0.043   3.139  0.0143  0.1519 -0.8010
 2975TIP3   OH2 8930   2.768   1.434   1.659 -0.4634  0.6840  0.5032
 2975TIP3    H1 8931   2.797   1.372   1.726  0.4665  0.3971 -0.1364
 2975TIP3    H2 8932   2.837   1.499   1.655  0.5812 -0.4300 -1.5971
 2976TIP3   OH2 8933   0.097   0.474   3.712  0.3277  0.2396  0.3202
 2976TIP3    H1 8934   0.132   0.495   3.625  0.8809  4.1675  1.3232
 2976TIP3    H2 8935   0.009   0.439   3.694  0.3283  1.1772 -1.8116
 2977TIP3   OH2 8936   3.751   4.351   3.300 -0.1831 -0.2949  0.2341
 2977TIP3    H1 8937   3.796   4.434   3.281 -2.9400  1.6504  1.5159
 2977TIP3    H2 8938   3.819   4.285   3.290  1.8883  1.9301 -2.1205
 2978TIP3   OH2 8939   1.850   2.927   5.057  0.6907 -0.2190  0.0716
 2978TIP3    H1 8940   1.821   2.986   5.126  1.1393 -0.9705  0.9283
 2978TIP3    H2 8941   1.872   2.846   5.102 -1.1771 -1.5264 -1.2328
 2979TIP3   OH2 8942   1.848   3.367   0.713  0.0543 -0.2949 -0.4384
 2979TIP3    H1 8943   1.938   3.371   0.744  0.0374  1.0033 -0.4957
 2979TIP3    H2 8944   1.847   3.421   0.634 -0.4267 -1.6237 -1.3864
 2980TIP3   OH2 8945   6.014   3.610   5.117  0.5501 -0.4059  0.1072
 2980TIP3    H1 8946   6.062   3.562   5.050  0.9547  0.3570 -0.1619
 2980TIP3    H2 8947   6.060   3.694   5.124  1.5720 -1.0876  2.5267
 2981TIP3   OH2 8948   0.009   1.477   4.743  0.5936 -0.1868 -0.1296
 2981TIP3    H1 8949  -0.021   1.496   4.654 -0.3941  1.2195  0.4632
 2981TIP3    H2 8950   0.062   1.553   4.768 -1.2309  0.6945  1.3501
 2982TIP3   OH2 8951   3.824   2.004   3.651  0.1478 -0.1584 -0.3108
 2982TIP3    H1 8952   3.800   1.934   3.711 -2.1513  1.0995  0.3918
 2982TIP3    H2 8953   3.755   2.003   3.585  1.0425  0.3337 -1.2646
 2983TIP3   OH2 8954   6.165   1.809   0.028 -0.3694 -0.0690  0.5682
 2983TIP3    H1 8955   6.176   1.761   0.110 -1.3906 -1.1625  0.0879
 2983TIP3    H2 8956   6.152   1.742  -0.038  0.1565  0.8088 -0.4648
 2984TIP3   OH2 8957   0.809   3.136   0.388  0.1447  0.3683  0.4959
 2984TIP3    H1 8958   0.716   3.145   0.368 -0.5185 -1.3186  2.3760
 2984TIP3    H2 8959   0.847   3.096   0.311 -0.9288  0.0420  0.1193
 2985TIP3   OH2 8960   2.013   3.308  -0.018  0.4124  0.2761 -0.3638
 2985TIP3    H1 8961   2.038   3.285   0.071  0.3769 -1.6776 -0.8118
 2985TIP3    H2 8962   2.077   3.374  -0.045  1.2308 -0.0686  0.6690
 2986TIP3   OH2 8963   3.488   2.787   4.913 -0.0211  0.3076 -0.2240
 2986TIP3    H1 8964   3.420   2.750   4.857 -1.1559 -0.6979  1.6910
 2986TIP3    H2 8965   3.571   2.761   4.872 -0.7983 -2.0591 -0.4469
 2987TIP3   OH2 8966   4.662   0.639   1.232 -0.3717 -0.7036 -0.3139
 2987TIP3    H1 8967   4.644   0.702   1.301 -2.7913 -1.7645  0.1526
 2987TIP3    H2 8968   4.610   0.562   1.256  2.1043 -2.7642 -1.0694
 2988TIP3   OH2 8969   4.805   1.743   3.675  0.4549 -0.2515  0.4597
 2988TIP3    H1 8970   4.777   1.812   3.735  0.5730 -0.7328  1.0724
 2988TIP3    H2 8971   4.726   1.722   3.625  0.4943  0.5381  0.0447
 2989TIP3   OH2 8972   1.617   3.510   4.922  0.2106 -0.2412 -0.0171
 2989TIP3    H1 8973   1.646   3.587   4.971 -0.7636  1.2652 -1.6727
 2989TIP3    H2 8974   1.649   3.435   4.973  1.4453  1.2425  1.5040
 2990TIP3   OH2 8975   2.883   4.616   2.704  0.0849  0.0188 -0.1690
 2990TIP3    H1 8976   2.857   4.533   2.744  1.6141 -0.7019 -0.5976
 2990TIP3    H2 8977   2.911   4.671   2.778 -0.9868  0.1951  0.1214
 2991TIP3   OH2 8978   2.519   0.513   0.312 -0.4675 -0.4162  0.1896
 2991TIP3    H1 8979   2.614   0.522   0.310 -0.5731  1.4105  1.4342
 2991TIP3    H2 8980   2.504   0.419   0.323  1.1730 -0.7523 -0.2023
 2992TIP3   OH2 8981   3.460   4.075   0.829 -0.2091  0.6469  0.0540
 2992TIP3    H1 8982   3.551   4.045   0.823 -0.3678  0.2662 -0.4858
 2992TIP3    H2 8983   3.458   4.128   0.909  0.6652  1.2495 -0.3004
 2993TIP3   OH2 8984   3.174   5.011   4.189 -0.2102 -0.0146 -0.2431
 2993TIP3    H1 8985   3.249   5.018   4.248 -0.7142 -1.6670  0.6564
 2993TIP3    H2 8986   3.147   5.102   4.173  1.9704  0.6182 -0.6123
 2994TIP3   OH2 8987   1.509   1.650   1.157 -0.0961  0.3108  0.5128
 2994TIP3    H1 8988   1.542   1.560   1.153  0.6301  0.5182  1.5412
 2994TIP3    H2 8989   1.559   1.691   1.228 -0.9504  1.3063  0.5637
 2995TIP3   OH2 8990   4.007   0.687   0.215  0.0772  0.1241  0.2181
 2995TIP3    H1 8991   3.921   0.650   0.194 -0.3474  1.2242 -0.0505
 2995TIP3    H2 8992   4.037   0.636   0.291 -0.8721 -0.1833  0.3997
 2996TIP3   OH2 8993   4.328   5.951   1.009  0.2775 -0.6198 -0.3151
 2996TIP3    H1 8994   4.356   5.876   0.957 -1.0146 -0.6619 -1.0057
 2996TIP3    H2 8995   4.407   5.980   1.054  1.1599 -1.3809 -1.3140
 2997TIP3   OH2 8996   0.312   4.341   0.034 -0.1719  0.4104  0.1799
 2997TIP3    H1 8997   0.293   4.249   0.016  1.5016  0.2525 -1.1473
 2997TIP3    H2 8998   0.395   4.339   0.082  0.6467  1.2177 -1.1123
 2998TIP3   OH2 8999   1.063   5.542   2.507 -0.8423  0.0815 -0.1435
 2998TIP3    H1 9000   1.017   5.519   2.588 -1.0006 -0.8378 -0.4763
 2998TIP3    H2 9001   1.156   5.533   2.528 -0.6932  2.8907  0.8185
 2999TIP3   OH2 9002   1.876   5.969   1.888  0.2164 -0.7228  0.1170
 2999TIP3    H1 9003   1.971   5.976   1.879  0.0883 -0.0062 -0.8449
 2999TIP3    H2 9004   1.861   5.878   1.916  1.2869 -0.3078  2.2523
 3000TIP3   OH2 9005   3.676   0.314   3.836 -0.6185 -0.7594 -0.2323
 3000TIP3    H1 9006   3.695   0.221   3.831 -1.4702 -0.9436 -0.1182
 3000TIP3    H2 9007   3.587   0.323   3.802 -0.0660  0.1879 -1.5621
 3001TIP3   OH2 9008   3.220   3.874   2.906 -1.0289 -0.2034 -0.8449
 3001TIP3    H1 9009   3.204   3.969   2.903  0.6935  0.1175 -0.7085
 3001TIP3    H2 9010   3.204   3.845   2.816 -2.4432  0.0235 -0.7027
 3002TIP3   OH2 9011   1.449   4.597   4.292  0.1231  0.6225 -0.1418
 3002TIP3    H1 9012   1.470   4.583   4.200 -0.1041 -0.3083 -0.0649
 3002TIP3    H2 9013   1.365   4.642   4.291 -2.2630 -3.3347 -0.4442
 3003TIP3   OH2 9014   5.148   1.297   4.380 -0.2036  0.0052  0.0151
 3003TIP3    H1 9015   5.099   1.368   4.340 -0.5083  0.8039  1.7458
 3003TIP3    H2 9016   5.082   1.243   4.423  0.0983 -0.9445 -0.6765
 3004TIP3   OH2 9017   6.202   0.184   3.115  0.1454 -0.0699  0.5150
 3004TIP3    H1 9018   6.146   0.191   3.192  0.3179 -0.9814  0.7447
 3004TIP3    H2 9019   6.255   0.264   3.115  0.7790 -0.4624  1.8673
 3005TIP3   OH2 9020   1.174   2.007   4.072  0.1674  0.2755 -0.5620
 3005TIP3    H1 9021   1.202   2.065   4.143  0.7783  1.8753 -2.0341
 3005TIP3    H2 9022   1.219   1.925   4.089  1.0314  0.9148  0.3897
 3006TIP3   OH2 9023   4.696   4.263   3.992 -0.5132 -1.0997 -0.7416
 3006TIP3    H1 9024   4.736   4.191   4.042  1.4016  0.7882  0.6472
 3006TIP3    H2 9025   4.619   4.287   4.042  1.2525  0.6105  1.3812
 3007TIP3   OH2 9026   4.618   1.914   0.621 -0.4653  0.5386 -0.2534
 3007TIP3    H1 9027   4.622   1.827   0.582  0.4785 -0.0550  1.0964
 3007TIP3    H2 9028   4.534   1.916   0.667 -0.1635  0.0500  0.3323
 3008TIP3   OH2 9029   0.707   1.149   2.898 -0.8903 -0.0336  0.5398
 3008TIP3    H1 9030   0.658   1.126   2.819  0.5030  0.4984 -0.5350
 3008TIP3    H2 9031   0.645   1.138   2.969 -2.3595 -0.0244 -0.6847
 3009TIP3   OH2 9032   3.427   4.055   4.141  0.1138  0.1400 -0.5839
 3009TIP3    H1 9033   3.336   4.058   4.170  0.5723  0.9963  0.8871
 3009TIP3    H2 9034   3.470   3.996   4.204  0.7332  0.3501 -0.7962
 3010TIP3   OH2 9035   0.362   5.602   2.988 -0.1183  0.6029 -0.3766
 3010TIP3    H1 9036   0.272   5.610   3.020 -0.8168 -4.3620 -0.3141
 3010TIP3    H2 9037   0.417   5.610   3.066 -0.8406  0.1072  0.1981
 3011TIP3   OH2 9038   4.023   1.315   4.819  0.0559 -0.1309 -0.0858
 3011TIP3    H1 9039   3.994   1.233   4.779 -0.4591  0.0731 -0.1434
 3011TIP3    H2 9040   4.106   1.335   4.775  0.6726 -1.0976  0.5987
 3012TIP3   OH2 9041   2.171   3.618   0.582  0.2736  0.2580 -0.1832
 3012TIP3    H1 9042   2.152   3.538   0.532  1.3814  1.1893 -2.2119
 3012TIP3    H2 9043   2.108   3.682   0.548  0.8722  0.8396 -0.2019
 3013TIP3   OH2 9044   3.872  -0.022   1.640  0.4197  0.1877  0.1167
 3013TIP3    H1 9045   3.857   0.070   1.621  0.1697  0.3447  1.0062
 3013TIP3    H2 9046   3.928  -0.022   1.718  0.1178 -0.4072  0.3418
 3014TIP3   OH2 9047   0.273   5.825   3.321 -0.0257 -0.2126  0.6324
 3014TIP3    H1 9048   0.332   5.753   3.296 -0.0970 -0.6998  1.8146
 3014TIP3    H2 9049   0.315   5.903   3.286  0.4830 -0.7345  0.0462
 3015TIP3   OH2 9050   1.238   4.621   3.733 -0.1705  0.4027 -0.0166
 3015TIP3    H1 9051   1.246   4.691   3.668  0.3596  0.5764  0.2323
 3015TIP3    H2 9052   1.287   4.548   3.696  0.1870  0.5232  0.2163
 3016TIP3   OH2 9053   2.950   0.735   3.038 -0.4047  0.5610  0.3435
 3016TIP3    H1 9054   3.018   0.698   2.980 -0.9279  1.8326 -1.1611
 3016TIP3    H2 9055   2.969   0.697   3.124  2.9232  1.6994  0.2620
 3017TIP3   OH2 9056   1.724   2.534   3.895 -0.0322 -0.7746  0.3004
 3017TIP3    H1 9057   1.718   2.506   3.804  1.2056 -2.6826  0.7597
 3017TIP3    H2 9058   1.665   2.475   3.942 -1.4361  0.8334  0.6530
 3018TIP3   OH2 9059   5.103   1.332   0.274 -0.2374 -0.6088 -0.0305
 3018TIP3    H1 9060   5.184   1.377   0.250 -1.0805  0.1878 -1.5015
 3018TIP3    H2 9061   5.048   1.401   0.311 -0.7838 -0.8416 -0.4032
 3019TIP3   OH2 9062   3.231   5.668   1.770  0.5010 -0.0384  0.3300
 3019TIP3    H1 9063   3.298   5.606   1.796  1.6024  1.1518  0.4063
 3019TIP3    H2 9064   3.262   5.703   1.686  1.6609  2.8146  1.8101
 3020TIP3   OH2 9065   6.171   1.323   2.025  0.0753 -0.1559 -0.1889
 3020TIP3    H1 9066   6.118   1.296   1.951 -0.0375  0.7923 -0.4676
 3020TIP3    H2 9067   6.173   1.419   2.021 -0.4485 -0.0394  1.3872
 3021TIP3   OH2 9068   3.953   5.994   4.217  0.2897  0.2821 -0.3839
 3021TIP3    H1 9069   3.978   6.013   4.308  0.5437  3.3663 -0.9818
 3021TIP3    H2 9070   4.036   5.978   4.172  0.3928  1.2072 -0.5355
 3022TIP3   OH2 9071   3.603   4.723   0.299 -0.0039  0.0601  0.3718
 3022TIP3    H1 9072   3.598   4.811   0.260 -0.4568 -0.5085 -0.9150
 3022TIP3    H2 9073   3.571   4.735   0.388 -1.8959  0.9081 -0.3560
 3023TIP3   OH2 9074   4.854   0.237   1.460 -0.6931 -0.0440  0.7177
 3023TIP3    H1 9075   4.784   0.184   1.422 -1.4081  0.8757  0.7177
 3023TIP3    H2 9076   4.819   0.267   1.544  0.1546 -0.5168  1.2546
 3024TIP3   OH2 9077   2.300   5.123   2.179 -0.6855  0.2356 -0.2782
 3024TIP3    H1 9078   2.221   5.141   2.229 -0.2830 -0.2761  0.5556
 3024TIP3    H2 9079   2.282   5.159   2.092 -2.9029 -2.1805 -0.9665
 3025TIP3   OH2 9080   2.347   3.358   2.992  0.2899  0.4112 -0.1199
 3025TIP3    H1 9081   2.329   3.366   2.898 -2.0129  0.0563  0.2545
 3025TIP3    H2 9082   2.302   3.278   3.019  0.9175  0.5100  1.3031
 3026TIP3   OH2 9083   3.866   2.546   2.481  0.3492  0.6554 -0.4337
 3026TIP3    H1 9084   3.786   2.499   2.504  0.9646  0.8046  2.3554
 3026TIP3    H2 9085   3.886   2.518   2.392 -1.4658 -1.2644 -0.3091
 3027TIP3   OH2 9086   5.102   2.235   4.794 -0.1283 -0.4712 -0.4191
 3027TIP3    H1 9087   5.036   2.264   4.731 -0.1727  0.7022  0.1401
 3027TIP3    H2 9088   5.153   2.170   4.747 -1.6314 -1.3645 -0.8880
 3028TIP3   OH2 9089   5.345   5.562   0.497  0.1966  0.2569 -0.0654
 3028TIP3    H1 9090   5.315   5.540   0.585 -1.8289  1.0455 -0.5107
 3028TIP3    H2 9091   5.311   5.492   0.442  0.4200  0.4141 -0.4058
 3029TIP3   OH2 9092   1.308   4.352   4.952 -0.2591 -0.4213 -0.0448
 3029TIP3    H1 9093   1.346   4.367   5.039  0.6060 -1.4442 -0.2344
 3029TIP3    H2 9094   1.260   4.433   4.933 -0.4204 -0.1649  1.3551
 3030TIP3   OH2 9095   1.228   3.371   1.269  0.5723 -0.6358  0.5038
 3030TIP3    H1 9096   1.240   3.378   1.174 -0.7135 -1.4024  0.2571
 3030TIP3    H2 9097   1.244   3.279   1.289  1.5108 -0.3417  1.1522
 3031TIP3   OH2 9098   2.287   4.867   3.032  0.1042  1.0082 -0.6351
 3031TIP3    H1 9099   2.379   4.884   3.049  0.0762  0.7127 -0.1625
 3031TIP3    H2 9100   2.240   4.933   3.082  0.0218  0.1509  0.4557
 3032TIP3   OH2 9101   2.195   4.574   1.742  0.0855 -0.4039 -0.0728
 3032TIP3    H1 9102   2.262   4.514   1.708  1.3331 -0.2854  2.0199
 3032TIP3    H2 9103   2.221   4.660   1.709 -0.3726 -0.6636 -1.1510
 3033TIP3   OH2 9104   4.390   2.013   0.313 -0.4175  0.1066  0.6984
 3033TIP3    H1 9105   4.341   1.976   0.386  0.1644  1.3871  1.7883
 3033TIP3    H2 9106   4.344   2.094   0.291 -0.2918 -0.0092 -0.0106
 3034TIP3   OH2 9107   1.634   0.230   1.883  0.0126 -0.3869 -0.5723
 3034TIP3    H1 9108   1.694   0.301   1.858  0.2950  0.1392  1.4110
 3034TIP3    H2 9109   1.608   0.190   1.800  0.0652  1.8434 -1.7419
 3035TIP3   OH2 9110   1.614   5.031   1.390  0.4748  0.0445  0.3199
 3035TIP3    H1 9111   1.709   5.039   1.397  0.3297  0.7613  2.3567
 3035TIP3    H2 9112   1.582   5.120   1.406 -0.5323  0.0407 -1.4402
 3036TIP3   OH2 9113   0.406   2.989   2.943 -0.2497  0.1662  0.4252
 3036TIP3    H1 9114   0.463   2.939   3.001  0.7454 -0.6061 -1.1239
 3036TIP3    H2 9115   0.343   2.925   2.910 -0.8179  0.5953  0.6722
 3037TIP3   OH2 9116   2.234   5.332   4.254  0.3825 -0.0401 -0.4431
 3037TIP3    H1 9117   2.217   5.350   4.347  0.8146  0.4692 -0.4581
 3037TIP3    H2 9118   2.328   5.350   4.243  0.6774 -1.5432 -0.6436
 3038TIP3   OH2 9119   4.301   4.378   4.312  0.7935  0.0912  0.0818
 3038TIP3    H1 9120   4.276   4.419   4.395  2.0899  1.0417  0.0408
 3038TIP3    H2 9121   4.313   4.451   4.252 -0.3307 -0.6022 -1.0316
 3039TIP3   OH2 9122   3.591   1.857   0.505  0.0175  0.2856  0.7964
 3039TIP3    H1 9123   3.655   1.803   0.458 -0.6990 -0.5788  0.7717
 3039TIP3    H2 9124   3.570   1.805   0.583 -1.7226 -0.1592  0.0789
 3040TIP3   OH2 9125   1.794   5.269   0.279  0.2382  0.4659 -0.3266
 3040TIP3    H1 9126   1.711   5.250   0.236 -0.5401 -0.3403  1.4223
 3040TIP3    H2 9127   1.856   5.209   0.239 -0.4366 -0.1803 -0.4435
 3041TIP3   OH2 9128   3.423   3.623   2.140 -0.2754 -0.0735 -0.0286
 3041TIP3    H1 9129   3.429   3.650   2.232 -1.9582 -0.3023  0.1849
 3041TIP3    H2 9130   3.513   3.609   2.113  0.1749 -1.9149  2.1592
 3042TIP3   OH2 9131   4.509   2.196   2.077  0.0919 -0.3873  0.4564
 3042TIP3    H1 9132   4.535   2.262   2.141 -1.6086  0.0355  0.7569
 3042TIP3    H2 9133   4.590   2.153   2.052  0.8334 -0.3057  2.6097
 3043TIP3   OH2 9134   5.612   1.383   4.163  0.2800 -0.4713  0.2600
 3043TIP3    H1 9135   5.661   1.301   4.154  0.2200 -0.6527  1.4177
 3043TIP3    H2 9136   5.525   1.355   4.193  0.2469  0.0125  0.6200
 3044TIP3   OH2 9137   4.949   3.501   1.554  0.2177  0.4698  0.1225
 3044TIP3    H1 9138   4.935   3.412   1.584 -0.3296  0.8450  1.0114
 3044TIP3    H2 9139   5.029   3.529   1.599 -0.3591  0.8808  0.9136
 3045TIP3   OH2 9140   4.487   1.927   5.051 -0.4839 -0.3364  0.0142
 3045TIP3    H1 9141   4.500   1.833   5.062 -1.3903 -0.9008 -2.9194
 3045TIP3    H2 9142   4.576   1.962   5.043 -0.1406 -0.9195  1.0664
 3046TIP3   OH2 9143   3.221   2.354   1.187  0.5322  0.0698 -0.6514
 3046TIP3    H1 9144   3.223   2.309   1.102  0.9529 -0.5137 -0.3409
 3046TIP3    H2 9145   3.180   2.439   1.168 -0.4633 -0.5153 -1.2098
 3047TIP3   OH2 9146   1.689   5.282   3.232 -0.6915  0.6139  0.0795
 3047TIP3    H1 9147   1.732   5.357   3.274 -1.6422  0.9771  0.4287
 3047TIP3    H2 9148   1.600   5.312   3.213 -1.1575 -0.4894  0.4275
 3048TIP3   OH2 9149   2.870   1.800   4.076 -0.0884 -0.1739 -0.2139
 3048TIP3    H1 9150   2.837   1.730   4.019  0.4001 -0.7079  0.1424
 3048TIP3    H2 9151   2.818   1.792   4.156  2.0566 -2.2668  1.1245
 3049TIP3   OH2 9152   2.771   4.435   4.532 -0.4669  0.1154 -0.1236
 3049TIP3    H1 9153   2.798   4.515   4.575 -1.6744  0.0044  0.8892
 3049TIP3    H2 9154   2.677   4.427   4.552 -0.1594 -2.0691  0.6771
 3050TIP3   OH2 9155   2.881   4.010   0.027 -0.3934  0.4684 -0.1303
 3050TIP3    H1 9156   2.869   3.917   0.048 -1.4084  0.8983  1.3132
 3050TIP3    H2 9157   2.938   4.043   0.097 -1.5863  1.3378  0.4533
 3051TIP3   OH2 9158   1.945   2.735   4.032 -0.2257  0.1383 -0.2794
 3051TIP3    H1 9159   1.876   2.777   4.085 -0.5878  0.2615 -0.8360
 3051TIP3    H2 9160   1.915   2.645   4.020  0.6891 -0.3968  1.1528
 3052TIP3   OH2 9161   3.181   1.726   3.247  0.1202  0.2143 -0.3190
 3052TIP3    H1 9162   3.219   1.754   3.330 -0.7387  0.4048  0.0202
 3052TIP3    H2 9163   3.185   1.630   3.249 -0.8629  0.1740  0.4234
 3053TIP3   OH2 9164   1.239   3.911   1.301 -0.6612 -0.5976 -0.2112
 3053TIP3    H1 9165   1.146   3.926   1.284 -0.9207 -0.3201  1.2853
 3053TIP3    H2 9166   1.282   3.932   1.219 -1.7165  1.3992 -0.3259
 3054TIP3   OH2 9167   5.627   0.524   2.593  0.1113  0.3580 -0.0376
 3054TIP3    H1 9168   5.652   0.440   2.629 -4.8955 -0.6864  1.9236
 3054TIP3    H2 9169   5.635   0.513   2.498 -0.6207 -2.4906  0.1374
 3055TIP3   OH2 9170   2.580   5.397   1.331  0.2862 -0.4566 -0.3079
 3055TIP3    H1 9171   2.597   5.315   1.285 -2.7261 -0.8572 -0.8716
 3055TIP3    H2 9172   2.554   5.458   1.262  0.8049  0.4811  0.3060
 3056TIP3   OH2 9173   0.348   4.198   5.143  0.7431 -0.2602 -0.2034
 3056TIP3    H1 9174   0.390   4.115   5.163 -0.2855 -0.6526  0.3956
 3056TIP3    H2 9175   0.383   4.259   5.209  0.7572 -0.4571 -0.0296
 3057TIP3   OH2 9176   4.854   2.722   4.662  0.1162 -0.0980  0.3369
 3057TIP3    H1 9177   4.899   2.779   4.600  0.6072 -0.5679  0.2510
 3057TIP3    H2 9178   4.765   2.716   4.628  0.6308 -1.1583 -0.9258
 3058TIP3   OH2 9179   3.167   4.593   4.446 -0.2010 -0.1614 -0.2643
 3058TIP3    H1 9180   3.108   4.592   4.371 -0.3710  1.3557 -0.1696
 3058TIP3    H2 9181   3.176   4.685   4.469  1.1441 -0.4772  0.5732
 3059TIP3   OH2 9182   1.282   4.407   0.189 -0.3118  0.3629  0.5840
 3059TIP3    H1 9183   1.376   4.421   0.191 -0.3658  0.9054  3.5998
 3059TIP3    H2 9184   1.253   4.419   0.280 -3.1221 -0.9858 -0.0009
 3060TIP3   OH2 9185   1.583   2.624   0.631  0.2961 -0.2196 -0.1319
 3060TIP3    H1 9186   1.561   2.708   0.671 -0.0762  0.4626 -1.6848
 3060TIP3    H2 9187   1.531   2.621   0.551  0.7527 -1.6712 -0.4112
 3061TIP3   OH2 9188   5.171   1.023   5.072  0.5193  0.0093 -0.2827
 3061TIP3    H1 9189   5.266   1.008   5.073  0.6640  0.6996 -1.6752
 3061TIP3    H2 9190   5.161   1.116   5.052 -0.4527 -0.0976 -0.3581
 3062TIP3   OH2 9191   1.165   2.193   0.705 -0.2028 -0.2846 -0.1674
 3062TIP3    H1 9192   1.075   2.199   0.674  0.2436  0.1921 -1.4518
 3062TIP3    H2 9193   1.218   2.206   0.626  1.0155  1.9634  0.9024
 3063TIP3   OH2 9194   5.051   3.135   2.179  0.2728 -0.0228  0.0867
 3063TIP3    H1 9195   5.089   3.049   2.162 -2.5201 -1.6711  1.4337
 3063TIP3    H2 9196   5.043   3.139   2.274 -1.9299  0.5856 -0.0708
 3064TIP3   OH2 9197   5.590   4.731   4.738  0.2350  0.0198 -0.8312
 3064TIP3    H1 9198   5.513   4.682   4.709 -0.2184 -0.5454  1.1891
 3064TIP3    H2 9199   5.644   4.665   4.782 -0.2301  1.1809  1.6634
 3065TIP3   OH2 9200   5.322   0.024   5.013 -0.0324 -0.8671  0.4817
 3065TIP3    H1 9201   5.383   0.017   4.939  0.5105  0.9929  0.6966
 3065TIP3    H2 9202   5.253  -0.039   4.993 -0.8383  0.7702 -2.5445
 3066TIP3   OH2 9203   2.443   5.959   1.826  0.7095  0.4351 -0.4631
 3066TIP3    H1 9204   2.447   5.898   1.900  0.0495  0.7601 -0.1518
 3066TIP3    H2 9205   2.525   5.945   1.779  0.3938 -1.0145 -0.6530
 3067TIP3   OH2 9206   2.800   3.329   4.911  0.2952  0.2528  0.6684
 3067TIP3    H1 9207   2.884   3.372   4.892 -0.6752  0.9876 -2.4432
 3067TIP3    H2 9208   2.794   3.331   5.007  1.9697  3.8759  0.8879
 3068TIP3   OH2 9209   1.381   5.107   0.281  0.0035  0.1126  0.3181
 3068TIP3    H1 9210   1.451   5.108   0.347  0.1064 -0.1033  0.2160
 3068TIP3    H2 9211   1.424   5.135   0.200  0.2970 -1.2860 -0.0440
 3069TIP3   OH2 9212   1.617   1.241   0.101  0.1392 -0.4103 -0.4732
 3069TIP3    H1 9213   1.689   1.269   0.157 -0.6097 -1.5755  1.1782
 3069TIP3    H2 9214   1.557   1.316   0.100 -0.5883 -0.9080  1.6672
 3070TIP3   OH2 9215   0.433   2.816   1.665 -0.2036 -0.2310  0.3702
 3070TIP3    H1 9216   0.400   2.730   1.692 -0.3490  0.0982  1.2561
 3070TIP3    H2 9217   0.514   2.827   1.713 -0.7010  0.5622  1.0482
 3071TIP3   OH2 9218   1.585   2.980   0.975 -0.4967  0.3095 -0.2172
 3071TIP3    H1 9219   1.548   2.966   1.062 -0.9001 -0.6182 -0.5315
 3071TIP3    H2 9220   1.633   3.063   0.983  0.5174 -0.3819  1.2151
 3072TIP3   OH2 9221   6.203   3.071   0.804  0.2008  0.3393 -0.2084
 3072TIP3    H1 9222   6.164   3.150   0.840  0.5989  0.2161  0.5224
 3072TIP3    H2 9223   6.200   3.083   0.709 -2.3431 -0.0228 -0.2428
 3073TIP3   OH2 9224   5.443   0.356   4.871 -0.0744  0.1227  0.3740
 3073TIP3    H1 9225   5.353   0.375   4.844  0.1941  1.3289  0.2601
 3073TIP3    H2 9226   5.437   0.343   4.966 -0.4452 -0.3403  0.2907
 3074TIP3   OH2 9227   3.494   0.740   1.286  0.1332 -0.1012 -0.5031
 3074TIP3    H1 9228   3.524   0.691   1.363  0.9858  0.6733 -0.3207
 3074TIP3    H2 9229   3.495   0.676   1.216 -1.9119 -1.1647  0.3431
 3075TIP3   OH2 9230   6.139   5.244   3.886 -0.1286  0.4976  0.5190
 3075TIP3    H1 9231   6.210   5.305   3.865 -0.2851  0.5107  0.0060
 3075TIP3    H2 9232   6.066   5.300   3.912 -0.2425  0.5261  0.1409
 3076TIP3   OH2 9233   2.693   3.617   4.485  0.3299 -0.3105  0.0386
 3076TIP3    H1 9234   2.656   3.531   4.502 -1.1291  0.3748  0.4325
 3076TIP3    H2 9235   2.735   3.608   4.400 -1.1616 -0.9987 -0.6621
 3077TIP3   OH2 9236   1.453   4.141   0.239 -0.4139 -0.0311  0.1047
 3077TIP3    H1 9237   1.495   4.227   0.246 -0.3740 -0.0525  0.1250
 3077TIP3    H2 9238   1.457   4.121   0.145 -0.9133  0.2405  0.0203
 3078TIP3   OH2 9239   1.852   2.946   0.742  0.0749  0.2904  0.1226
 3078TIP3    H1 9240   1.894   2.915   0.662 -0.8027  0.6549 -0.4998
 3078TIP3    H2 9241   1.790   3.012   0.712 -1.1885 -0.4754  0.9782
 3079TIP3   OH2 9242   4.898   3.796   2.369 -0.5465 -0.1701  0.1691
 3079TIP3    H1 9243   4.890   3.701   2.383 -1.1186 -0.1818 -0.1994
 3079TIP3    H2 9244   4.838   3.814   2.297 -0.5866  0.5078  0.3699
 3080TIP3   OH2 9245   2.942   4.983   2.671 -0.1957 -0.3479 -0.0765
 3080TIP3    H1 9246   2.887   4.996   2.594 -1.1936 -0.6890  0.5632
 3080TIP3    H2 9247   2.969   5.071   2.696 -1.0776 -0.1035  0.0450
 3081TIP3   OH2 9248   2.439   4.013   1.399 -0.3367 -0.3982  0.2405
 3081TIP3    H1 9249   2.524   3.988   1.363 -1.2880 -2.2346 -0.8600
 3081TIP3    H2 9250   2.426   4.103   1.368  0.8420 -0.3857 -0.2594
 3082TIP3   OH2 9251   5.272   1.012   3.958  0.1472 -0.3831 -0.5044
 3082TIP3    H1 9252   5.252   0.918   3.955 -1.0144 -0.1323 -1.9919
 3082TIP3    H2 9253   5.365   1.016   3.976  0.0117 -1.7932  0.7134
 3083TIP3   OH2 9254   4.274   4.499   0.037 -0.0999 -0.0311  0.0454
 3083TIP3    H1 9255   4.219   4.510   0.115  0.9686 -2.1732  1.1715
 3083TIP3    H2 9256   4.216   4.460  -0.028 -0.7582  0.9307  0.0232
 3084TIP3   OH2 9257   0.991   1.203   0.612  0.1659 -0.4040 -0.0317
 3084TIP3    H1 9258   0.935   1.210   0.690  1.4738  0.6076  0.8661
 3084TIP3    H2 9259   0.987   1.290   0.572  1.3769 -0.1922  0.2692
 3085TIP3   OH2 9260   4.486   3.143   4.224  0.4182 -0.0373 -0.1871
 3085TIP3    H1 9261   4.402   3.156   4.180  0.8774 -1.3221 -1.5340
 3085TIP3    H2 9262   4.552   3.162   4.156  1.1925 -0.0881  0.5369
 3086TIP3   OH2 9263   4.430   5.576   2.870 -0.1247 -0.6274 -0.2577
 3086TIP3    H1 9264   4.464   5.648   2.817  0.1466 -0.2100  0.4578
 3086TIP3    H2 9265   4.362   5.617   2.924 -1.4165 -1.3445 -1.2954
 3087TIP3   OH2 9266   5.010   3.841   5.099  0.0073  0.2271  0.0131
 3087TIP3    H1 9267   5.026   3.926   5.139  0.9012  0.2555 -0.3720
 3087TIP3    H2 9268   5.096   3.800   5.094 -0.3030 -0.3944 -0.4850
 3088TIP3   OH2 9269   5.939   2.350   4.513  0.7442  0.2848 -0.6377
 3088TIP3    H1 9270   5.878   2.341   4.440  0.8096 -1.2521 -0.5345
 3088TIP3    H2 9271   5.926   2.439   4.544 -1.2484  0.0982 -0.8030
 3089TIP3   OH2 9272   2.889   0.771   0.578 -0.0385  0.3228 -0.1932
 3089TIP3    H1 9273   2.921   0.826   0.506  0.1748  1.1412  0.5137
 3089TIP3    H2 9274   2.965   0.722   0.607  0.1561  0.8663  0.2385
 3090TIP3   OH2 9275   3.075   0.865   0.343 -0.0005 -0.3658  0.0182
 3090TIP3    H1 9276   3.138   0.794   0.341  0.6007  0.1422  0.4929
 3090TIP3    H2 9277   3.117   0.936   0.293  0.4250  0.4540  1.4820
 3091TIP3   OH2 9278   3.806   0.793   3.752  0.5857  0.2703 -0.1258
 3091TIP3    H1 9279   3.837   0.703   3.738  0.2793  0.0287  0.6958
 3091TIP3    H2 9280   3.773   0.793   3.841 -0.7403  0.8227 -0.5944
 3092TIP3   OH2 9281   4.104   2.212   5.107 -0.2125  0.7039  0.3702
 3092TIP3    H1 9282   4.058   2.295   5.100 -0.0310  0.7175 -0.9754
 3092TIP3    H2 9283   4.196   2.236   5.122 -0.2107  0.7511  0.2886
 3093TIP3   OH2 9284   5.263   2.501   3.506 -0.0660 -0.0403 -0.0647
 3093TIP3    H1 9285   5.226   2.562   3.570  0.0551 -0.7107  0.6641
 3093TIP3    H2 9286   5.188   2.454   3.471 -0.0897  0.0351 -0.1177
 3094TIP3   OH2 9287   2.045   1.699   1.845  0.3441  0.0932  0.3650
 3094TIP3    H1 9288   2.105   1.663   1.781 -0.2879 -0.5686  0.1251
 3094TIP3    H2 9289   2.054   1.794   1.837 -0.5169  0.0609 -1.4988
 3095TIP3   OH2 9290   3.254   1.721   0.011 -0.1879 -0.4268  0.1204
 3095TIP3    H1 9291   3.331   1.764   0.047  0.3194  0.5961 -2.0087
 3095TIP3    H2 9292   3.288   1.660  -0.053 -1.0945 -1.2552  0.3974
 3096TIP3   OH2 9293   4.715   0.493   3.914  0.4787  0.4068 -0.5294
 3096TIP3    H1 9294   4.777   0.527   3.979 -0.2125 -2.0808  1.5845
 3096TIP3    H2 9295   4.632   0.485   3.961 -0.1519 -1.1413 -1.7925
 3097TIP3   OH2 9296   3.208   3.609   0.669 -0.0361  0.3159 -0.1831
 3097TIP3    H1 9297   3.286   3.644   0.711  0.1368  1.5629 -1.4673
 3097TIP3    H2 9298   3.230   3.605   0.576 -1.6875  1.3304 -0.6665
 3098TIP3   OH2 9299   1.622   5.745   2.603 -0.4223 -0.3914 -0.1913
 3098TIP3    H1 9300   1.581   5.661   2.584  0.1606 -0.5508 -0.7990
 3098TIP3    H2 9301   1.662   5.772   2.520 -3.0805  1.9230 -0.8690
 3099TIP3   OH2 9302   5.534   2.002   5.011 -0.2670  0.1534 -0.0461
 3099TIP3    H1 9303   5.464   1.968   5.067  0.6107  2.1553  2.4737
 3099TIP3    H2 9304   5.615   1.973   5.053  0.5306 -1.9232 -2.7742
 3100TIP3   OH2 9305   4.870   2.825   0.046  0.2404  0.1854 -0.3358
 3100TIP3    H1 9306   4.844   2.785  -0.037  2.5417 -1.9875 -0.1239
 3100TIP3    H2 9307   4.917   2.904   0.020 -0.1029  0.1754 -1.0202
 3101TIP3   OH2 9308   0.576   2.912   4.929  0.0593  0.4141 -0.7337
 3101TIP3    H1 9309   0.668   2.886   4.932  0.1838  0.9097  1.0219
 3101TIP3    H2 9310   0.567   2.963   4.849  1.3122  0.3764 -0.9080
 3102TIP3   OH2 9311   4.906   3.339   4.699  0.6586 -0.2060  0.3112
 3102TIP3    H1 9312   4.985   3.302   4.738  2.4914 -0.0534 -2.9446
 3102TIP3    H2 9313   4.913   3.433   4.714  2.1845  0.0329 -1.6467
 3103TIP3   OH2 9314   0.798   4.703   3.240 -0.3796  0.6205  0.3500
 3103TIP3    H1 9315   0.779   4.773   3.301 -0.4414 -0.8772  2.1254
 3103TIP3    H2 9316   0.892   4.690   3.246 -0.3143  0.7901 -0.2514
 3104TIP3   OH2 9317   0.500   3.975   5.205  0.2078 -0.2957  0.3199
 3104TIP3    H1 9318   0.463   3.904   5.256 -0.0432 -0.2817  0.1579
 3104TIP3    H2 9319   0.500   3.943   5.115  0.5965 -0.2998  0.3191
 3105TIP3   OH2 9320   5.191   3.284   2.931 -0.0347 -0.7374  0.5574
 3105TIP3    H1 9321   5.135   3.223   2.979 -0.6313 -0.9310 -0.3512
 3105TIP3    H2 9322   5.280   3.253   2.947 -0.2785 -1.2919  0.8617
 3106TIP3   OH2 9323   5.314   1.836   2.310 -0.6585 -0.3348  0.8363
 3106TIP3    H1 9324   5.391   1.807   2.359 -0.2024 -1.5447 -0.5149
 3106TIP3    H2 9325   5.345   1.911   2.259 -1.1743  1.0212  2.4557
 3107TIP3   OH2 9326   2.781   5.004   0.633 -0.6939  0.0128 -0.3296
 3107TIP3    H1 9327   2.776   5.083   0.578 -0.8684 -0.7080 -1.3808
 3107TIP3    H2 9328   2.722   4.942   0.590  0.0219 -0.9448  0.0556
 3108TIP3   OH2 9329   2.737   2.617   4.300  0.6766 -0.3558 -0.7334
 3108TIP3    H1 9330   2.674   2.625   4.228  0.9646  0.4724 -0.9033
 3108TIP3    H2 9331   2.821   2.642   4.261  1.0907 -1.2796 -0.4644
 3109TIP3   OH2 9332   1.446   0.327   4.488  0.0579  0.4785  0.4121
 3109TIP3    H1 9333   1.428   0.261   4.555 -1.4307 -0.5365 -0.9244
 3109TIP3    H2 9334   1.533   0.305   4.455  0.3720  0.3763  1.2868
 3110TIP3   OH2 9335   3.294   5.654   1.221  0.5059 -0.5198 -0.3304
 3110TIP3    H1 9336   3.266   5.745   1.212  2.7941  0.5117  1.8796
 3110TIP3    H2 9337   3.336   5.633   1.138 -0.6272  0.1598 -1.1071
 3111TIP3   OH2 9338   0.095   3.097   3.605 -0.0213 -0.2509  0.1008
 3111TIP3    H1 9339   0.105   3.133   3.693  0.9124 -0.5870  0.1466
 3111TIP3    H2 9340   0.021   3.036   3.613 -0.6450  0.5256  0.3797
 3112TIP3   OH2 9341   2.700   4.210   3.511 -0.3132  0.1299 -0.6718
 3112TIP3    H1 9342   2.774   4.262   3.479  0.2898 -0.3104 -0.0147
 3112TIP3    H2 9343   2.733   4.120   3.511 -0.4408  0.0606  0.7385
 3113TIP3   OH2 9344   0.391   2.815   4.353  0.1710  0.4801 -0.4638
 3113TIP3    H1 9345   0.312   2.783   4.310 -0.3715 -1.5674  1.8431
 3113TIP3    H2 9346   0.463   2.784   4.297 -0.5636 -0.3103 -0.9853
 3114TIP3   OH2 9347   2.635   0.202   2.549  0.1614  0.3405  0.2811
 3114TIP3    H1 9348   2.677   0.180   2.465  0.5896  0.2554  0.5110
 3114TIP3    H2 9349   2.542   0.199   2.531  0.2347 -0.4192 -0.0142
 3115TIP3   OH2 9350   2.780   3.029   3.081 -0.3921 -0.5464  0.1684
 3115TIP3    H1 9351   2.746   3.015   3.169  2.1535 -0.3060  1.2565
 3115TIP3    H2 9352   2.846   3.097   3.091 -1.2071  0.7382 -2.2511
 3116TIP3   OH2 9353   5.540   5.812   4.537  0.3271 -0.3417 -0.2276
 3116TIP3    H1 9354   5.610   5.747   4.544  0.8793  0.3659  1.2059
 3116TIP3    H2 9355   5.460   5.761   4.533  0.8737 -1.1556 -1.3895
 3117TIP3   OH2 9356   5.870   5.305   3.067 -0.0701  0.3974 -0.1765
 3117TIP3    H1 9357   5.904   5.391   3.089 -0.2514  0.9050 -1.7481
 3117TIP3    H2 9358   5.893   5.293   2.975 -0.1337 -1.1971 -0.0177
 3118TIP3   OH2 9359   0.958   0.433   1.544 -0.3426  0.0320 -0.4254
 3118TIP3    H1 9360   0.957   0.504   1.608  0.0421  0.6050 -1.0497
 3118TIP3    H2 9361   1.037   0.448   1.492  0.8045 -1.9176  0.6207
 3119TIP3   OH2 9362   0.768   0.557   0.717 -0.4039  0.1043 -0.3303
 3119TIP3    H1 9363   0.806   0.615   0.783 -1.4988  0.1983  0.2439
 3119TIP3    H2 9364   0.755   0.613   0.640 -0.7232  0.4405 -0.0391
 3120TIP3   OH2 9365   1.722   5.632   2.846  0.0026  0.1756 -0.0001
 3120TIP3    H1 9366   1.742   5.540   2.833  0.3046  0.1793  0.4225
 3120TIP3    H2 9367   1.693   5.663   2.760  0.7731 -0.0877 -0.3644
 3121TIP3   OH2 9368   2.934   4.188   3.120  0.0400  0.0765  0.2316
 3121TIP3    H1 9369   2.974   4.104   3.102 -0.8898 -0.3762  0.2131
 3121TIP3    H2 9370   2.848   4.167   3.155  0.5865  0.9867  2.2502
 3122TIP3   OH2 9371   4.779   5.938   1.043  0.3120 -0.2208  0.2800
 3122TIP3    H1 9372   4.810   5.895   0.963 -0.7183 -2.0210  0.7766
 3122TIP3    H2 9373   4.846   5.919   1.108  1.0679  1.0981 -0.0977
 3123TIP3   OH2 9374   4.360   3.407   3.156 -0.0214 -0.1506  0.4066
 3123TIP3    H1 9375   4.411   3.443   3.084  0.2020  0.6353  0.9338
 3123TIP3    H2 9376   4.389   3.457   3.233 -0.0927 -1.1092  1.0836
 3124TIP3   OH2 9377   2.122   2.847   1.659 -0.2297 -0.1810  0.2159
 3124TIP3    H1 9378   2.152   2.922   1.710  1.4376 -0.9603  0.4290
 3124TIP3    H2 9379   2.145   2.771   1.711 -0.7703 -0.9051 -0.5671
 3125TIP3   OH2 9380   4.778   0.547   3.348 -0.1475  0.2721 -0.0864
 3125TIP3    H1 9381   4.866   0.511   3.343 -0.1312  0.4572 -1.9640
 3125TIP3    H2 9382   4.781   0.608   3.422  1.3113  0.3089 -0.1467
 3126TIP3   OH2 9383   2.842   1.380   0.980  0.0043  0.6554  0.0413
 3126TIP3    H1 9384   2.880   1.466   0.964  0.6832  0.0572 -1.8801
 3126TIP3    H2 9385   2.819   1.381   1.073  0.5787  2.6598  0.2164
 3127TIP3   OH2 9386   5.399   2.837   3.937  0.0586 -0.1898 -0.3323
 3127TIP3    H1 9387   5.319   2.889   3.927  0.1664  0.0466  0.0104
 3127TIP3    H2 9388   5.450   2.856   3.858  0.3897  0.7511  0.0868
 3128TIP3   OH2 9389   5.022   3.435   0.221 -0.1409 -0.7152 -0.6353
 3128TIP3    H1 9390   5.065   3.417   0.305  1.0850  0.9117 -0.8701
 3128TIP3    H2 9391   4.949   3.492   0.244  2.5413  3.1998 -0.9365
 3129TIP3   OH2 9392   2.089   5.707   0.429  0.0307 -0.2012  0.0370
 3129TIP3    H1 9393   2.024   5.696   0.498 -0.5230 -0.2303 -0.4862
 3129TIP3    H2 9394   2.052   5.773   0.370  1.8443  2.1419  1.3642
 3130TIP3   OH2 9395   6.125   0.068   2.889  0.2245  0.0381 -0.0083
 3130TIP3    H1 9396   6.147   0.140   2.830  3.2125 -0.1216  0.7467
 3130TIP3    H2 9397   6.141   0.102   2.976  0.1005 -1.0408  0.4566
 3131TIP3   OH2 9398   4.581   0.592   5.071 -0.7756  0.1539  0.3882
 3131TIP3    H1 9399   4.555   0.545   4.992 -1.0611 -0.8233  1.0527
 3131TIP3    H2 9400   4.499   0.603   5.121 -0.1619 -2.0035  2.0004
 3132TIP3   OH2 9401   2.042   4.936   4.283  0.5251 -0.0876 -0.1119
 3132TIP3    H1 9402   2.124   4.935   4.233  0.8212 -1.5292  0.3465
 3132TIP3    H2 9403   1.998   4.855   4.259 -0.3992  0.2912  0.2516
 3133TIP3   OH2 9404   4.837   4.645   3.591  0.2687 -1.0112  0.1303
 3133TIP3    H1 9405   4.890   4.679   3.519 -1.7556 -1.7571 -1.8546
 3133TIP3    H2 9406   4.809   4.722   3.639  1.6729 -0.4899  0.1616
 3134TIP3   OH2 9407   3.784   4.939   1.220  0.4218  0.0052 -0.6012
 3134TIP3    H1 9408   3.728   5.012   1.192 -0.1534  0.0355  0.5316
 3134TIP3    H2 9409   3.870   4.979   1.235  0.5341  0.1293 -1.5303
 3135TIP3   OH2 9410   0.758   1.548   4.776  0.4515 -0.2208 -0.1986
 3135TIP3    H1 9411   0.715   1.489   4.837  1.4549  0.6077  1.3693
 3135TIP3    H2 9412   0.752   1.634   4.817  0.9336  0.4115 -1.3897
 3136TIP3   OH2 9413   1.909   2.814   0.986 -0.1467  0.0320  0.3977
 3136TIP3    H1 9414   1.879   2.723   0.996 -0.6542 -0.0186 -1.2668
 3136TIP3    H2 9415   1.887   2.836   0.896  2.1630  1.0155  0.0227
 3137TIP3   OH2 9416   4.369   3.828   3.820  0.5693 -0.4496  0.7433
 3137TIP3    H1 9417   4.352   3.758   3.757 -1.0950  1.1951 -0.7712
 3137TIP3    H2 9418   4.291   3.830   3.875  0.7616 -0.0108  1.0008
 3138TIP3   OH2 9419   3.946   1.557   3.264  0.2408 -0.1929  0.3516
 3138TIP3    H1 9420   3.951   1.652   3.251 -0.3050 -0.3512 -1.2176
 3138TIP3    H2 9421   3.922   1.547   3.356 -0.6864  1.2201  0.3020
 3139TIP3   OH2 9422   2.133   3.922   0.100 -0.1443  0.7730 -0.1718
 3139TIP3    H1 9423   2.194   3.875   0.044  0.8852  1.5129  0.3087
 3139TIP3    H2 9424   2.086   3.853   0.147  0.6418  0.2006 -0.2050
 3140TIP3   OH2 9425   0.385   5.687   1.450 -0.5641  0.4157 -0.1167
 3140TIP3    H1 9426   0.291   5.701   1.467 -0.2937 -0.1822  2.3278
 3140TIP3    H2 9427   0.389   5.599   1.412 -0.8973 -0.3853  1.6032
 3141TIP3   OH2 9428   3.014   3.479   0.808  0.6642  0.3889  0.1991
 3141TIP3    H1 9429   3.093   3.509   0.764  0.6065 -1.3705 -1.2149
 3141TIP3    H2 9430   2.942   3.512   0.754  0.2066  3.4463  2.3738
 3142TIP3   OH2 9431   2.456   5.741   1.994  0.0526 -0.4675 -0.7674
 3142TIP3    H1 9432   2.430   5.668   1.938 -0.3058 -0.9061 -0.0482
 3142TIP3    H2 9433   2.529   5.706   2.045 -0.1470 -0.3329 -0.3909
 3143TIP3   OH2 9434   1.205   5.554   0.792  0.0104  0.2816  0.0920
 3143TIP3    H1 9435   1.253   5.633   0.814 -0.1816  1.0267 -1.9265
 3143TIP3    H2 9436   1.240   5.487   0.850 -0.5959  2.0456  2.6437
 3144TIP3   OH2 9437   1.299   2.209   2.381  0.0580  0.1289 -0.4810
 3144TIP3    H1 9438   1.230   2.231   2.318  0.2827 -2.1466 -1.6254
 3144TIP3    H2 9439   1.263   2.237   2.466 -1.9652 -0.2971 -1.1342
 3145TIP3   OH2 9440   5.317   5.023   4.032  0.5575 -0.2895  0.0265
 3145TIP3    H1 9441   5.332   5.078   3.955  1.1153  0.0269  0.3618
 3145TIP3    H2 9442   5.404   5.006   4.067  0.4780 -1.9345 -0.4436
 3146TIP3   OH2 9443   3.608   0.631   4.263 -0.3589 -0.5105 -0.5891
 3146TIP3    H1 9444   3.567   0.717   4.252  0.4515 -0.1989 -1.3043
 3146TIP3    H2 9445   3.540   0.569   4.239 -0.7471 -0.0480 -0.7075
 3147TIP3   OH2 9446   3.506   3.754   2.990  0.1243 -0.7725  0.4701
 3147TIP3    H1 9447   3.411   3.758   2.988  0.0780 -0.1364  2.0725
 3147TIP3    H2 9448   3.532   3.744   2.899 -1.4094  0.8777 -0.2189
 3148TIP3   OH2 9449   4.878   2.568   3.646 -0.3104 -0.0240 -0.0758
 3148TIP3    H1 9450   4.910   2.478   3.650  0.4723  0.2154 -0.6730
 3148TIP3    H2 9451   4.896   2.604   3.733 -2.7521 -1.1035  0.9737
 3149TIP3   OH2 9452   0.128   5.623   1.368 -0.0853 -0.1285  0.1470
 3149TIP3    H1 9453   0.146   5.573   1.289 -1.2576  0.0862 -0.2836
 3149TIP3    H2 9454   0.058   5.684   1.342 -0.5678 -0.1371  1.3691
 3150TIP3   OH2 9455   0.762   5.559   0.524  0.4035  0.0961 -0.2924
 3150TIP3    H1 9456   0.813   5.639   0.524  0.4224  0.1335  1.6077
 3150TIP3    H2 9457   0.825   5.490   0.542  0.1737 -0.1789 -0.5226
 3151TIP3   OH2 9458   3.262   5.206   3.052 -0.1278 -0.3260 -0.9342
 3151TIP3    H1 9459   3.345   5.183   3.093  0.0340 -0.6457 -1.4275
 3151TIP3    H2 9460   3.234   5.286   3.096  1.4266  0.9174 -2.0896
 3152TIP3   OH2 9461   3.054   3.278   2.563  0.1358  0.1163  0.2492
 3152TIP3    H1 9462   3.146   3.303   2.559  0.5346 -1.2667  0.2769
 3152TIP3    H2 9463   3.031   3.286   2.656  0.5643 -0.6543  0.4267
 3153TIP3   OH2 9464   0.995   3.335   0.189  0.1980 -0.1112 -0.3667
 3153TIP3    H1 9465   1.023   3.336   0.280  1.8584 -3.6808 -0.6730
 3153TIP3    H2 9466   0.971   3.244   0.172  4.3530 -0.8221 -4.5789
 3154TIP3   OH2 9467   1.008   1.706   4.134 -0.1282 -0.0058 -0.2809
 3154TIP3    H1 9468   0.933   1.761   4.113 -0.7246 -0.7079 -0.0259
 3154TIP3    H2 9469   1.080   1.768   4.149 -1.0680  0.7705  1.1799
 3155TIP3   OH2 9470   4.567   1.916   2.913 -0.2744 -0.1480  0.3737
 3155TIP3    H1 9471   4.637   1.980   2.898 -1.5303  0.7889 -1.8507
 3155TIP3    H2 9472   4.519   1.950   2.989  1.8367 -1.0481  2.2392
 3156TIP3   OH2 9473   1.415   0.918   4.217 -0.4988 -0.6845  0.0804
 3156TIP3    H1 9474   1.378   0.841   4.260 -1.2432 -0.6720 -0.5070
 3156TIP3    H2 9475   1.403   0.900   4.123 -1.7989  0.6637 -0.0559
 3157TIP3   OH2 9476   2.847   2.244   1.402  1.1178  0.3477 -0.1762
 3157TIP3    H1 9477   2.811   2.272   1.486  0.9042  0.7208 -0.3868
 3157TIP3    H2 9478   2.908   2.174   1.424  0.4535 -0.1185  0.2073
 3158TIP3   OH2 9479   4.804   5.725   1.521 -0.4557 -0.2157  0.6186
 3158TIP3    H1 9480   4.878   5.724   1.460 -1.8188 -1.8028 -1.1263
 3158TIP3    H2 9481   4.795   5.817   1.546  2.1089  0.0140  0.9768
 3159TIP3   OH2 9482   5.231   4.231   5.216  0.2127 -0.3626  0.1791
 3159TIP3    H1 9483   5.151   4.273   5.183  0.1990  1.0812  1.8923
 3159TIP3    H2 9484   5.287   4.222   5.139 -0.3571  1.5719 -0.5307
 3160TIP3   OH2 9485   1.623   4.843   3.525 -0.2986  0.1156  0.4602
 3160TIP3    H1 9486   1.695   4.874   3.579 -0.9995 -1.1696  2.2212
 3160TIP3    H2 9487   1.554   4.908   3.538 -0.2192  0.1811  0.5572
 3161TIP3   OH2 9488   1.248   5.631   4.760  0.1137 -0.1513  0.4041
 3161TIP3    H1 9489   1.193   5.685   4.815  0.0607  1.2571 -0.9609
 3161TIP3    H2 9490   1.206   5.632   4.674  0.5483 -1.7142  0.1346
 3162TIP3   OH2 9491   2.902   4.798   1.273 -0.1129 -0.0193  0.1695
 3162TIP3    H1 9492   2.955   4.806   1.194  1.2019 -1.1318  0.8924
 3162TIP3    H2 9493   2.907   4.884   1.315  1.8304 -0.3044  0.6195
 3163TIP3   OH2 9494   0.097   1.505   1.390 -0.4261 -0.1611 -0.3434
 3163TIP3    H1 9495   0.012   1.528   1.353 -0.7090 -1.7365 -0.7372
 3163TIP3    H2 9496   0.158   1.511   1.316 -0.2400  0.6065 -0.1417
 3164TIP3   OH2 9497   4.606   5.561   1.547  0.3708  0.2806  0.7551
 3164TIP3    H1 9498   4.662   5.632   1.515  1.6274 -0.6849  0.7143
 3164TIP3    H2 9499   4.644   5.536   1.631  0.6331 -1.0778  0.2463
 3165TIP3   OH2 9500   2.648   5.637   2.181  0.0439 -0.2907  0.0720
 3165TIP3    H1 9501   2.723   5.677   2.225  0.0466 -0.1150 -0.0878
 3165TIP3    H2 9502   2.594   5.603   2.252 -0.9512  1.7393  0.3600
 3166TIP3   OH2 9503   0.730   2.837   0.242  0.4694 -0.2675 -0.3212
 3166TIP3    H1 9504   0.736   2.891   0.164  2.0397  0.2837  0.1386
 3166TIP3    H2 9505   0.723   2.747   0.209  1.8346 -0.1019 -1.1089
 3167TIP3   OH2 9506   4.685   2.405   4.748  0.0608  0.8609  0.0975
 3167TIP3    H1 9507   4.766   2.451   4.768  0.7750 -0.1919 -0.2991
 3167TIP3    H2 9508   4.689   2.389   4.653 -0.0762 -0.1582  0.2503
 3168TIP3   OH2 9509   0.753   2.183   0.744  0.4219  0.0372 -0.1570
 3168TIP3    H1 9510   0.792   2.103   0.779 -0.4967  0.4625  1.9773
 3168TIP3    H2 9511   0.798   2.254   0.790 -0.8211  0.6298  0.1976
 3169TIP3   OH2 9512   0.789   0.985   1.922  0.4859 -0.6169 -0.4916
 3169TIP3    H1 9513   0.713   0.928   1.906  0.2911 -0.4130 -0.3128
 3169TIP3    H2 9514   0.818   0.962   2.010  0.8716 -0.9629 -0.7060
 3170TIP3   OH2 9515   3.543   3.227   0.161 -0.1448 -0.2020 -0.0130
 3170TIP3    H1 9516   3.508   3.205   0.075 -1.7857  0.2701  0.4913
 3170TIP3    H2 9517   3.466   3.250   0.213  0.8347 -0.2183  1.5098
 3171TIP3   OH2 9518   0.470   4.402   1.746  0.3499  0.0446 -0.1507
 3171TIP3    H1 9519   0.430   4.474   1.698 -1.7084 -0.1208  1.1815
 3171TIP3    H2 9520   0.507   4.443   1.824  1.6942  0.0067 -0.7399
 3172TIP3   OH2 9521   3.775   2.682   3.634 -0.0393  0.7939  0.6475
 3172TIP3    H1 9522   3.829   2.761   3.623  1.3932 -0.2388  0.0254
 3172TIP3    H2 9523   3.813   2.638   3.711 -0.1717  0.1948  0.3730
 3173TIP3   OH2 9524   0.948   3.975   0.155 -0.0873 -0.2113  0.0937
 3173TIP3    H1 9525   1.033   4.019   0.156  0.1903 -0.7354  0.5138
 3173TIP3    H2 9526   0.929   3.961   0.062 -0.2570  0.9168 -0.0481
 3174TIP3   OH2 9527   1.806   2.690   0.093 -0.3038 -0.0631  0.1004
 3174TIP3    H1 9528   1.711   2.695   0.105 -0.3867 -1.3546  0.1225
 3174TIP3    H2 9529   1.842   2.735   0.169 -0.8943 -0.0209  0.3639
 3175TIP3   OH2 9530   3.294   3.866   0.408 -0.2606  0.1317  0.3593
 3175TIP3    H1 9531   3.323   3.787   0.453  1.2406  0.4749  0.0625
 3175TIP3    H2 9532   3.307   3.936   0.472  1.2256  0.5234 -0.3203
 3176TIP3   OH2 9533   0.858   1.074   4.723  0.0418  0.5957  0.1035
 3176TIP3    H1 9534   0.888   1.162   4.744 -0.8180  0.7310  0.8581
 3176TIP3    H2 9535   0.894   1.018   4.792  1.2242  0.2108 -0.7989
 3177TIP3   OH2 9536   4.286   2.456   3.377  0.3472  0.1643 -0.4765
 3177TIP3    H1 9537   4.302   2.549   3.396  0.8614 -0.1942  0.9272
 3177TIP3    H2 9538   4.255   2.420   3.459  0.7398 -1.0457 -0.8442
 3178TIP3   OH2 9539   1.452   4.849   4.073 -0.1105 -1.1090 -0.2569
 3178TIP3    H1 9540   1.501   4.921   4.032  1.5313 -2.0458 -0.0265
 3178TIP3    H2 9541   1.365   4.886   4.090  1.1401  1.3943  1.3913
 3179TIP3   OH2 9542   5.611   3.936   4.925  0.1021 -0.5297 -0.2077
 3179TIP3    H1 9543   5.690   3.886   4.945 -1.0000 -1.9156  0.8832
 3179TIP3    H2 9544   5.599   3.994   5.000 -0.1187 -0.5893 -0.1965
 3180TIP3   OH2 9545   4.685   1.546   1.638 -0.1035  0.8191  0.4122
 3180TIP3    H1 9546   4.733   1.542   1.721 -0.6222  1.4545  0.7668
 3180TIP3    H2 9547   4.679   1.640   1.619  0.0473  0.6754 -0.3747
 3181TIP3   OH2 9548   3.470   0.281   2.668  0.3910  0.0396 -0.1247
 3181TIP3    H1 9549   3.534   0.350   2.648  0.4722 -0.8359 -3.5411
 3181TIP3    H2 9550   3.389   0.328   2.687  0.9574  1.1060 -0.2509
 3182TIP3   OH2 9551   4.907   3.230   1.091 -0.0127  0.6045 -0.2294
 3182TIP3    H1 9552   4.989   3.275   1.111  1.1483 -1.3003 -0.4535
 3182TIP3    H2 9553   4.931   3.162   1.029 -1.8139  0.1047 -0.4538
 3183TIP3   OH2 9554   5.849   4.605   2.886  0.1325  0.5997 -0.7248
 3183TIP3    H1 9555   5.803   4.556   2.954  0.4827 -0.0445 -0.9421
 3183TIP3    H2 9556   5.779   4.643   2.833 -0.1412  0.7072 -0.2953
 3184TIP3   OH2 9557   3.860   4.347   4.807 -0.2075  0.2301 -0.0175
 3184TIP3    H1 9558   3.915   4.329   4.731 -0.7979  0.0586 -0.4123
 3184TIP3    H2 9559   3.772   4.361   4.770 -0.2114  1.7038  0.4709
 3185TIP3   OH2 9560   2.239   5.882   5.044  0.5245 -0.1998 -0.8105
 3185TIP3    H1 9561   2.177   5.942   5.003 -1.8145 -1.7833  0.1578
 3185TIP3    H2 9562   2.197   5.796   5.037  3.3442 -1.6597 -1.4138
 3186TIP3   OH2 9563   1.405   3.266   2.365  0.2239  0.2918  0.1773
 3186TIP3    H1 9564   1.383   3.221   2.284  0.6357  0.2634  0.0807
 3186TIP3    H2 9565   1.422   3.197   2.428  2.2051  0.2585 -0.3223
 3187TIP3   OH2 9566   6.177   2.137   5.189 -0.0634 -0.0948 -0.7073
 3187TIP3    H1 9567   6.157   2.178   5.105 -0.1168 -0.1018 -0.6981
 3187TIP3    H2 9568   6.144   2.047   5.180  1.1631 -0.5260 -1.1869
 3188TIP3   OH2 9569   1.479   3.838   3.178 -0.6308  0.4359  0.0999
 3188TIP3    H1 9570   1.469   3.931   3.199 -0.9448  0.4520 -0.1071
 3188TIP3    H2 9571   1.567   3.815   3.208  0.1278  1.2255 -1.4295
 3189TIP3   OH2 9572   3.835   0.832   1.847 -0.1650 -0.2635  0.5891
 3189TIP3    H1 9573   3.909   0.885   1.876 -0.4887 -0.7355  2.3665
 3189TIP3    H2 9574   3.777   0.894   1.801  0.9141  0.2665 -0.0997
 3190TIP3   OH2 9575   2.628   3.766   0.384  0.7502 -0.1226 -0.0370
 3190TIP3    H1 9576   2.600   3.831   0.319  2.1433  0.6888  0.1394
 3190TIP3    H2 9577   2.551   3.710   0.397  0.3811 -0.2384 -2.2804
 3191TIP3   OH2 9578   1.575   2.048   3.379  0.6098 -0.5273 -0.1172
 3191TIP3    H1 9579   1.576   2.144   3.381  2.7831 -0.4278 -1.9916
 3191TIP3    H2 9580   1.508   2.026   3.314 -0.8193 -0.3757  1.2522
 3192TIP3   OH2 9581   1.436   0.023   2.555  0.6908  0.5027 -0.3898
 3192TIP3    H1 9582   1.373   0.013   2.627 -1.2558 -1.4609 -2.2285
 3192TIP3    H2 9583   1.403   0.097   2.505  1.9183  1.7188  0.5018
 3193TIP3   OH2 9584   6.092   3.340   3.828 -0.3339  0.5116  0.3248
 3193TIP3    H1 9585   6.131   3.416   3.786  0.2382 -0.3754 -0.8074
 3193TIP3    H2 9586   6.147   3.324   3.904 -0.0605  0.8332  0.1992
 3194TIP3   OH2 9587   5.389   2.969   1.924  0.3102  0.4928 -0.1076
 3194TIP3    H1 9588   5.476   2.930   1.938  0.6723  1.3065 -0.0177
 3194TIP3    H2 9589   5.391   3.050   1.976 -0.9307 -0.0631  0.8486
 3195TIP3   OH2 9590   2.955   2.670   1.806  0.4306  0.4705  0.1995
 3195TIP3    H1 9591   2.902   2.603   1.849 -2.5657  0.2992 -3.2572
 3195TIP3    H2 9592   3.000   2.623   1.736  1.2815  1.4837  0.0510
 3196TIP3   OH2 9593   4.546   1.068   4.394  0.6712 -0.5554 -0.0333
 3196TIP3    H1 9594   4.504   1.012   4.459  1.5638 -0.3478  0.7498
 3196TIP3    H2 9595   4.630   1.024   4.376  0.7850 -0.1773 -0.4332
 3197TIP3   OH2 9596   3.644   5.725   3.288  0.3487  0.2438  0.3837
 3197TIP3    H1 9597   3.685   5.708   3.203  1.9297 -0.6235  1.2746
 3197TIP3    H2 9598   3.673   5.652   3.343 -0.8656  0.6514  1.5954
 3198TIP3   OH2 9599   5.958   4.006   3.634 -0.7922 -0.1989 -0.3315
 3198TIP3    H1 9600   5.880   4.033   3.681 -1.8187 -1.9623 -0.9579
 3198TIP3    H2 9601   6.018   3.975   3.702 -1.3917 -0.6508 -0.0067
 3199TIP3   OH2 9602   3.060   4.675   2.451  0.2463  0.5938 -0.5808
 3199TIP3    H1 9603   3.133   4.727   2.485  1.0766 -1.3368  0.7851
 3199TIP3    H2 9604   3.086   4.584   2.467 -1.7125 -0.2195 -1.6566
 3200TIP3   OH2 9605   1.876   4.062   0.117 -0.1086 -0.4540  0.1978
 3200TIP3    H1 9606   1.960   4.022   0.095  0.3312  0.0451  0.9165
 3200TIP3    H2 9607   1.862   4.038   0.209 -1.5352 -1.8761 -0.3398
 3201TIP3   OH2 9608   5.784   1.226   3.527  0.3390 -0.2725 -0.1970
 3201TIP3    H1 9609   5.693   1.251   3.541  0.9041  0.5814  2.6590
 3201TIP3    H2 9610   5.814   1.282   3.455 -1.2299 -0.2580 -0.8769
 3202TIP3   OH2 9611   2.049   5.227   1.327  0.4974  0.0343  0.1300
 3202TIP3    H1 9612   2.115   5.288   1.361  0.6425  0.1204 -0.2986
 3202TIP3    H2 9613   2.086   5.140   1.343  0.4993  0.0691  0.3217
 3203TIP3   OH2 9614   1.353   3.735   0.480  0.5103 -0.2630 -0.1793
 3203TIP3    H1 9615   1.356   3.767   0.570  1.2150 -1.4384  0.2330
 3203TIP3    H2 9616   1.261   3.712   0.466 -0.0082  1.8004 -0.4699
 3204TIP3   OH2 9617   2.360   4.751   1.341  0.2251  0.0117 -0.3073
 3204TIP3    H1 9618   2.431   4.719   1.286  1.6898  1.7882  0.4606
 3204TIP3    H2 9619   2.361   4.846   1.329 -2.1428  0.1010 -0.3704
 3205TIP3   OH2 9620   4.003   0.769   2.425 -0.3365 -0.1520 -0.4111
 3205TIP3    H1 9621   4.045   0.731   2.348 -0.8792  0.2726 -0.9235
 3205TIP3    H2 9622   3.983   0.693   2.480 -0.5349 -0.5250 -0.9869
 3206TIP3   OH2 9623   0.696   1.897   3.026 -0.4783  0.2279  0.1231
 3206TIP3    H1 9624   0.673   1.908   2.934 -1.6308 -0.4158  0.3076
 3206TIP3    H2 9625   0.685   1.984   3.064 -2.2337  0.0615  0.0832
 3207TIP3   OH2 9626   1.825   3.059   3.944  0.5916  0.0896  0.1865
 3207TIP3    H1 9627   1.754   3.106   3.987  0.9060  0.4500  0.3154
 3207TIP3    H2 9628   1.786   2.975   3.917 -0.3095  0.8847 -1.1048
 3208TIP3   OH2 9629   4.904   1.301   3.714 -0.8357 -0.1429 -0.2054
 3208TIP3    H1 9630   4.902   1.395   3.731  0.9430 -0.3907  1.8141
 3208TIP3    H2 9631   4.870   1.261   3.794  0.7014 -1.2446 -0.0493
 3209TIP3   OH2 9632   1.056   4.548   3.215 -0.5559 -0.5689  0.5622
 3209TIP3    H1 9633   1.077   4.505   3.298  0.5421  0.5107  0.8712
 3209TIP3    H2 9634   1.133   4.601   3.196 -2.5751  2.8463  1.2242
 3210TIP3   OH2 9635   6.003   5.254   5.114  0.0454 -0.3674  0.0314
 3210TIP3    H1 9636   6.007   5.196   5.038 -1.6261  0.6096 -0.8596
 3210TIP3    H2 9637   5.952   5.206   5.179 -4.6278  1.2961 -2.0094
 3211TIP3   OH2 9638   1.141   1.640   1.797 -0.2715 -0.5773  0.3306
 3211TIP3    H1 9639   1.053   1.637   1.760  0.0072 -0.4948 -0.3510
 3211TIP3    H2 9640   1.156   1.732   1.819  1.1312  0.2384 -3.3002
 3212TIP3   OH2 9641   1.256   2.350   3.353  0.1250  0.8118 -0.2206
 3212TIP3    H1 9642   1.233   2.314   3.439 -0.6503 -0.7800 -1.0586
 3212TIP3    H2 9643   1.351   2.346   3.351  0.1031 -0.3736  0.0836
 3213TIP3   OH2 9644   4.896   2.979   3.159  0.4231 -0.2445 -0.0879
 3213TIP3    H1 9645   4.810   3.011   3.133  1.1130  0.6072 -1.3597
 3213TIP3    H2 9646   4.891   2.884   3.145 -0.0860 -0.1192 -0.7796
 3214TIP3   OH2 9647   0.303   3.484   4.435  0.4366 -0.1760 -0.2414
 3214TIP3    H1 9648   0.374   3.439   4.389  0.8584 -0.4103  0.6112
 3214TIP3    H2 9649   0.275   3.552   4.375  0.1937 -1.1928 -1.3207
 3215TIP3   OH2 9650   4.563   4.756   1.684  0.9611 -0.0001  0.6130
 3215TIP3    H1 9651   4.506   4.681   1.665 -0.3288  0.9970  0.3635
 3215TIP3    H2 9652   4.627   4.723   1.746  0.3003 -1.2644  0.6527
 3216TIP3   OH2 9653   2.805   0.950   4.228 -0.2482  0.0523  0.5091
 3216TIP3    H1 9654   2.727   1.000   4.205  0.5038  0.3153 -1.7370
 3216TIP3    H2 9655   2.810   0.955   4.323 -1.5700  2.1647  0.5284
 3217TIP3   OH2 9656   2.387   5.898   2.779  0.0854 -0.3554  0.0027
 3217TIP3    H1 9657   2.385   5.986   2.815 -1.3377 -0.1784 -0.4704
 3217TIP3    H2 9658   2.432   5.907   2.695 -0.1472 -0.0673 -0.0913
 3218TIP3   OH2 9659   1.681   1.509   4.593  0.0788  0.1231  0.1849
 3218TIP3    H1 9660   1.732   1.553   4.525 -0.3488 -0.6668 -0.6576
 3218TIP3    H2 9661   1.590   1.534   4.575 -0.0592 -0.2634  0.3285
 3219TIP3   OH2 9662   4.257   3.846   1.896  0.0727  0.3952 -0.0254
 3219TIP3    H1 9663   4.324   3.779   1.911 -0.3143  0.1980  0.9124
 3219TIP3    H2 9664   4.205   3.846   1.976  0.3299  2.1444  0.1858
 3220TIP3   OH2 9665   0.042   0.817   3.149 -0.3350 -0.0476  0.2963
 3220TIP3    H1 9666  -0.032   0.808   3.090  0.4797 -1.2999 -0.5713
 3220TIP3    H2 9667   0.014   0.882   3.213 -2.1817 -0.5267  0.0075
 3221TIP3   OH2 9668   5.247   0.563   1.977  0.8306 -0.4691  0.2128
 3221TIP3    H1 9669   5.262   0.632   2.042 -0.8723 -0.5933  0.7822
 3221TIP3    H2 9670   5.269   0.482   2.022 -0.3980 -0.5596  0.6868
 3222TIP3   OH2 9671   0.455   2.548   5.063  0.4273 -0.0178 -0.4860
 3222TIP3    H1 9672   0.472   2.635   5.099  0.9738  0.0072 -0.8029
 3222TIP3    H2 9673   0.375   2.519   5.108  1.8555 -0.5977  1.8316
 3223TIP3   OH2 9674   2.291   3.482   3.354 -0.2359 -0.2311 -0.1861
 3223TIP3    H1 9675   2.217   3.532   3.389 -0.6259 -0.9035 -0.0302
 3223TIP3    H2 9676   2.343   3.546   3.305 -0.4232  0.4400  0.4796
 3224TIP3   OH2 9677   0.890   5.857   1.747  0.6057 -0.7499  0.7819
 3224TIP3    H1 9678   0.803   5.892   1.728  1.3754  1.3530  0.8681
 3224TIP3    H2 9679   0.945   5.891   1.677  1.4991 -1.5018  1.1045
 3225TIP3   OH2 9680   2.690   4.654   3.889  0.0401 -0.4971  0.3457
 3225TIP3    H1 9681   2.628   4.614   3.827 -0.7163  1.2869 -0.1311
 3225TIP3    H2 9682   2.762   4.591   3.895 -0.6129 -1.4486 -1.1208
 3226TIP3   OH2 9683   6.215   5.195   0.711  0.3211  0.3761  0.6549
 3226TIP3    H1 9684   6.260   5.279   0.723 -2.1268  1.9391 -0.3100
 3226TIP3    H2 9685   6.124   5.213   0.734 -0.0597 -2.4006  1.6760
 3227TIP3   OH2 9686   3.113   3.528   2.744 -0.4360  0.4856 -0.4792
 3227TIP3    H1 9687   3.144   3.615   2.719  0.2089 -0.0187 -1.5298
 3227TIP3    H2 9688   3.173   3.468   2.699 -1.2039 -0.5055 -0.2099
 3228TIP3   OH2 9689   1.531   2.757   3.592  0.5634 -0.7494 -0.0835
 3228TIP3    H1 9690   1.447   2.779   3.550  0.7298 -0.8548 -0.4721
 3228TIP3    H2 9691   1.591   2.743   3.519  0.8543 -0.9390  0.1937
 3229TIP3   OH2 9692   5.007   2.058   4.439  0.0473 -0.5698 -0.1071
 3229TIP3    H1 9693   4.954   1.980   4.459  0.6346 -1.0816 -0.5346
 3229TIP3    H2 9694   4.975   2.124   4.501 -0.4732 -1.1387  0.2488
 3230TIP3   OH2 9695   1.816   3.320   2.018 -0.0231 -0.0595  0.2877
 3230TIP3    H1 9696   1.861   3.404   2.017 -0.5797  0.2361 -0.0159
 3230TIP3    H2 9697   1.853   3.272   1.944  1.2707 -0.6159  1.2462
 3231TIP3   OH2 9698   1.532   3.668   2.506  0.5503  0.4166  0.7012
 3231TIP3    H1 9699   1.535   3.759   2.474  1.4665  0.7177  1.6135
 3231TIP3    H2 9700   1.515   3.616   2.427 -2.0120  1.5005  0.4086
 3232TIP3   OH2 9701   1.820   0.826   1.948  0.5323 -0.4281  0.0213
 3232TIP3    H1 9702   1.736   0.866   1.924  1.1667  0.6221 -0.5395
 3232TIP3    H2 9703   1.796   0.750   2.002 -0.8537 -1.3926 -1.8527
 3233TIP3   OH2 9704   3.791   5.519   3.434  0.7517  0.1424 -0.2897
 3233TIP3    H1 9705   3.855   5.470   3.382  1.6333  1.3026 -0.3370
 3233TIP3    H2 9706   3.717   5.459   3.444  0.9778 -0.4775 -2.0162
 3234TIP3   OH2 9707   3.636   4.322   2.296 -0.3450  0.4009 -0.7662
 3234TIP3    H1 9708   3.629   4.258   2.367 -0.3012  0.9993 -0.2193
 3234TIP3    H2 9709   3.667   4.270   2.221 -1.9147 -0.5386 -0.8019
 3235TIP3   OH2 9710   4.941   0.885   4.664 -0.3159 -0.0055  0.0483
 3235TIP3    H1 9711   4.859   0.923   4.696 -0.4677 -0.6490  0.4461
 3235TIP3    H2 9712   4.914   0.804   4.620  0.1687 -0.7173  1.0025
 3236TIP3   OH2 9713   4.652   4.342   4.801  0.6544 -0.2371  0.3997
 3236TIP3    H1 9714   4.661   4.285   4.877 -0.2248 -1.5649 -0.4643
 3236TIP3    H2 9715   4.599   4.416   4.832 -0.9950 -1.5037  0.7272
 3237TIP3   OH2 9716   2.631   3.052   3.313 -0.5685 -0.5993  0.1547
 3237TIP3    H1 9717   2.662   3.029   3.400  0.2768  0.7455  0.2322
 3237TIP3    H2 9718   2.547   3.096   3.328  0.1887  0.8111  0.4318
 3238TIP3   OH2 9719   0.153   2.695   1.463 -0.2680  0.0620  0.6553
 3238TIP3    H1 9720   0.232   2.724   1.417  0.3744  0.4737  1.9748
 3238TIP3    H2 9721   0.081   2.724   1.407  0.4894 -0.3294 -0.5806
 3239TIP3   OH2 9722   6.012   1.984   2.682 -0.2702 -0.1789 -0.0983
 3239TIP3    H1 9723   6.058   2.003   2.763 -0.8680 -0.2114  0.2498
 3239TIP3    H2 9724   5.920   1.992   2.703 -0.4734 -1.1648 -0.5140
 3240TIP3   OH2 9725   2.685   5.958   2.799  0.1459 -0.0785  0.0540
 3240TIP3    H1 9726   2.628   5.958   2.876  0.2218 -1.0353  0.1265
 3240TIP3    H2 9727   2.765   6.000   2.829  0.5305 -1.2790  0.8000
 3241TIP3   OH2 9728   2.768   4.594   2.467 -0.5621 -0.5885  0.0857
 3241TIP3    H1 9729   2.803   4.618   2.552  0.2419  1.9399 -0.8702
 3241TIP3    H2 9730   2.824   4.522   2.438  1.2836  0.6620  0.3513
 3242TIP3   OH2 9731   0.549   1.233   2.385 -0.0961 -0.4317  0.0004
 3242TIP3    H1 9732   0.473   1.219   2.329 -1.4861  0.0618  1.6760
 3242TIP3    H2 9733   0.621   1.192   2.338 -1.5920 -1.8790 -1.1604
 3243TIP3   OH2 9734   1.872   1.600   4.403 -0.3006 -0.5437 -0.5340
 3243TIP3    H1 9735   1.914   1.514   4.408 -1.5182 -1.1632 -0.5395
 3243TIP3    H2 9736   1.944   1.662   4.410  0.4792 -1.5473  0.8324
 3244TIP3   OH2 9737   5.430   2.954   1.519 -0.0806  0.0929  0.5027
 3244TIP3    H1 9738   5.368   2.898   1.566  0.2630  0.1964  1.0889
 3244TIP3    H2 9739   5.388   2.971   1.435 -0.8967  0.2560  0.9371
 3245TIP3   OH2 9740   2.817   4.223   2.515  0.0456 -0.4203 -0.4669
 3245TIP3    H1 9741   2.814   4.307   2.469 -0.7809  0.0693  0.4504
 3245TIP3    H2 9742   2.896   4.180   2.480  0.9253  1.0541 -0.3927
 3246TIP3   OH2 9743   0.992   5.516   5.167 -0.4554 -1.0279 -0.0624
 3246TIP3    H1 9744   0.921   5.498   5.228 -1.0727 -0.4173 -0.5778
 3246TIP3    H2 9745   0.971   5.603   5.131  0.4273 -0.9409 -0.3908
 3247TIP3   OH2 9746   2.175   2.484   2.541  0.3978  0.0132 -0.2998
 3247TIP3    H1 9747   2.227   2.445   2.611  0.3207 -0.1817 -0.3497
 3247TIP3    H2 9748   2.151   2.410   2.485 -0.0443  0.0829 -0.2042
 3248TIP3   OH2 9749   1.777   1.355   3.933  0.6693  0.4149  0.4398
 3248TIP3    H1 9750   1.822   1.431   3.971  0.1960  1.6729 -1.4056
 3248TIP3    H2 9751   1.685   1.380   3.931  0.7097  0.5940 -1.8235
 3249TIP3   OH2 9752   1.093   2.810   2.370  0.0593 -0.1101  0.0671
 3249TIP3    H1 9753   1.065   2.875   2.435  1.3892  0.3013  0.2507
 3249TIP3    H2 9754   1.171   2.770   2.408  0.2457 -0.6115 -0.8108
 3250TIP3   OH2 9755   1.872   1.070   0.266  0.4253  1.0112  0.2519
 3250TIP3    H1 9756   1.910   1.058   0.179 -0.8004  1.0622 -0.3081
 3250TIP3    H2 9757   1.943   1.047   0.326  0.6800 -1.0801 -0.7483
 3251TIP3   OH2 9758   0.823   3.510   2.040 -0.7521 -0.0281  0.5257
 3251TIP3    H1 9759   0.868   3.593   2.023 -0.7420 -0.1076  0.1562
 3251TIP3    H2 9760   0.874   3.445   1.992  0.1038 -0.4883  1.9940
 3252TIP3   OH2 9761   3.965   3.483   0.709  0.8622 -0.5101  0.0187
 3252TIP3    H1 9762   3.995   3.431   0.634  0.5505 -1.6559  0.6707
 3252TIP3    H2 9763   4.036   3.477   0.773 -0.3543 -2.6334  1.2767
 3253TIP3   OH2 9764   1.740   3.757   3.233  0.1563 -0.2043  0.3557
 3253TIP3    H1 9765   1.770   3.844   3.209 -0.4890  0.1874  0.9130
 3253TIP3    H2 9766   1.818   3.712   3.266  1.1561 -0.9026 -2.6978
 3254TIP3   OH2 9767   5.357   5.054   4.672  0.2349  0.1681  0.0207
 3254TIP3    H1 9768   5.319   4.970   4.646  2.3354 -0.7959 -0.1493
 3254TIP3    H2 9769   5.284   5.116   4.670 -0.9719 -1.2291 -1.8515
 3255TIP3   OH2 9770   2.978   2.583   2.495  0.4112 -1.2039 -0.8832
 3255TIP3    H1 9771   2.898   2.634   2.504  1.9302  1.2325 -0.2606
 3255TIP3    H2 9772   3.004   2.595   2.404  0.9867 -0.4789 -0.6329
 3256TIP3   OH2 9773   4.274   2.173   4.790 -0.1051 -0.0319 -0.5036
 3256TIP3    H1 9774   4.261   2.131   4.875 -0.0635 -1.6788 -1.2881
 3256TIP3    H2 9775   4.363   2.207   4.794 -0.6412  1.3695  0.6919
 3257TIP3   OH2 9776   4.197   5.327   0.398 -0.1637 -0.3593  0.2701
 3257TIP3    H1 9777   4.241   5.388   0.340 -0.8473  2.2844  2.3185
 3257TIP3    H2 9778   4.267   5.286   0.449  0.1625  1.2837  1.1824
 3258TIP3   OH2 9779   5.322   4.623   3.668 -0.1085  0.8691  0.3830
 3258TIP3    H1 9780   5.249   4.562   3.675  0.2878  0.2823 -0.3908
 3258TIP3    H2 9781   5.381   4.600   3.739  0.5644 -0.4039 -0.5466
 3259TIP3   OH2 9782   3.331   4.966   1.230 -0.5025  0.1817  0.1522
 3259TIP3    H1 9783   3.267   4.912   1.276 -0.1681 -0.8999 -0.6071
 3259TIP3    H2 9784   3.393   4.993   1.297 -0.7282 -0.3121  0.5597
 3260TIP3   OH2 9785   2.884   4.925   4.848 -0.7984  0.2538 -0.6756
 3260TIP3    H1 9786   2.849   4.948   4.762 -0.0393 -0.0496 -1.0702
 3260TIP3    H2 9787   2.962   4.873   4.830  0.2600  1.4597  0.1775
 3261TIP3   OH2 9788   2.243   2.714   0.793  0.0119  0.0846 -0.1171
 3261TIP3    H1 9789   2.189   2.696   0.716  1.6648  0.6876 -1.5005
 3261TIP3    H2 9790   2.187   2.762   0.853 -1.0962  0.2838 -1.2902
 3262TIP3   OH2 9791   0.600   4.974   1.478  0.2450 -0.0500  0.6602
 3262TIP3    H1 9792   0.590   5.068   1.467 -1.4051 -0.1601  0.8621
 3262TIP3    H2 9793   0.613   4.940   1.389  0.8593  0.3641  0.5916
 3263TIP3   OH2 9794   2.639   2.338   2.949 -0.2558  0.0150  0.7273
 3263TIP3    H1 9795   2.573   2.270   2.936 -0.5026  0.0459  1.7476
 3263TIP3    H2 9796   2.613   2.409   2.891  0.1827 -0.8768 -0.5923
 3264TIP3   OH2 9797   0.707   0.276   1.093  0.1321  1.1569  0.4993
 3264TIP3    H1 9798   0.753   0.293   1.175  0.9996  1.3216 -0.0074
 3264TIP3    H2 9799   0.743   0.192   1.063 -0.9427  0.5716  0.8035
 3265TIP3   OH2 9800   4.722   5.793   3.251  0.3738 -0.3172  0.2752
 3265TIP3    H1 9801   4.702   5.700   3.251  1.5846 -0.5954 -0.0759
 3265TIP3    H2 9802   4.687   5.825   3.168  0.3856 -0.5620  0.1755
 3266TIP3   OH2 9803   2.448   4.001   0.297 -0.8341  0.1273 -0.2543
 3266TIP3    H1 9804   2.388   3.981   0.225 -1.7904 -0.5050  0.6860
 3266TIP3    H2 9805   2.456   4.097   0.296 -1.3183  0.1681 -0.8138
 3267TIP3   OH2 9806   0.791   1.603   5.142 -0.5856 -0.5551  0.1250
 3267TIP3    H1 9807   0.749   1.625   5.058  1.8500  1.1963 -0.7457
 3267TIP3    H2 9808   0.881   1.581   5.118 -0.2526 -1.6225  2.1813
 3268TIP3   OH2 9809   5.118   0.346   0.470  0.3807 -0.2044 -0.4927
 3268TIP3    H1 9810   5.110   0.287   0.546 -1.8086 -0.7184 -1.0718
 3268TIP3    H2 9811   5.149   0.428   0.507  1.3390 -1.0422  0.6548
 3269TIP3   OH2 9812   6.186   0.481   0.879  0.1562 -0.2406  0.1681
 3269TIP3    H1 9813   6.268   0.470   0.830 -0.5273  1.2669 -1.4574
 3269TIP3    H2 9814   6.118   0.462   0.815 -0.8373 -2.0605  1.6530
 3270TIP3   OH2 9815   5.275   1.332   3.123 -0.0440 -0.3871 -0.0449
 3270TIP3    H1 9816   5.241   1.277   3.052 -0.9617  0.2037 -0.0844
 3270TIP3    H2 9817   5.202   1.338   3.185 -0.3290  1.5748 -0.5042
 3271TIP3   OH2 9818   5.367   0.487   2.403 -0.2961 -0.0826  0.1818
 3271TIP3    H1 9819   5.421   0.410   2.391  1.3000  0.9899  0.1316
 3271TIP3    H2 9820   5.290   0.472   2.348  1.2688 -0.4544 -2.0427
 3272TIP3   OH2 9821   1.879   4.272   4.248  0.0033  0.3641 -0.4218
 3272TIP3    H1 9822   1.889   4.178   4.258  1.1941  0.6791  2.3056
 3272TIP3    H2 9823   1.792   4.283   4.210  0.0949 -1.8197 -1.4124
 3273TIP3   OH2 9824   6.324   1.711   0.740  0.0629 -0.1607  0.1019
 3273TIP3    H1 9825   6.274   1.758   0.807  1.5970  0.5287  0.7941
 3273TIP3    H2 9826   6.314   1.765   0.661 -2.0019 -1.1301 -0.3892
 3274TIP3   OH2 9827   5.009   5.232   2.983 -0.0176  0.1260  0.0522
 3274TIP3    H1 9828   5.043   5.143   2.973 -0.9514 -0.5950  2.6450
 3274TIP3    H2 9829   5.086   5.288   2.971  0.7269 -1.0397 -0.8712
 3275TIP3   OH2 9830   6.264   1.897   2.296 -0.1279  0.0995  0.3362
 3275TIP3    H1 9831   6.196   1.853   2.348  0.5828 -1.2353  0.1899
 3275TIP3    H2 9832   6.238   1.883   2.205 -0.0713  0.2711  0.2934
 3276TIP3   OH2 9833   0.679   3.548   4.000  0.1774 -0.1867 -0.0870
 3276TIP3    H1 9834   0.736   3.490   3.950  0.6364  0.3834 -0.2306
 3276TIP3    H2 9835   0.722   3.554   4.086  0.7093  0.7796 -0.4079
 3277TIP3   OH2 9836   4.962   1.859   5.159 -0.3261  0.0553  0.4207
 3277TIP3    H1 9837   4.979   1.897   5.073  1.8067 -1.2531  0.1883
 3277TIP3    H2 9838   4.886   1.802   5.145 -2.6425  2.8831  0.4498
 3278TIP3   OH2 9839   5.302   2.571   5.136 -0.6564  0.3494 -0.0197
 3278TIP3    H1 9840   5.361   2.605   5.203 -1.0410  2.8928 -0.8447
 3278TIP3    H2 9841   5.281   2.483   5.165  0.0915  0.9344  2.5943
 3279TIP3   OH2 9842   4.257   4.800   2.723  0.1012  0.0373 -0.4962
 3279TIP3    H1 9843   4.178   4.773   2.769  0.9538  1.9165  2.2821
 3279TIP3    H2 9844   4.225   4.835   2.640 -1.7914 -0.8201 -0.1834
 3280TIP3   OH2 9845   3.450   5.269   4.890 -0.1667 -0.0661  0.1817
 3280TIP3    H1 9846   3.387   5.197   4.900 -0.7733  0.2190 -1.3433
 3280TIP3    H2 9847   3.525   5.242   4.944 -0.6802 -1.4827  0.2490
 3281TIP3   OH2 9848   1.771   4.147   1.052 -0.3557 -0.3885  0.0690
 3281TIP3    H1 9849   1.766   4.179   1.142  1.3960 -0.0756  0.0880
 3281TIP3    H2 9850   1.738   4.219   0.999  1.2748  0.5644  0.2885
 3282TIP3   OH2 9851   2.801   3.733   1.488 -0.1365  0.0923  0.5669
 3282TIP3    H1 9852   2.797   3.667   1.419 -0.0300  0.9607 -0.2952
 3282TIP3    H2 9853   2.749   3.696   1.560 -0.0151 -0.9495  0.1407
 3283TIP3   OH2 9854   3.839   1.712   3.849 -0.0879  0.1004  0.1392
 3283TIP3    H1 9855   3.798   1.664   3.921  0.4730  1.3885  1.3714
 3283TIP3    H2 9856   3.916   1.753   3.889 -0.1040  1.3440 -1.0557
 3284TIP3   OH2 9857   5.424   0.163   2.491  0.1637  0.3438  0.1211
 3284TIP3    H1 9858   5.431   0.220   2.568  2.8789 -0.4601  0.5734
 3284TIP3    H2 9859   5.352   0.104   2.511 -0.8343  1.7579  0.8891
 3285TIP3   OH2 9860   1.994   1.062   2.531  0.4985  0.5685 -0.1460
 3285TIP3    H1 9861   2.062   1.082   2.466  1.1966 -1.8906 -0.2626
 3285TIP3    H2 9862   1.921   1.120   2.508  1.6866  1.6033 -1.4749
 3286TIP3   OH2 9863   0.967   1.969   0.067  0.1031  0.1610 -0.0472
 3286TIP3    H1 9864   0.915   1.917   0.006 -0.3047 -2.4068  2.2677
 3286TIP3    H2 9865   0.906   2.034   0.101 -0.2444  0.2446 -0.8079
 3287TIP3   OH2 9866   2.915   4.409   2.332 -0.0086  0.5629  0.7911
 3287TIP3    H1 9867   3.010   4.395   2.342  0.0633  0.4404  0.0223
 3287TIP3    H2 9868   2.908   4.471   2.260 -0.6019 -3.1257 -2.7519
 3288TIP3   OH2 9869   2.203   3.879   3.092  0.1257 -0.2721  0.0985
 3288TIP3    H1 9870   2.154   3.952   3.054 -0.8016 -1.0861 -0.3140
 3288TIP3    H2 9871   2.282   3.872   3.037 -1.1445 -1.3721 -1.7144
 3289TIP3   OH2 9872   3.358   3.405   2.656 -0.1527  0.3388  0.4779
 3289TIP3    H1 9873   3.365   3.433   2.564 -2.6097  0.3625  0.2511
 3289TIP3    H2 9874   3.442   3.432   2.695  1.1939 -0.1709 -1.8506
 3290TIP3   OH2 9875   1.336   4.391   4.498 -0.0471  0.4541 -0.5020
 3290TIP3    H1 9876   1.344   4.477   4.538  1.5964  1.2145 -2.2926
 3290TIP3    H2 9877   1.378   4.400   4.412 -0.7494 -1.8584 -1.1719
 3291TIP3   OH2 9878   1.235   4.993   2.073 -0.2121 -0.3497  0.1919
 3291TIP3    H1 9879   1.227   4.945   2.156  0.5394 -1.4026 -0.3054
 3291TIP3    H2 9880   1.145   5.012   2.047 -0.5098 -1.0236  0.6906
 3292TIP3   OH2 9881   5.584   5.880   3.472 -0.1673  0.3838  0.3812
 3292TIP3    H1 9882   5.666   5.917   3.438 -0.6758  1.3237  0.1660
 3292TIP3    H2 9883   5.521   5.892   3.402 -0.9169  1.1902  1.1742
 3293TIP3   OH2 9884   1.058   4.989   2.638  0.3033  0.2085  0.4500
 3293TIP3    H1 9885   1.086   5.002   2.547  3.2493 -1.2117  1.0426
 3293TIP3    H2 9886   1.088   5.067   2.684 -0.6962  0.6711  0.3517
 3294TIP3   OH2 9887   4.461   5.938   3.936  0.5532 -0.1209 -0.2021
 3294TIP3    H1 9888   4.530   5.938   4.002 -1.3933  0.6020  1.9404
 3294TIP3    H2 9889   4.480   6.015   3.882  1.1383  0.3523  0.6519
 3295TIP3   OH2 9890   0.343   3.115   2.220  0.1373 -0.0710  0.2779
 3295TIP3    H1 9891   0.335   3.204   2.186 -1.4102  0.2958  1.5171
 3295TIP3    H2 9892   0.261   3.073   2.196  1.7082 -1.9743 -2.3400
 3296TIP3   OH2 9893   0.398   5.785   4.217  0.2214 -0.1739  0.3741
 3296TIP3    H1 9894   0.408   5.855   4.281 -0.5051  0.9774 -0.7272
 3296TIP3    H2 9895   0.422   5.825   4.133 -3.2624 -0.1916 -0.8153
 3297TIP3   OH2 9896   3.478   4.879   2.909 -0.1450  0.2739  0.4213
 3297TIP3    H1 9897   3.431   4.863   2.991  1.0052  2.3739  1.5663
 3297TIP3    H2 9898   3.413   4.919   2.852 -0.6472 -0.1098  0.7090
 3298TIP3   OH2 9899   0.724   2.299   1.517 -0.8633 -0.3245  0.2019
 3298TIP3    H1 9900   0.811   2.259   1.516 -0.8987 -0.4096  0.4945
 3298TIP3    H2 9901   0.729   2.369   1.452  0.2496  1.4181  2.0430
 3299TIP3   OH2 9902   4.033   4.134   0.610  0.3208  0.2359  0.2109
 3299TIP3    H1 9903   4.024   4.044   0.641  0.7643  0.6717  1.6484
 3299TIP3    H2 9904   4.033   4.126   0.515 -1.0757 -1.1451  0.2838
 3300TIP3   OH2 9905   2.160   1.292   3.952 -0.4208 -0.0265  0.1244
 3300TIP3    H1 9906   2.182   1.303   3.860 -2.2369  1.8287 -0.1573
 3300TIP3    H2 9907   2.242   1.311   3.998  0.1891  0.3169 -1.0641
 3301TIP3   OH2 9908   3.041   1.485   3.891 -0.2921 -0.6032 -0.1575
 3301TIP3    H1 9909   3.091   1.466   3.812 -2.5940 -0.7520 -1.6575
 3301TIP3    H2 9910   3.045   1.404   3.942 -0.9975 -1.4445 -1.3936
 3302TIP3   OH2 9911   3.681   3.516   4.352  0.3789 -0.0397  0.6265
 3302TIP3    H1 9912   3.659   3.434   4.308 -0.2947  1.6272 -2.4369
 3302TIP3    H2 9913   3.598   3.548   4.387  0.1026  0.5124 -0.4687
 3303TIP3   OH2 9914   2.137   3.561   1.427 -0.1616  0.1211  0.6647
 3303TIP3    H1 9915   2.126   3.556   1.521 -1.0653 -1.1566  0.5160
 3303TIP3    H2 9916   2.213   3.619   1.414  1.2046 -1.2349  2.2471
 3304TIP3   OH2 9917   5.297   1.392   3.517 -0.0167 -0.0066 -0.7419
 3304TIP3    H1 9918   5.305   1.430   3.429  1.2561  0.6747 -0.3531
 3304TIP3    H2 9919   5.225   1.441   3.558  0.8334  1.1977 -0.6581
 3305TIP3   OH2 9920   0.500   0.913   2.449  0.1080  0.4105 -0.0484
 3305TIP3    H1 9921   0.417   0.959   2.436  0.1807  0.7030  0.4598
 3305TIP3    H2 9922   0.505   0.851   2.377  0.6022  2.0569 -1.5031
 3306TIP3   OH2 9923   5.991   0.066   2.406  0.1042 -0.4787  0.7770
 3306TIP3    H1 9924   6.053   0.138   2.420 -2.9194  2.7074 -0.6282
 3306TIP3    H2 9925   6.001   0.044   2.313 -0.6495 -0.1337  0.6104
 3307TIP3   OH2 9926   2.722   3.699   2.568  0.1666  0.5210 -0.7231
 3307TIP3    H1 9927   2.641   3.662   2.532  0.1366  0.0376 -0.1729
 3307TIP3    H2 9928   2.792   3.663   2.514  0.1794 -0.7768  0.1242
 3308TIP3   OH2 9929   1.225   5.414   4.234  0.2380 -0.6479 -0.3211
 3308TIP3    H1 9930   1.256   5.455   4.315 -1.7214 -1.4004  0.8920
 3308TIP3    H2 9931   1.224   5.485   4.170 -2.0837  1.0803  1.4367
 3309TIP3   OH2 9932   2.543   0.163   1.822 -0.0782  0.3977  0.3410
 3309TIP3    H1 9933   2.488   0.225   1.870 -1.1927 -0.7038  0.5518
 3309TIP3    H2 9934   2.483   0.092   1.798  0.7748  0.2424 -1.4462
 3310TIP3   OH2 9935   1.747   0.861   2.571  0.2964  0.0799 -0.4503
 3310TIP3    H1 9936   1.814   0.917   2.533 -0.7769  1.8200  0.0785
 3310TIP3    H2 9937   1.711   0.913   2.643 -2.2633 -0.3275 -1.3166
 3311TIP3   OH2 9938   4.659   2.563   3.483 -0.9700 -0.4380  0.6159
 3311TIP3    H1 9939   4.732   2.573   3.544 -2.0039 -0.1597  1.8460
 3311TIP3    H2 9940   4.613   2.647   3.487 -2.5952 -1.3298  1.5346
 3312TIP3   OH2 9941   3.181   4.954   0.016 -0.5196 -0.6789 -0.0223
 3312TIP3    H1 9942   3.107   5.011  -0.004 -1.1835 -1.2116  0.8854
 3312TIP3    H2 9943   3.146   4.887   0.075 -0.2160 -3.0646 -2.3345
 3313TIP3   OH2 9944   0.323   5.327   0.113 -0.3502  0.1516  0.3666
 3313TIP3    H1 9945   0.396   5.304   0.055 -0.9853 -1.6311  0.2271
 3313TIP3    H2 9946   0.355   5.404   0.161  1.5765 -0.5175  0.2570
 3314TIP3   OH2 9947   5.651   3.014   3.130 -0.0253  0.0772  0.0396
 3314TIP3    H1 9948   5.648   2.974   3.217 -0.7397 -2.5249 -1.0616
 3314TIP3    H2 9949   5.706   3.091   3.140  0.8146 -0.7613  2.5627
 3315TIP3   OH2 9950   4.201   4.019   4.932  0.0421  0.1480 -0.3690
 3315TIP3    H1 9951   4.229   4.107   4.905  0.8514  0.2417  0.7225
 3315TIP3    H2 9952   4.252   3.960   4.877  1.0611  0.3456  0.3372
 3316TIP3   OH2 9953   1.382   5.010   2.894  0.2631  0.7872  0.2353
 3316TIP3    H1 9954   1.419   4.992   2.980 -0.3205  2.8871  0.9828
 3316TIP3    H2 9955   1.326   4.934   2.876  0.3288  0.3504  1.7216
 3317TIP3   OH2 9956   4.411   5.079   0.947  0.3243 -0.0581  0.2458
 3317TIP3    H1 9957   4.459   5.033   1.016  0.8573  1.5910  1.0368
 3317TIP3    H2 9958   4.320   5.050   0.956  0.6929 -1.2272  0.4309
 3318TIP3   OH2 9959   1.117   4.521   0.642 -0.2956 -1.3981  0.2456
 3318TIP3    H1 9960   1.062   4.494   0.715 -2.5360 -1.4611 -1.3589
 3318TIP3    H2 9961   1.061   4.578   0.589  2.4927  1.9373  0.5607
 3319TIP3   OH2 9962   3.496   3.369   3.525  0.1915 -0.2862  0.1006
 3319TIP3    H1 9963   3.580   3.369   3.479 -0.0111 -1.6260 -0.3340
 3319TIP3    H2 9964   3.452   3.448   3.494  1.0827  0.1551 -0.0690
 3320TIP3   OH2 9965   5.388   3.231   2.373  0.8545  0.0195  0.3035
 3320TIP3    H1 9966   5.298   3.225   2.406  0.1514 -1.6286 -1.6550
 3320TIP3    H2 9967   5.429   3.150   2.401  1.8427  0.8786  1.4006
 3321TIP3   OH2 9968   3.159   1.914   0.193  0.6775  0.4255 -0.5152
 3321TIP3    H1 9969   3.193   1.833   0.155 -1.0514 -0.3374 -0.5411
 3321TIP3    H2 9970   3.077   1.888   0.235  2.2825  1.2638  3.5451
 3322TIP3   OH2 9971   3.142   4.714   0.176  0.6612  0.3649 -0.3115
 3322TIP3    H1 9972   3.098   4.632   0.156  0.2012  0.1105  1.5277
 3322TIP3    H2 9973   3.071   4.775   0.198  1.0993  0.5325  0.7038
 3323TIP3   OH2 9974   3.801   2.605   0.311 -0.8572  0.1536  0.4066
 3323TIP3    H1 9975   3.839   2.539   0.370 -0.4646  0.7524  0.8271
 3323TIP3    H2 9976   3.735   2.649   0.363 -2.3217 -1.0105 -0.3814
 3324TIP3   OH2 9977   2.133   4.466   5.153  0.5414  0.0237  0.0405
 3324TIP3    H1 9978   2.122   4.553   5.115  0.3990  1.0594  2.3027
 3324TIP3    H2 9979   2.223   4.442   5.133  0.3464  0.3200 -1.2745
 3325TIP3   OH2 9980   5.098   0.593   4.627  0.2827 -0.6284 -0.0021
 3325TIP3    H1 9981   5.035   0.523   4.612 -1.5869  1.0460 -0.2923
 3325TIP3    H2 9982   5.125   0.582   4.719 -2.3946  0.0601  0.9634
 3326TIP3   OH2 9983   3.310   4.935   0.722 -0.1934  0.3792  0.2825
 3326TIP3    H1 9984   3.303   4.895   0.809 -0.3107  0.1216  0.1563
 3326TIP3    H2 9985   3.221   4.959   0.699 -0.4300 -1.1236 -0.4916
 3327TIP3   OH2 9986   0.190   5.597   3.933  0.5857 -0.3758 -0.2626
 3327TIP3    H1 9987   0.268   5.545   3.913  1.2671 -0.0526  1.3586
 3327TIP3    H2 9988   0.175   5.582   4.027 -1.0460 -0.0695 -0.4383
 3328TIP3   OH2 9989   0.246   2.663   3.726  0.1195 -0.1167  0.1356
 3328TIP3    H1 9990   0.294   2.588   3.762  0.9360 -0.2251 -1.1021
 3328TIP3    H2 9991   0.154   2.636   3.728  0.1866 -0.3168  1.5885
 3329TIP3   OH2 9992   5.328   5.474   4.050 -0.6038  0.3417 -0.4730
 3329TIP3    H1 9993   5.241   5.463   4.013 -1.7260 -2.1688  2.4736
 3329TIP3    H2 9994   5.377   5.398   4.019 -0.4081  0.1612  0.2708
 3330TIP3   OH2 9995   1.892   3.143   0.976 -0.0813  0.0119 -0.1343
 3330TIP3    H1 9996   1.883   3.085   0.901  0.4930  0.1387 -0.3066
 3330TIP3    H2 9997   1.929   3.089   1.045  0.7880  0.2480 -0.4032
 3331TIP3   OH2 9998   0.124   3.682   0.933  0.5431 -0.4421  0.1796
 3331TIP3    H1 9999   0.153   3.592   0.942  0.1502 -0.6015 -0.1033
 3331TIP3    H210000   0.120   3.697   0.839 -1.3622 -0.8044  0.1473
 3332TIP3   OH210001   0.797   5.045   4.938  0.5362  0.0231 -0.2706
 3332TIP3    H110002   0.746   5.050   5.019 -1.6776 -0.8335 -1.5426
 3332TIP3    H210003   0.884   5.017   4.967  0.0029  0.4139  1.8773
 3333TIP3   OH210004   3.119   1.293   1.124 -0.3787  0.2383  0.0316
 3333TIP3    H110005   3.142   1.337   1.042 -0.1366  3.6312  1.7444
 3333TIP3    H210006   3.023   1.286   1.121 -0.3266 -0.3662 -0.8034
 3334TIP3   OH210007   0.370   3.932   0.586 -0.1364  0.1533 -0.0774
 3334TIP3    H110008   0.301   3.960   0.646 -1.4964  0.0810 -1.5071
 3334TIP3    H210009   0.427   4.008   0.577  0.9174 -0.2716  2.3084
 3335TIP3   OH210010   1.214   4.769   2.916  0.3561  0.2391 -0.5932
 3335TIP3    H110011   1.265   4.729   2.987  1.4995  1.2639 -0.8050
 3335TIP3    H210012   1.198   4.696   2.855 -0.6183 -0.6468  0.6689
 3336TIP3   OH210013   3.276   1.760   2.114  0.0880  0.3299  0.1466
 3336TIP3    H110014   3.253   1.687   2.172 -0.3108  0.1364 -0.2462
 3336TIP3    H210015   3.371   1.766   2.120  0.0753  0.1400  0.6152
 3337TIP3   OH210016   0.734   3.942   0.477 -0.0191 -0.5309  0.5663
 3337TIP3    H110017   0.768   3.942   0.566  0.3530  1.8869  0.5068
 3337TIP3    H210018   0.660   4.002   0.480  0.2724 -0.0588 -0.8202
 3338TIP3   OH210019   4.499   1.143   3.470 -0.2668  0.8302  0.0770
 3338TIP3    H110020   4.581   1.129   3.518 -0.0963 -0.3748 -0.5283
 3338TIP3    H210021   4.431   1.109   3.528 -0.0006 -1.2462 -0.7345
 3339TIP3   OH210022   6.234   5.533   3.039 -0.4960  0.2276  0.6439
 3339TIP3    H110023   6.319   5.566   3.071 -0.4421 -0.9405  1.8125
 3339TIP3    H210024   6.177   5.610   3.040  0.8743  1.3579 -1.5385
 3340TIP3   OH210025   2.328   3.747   0.038  0.2929  0.4327  0.6653
 3340TIP3    H110026   2.304   3.690   0.112 -0.5499 -0.0949  0.0103
 3340TIP3    H210027   2.416   3.720   0.014  0.5457  0.5599  1.4373
 3341TIP3   OH210028   0.289   1.291   2.706  0.1358  0.1271 -0.2299
 3341TIP3    H110029   0.246   1.294   2.791  1.0331 -0.3741  0.2564
 3341TIP3    H210030   0.377   1.325   2.722  0.8431 -1.4180 -0.6075
 3342TIP3   OH210031   3.019   2.341   4.325 -0.7338  0.0783  0.1167
 3342TIP3    H110032   2.946   2.303   4.275  0.2719 -2.8859  0.6645
 3342TIP3    H210033   3.055   2.408   4.267 -1.2560 -1.3738 -2.0382
 3343TIP3   OH210034   0.445   2.971   0.096 -0.3296 -0.4472 -0.1579
 3343TIP3    H110035   0.499   3.030   0.148  0.7596 -1.4457 -0.1013
 3343TIP3    H210036   0.454   3.003   0.006 -0.1158 -0.2551 -0.0681
 3344TIP3   OH210037   3.474   0.003   4.507  0.1038  0.4150 -0.2247
 3344TIP3    H110038   3.551   0.014   4.564 -0.1615  0.3991  0.1385
 3344TIP3    H210039   3.459   0.090   4.471  0.4411  0.3665 -0.4903
 3345TIP3   OH210040   1.796   1.036   4.442 -0.2445  0.2238 -0.4491
 3345TIP3    H110041   1.843   1.077   4.370  0.2543 -0.1426 -0.3402
 3345TIP3    H210042   1.731   1.100   4.468  1.0585  1.3076  0.2694
 3346TIP3   OH210043   2.486   0.648   0.692 -0.5717  0.0525  0.2313
 3346TIP3    H110044   2.518   0.683   0.609  2.8060 -0.1090  1.3018
 3346TIP3    H210045   2.474   0.725   0.747 -1.2051  0.0544  0.0897
 3347TIP3   OH210046   5.067   3.007   1.802  0.2844  0.1695  0.1134
 3347TIP3    H110047   5.088   2.972   1.889  0.4607  1.2542  0.5201
 3347TIP3    H210048   5.151   3.027   1.763  0.2101 -0.4342 -0.3710
 3348TIP3   OH210049   5.108   3.721   2.791 -0.3175 -0.0034 -0.0466
 3348TIP3    H110050   5.026   3.744   2.836  0.1542  3.0755 -0.5697
 3348TIP3    H210051   5.175   3.729   2.859 -0.1495 -0.1140 -0.2006
 3349TIP3   OH210052   0.094   4.541   4.119 -0.0401 -0.0436 -0.4681
 3349TIP3    H110053   0.042   4.621   4.107  0.1579 -0.0272 -1.2121
 3349TIP3    H210054   0.042   4.472   4.078  1.1216  0.1925 -2.4700
 3350TIP3   OH210055   2.804   6.007   3.305  0.1094  0.0950 -0.1139
 3350TIP3    H110056   2.775   5.950   3.234 -0.6662  0.4998 -0.1403
 3350TIP3    H210057   2.804   5.952   3.383  0.6877 -0.2789 -0.3782
 3351TIP3   OH210058   3.208   3.064   5.116  0.4365 -0.3890 -0.0142
 3351TIP3    H110059   3.229   3.151   5.148  0.9946 -0.2305 -0.7747
 3351TIP3    H210060   3.283   3.010   5.142 -0.3555 -0.8875  1.3331
 3352TIP3   OH210061   3.672   2.030   3.056 -0.0136 -0.1050  0.3475
 3352TIP3    H110062   3.767   2.019   3.066  0.1865  1.0044 -0.2131
 3352TIP3    H210063   3.661   2.122   3.032 -1.2802 -0.0731  0.9750
 3353TIP3   OH210064   2.143   1.311   2.142 -0.2627 -0.0161 -0.3027
 3353TIP3    H110065   2.092   1.249   2.090 -0.2398  0.3189 -0.7383
 3353TIP3    H210066   2.111   1.397   2.113  1.5172  0.2448 -1.6028
 3354TIP3   OH210067   3.851   2.128   3.250 -0.3519 -0.1165  0.2111
 3354TIP3    H110068   3.793   2.128   3.326  0.1743  1.1451  0.6480
 3354TIP3    H210069   3.895   2.213   3.254 -0.1672 -0.1091 -1.3975
 3355TIP3   OH210070   3.703   1.727   2.992 -0.2366  0.6281 -0.3506
 3355TIP3    H110071   3.700   1.823   2.986 -2.1623  0.5796 -0.8064
 3355TIP3    H210072   3.693   1.710   3.086  1.0403  0.8682 -0.1540
 3356TIP3   OH210073   2.176   2.371   4.239 -0.1729  0.1737 -0.2322
 3356TIP3    H110074   2.085   2.364   4.211 -0.3831 -0.3678  0.5165
 3356TIP3    H210075   2.197   2.464   4.233  0.0026  0.0227 -2.6916
 3357TIP3   OH210076   4.841   0.301   0.635 -0.0325  0.2349  0.3353
 3357TIP3    H110077   4.778   0.244   0.680  0.3444 -0.8352 -0.4488
 3357TIP3    H210078   4.902   0.328   0.704 -0.0983 -0.4829  0.6867
 3358TIP3   OH210079   5.309   4.034   3.095  0.9715  0.4862  0.0437
 3358TIP3    H110080   5.320   4.119   3.051  2.5396  2.3435  3.5945
 3358TIP3    H210081   5.394   3.992   3.089  1.3452  0.9661  1.5397
 3359TIP3   OH210082   6.043   1.926   4.176 -0.0623  0.3335  0.0272
 3359TIP3    H110083   6.009   2.014   4.192  0.1831  0.4940 -0.3456
 3359TIP3    H210084   6.008   1.874   4.249 -0.8604  0.5632 -0.1879
 3360TIP3   OH210085   3.399   0.775   3.872  0.2509  0.1639 -0.1500
 3360TIP3    H110086   3.482   0.752   3.914  0.7968  1.4120 -0.5097
 3360TIP3    H210087   3.418   0.855   3.824 -0.6047 -0.6609 -1.9685
 3361TIP3   OH210088   4.036   3.311   4.587 -0.6119  0.1546 -0.1088
 3361TIP3    H110089   4.026   3.401   4.557 -0.1131 -0.7181 -3.2846
 3361TIP3    H210090   3.950   3.271   4.575 -0.6671  0.0252  0.6644
 3362TIP3   OH210091   3.498   1.432   3.644  0.1164 -0.4954 -0.1178
 3362TIP3    H110092   3.558   1.365   3.675  0.0949 -1.2711 -1.6697
 3362TIP3    H210093   3.545   1.515   3.656  0.8493 -0.9532  0.1697
 3363TIP3   OH210094   4.290   2.996   4.044  0.1994 -0.6483 -0.0292
 3363TIP3    H110095   4.371   3.026   4.003  0.2428 -1.0146 -0.2174
 3363TIP3    H210096   4.221   3.021   3.983  0.2117 -0.7032 -0.0656
 3364TIP3   OH210097   5.156   5.495   3.137  0.1909  0.6618  0.6572
 3364TIP3    H110098   5.066   5.511   3.166  0.1894 -0.2119  1.1717
 3364TIP3    H210099   5.211   5.538   3.203  0.1635  1.8054 -0.0339
 3365TIP3   OH210100   5.599   2.896   2.102 -0.3676  0.3830 -0.3490
 3365TIP3    H110101   5.536   2.876   2.172 -0.6049  0.8967 -0.4115
 3365TIP3    H210102   5.644   2.974   2.133 -0.7341  0.8348 -0.9387
 3366TIP3   OH210103   0.500   1.103   4.591  0.5021  0.0133 -0.2271
 3366TIP3    H110104   0.541   1.017   4.587 -0.6656 -0.5709 -0.1007
 3366TIP3    H210105   0.496   1.124   4.685  0.2652 -0.0611 -0.2192
 3367TIP3   OH210106   0.739   3.477   4.637  0.7283  0.0562  0.2122
 3367TIP3    H110107   0.764   3.565   4.610  0.7204 -0.0009  0.0177
 3367TIP3    H210108   0.810   3.421   4.607  0.4980 -0.0699 -0.1085
 3368TIP3   OH210109   0.062   0.832   2.405  0.0760  0.0484  0.5048
 3368TIP3    H110110  -0.005   0.839   2.472 -1.1146  0.3464 -0.6728
 3368TIP3    H210111   0.145   0.828   2.453 -0.7297  0.4783  1.9601
 3369TIP3   OH210112   0.729  -0.012   1.624 -0.0132 -0.4731  0.0962
 3369TIP3    H110113   0.756   0.080   1.622 -0.4544 -0.2483  2.1887
 3369TIP3    H210114   0.633  -0.008   1.629 -0.0024 -0.9978  0.9524
 3370TIP3   OH210115   5.458   2.785   4.404  0.4019 -0.2000  0.3028
 3370TIP3    H110116   5.487   2.862   4.355 -0.5341  0.8546  1.3426
 3370TIP3    H210117   5.538   2.736   4.422  0.8193 -0.4294 -1.8996
 3371TIP3   OH210118   2.125   0.173   0.401  0.0952 -0.0784  0.4882
 3371TIP3    H110119   2.203   0.205   0.356  0.9121 -0.1617  1.7920
 3371TIP3    H210120   2.144   0.080   0.419 -0.2735 -0.0849  0.8595
 3372TIP3   OH210121   2.229   2.589   0.543  0.3062  0.2448  0.2482
 3372TIP3    H110122   2.205   2.565   0.453  0.0972  2.6773 -0.4457
 3372TIP3    H210123   2.324   2.587   0.544  0.4407  2.4761 -0.8408
 3373TIP3   OH210124   1.860   1.360   1.414  0.2035 -0.5873 -0.5441
 3373TIP3    H110125   1.798   1.329   1.481 -1.0353 -2.0244 -2.2294
 3373TIP3    H210126   1.838   1.308   1.337  1.7450  0.8272 -2.0025
 3374TIP3   OH210127   3.269   3.804   1.750 -0.1410  0.4611 -0.4991
 3374TIP3    H110128   3.243   3.713   1.761  1.0966 -0.0215 -1.3114
 3374TIP3    H210129   3.222   3.851   1.819 -1.3802 -0.6600 -0.5434
 3375TIP3   OH210130   4.741   2.416   1.104  0.0058 -0.0666  0.2294
 3375TIP3    H110131   4.708   2.368   1.028  1.5660 -0.7483 -0.0484
 3375TIP3    H210132   4.681   2.394   1.175 -2.3805  1.7173 -1.0603
 3376TIP3   OH210133   2.054   1.627   3.767 -0.5164 -0.4339 -0.8053
 3376TIP3    H110134   2.062   1.589   3.680 -0.0154  2.5986 -2.1832
 3376TIP3    H210135   1.960   1.644   3.777 -0.4239  0.4593 -1.3589
 3377TIP3   OH210136   2.025   3.343   4.819  0.0559  0.0738  0.5545
 3377TIP3    H110137   1.978   3.344   4.735  0.1378  2.1667  0.4786
 3377TIP3    H210138   2.118   3.338   4.794  0.0874  0.8273  0.4856
 3378TIP3   OH210139   2.733   5.706   4.968 -0.3719  0.1452 -0.2989
 3378TIP3    H110140   2.802   5.725   4.904  0.0549  0.2330  0.1842
 3378TIP3    H210141   2.729   5.610   4.970 -0.5900  0.1454 -0.6741
 3379TIP3   OH210142   2.386   5.885   1.549  0.6283  0.1887 -0.2481
 3379TIP3    H110143   2.412   5.970   1.512  0.9489 -0.0754 -0.6449
 3379TIP3    H210144   2.385   5.899   1.644 -0.4301  0.9420 -0.3556
 3380TIP3   OH210145   3.716   5.644   1.216  0.3662 -0.7264  0.5776
 3380TIP3    H110146   3.684   5.723   1.259  0.5666 -1.7417  2.6886
 3380TIP3    H210147   3.745   5.675   1.129 -0.2886  1.3494  1.0322
 3381TIP3   OH210148   5.623   4.588   1.293  0.4757  0.2772 -0.3467
 3381TIP3    H110149   5.675   4.638   1.357 -0.5417  0.1252  0.6355
 3381TIP3    H210150   5.656   4.617   1.208  1.4316  0.9710  0.2295
 3382TIP3   OH210151   2.564   2.550   0.176  0.5535  0.3492 -0.1010
 3382TIP3    H110152   2.626   2.528   0.106  2.2876 -1.2528  1.8063
 3382TIP3    H210153   2.493   2.597   0.132  0.8799 -1.7588 -3.1580
 3383TIP3   OH210154   0.167   4.617   2.039  0.3364  0.2949 -0.8216
 3383TIP3    H110155   0.154   4.523   2.052 -0.9831  0.5023 -0.4931
 3383TIP3    H210156   0.256   4.633   2.069  1.3045 -1.1726 -2.7285
 3384TIP3   OH210157   4.867   0.727   0.950 -0.4607  0.1127 -0.3300
 3384TIP3    H110158   4.904   0.799   0.900 -0.9875  0.3024 -0.4596
 3384TIP3    H210159   4.918   0.725   1.031  0.9283 -0.7121 -1.1884
 3385TIP3   OH210160   3.845   0.912   4.226 -0.6386  0.4503  0.3204
 3385TIP3    H110161   3.901   0.988   4.247  0.3293  0.2770 -1.4978
 3385TIP3    H210162   3.899   0.857   4.169 -1.3905 -1.5568  1.4471
 3386TIP3   OH210163   2.074   3.477   4.374  0.6184  0.4617  0.3771
 3386TIP3    H110164   2.102   3.569   4.377  0.3288  0.8889 -3.9562
 3386TIP3    H210165   2.156   3.427   4.377  0.7712  0.7044  2.9515
 3387TIP3   OH210166   6.146   1.465   3.099  0.1400 -0.2698  0.4893
 3387TIP3    H110167   6.134   1.560   3.095  0.1803 -0.2444  0.9725
 3387TIP3    H210168   6.127   1.435   3.010  2.3379  0.4341 -0.2782
 3388TIP3   OH210169   3.203   4.794   4.010  0.1046  0.4148  0.1524
 3388TIP3    H110170   3.166   4.715   4.048 -1.2219  0.9988  0.1387
 3388TIP3    H210171   3.169   4.865   4.065 -2.3536  1.3625 -2.3280
 3389TIP3   OH210172   1.017   3.353   4.670  0.1703  0.6449  0.1659
 3389TIP3    H110173   1.112   3.350   4.657  0.2795  1.7355  0.5741
 3389TIP3    H210174   1.000   3.443   4.698 -0.8161  0.0986  1.4027
 3390TIP3   OH210175   6.302   3.590   4.261 -0.4588  0.1097  0.2601
 3390TIP3    H110176   6.393   3.609   4.240 -0.7581  0.7385 -0.5017
 3390TIP3    H210177   6.252   3.623   4.186 -1.3159 -0.2100  0.6747
 3391TIP3   OH210178   6.318   3.243   1.366 -0.0661  0.0724 -0.0688
 3391TIP3    H110179   6.349   3.271   1.279 -0.5711 -0.0745 -0.2996
 3391TIP3    H210180   6.259   3.170   1.348  1.6619 -1.5465  0.5734
 3392TIP3   OH210181   0.361   2.633   4.566  0.2455 -0.4579  0.5747
 3392TIP3    H110182   0.359   2.700   4.498 -1.0795 -0.0203  1.0080
 3392TIP3    H210183   0.361   2.683   4.648 -0.0235 -0.9863  0.8972
 3393TIP3   OH210184   1.870   1.939   0.926  0.6459 -0.4703 -0.4556
 3393TIP3    H110185   1.814   1.997   0.875  0.4508 -1.8740 -1.9198
 3393TIP3    H210186   1.932   1.997   0.970 -0.3854  0.9200 -0.7859
 3394TIP3   OH210187   1.638   1.908   1.822  0.0402  0.2623 -0.1580
 3394TIP3    H110188   1.631   2.003   1.828 -0.2223  0.3274 -1.2819
 3394TIP3    H210189   1.699   1.893   1.749 -0.2639 -0.4265 -0.2787
 3395TIP3   OH210190   4.543   0.344   4.872 -0.8505 -0.1061  0.4213
 3395TIP3    H110191   4.468   0.331   4.815 -0.6930 -1.3046  0.4458
 3395TIP3    H210192   4.617   0.357   4.813 -1.1554  1.7831  0.3996
 3396TIP3   OH210193   0.429  -0.019   4.119  0.1255  0.5105 -0.5653
 3396TIP3    H110194   0.407   0.066   4.157 -0.2928 -0.1049  0.6211
 3396TIP3    H210195   0.523  -0.016   4.104  0.6719  0.1439  2.2908
 3397TIP3   OH210196   1.749   2.961   0.240 -0.7200 -0.8570 -0.2766
 3397TIP3    H110197   1.722   3.015   0.165  0.1909 -0.0179 -0.0189
 3397TIP3    H210198   1.672   2.907   0.259 -2.2719  1.4313  0.4268
 3398TIP3   OH210199   5.871   4.503   2.528 -0.1982  0.8973  0.1651
 3398TIP3    H110200   5.804   4.550   2.479 -0.5966  1.2030  0.9861
 3398TIP3    H210201   5.822   4.446   2.588  0.2800  0.0842 -0.1948
 3399TIP3   OH210202   0.878   3.944   3.810  0.0917  0.1162  0.0807
 3399TIP3    H110203   0.827   3.961   3.889  0.2155 -0.8370  0.3891
 3399TIP3    H210204   0.814   3.947   3.739 -0.1990  0.0485  0.3345
 3400TIP3   OH210205   0.555   2.844   4.134 -0.0655 -0.0587 -0.4325
 3400TIP3    H110206   0.635   2.859   4.184  0.2894  0.0080 -1.0063
 3400TIP3    H210207   0.584   2.839   4.043 -0.7450  0.1729 -0.6707
 3401TIP3   OH210208   2.927   2.771   4.155  0.1272  0.0488  0.5245
 3401TIP3    H110209   2.968   2.778   4.241  0.1718 -0.5199  0.5494
 3401TIP3    H210210   3.001   2.763   4.094  0.0835  0.0861  0.4662
 3402TIP3   OH210211   6.332   0.420   3.084  0.0789  0.2746  0.1879
 3402TIP3    H110212   6.408   0.442   3.029  0.4658 -2.0828 -0.3032
 3402TIP3    H210213   6.266   0.485   3.058  1.7196  2.1102  0.3061
 3403TIP3   OH210214   0.842   5.166   0.372  0.3453  0.3640 -0.1245
 3403TIP3    H110215   0.797   5.083   0.356  0.8300 -0.0908  0.7931
 3403TIP3    H210216   0.895   5.180   0.294 -1.3512  0.9240 -1.2518
 3404TIP3   OH210217   5.691   1.921   4.765 -0.1204 -0.2056  0.4736
 3404TIP3    H110218   5.685   2.017   4.762  0.8780 -0.1615 -1.1471
 3404TIP3    H210219   5.696   1.895   4.673  0.5807 -1.7547  0.9328
 3405TIP3   OH210220   2.139   3.089   4.247 -0.8663 -0.3404  0.4782
 3405TIP3    H110221   2.159   2.996   4.235  1.2025  0.1040  0.0609
 3405TIP3    H210222   2.053   3.090   4.289 -0.9141 -2.4382  0.5258
 3406TIP3   OH210223   0.276   5.732   0.156 -0.2134 -0.1296 -0.4866
 3406TIP3    H110224   0.188   5.705   0.183  0.1841 -1.1320 -0.1275
 3406TIP3    H210225   0.332   5.659   0.183  0.5665 -0.0225 -1.7404
 3407TIP3   OH210226   5.281   0.170   0.666 -0.4275 -0.6789 -0.2194
 3407TIP3    H110227   5.349   0.236   0.647 -1.3523  0.5849  0.6738
 3407TIP3    H210228   5.305   0.135   0.751 -2.0585  1.4522  1.2320
 3408TIP3   OH210229   0.186   4.422   1.375 -0.1496  0.2337 -0.3715
 3408TIP3    H110230   0.195   4.467   1.291  0.0771  1.4879  0.2908
 3408TIP3    H210231   0.216   4.486   1.439 -1.0516 -0.4194  0.7381
 3409TIP3   OH210232   3.588   3.781   0.966 -0.1121  0.0167 -0.1927
 3409TIP3    H110233   3.655   3.845   0.946 -0.2374  0.0370 -0.5521
 3409TIP3    H210234   3.535   3.822   1.034 -0.9813  0.8487 -1.3324
 3410TIP3   OH210235   4.146   0.114   4.253  0.6485 -0.2268  0.1139
 3410TIP3    H110236   4.178   0.085   4.167  0.7626  1.5715 -0.4842
 3410TIP3    H210237   4.052   0.099   4.250  0.5997  0.1937 -0.4748
 3411TIP3   OH210238   3.687   4.131   4.460 -0.0364  0.2296 -0.1330
 3411TIP3    H110239   3.688   4.146   4.366 -0.1909  0.2899 -0.1243
 3411TIP3    H210240   3.780   4.121   4.483 -0.0226 -0.1049 -0.3394
 3412TIP3   OH210241   1.379   4.884   4.454 -0.0199  0.2773 -0.1600
 3412TIP3    H110242   1.472   4.898   4.435  0.1312  0.0999  0.4414
 3412TIP3    H210243   1.337   4.890   4.368  0.5399  0.3953 -0.4351
 3413TIP3   OH210244   5.569   2.426   4.636 -0.3952  0.2396  0.1128
 3413TIP3    H110245   5.580   2.347   4.689 -1.8985  0.2183  0.4279
 3413TIP3    H210246   5.563   2.498   4.699  2.7529  0.9250 -0.2003
 3414TIP3   OH210247   4.927   1.716   0.753 -0.2371 -0.1950  0.2936
 3414TIP3    H110248   4.904   1.745   0.842 -1.9700  0.0206 -0.1856
 3414TIP3    H210249   4.940   1.796   0.704 -0.6691 -0.2748  0.0364
 3415TIP3   OH210250   6.119   2.191   0.255 -0.0569  0.3502  0.1624
 3415TIP3    H110251   6.059   2.201   0.329 -1.4469 -1.2555 -0.6888
 3415TIP3    H210252   6.118   2.276   0.211 -1.5759  0.4211  0.2819
 3416TIP3   OH210253   5.531   1.667   2.954 -0.4079  0.4653 -0.1446
 3416TIP3    H110254   5.492   1.742   2.908  1.8478  0.6729 -1.9092
 3416TIP3    H210255   5.610   1.704   2.995 -0.5227 -0.4758  0.9398
 3417TIP3   OH210256   3.114   2.253   0.123  0.2102  0.6872  0.7034
 3417TIP3    H110257   3.095   2.268   0.031  1.6659 -0.8871  0.1020
 3417TIP3    H210258   3.074   2.328   0.168  0.1985  1.9488 -1.2730
 3418TIP3   OH210259   5.692   3.962   3.974  0.1100  0.1427  0.4580
 3418TIP3    H110260   5.710   4.036   3.916 -0.4070  0.3157  0.5118
 3418TIP3    H210261   5.722   3.991   4.060  0.6278 -0.0121  0.3365
 3419TIP3   OH210262   2.475   3.673   3.810 -0.1081  0.1504  0.3242
 3419TIP3    H110263   2.531   3.675   3.733 -0.3631 -0.1784  0.1267
 3419TIP3    H210264   2.387   3.656   3.775  0.1305 -2.6848  0.8448
 3420TIP3   OH210265   0.553   1.904   1.828  0.0954  0.0018  0.1703
 3420TIP3    H110266   0.503   1.875   1.752 -1.5424 -1.2413  1.6303
 3420TIP3    H210267   0.521   1.993   1.846 -0.3137 -0.1243  0.0593
 3421TIP3   OH210268   4.849   2.194   4.609 -0.3244 -0.4018 -0.1424
 3421TIP3    H110269   4.772   2.139   4.624 -1.1444  0.7474  0.0173
 3421TIP3    H210270   4.820   2.259   4.545  0.1201  0.7677  0.7997
 3422TIP3   OH210271   1.585   0.081   3.702 -0.0487 -0.0915 -0.5432
 3422TIP3    H110272   1.661   0.037   3.741 -0.6456 -1.2265 -0.6019
 3422TIP3    H210273   1.567   0.030   3.622 -1.1420 -0.1253 -0.2912
 3423TIP3   OH210274   0.441   0.605   3.598  0.7799  0.3300  0.3051
 3423TIP3    H110275   0.507   0.553   3.553  0.7144  0.8605 -0.4198
 3423TIP3    H210276   0.453   0.584   3.691  0.2821 -1.5076 -0.0129
 3424TIP3   OH210277   4.846   0.249   2.636 -0.1603  0.1090  0.3395
 3424TIP3    H110278   4.909   0.209   2.576 -1.1242 -1.8016  0.5001
 3424TIP3    H210279   4.864   0.207   2.720 -0.3285  1.0494  0.8542
 3425TIP3   OH210280   4.054   1.919   1.636  0.1928 -0.6983  0.3340
 3425TIP3    H110281   4.072   2.006   1.600 -1.1801  0.0270  1.3044
 3425TIP3    H210282   4.101   1.859   1.579  0.9153  0.6596 -0.5465
 3426TIP3   OH210283   1.674   3.266   3.751 -0.5496  0.2163  0.5042
 3426TIP3    H110284   1.597   3.211   3.767 -0.3637 -0.4767 -0.8726
 3426TIP3    H210285   1.640   3.344   3.707 -0.6961  0.8328  1.6655
 3427TIP3   OH210286   2.783   2.350   4.144 -0.0673 -0.0436 -0.0019
 3427TIP3    H110287   2.713   2.347   4.209 -0.0482  0.4203  0.0393
 3427TIP3    H210288   2.770   2.271   4.092 -2.3044  1.3235 -1.7131
 3428TIP3   OH210289   6.277   3.428   3.425 -0.4215 -0.4593 -0.4717
 3428TIP3    H110290   6.276   3.456   3.334 -1.2670  0.9410 -0.0661
 3428TIP3    H210291   6.236   3.342   3.424 -1.2106 -0.0940 -1.3259
 3429TIP3   OH210292   2.084   2.574   1.746 -0.6520  0.3110  0.0516
 3429TIP3    H110293   2.014   2.557   1.808 -1.2751  2.3481  0.0055
 3429TIP3    H210294   2.088   2.496   1.691 -1.5909 -0.6037  1.2440
 3430TIP3   OH210295   0.267   1.361   4.527  0.0381  0.3890 -0.2956
 3430TIP3    H110296   0.223   1.313   4.598 -0.7409  1.2100 -0.2112
 3430TIP3    H210297   0.316   1.430   4.571  1.3347 -0.4126 -0.4027
 3431TIP3   OH210298   0.190   4.060   4.646 -0.0810  0.0803 -0.1764
 3431TIP3    H110299   0.278   4.083   4.677 -0.0190  0.7974 -0.8409
 3431TIP3    H210300   0.201   3.975   4.604  0.0840 -0.3089  0.6402
 3432TIP3   OH210301  -0.010   2.706   2.372 -0.1720 -0.2699 -0.0572
 3432TIP3    H110302   0.033   2.791   2.378  3.0051 -1.7746  0.3780
 3432TIP3    H210303   0.042   2.657   2.309  0.2928 -3.0200  2.2805
 3433TIP3   OH210304   5.179   2.221   3.970 -0.2517 -0.1315 -0.1751
 3433TIP3    H110305   5.158   2.167   4.046 -0.6187  0.7915  0.3849
 3433TIP3    H210306   5.242   2.285   4.002  0.3844 -0.3820 -0.8987
 3434TIP3   OH210307   2.908   0.539   3.506 -0.1331 -0.3455 -0.8415
 3434TIP3    H110308   2.836   0.495   3.551  0.3708 -0.7457 -0.4225
 3434TIP3    H210309   2.873   0.559   3.419 -0.9297 -0.0434 -0.4543
 3435TIP3   OH210310   4.590   0.137   1.469 -0.0563  0.2458 -0.3377
 3435TIP3    H110311   4.532   0.203   1.506  0.0336  0.5397 -0.7157
 3435TIP3    H210312   4.562   0.129   1.377 -1.1548 -1.4293  0.1038
 3436TIP3   OH210313   0.664   1.312   0.273  0.0293  0.1250  0.2359
 3436TIP3    H110314   0.652   1.319   0.368  2.2666  1.6989  0.4992
 3436TIP3    H210315   0.756   1.286   0.263 -0.1503  0.0564 -1.5270
 3437TIP3   OH210316   3.759   4.496   1.676  0.0742 -0.0069  0.2961
 3437TIP3    H110317   3.853   4.514   1.671  0.1126 -0.2787  0.0171
 3437TIP3    H210318   3.725   4.523   1.591  0.0832 -0.9381 -0.0173
 3438TIP3   OH210319   5.970   3.208   3.270 -0.3270 -0.0098 -0.4016
 3438TIP3    H110320   6.012   3.291   3.293 -0.3728  0.0565 -0.5567
 3438TIP3    H210321   5.993   3.149   3.342 -1.0160  0.3806  0.1545
 3439TIP3   OH210322   4.689   4.028   4.275 -0.2693  0.3371 -0.4210
 3439TIP3    H110323   4.660   3.984   4.195 -0.0364 -1.7132  0.5735
 3439TIP3    H210324   4.630   4.103   4.284 -2.6572 -1.4012 -0.6217
 3440TIP3   OH210325   2.570   5.058   2.997  0.2090 -0.2517  0.2165
 3440TIP3    H110326   2.656   5.092   2.971  0.2246 -0.0642  0.5059
 3440TIP3    H210327   2.509   5.099   2.936  0.5761 -2.4386 -1.7513
 3441TIP3   OH210328   5.799   4.766   2.540  0.5289  0.1188 -0.1135
 3441TIP3    H110329   5.754   4.779   2.623  1.4355  2.0986  0.1281
 3441TIP3    H210330   5.729   4.759   2.475 -0.1896  1.8691  0.4154
 3442TIP3   OH210331   4.295   3.224   0.341  0.1527 -0.3404 -0.0263
 3442TIP3    H110332   4.263   3.242   0.429  0.5683 -1.8430  0.4717
 3442TIP3    H210333   4.249   3.144   0.315  0.8043 -0.4854 -0.7625
 3443TIP3   OH210334   3.094   3.684   3.970 -0.7904 -0.4589  0.1328
 3443TIP3    H110335   3.009   3.675   3.928 -1.1677  0.0846  0.7690
 3443TIP3    H210336   3.141   3.603   3.947 -0.6034  0.2162 -2.1389
 3444TIP3   OH210337   0.344   5.290   2.941  0.4326 -0.1285 -0.1105
 3444TIP3    H110338   0.334   5.385   2.949  0.6858 -0.1509  0.5176
 3444TIP3    H210339   0.297   5.268   2.861  0.7181  0.5860 -0.4914
 3445TIP3   OH210340   2.692   2.953   4.718  0.1961 -0.2331 -0.3621
 3445TIP3    H110341   2.608   2.908   4.712  1.6863 -3.3093  0.1633
 3445TIP3    H210342   2.728   2.950   4.629  1.3123 -2.3425  0.1021
 3446TIP3   OH210343   4.081   2.540   2.090  0.3157 -0.4525 -0.3487
 3446TIP3    H110344   4.003   2.556   2.142  0.6025  1.2655 -0.4040
 3446TIP3    H210345   4.072   2.449   2.060  0.2410 -1.6420  2.8428
 3447TIP3   OH210346   1.304   3.123   1.746  0.4180  0.2854  0.4298
 3447TIP3    H110347   1.237   3.143   1.681 -0.0519  1.2615  1.1780
 3447TIP3    H210348   1.325   3.031   1.732 -1.2464 -0.1072  0.3132
 3448TIP3   OH210349   2.200   1.837   1.152  0.2100  1.2477 -0.3766
 3448TIP3    H110350   2.137   1.845   1.224 -0.8909  1.4108 -1.3254
 3448TIP3    H210351   2.213   1.743   1.142 -2.2905  0.9552 -2.1036
 3449TIP3   OH210352   2.685   3.835   3.088  0.2167 -0.0823 -0.1506
 3449TIP3    H110353   2.657   3.877   3.007 -1.3801  1.1228  0.9693
 3449TIP3    H210354   2.739   3.902   3.132  0.4427 -0.4499  0.1358
 3450TIP3   OH210355   0.133   2.598   2.132  0.1463 -0.2435 -0.5612
 3450TIP3    H110356   0.179   2.682   2.120  1.8042 -0.8865  0.8347
 3450TIP3    H210357   0.066   2.598   2.064  0.0321  2.2578 -0.5549
 3451TIP3   OH210358   1.522   1.584   3.714 -0.0569 -0.5727  0.7252
 3451TIP3    H110359   1.476   1.503   3.735  0.1164 -0.3939  1.8872
 3451TIP3    H210360   1.466   1.628   3.650 -0.8806 -0.9293  1.1844
 3452TIP3   OH210361   1.346   3.690   2.705 -0.0002  0.1789  0.2051
 3452TIP3    H110362   1.396   3.692   2.623 -2.2832 -0.6521 -1.3351
 3452TIP3    H210363   1.410   3.712   2.773  2.1136  0.4352 -1.7243
 3453TIP3   OH210364   0.310   1.362   4.915 -0.8428 -0.0588 -0.2277
 3453TIP3    H110365   0.296   1.433   4.978  0.6522 -0.5372  0.6845
 3453TIP3    H210366   0.222   1.326   4.900 -2.0289  3.2493 -2.3498
 3454TIP3   OH210367   1.088   0.098   4.681 -0.2957  0.5763  0.0269
 3454TIP3    H110368   1.098   0.162   4.611 -0.1071  0.5506  0.0296
 3454TIP3    H210369   1.177   0.070   4.701 -0.4492 -0.6936 -0.9066
 3455TIP3   OH210370   2.378   3.257   0.825 -0.5648  0.2742 -0.5664
 3455TIP3    H110371   2.422   3.182   0.865 -0.8119  0.9468  1.0441
 3455TIP3    H210372   2.406   3.255   0.734  0.9218 -0.6818 -0.1270
 3456TIP3   OH210373   3.058   5.296   4.607  0.1672  0.9527 -0.4414
 3456TIP3    H110374   2.987   5.265   4.552  0.1842 -0.6429  0.3607
 3456TIP3    H210375   3.024   5.373   4.651 -0.5692  1.0100 -1.1060
 3457TIP3   OH210376   2.456   1.131   1.483 -0.3543 -0.1108 -0.4017
 3457TIP3    H110377   2.444   1.038   1.466  2.0514 -0.5868  0.0692
 3457TIP3    H210378   2.427   1.175   1.403 -1.7927 -1.2153 -0.5202
 3458TIP3   OH210379   5.260   3.596   3.812  0.2284  0.2614  0.2346
 3458TIP3    H110380   5.331   3.605   3.876  0.9887  1.1064 -0.6983
 3458TIP3    H210381   5.181   3.623   3.859  0.9572  2.1057  0.4768
 3459TIP3   OH210382   0.848   0.979   2.202 -0.5779 -0.6869  0.2330
 3459TIP3    H110383   0.765   1.019   2.178  0.3267  0.5842 -0.9551
 3459TIP3    H210384   0.907   1.054   2.214 -0.1374 -1.4064  3.3822
 3460TIP3   OH210385   5.047   3.501   4.970  0.0948  0.7114 -0.7824
 3460TIP3    H110386   4.976   3.508   4.906 -0.8208 -0.9400 -0.0061
 3460TIP3    H210387   5.084   3.589   4.973 -1.2005  1.3506 -2.0233
 3461TIP3   OH210388   5.548   5.738   3.700 -0.2394  0.0299  0.2169
 3461TIP3    H110389   5.578   5.769   3.615  0.2702 -1.4320 -0.1609
 3461TIP3    H210390   5.628   5.725   3.751 -0.4338 -0.5768  0.3794
 3462TIP3   OH210391   2.096   0.924   0.663 -0.5589 -0.7987 -0.2070
 3462TIP3    H110392   2.175   0.909   0.612 -1.3966  1.3281 -2.3076
 3462TIP3    H210393   2.026   0.886   0.610 -1.2312 -0.4122  0.3859
 3463TIP3   OH210394   2.092   4.248   0.300  0.1005 -0.3316  0.4809
 3463TIP3    H110395   2.165   4.191   0.323  0.3533  0.4737  1.7591
 3463TIP3    H210396   2.014   4.192   0.308  0.5777 -1.4974 -1.9184
 3464TIP3   OH210397   1.223   0.792   2.187  0.2662 -0.5879 -0.1878
 3464TIP3    H110398   1.271   0.847   2.126  0.4436 -1.1174 -0.5382
 3464TIP3    H210399   1.279   0.787   2.265  0.3107 -0.3890 -0.2073
 3465TIP3   OH210400   5.040   4.389   0.310  0.7062  0.2349 -0.0142
 3465TIP3    H110401   5.024   4.396   0.216 -0.8544  4.6695  0.3497
 3465TIP3    H210402   5.025   4.297   0.330 -2.1842 -0.3149 -3.6126
 3466TIP3   OH210403   1.385   1.945   2.803  0.6255  0.4814  0.0134
 3466TIP3    H110404   1.433   2.027   2.810  0.8488  0.1925  2.6789
 3466TIP3    H210405   1.304   1.960   2.852  0.8080 -0.9537  0.7961
 3467TIP3   OH210406   3.233   3.679   5.097  0.0540  0.0053 -0.4616
 3467TIP3    H110407   3.299   3.706   5.161 -1.0300 -0.1012  0.7340
 3467TIP3    H210408   3.172   3.625   5.147 -0.6566 -0.3410 -1.6708
 3468TIP3   OH210409   2.362   1.644   2.368  0.2496  0.3174  0.1796
 3468TIP3    H110410   2.358   1.560   2.413 -0.5027  0.4115  0.3065
 3468TIP3    H210411   2.366   1.709   2.438  0.1611  0.4168  0.0934
 3469TIP3   OH210412   3.434   2.415   0.942 -0.4192 -0.1838  0.5387
 3469TIP3    H110413   3.385   2.454   0.870  0.3759  2.5396  1.3439
 3469TIP3    H210414   3.385   2.439   1.021  0.2446 -0.6081  1.0989
 3470TIP3   OH210415   2.597   1.933   2.154  0.2662 -0.2394  0.7018
 3470TIP3    H110416   2.653   1.999   2.194  0.6932 -0.4697  0.4842
 3470TIP3    H210417   2.556   1.977   2.080 -0.2811  0.0948  1.1968
 3471TIP3   OH210418   4.970   2.073   0.012  0.1387 -0.0359  0.6561
 3471TIP3    H110419   4.894   2.067   0.069  0.0389  1.8370  0.7703
 3471TIP3    H210420   5.045   2.074   0.072  0.0868  0.9929  0.7070
 3472TIP3   OH210421   4.468   3.471   3.396 -0.3105  0.1309 -0.3517
 3472TIP3    H110422   4.509   3.557   3.406 -0.0872  0.2088 -1.8020
 3472TIP3    H210423   4.535   3.409   3.428 -0.5986  0.4873  1.0127
 3473TIP3   OH210424   2.464   1.612   3.826  0.1898  0.6895  0.0629
 3473TIP3    H110425   2.554   1.646   3.832  0.6590 -0.6366  0.9506
 3473TIP3    H210426   2.437   1.600   3.917 -0.3770 -0.1983 -0.2158
 3474TIP3   OH210427   1.867   1.477   1.744 -0.1884 -0.5429 -0.0196
 3474TIP3    H110428   1.777   1.494   1.715 -0.2731  1.2748  1.1653
 3474TIP3    H210429   1.899   1.562   1.774  1.7068 -1.2951  0.2348
 3475TIP3   OH210430   3.309   5.428   4.523 -0.3038 -0.2844 -0.3671
 3475TIP3    H110431   3.269   5.472   4.448  0.6783  1.3443  0.0091
 3475TIP3    H210432   3.238   5.376   4.561 -1.4677  0.7782 -1.0060
 3476TIP3   OH210433   5.241   4.877   3.544  0.0231 -0.4418 -0.2500
 3476TIP3    H110434   5.153   4.853   3.517  0.0955 -1.6635  0.5120
 3476TIP3    H210435   5.278   4.796   3.580  0.6164  0.6035  1.6148
 3477TIP3   OH210436   1.366   5.172   1.496  0.1548 -0.2441 -0.1110
 3477TIP3    H110437   1.342   5.225   1.571 -0.0216 -0.5565  0.0534
 3477TIP3    H210438   1.298   5.105   1.490 -1.7247  1.7146 -2.5329
 3478TIP3   OH210439   3.477   5.833   4.840  0.0943 -0.0429  0.4354
 3478TIP3    H110440   3.468   5.738   4.850  1.5237 -0.4168 -1.2707
 3478TIP3    H210441   3.459   5.849   4.747 -0.9840  1.5076  0.8672
 3479TIP3   OH210442   4.610   4.355   1.972  0.1060 -0.3130  0.6456
 3479TIP3    H110443   4.694   4.400   1.970 -0.6540  1.1218 -0.0848
 3479TIP3    H210444   4.586   4.352   2.064 -1.5097  4.1269  0.5767
 3480TIP3   OH210445   1.456   3.658   4.745 -0.6889 -0.0754  0.6012
 3480TIP3    H110446   1.455   3.730   4.808  1.8918 -0.0916  0.7708
 3480TIP3    H210447   1.510   3.591   4.786  0.2017 -0.5028 -1.1791
 3481TIP3   OH210448   5.592   3.434   2.500  0.6916 -0.3484 -0.4870
 3481TIP3    H110449   5.562   3.343   2.500  0.6877 -0.3921  1.3851
 3481TIP3    H210450   5.529   3.480   2.444 -0.4451 -1.1769  0.0533
 3482TIP3   OH210451   3.825   1.286   1.246 -0.1843  0.0602  0.0182
 3482TIP3    H110452   3.777   1.298   1.327 -0.7600 -2.0399  0.0215
 3482TIP3    H210453   3.758   1.288   1.177  0.0426 -0.3120 -0.2154
 3483TIP3   OH210454   1.347   3.646   1.090 -0.1594  0.2309 -0.3820
 3483TIP3    H110455   1.340   3.557   1.055  0.2278 -0.8214  2.0124
 3483TIP3    H210456   1.428   3.680   1.053 -0.1013 -0.5789 -1.0256
 3484TIP3   OH210457   2.265   3.893   2.107 -0.7078  0.4622 -0.1819
 3484TIP3    H110458   2.301   3.812   2.144 -0.4677  0.2688 -0.8257
 3484TIP3    H210459   2.269   3.955   2.180  3.1142  1.1454 -0.7272
 3485TIP3   OH210460   2.652   0.747   1.822  0.6295  0.0563  0.3998
 3485TIP3    H110461   2.673   0.810   1.891  0.1259 -1.2298  1.7812
 3485TIP3    H210462   2.736   0.704   1.804  0.6857  0.1296  0.4834
 3486TIP3   OH210463   2.769   3.506   2.232  0.3481 -0.1453  0.2130
 3486TIP3    H110464   2.810   3.542   2.311 -0.3039  1.4368 -0.1319
 3486TIP3    H210465   2.839   3.506   2.166  0.6750 -0.7025  0.5489
 3487TIP3   OH210466   6.083   0.741   3.336  0.3886 -0.2538  0.4332
 3487TIP3    H110467   6.148   0.811   3.322 -0.1453  0.3512  0.8934
 3487TIP3    H210468   6.052   0.720   3.248 -0.0647  0.7039  0.3482
 3488TIP3   OH210469   0.061   0.805   2.793 -0.4315 -0.0920 -0.2252
 3488TIP3    H110470   0.031   0.856   2.718 -0.5611  1.0255  0.5500
 3488TIP3    H210471   0.001   0.828   2.863  0.6676  0.1864  0.6591
 3489TIP3   OH210472   1.927   3.720   0.995  0.2500 -0.1844 -0.2828
 3489TIP3    H110473   1.906   3.677   0.913  1.4055  0.5412 -0.9879
 3489TIP3    H210474   1.992   3.786   0.972  1.0183 -0.3359  1.2977
 3490TIP3   OH210475   2.771   1.235   2.012 -0.5658 -0.1172  0.3970
 3490TIP3    H110476   2.825   1.239   1.933 -1.2834  0.4892 -0.0792
 3490TIP3    H210477   2.763   1.326   2.041 -1.4681 -0.1742  0.3539
 3491TIP3   OH210478   5.386   1.004   2.015  0.2527 -0.2741 -0.0331
 3491TIP3    H110479   5.413   0.935   1.955  1.4436  0.1476 -0.0064
 3491TIP3    H210480   5.423   1.084   1.979 -1.2951  0.4124 -0.1778
 3492TIP3   OH210481   4.252   5.512   0.178  0.0229 -0.3868  0.1648
 3492TIP3    H110482   4.331   5.474   0.140 -1.1923 -2.3801 -0.5043
 3492TIP3    H210483   4.209   5.557   0.106  0.3284  0.3578  0.4376
 3493TIP3   OH210484   1.375   0.754   2.676 -0.2731  0.1209  0.2167
 3493TIP3    H110485   1.434   0.707   2.735  0.5129  2.0648  1.0663
 3493TIP3    H210486   1.303   0.692   2.660  1.5621 -2.0342 -0.2441
 3494TIP3   OH210487   2.097   4.167   3.637 -0.4508 -0.4132  1.5679
 3494TIP3    H110488   2.013   4.130   3.664 -1.8978  0.0669 -1.7783
 3494TIP3    H210489   2.080   4.261   3.627 -0.1651 -0.5522 -0.9578
 3495TIP3   OH210490   3.097   1.734   2.705  0.1454  0.4860  0.0827
 3495TIP3    H110491   3.107   1.742   2.800  0.3814 -0.5093  0.1503
 3495TIP3    H210492   3.153   1.803   2.669  0.5956  0.4290  0.6566
 3496TIP3   OH210493   2.964   4.126   1.291  0.0698  0.1658  0.1477
 3496TIP3    H110494   2.955   4.189   1.219  1.6137  1.1541  0.7528
 3496TIP3    H210495   3.026   4.061   1.257  0.7413  0.5922  0.5330
 3497TIP3   OH210496   2.246   2.506   3.012  0.3598 -0.2634  0.0218
 3497TIP3    H110497   2.222   2.414   3.015 -0.5200 -0.0213  1.7157
 3497TIP3    H210498   2.342   2.506   3.006  0.4310 -1.3049  0.9583
 3498TIP3   OH210499   3.074   3.219   1.509 -0.1791  0.1158 -0.0548
 3498TIP3    H110500   3.156   3.255   1.543 -0.9858  2.3651 -0.3197
 3498TIP3    H210501   3.017   3.213   1.585  0.2873 -1.7705  0.1908
 3499TIP3   OH210502   3.086   3.442   4.227 -0.1559  0.0847  0.4609
 3499TIP3    H110503   3.117   3.361   4.186 -0.3688  0.3120 -0.1578
 3499TIP3    H210504   3.132   3.512   4.180 -0.8008  0.3698  0.2450
 3500TIP3   OH210505   3.840   5.561   4.021 -0.0566  0.1587 -0.4228
 3500TIP3    H110506   3.857   5.550   3.928 -1.3284  2.0153 -0.9234
 3500TIP3    H210507   3.842   5.472   4.057 -0.6232 -0.6908 -2.4026
 3501TIP3   OH210508   1.645   3.579   4.329  0.4237  0.3608 -0.0134
 3501TIP3    H110509   1.582   3.595   4.259  1.1675  1.8734 -0.3766
 3501TIP3    H210510   1.591   3.566   4.407 -0.4286 -1.6681 -0.8694
 3502TIP3   OH210511   2.816   5.483   4.419  0.2106 -0.0727 -0.2320
 3502TIP3    H110512   2.869   5.533   4.481 -1.5191 -1.6253  2.7434
 3502TIP3    H210513   2.847   5.393   4.428 -0.9316 -0.5222 -0.6551
 3503TIP3   OH210514   4.812  -0.013   0.152 -0.1211 -0.5424  0.3043
 3503TIP3    H110515   4.877   0.032   0.207 -1.1865  0.1498  1.0409
 3503TIP3    H210516   4.732  -0.012   0.204 -0.8450 -0.9877 -0.7613
 3504TIP3   OH210517   0.317   2.686   3.339  0.2876  0.6159  0.3550
 3504TIP3    H110518   0.250   2.742   3.299  0.8730 -0.1866 -1.9306
 3504TIP3    H210519   0.267   2.618   3.384 -0.5190 -0.0389 -1.4120
 3505TIP3   OH210520   4.038   2.965   2.676 -0.9234  0.6063 -0.1388
 3505TIP3    H110521   3.969   3.000   2.733  0.4025  0.4321  1.6450
 3505TIP3    H210522   4.050   2.875   2.705  0.8620  0.9825  0.3977
 3506TIP3   OH210523   2.031   2.347   4.516  0.1832 -0.8579  0.5005
 3506TIP3    H110524   2.090   2.378   4.447  1.3801  0.5247  2.0490
 3506TIP3    H210525   2.007   2.258   4.490  1.0726 -0.5964 -1.3618
 3507TIP3   OH210526   4.812   0.048   3.882  0.0451 -0.6234  0.1330
 3507TIP3    H110527   4.882   0.112   3.894  1.1069 -1.9017  1.0125
 3507TIP3    H210528   4.801   0.042   3.787  0.5874  0.1683  0.0114
 3508TIP3   OH210529   5.297   2.706   4.175  0.0357  0.2227  0.6448
 3508TIP3    H110530   5.347   2.742   4.101 -0.1004  2.0280  1.3765
 3508TIP3    H210531   5.357   2.712   4.249 -0.5448  0.4781  1.1059
 3509TIP3   OH210532   2.532   2.881   1.739 -0.2010  0.2026  0.5083
 3509TIP3    H110533   2.621   2.900   1.709  0.0994 -2.3083 -0.5021
 3509TIP3    H210534   2.475   2.927   1.678  0.4281  0.1967 -0.0874
 3510TIP3   OH210535   2.472   3.701   4.073  0.1697 -0.9030 -0.0052
 3510TIP3    H110536   2.479   3.693   3.978 -0.3840 -1.0178 -0.0424
 3510TIP3    H210537   2.448   3.613   4.103 -4.4674  0.0217 -0.2580
 3511TIP3   OH210538   5.638   1.526   0.314  0.4043  0.4602 -0.1779
 3511TIP3    H110539   5.570   1.475   0.358 -0.6105  1.4855 -0.4962
 3511TIP3    H210540   5.709   1.532   0.378 -0.7144  1.2459  1.0570
 3512TIP3   OH210541   1.638   3.598   3.005  0.5220  0.4137 -0.0490
 3512TIP3    H110542   1.702   3.531   2.983  0.7262  0.1930  1.1318
 3512TIP3    H210543   1.675   3.643   3.080 -0.6957  0.2690  0.6740
 3513TIP3   OH210544   3.999   4.308   1.820 -0.0192 -0.4918 -0.6657
 3513TIP3    H110545   4.039   4.395   1.814 -1.6896  0.2862 -0.8424
 3513TIP3    H210546   3.945   4.312   1.899 -1.0457 -0.9550 -1.3255
 3514TIP3   OH210547   1.431   0.770   0.756 -0.2383 -0.6467 -0.5654
 3514TIP3    H110548   1.450   0.839   0.819  0.3305 -1.0326 -0.3061
 3514TIP3    H210549   1.405   0.817   0.677  1.2571 -0.0882 -0.7614
 3515TIP3   OH210550   0.947   1.193   1.762  0.0910  0.2868 -0.5628
 3515TIP3    H110551   0.952   1.128   1.832 -0.7515 -0.8352 -1.4962
 3515TIP3    H210552   0.968   1.276   1.805 -0.1373 -0.3998  0.9566
 3516TIP3   OH210553   0.805   1.476   0.742 -0.1000 -0.2269  0.2622
 3516TIP3    H110554   0.848   1.406   0.792 -0.9299 -1.2972 -0.4669
 3516TIP3    H210555   0.753   1.523   0.807  1.5477  0.6342  1.0247
 3517TIP3   OH210556   1.363   1.124   3.824  0.1837 -0.3507 -0.3759
 3517TIP3    H110557   1.319   1.195   3.872  0.1770 -1.0581  0.6960
 3517TIP3    H210558   1.331   1.133   3.734 -3.0366 -1.4566  0.5055
 3518TIP3   OH210559   3.744   3.842   1.689 -0.2006  0.4692 -0.1542
 3518TIP3    H110560   3.821   3.891   1.718 -0.2230  1.9810 -2.4253
 3518TIP3    H210561   3.779   3.776   1.628 -0.6093  0.4988 -0.4207
 3519TIP3   OH210562   2.852   4.836   2.389 -0.3072 -0.0338 -0.0259
 3519TIP3    H110563   2.936   4.812   2.430 -0.3791  0.6065  0.5140
 3519TIP3    H210564   2.800   4.756   2.391 -0.5517  0.1372  1.7562
 3520TIP3   OH210565   6.009   0.884   2.385  0.1188 -0.6308 -0.3593
 3520TIP3    H110566   5.932   0.827   2.386  0.0650 -0.5547  0.0577
 3520TIP3    H210567   5.974   0.969   2.358  0.2889 -0.9103 -1.5197
 3521TIP3   OH210568   1.070   3.923   3.407  0.6971  0.4510  0.3112
 3521TIP3    H110569   0.979   3.949   3.394  0.3367 -1.2470 -0.9063
 3521TIP3    H210570   1.120   4.004   3.398 -0.4762  1.0142 -1.5907
 3522TIP3   OH210571   1.635   4.508   2.483 -0.0452  0.8918 -0.7482
 3522TIP3    H110572   1.651   4.444   2.414 -0.2758  1.6723 -1.5337
 3522TIP3    H210573   1.629   4.592   2.438 -0.3410  1.3993  0.2039
 3523TIP3   OH210574   0.988   2.516   0.151  0.4068  0.0479  0.0995
 3523TIP3    H110575   1.012   2.520   0.058 -0.2749  0.9627 -0.0423
 3523TIP3    H210576   0.897   2.546   0.154  1.2939  2.9124  1.3852
 3524TIP3   OH210577   0.749   2.734   3.155  0.0742 -0.3298  0.1910
 3524TIP3    H110578   0.746   2.807   3.094  0.8350 -1.3182 -1.0796
 3524TIP3    H210579   0.660   2.698   3.153  0.0004 -0.1389 -0.0522
 3525TIP3   OH210580   2.717   0.020   0.129 -0.4270 -0.2714  0.3173
 3525TIP3    H110581   2.737  -0.064   0.087 -0.7459 -0.8148  1.2174
 3525TIP3    H210582   2.679   0.073   0.060  0.7235 -0.4996 -0.5265
 3526TIP3   OH210583   5.503   4.683   1.866  0.5676  0.0388  0.4479
 3526TIP3    H110584   5.417   4.679   1.908 -0.2291  0.5925 -1.0621
 3526TIP3    H210585   5.488   4.728   1.783  2.0751 -0.9782 -0.4441
 3527TIP3   OH210586   2.579   1.373   1.202 -0.1619 -0.0666  0.2162
 3527TIP3    H110587   2.675   1.369   1.195 -0.2487  0.4454 -2.6239
 3527TIP3    H210588   2.562   1.423   1.281  1.8717 -1.3437  1.5510
 3528TIP3   OH210589   4.816   5.410   4.542 -0.2218  0.0867  0.1835
 3528TIP3    H110590   4.876   5.411   4.616  0.1346  1.2082 -0.0976
 3528TIP3    H210591   4.840   5.332   4.492  2.9610  1.9242 -1.4682
 3529TIP3   OH210592   0.408   4.183   3.480 -0.3045 -1.2723  0.0939
 3529TIP3    H110593   0.421   4.273   3.449 -0.8930 -1.8224 -1.8967
 3529TIP3    H210594   0.464   4.177   3.558  2.5688 -0.1984 -1.6849
 3530TIP3   OH210595   6.042   4.931   5.028 -0.1797  0.2656 -0.3045
 3530TIP3    H110596   5.987   5.003   4.997 -1.0125  0.0947  0.7259
 3530TIP3    H210597   5.994   4.852   5.005  0.4298  0.0431 -0.8587
 3531TIP3   OH210598   5.749   1.358   0.093  0.4186 -0.4457 -0.1490
 3531TIP3    H110599   5.685   1.287   0.098  1.2888 -1.1771  1.1188
 3531TIP3    H210600   5.728   1.414   0.168  0.0511  0.3873 -0.8571
 3532TIP3   OH210601   4.668   2.753   4.016  0.5291  0.2238 -0.1785
 3532TIP3    H110602   4.690   2.841   3.986 -2.2197  0.7788 -0.7439
 3532TIP3    H210603   4.713   2.695   3.954  0.7089  1.2463 -1.0358
 3533TIP3   OH210604   2.843   5.070   1.419  0.2907  0.5466 -0.0523
 3533TIP3    H110605   2.817   5.128   1.348  1.3339  1.2794  0.1497
 3533TIP3    H210606   2.778   5.086   1.488  0.6428  1.5738  0.0520
 3534TIP3   OH210607   1.014   5.449   4.820 -0.2756 -0.1645 -0.7240
 3534TIP3    H110608   0.990   5.469   4.729  0.1858 -2.0910 -1.3242
 3534TIP3    H210609   0.942   5.395   4.852 -0.9963  1.4312  0.4840
 3535TIP3   OH210610   3.086   3.800   1.496  0.4214  0.2625 -0.6843
 3535TIP3    H110611   3.094   3.849   1.414 -1.7009 -1.0119 -1.7403
 3535TIP3    H210612   2.994   3.774   1.500  0.3074  0.7433  2.4336
 3536TIP3   OH210613   1.341   0.623   1.127  0.5264  0.0279 -0.5031
 3536TIP3    H110614   1.307   0.693   1.183 -0.9593 -1.5861  0.7006
 3536TIP3    H210615   1.288   0.629   1.047 -0.2586 -0.3010 -0.0169
 3537TIP3   OH210616   2.353   0.344   1.158 -0.4631 -0.5369 -0.3183
 3537TIP3    H110617   2.284   0.410   1.152 -0.7279 -0.3389  2.9731
 3537TIP3    H210618   2.410   0.375   1.228  0.9073 -2.5196 -0.4655
 3538TIP3   OH210619   4.472   4.248   5.077  0.0196 -0.6253 -0.6461
 3538TIP3    H110620   4.440   4.266   4.989 -2.2067 -0.5111  0.1209
 3538TIP3    H210621   4.402   4.277   5.135  1.2204 -1.1155  1.1597
 3539TIP3   OH210622   5.040   1.039   1.436  0.0441  0.3147 -0.4499
 3539TIP3    H110623   5.014   1.118   1.482  1.0560  0.2837  0.2031
 3539TIP3    H210624   5.059   0.976   1.505  1.6709  0.2859 -0.8692
 3540TIP3   OH210625   3.448   1.118   3.334 -0.2828  0.0050 -0.2227
 3540TIP3    H110626   3.401   1.173   3.271 -1.7215 -0.1267  0.6870
 3540TIP3    H210627   3.404   1.134   3.417  1.4907  0.0708  0.7532
 3541TIP3   OH210628   0.710   1.973   1.093  0.2286  0.1083 -0.0946
 3541TIP3    H110629   0.766   2.048   1.077  1.4341 -0.5855  0.7319
 3541TIP3    H210630   0.728   1.947   1.183  0.8781 -1.9765 -0.7584
 3542TIP3   OH210631   2.547   0.755   0.435 -0.3383  0.5882  0.2820
 3542TIP3    H110632   2.572   0.825   0.375  0.1910 -0.5827 -0.9107
 3542TIP3    H210633   2.557   0.674   0.384  1.3480 -0.5828  2.2931
 3543TIP3   OH210634   3.795   3.222   4.560  0.2534  0.3662 -0.3465
 3543TIP3    H110635   3.725   3.277   4.524  1.1163  1.2631 -0.6842
 3543TIP3    H210636   3.788   3.140   4.512 -1.5503 -0.1495  0.6996
 3544TIP3   OH210637   3.674   2.063   0.193 -1.1057 -0.1180 -0.5507
 3544TIP3    H110638   3.582   2.077   0.170 -1.5403 -0.7103  0.7467
 3544TIP3    H210639   3.708   2.011   0.120 -0.8448  2.9151 -2.7611
 3545TIP3   OH210640   2.155   1.330   2.615 -0.3294  0.1764  0.2237
 3545TIP3    H110641   2.081   1.377   2.575  1.4069  2.4360 -0.5835
 3545TIP3    H210642   2.163   1.250   2.563 -0.8870  0.9284 -1.0756
 3546TIP3   OH210643   4.697   1.022   0.961 -0.0279 -0.1050  0.2302
 3546TIP3    H110644   4.740   0.938   0.979 -2.4260 -1.1132  1.7721
 3546TIP3    H210645   4.634   1.032   1.033 -1.3171  1.9645 -1.1017
 3547TIP3   OH210646   3.347   4.087   0.579 -0.2432  0.3854 -0.2909
 3547TIP3    H110647   3.394   4.087   0.662  1.0176  1.1657 -0.9843
 3547TIP3    H210648   3.272   4.145   0.595  0.3845  1.1120  0.0910
 3548TIP3   OH210649   2.675   1.351   0.273  0.0652 -0.2545 -0.0016
 3548TIP3    H110650   2.616   1.324   0.343 -1.7805  1.3206 -0.8644
 3548TIP3    H210651   2.761   1.318   0.300 -0.4568  0.7405  3.2453
 3549TIP3   OH210652   1.627   2.527   0.209 -0.4041 -1.0254 -0.1429
 3549TIP3    H110653   1.721   2.514   0.197 -0.2607 -0.8207  0.7170
 3549TIP3    H210654   1.595   2.445   0.245 -0.6829 -1.3350 -1.0733
 3550TIP3   OH210655   0.642   5.954   0.398  0.8188  0.1129 -0.0976
 3550TIP3    H110656   0.613   6.033   0.444  0.3446  1.0135 -1.8598
 3550TIP3    H210657   0.625   5.973   0.306 -0.7842 -2.6416 -0.4841
 3551TIP3   OH210658   1.768   5.423   0.488 -0.0648  0.3772  0.4198
 3551TIP3    H110659   1.736   5.353   0.431 -1.6375  0.5112  1.0837
 3551TIP3    H210660   1.783   5.497   0.429 -1.3017  0.3970  0.1108
 3552TIP3   OH210661   3.125   0.701   0.730 -0.9939 -0.1408  0.4844
 3552TIP3    H110662   3.186   0.774   0.737 -1.0254 -0.0478 -0.1566
 3552TIP3    H210663   3.170   0.637   0.674 -0.4639 -1.1473  1.9826
 3553TIP3   OH210664   4.785   5.486   1.779 -0.2277  0.0185 -0.1747
 3553TIP3    H110665   4.849   5.432   1.733 -1.4921 -2.1094  0.4571
 3553TIP3    H210666   4.836   5.561   1.811  1.3746 -0.2152 -1.9830
 3554TIP3   OH210667   3.861   2.333   2.283  0.3229  0.6872 -0.0477
 3554TIP3    H110668   3.954   2.311   2.287  0.4549  1.0434 -0.8899
 3554TIP3    H210669   3.855   2.400   2.215 -0.6929 -0.1343 -0.8095
 3555TIP3   OH210670   3.324   0.562   2.034 -0.6112 -0.1122  0.1172
 3555TIP3    H110671   3.244   0.608   2.061 -0.1003  0.6845  0.2923
 3555TIP3    H210672   3.325   0.569   1.938 -0.9670 -0.5116  0.0760
 3556TIP3   OH210673   1.435   3.063   2.558 -0.1841 -0.4936 -0.1919
 3556TIP3    H110674   1.439   3.088   2.650 -1.1697  0.3369 -0.3554
 3556TIP3    H210675   1.351   3.017   2.549 -0.6362  0.4192 -0.8775
 3557TIP3   OH210676   3.123   4.514   5.177 -0.1240 -0.3653  0.1727
 3557TIP3    H110677   3.218   4.520   5.183 -0.0636  0.4319 -1.2400
 3557TIP3    H210678   3.105   4.495   5.085 -1.3102 -1.4717  0.5901
 3558TIP3   OH210679   4.692   5.633   0.879 -0.6647 -0.2148 -0.4254
 3558TIP3    H110680   4.718   5.710   0.828 -0.0134 -0.1132  0.0410
 3558TIP3    H210681   4.602   5.650   0.905 -0.5647  0.3396 -0.4321
 3559TIP3   OH210682   1.871   1.777   1.135  0.5125  0.6219 -0.0911
 3559TIP3    H110683   1.888   1.837   1.062 -1.8949  0.6818 -0.6669
 3559TIP3    H210684   1.930   1.703   1.119  0.2791  0.7927 -1.9096
 3560TIP3   OH210685   6.267   3.071   1.797 -0.1171 -0.3527 -0.4432
 3560TIP3    H110686   6.301   3.124   1.724 -0.1551 -2.9194 -2.4713
 3560TIP3    H210687   6.335   3.005   1.812 -0.5424 -0.4467  1.2715
 3561TIP3   OH210688   5.059   2.619   2.749  0.0157 -0.3659 -0.4214
 3561TIP3    H110689   5.057   2.705   2.791  1.1402  0.0635 -1.2043
 3561TIP3    H210690   4.967   2.600   2.729 -0.3593  0.1558  0.7181
 3562TIP3   OH210691   3.958   4.002   4.513 -0.4088 -0.1396  0.1319
 3562TIP3    H110692   3.910   3.978   4.592  0.2908  1.7254  1.1970
 3562TIP3    H210693   4.037   4.046   4.545 -0.2801  1.0103 -1.6137
 3563TIP3   OH210694   5.820  -0.007   2.057  1.0272  0.2024  0.9019
 3563TIP3    H110695   5.811   0.084   2.087 -0.5626 -0.0864  1.3912
 3563TIP3    H210696   5.774  -0.008   1.973 -0.2050 -0.4393  1.5564
 3564TIP3   OH210697   4.705   2.102   1.360 -0.4145 -0.0693 -0.2738
 3564TIP3    H110698   4.688   2.196   1.369  2.3254  0.4310  0.6720
 3564TIP3    H210699   4.766   2.082   1.431 -1.0097 -2.6280 -0.3702
 3565TIP3   OH210700   1.518   2.894   0.697  0.0798  0.1135  0.2876
 3565TIP3    H110701   1.572   2.950   0.642 -0.5866  0.2498 -0.2554
 3565TIP3    H210702   1.534   2.924   0.786 -0.0195  0.9507  0.0305
 3566TIP3   OH210703   5.806   4.118   0.738 -0.0933  0.4193  0.0455
 3566TIP3    H110704   5.856   4.141   0.816  2.3698 -0.0768 -1.2821
 3566TIP3    H210705   5.814   4.194   0.681 -0.8886  0.3254 -0.2066
 3567TIP3   OH210706   4.589   2.405   2.274  0.3476 -0.2123  0.1750
 3567TIP3    H110707   4.585   2.500   2.288 -0.1182  0.4334 -3.2619
 3567TIP3    H210708   4.519   2.370   2.328 -1.5218  1.8386 -0.7553
 3568TIP3   OH210709   3.210   4.423   2.447 -0.1910  0.1090  0.1741
 3568TIP3    H110710   3.290   4.453   2.405 -2.0116  1.5524 -2.5542
 3568TIP3    H210711   3.228   4.332   2.471  2.3597  0.5226  0.0797
 3569TIP3   OH210712   3.772   2.836   0.080 -0.4764 -0.0912  0.0314
 3569TIP3    H110713   3.769   2.865   0.171  0.5257 -1.6436  0.5953
 3569TIP3    H210714   3.865   2.835   0.058 -0.7306  0.7740 -1.2063
 3570TIP3   OH210715   1.613   4.681   2.913  0.2423  0.2873 -0.6945
 3570TIP3    H110716   1.596   4.640   2.828  0.3987 -1.1507 -0.0723
 3570TIP3    H210717   1.641   4.770   2.892  3.1444 -0.8690 -2.3668
 3571TIP3   OH210718   5.746   2.752   4.969  0.1119  0.0402  0.3660
 3571TIP3    H110719   5.837   2.749   4.942  0.3791  2.2186  0.8683
 3571TIP3    H210720   5.710   2.830   4.927 -0.8134  0.6674  2.1794
 3572TIP3   OH210721   5.592   2.558   5.060 -0.1187 -0.2070 -0.4676
 3572TIP3    H110722   5.651   2.619   5.015  0.5877 -0.6184 -0.1138
 3572TIP3    H210723   5.594   2.585   5.151  1.1935 -1.5137 -0.0734
 3573TIP3   OH210724   5.615   2.696   2.571  0.2491 -0.1669 -0.9599
 3573TIP3    H110725   5.523   2.685   2.594  0.0523 -1.2695 -2.1801
 3573TIP3    H210726   5.663   2.655   2.643 -0.2514 -0.7781 -0.9663
 3574TIP3   OH210727   6.103   0.895   0.448  0.0419  0.7773 -0.5823
 3574TIP3    H110728   6.113   0.922   0.540 -0.2980 -1.0393  0.0426
 3574TIP3    H210729   6.193   0.885   0.417  0.1633  1.9614 -0.6348
 3575TIP3   OH210730   2.785   5.433   5.000 -0.1327  0.7553 -0.2580
 3575TIP3    H110731   2.742   5.363   5.048 -1.4605  1.7336  0.0163
 3575TIP3    H210732   2.874   5.401   4.986  0.0064  0.0221  1.9800
 3576TIP3   OH210733   1.048   4.158   5.121  0.5735 -0.1094  0.3426
 3576TIP3    H110734   0.974   4.126   5.173 -0.3890  1.5364  0.0283
 3576TIP3    H210735   1.044   4.107   5.040 -0.4965  0.2655  0.1448
 3577TIP3   OH210736   4.082   4.076   5.194  0.2597  0.0762 -0.1332
 3577TIP3    H110737   4.008   4.134   5.176  0.4614  0.0197 -1.1928
 3577TIP3    H210738   4.099   4.033   5.111  0.6057 -0.9442  0.4484
 3578TIP3   OH210739   0.151   5.510   1.108 -0.2856  0.3896  0.1788
 3578TIP3    H110740   0.238   5.550   1.107 -0.4716  0.8000 -0.3789
 3578TIP3    H210741   0.157   5.441   1.041  0.0950 -0.6762  1.2724
 3579TIP3   OH210742   0.444   0.219   1.319 -0.3866  0.1060 -0.1879
 3579TIP3    H110743   0.451   0.264   1.403 -0.5094 -1.1489  0.5213
 3579TIP3    H210744   0.527   0.172   1.311 -0.9716 -0.9921 -0.0266
 3580TIP3   OH210745   0.487   4.304   4.917  0.3362  0.4177  0.2465
 3580TIP3    H110746   0.437   4.372   4.871 -1.0806 -1.8730 -1.8635
 3580TIP3    H210747   0.440   4.291   4.999  1.0331  2.3557  1.0264
 3581TIP3   OH210748   5.571   5.195   3.320  0.3528 -0.1865 -0.0556
 3581TIP3    H110749   5.519   5.275   3.317 -0.7116 -0.8643 -0.2651
 3581TIP3    H210750   5.538   5.149   3.397 -2.8861 -2.8761 -2.7236
 3582TIP3   OH210751   3.884   2.770   4.294  0.1339 -0.1196 -0.1145
 3582TIP3    H110752   3.826   2.712   4.244  0.6869  0.2407 -1.2034
 3582TIP3    H210753   3.968   2.765   4.249 -0.0025  2.1308 -0.7411
 3583TIP3   OH210754   3.275   3.453   0.040 -0.1365 -0.4450  0.4963
 3583TIP3    H110755   3.269   3.476  -0.053  0.2144 -2.5873 -0.1019
 3583TIP3    H210756   3.192   3.483   0.077 -0.4441  0.0963 -0.5729
 3584TIP3   OH210757   3.393   0.325   0.823  0.2658  1.2635 -0.4346
 3584TIP3    H110758   3.310   0.355   0.860  0.6470  0.8185  0.8390
 3584TIP3    H210759   3.407   0.239   0.861  0.7725  0.8418 -1.5232
 3585TIP3   OH210760   0.663   3.564   2.456  0.1205 -0.4692  0.0469
 3585TIP3    H110761   0.587   3.521   2.417  0.3605 -1.2208  0.3863
 3585TIP3    H210762   0.631   3.596   2.541 -0.7616  2.2923 -1.1989
 3586TIP3   OH210763   5.883   1.995   3.062  0.4536 -0.1420 -0.3502
 3586TIP3    H110764   5.899   2.075   3.012 -0.8774 -0.2951 -1.0788
 3586TIP3    H210765   5.792   2.002   3.090  0.0033 -1.8252 -1.2734
 3587TIP3   OH210766   4.312   2.960   5.054  0.4783 -0.4382 -1.3791
 3587TIP3    H110767   4.399   2.921   5.056  0.5713 -0.2330 -1.3231
 3587TIP3    H210768   4.317   3.033   5.116  0.2116 -0.5390 -1.2386
 3588TIP3   OH210769   4.767   3.700   1.166  0.4138  0.0741 -0.9505
 3588TIP3    H110770   4.763   3.795   1.182 -2.4384 -0.0248 -0.5971
 3588TIP3    H210771   4.819   3.692   1.086  0.7061  1.9461 -0.9968
 3589TIP3   OH210772   0.498   1.139   1.739  0.7529 -0.2512  0.0913
 3589TIP3    H110773   0.485   1.104   1.651 -1.0825  0.1489  0.1798
 3589TIP3    H210774   0.460   1.074   1.797  0.8082  0.0869  0.5099
 3590TIP3   OH210775   0.998   3.120   3.627 -0.0287 -0.1158 -0.2196
 3590TIP3    H110776   1.014   3.207   3.662 -0.6544 -0.0792  0.0029
 3590TIP3    H210777   0.907   3.100   3.653  0.9910 -2.0480  2.3524
 3591TIP3   OH210778   3.843   1.810   4.144 -0.0143  0.5101  0.4646
 3591TIP3    H110779   3.810   1.880   4.201 -0.9764  0.1107  0.4239
 3591TIP3    H210780   3.767   1.754   4.129  0.6218 -0.2778  0.0949
 3592TIP3   OH210781   6.320   0.565   2.710  0.3105  0.5375 -0.0730
 3592TIP3    H110782   6.301   0.582   2.618  1.4063 -0.3762 -0.4851
 3592TIP3    H210783   6.365   0.644   2.740 -2.2591  1.9429  0.4269
 3593TIP3   OH210784   5.679   4.220   4.528 -0.8156 -0.4615  0.0614
 3593TIP3    H110785   5.650   4.312   4.530  0.7831  0.0654  0.9258
 3593TIP3    H210786   5.764   4.221   4.573 -0.2699 -2.1951 -0.8434
 3594TIP3   OH210787   5.157   5.204   4.620 -0.2658 -0.3035  0.1870
 3594TIP3    H110788   5.072   5.172   4.589 -0.7880  0.3027  0.9765
 3594TIP3    H210789   5.139   5.288   4.660  0.3865 -0.9782  2.0282
 3595TIP3   OH210790   1.554   1.393   1.094 -0.5686 -0.1676  0.0722
 3595TIP3    H110791   1.478   1.343   1.124 -1.0012  0.4255 -0.0128
 3595TIP3    H210792   1.557   1.379   1.000 -0.9742  0.3351 -0.0216
 3596TIP3   OH210793   3.400   5.666   2.997  0.3431  0.4834 -0.4601
 3596TIP3    H110794   3.402   5.755   2.962  1.2875  0.6871  0.0758
 3596TIP3    H210795   3.489   5.650   3.027 -0.0487 -0.2917  0.3430
 3597TIP3   OH210796   2.998   5.399   3.068  0.5371 -0.3529 -0.1396
 3597TIP3    H110797   3.079   5.428   3.109  1.2356 -2.3726  0.0082
 3597TIP3    H210798   3.001   5.435   2.980  1.0838  0.4323  0.1873
 3598TIP3   OH210799   3.693   4.038   0.993  0.4326  0.6670 -0.1056
 3598TIP3    H110800   3.712   4.125   1.029  2.4515  0.4210 -0.4672
 3598TIP3    H210801   3.720   4.043   0.902 -1.3988  0.2440 -0.7064
 3599TIP3   OH210802   0.374   5.139   0.301  0.4198  0.2907  0.5494
 3599TIP3    H110803   0.320   5.200   0.251 -0.0817 -1.5419 -1.2635
 3599TIP3    H210804   0.449   5.122   0.244  0.3097 -1.1315  0.8011
 3600TIP3   OH210805   2.601   2.255   2.061  0.0635 -0.6093 -0.0325
 3600TIP3    H110806   2.665   2.288   2.125  1.1247 -0.3328 -1.2095
 3600TIP3    H210807   2.516   2.286   2.095  0.3133 -2.3078  2.4011
 3601TIP3   OH210808   5.484   2.001   0.585  0.1267  0.0482  0.1573
 3601TIP3    H110809   5.393   1.972   0.583 -0.1466  0.4940  2.8322
 3601TIP3    H210810   5.532   1.926   0.621  0.6176  0.3106  0.0639
 3602TIP3   OH210811   3.369   2.406   3.767 -0.4066  0.2971  0.2062
 3602TIP3    H110812   3.381   2.490   3.723 -0.7884  0.6060  0.6702
 3602TIP3    H210813   3.455   2.365   3.767  0.1707  1.4377  1.4715
 3603TIP3   OH210814   4.428   4.830   0.158 -0.1326 -0.1599 -0.1009
 3603TIP3    H110815   4.512   4.866   0.130  0.2747 -0.3131  0.8818
 3603TIP3    H210816   4.451   4.748   0.203 -1.0948 -2.3070 -3.2095
 3604TIP3   OH210817   5.772   4.414   0.899  0.1120 -0.0227  0.2878
 3604TIP3    H110818   5.701   4.471   0.868 -0.0700  0.0514  0.8313
 3604TIP3    H210819   5.802   4.368   0.820 -0.6789 -0.2139  0.0896
 3605TIP3   OH210820   0.138   3.130   5.142 -0.0761  0.0378  0.3715
 3605TIP3    H110821   0.122   3.081   5.224 -1.4216 -2.3458 -1.1783
 3605TIP3    H210822   0.050   3.149   5.109  0.4080 -0.3623 -1.2112
 3606TIP3   OH210823   3.595   0.245   1.615  0.1098  0.2843  0.1806
 3606TIP3    H110824   3.658   0.258   1.544 -0.1773 -0.6440 -0.2538
 3606TIP3    H210825   3.514   0.218   1.571 -0.4534  0.9723  0.7728
 3607TIP3   OH210826   6.297   0.331   0.336 -0.3583 -0.1373 -0.4221
 3607TIP3    H110827   6.295   0.347   0.430 -0.9651  1.4705 -0.6796
 3607TIP3    H210828   6.265   0.412   0.297  0.4314 -0.5630 -2.0447
 3608TIP3   OH210829   0.882   3.285   0.601  0.0600  0.0261 -0.2230
 3608TIP3    H110830   0.799   3.332   0.613  0.1758  0.6956 -1.7924
 3608TIP3    H210831   0.869   3.234   0.521  0.7054 -0.9427  0.2715
 3609TIP3   OH210832   2.822   3.962   3.623  0.1683 -0.1271 -0.3410
 3609TIP3    H110833   2.863   3.980   3.708 -1.1597 -1.2655  0.5846
 3609TIP3    H210834   2.860   3.878   3.596 -0.6216 -0.5872 -0.0568
 3610TIP3   OH210835   5.450   2.988   5.092 -0.0400 -0.7901  0.0643
 3610TIP3    H110836   5.411   2.938   5.164 -1.4897 -0.8146 -0.7118
 3610TIP3    H210837   5.430   3.079   5.112 -1.4232 -0.8748 -0.8507
 3611TIP3   OH210838   2.940   1.674   2.488 -0.2967 -0.0085 -0.2864
 3611TIP3    H110839   2.977   1.685   2.576 -0.4101  1.2838 -0.3892
 3611TIP3    H210840   2.874   1.605   2.499 -1.0966  0.9041  0.8960
 3612TIP3   OH210841   4.589   2.211   0.373 -0.1200 -0.1058 -0.3171
 3612TIP3    H110842   4.544   2.295   0.377  0.1306  0.0064  0.2404
 3612TIP3    H210843   4.522   2.146   0.395 -0.2393 -0.0271 -0.4458
 3613TIP3   OH210844   4.065   5.830   0.627  0.5646  0.2172 -0.4460
 3613TIP3    H110845   3.993   5.844   0.565 -1.1996 -1.0393  1.1929
 3613TIP3    H210846   4.080   5.736   0.625  0.3658  0.1284  1.0738
 3614TIP3   OH210847   2.737   5.672   2.763 -0.0946  0.3458 -0.1599
 3614TIP3    H110848   2.688   5.591   2.776  1.2091 -0.8131 -1.9795
 3614TIP3    H210849   2.673   5.735   2.730 -1.0050 -0.0911  0.7503
 3615TIP3   OH210850   3.827   1.912   0.859 -0.4294  0.0452 -0.0264
 3615TIP3    H110851   3.748   1.966   0.868  0.3016  0.9982  0.8643
 3615TIP3    H210852   3.877   1.928   0.939  1.6656  1.0964 -1.4563
 3616TIP3   OH210853   0.427   5.719   4.520 -0.6104 -0.0654  0.3996
 3616TIP3    H110854   0.446   5.805   4.481  0.0137 -0.6355 -0.5966
 3616TIP3    H210855   0.511   5.674   4.520 -1.0039 -0.8080  0.5824
 3617TIP3   OH210856   5.373   2.129   2.693  0.3667 -0.1874  0.1660
 3617TIP3    H110857   5.311   2.201   2.701  0.4879 -0.0285 -0.2778
 3617TIP3    H210858   5.392   2.124   2.599  1.7243  0.3592  0.3896
 3618TIP3   OH210859   6.218   5.314   1.997 -0.3161 -0.3253 -0.4879
 3618TIP3    H110860   6.273   5.370   2.051 -1.7088  1.4785 -0.8634
 3618TIP3    H210861   6.264   5.230   1.996  0.0713 -0.2946  2.9985
 3619TIP3   OH210862   4.273   1.912   0.562 -0.1490  0.0780 -0.2903
 3619TIP3    H110863   4.301   1.882   0.649  2.3290 -0.5669 -1.2261
 3619TIP3    H210864   4.191   1.864   0.546  0.6747 -1.7799  0.6773
 3620TIP3   OH210865   5.987   1.144   0.660 -0.0369 -0.1161 -0.7898
 3620TIP3    H110866   6.046   1.090   0.712 -2.9071 -2.4599  0.2974
 3620TIP3    H210867   6.023   1.141   0.571  2.7062  0.5782  0.1833
 3621TIP3   OH210868   0.527   1.930   4.173 -0.2002 -0.1366 -0.1939
 3621TIP3    H110869   0.509   1.941   4.266  0.4691  1.3323 -0.1988
 3621TIP3    H210870   0.478   2.000   4.130  0.9355  0.3574 -0.7405
 3622TIP3   OH210871   1.124   5.128   3.134  0.3280  0.1669  0.6907
 3622TIP3    H110872   1.154   5.218   3.146 -0.9348  0.8235 -0.7304
 3622TIP3    H210873   1.049   5.135   3.075 -0.0204 -1.7940  0.8181
 3623TIP3   OH210874   2.920   0.830   2.240  0.2182  0.5796  0.1449
 3623TIP3    H110875   2.924   0.821   2.335 -2.7574  1.9467  0.5101
 3623TIP3    H210876   2.924   0.924   2.224 -2.2380  0.6050 -0.7664
 3624TIP3   OH210877   3.709   3.591   0.730  0.4662 -0.4460 -0.4558
 3624TIP3    H110878   3.797   3.572   0.696  0.8138  0.6055 -0.1813
 3624TIP3    H210879   3.716   3.679   0.766  0.0126 -1.3280  1.9987
 3625TIP3   OH210880   5.390   3.487   4.250  0.8045  0.3006  0.2938
 3625TIP3    H110881   5.421   3.396   4.241  0.4537  0.0984  1.0828
 3625TIP3    H210882   5.307   3.480   4.297  1.3805  1.1204  1.4721
 3626TIP3   OH210883   3.189   3.321   2.131 -0.2406  0.6258  0.4812
 3626TIP3    H110884   3.210   3.360   2.047 -0.4164  0.4708  0.3627
 3626TIP3    H210885   3.106   3.276   2.116  0.0059  0.1300  0.5874
 3627TIP3   OH210886   1.992   5.871   2.177  0.6260  0.6175  0.1630
 3627TIP3    H110887   2.034   5.956   2.189  2.4716 -0.2154 -0.0686
 3627TIP3    H210888   2.063   5.807   2.184 -0.4733 -0.8276 -1.0888
 3628TIP3   OH210889   3.153   0.676   2.876  0.4742  0.4139  0.0072
 3628TIP3    H110890   3.185   0.596   2.834 -0.6947  0.2443 -0.6022
 3628TIP3    H210891   3.174   0.746   2.815  0.1001  0.3590 -0.1890
 3629TIP3   OH210892   5.648   0.469   1.930  0.1297 -0.1090 -0.2765
 3629TIP3    H110893   5.698   0.513   1.861 -0.2808  1.2368  0.2338
 3629TIP3    H210894   5.563   0.452   1.891 -1.1072  3.1687  0.5852
 3630TIP3   OH210895   5.819   3.399   2.671 -0.2464  0.3333 -0.3874
 3630TIP3    H110896   5.836   3.481   2.718  2.0469 -0.9048  1.0962
 3630TIP3    H210897   5.724   3.397   2.662 -0.4274  2.9307 -0.0978
 3631TIP3   OH210898   5.325   3.283   1.591  0.3010 -0.3675 -0.1142
 3631TIP3    H110899   5.418   3.270   1.610  0.1703 -0.9649  0.1435
 3631TIP3    H210900   5.324   3.344   1.517  1.0144 -3.0170 -2.4776
 3632TIP3   OH210901   2.906   3.410   1.060  0.2447  0.1454  0.1823
 3632TIP3    H110902   2.860   3.327   1.045 -1.3804  1.2722 -1.6287
 3632TIP3    H210903   2.934   3.437   0.972  0.1978  1.7918  0.6551
 3633TIP3   OH210904  -0.021   3.767   4.464  0.3196  0.8065 -0.9743
 3633TIP3    H110905  -0.032   3.709   4.389 -0.5024  0.1153 -0.3312
 3633TIP3    H210906   0.068   3.751   4.494 -0.5700 -1.7489  0.5152
 3634TIP3   OH210907   0.748   0.722   1.069  0.0329  0.7717 -0.4815
 3634TIP3    H110908   0.705   0.723   1.154  3.1692 -1.8280  1.3831
 3634TIP3    H210909   0.711   0.646   1.024  1.1865 -0.3358  0.3537
 3635TIP3   OH210910   0.530   2.257   0.336  0.1698  0.1611 -0.0133
 3635TIP3    H110911   0.454   2.252   0.279 -1.5650 -0.4042  2.2034
 3635TIP3    H210912   0.538   2.168   0.373  0.1493  0.8807  1.8554
 3636TIP3   OH210913   1.751   4.763   4.027  0.0927  0.4719 -0.2202
 3636TIP3    H110914   1.762   4.688   4.085 -1.0668  2.1742  2.4463
 3636TIP3    H210915   1.839   4.787   4.000  0.4912 -1.6900 -1.0239
 3637TIP3   OH210916   3.285   2.858   2.583 -0.9838  0.1187 -0.6000
 3637TIP3    H110917   3.353   2.926   2.576 -1.0371  0.3161  0.5456
 3637TIP3    H210918   3.204   2.903   2.558 -0.8992  0.2610 -0.6215
 3638TIP3   OH210919   2.512   5.131   4.459 -0.5076  0.1617 -0.5394
 3638TIP3    H110920   2.469   5.145   4.375  1.6014  0.9036 -1.5940
 3638TIP3    H210921   2.604   5.152   4.442  0.2918 -1.3126  1.5479
 3639TIP3   OH210922   0.675   1.774   4.881  0.0965 -0.0523  0.0081
 3639TIP3    H110923   0.590   1.786   4.923  0.0457 -0.0463 -0.0987
 3639TIP3    H210924   0.709   1.863   4.870  1.3954 -0.1054  2.7064
 3640TIP3   OH210925   5.847   2.090   4.348 -0.0466  0.0656  0.2959
 3640TIP3    H110926   5.775   2.135   4.393  0.6825  0.5004  1.0688
 3640TIP3    H210927   5.827   1.997   4.359  0.3736  0.1463  2.0248
 3641TIP3   OH210928   1.080   5.202   4.281 -0.1837  0.2171 -0.3597
 3641TIP3    H110929   1.151   5.263   4.261  1.0292 -0.8304  0.6275
 3641TIP3    H210930   1.041   5.236   4.362  0.3786 -0.1993  0.0937
 3642TIP3   OH210931   2.290   1.726   3.553 -0.4043  0.1696  0.0573
 3642TIP3    H110932   2.222   1.665   3.525 -1.3721  2.1484 -2.2110
 3642TIP3    H210933   2.292   1.716   3.648 -3.3314 -0.5598  0.1610
 3643TIP3   OH210934   1.991   5.406   3.325 -0.7002  0.6591  0.0551
 3643TIP3    H110935   1.911   5.451   3.351  0.1817  0.6402  3.3545
 3643TIP3    H210936   2.058   5.475   3.324 -0.3881  0.3563 -0.7078
 3644TIP3   OH210937   2.551   0.015   0.862 -0.6588 -0.6786 -0.6262
 3644TIP3    H110938   2.512   0.022   0.949  0.5874  2.4751 -0.1935
 3644TIP3    H210939   2.636  -0.028   0.877 -0.6134 -0.4923 -0.3503
 3645TIP3   OH210940   0.106   1.854   4.410 -0.3231 -0.2187  0.3729
 3645TIP3    H110941   0.135   1.797   4.339  1.9156  1.0225  0.1906
 3645TIP3    H210942   0.187   1.880   4.454 -1.4783  0.7854  2.0339
 3646TIP3   OH210943   0.019   5.432   0.761  0.1061 -0.3346 -0.7559
 3646TIP3    H110944   0.112   5.449   0.775  0.1531 -0.5157 -0.8415
 3646TIP3    H210945  -0.026   5.508   0.798  0.2995 -0.1487 -0.9008
 3647TIP3   OH210946   3.436   1.490   1.882 -0.2151 -0.4464  0.0949
 3647TIP3    H110947   3.482   1.490   1.797 -0.1437 -2.4878  0.0867
 3647TIP3    H210948   3.506   1.487   1.947 -0.2884  0.3245  0.2187
 3648TIP3   OH210949   4.132   1.381   4.033  0.1918 -0.3860  0.2826
 3648TIP3    H110950   4.083   1.304   4.006 -0.7361  0.4594 -0.5375
 3648TIP3    H210951   4.092   1.407   4.116 -1.8040  1.1208 -1.0559
 3649TIP3   OH210952   2.863   0.122   2.676  0.0590  0.3577 -0.3859
 3649TIP3    H110953   2.858   0.034   2.639  2.7106  0.5494 -1.3915
 3649TIP3    H210954   2.782   0.164   2.648 -0.2882 -1.0886 -1.7112
 3650TIP3   OH210955   4.658   5.606   5.046  1.0369 -0.1202 -0.1882
 3650TIP3    H110956   4.735   5.602   5.103  0.9299  1.3754  0.1024
 3650TIP3    H210957   4.589   5.644   5.102 -0.1800 -2.1642 -0.1900
 3651TIP3   OH210958   5.457   5.794   2.351  0.4421  0.1587  0.1746
 3651TIP3    H110959   5.441   5.761   2.439  1.4182  1.0336  0.6929
 3651TIP3    H210960   5.425   5.724   2.294 -0.3793 -0.3439  1.2003
 3652TIP3   OH210961   1.208   2.906   4.866  0.0180  0.4050  0.3388
 3652TIP3    H110962   1.195   2.984   4.918 -0.6686 -0.0752  0.9120
 3652TIP3    H210963   1.248   2.843   4.926  0.6218  0.3338 -0.1311
 3653TIP3   OH210964   5.027   3.960   0.137  0.7620  0.1420 -0.1945
 3653TIP3    H110965   4.943   4.001   0.116  1.0334  0.1832 -1.2487
 3653TIP3    H210966   5.024   3.947   0.232 -0.8855 -0.8777 -0.3474
 3654TIP3   OH210967   0.817   1.230   1.170 -0.3530 -0.9755 -0.2852
 3654TIP3    H110968   0.747   1.287   1.200 -0.9155 -2.1358  0.6889
 3654TIP3    H210969   0.805   1.149   1.219  1.1657 -1.5030 -0.7163
 3655TIP3   OH210970   0.476   0.123   2.455 -0.2004 -0.1436 -0.9131
 3655TIP3    H110971   0.385   0.150   2.464 -0.1679 -0.5058  1.0197
 3655TIP3    H210972   0.471   0.031   2.429 -0.6203 -1.7528  3.9209
 3656TIP3   OH210973   1.066   4.112   0.753 -0.3855 -0.4448  0.3030
 3656TIP3    H110974   1.036   4.201   0.772  0.1396  0.3271 -2.1751
 3656TIP3    H210975   1.066   4.106   0.658  2.1908 -2.1890  0.3098
 3657TIP3   OH210976   2.543   3.212   1.747 -0.4626  0.2082 -0.2112
 3657TIP3    H110977   2.466   3.270   1.741 -1.0413 -0.1547  2.2742
 3657TIP3    H210978   2.576   3.207   1.658 -2.4412  1.5918 -1.1178
 3658TIP3   OH210979   3.799   4.759   1.835 -0.6206  0.2337  0.3413
 3658TIP3    H110980   3.825   4.850   1.820  3.3021 -0.2782  2.6286
 3658TIP3    H210981   3.821   4.714   1.753  0.5811  0.8555  0.2931
 3659TIP3   OH210982   0.256   2.432   3.483 -0.2566  0.8045 -0.4535
 3659TIP3    H110983   0.262   2.338   3.500 -0.6559  0.8000 -0.3416
 3659TIP3    H210984   0.305   2.473   3.555 -2.1963  0.8045  0.9448
 3660TIP3   OH210985   0.743   1.674   1.865 -0.1727 -0.2594 -0.2900
 3660TIP3    H110986   0.787   1.649   1.784  2.6032 -0.6806  1.2449
 3660TIP3    H210987   0.696   1.755   1.843 -0.1154 -0.7522 -2.4656
 3661TIP3   OH210988   2.603   1.081   2.329 -0.4075 -0.0656 -0.0066
 3661TIP3    H110989   2.627   1.001   2.282 -1.3007  0.2803 -1.0897
 3661TIP3    H210990   2.568   1.138   2.261  0.4787  1.3667  0.7021
 3662TIP3   OH210991   3.175   0.949   5.138 -0.3073 -0.5589  0.2549
 3662TIP3    H110992   3.253   0.972   5.087 -1.1832 -2.2843 -2.0429
 3662TIP3    H210993   3.206   0.882   5.200  0.7300  1.4179  1.9969
 3663TIP3   OH210994   3.685   5.653   2.182  0.4917 -0.5991 -0.0508
 3663TIP3    H110995   3.608   5.640   2.127 -1.8080  3.0843  1.9020
 3663TIP3    H210996   3.757   5.666   2.120 -1.6421  1.7020 -2.2873
 3664TIP3   OH210997   5.066   3.599   1.221 -0.2312 -0.3037 -0.6581
 3664TIP3    H110998   5.072   3.504   1.217  0.1509 -0.3672  0.7751
 3664TIP3    H210999   5.144   3.626   1.271 -0.7316  0.6865 -0.3862
 3665TIP3   OH211000   5.230   4.661   0.829 -0.1856  0.5917  1.0111
 3665TIP3    H111001   5.138   4.648   0.851 -0.3860 -1.1066 -0.4952
 3665TIP3    H211002   5.229   4.722   0.755 -0.2909 -0.5909 -0.0136
 3666TIP3   OH211003   3.315   4.810   0.988 -0.0264  0.1945  0.1527
 3666TIP3    H111004   3.394   4.770   0.953 -0.1837 -0.2190  0.2643
 3666TIP3    H211005   3.343   4.852   1.069  0.0639 -0.0252  0.2368
 3667TIP3   OH211006   4.187   2.566   3.848 -0.0997 -0.3376 -0.0054
 3667TIP3    H111007   4.252   2.636   3.854  1.4427 -1.3872 -2.6681
 3667TIP3    H211008   4.231   2.489   3.883 -0.5751 -0.6999 -0.1877
 3668TIP3   OH211009   2.574   1.294   3.483  0.0786  0.0333  0.3259
 3668TIP3    H111010   2.627   1.248   3.417  0.2183 -0.0088  0.4654
 3668TIP3    H211011   2.557   1.227   3.550 -0.1254  0.0557  0.2982
 3669TIP3   OH211012   0.914   5.759   2.826  0.8288  0.3026 -0.0497
 3669TIP3    H111013   0.964   5.824   2.876 -0.6991  1.1060  0.4836
 3669TIP3    H211014   0.919   5.679   2.880  1.7124  0.2965 -0.1215
 3670TIP3   OH211015   1.129   4.263   4.621  0.4429 -0.5860 -0.5320
 3670TIP3    H111016   1.205   4.262   4.563  0.8775 -0.6950  0.0292
 3670TIP3    H211017   1.058   4.299   4.567  1.6239  2.6101 -0.1777
 3671TIP3   OH211018   0.409   2.236   2.418 -0.0674 -0.1184  0.3049
 3671TIP3    H111019   0.403   2.288   2.337 -2.1900 -0.7041  0.0165
 3671TIP3    H211020   0.499   2.247   2.447  0.5443  0.7271 -1.7387
 3672TIP3   OH211021   1.882   3.541   3.659 -0.2113  0.2116 -0.3170
 3672TIP3    H111022   1.959   3.494   3.690 -1.5708 -2.2086 -0.3095
 3672TIP3    H211023   1.810   3.504   3.711 -1.2302  3.5971  0.9384
 3673TIP3   OH211024   1.560   5.834   0.398 -0.4627  0.3747 -0.1474
 3673TIP3    H111025   1.609   5.835   0.480  0.3634  2.7613 -0.5819
 3673TIP3    H211026   1.483   5.889   0.414 -1.4286 -0.8594 -0.3823
 3674TIP3   OH211027   4.413   1.332   4.099  0.3291  0.3450 -0.1201
 3674TIP3    H111028   4.322   1.359   4.086 -0.2460 -1.2828  0.3209
 3674TIP3    H211029   4.410   1.268   4.170  2.2277  2.3808  1.9848
 3675TIP3   OH211030   2.592   2.530   1.422 -0.1505 -0.0987  0.0773
 3675TIP3    H111031   2.551   2.492   1.344  0.8278 -0.6714 -0.1780
 3675TIP3    H211032   2.552   2.483   1.495 -0.4642 -0.1489 -0.1241
 3676TIP3   OH211033   3.604   1.147   0.573 -0.0520 -0.4544 -0.1397
 3676TIP3    H111034   3.620   1.055   0.592  0.1267 -0.3751  0.0955
 3676TIP3    H211035   3.611   1.191   0.658  0.9880 -0.0623 -0.4182
 3677TIP3   OH211036   0.998   4.167   1.947 -0.5575 -0.4051 -0.0486
 3677TIP3    H111037   1.040   4.087   1.979 -0.0402 -0.3466 -0.5470
 3677TIP3    H211038   0.904   4.151   1.957 -0.4638 -1.0990 -0.1963
 3678TIP3   OH211039   6.028   4.810   1.398 -0.0722 -0.1727 -0.0778
 3678TIP3    H111040   6.110   4.830   1.353  1.6413 -1.1000  2.4074
 3678TIP3    H211041   6.003   4.892   1.441 -0.0547 -0.0928 -0.2195
 3679TIP3   OH211042   1.723   0.683   1.711  0.0061 -0.6843  0.8789
 3679TIP3    H111043   1.792   0.734   1.754  1.2291  0.0014 -1.7227
 3679TIP3    H211044   1.769   0.620   1.657 -1.4590 -1.2555  0.2485
 3680TIP3   OH211045   3.535   3.796   3.312  0.1100 -0.1882 -0.0357
 3680TIP3    H111046   3.464   3.857   3.292 -0.2575 -0.2983  0.8917
 3680TIP3    H211047   3.605   3.850   3.348 -0.4630 -0.3604  1.4101
 3681TIP3   OH211048   6.253   3.163   3.088  0.5258  0.0317  0.2868
 3681TIP3    H111049   6.267   3.218   3.165 -1.0374 -0.7193  1.1596
 3681TIP3    H211050   6.181   3.205   3.040  1.8783  0.8343 -1.1446
 3682TIP3   OH211051   3.188   4.481   1.407  0.4109 -0.1048  0.3335
 3682TIP3    H111052   3.232   4.495   1.491 -0.5689  3.4663  0.4416
 3682TIP3    H211053   3.121   4.415   1.425  0.3022  0.4899  2.3621
 3683TIP3   OH211054   2.587   1.123   3.748 -0.2749  0.8371  0.3294
 3683TIP3    H111055   2.497   1.092   3.756 -0.1584  0.8316  1.7623
 3683TIP3    H211056   2.634   1.051   3.706 -0.5229  0.0299  1.4064
 3684TIP3   OH211057   5.835   0.788   1.322 -0.1453  0.3586  0.3996
 3684TIP3    H111058   5.786   0.814   1.401  0.4668  0.1385  0.8547
 3684TIP3    H211059   5.864   0.871   1.284  2.0799  0.4216  2.0265
 3685TIP3   OH211060   1.826   1.307   3.223 -0.1279 -0.4698  0.7279
 3685TIP3    H111061   1.777   1.366   3.279 -1.2513  0.0971 -0.7925
 3685TIP3    H211062   1.912   1.350   3.213 -0.9702  1.0426 -0.4789
 3686TIP3   OH211063   0.866   2.549   4.016  0.5545 -0.3067 -0.4352
 3686TIP3    H111064   0.958   2.572   4.004  0.4900  0.7516  0.8251
 3686TIP3    H211065   0.844   2.582   4.103 -1.2041  0.0822 -0.9710
 3687TIP3   OH211066   0.455   3.866   4.411 -0.5861 -0.1420  0.0499
 3687TIP3    H111067   0.529   3.891   4.355 -0.1469  0.2627  0.7874
 3687TIP3    H211068   0.378   3.897   4.364 -0.1174  1.9325  0.5264
 3688TIP3   OH211069   0.248   4.103   3.849  0.1824  0.1356  0.2759
 3688TIP3    H111070   0.290   4.175   3.895 -0.9523 -0.6698  2.7251
 3688TIP3    H211071   0.261   4.027   3.905 -1.4529 -0.8849 -0.6447
 3689TIP3   OH211072   0.615   4.571   3.507 -0.0890 -0.0376  0.1627
 3689TIP3    H111073   0.678   4.607   3.569  0.4867  0.5262 -0.7187
 3689TIP3    H211074   0.660   4.576   3.422 -0.7266 -1.0985 -0.2529
 3690TIP3   OH211075   1.270   0.475   4.863  0.2085 -0.1740 -0.1712
 3690TIP3    H111076   1.348   0.513   4.903  0.1790  0.5192 -0.7462
 3690TIP3    H211077   1.198   0.526   4.900  0.0073 -0.9097  0.4727
 3691TIP3   OH211078   6.020   1.587   1.037  0.2162  0.7747 -0.0741
 3691TIP3    H111079   5.982   1.643   1.104 -0.8259  0.4370 -0.3706
 3691TIP3    H211080   5.955   1.518   1.023  0.8286  0.3214 -0.7705
 3692TIP3   OH211081   6.188   0.740   0.936 -0.3132 -0.4608 -0.6507
 3692TIP3    H111082   6.164   0.731   1.029 -0.2159 -1.7736 -0.7292
 3692TIP3    H211083   6.179   0.652   0.901 -2.3060  0.3753 -2.4138
 3693TIP3   OH211084   5.958   2.424   3.548  0.3610  0.6131  0.0965
 3693TIP3    H111085   5.985   2.336   3.572 -1.7463  0.2495  1.4806
 3693TIP3    H211086   6.038   2.476   3.549  1.4204 -0.9805  0.7874
 3694TIP3   OH211087   0.863   3.759   0.327 -0.4522  0.6578  0.1669
 3694TIP3    H111088   0.910   3.816   0.266 -1.3514  0.9283 -0.3019
 3694TIP3    H211089   0.817   3.819   0.385 -0.9018  0.4152  0.0687
 3695TIP3   OH211090   5.275   2.695   2.552  0.0099  0.0522 -0.2637
 3695TIP3    H111091   5.273   2.787   2.578 -0.1599 -0.9530  4.0536
 3695TIP3    H211092   5.213   2.652   2.612  0.9644 -3.0315 -1.2972
 3696TIP3   OH211093   2.241   4.588   4.110 -0.0330  0.1797 -0.2633
 3696TIP3    H111094   2.225   4.497   4.135  0.4759  0.1636  0.0208
 3696TIP3    H211095   2.334   4.601   4.127  0.1558  0.4078 -1.4109
 3697TIP3   OH211096   2.627   5.424   2.846  0.4828 -0.4570 -0.3162
 3697TIP3    H111097   2.655   5.334   2.831  1.2964 -0.4935  1.1884
 3697TIP3    H211098   2.629   5.434   2.942 -1.9779  0.4157 -0.2957
 3698TIP3   OH211099   0.607   0.281   4.506  0.0935 -0.0885 -0.2912
 3698TIP3    H111100   0.658   0.214   4.551 -1.6525 -1.2740  0.0174
 3698TIP3    H211101   0.614   0.259   4.413  1.6228  0.8740 -0.4472
 3699TIP3   OH211102   4.312   1.058   2.573  0.0245 -0.0727 -0.3750
 3699TIP3    H111103   4.283   1.111   2.647  1.2353 -0.2973  0.2898
 3699TIP3    H211104   4.393   1.017   2.603 -1.8295 -3.9386 -0.1464
 3700TIP3   OH211105   6.313   2.379   2.177 -0.5278 -0.2460 -0.1127
 3700TIP3    H111106   6.377   2.446   2.197 -0.3446 -0.7710  1.1138
 3700TIP3    H211107   6.364   2.307   2.141 -0.4788 -0.4736  0.4033
 3701TIP3   OH211108   1.249   2.449   1.635 -0.3335 -0.6173 -0.5740
 3701TIP3    H111109   1.171   2.420   1.683 -1.0289  0.2448 -1.1460
 3701TIP3    H211110   1.273   2.532   1.675  0.6472 -1.1500 -0.0294
 3702TIP3   OH211111   1.992   1.203   4.705 -0.1157  0.0573 -0.3078
 3702TIP3    H111112   1.962   1.290   4.732 -0.6374 -0.1183 -0.2970
 3702TIP3    H211113   1.911   1.156   4.683  0.0411 -0.8319  0.9042
 3703TIP3   OH211114   1.550   1.990   0.119 -0.0567 -0.3230  0.6582
 3703TIP3    H111115   1.528   1.897   0.113  0.8339 -0.5060  0.0476
 3703TIP3    H211116   1.483   2.027   0.176  0.3719 -1.6029  2.0538
 3704TIP3   OH211117   2.899   1.126   2.250  0.2494 -0.0625  0.0164
 3704TIP3    H111118   2.989   1.133   2.216  0.3578  2.1778  0.6028
 3704TIP3    H211119   2.846   1.175   2.186 -0.2937  0.0176  0.5251
 3705TIP3   OH211120   4.098   2.783   5.078  0.0411 -0.1649  0.4641
 3705TIP3    H111121   4.160   2.712   5.096  0.4254 -0.3295 -1.3201
 3705TIP3    H211122   4.151   2.863   5.084  0.3232 -0.2651 -0.4791
 3706TIP3   OH211123   5.399   1.774   2.694  0.3206 -0.4489  0.7459
 3706TIP3    H111124   5.410   1.867   2.714  0.3427 -0.3070  0.0926
 3706TIP3    H211125   5.486   1.737   2.704  0.4646 -0.2497  0.2733
 3707TIP3   OH211126   3.243   4.350   4.232  0.2217  0.3242 -0.1663
 3707TIP3    H111127   3.207   4.264   4.209  0.3520  0.1435  0.2917
 3707TIP3    H211128   3.247   4.349   4.328 -0.5564  1.1515 -0.1075
 3708TIP3   OH211129   0.303   2.920   3.592 -0.9036 -0.3828 -0.2944
 3708TIP3    H111130   0.263   2.845   3.636 -1.4035  1.1740  2.0794
 3708TIP3    H211131   0.236   2.988   3.596  0.7098  1.2250  0.6361
 3709TIP3   OH211132   1.352   5.747   3.383  0.1640  0.3052 -0.3417
 3709TIP3    H111133   1.266   5.740   3.344  0.4762 -0.4854 -0.9180
 3709TIP3    H211134   1.340   5.719   3.474  0.0760 -1.2378 -0.8064
 3710TIP3   OH211135   3.044   0.992   3.102 -0.4014 -0.7316 -0.2651
 3710TIP3    H111136   3.019   0.907   3.067  0.4748 -1.5071  0.8848
 3710TIP3    H211137   2.988   1.055   3.057 -2.0202 -2.0431 -0.1816
 3711TIP3   OH211138   4.186   1.846   5.158  0.4160  0.0121 -0.1529
 3711TIP3    H111139   4.111   1.895   5.191 -0.3780 -0.7985 -0.7233
 3711TIP3    H211140   4.261   1.886   5.203 -0.3810  0.5397  0.7707
 3712TIP3   OH211141   4.619   3.066   2.499  0.5021  0.3428 -0.1409
 3712TIP3    H111142   4.699   3.015   2.503  1.8037  2.3193  0.5071
 3712TIP3    H211143   4.632   3.125   2.424 -0.6135  0.2986 -0.3941
 3713TIP3   OH211144   5.380   0.324   3.064 -0.2554 -0.0030 -0.8892
 3713TIP3    H111145   5.351   0.410   3.033  0.1342  0.9761  1.2792
 3713TIP3    H211146   5.357   0.324   3.157 -0.8980 -2.5516 -0.9834
 3714TIP3   OH211147   6.038   0.567   0.643 -0.1494 -0.0711  0.4577
 3714TIP3    H111148   5.967   0.629   0.630 -0.8620 -0.5201  1.9315
 3714TIP3    H211149   6.006   0.485   0.604 -0.4410 -0.2595  1.0755
 3715TIP3   OH211150   2.441   4.018   1.685  0.0279  0.8491 -0.3560
 3715TIP3    H111151   2.434   4.008   1.590  1.5008 -1.1523 -0.3244
 3715TIP3    H211152   2.480   4.104   1.697 -0.3462  1.2016 -1.5583
 3716TIP3   OH211153   4.440   2.872   1.809  0.0729 -0.3818  0.0903
 3716TIP3    H111154   4.359   2.842   1.767  1.5748 -2.3258 -1.5708
 3716TIP3    H211155   4.478   2.934   1.746 -0.0960  0.5452  0.8780
 3717TIP3   OH211156   2.946   3.801   0.659 -0.4518  0.2656  0.2781
 3717TIP3    H111157   2.994   3.793   0.742  0.8054  0.8451 -0.3661
 3717TIP3    H211158   2.856   3.779   0.681  0.1901 -1.3794  1.4432
 3718TIP3   OH211159   1.161   1.500   2.202  0.5388  0.0782 -0.4050
 3718TIP3    H111160   1.100   1.523   2.272 -0.0458  0.6535 -1.0862
 3718TIP3    H211161   1.108   1.451   2.139  0.8076  0.4255 -0.9149
 3719TIP3   OH211162   0.605   1.800   0.634 -0.2166 -0.7676  0.6351
 3719TIP3    H111163   0.631   1.804   0.726 -0.4477  1.8981  0.6525
 3719TIP3    H211164   0.515   1.769   0.635 -0.8535  0.9709  1.5142
 3720TIP3   OH211165   1.921   0.143   0.732  0.3555  0.8107  0.2004
 3720TIP3    H111166   1.973   0.063   0.724 -1.6415 -0.5258  0.0300
 3720TIP3    H211167   1.970   0.196   0.795  1.6284 -0.6061  0.4855
 3721TIP3   OH211168   4.079   1.714   2.254  0.9213  0.1607 -0.6806
 3721TIP3    H111169   3.988   1.689   2.270  1.2143 -0.5114 -0.0311
 3721TIP3    H211170   4.085   1.804   2.288  0.9829 -0.4860  1.1397
 3722TIP3   OH211171   0.889   1.274   5.130 -0.1387  0.7356  0.0142
 3722TIP3    H111172   0.817   1.317   5.176 -0.7639  0.1304 -0.3805
 3722TIP3    H211173   0.954   1.258   5.198 -1.1292 -0.3354  0.7515
 3723TIP3   OH211174   5.044   4.398   2.937  0.2898  0.3811 -0.9483
 3723TIP3    H111175   5.059   4.459   2.865 -0.2287  1.1440 -0.4251
 3723TIP3    H211176   5.128   4.353   2.949  0.1913 -0.3118 -2.5122
 3724TIP3   OH211177   4.214   2.292   2.681 -0.1207  0.4322 -0.1814
 3724TIP3    H111178   4.148   2.353   2.714 -1.0198 -1.0335  0.8044
 3724TIP3    H211179   4.173   2.206   2.685  1.9163 -0.5842  0.7290
 3725TIP3   OH211180   0.576   3.447   4.369  0.4734 -0.0029  0.3256
 3725TIP3    H111181   0.617   3.473   4.452  0.8867  0.9305 -0.1500
 3725TIP3    H211182   0.646   3.456   4.304  0.4040 -1.5799 -0.0084
 3726TIP3   OH211183   5.755   3.269   3.116  0.0279  0.0726  0.0766
 3726TIP3    H111184   5.829   3.248   3.173 -0.2752  0.9545  0.8213
 3726TIP3    H211185   5.750   3.364   3.117 -1.7434  0.0139  0.8935
 3727TIP3   OH211186   1.768   1.454   0.297 -0.0207  0.2420  0.3666
 3727TIP3    H111187   1.846   1.482   0.249  0.4442 -0.0881  0.9101
 3727TIP3    H211188   1.802   1.395   0.364 -0.8513 -0.6914 -0.0143
 3728TIP3   OH211189   2.762   1.430   2.181 -0.6704 -0.0515  0.4022
 3728TIP3    H111190   2.697   1.501   2.184  0.6376  1.2656 -0.6518
 3728TIP3    H211191   2.758   1.390   2.268 -2.1838  0.6383  0.6829
 3729TIP3   OH211192   5.408   3.297   1.178 -0.2991  0.0870  0.8518
 3729TIP3    H111193   5.498   3.329   1.182 -0.1322 -0.2445 -0.0406
 3729TIP3    H211194   5.415   3.203   1.195 -0.5605  0.1739  1.4682
 3730TIP3   OH211195   6.271   2.534   0.686 -0.3616 -0.1132  0.2409
 3730TIP3    H111196   6.349   2.567   0.732  0.5947 -1.2369 -0.5197
 3730TIP3    H211197   6.217   2.612   0.672  1.5120  1.0624 -0.9281
 3731TIP3   OH211198   2.222   0.089   3.332  0.0462  0.4084 -0.1582
 3731TIP3    H111199   2.255   0.001   3.349 -2.7915 -0.6160  0.5836
 3731TIP3    H211200   2.171   0.112   3.410  0.1815  2.4659 -0.5999
 3732TIP3   OH211201   5.033   3.958   3.155  0.1680  0.1641  0.7542
 3732TIP3    H111202   5.026   4.014   3.232  1.3535  2.4121 -0.6490
 3732TIP3    H211203   5.110   3.991   3.109  1.1362 -2.9106 -0.0256
 3733TIP3   OH211204   2.845   2.405   4.976  0.3037  0.3280  0.2373
 3733TIP3    H111205   2.804   2.489   4.956 -1.1104 -0.6061 -0.9774
 3733TIP3    H211206   2.938   2.418   4.956  0.0776  1.5405 -0.1037
 3734TIP3   OH211207   1.404   1.851   2.351 -0.8765 -0.6896 -0.3683
 3734TIP3    H111208   1.487   1.892   2.328 -1.4797  0.5237 -0.4714
 3734TIP3    H211209   1.422   1.757   2.351  0.2824 -0.4807 -1.2085
 3735TIP3   OH211210   3.933   4.307   4.048  0.1015 -0.4867  0.0879
 3735TIP3    H111211   4.017   4.262   4.039  0.7375  0.8704 -1.2892
 3735TIP3    H211212   3.936   4.346   4.135 -0.6635 -3.3667  1.5055
 3736TIP3   OH211213   4.877   4.478   2.260 -0.0821 -0.4037 -0.2999
 3736TIP3    H111214   4.910   4.555   2.214 -0.8184  1.3810  1.9474
 3736TIP3    H211215   4.951   4.418   2.264  0.7839  0.5572 -1.3335
 3737TIP3   OH211216   2.252   1.179   5.044  0.6084 -0.5430 -0.0041
 3737TIP3    H111217   2.277   1.205   5.133 -0.9422 -0.0916  0.3369
 3737TIP3    H211218   2.272   1.256   4.990  1.2010 -0.6795  0.0166
 3738TIP3   OH211219   1.198   1.597   4.762  0.1239  0.0080 -0.2798
 3738TIP3    H111220   1.282   1.597   4.808  0.6604  0.2955 -1.2301
 3738TIP3    H211221   1.190   1.508   4.728 -0.8548 -0.5792  1.3426
 3739TIP3   OH211222   5.632   2.454   0.330 -0.0963 -0.5759 -0.3401
 3739TIP3    H111223   5.639   2.372   0.379 -2.7963 -1.5009 -1.3047
 3739TIP3    H211224   5.540   2.459   0.305  0.6390  1.0926 -3.1836
 3740TIP3   OH211225   5.990   4.050   1.262 -0.1990 -0.0484  0.3340
 3740TIP3    H111226   6.001   3.983   1.194  1.2260 -1.5303  1.9101
 3740TIP3    H211227   6.079   4.085   1.275 -0.7240  1.3328  0.3631
 3741TIP3   OH211228   2.812   0.062   4.572 -0.2764 -0.1432 -0.3517
 3741TIP3    H111229   2.750   0.008   4.523 -1.5605 -0.1241  1.1778
 3741TIP3    H211230   2.761   0.137   4.602  0.7586  0.4334  0.0272
 3742TIP3   OH211231   1.702   1.088   3.131  0.1639 -0.0235  0.6047
 3742TIP3    H111232   1.735   1.173   3.161 -0.7885  1.2462 -1.7119
 3742TIP3    H211233   1.607   1.094   3.140  0.0481 -0.6318 -0.1287
 3743TIP3   OH211234   3.962   0.670   1.191 -0.7553 -0.0792  0.0286
 3743TIP3    H111235   3.928   0.585   1.218 -2.5407  0.6766  0.3298
 3743TIP3    H211236   3.913   0.691   1.111 -0.0686  0.5101 -0.2529
 3744TIP3   OH211237   4.965   5.832   1.212 -0.0682 -0.3258 -0.4769
 3744TIP3    H111238   4.950   5.755   1.158  0.8759 -0.6270 -0.3348
 3744TIP3    H211239   5.055   5.821   1.244 -0.0039  0.7170 -0.2704
 3745TIP3   OH211240   5.172   2.560   4.430  0.2347  0.4431 -0.2755
 3745TIP3    H111241   5.176   2.655   4.426  0.1547  0.4417 -0.3857
 3745TIP3    H211242   5.144   2.541   4.519  2.1023  0.4712  0.3725
 3746TIP3   OH211243   4.623   4.280   2.225 -0.0532 -0.5408  0.2625
 3746TIP3    H111244   4.579   4.353   2.267 -0.8316 -0.8985  0.0940
 3746TIP3    H211245   4.632   4.214   2.294 -0.7307 -0.8697  0.0452
 3747TIP3   OH211246   6.187   4.284   3.743 -0.4094 -0.1454  0.0555
 3747TIP3    H111247   6.224   4.335   3.671 -1.1093  0.7510  0.3137
 3747TIP3    H211248   6.239   4.203   3.744  1.6931  1.1234  0.5080
 3748TIP3   OH211249   2.294   4.502   0.430  0.4209 -0.0854  0.1003
 3748TIP3    H111250   2.262   4.513   0.520  0.6128 -0.3219  0.2009
 3748TIP3    H211251   2.218   4.520   0.375  1.1504  3.7229  0.1174
 3749TIP3   OH211252   5.543   5.444   3.706 -0.2834 -0.2960 -0.4522
 3749TIP3    H111253   5.543   5.538   3.722 -2.3368 -0.3996  0.5338
 3749TIP3    H211254   5.619   5.411   3.754 -0.1520  0.7529  0.0761
 3750TIP3   OH211255   0.809   0.035   4.696  0.6195  0.1089  0.0209
 3750TIP3    H111256   0.904   0.025   4.701  0.6529 -0.9255 -1.7288
 3750TIP3    H211257   0.781  -0.033   4.634 -0.8217  2.7099 -2.4051
 3751TIP3   OH211258   5.099   0.943   1.962  0.6551  0.0562 -0.1118
 3751TIP3    H111259   5.177   0.975   1.918 -1.4292  0.7288 -3.6933
 3751TIP3    H211260   5.067   1.019   2.011 -0.0811  1.2322 -2.2857
 3752TIP3   OH211261   2.433   4.101   2.712  0.0420 -0.2115 -0.0959
 3752TIP3    H111262   2.505   4.065   2.661 -0.6987 -0.5735 -0.9019
 3752TIP3    H211263   2.391   4.164   2.654  0.3752  0.8201  0.7605
 3753TIP3   OH211264   2.274   4.048   2.329  0.0180  0.2753 -0.5468
 3753TIP3    H111265   2.325   4.109   2.383 -1.2149  0.4749  0.4238
 3753TIP3    H211266   2.271   3.968   2.382 -1.5479  0.6052 -0.0948
 3754TIP3   OH211267   4.857   1.539   3.833  0.2553 -0.0630  0.2919
 3754TIP3    H111268   4.851   1.598   3.909 -1.0930  0.5791 -0.2712
 3754TIP3    H211269   4.843   1.597   3.758  0.2986 -0.8895 -0.3564
 3755TIP3   OH211270   5.251   4.966   5.067 -0.3418 -0.5767  0.1361
 3755TIP3    H111271   5.279   4.879   5.097  1.7236  0.0436  0.1490
 3755TIP3    H211272   5.292   4.976   4.982 -1.3745  0.0328 -0.3113
 3756TIP3   OH211273   2.056   1.979   3.286  0.0322  0.0822  0.8437
 3756TIP3    H111274   1.993   2.044   3.316  0.7002  0.4299  1.5221
 3756TIP3    H211275   2.136   2.029   3.268  0.2275 -0.3992  0.3137
 3757TIP3   OH211276   2.532   5.617   2.510  0.6552 -0.0476 -0.5141
 3757TIP3    H111277   2.464   5.603   2.443  1.0670 -0.0533 -0.9337
 3757TIP3    H211278   2.556   5.709   2.500 -0.1272  0.2792  0.4332
 3758TIP3   OH211279   1.902   0.753   4.448 -0.2508  0.1033 -0.1209
 3758TIP3    H111280   1.996   0.770   4.435 -0.3639 -0.2267 -1.5122
 3758TIP3    H211281   1.858   0.823   4.401 -0.7448  1.3299  2.0548
 3759TIP3   OH211282   4.341   2.386   2.444  1.0771 -0.2719  0.2589
 3759TIP3    H111283   4.336   2.480   2.462 -0.6860 -0.4829  1.0600
 3759TIP3    H211284   4.295   2.346   2.518 -1.3143 -1.5423 -1.8028
 3760TIP3   OH211285   4.921   4.247   2.141 -0.3158  0.1575 -0.4752
 3760TIP3    H111286   4.960   4.180   2.198 -2.7037 -2.3366 -1.5776
 3760TIP3    H211287   4.830   4.253   2.170 -0.4274  2.2586 -1.0943
 3761TIP3   OH211288   3.118   0.605   3.236 -0.4955  0.2135 -0.4381
 3761TIP3    H111289   3.186   0.602   3.302 -1.6082 -0.2321  0.7213
 3761TIP3    H211290   3.138   0.533   3.176 -0.9057 -1.0359  0.8861
 3762TIP3   OH211291   2.240   0.133   4.962 -0.9630 -0.1550  0.2835
 3762TIP3    H111292   2.178   0.166   4.896 -1.5239 -2.1553 -0.2742
 3762TIP3    H211293   2.224   0.039   4.964  2.8645 -1.0359 -0.7973
 3763TIP3   OH211294   1.628   2.946   3.146  0.4993 -0.6235  0.0964
 3763TIP3    H111295   1.719   2.931   3.119  0.3748 -2.4501  0.5522
 3763TIP3    H211296   1.635   3.002   3.223  1.1032  0.8828 -1.0049
 3764TIP3   OH211297   4.350   1.460   4.366 -0.3718 -0.1468  0.6273
 3764TIP3    H111298   4.363   1.554   4.380 -1.0870  0.3662 -1.7451
 3764TIP3    H211299   4.256   1.447   4.381 -0.6351 -0.0830 -0.8039
 3765TIP3   OH211300   2.203   4.673   3.293  0.0942  0.1150 -0.4041
 3765TIP3    H111301   2.240   4.649   3.208  1.9544  0.4527  0.2652
 3765TIP3    H211302   2.112   4.696   3.273  0.5343  0.4059 -2.3468
 3766TIP3   OH211303   3.927   3.943   4.172 -0.3250  0.2673 -0.6654
 3766TIP3    H111304   3.994   3.969   4.235  0.0570 -0.1089 -0.9152
 3766TIP3    H211305   3.866   3.890   4.223  0.2036 -0.3782 -0.6978
 3767TIP3   OH211306   1.022   4.695   5.139 -0.1224  0.4285  0.6170
 3767TIP3    H111307   0.926   4.684   5.138 -0.1794 -0.0218 -3.2851
 3767TIP3    H211308   1.035   4.789   5.136 -0.4459  0.4827  0.7971
 3768TIP3   OH211309   3.002   1.227   4.000 -0.0167  0.6890  0.4843
 3768TIP3    H111310   3.060   1.153   3.986  0.1519  0.9130 -0.0278
 3768TIP3    H211311   2.942   1.198   4.069 -0.4417 -0.2095 -0.2376
 3769TIP3   OH211312   4.080   5.209   2.227 -0.2548 -0.0126  0.3463
 3769TIP3    H111313   4.073   5.134   2.285  2.9306 -0.2103  0.6087
 3769TIP3    H211314   4.151   5.262   2.262 -1.8605  2.8053 -0.2753
 3770TIP3   OH211315   6.071   2.784   2.301  0.0758 -0.4132 -0.0408
 3770TIP3    H111316   6.130   2.716   2.333 -0.0352 -1.3209 -1.6421
 3770TIP3    H211317   6.130   2.851   2.265  0.2315 -1.5919 -2.1923
 3771TIP3   OH211318   3.532   2.908   1.846 -0.2363 -0.0646  0.0363
 3771TIP3    H111319   3.542   2.916   1.941  1.7188  0.7902 -0.1781
 3771TIP3    H211320   3.443   2.936   1.829 -0.0228  1.6952  1.4641
 3772TIP3   OH211321   4.781   3.538   3.996  0.1558  0.0243 -0.2915
 3772TIP3    H111322   4.767   3.444   3.991  1.8171 -0.3608  1.2734
 3772TIP3    H211323   4.871   3.548   4.027 -0.7585  2.0588  2.0614
 3773TIP3   OH211324   3.257  -0.020   2.043 -0.1345 -0.2389 -0.0035
 3773TIP3    H111325   3.308   0.006   1.966 -1.1299 -1.5226 -1.1261
 3773TIP3    H211326   3.303   0.022   2.116  1.8030 -0.3211 -1.0890
 3774TIP3   OH211327   5.912   0.136   0.323 -0.3224 -0.6428  0.2125
 3774TIP3    H111328   5.936   0.187   0.245 -2.1746 -0.7578 -0.4984
 3774TIP3    H211329   5.816   0.142   0.327 -0.4409 -2.3830  1.2680
 3775TIP3   OH211330   3.055   3.008   1.990  0.4178  0.3609 -0.6068
 3775TIP3    H111331   2.976   2.975   1.946  0.5196 -0.0277 -0.5045
 3775TIP3    H211332   3.024   3.083   2.040  0.1222  0.2535 -0.6237
 3776TIP3   OH211333   2.753   1.254   4.164  0.4231 -0.3339  0.4846
 3776TIP3    H111334   2.734   1.301   4.083 -0.1947  0.1836  0.9242
 3776TIP3    H211335   2.674   1.264   4.217  0.9193 -0.4302  1.2594
 3777TIP3   OH211336   5.968   4.162   0.965  0.2509 -0.3550 -0.5308
 3777TIP3    H111337   6.026   4.231   0.998  0.0253  0.0823 -1.0379
 3777TIP3    H211338   5.975   4.092   1.030  0.8451 -0.0456 -0.2509
 3778TIP3   OH211339   0.258   2.075   2.639  0.2635 -0.0675  0.3606
 3778TIP3    H111340   0.239   2.162   2.673 -1.6733 -0.6421  0.9097
 3778TIP3    H211341   0.239   2.081   2.545  1.3598  0.4065  0.1606
 3779TIP3   OH211342   1.543   5.433   0.137  0.5266 -0.5943  0.9903
 3779TIP3    H111343   1.596   5.503   0.100  0.8790 -0.4124  1.8068
 3779TIP3    H211344   1.466   5.428   0.081  1.3254 -0.7562 -0.1221
 3780TIP3   OH211345   0.980   0.145   3.730 -0.1203  0.0360  0.2653
 3780TIP3    H111346   1.012   0.086   3.798  1.1698 -1.4187 -1.5021
 3780TIP3    H211347   0.925   0.090   3.674 -2.0326  1.4376  0.6283
 3781TIP3   OH211348   0.421   4.246   2.785 -0.3451  0.4708 -0.3813
 3781TIP3    H111349   0.436   4.244   2.880 -1.8180  0.2127 -0.1215
 3781TIP3    H211350   0.412   4.155   2.760  1.5412  0.4440 -1.0685
 3782TIP3   OH211351   2.128   4.418   3.899 -0.4044 -0.2283 -0.3736
 3782TIP3    H111352   2.200   4.355   3.902 -1.2438 -1.3276 -2.1744
 3782TIP3    H211353   2.167   4.497   3.863  0.0859 -0.5554 -0.5668
 3783TIP3   OH211354   2.208   1.784   2.838 -0.1603  0.1411 -0.2421
 3783TIP3    H111355   2.122   1.748   2.856  0.0955 -0.7543 -0.7598
 3783TIP3    H211356   2.254   1.715   2.790  0.5168  0.9677 -0.8150
 3784TIP3   OH211357   5.305   5.844   3.158 -0.0554  0.3237 -0.5416
 3784TIP3    H111358   5.298   5.939   3.164  0.8931  0.4429 -0.9933
 3784TIP3    H211359   5.232   5.817   3.102 -0.7667  0.6947  0.1991
 3785TIP3   OH211360   0.579   4.445   4.050  0.0507 -0.4341  0.1378
 3785TIP3    H111361   0.650   4.498   4.087  0.9303 -1.8563  0.5855
 3785TIP3    H211362   0.535   4.503   3.988  1.5527  0.5279 -0.0794
 3786TIP3   OH211363   4.837   4.679   0.356  1.2290 -0.2189  0.1613
 3786TIP3    H111364   4.815   4.732   0.280  0.5954  1.2136  1.2970
 3786TIP3    H211365   4.919   4.636   0.332  0.4886 -0.6827 -1.7276
 3787TIP3   OH211366   5.071   0.307   4.136  0.2263  0.3689 -0.4099
 3787TIP3    H111367   5.135   0.267   4.195  0.8390 -1.1634 -2.0217
 3787TIP3    H211368   4.986   0.287   4.177  0.6832  1.6096  1.2567
 3788TIP3   OH211369   1.048   4.575   4.534  0.1446 -0.1542 -0.2054
 3788TIP3    H111370   1.141   4.578   4.554  0.5165  3.0563 -1.8282
 3788TIP3    H211371   1.014   4.659   4.564 -2.0237 -0.8140 -0.6319
 3789TIP3   OH211372   4.115   1.286   2.096  0.8926 -0.0140 -0.4082
 3789TIP3    H111373   4.029   1.319   2.122  0.5451 -1.7827  0.8404
 3789TIP3    H211374   4.130   1.325   2.009 -2.2983 -1.5533 -1.8267
 3790TIP3   OH211375   5.185   4.783   1.866  0.3992 -0.1901 -0.6470
 3790TIP3    H111376   5.168   4.692   1.842  0.2218 -0.3291  0.0150
 3790TIP3    H211377   5.126   4.833   1.810 -1.1433 -0.5956  0.5627
 3791TIP3   OH211378   0.701   5.317   4.171  0.0005 -0.4091 -0.4197
 3791TIP3    H111379   0.783   5.353   4.136  0.6874 -0.9352  0.5926
 3791TIP3    H211380   0.634   5.379   4.145  0.7059 -0.0064 -1.3470
 3792TIP3   OH211381   5.926   5.470   2.762  0.4618  0.3112 -0.6785
 3792TIP3    H111382   5.992   5.418   2.715  1.4783 -0.3223  1.3306
 3792TIP3    H211383   5.957   5.560   2.755  2.3999 -0.1091  1.3885
 3793TIP3   OH211384   3.789   4.497   2.743  0.1211  0.1294  0.3956
 3793TIP3    H111385   3.842   4.566   2.705  1.7721 -1.1780  0.2162
 3793TIP3    H211386   3.725   4.543   2.798  3.9625  1.8053  4.0519
 3794TIP3   OH211387   0.618   4.953   3.621 -0.1665  0.2737 -0.2372
 3794TIP3    H111388   0.655   4.881   3.672 -0.3006  0.6145  0.3560
 3794TIP3    H211389   0.527   4.928   3.605  0.2008 -0.4105 -1.4087
 3795TIP3   OH211390   2.280   5.867   0.582 -0.3693 -0.1949  0.3294
 3795TIP3    H111391   2.308   5.808   0.652 -2.6560  1.4130  2.7979
 3795TIP3    H211392   2.211   5.819   0.537  0.0229 -0.6298  0.1810
 3796TIP3   OH211393   2.860   3.202   3.828 -0.4432  0.7548  0.8106
 3796TIP3    H111394   2.771   3.213   3.793 -0.6607  0.6072  1.2988
 3796TIP3    H211395   2.853   3.126   3.886 -0.0748  0.9420  1.1036
 3797TIP3   OH211396   4.123   4.018   2.422 -0.0223 -0.1066  0.1716
 3797TIP3    H111397   4.100   4.111   2.429  0.5063  0.0987 -0.6608
 3797TIP3    H211398   4.043   3.972   2.445  0.2363  0.5159  2.5261
 3798TIP3   OH211399   5.039   3.212   4.471  0.3559  0.2333  0.1919
 3798TIP3    H111400   5.116   3.183   4.520  0.3249 -2.1038 -0.9969
 3798TIP3    H211401   4.971   3.148   4.494 -0.0677 -0.0559 -1.7044
 3799TIP3   OH211402   5.026   1.122   0.091  0.8557 -0.0956 -0.2129
 3799TIP3    H111403   5.018   1.203   0.141  0.9619  0.2382 -0.7259
 3799TIP3    H211404   4.941   1.079   0.099  0.8824 -0.0541  0.2691
 3800TIP3   OH211405   4.348   5.521   3.363 -0.6858  0.0254 -0.3508
 3800TIP3    H111406   4.377   5.610   3.383 -0.1483 -0.2447  0.0877
 3800TIP3    H211407   4.383   5.467   3.433 -0.1025 -0.6948 -1.1689
 3801TIP3   OH211408   5.727   0.870   1.821  0.4470 -0.0669  0.3150
 3801TIP3    H111409   5.800   0.809   1.816  1.3390  0.9640  0.4756
 3801TIP3    H211410   5.664   0.827   1.879  0.8040 -1.0701 -0.0155
 3802TIP3   OH211411   4.487   0.856   0.789 -0.2016  0.2341  0.1630
 3802TIP3    H111412   4.570   0.877   0.746 -1.0599 -0.9581 -2.2558
 3802TIP3    H211413   4.505   0.777   0.839  0.6498  1.2640  1.5542
 3803TIP3   OH211414   1.592   5.889   3.337 -0.6014  0.2006  0.6469
 3803TIP3    H111415   1.512   5.836   3.333 -0.7039  0.4011 -0.2786
 3803TIP3    H211416   1.627   5.886   3.248 -0.0379  0.8221  0.8399
 3804TIP3   OH211417   3.240   5.475   3.164 -0.1482  0.0673 -0.1961
 3804TIP3    H111418   3.234   5.491   3.258  0.9146 -0.4187 -0.0236
 3804TIP3    H211419   3.267   5.559   3.127  1.6189 -0.2663  0.2292
 3805TIP3   OH211420   3.236   0.597   4.874 -0.1913 -0.2183 -0.4248
 3805TIP3    H111421   3.241   0.637   4.787 -0.2519  1.9170  0.4959
 3805TIP3    H211422   3.145   0.612   4.901 -0.3633 -1.4867 -0.2452
 3806TIP3   OH211423   2.530   1.989   5.218  0.0147 -0.2045  0.0246
 3806TIP3    H111424   2.548   2.083   5.219 -0.7935 -0.0457 -0.1805
 3806TIP3    H211425   2.531   1.965   5.125  1.4286 -0.6466  0.1300
 3807TIP3   OH211426   4.163   1.464   2.906  0.6070 -0.0810  0.2261
 3807TIP3    H111427   4.172   1.425   2.993 -0.8293 -0.3646  0.2673
 3807TIP3    H211428   4.187   1.556   2.919  0.2635 -0.0876  0.9541
 3808TIP3   OH211429   2.289   3.824   3.348 -0.2733 -0.5370  0.6281
 3808TIP3    H111430   2.249   3.848   3.265 -0.4438  0.4095  0.9678
 3808TIP3    H211431   2.377   3.792   3.325  0.7430  2.2584  0.2553
 3809TIP3   OH211432   5.003   4.791   3.399 -0.0368 -0.3684  0.2246
 3809TIP3    H111433   4.935   4.830   3.344  1.5808  0.5241 -1.2169
 3809TIP3    H211434   5.050   4.731   3.341  2.6701  1.7214  0.0997
 3810TIP3   OH211435   0.548   1.738   1.610  0.0859  0.2530  0.4860
 3810TIP3    H111436   0.514   1.769   1.526  1.1362  1.8356  0.6015
 3810TIP3    H211437   0.549   1.642   1.601 -1.4097  0.2994 -0.6496
 3811TIP3   OH211438   2.016   5.739   0.910 -0.3339  0.2522  0.9752
 3811TIP3    H111439   1.932   5.778   0.936 -0.5958  0.1334  0.3287
 3811TIP3    H211440   2.003   5.645   0.920 -0.1709  0.2505  1.1774
 3812TIP3   OH211441   4.773   1.145   2.629 -0.4456  0.0476 -0.3266
 3812TIP3    H111442   4.810   1.228   2.599  1.0582 -0.2880  0.4865
 3812TIP3    H211443   4.696   1.170   2.680  0.8942  1.1005  1.2812
 3813TIP3   OH211444   0.764   5.530   1.973 -0.1439 -0.5871  0.2096
 3813TIP3    H111445   0.684   5.582   1.976  0.9877  1.2310  0.0646
 3813TIP3    H211446   0.834   5.594   1.970  1.3231 -2.1454 -0.0744
 3814TIP3   OH211447   1.199   3.507   1.728 -0.2168 -0.7908  0.7055
 3814TIP3    H111448   1.237   3.542   1.648 -0.9464  0.0212  0.7068
 3814TIP3    H211449   1.267   3.518   1.794 -0.8358  1.7969  0.9955
 3815TIP3   OH211450   3.501   2.627   3.645 -0.2267  0.0473 -0.1713
 3815TIP3    H111451   3.582   2.663   3.608 -0.8855  1.4767 -0.2981
 3815TIP3    H211452   3.462   2.576   3.575 -0.1716  0.5907 -0.6007
 3816TIP3   OH211453   4.928   5.559   2.514 -0.1083  0.0495  0.0238
 3816TIP3    H111454   4.900   5.480   2.561 -0.4234 -0.1403 -0.4656
 3816TIP3    H211455   4.997   5.597   2.568 -1.0276  0.2895  1.0506
 3817TIP3   OH211456   2.375   2.476   2.742 -0.3524 -0.1177  0.6328
 3817TIP3    H111457   2.444   2.416   2.715  0.6541  1.2588  0.0473
 3817TIP3    H211458   2.414   2.528   2.812 -0.8529  0.5522  0.4213
 3818TIP3   OH211459   3.214   5.898   3.487  0.0739 -0.2503  0.6629
 3818TIP3    H111460   3.167   5.819   3.514  1.5808 -0.8501  1.6336
 3818TIP3    H211461   3.147   5.967   3.487 -1.2547 -1.4864 -0.1620
 3819TIP3   OH211462   6.174   4.130   4.989 -0.0668  0.2461  0.7631
 3819TIP3    H111463   6.139   4.218   4.973  0.1688  0.1213 -0.5544
 3819TIP3    H211464   6.259   4.145   5.031  0.2451  0.6777 -0.0030
 3820TIP3   OH211465   6.082   1.388   0.764  0.2207  0.2977  0.6337
 3820TIP3    H111466   6.155   1.371   0.824  0.4647 -0.6573  0.0827
 3820TIP3    H211467   6.054   1.301   0.735 -1.8994  0.5595  1.7014
 3821TIP3   OH211468   2.761   0.032   2.342  0.6220 -0.4244 -0.0680
 3821TIP3    H111469   2.722   0.042   2.255  1.2075  2.3287 -0.1075
 3821TIP3    H211470   2.708  -0.036   2.385 -0.9064 -0.4517 -1.8876
 3822TIP3   OH211471   0.425   3.249   1.021  0.3188 -0.2526 -0.5004
 3822TIP3    H111472   0.506   3.273   0.976 -0.0261 -0.6707 -1.3608
 3822TIP3    H211473   0.446   3.167   1.066  0.0520 -0.9968 -1.6889
 3823TIP3   OH211474   6.151   1.726   1.362  0.5824  0.0188 -0.4265
 3823TIP3    H111475   6.159   1.670   1.284 -2.0019 -1.4736  0.2576
 3823TIP3    H211476   6.091   1.795   1.335 -1.0323 -0.9955  0.4019
 3824TIP3   OH211477   3.597   4.663   2.028 -0.1127  0.2514 -0.0917
 3824TIP3    H111478   3.661   4.700   1.968  2.7317 -0.3392  2.3406
 3824TIP3    H211479   3.555   4.593   1.978  1.7299  0.1280 -1.5789
 3825TIP3   OH211480   2.270   2.128   5.166 -0.1793  0.4063  0.4639
 3825TIP3    H111481   2.352   2.113   5.120 -0.9796 -0.0379 -0.8478
 3825TIP3    H211482   2.210   2.062   5.132 -1.5353  1.7039  0.2531
 3826TIP3   OH211483   2.492   4.048   5.144  0.0708 -0.1677 -0.1367
 3826TIP3    H111484   2.573   4.079   5.104  0.3778 -2.7241 -1.7095
 3826TIP3    H211485   2.518   3.974   5.199 -1.1053 -0.6541 -0.1963
 3827TIP3   OH211486   0.099   0.116   3.520 -0.3147  0.6485 -0.0930
 3827TIP3    H111487   0.048   0.187   3.482 -0.7360  0.6499  0.4675
 3827TIP3    H211488   0.150   0.081   3.447 -0.2159  1.4260 -0.4036
 3828TIP3   OH211489   3.607   2.298   2.978  0.5504  0.1490 -0.2042
 3828TIP3    H111490   3.531   2.246   2.951 -0.7519  1.5801  0.5652
 3828TIP3    H211491   3.570   2.376   3.018  2.4492  0.7852  0.4302
 3829TIP3   OH211492   3.848   3.291   3.488  1.0023 -0.5965  0.0505
 3829TIP3    H111493   3.816   3.241   3.563  0.7074  1.0061  1.0415
 3829TIP3    H211494   3.908   3.231   3.444  0.9894 -1.6810  1.4218
 3830TIP3   OH211495   1.978   4.493   1.236  0.2936 -0.3207  0.1868
 3830TIP3    H111496   1.969   4.402   1.264 -1.3881  0.1224  1.2270
 3830TIP3    H211497   1.991   4.542   1.318  1.0664  0.4116 -0.3438
 3831TIP3   OH211498   2.719   3.861   1.127  0.8478  0.4230 -0.4207
 3831TIP3    H111499   2.728   3.906   1.212 -0.2302  0.8585 -0.5174
 3831TIP3    H211500   2.663   3.919   1.076  2.2140  0.6064 -1.7757
 3832TIP3   OH211501   3.264   1.690   1.833 -0.3106  0.1381 -0.4864
 3832TIP3    H111502   3.326   1.619   1.851 -0.8520  0.1990  2.0341
 3832TIP3    H211503   3.226   1.710   1.918 -2.7014  1.1522 -1.7102
 3833TIP3   OH211504   2.257   0.766   0.483  1.0069 -0.7078  0.0504
 3833TIP3    H111505   2.342   0.754   0.441  2.3960 -2.4203  3.0449
 3833TIP3    H211506   2.215   0.681   0.477  1.4918 -1.1842  2.4307
 3834TIP3   OH211507   2.319   2.980   2.172  0.2386  0.2183 -0.4593
 3834TIP3    H111508   2.334   3.059   2.225 -0.0326  0.5195 -0.8216
 3834TIP3    H211509   2.311   3.013   2.082  0.7778 -0.2984 -0.7005
 3835TIP3   OH211510   5.621   0.416   4.468  0.0584 -0.2723 -0.6093
 3835TIP3    H111511   5.618   0.375   4.554 -0.0653  1.8894  0.4831
 3835TIP3    H211512   5.566   0.494   4.476  1.1884  0.7762 -2.1911
 3836TIP3   OH211513   4.458   2.165   4.534 -0.3160  0.9945  0.0216
 3836TIP3    H111514   4.445   2.249   4.491 -1.7598  0.6041 -0.3641
 3836TIP3    H211515   4.373   2.122   4.529  0.4250 -0.5550  0.0722
 3837TIP3   OH211516   0.261   3.736   2.588  0.0367 -0.5741 -0.4377
 3837TIP3    H111517   0.165   3.739   2.594  0.0199  0.4034 -0.9809
 3837TIP3    H211518   0.280   3.754   2.496  0.7102 -2.3221 -0.6667
 3838TIP3   OH211519   3.464   3.660   4.464  0.3583  0.6355 -0.4596
 3838TIP3    H111520   3.505   3.734   4.419 -0.3748  0.4572 -1.4688
 3838TIP3    H211521   3.376   3.691   4.485 -0.3425 -0.2687 -1.8636
 3839TIP3   OH211522   2.018   3.463   3.189  0.3606 -0.3262  0.0320
 3839TIP3    H111523   2.071   3.385   3.171  1.1002  0.4228 -1.1953
 3839TIP3    H211524   2.065   3.534   3.145 -0.2737  0.8300  1.1635
 3840TIP3   OH211525   1.890   4.309   4.854 -0.4887  0.2235  0.2473
 3840TIP3    H111526   1.910   4.401   4.872 -0.0638 -0.2843  2.8026
 3840TIP3    H211527   1.943   4.287   4.777  0.9147  1.6163  0.7658
 3841TIP3   OH211528   5.903   0.336   0.519 -0.4117 -0.2919 -0.1369
 3841TIP3    H111529   5.944   0.255   0.488 -1.6874 -0.5103 -1.3037
 3841TIP3    H211530   5.894   0.390   0.441 -1.3218  0.1986  0.2988
 3842TIP3   OH211531   0.755   1.839   1.345  0.1994  0.7171  0.2614
 3842TIP3    H111532   0.662   1.853   1.363  0.0707  1.9197 -1.1003
 3842TIP3    H211533   0.757   1.757   1.295 -0.4467  1.8134 -1.6870
 3843TIP3   OH211534   3.108   2.734   3.679 -0.1917  0.0611  0.4659
 3843TIP3    H111535   3.139   2.655   3.635  0.4725 -0.8222  2.4077
 3843TIP3    H211536   3.014   2.735   3.665 -0.0149 -0.2459 -0.8362
 3844TIP3   OH211537   2.378   1.193   4.462  0.8264 -0.0912 -0.1033
 3844TIP3    H111538   2.338   1.150   4.537  1.9528 -0.1994  0.4667
 3844TIP3    H211539   2.310   1.194   4.395 -0.6676  1.2446  1.3569
 3845TIP3   OH211540   6.185   0.267   1.597  0.0454  0.3072  0.1263
 3845TIP3    H111541   6.280   0.255   1.596 -0.0643 -0.6614 -0.7935
 3845TIP3    H211542   6.151   0.183   1.626 -0.5145  1.1107  1.9670
 3846TIP3   OH211543   5.022   2.601   5.141  0.0029 -0.0253 -0.7989
 3846TIP3    H111544   5.023   2.506   5.146 -0.5575 -0.1965 -3.0308
 3846TIP3    H211545   5.108   2.625   5.106  0.4619  0.3889  0.5358
 3847TIP3   OH211546   5.632   0.697   3.047 -0.0952  0.5079  0.2750
 3847TIP3    H111547   5.648   0.612   3.087  1.2216  0.2679 -0.7018
 3847TIP3    H211548   5.601   0.677   2.959 -0.3599  1.0355  0.2430
 3848TIP3   OH211549   2.750   1.489   0.539 -0.1411  0.2367  0.4085
 3848TIP3    H111550   2.803   1.463   0.463  0.7485 -1.5744  1.5921
 3848TIP3    H211551   2.753   1.585   0.538  0.0662  0.2626 -1.6668
 3849TIP3   OH211552   4.770   0.273   1.747  0.2204  0.2415  0.6494
 3849TIP3    H111553   4.702   0.206   1.737 -0.0672  0.4316  1.2592
 3849TIP3    H211554   4.722   0.352   1.771  0.5450  0.7251 -0.2733
 3850TIP3   OH211555   2.637   2.014   1.103  0.1090  0.3445  0.2367
 3850TIP3    H111556   2.679   2.085   1.055  2.1173 -0.9876 -0.0920
 3850TIP3    H211557   2.556   1.996   1.054  1.3809 -0.0066 -1.8786
 3851TIP3   OH211558   5.816   1.201   4.157  0.4001  0.2765  0.1950
 3851TIP3    H111559   5.787   1.110   4.162 -0.9487  0.6096 -1.0107
 3851TIP3    H211560   5.911   1.197   4.164  0.2881 -1.1398  1.0807
 3852TIP3   OH211561   4.374   0.997   4.163 -0.0865 -0.0409  0.1634
 3852TIP3    H111562   4.308   1.066   4.174 -0.2100 -0.1592  0.1742
 3852TIP3    H211563   4.449   1.026   4.215  0.9883  1.5126 -2.0797
 3853TIP3   OH211564   1.882   5.671   4.537 -0.0203 -0.4594 -0.2636
 3853TIP3    H111565   1.879   5.766   4.529 -1.7100 -0.5252 -0.9843
 3853TIP3    H211566   1.819   5.651   4.608 -2.2280 -1.1575 -2.2800
 3854TIP3   OH211567   4.843   0.688   2.244  0.2223 -0.4067 -0.8502
 3854TIP3    H111568   4.891   0.691   2.162  0.0511 -1.2115 -0.9889
 3854TIP3    H211569   4.806   0.600   2.247  1.1518 -0.7957  0.6064
 3855TIP3   OH211570   6.270   1.209   2.642 -0.0885 -0.4016 -0.3234
 3855TIP3    H111571   6.177   1.232   2.650  0.4213  1.1582  3.1426
 3855TIP3    H211572   6.297   1.190   2.732  3.1329 -0.0232 -1.0905
 3856TIP3   OH211573   6.179   0.094   1.193  0.2599  0.0835  1.0148
 3856TIP3    H111574   6.084   0.107   1.201 -0.2160 -0.5984 -2.2700
 3856TIP3    H211575   6.199   0.025   1.256 -1.7325 -0.8515  0.7059
 3857TIP3   OH211576   4.528   4.171   0.958  0.0221  0.2068  0.5788
 3857TIP3    H111577   4.544   4.227   1.034 -0.9928 -1.0748  1.7897
 3857TIP3    H211578   4.535   4.082   0.993 -1.8475 -0.4065 -0.5072
 3858TIP3   OH211579   5.072   2.485   1.535  0.7148 -0.6721 -0.1650
 3858TIP3    H111580   5.116   2.407   1.502  1.2803  0.3939 -2.0662
 3858TIP3    H211581   5.103   2.556   1.479  0.7640  1.0708  1.9441
 3859TIP3   OH211582   3.655   3.231   2.909 -0.7840 -0.7214 -0.4734
 3859TIP3    H111583   3.571   3.217   2.951 -0.3161 -0.4900  0.5678
 3859TIP3    H211584   3.640   3.303   2.848 -1.4068 -0.8752 -0.5038
 3860TIP3   OH211585   5.354   3.725   1.256  0.0638  0.4423 -0.0589
 3860TIP3    H111586   5.296   3.801   1.251 -1.1011 -0.4898 -1.7759
 3860TIP3    H211587   5.423   3.744   1.193  0.5200  0.6408  0.4892
 3861TIP3   OH211588   4.264   1.223   2.784  0.4057 -0.3468 -0.0768
 3861TIP3    H111589   4.252   1.309   2.825 -0.2178  0.1870 -1.3066
 3861TIP3    H211590   4.330   1.180   2.838 -0.3268  0.3267  1.4324
 3862TIP3   OH211591   0.618   4.426   2.065  0.3952 -0.3966 -0.5777
 3862TIP3    H111592   0.563   4.436   2.142 -0.4603 -0.6343 -1.1468
 3862TIP3    H211593   0.634   4.332   2.059  1.2953 -0.2873 -0.1345
 3863TIP3   OH211594   3.799   2.139   4.142  0.0874  0.5898  0.1373
 3863TIP3    H111595   3.782   2.172   4.054 -2.0139  0.2015  0.3300
 3863TIP3    H211596   3.717   2.096   4.167  1.0201 -0.3039  1.8495
 3864TIP3   OH211597   0.757   0.300   2.171 -0.0707  0.2869  0.0735
 3864TIP3    H111598   0.663   0.315   2.164  0.2261  1.4952 -1.8795
 3864TIP3    H211599   0.791   0.380   2.211  0.3179  0.5588 -0.7901
 3865TIP3   OH211600   0.593   2.934   0.471 -0.2890  0.2469  0.3398
 3865TIP3    H111601   0.643   2.890   0.402  0.3699  0.1378  0.8785
 3865TIP3    H211602   0.532   2.867   0.502  0.5173 -0.2233  0.9617
 3866TIP3   OH211603   4.423   0.828   1.312 -0.0425  0.5105  0.0998
 3866TIP3    H111604   4.456   0.907   1.267 -0.8065  1.2071  0.7348
 3866TIP3    H211605   4.489   0.809   1.379  0.7021 -0.0617 -0.7747
 3867TIP3   OH211606   1.895   3.367   2.563  0.5968  0.2619  0.0073
 3867TIP3    H111607   1.802   3.377   2.544 -0.2247 -0.7501  2.9675
 3867TIP3    H211608   1.926   3.305   2.497 -0.3029  2.0190 -2.1904
 3868TIP3   OH211609   0.527   4.129   0.472 -0.7898 -0.3643 -0.6892
 3868TIP3    H111610   0.536   4.210   0.522  1.0331 -0.0561 -1.4327
 3868TIP3    H211611   0.470   4.152   0.399  1.2665  0.8824 -2.0152
 3869TIP3   OH211612   2.434   3.083   3.790  0.1104 -0.1790  0.3409
 3869TIP3    H111613   2.340   3.076   3.804 -0.4108 -0.4461 -2.5146
 3869TIP3    H211614   2.473   3.014   3.843 -1.7071 -2.4756 -1.1051
 3870TIP3   OH211615   6.256   3.061   0.270  0.4260  0.1198  0.1743
 3870TIP3    H111616   6.187   3.111   0.314 -0.5401 -0.5179 -0.5599
 3870TIP3    H211617   6.327   3.056   0.333 -0.0877  1.0635  0.8378
 3871TIP3   OH211618   1.204   1.070   0.180 -0.3725  0.7383  0.5118
 3871TIP3    H111619   1.236   1.138   0.239 -0.9053  0.6727  0.8919
 3871TIP3    H211620   1.120   1.103   0.149  0.0440  0.9093 -0.4661
 3872TIP3   OH211621   3.337   5.918   1.635 -0.1916 -0.2830  0.3127
 3872TIP3    H111622   3.338   5.985   1.566  1.6492  0.0806  0.6484
 3872TIP3    H211623   3.344   5.835   1.588 -0.8279 -0.1554 -0.0187
 3873TIP3   OH211624   1.609   4.020   3.491  0.2431  0.0477 -0.0669
 3873TIP3    H111625   1.591   4.060   3.406 -0.2649  0.6867  0.3323
 3873TIP3    H211626   1.526   3.978   3.516 -0.7724  2.8274  1.6827
 3874TIP3   OH211627   2.156   5.747   3.839  0.3480 -0.5920  0.4970
 3874TIP3    H111628   2.192   5.661   3.815 -0.1594 -1.7148  3.3838
 3874TIP3    H211629   2.233   5.800   3.859  0.6114 -0.8133  0.1050
 3875TIP3   OH211630   0.919   5.078   4.509 -0.6996 -0.1903  0.1352
 3875TIP3    H111631   0.845   5.035   4.465 -0.4421 -1.8376  1.2444
 3875TIP3    H211632   0.878   5.145   4.564 -1.0689  1.4482 -2.0030
 3876TIP3   OH211633   2.482   5.750   3.930  0.1021 -0.0528 -0.0459
 3876TIP3    H111634   2.408   5.760   3.989  0.7300 -1.2989  1.0210
 3876TIP3    H211635   2.480   5.828   3.874 -1.6500  0.2082  0.3343
 3877TIP3   OH211636   3.232   5.335   0.110 -0.1972 -0.1486  0.2505
 3877TIP3    H111637   3.256   5.271   0.043  1.6448 -1.1482  1.7480
 3877TIP3    H211638   3.262   5.419   0.075 -1.4384 -0.2581 -1.1620
 3878TIP3   OH211639   4.511   5.934   0.473 -0.6498  0.2600 -0.1982
 3878TIP3    H111640   4.449   5.890   0.415 -0.0406  0.7944 -1.2870
 3878TIP3    H211641   4.471   5.928   0.560 -1.1810 -1.2911 -0.5230
 3879TIP3   OH211642   2.235   2.643   1.982 -0.4375  0.3476  0.0307
 3879TIP3    H111643   2.222   2.629   1.888  2.6646 -0.7419 -0.3547
 3879TIP3    H211644   2.242   2.738   1.992  1.9177  0.3797 -1.3486
 3880TIP3   OH211645   4.355   2.623   0.457 -0.8566 -0.1581 -0.4297
 3880TIP3    H111646   4.375   2.594   0.368  0.6569  0.4569 -0.3224
 3880TIP3    H211647   4.437   2.613   0.505 -1.4487  0.2191  0.7106
 3881TIP3   OH211648   3.471   5.375   2.267  0.4832  0.2391 -0.2255
 3881TIP3    H111649   3.430   5.388   2.181  0.6718 -2.4660 -0.8129
 3881TIP3    H211650   3.433   5.293   2.299  3.0148 -0.6854  0.6466
 3882TIP3   OH211651   3.191   0.116   1.112  0.1829  0.1318 -0.0394
 3882TIP3    H111652   3.157   0.032   1.144  2.4515 -0.4001  1.2465
 3882TIP3    H211653   3.143   0.182   1.162  0.8659 -0.5802  1.6499
 3883TIP3   OH211654   4.035   0.313   0.603  0.1958  0.2059  0.4783
 3883TIP3    H111655   4.081   0.381   0.652  1.0607  0.4444 -0.6406
 3883TIP3    H211656   4.089   0.234   0.614 -0.5303 -0.1975  1.3362
 3884TIP3   OH211657   2.265   1.363   3.337  0.6572  0.4323 -0.2938
 3884TIP3    H111658   2.294   1.274   3.358 -1.0796 -0.5256 -1.6233
 3884TIP3    H211659   2.329   1.395   3.273  0.7402 -0.2668 -0.5664
 3885TIP3   OH211660   5.395   3.535   2.069 -0.3721 -0.1310  0.3544
 3885TIP3    H111661   5.350   3.549   2.153  1.1718 -0.1732  1.2113
 3885TIP3    H211662   5.447   3.614   2.057  0.4895 -0.7280  0.1242
 3886TIP3   OH211663   1.005   0.205   0.205 -0.2016  0.3026 -0.4553
 3886TIP3    H111664   1.081   0.241   0.251  0.4535  0.2553 -1.4511
 3886TIP3    H211665   0.929   0.247   0.246  0.3370  0.1494  0.7380
 3887TIP3   OH211666   2.601   0.347   3.904  0.1262 -0.4995 -0.1370
 3887TIP3    H111667   2.584   0.314   3.992  0.4748  1.8880  0.8945
 3887TIP3    H211668   2.514   0.368   3.869  0.0501 -0.7387 -0.0984
 3888TIP3   OH211669   4.256   3.198   0.645 -0.0302 -0.3431  0.2079
 3888TIP3    H111670   4.324   3.132   0.629  0.1451  0.3967 -2.5918
 3888TIP3    H211671   4.284   3.243   0.724  0.7412 -2.4737  1.2295
 3889TIP3   OH211672   2.608   2.348   3.733 -0.8774 -0.5990 -0.1254
 3889TIP3    H111673   2.614   2.319   3.642 -2.0542  0.4464 -0.5687
 3889TIP3    H211674   2.534   2.409   3.734  1.2852  2.1855  0.7748
 3890TIP3   OH211675   4.043   1.789   0.602  0.0679 -0.4746  0.2475
 3890TIP3    H111676   4.029   1.715   0.661  0.4827 -0.4021  0.4357
 3890TIP3    H211677   4.005   1.863   0.648 -0.2556 -0.5496  0.1042
 3891TIP3   OH211678   6.083   0.358   4.280 -0.1378  0.8860  0.0540
 3891TIP3    H111679   6.089   0.330   4.189  0.2855 -2.1041  0.8967
 3891TIP3    H211680   6.174   0.374   4.305  0.2027 -1.7219  0.8127
 3892TIP3   OH211681   1.857   5.344   2.856  0.4428 -0.0910  0.1862
 3892TIP3    H111682   1.843   5.284   2.783 -1.4768  1.2335 -0.6183
 3892TIP3    H211683   1.858   5.288   2.934  1.4347 -1.4136 -0.7327
 3893TIP3   OH211684   2.591   1.158   5.046  0.0624 -0.5131  0.2031
 3893TIP3    H111685   2.590   1.249   5.076  1.0897 -0.1567 -0.7824
 3893TIP3    H211686   2.655   1.115   5.102  2.0850  0.1850 -1.4356
 3894TIP3   OH211687   4.836   0.912   3.808 -0.7839 -0.1255  0.0568
 3894TIP3    H111688   4.843   1.006   3.824 -1.1583  0.1864 -1.4937
 3894TIP3    H211689   4.855   0.872   3.893 -0.8605  1.3475  0.7965
 3895TIP3   OH211690   6.338   3.490   4.679  0.3561  0.4939  0.2128
 3895TIP3    H111691   6.259   3.436   4.688  1.3253 -0.7984  1.4989
 3895TIP3    H211692   6.329   3.532   4.594 -0.3424 -1.9551 -1.0218
 3896TIP3   OH211693   5.093   3.307   2.436  0.3286 -0.0399  0.3018
 3896TIP3    H111694   5.055   3.353   2.360 -0.2115 -0.8224  0.0854
 3896TIP3    H211695   5.054   3.350   2.512 -1.5022 -1.1860  0.0861
 3897TIP3   OH211696   4.588   2.072   3.566 -0.2103 -0.1549 -0.3221
 3897TIP3    H111697   4.527   2.075   3.640 -1.5207  0.4163 -1.3803
 3897TIP3    H211698   4.603   2.163   3.544 -0.5230 -0.3229 -1.2830
 3898TIP3   OH211699   4.695   3.472   2.013  0.0024  0.5547 -0.2787
 3898TIP3    H111700   4.757   3.540   1.987  1.6485 -1.0224 -0.6032
 3898TIP3    H211701   4.667   3.432   1.930  0.5607 -0.4532  0.0142
 3899TIP3   OH211702   4.375   1.988   3.103  0.1862 -0.3586  0.8088
 3899TIP3    H111703   4.392   1.955   3.191 -0.7652 -2.4302  0.2989
 3899TIP3    H211704   4.293   2.036   3.110  0.9560  0.9151  1.3366
 3900TIP3   OH211705   2.448   0.606   4.576  0.4124  0.2312  0.0401
 3900TIP3    H111706   2.413   0.517   4.580 -0.4646  0.5514 -0.3349
 3900TIP3    H211707   2.448   0.636   4.667  1.0035 -0.2605  0.2037
 3901TIP3   OH211708   0.189   3.119   3.332 -0.3761  0.0090 -0.7433
 3901TIP3    H111709   0.194   3.214   3.329  0.7217  0.0474  0.7418
 3901TIP3    H211710   0.166   3.099   3.423 -0.9135 -1.1387 -1.1077
 3902TIP3   OH211711   4.288   5.411   1.805  0.1104 -1.0563  0.0117
 3902TIP3    H111712   4.222   5.355   1.846 -0.2020  0.0973  1.1251
 3902TIP3    H211713   4.281   5.494   1.850 -0.4247  0.3923 -2.5455
 3903TIP3   OH211714   0.822   4.548   1.818 -0.1555  0.0554 -0.6434
 3903TIP3    H111715   0.822   4.480   1.750  0.9167  0.5494 -1.1617
 3903TIP3    H211716   0.804   4.629   1.771 -1.7086  0.1241  0.0154
 3904TIP3   OH211717   0.038   0.066   2.773 -0.1779  0.0847 -0.0601
 3904TIP3    H111718  -0.040   0.121   2.777 -0.1807  0.0804 -0.0579
 3904TIP3    H211719   0.005  -0.023   2.768 -0.1730 -0.0043  1.1704
 3905TIP3   OH211720   0.045   4.822   0.630 -0.2334 -0.1517 -0.2018
 3905TIP3    H111721   0.098   4.776   0.695  1.4407 -1.6176 -2.4519
 3905TIP3    H211722   0.107   4.883   0.588 -1.3004  0.8569 -0.3561
 3906TIP3   OH211723   3.611   4.060   2.693  0.0687 -0.7303  0.7910
 3906TIP3    H111724   3.686   4.114   2.719 -0.3801 -1.0293  2.8928
 3906TIP3    H211725   3.572   4.107   2.619  0.3288  1.2582  1.8534
 3907TIP3   OH211726   3.890   0.188   4.341 -0.0660 -0.4932  0.7356
 3907TIP3    H111727   3.927   0.231   4.418 -1.7350 -0.8496  1.8110
 3907TIP3    H211728   3.845   0.257   4.293  1.0568 -0.2530 -0.0033
 3908TIP3   OH211729   0.238   3.794   3.888 -0.0711  0.3846  0.0395
 3908TIP3    H111730   0.262   3.815   3.978  0.0445 -0.3342  0.1830
 3908TIP3    H211731   0.156   3.743   3.896  0.0123  0.2017 -0.2467
 3909TIP3   OH211732   0.694   0.009   3.524 -0.4575  0.7908  0.2846
 3909TIP3    H111733   0.689  -0.037   3.441 -0.4627  0.5093  0.4406
 3909TIP3    H211734   0.742   0.090   3.504 -0.4102  0.6982  0.0215
 3910TIP3   OH211735   3.204   5.709   1.500 -0.2135 -0.4505  0.1031
 3910TIP3    H111736   3.244   5.735   1.417  0.3431 -4.0328 -0.9155
 3910TIP3    H211737   3.112   5.693   1.479  0.3016 -3.1642 -0.3896
 3911TIP3   OH211738   4.737   2.237   1.724  0.2113  0.0726 -0.8146
 3911TIP3    H111739   4.783   2.252   1.641 -0.8772  1.4907 -1.2044
 3911TIP3    H211740   4.647   2.216   1.698 -0.1051  0.3903 -0.0049
 3912TIP3   OH211741   4.489   4.983   0.695  0.0045 -0.3557  0.0265
 3912TIP3    H111742   4.439   5.020   0.768  0.8641  0.0536  0.4202
 3912TIP3    H211743   4.571   4.953   0.734  1.6429  2.2365 -1.1115
 3913TIP3   OH211744   2.621   1.733   4.199  0.6986  0.4302  0.3896
 3913TIP3    H111745   2.599   1.656   4.251  0.4025  1.3719  1.7040
 3913TIP3    H211746   2.537   1.772   4.176  0.8389  0.2358 -0.5066
 3914TIP3   OH211747   2.445   2.876   3.993  0.2863 -0.3215  0.4429
 3914TIP3    H111748   2.472   2.955   4.039  0.4582 -0.2830  0.2771
 3914TIP3    H211749   2.425   2.814   4.062  0.4673 -0.2389  0.5719
 3915TIP3   OH211750   0.715   4.765   2.995  0.0163  0.0140  0.4641
 3915TIP3    H111751   0.791   4.823   2.994  0.3531 -0.4345  0.4158
 3915TIP3    H211752   0.700   4.746   3.088  0.6175 -0.7617  0.4094
 3916TIP3   OH211753   5.086   1.607   4.513  0.2812  0.1558  0.0950
 3916TIP3    H111754   5.045   1.559   4.441  0.9528 -2.6584  1.4470
 3916TIP3    H211755   5.178   1.585   4.507  0.6653  1.4652  0.7157
 3917TIP3   OH211756   1.949   1.153   2.799  0.5196 -0.1550  0.0231
 3917TIP3    H111757   2.009   1.083   2.822 -0.2741 -0.8785 -0.0361
 3917TIP3    H211758   1.953   1.158   2.704  3.1758  2.2712  0.1463
 3918TIP3   OH211759   4.523   5.804   2.434  0.2650 -0.0049  0.0225
 3918TIP3    H111760   4.590   5.838   2.374  1.0283 -1.7632 -0.2048
 3918TIP3    H211761   4.531   5.708   2.426 -0.9455 -0.2634  1.4882
 3919TIP3   OH211762   4.743   1.690   5.116  1.0752  0.5708 -0.5191
 3919TIP3    H111763   4.654   1.674   5.145  0.2590  2.4586 -1.7850
 3919TIP3    H211764   4.789   1.607   5.133 -1.1223 -0.7670 -0.6604
 3920TIP3   OH211765   5.852   3.490   3.607  0.1072 -0.3642  0.0474
 3920TIP3    H111766   5.884   3.403   3.630  0.5756 -0.3236 -0.4388
 3920TIP3    H211767   5.780   3.506   3.668 -0.9192 -1.6717 -0.7614
 3921TIP3   OH211768   6.010   5.482   0.597 -0.1570 -0.2502  0.6387
 3921TIP3    H111769   6.016   5.570   0.633  1.6262 -0.3114  0.5948
 3921TIP3    H211770   5.975   5.429   0.669  0.6423  0.1474  1.3322
 3922TIP3   OH211771   6.085   2.474   1.659 -0.1591  0.0918  0.1432
 3922TIP3    H111772   6.075   2.422   1.739  0.9964  0.3984  0.5075
 3922TIP3    H211773   6.109   2.561   1.690 -0.0383  0.3030 -0.5291
 3923TIP3   OH211774   0.977   3.180   2.922  0.5849  0.1602  0.1230
 3923TIP3    H111775   0.931   3.179   2.839  1.5620  0.7825 -0.4410
 3923TIP3    H211776   1.002   3.271   2.936 -1.1742  0.4345  2.0381
 3924TIP3   OH211777   4.357   4.791   4.651  0.2770  0.5776  0.3804
 3924TIP3    H111778   4.270   4.759   4.674 -0.3318  1.7506 -0.2373
 3924TIP3    H211779   4.361   4.880   4.687  0.9237  0.8209 -0.2629
 3925TIP3   OH211780   0.646   4.737   4.979  0.0117  0.4162  0.1309
 3925TIP3    H111781   0.699   4.746   5.058  1.3504  0.3546 -0.7181
 3925TIP3    H211782   0.659   4.647   4.951  0.8071  0.8576 -0.9883
 3926TIP3   OH211783   6.152   5.023   0.118 -0.2324  0.1053  0.2475
 3926TIP3    H111784   6.071   4.983   0.085  0.3409 -0.5621 -0.3705
 3926TIP3    H211785   6.184   5.075   0.044  0.1828 -0.0580  0.3131
 3927TIP3   OH211786   4.641   4.315   1.557  0.1162 -0.1525  0.0926
 3927TIP3    H111787   4.702   4.388   1.569 -0.7212  0.7394 -0.8298
 3927TIP3    H211788   4.650   4.291   1.465  0.5423 -1.3824  0.4430
 3928TIP3   OH211789   3.936   3.851   0.630  0.3183 -0.1222 -0.0696
 3928TIP3    H111790   3.956   3.823   0.541  0.7892  1.3124 -0.4440
 3928TIP3    H211791   3.982   3.789   0.687 -0.5051 -1.4330 -0.7873
 3929TIP3   OH211792   3.089   4.546   4.072  0.2243 -0.5307  0.3890
 3929TIP3    H111793   3.169   4.508   4.108 -0.7639 -1.1889  2.0041
 3929TIP3    H211794   3.029   4.552   4.146  0.2673  4.3302  0.3824
 3930TIP3   OH211795   5.201   2.807   1.585 -0.3720  0.4809 -0.0228
 3930TIP3    H111796   5.173   2.778   1.499 -0.1667  0.1824  0.0091
 3930TIP3    H211797   5.122   2.804   1.639 -0.1103 -1.3675  0.3413
 3931TIP3   OH211798   2.557   5.076   3.392 -0.2322 -0.2756  0.4716
 3931TIP3    H111799   2.594   4.991   3.413 -1.6442 -1.5122 -1.6639
 3931TIP3    H211800   2.483   5.056   3.334 -1.9743  2.2589  1.6428
 3932TIP3   OH211801   1.938   0.379   2.688  0.0969 -0.3793  0.2136
 3932TIP3    H111802   1.969   0.399   2.776  0.6240  0.1431 -0.0833
 3932TIP3    H211803   1.889   0.457   2.662 -0.6937 -0.8336  0.3279
 3933TIP3   OH211804   1.357   2.505   0.486  0.3202 -0.2576 -0.4136
 3933TIP3    H111805   1.284   2.568   0.481  0.2648 -0.2947 -0.0643
 3933TIP3    H211806   1.317   2.421   0.464  0.6881  0.0378 -2.4199
 3934TIP3   OH211807   3.182   1.380   3.663 -0.4271  0.0816  0.6437
 3934TIP3    H111808   3.206   1.293   3.629 -1.4615  0.0175  0.0255
 3934TIP3    H211809   3.253   1.437   3.634  0.4086 -0.6024  1.2976
 3935TIP3   OH211810   1.674   4.817   4.903 -0.0983 -0.1781 -0.0286
 3935TIP3    H111811   1.742   4.766   4.947 -0.9892 -0.0223  1.5798
 3935TIP3    H211812   1.723   4.880   4.850  1.0241  0.0141  1.1762
 3936TIP3   OH211813   2.774   2.538   0.003  0.0526  0.0491 -0.3862
 3936TIP3    H111814   2.836   2.470  -0.025  2.0824  1.4969  0.3297
 3936TIP3    H211815   2.822   2.587   0.070 -2.5626  0.1489  1.5684
 3937TIP3   OH211816   5.490   4.524   3.866  0.1889 -0.4624 -0.3632
 3937TIP3    H111817   5.584   4.532   3.851  0.2431  0.3228  0.2912
 3937TIP3    H211818   5.470   4.594   3.929 -0.4075 -2.0950  1.3372
 3938TIP3   OH211819   5.099   0.221   2.484  0.0072  0.0962 -0.4661
 3938TIP3    H111820   5.131   0.256   2.401  0.4605  0.5179 -0.1212
 3938TIP3    H211821   5.129   0.284   2.550 -0.7474  0.0144 -0.0272
 3939TIP3   OH211822   6.230   0.888   1.631  0.4361  0.4658 -0.5598
 3939TIP3    H111823   6.149   0.926   1.665  1.0603  0.8929  0.5012
 3939TIP3    H211824   6.201   0.830   1.561 -0.6671  1.8047 -1.2821
 3940TIP3   OH211825   0.173   5.170   2.482  0.2928 -0.0465 -0.0131
 3940TIP3    H111826   0.217   5.132   2.406  0.0846 -1.8309  0.7064
 3940TIP3    H211827   0.084   5.136   2.478  0.6400 -1.2861  1.7282
 3941TIP3   OH211828   0.408   1.330   0.659  0.1856  1.1400  0.0005
 3941TIP3    H111829   0.498   1.326   0.626 -0.1371 -0.6574 -0.7480
 3941TIP3    H211830   0.411   1.279   0.740 -0.5978 -0.9165 -1.2001
 3942TIP3   OH211831   4.161   1.101   2.352 -0.4359 -0.1749 -0.5248
 3942TIP3    H111832   4.208   1.114   2.434 -2.8269 -0.1965  0.9506
 3942TIP3    H211833   4.203   1.161   2.291  0.8627  0.5009  0.9553
 3943TIP3   OH211834   4.690   5.857   0.740  0.2047  0.6541 -0.0556
 3943TIP3    H111835   4.734   5.808   0.671 -1.8198 -0.2954 -0.7536
 3943TIP3    H211836   4.679   5.945   0.703  1.0602  0.7669 -0.0564
 3944TIP3   OH211837   4.568   3.180   3.254 -0.2117  0.1137 -0.0935
 3944TIP3    H111838   4.543   3.223   3.172 -1.3983  0.6243  0.5068
 3944TIP3    H211839   4.627   3.242   3.297  0.9449 -0.4414 -0.8402
 3945TIP3   OH211840   0.762   0.321   4.773 -0.1724  0.4634 -0.6073
 3945TIP3    H111841   0.831   0.331   4.839 -1.6180  0.1640  1.0232
 3945TIP3    H211842   0.770   0.230   4.744 -0.4442  0.1631  0.2410
 3946TIP3   OH211843   0.991   0.422   2.940 -0.7621  0.2271 -0.2029
 3946TIP3    H111844   0.922   0.366   2.903 -1.0519  0.3017  0.2234
 3946TIP3    H211845   1.065   0.410   2.881 -0.9871 -0.2221 -0.3993
 3947TIP3   OH211846   3.480   1.058   0.933  0.5462 -0.0336  0.0243
 3947TIP3    H111847   3.429   0.986   0.970  1.4546 -1.2489 -0.9857
 3947TIP3    H211848   3.561   1.059   0.984  0.3354  0.6295  0.3633
 3948TIP3   OH211849   2.863   3.758   0.156 -0.6217 -0.3017  0.1318
 3948TIP3    H111850   2.821   3.673   0.141 -0.0275 -0.6976  0.6681
 3948TIP3    H211851   2.837   3.781   0.246 -0.2644 -0.2179  0.2132
 3949TIP3   OH211852   3.032   1.675   0.605  0.2633  0.8939  0.4011
 3949TIP3    H111853   3.118   1.715   0.590 -0.3949  1.8670 -0.8960
 3949TIP3    H211854   3.024   1.608   0.537  0.4515 -0.0035  1.2342
 3950TIP3   OH211855   3.933   3.784   5.055 -0.0293 -0.2120 -0.3779
 3950TIP3    H111856   4.022   3.767   5.086 -0.0944 -0.1594 -0.1597
 3950TIP3    H211857   3.877   3.738   5.118 -0.1312 -0.8099 -0.8973
 3951TIP3   OH211858   2.158   4.562   0.846  0.0449  0.3451 -0.2331
 3951TIP3    H111859   2.246   4.591   0.823 -0.4075  1.1807 -0.9845
 3951TIP3    H211860   2.154   4.471   0.815  0.9345 -0.0103  0.6483
 3952TIP3   OH211861   5.253   3.767   0.907  0.1670  0.3573 -0.1397
 3952TIP3    H111862   5.256   3.863   0.916  0.3764  0.4037 -0.6377
 3952TIP3    H211863   5.342   3.743   0.884  0.0613  0.0647 -0.2429
 3953TIP3   OH211864   2.056   4.739   4.524  0.0915 -0.4415  0.2287
 3953TIP3    H111865   2.133   4.782   4.485  0.1870 -0.5738  0.2673
 3953TIP3    H211866   2.023   4.682   4.455 -0.1978 -0.1035  0.0866
 3954TIP3   OH211867   0.814   1.890   3.555 -0.0342 -0.4314  0.1431
 3954TIP3    H111868   0.722   1.879   3.582  0.0681  1.9172  1.7774
 3954TIP3    H211869   0.809   1.905   3.461 -1.4932  0.7884  0.3664
 3955TIP3   OH211870   1.631   3.233   0.368 -0.4694  0.0398  0.1774
 3955TIP3    H111871   1.680   3.269   0.294 -0.8522 -0.6869 -0.4550
 3955TIP3    H211872   1.539   3.250   0.346 -0.5191  1.6930  1.5112
 3956TIP3   OH211873   3.015   2.145   1.639 -0.8415 -0.0348  0.8977
 3956TIP3    H111874   3.094   2.093   1.654 -1.6080 -1.5453 -0.0730
 3956TIP3    H211875   3.039   2.233   1.667  1.1256 -0.4916  0.7900
 3957TIP3   OH211876   5.772   2.639   3.229 -0.1533 -0.4370 -0.3249
 3957TIP3    H111877   5.752   2.562   3.284 -1.2354 -1.0316 -1.4876
 3957TIP3    H211878   5.754   2.609   3.140 -0.9015  1.2616 -0.7731
 3958TIP3   OH211879  -0.035   2.316   4.532 -0.0550 -0.4639 -0.1958
 3958TIP3    H111880   0.041   2.300   4.475  0.4065  0.8515  0.0061
 3958TIP3    H211881  -0.001   2.375   4.599 -0.9330 -0.9421  0.6808
 3959TIP3   OH211882   1.413   4.828   5.088  0.2349  0.0325  0.3217
 3959TIP3    H111883   1.508   4.821   5.076  0.1165  1.6629 -2.0979
 3959TIP3    H211884   1.401   4.826   5.183  2.8272  1.1114  0.7507
 3960TIP3   OH211885   4.271   0.738   4.185 -0.0843 -0.5124 -0.0513
 3960TIP3    H111886   4.312   0.824   4.185 -0.0887 -0.4856  1.5482
 3960TIP3    H211887   4.197   0.747   4.125  0.4588  0.3128 -0.6136
 3961TIP3   OH211888   1.792   3.659   0.777  0.4469  0.2694 -0.1457
 3961TIP3    H111889   1.758   3.570   0.764  1.4632  0.0633 -1.6304
 3961TIP3    H211890   1.762   3.707   0.699  2.1483  0.5041 -0.6800
 3962TIP3   OH211891   0.357   2.819   0.617 -0.3234  0.7987 -0.1851
 3962TIP3    H111892   0.296   2.854   0.682  0.4580  1.3519  0.2822
 3962TIP3    H211893   0.302   2.772   0.554 -1.0388 -0.5809  1.3764
 3963TIP3   OH211894   0.140   5.478   1.802  0.4464 -0.0107  0.2367
 3963TIP3    H111895   0.162   5.391   1.835  1.6101  0.8350  1.7896
 3963TIP3    H211896   0.051   5.493   1.833  0.7765 -0.0602  1.2335
 3964TIP3   OH211897   1.683   0.925   0.620  0.0288  0.0150 -0.6391
 3964TIP3    H111898   1.614   0.970   0.670  0.2095  1.1585 -1.3640
 3964TIP3    H211899   1.648   0.921   0.531 -0.3061 -2.0276 -0.4633
 3965TIP3   OH211900   2.267   5.470   2.935  0.1632 -0.2409  0.2177
 3965TIP3    H111901   2.318   5.496   2.858 -0.2862  4.0624  1.1210
 3965TIP3    H211902   2.286   5.377   2.946  1.4954 -0.7068 -4.0819
 3966TIP3   OH211903   2.950   5.954   3.761  0.3493 -0.4897 -0.2655
 3966TIP3    H111904   2.982   6.038   3.793  0.5570  1.1035 -4.1049
 3966TIP3    H211905   2.934   5.903   3.840  2.8980  2.1139  2.1709
 3967TIP3   OH211906   0.791   5.360   3.184  0.5209 -0.1304 -0.1113
 3967TIP3    H111907   0.813   5.269   3.167 -2.0535 -0.2885 -3.6264
 3967TIP3    H211908   0.727   5.383   3.117 -1.0925  3.4948  2.3265
 3968TIP3   OH211909   2.313   4.797   1.662 -0.4786 -0.3531 -0.6158
 3968TIP3    H111910   2.357   4.829   1.741 -1.4126  1.4389 -0.7723
 3968TIP3    H211911   2.385   4.777   1.601  0.1970  0.2298 -0.0330
 3969TIP3   OH211912   0.654  -0.003   2.249  0.0769 -0.0716 -0.4223
 3969TIP3    H111913   0.619   0.086   2.243  1.5593  0.4922 -1.5477
 3969TIP3    H211914   0.608  -0.051   2.180 -0.1785  0.0468 -0.3331
 3970TIP3   OH211915   3.921   4.416   4.295 -0.0083 -0.2678 -0.1171
 3970TIP3    H111916   3.958   4.394   4.381  0.1969 -0.5482 -0.2769
 3970TIP3    H211917   3.827   4.423   4.311  0.0315 -0.2905  0.1386
 3971TIP3   OH211918   5.197   2.956   2.359  0.0186 -0.5028 -0.6380
 3971TIP3    H111919   5.208   2.961   2.454 -1.3862  0.7007 -0.5021
 3971TIP3    H211920   5.128   2.892   2.345  0.6620 -1.1548 -0.9071
 3972TIP3   OH211921   6.196   5.000   1.103  0.1017  0.2524  0.4101
 3972TIP3    H111922   6.211   4.974   1.194  0.3291 -0.0314  0.2955
 3972TIP3    H211923   6.260   4.948   1.053  0.6363  1.1114  0.1875
 3973TIP3   OH211924   0.626   5.973   1.764 -0.0439 -0.0608 -0.1206
 3973TIP3    H111925   0.575   6.051   1.785  1.7045  1.0574  0.2399
 3973TIP3    H211926   0.579   5.931   1.693 -0.7950  1.5879 -0.6432
 3974TIP3   OH211927  -0.006   4.720   2.485  0.1094  0.0567  0.1949
 3974TIP3    H111928  -0.054   4.701   2.566 -0.8969 -1.6161 -0.7134
 3974TIP3    H211929   0.070   4.770   2.513 -1.4231  1.5903  1.8820
 3975TIP3   OH211930   1.661   3.066   4.560  0.4728 -0.0541 -0.2201
 3975TIP3    H111931   1.717   3.061   4.638  0.7120  2.4133 -0.1564
 3975TIP3    H211932   1.573   3.050   4.594  0.8706 -2.0005  0.0085
 3976TIP3   OH211933   2.482   0.043   0.601 -0.1076 -0.1080 -0.2756
 3976TIP3    H111934   2.507   0.034   0.693 -0.5239 -0.8113 -0.2264
 3976TIP3    H211935   2.550  -0.004   0.554 -1.5027 -2.4166 -0.1131
 3977TIP3   OH211936   2.928   2.171   0.577 -0.2228  0.8415  0.3690
 3977TIP3    H111937   2.969   2.103   0.631 -1.8988 -0.9016 -0.4059
 3977TIP3    H211938   2.862   2.210   0.635 -1.2139 -0.2232  0.0151
 3978TIP3   OH211939   0.490   0.409   2.184 -0.0884  0.1820 -0.2309
 3978TIP3    H111940   0.399   0.391   2.211  0.3706 -2.9833 -0.3903
 3978TIP3    H211941   0.485   0.421   2.089 -0.2662 -1.1220 -0.4106
 3979TIP3   OH211942   5.631   2.013   1.379  0.2373  0.1707 -0.4521
 3979TIP3    H111943   5.692   1.956   1.424 -0.1878  0.8874  1.1010
 3979TIP3    H211944   5.582   1.955   1.320 -0.8026 -1.2539  1.7179
 3980TIP3   OH211945   1.305   0.215   4.928  0.0412  0.0463  0.0460
 3980TIP3    H111946   1.221   0.196   4.970  0.5686 -0.0151  1.1041
 3980TIP3    H211947   1.298   0.307   4.902 -0.2653  0.1084  0.3355
 3981TIP3   OH211948   4.918   2.063   1.556  0.0482  0.3195 -0.3730
 3981TIP3    H111949   4.953   2.006   1.487 -1.7809 -3.0566  1.2526
 3981TIP3    H211950   4.985   2.060   1.625 -0.6019 -1.0388  0.2346
 3982TIP3   OH211951   3.789   5.843   2.569  0.7837 -0.2808 -0.0193
 3982TIP3    H111952   3.807   5.906   2.499 -2.9711  1.2825  0.2135
 3982TIP3    H211953   3.740   5.773   2.527 -0.8226  0.2899  0.8091
 3983TIP3   OH211954   5.706   5.317   5.169 -0.6215 -0.6984 -0.7470
 3983TIP3    H111955   5.646   5.386   5.142  1.5062  2.9696  2.8672
 3983TIP3    H211956   5.790   5.341   5.129  0.7621  0.5680  2.5865
 3984TIP3   OH211957   4.666   0.784   0.610  0.1192  0.1679 -0.1775
 3984TIP3    H111958   4.627   0.696   0.609 -1.2761  0.7526  0.7844
 3984TIP3    H211959   4.720   0.786   0.531 -2.1188 -0.5661 -1.8367
 3985TIP3   OH211960   1.348   1.165   4.147  0.3316  0.5348 -0.3564
 3985TIP3    H111961   1.406   1.090   4.160 -0.0782  0.1710 -0.5891
 3985TIP3    H211962   1.352   1.214   4.229  0.1393 -0.0701  0.0178
 3986TIP3   OH211963   3.285   2.822   4.705  0.4281 -0.4830 -0.2165
 3986TIP3    H111964   3.256   2.748   4.652 -2.0971  1.6695 -2.1862
 3986TIP3    H211965   3.329   2.880   4.643  0.5782  0.5456  0.8141
 3987TIP3   OH211966   0.418   4.691   3.976  0.3952 -0.3175  0.0930
 3987TIP3    H111967   0.440   4.783   3.987  1.7097 -0.5322 -0.5712
 3987TIP3    H211968   0.376   4.686   3.890  1.8827 -0.5609 -0.6580
 3988TIP3   OH211969   5.104   5.890   2.404  0.5822  0.0868  0.0546
 3988TIP3    H111970   5.133   5.853   2.321 -0.4099 -0.7797  0.0792
 3988TIP3    H211971   5.018   5.928   2.385  0.5624  0.3136  0.5759
 3989TIP3   OH211972   3.191   5.001   4.562  0.2449 -0.4149 -0.5952
 3989TIP3    H111973   3.171   5.094   4.567  0.1588 -0.5073  1.5290
 3989TIP3    H211974   3.253   4.994   4.488  0.3935  1.3318 -0.6792
 3990TIP3   OH211975   0.530   1.982   0.410  0.0320  0.0541  0.1899
 3990TIP3    H111976   0.597   1.951   0.470  0.1122  0.2822  0.2197
 3990TIP3    H211977   0.467   1.910   0.405 -0.3695  0.3282  1.1433
 3991TIP3   OH211978   0.776   4.223   0.943 -0.0153  0.0872 -0.8300
 3991TIP3    H111979   0.758   4.268   1.026  0.1040  0.2629 -0.8969
 3991TIP3    H211980   0.691   4.218   0.899 -0.1255 -0.2464 -0.5799
 3992TIP3   OH211981   6.145   4.226   2.371 -0.0889 -0.6729  0.2250
 3992TIP3    H111982   6.182   4.312   2.351  1.1621 -1.7782 -3.1184
 3992TIP3    H211983   6.092   4.205   2.294 -1.0366 -2.5676  1.3260
 3993TIP3   OH211984   3.116   5.019   2.934  0.1539  0.0620 -0.3885
 3993TIP3    H111985   3.169   4.993   2.859 -0.3233  1.5929 -1.2911
 3993TIP3    H211986   3.168   5.086   2.978  0.4819 -0.8987  0.7556
 3994TIP3   OH211987   6.085   0.245   2.049 -0.1201  0.2836 -0.4509
 3994TIP3    H111988   6.154   0.254   1.983 -0.3614  1.3781 -0.5671
 3994TIP3    H211989   6.045   0.332   2.053  0.0242  0.2966  1.2761
 3995TIP3   OH211990   4.089   1.045   0.293  0.3602  0.2779 -0.2018
 3995TIP3    H111991   4.170   0.999   0.272  0.0841 -0.5027  0.4054
 3995TIP3    H211992   4.054   1.073   0.209  0.8311 -0.1267 -0.5339
 3996TIP3   OH211993   0.985   4.873   2.992  0.4470 -0.2203  0.4910
 3996TIP3    H111994   1.001   4.935   3.064  2.3720  0.4346 -0.4129
 3996TIP3    H211995   1.073   4.845   2.966 -0.3328 -2.3915  0.0325
 3997TIP3   OH211996   2.526   0.760   4.172 -0.6946  0.5355  0.3521
 3997TIP3    H111997   2.484   0.674   4.177 -0.2776  0.2019 -1.2582
 3997TIP3    H211998   2.565   0.773   4.258 -0.8504 -0.8523  0.6576
 3998TIP3   OH211999   3.016   3.976   0.444  0.0429  0.2116 -0.3453
 3998TIP3    H112000   2.988   3.928   0.522 -1.0667  0.5676 -0.5092
 3998TIP3    H212001   3.081   3.919   0.402 -0.1221 -0.4442  0.2804
 3999TIP3   OH212002   5.767   1.611   1.815  0.2836  0.1072  0.2629
 3999TIP3    H112003   5.690   1.666   1.829  0.1952  0.3723 -1.1461
 3999TIP3    H212004   5.805   1.600   1.903 -0.9000  0.6224  0.8656
 4000TIP3   OH212005   6.202   1.047   4.874  0.2026 -0.5198 -0.2065
 4000TIP3    H112006   6.208   0.972   4.933  1.2006 -0.8261 -0.6856
 4000TIP3    H212007   6.274   1.105   4.901 -0.7611  0.4440  0.3852
 4001TIP3   OH212008   0.207   2.966   1.993  0.3229 -0.2412 -0.2138
 4001TIP3    H112009   0.247   2.898   2.047  2.9368  2.3241  1.3171
 4001TIP3    H212010   0.253   2.960   1.909  1.6267  0.5438  0.4230
 4002TIP3   OH212011   0.124   2.221   1.628  0.3422  0.0799  0.5566
 4002TIP3    H112012   0.128   2.267   1.712  1.6152  0.7795  0.1355
 4002TIP3    H212013   0.099   2.288   1.565  2.2551  0.2568 -0.0685
 4003TIP3   OH212014   4.191   4.201   4.144 -0.4680 -0.1473  0.4225
 4003TIP3    H112015   4.211   4.278   4.197 -0.7796 -0.6133  1.2370
 4003TIP3    H212016   4.181   4.130   4.207 -2.0063 -0.4888 -0.1560
 4004TIP3   OH212017   0.987   4.704   0.439 -0.5349  0.1442 -0.2369
 4004TIP3    H112018   1.043   4.769   0.396  0.6403 -0.7173 -0.0757
 4004TIP3    H212019   0.944   4.658   0.367  0.0853 -0.1330 -0.4443
 4005TIP3   OH212020   5.838   5.153   0.611 -0.0190  0.0300 -0.1682
 4005TIP3    H112021   5.792   5.203   0.543  0.2358  0.2788 -0.1607
 4005TIP3    H212022   5.848   5.215   0.683  3.2459  1.0987 -1.3626
 4006TIP3   OH212023   0.510   5.350   2.145 -0.3645  0.3321  0.3436
 4006TIP3    H112024   0.561   5.430   2.158  1.1808 -0.7479  1.1995
 4006TIP3    H212025   0.476   5.328   2.232 -0.7059 -0.0127  0.1281
 4007TIP3   OH212026   4.803   1.756   2.294  0.1036  0.1033 -1.1677
 4007TIP3    H112027   4.877   1.732   2.349  0.5337 -0.6524 -2.0454
 4007TIP3    H212028   4.796   1.851   2.304  0.0985 -0.0270  0.2479
 4008TIP3   OH212029   3.844   2.284   2.774 -0.1759  0.2459 -0.1040
 4008TIP3    H112030   3.910   2.318   2.835 -0.2176 -0.1619  0.1728
 4008TIP3    H212031   3.760   2.297   2.819 -0.3822  1.5671 -0.8188
 4009TIP3   OH212032   2.222   2.014   1.505  0.1163  0.3001  0.1110
 4009TIP3    H112033   2.236   2.044   1.415  0.4564 -0.1125  0.0223
 4009TIP3    H212034   2.160   1.941   1.496  1.3899 -0.8085  0.0266
 4010TIP3   OH212035   5.323   1.276   1.862 -0.1763 -0.3179  0.3826
 4010TIP3    H112036   5.321   1.344   1.795  1.3415  0.6084  1.2216
 4010TIP3    H212037   5.318   1.194   1.814 -1.9794  0.3420 -0.6583
 4011TIP3   OH212038   3.730   1.029   3.641  0.6642  0.7580  0.4876
 4011TIP3    H112039   3.742   1.013   3.547 -2.1496  1.3009 -0.0541
 4011TIP3    H212040   3.780   0.960   3.684  0.9690 -0.2743 -1.4269
 4012TIP3   OH212041   1.239   4.704   1.883 -0.0257 -0.3237  0.9376
 4012TIP3    H112042   1.268   4.781   1.931 -1.7670  1.0493 -0.1281
 4012TIP3    H212043   1.182   4.657   1.945 -1.0571  0.6483  0.7539
 4013TIP3   OH212044   2.694   0.446   3.646  0.6559 -0.3914  0.3576
 4013TIP3    H112045   2.660   0.532   3.619  0.7892 -0.3780  0.2348
 4013TIP3    H212046   2.688   0.448   3.742 -1.0376 -0.9301  0.2922
 4014TIP3   OH212047   5.077   1.856   0.240 -0.0110  0.3940 -0.2420
 4014TIP3    H112048   5.042   1.935   0.281  0.4338 -0.1315  1.2084
 4014TIP3    H212049   5.167   1.879   0.217  0.3494  0.1224  0.8206
 4015TIP3   OH212050   5.319   5.973   1.874  0.8305  0.1021  0.6040
 4015TIP3    H112051   5.409   6.003   1.860  1.6732 -2.8733 -1.5455
 4015TIP3    H212052   5.327   5.903   1.938  0.2918 -0.9516 -0.4319
 4016TIP3   OH212053   0.776   3.637   2.987 -0.2675  0.1068  0.6346
 4016TIP3    H112054   0.709   3.647   3.054 -0.8435  1.0065 -0.0529
 4016TIP3    H212055   0.848   3.593   3.032 -1.3815 -1.0723  1.3406
 4017TIP3   OH212056   0.974   2.092   4.889  0.1375  0.5613  0.5903
 4017TIP3    H112057   1.036   2.022   4.864 -0.1516  0.9817 -1.5234
 4017TIP3    H212058   0.960   2.079   4.983  0.0572 -2.2694  0.2891
 4018TIP3   OH212059   3.944   1.048   0.052 -0.7871 -0.0005  0.2616
 4018TIP3    H112060   3.995   0.979   0.009  0.3328 -0.3776  2.1152
 4018TIP3    H212061   3.927   1.111  -0.018  1.8177 -0.1032 -0.5955
 4019TIP3   OH212062   6.291   1.492   2.810 -0.0049 -0.2279  0.0161
 4019TIP3    H112063   6.286   1.405   2.772  2.2246  0.6080 -2.4700
 4019TIP3    H212064   6.269   1.551   2.738 -1.6978  1.3168  1.6933
 4020TIP3   OH212065   4.325   3.651   1.234 -0.3999 -0.3400  0.1467
 4020TIP3    H112066   4.236   3.638   1.268 -0.2721  0.8186  1.0053
 4020TIP3    H212067   4.341   3.575   1.178 -1.9771 -0.5067 -0.1316
 4021TIP3   OH212068   0.246   0.639   3.167  0.1296 -0.1106  0.4862
 4021TIP3    H112069   0.212   0.574   3.106 -3.3075  0.0053  1.9995
 4021TIP3    H212070   0.192   0.717   3.152  1.4571  1.0409  1.4052
 4022TIP3   OH212071   3.412   3.936   1.516 -0.7283  0.6298 -0.0127
 4022TIP3    H112072   3.480   3.966   1.576 -0.7360  0.0733  0.2860
 4022TIP3    H212073   3.366   3.868   1.565  1.9702 -3.0426 -2.0434
 4023TIP3   OH212074   4.366   3.001   0.978  0.5486 -0.1514  0.3067
 4023TIP3    H112075   4.365   3.067   0.909 -1.7140 -0.5239 -0.1028
 4023TIP3    H212076   4.284   3.015   1.026 -0.4529 -3.1503 -0.3338
 4024TIP3   OH212077   1.770   3.727   4.627 -0.0456  0.0511 -0.0103
 4024TIP3    H112078   1.684   3.749   4.593  0.7350  1.2623 -1.3131
 4024TIP3    H212079   1.812   3.811   4.645  0.8393 -0.5130  0.6799
 4025TIP3   OH212080   3.108   2.403   4.901  0.3777 -0.1369  0.5945
 4025TIP3    H112081   3.176   2.336   4.911 -0.2498 -1.0087 -0.6482
 4025TIP3    H212082   3.119   2.434   4.811 -0.7834 -0.2276  0.4045
 4026TIP3   OH212083   5.890   2.292   2.955  0.3120 -0.3659 -0.7422
 4026TIP3    H112084   5.849   2.335   3.030  0.5127  0.7448 -1.2560
 4026TIP3    H212085   5.825   2.297   2.886  1.1474  1.1066 -1.4620
 4027TIP3   OH212086   1.545   1.882   0.752 -0.0837  0.2002 -0.4417
 4027TIP3    H112087   1.606   1.950   0.783 -0.4311 -0.4671  1.8969
 4027TIP3    H212088   1.477   1.878   0.819 -0.7076 -1.6560 -1.1165
 4028TIP3   OH212089   0.156   3.721   0.664 -0.0695  0.2228 -0.2914
 4028TIP3    H112090   0.187   3.804   0.628 -0.5403  0.3748 -0.3505
 4028TIP3    H212091   0.166   3.658   0.592 -0.9292  0.5070 -0.6708
 4029TIP3   OH212092   5.433   3.396   3.665 -0.8992  0.3234 -0.0431
 4029TIP3    H112093   5.353   3.444   3.687 -0.2790  1.1262  0.5581
 4029TIP3    H212094   5.479   3.452   3.603 -1.6467 -0.9869 -1.8723
 4030TIP3   OH212095   3.851   0.497   4.198  0.7104 -0.3331  0.1327
 4030TIP3    H112096   3.793   0.563   4.237  0.2348 -0.7397  0.1194
 4030TIP3    H212097   3.843   0.512   4.104  0.4977 -0.4935  0.1239
 4031TIP3   OH212098   4.432   5.789   0.811  0.3301 -0.5514 -0.1747
 4031TIP3    H112099   4.403   5.732   0.740  0.8571 -1.7365  0.5272
 4031TIP3    H212100   4.522   5.813   0.787  0.5358 -1.0140  0.0987
 4032TIP3   OH212101   5.225   1.060   1.738 -0.0870  0.4216 -0.3219
 4032TIP3    H112102   5.268   1.016   1.665 -0.0422 -0.9215  0.4865
 4032TIP3    H212103   5.133   1.035   1.731 -0.3873  1.6026 -0.8362
 4033TIP3   OH212104   3.494   4.347   2.836  0.0751 -0.0292 -0.3083
 4033TIP3    H112105   3.503   4.346   2.931 -2.2911 -0.2592 -0.0230
 4033TIP3    H212106   3.492   4.440   2.813  1.7896  0.0409 -0.3192
 4034TIP3   OH212107   0.503   3.143   1.405 -0.1366 -0.8274  0.1860
 4034TIP3    H112108   0.484   3.231   1.374 -2.2897 -1.3469 -0.1335
 4034TIP3    H212109   0.521   3.154   1.499  1.5742  0.1391 -0.2124
 4035TIP3   OH212110   3.486   2.936   4.460  0.3543  0.2881  0.2164
 4035TIP3    H112111   3.503   2.989   4.537 -0.9462  1.8070 -0.4803
 4035TIP3    H212112   3.429   2.990   4.405  0.4459 -1.1193 -1.3750
 4036TIP3   OH212113   0.674   0.064   1.334  0.1303  0.1862  0.3201
 4036TIP3    H112114   0.685  -0.029   1.312  1.4609 -0.1069  1.9732
 4036TIP3    H212115   0.763   0.100   1.329  0.2037  0.5408  3.0139
 4037TIP3   OH212116   4.752   0.976   1.781 -0.2017 -0.4244  0.1222
 4037TIP3    H112117   4.663   0.939   1.780  0.4262 -2.0204  0.1966
 4037TIP3    H212118   4.756   1.023   1.865 -1.1161  0.0678 -0.0913
 4038TIP3   OH212119   4.771   3.434   3.219 -0.3616 -0.6048 -0.5949
 4038TIP3    H112120   4.764   3.436   3.315 -0.9954  0.0861 -0.6446
 4038TIP3    H212121   4.792   3.524   3.195  2.3306 -1.2583 -0.9619
 4039TIP3   OH212122   4.439   4.464   1.212 -0.1434 -0.6043  0.2828
 4039TIP3    H112123   4.406   4.536   1.266 -0.7323 -0.3498 -0.4025
 4039TIP3    H212124   4.454   4.504   1.126  0.1121 -1.1668  0.0613
 4040TIP3   OH212125   0.738   5.184   0.810  0.0883 -0.4042 -0.0324
 4040TIP3    H112126   0.820   5.143   0.783  0.0148  0.4135 -1.6619
 4040TIP3    H212127   0.713   5.139   0.890  1.4105 -1.6132 -0.2668
 4041TIP3   OH212128   2.710   2.071   0.162  0.3767 -0.2754  0.0520
 4041TIP3    H112129   2.696   2.146   0.104 -1.0927  0.7336  1.6068
 4041TIP3    H212130   2.717   2.109   0.250  0.3594 -1.9006  0.8076
 4042TIP3   OH212131   0.761   0.266   1.642 -0.1703  0.6540 -0.6299
 4042TIP3    H112132   0.760   0.317   1.723  0.1492  0.0466 -0.2342
 4042TIP3    H212133   0.835   0.300   1.592  0.8213 -0.2431  0.1849
 4043TIP3   OH212134   2.810   2.591   3.595  0.1753  0.5339  0.3905
 4043TIP3    H112135   2.829   2.520   3.655 -0.7192  1.2179  1.5258
 4043TIP3    H212136   2.858   2.569   3.515  0.8102 -0.7520  1.1033
 4044TIP3   OH212137   3.874   2.928   3.606 -0.7278 -0.0890  0.0967
 4044TIP3    H112138   3.934   2.943   3.533  0.4705  0.2729  1.1176
 4044TIP3    H212139   3.841   3.015   3.628 -1.0498 -0.1905  0.0134
 4045TIP3   OH212140   0.541   1.419   2.789 -0.0459  0.5647  0.0534
 4045TIP3    H112141   0.574   1.472   2.861 -0.7320  0.9072  0.1230
 4045TIP3    H212142   0.573   1.462   2.710  1.4863 -0.3259  0.1505
 4046TIP3   OH212143   3.584   4.862   4.481 -0.3338 -0.0840  0.3749
 4046TIP3    H112144   3.645   4.848   4.553  1.2823  1.6255 -0.5660
 4046TIP3    H212145   3.622   4.815   4.407  0.5513  1.8695 -0.5095
 4047TIP3   OH212146   4.259   4.096   0.953 -0.0527  0.0198  0.1871
 4047TIP3    H112147   4.344   4.124   0.920 -0.6949  1.5081 -0.3045
 4047TIP3    H212148   4.196   4.130   0.888 -0.9845 -1.6612  0.1532
 4048TIP3   OH212149   4.444   1.332   4.953 -0.3131 -0.1919  0.3107
 4048TIP3    H112150   4.471   1.353   5.042 -1.9174  2.2222  0.3016
 4048TIP3    H212151   4.376   1.265   4.964  0.6228 -1.0946  0.7594
 4049TIP3   OH212152   1.953   4.024   4.237 -0.5917 -0.8514 -0.2187
 4049TIP3    H112153   1.896   3.948   4.244 -0.6759 -0.7448  0.2662
 4049TIP3    H212154   1.978   4.026   4.144 -1.7352 -0.6374 -0.5415
 4050TIP3   OH212155   5.363   1.532   4.601 -0.0209 -0.6646  0.5331
 4050TIP3    H112156   5.311   1.489   4.668 -0.3427 -1.8095 -0.4159
 4050TIP3    H212157   5.438   1.473   4.587 -1.7363 -2.3392 -2.5537
 4051TIP3   OH212158   1.336   3.327   0.447  0.1038  0.3009  0.1433
 4051TIP3    H112159   1.244   3.336   0.470 -0.4200  0.8173 -1.9558
 4051TIP3    H212160   1.383   3.340   0.530 -1.6806  0.1668  1.2188
 4052TIP3   OH212161   2.614   2.744   0.387  0.6290 -0.0894  0.4002
 4052TIP3    H112162   2.597   2.686   0.313  1.2028 -1.3904  1.2566
 4052TIP3    H212163   2.541   2.729   0.447 -0.7855  2.2441 -0.5948
 4053TIP3   OH212164   5.380   1.028   4.291 -0.0055  0.0188 -0.2971
 4053TIP3    H112165   5.391   1.123   4.281  1.0410 -0.1066 -0.5295
 4053TIP3    H212166   5.429   0.991   4.218  2.0952 -0.7627  1.4033
 4054TIP3   OH212167   4.962   1.942   0.583 -0.1295  0.4501  0.0086
 4054TIP3    H112168   4.932   1.993   0.508 -1.7521  1.6466  1.3935
 4054TIP3    H212169   4.970   2.006   0.654 -0.5352 -0.9172  1.3476
 4055TIP3   OH212170   2.792   0.548   3.263  0.2234  0.5156  0.0839
 4055TIP3    H112171   2.787   0.474   3.203 -0.8014  1.5692 -1.1937
 4055TIP3    H212172   2.733   0.613   3.225  1.5547  2.2243  0.8238
 4056TIP3   OH212173   3.067   2.146   3.100  0.5867 -0.5613 -0.0812
 4056TIP3    H112174   3.100   2.184   3.181 -0.8587 -0.1575  0.3511
 4056TIP3    H212175   3.005   2.211   3.066 -0.3147 -1.5682 -0.4501
 4057TIP3   OH212176   6.216   5.527   5.162 -0.1964  0.4875 -0.2992
 4057TIP3    H112177   6.206   5.504   5.069 -1.6668 -1.2301  0.2252
 4057TIP3    H212178   6.133   5.566   5.186  0.9040  2.8950 -0.1535
 4058TIP3   OH212179   2.918   0.026   5.182  0.3861  0.5512  0.4336
 4058TIP3    H112180   2.982   0.069   5.239  0.6798  0.3460  0.2652
 4058TIP3    H212181   2.943   0.053   5.094  1.1616 -0.6867  0.2407
 4059TIP3   OH212182   5.191   2.143   4.254  0.4331  0.7610 -0.6118
 4059TIP3    H112183   5.207   2.235   4.277 -1.4482  1.2383 -1.0343
 4059TIP3    H212184   5.121   2.116   4.312  0.5589 -0.2375 -0.9147
 4060TIP3   OH212185   1.178   4.657   2.693 -0.4666 -0.3681  0.3648
 4060TIP3    H112186   1.149   4.613   2.612  0.6396 -1.9166  0.7661
 4060TIP3    H212187   1.200   4.746   2.665 -1.2339 -0.5191 -0.8069
 4061TIP3   OH212188   4.213   4.606   4.823  0.6093  0.1054 -0.1546
 4061TIP3    H112189   4.229   4.571   4.911 -0.3224 -0.5064 -0.2177
 4061TIP3    H212190   4.119   4.624   4.821  0.3515 -1.1841 -1.4726
 4062TIP3   OH212191   0.650   1.578   0.940  0.0052 -0.1107  0.3294
 4062TIP3    H112192   0.650   1.674   0.937  2.0898 -0.0709 -2.6762
 4062TIP3    H212193   0.560   1.555   0.961 -1.4205  2.5309 -2.1739
 4063TIP3   OH212194   1.098   2.903   4.598 -0.5971 -0.6512 -0.0438
 4063TIP3    H112195   1.143   2.885   4.680  1.2246  0.5338 -0.7257
 4063TIP3    H212196   1.055   2.820   4.575 -0.7297 -1.1343  1.8229
 4064TIP3   OH212197   5.030   2.077   2.090  0.5841 -0.0992 -0.4851
 4064TIP3    H112198   4.949   2.036   2.060  0.1839  0.9892 -0.9734
 4064TIP3    H212199   5.091   2.005   2.103 -0.6327 -0.9963  0.4338
 4065TIP3   OH212200   2.148   2.410   3.423  1.3805  0.1331 -0.0936
 4065TIP3    H112201   2.064   2.423   3.377  1.4122 -1.1755 -0.5520
 4065TIP3    H212202   2.209   2.384   3.354  1.8925 -0.0376  0.4218
 4066TIP3   OH212203   0.324   5.593   0.684 -0.0449 -0.3712 -0.1181
 4066TIP3    H112204   0.378   5.514   0.682  1.6984  0.6716  1.6130
 4066TIP3    H212205   0.365   5.651   0.620 -1.0353 -0.6599 -1.0421
 4067TIP3   OH212206   0.799   2.164   0.162 -0.2689  0.0676 -0.1169
 4067TIP3    H112207   0.731   2.097   0.171 -0.4535  0.4259  1.4683
 4067TIP3    H212208   0.756   2.245   0.186  0.0021  0.7717 -1.8499
 4068TIP3   OH212209   3.559   3.779   2.727 -0.5399 -0.2658  0.0563
 4068TIP3    H112210   3.572   3.868   2.695  0.9940  0.1231  1.5846
 4068TIP3    H212211   3.545   3.726   2.649  2.0529  0.7560 -1.2103
 4069TIP3   OH212212   0.792   2.594   0.760  0.1953  0.4542  0.3662
 4069TIP3    H112213   0.711   2.550   0.785 -0.0574  0.5925 -0.1875
 4069TIP3    H212214   0.832   2.619   0.843 -1.9703  3.3788  0.7195
 4070TIP3   OH212215   2.597   3.361   1.123 -0.2040  0.1630  0.0557
 4070TIP3    H112216   2.643   3.291   1.077 -0.3298 -0.0848  0.2985
 4070TIP3    H212217   2.505   3.334   1.120 -0.1907  0.0519  0.6066
 4071TIP3   OH212218   4.193   3.570   4.335 -0.8532  0.2506  0.0143
 4071TIP3    H112219   4.257   3.566   4.406 -0.5770  1.2844 -0.1630
 4071TIP3    H212220   4.109   3.578   4.380 -0.5308  3.2950  0.3020
 4072TIP3   OH212221   1.391   3.832   4.956  0.2875 -0.3289  0.5178
 4072TIP3    H112222   1.358   3.757   5.005  0.6014 -0.7186  0.1361
 4072TIP3    H212223   1.443   3.881   5.020  4.0606 -2.9069 -0.2341
 4073TIP3   OH212224   3.471   3.493   3.164  0.2801 -0.6299 -0.5521
 4073TIP3    H112225   3.495   3.571   3.115  2.5282 -1.0913 -0.2972
 4073TIP3    H212226   3.541   3.482   3.229 -0.7700 -2.0047  0.4295
 4074TIP3   OH212227   2.713   1.046   0.531  0.2326 -0.0377 -0.0367
 4074TIP3    H112228   2.729   0.970   0.587 -0.2978 -1.2371 -1.4780
 4074TIP3    H212229   2.649   1.017   0.467  0.8854  1.2797 -1.3499
 4075TIP3   OH212230   1.343   2.899   3.417 -0.1837  0.4916 -0.2775
 4075TIP3    H112231   1.262   2.911   3.369 -0.7578 -1.3962  0.1307
 4075TIP3    H212232   1.392   2.835   3.365  0.4313  0.5832  0.1822
 4076TIP3   OH212233   6.098   5.660   3.367 -0.4195  0.4282  0.1414
 4076TIP3    H112234   6.063   5.620   3.446 -1.5578  1.0564 -0.0166
 4076TIP3    H212235   6.048   5.621   3.296  1.3848 -0.9941 -0.4085
 4077TIP3   OH212236   0.130   0.355   4.633 -0.0612  0.0966  0.0354
 4077TIP3    H112237   0.219   0.341   4.664  0.1747 -0.2349 -0.7732
 4077TIP3    H212238   0.075   0.337   4.709  0.6781  3.3260  1.5230
 4078TIP3   OH212239   4.126   5.728   2.191 -0.1472 -0.3834 -0.1946
 4078TIP3    H112240   4.147   5.822   2.189 -1.8188  0.0149 -1.6621
 4078TIP3    H212241   4.135   5.700   2.100 -1.3273 -1.2235 -0.0737
 4079TIP3   OH212242   0.982   2.131   3.078 -0.3622 -0.0661 -0.4007
 4079TIP3    H112243   1.021   2.198   3.133  0.1074 -0.8930  0.3084
 4079TIP3    H212244   0.939   2.072   3.140  0.3223 -1.1077 -0.8901
 4080TIP3   OH212245   0.911   2.966   0.581  0.2997 -0.6307 -0.0090
 4080TIP3    H112246   0.894   3.026   0.508  1.4090 -0.5248 -0.1869
 4080TIP3    H212247   0.823   2.941   0.612 -0.2035  1.0664  0.0596
 4081TIP3   OH212248   5.326   1.957   2.906 -0.5423  0.2817 -0.1533
 4081TIP3    H112249   5.326   2.039   2.856 -1.5019  0.5034  0.1778
 4081TIP3    H212250   5.240   1.919   2.889  0.0186 -0.8394 -0.5692
 4082TIP3   OH212251   5.119   5.899   2.974  0.4334 -0.5419  0.1665
 4082TIP3    H112252   5.116   5.991   2.949  1.8109 -0.0658  1.6107
 4082TIP3    H212253   5.031   5.866   2.955 -0.1791  1.1381 -0.0525
 4083TIP3   OH212254   3.714   4.599   0.050 -0.1353 -0.4253 -0.1180
 4083TIP3    H112255   3.653   4.662   0.011 -0.4631 -1.1101 -0.7226
 4083TIP3    H212256   3.674   4.577   0.135 -2.1385 -2.8170 -1.5471
 4084TIP3   OH212257   5.045   4.960   2.559  0.1404 -0.4281 -0.1386
 4084TIP3    H112258   5.061   5.048   2.591  0.5549 -0.8111  0.7333
 4084TIP3    H212259   5.071   4.903   2.631 -1.6413 -1.2139 -0.0586
 4085TIP3   OH212260   4.704   4.945   2.373  0.9208  0.3060  0.0740
 4085TIP3    H112261   4.790   4.964   2.334  1.0665  1.8633  1.0668
 4085TIP3    H212262   4.707   4.851   2.392  0.9923 -0.4722 -3.1885
 4086TIP3   OH212263   0.143   0.428   5.063 -0.8366  0.3571 -0.2082
 4086TIP3    H112264   0.195   0.409   5.142 -0.9428 -1.4005 -0.5197
 4086TIP3    H212265   0.190   0.499   5.020 -1.3387  2.0798  1.9369
 4087TIP3   OH212266   0.959   2.283   2.379  0.4680  0.6006  0.4804
 4087TIP3    H112267   0.982   2.205   2.430  1.0615 -0.0069 -0.6713
 4087TIP3    H212268   0.982   2.356   2.436 -0.7131 -0.0468  1.8488
 4088TIP3   OH212269   4.019   0.480   2.449 -0.1102  0.4757 -0.2336
 4088TIP3    H112270   4.063   0.528   2.380 -0.1070  2.0402  0.8039
 4088TIP3    H212271   3.926   0.487   2.427 -0.0676  0.4158 -0.4301
 4089TIP3   OH212272   3.738   0.963   0.171  0.7835  0.4350  0.3358
 4089TIP3    H112273   3.828   0.968   0.140  1.0237 -0.3378  0.8779
 4089TIP3    H212274   3.702   0.884   0.130 -0.4145  1.9693 -1.7573
 4090TIP3   OH212275   1.924   5.287   4.840 -0.1467 -0.2928 -0.2292
 4090TIP3    H112276   1.942   5.318   4.929  0.8802  0.0871 -0.5551
 4090TIP3    H212277   2.004   5.308   4.791 -1.5708  1.7601 -1.8624
 4091TIP3   OH212278   5.044   2.250   2.493  0.4076 -0.3351 -0.0295
 4091TIP3    H112279   5.041   2.157   2.515  0.6256 -0.0334  1.4042
 4091TIP3    H212280   4.955   2.272   2.466  0.0298 -0.7058  0.8536
 4092TIP3   OH212281   5.184   3.557   1.699  0.3033 -0.6170 -0.5479
 4092TIP3    H112282   5.200   3.491   1.766 -0.5906 -0.3532 -0.0615
 4092TIP3    H212283   5.255   3.544   1.636  0.1271 -2.0751 -0.4880
 4093TIP3   OH212284   5.955   5.613   2.301  0.3774  0.1979  0.1583
 4093TIP3    H112285   5.925   5.530   2.338 -0.4396 -0.1118 -1.1410
 4093TIP3    H212286   5.877   5.668   2.299  0.8412  0.8965  0.6795
 4094TIP3   OH212287   6.385   4.123   4.355 -0.9984 -0.0280  0.2717
 4094TIP3    H112288   6.317   4.057   4.367 -0.3541 -1.0431 -1.3711
 4094TIP3    H212289   6.369   4.187   4.425 -1.6975 -1.8487  1.8524
 4095TIP3   OH212290   2.332   2.373   4.984 -0.0123 -0.4449  0.6565
 4095TIP3    H112291   2.386   2.308   4.938  0.6568 -0.8579  1.9814
 4095TIP3    H212292   2.242   2.342   4.972  0.3052 -1.7128  1.3797
 4096TIP3   OH212293   5.752   0.239   2.131 -0.3550 -0.3246  0.2864
 4096TIP3    H112294   5.735   0.308   2.067 -0.4091  0.5078  1.1786
 4096TIP3    H212295   5.670   0.231   2.181  0.0126 -0.2299  0.9226
 4097TIP3   OH212296   0.889   0.592   2.690  0.0014 -0.2300 -0.6316
 4097TIP3    H112297   0.827   0.657   2.656  0.6594  0.8582  0.1843
 4097TIP3    H212298   0.974   0.620   2.655  0.0184 -2.0266 -2.1983
 4098TIP3   OH212299   4.351   1.064   3.710 -0.0331 -0.4676  0.7511
 4098TIP3    H112300   4.320   1.152   3.734  0.2597 -1.1453  4.0848
 4098TIP3    H212301   4.438   1.058   3.750  0.1841 -2.1100  0.0994
 4099TIP3   OH212302   1.557   3.203   2.029  0.5987 -0.4462  0.4917
 4099TIP3    H112303   1.591   3.138   1.968 -0.2138 -0.9807  0.5905
 4099TIP3    H212304   1.635   3.242   2.068  1.1122 -1.4421  0.5043
 4100TIP3   OH212305   5.506   5.746   0.831 -0.0970 -0.4084 -0.0811
 4100TIP3    H112306   5.429   5.755   0.774  0.0898 -1.4040 -0.5026
 4100TIP3    H212307   5.521   5.835   0.864 -2.0930 -0.3789  0.9012
 4101TIP3   OH212308   5.504   4.943   0.509  0.3176  0.2651  0.2666
 4101TIP3    H112309   5.489   5.021   0.562  0.8953  0.3728  0.2827
 4101TIP3    H212310   5.570   4.894   0.557 -0.9055 -0.8340  0.8646
 4102TIP3   OH212311   5.651   0.161   1.326  0.7089  0.1612 -0.3144
 4102TIP3    H112312   5.650   0.255   1.343  0.3340 -0.0724  1.0813
 4102TIP3    H212313   5.740   0.143   1.295  1.0878  0.8347  0.3512
 4103TIP3   OH212314   1.351   3.730   1.956  0.1957  0.2528 -0.3887
 4103TIP3    H112315   1.404   3.781   2.017  3.5878  1.7278 -4.1051
 4103TIP3    H212316   1.358   3.640   1.988  2.6113  0.8102  0.9083
 4104TIP3   OH212317   3.786   1.426   3.075 -0.2080  0.5003 -0.2140
 4104TIP3    H112318   3.829   1.372   3.009 -0.7191  0.6138 -0.6409
 4104TIP3    H212319   3.858   1.455   3.132  0.1131 -0.3780 -0.1493
 4105TIP3   OH212320   3.478   3.034   4.705  0.1291  0.1788  0.0201
 4105TIP3    H112321   3.498   3.008   4.795 -0.4547 -0.6194 -0.0683
 4105TIP3    H212322   3.411   3.102   4.713 -1.3604 -1.2318  0.1687
 4106TIP3   OH212323   4.369   5.233   0.592  0.1072  0.0337 -0.1879
 4106TIP3    H112324   4.446   5.290   0.588  0.0512  0.0347 -2.0751
 4106TIP3    H212325   4.405   5.145   0.605  0.3161  0.2206  0.5578
 4107TIP3   OH212326   1.939   3.161   2.374 -0.5656  0.0161  0.3663
 4107TIP3    H112327   1.988   3.086   2.409 -1.5026 -0.7399  0.0878
 4107TIP3    H212328   1.875   3.123   2.314 -1.8720  0.9141  1.1267
 4108TIP3   OH212329   3.038   0.009   2.357 -1.0308  0.0814 -0.2592
 4108TIP3    H112330   2.944  -0.003   2.368 -1.0017 -1.4738 -1.3308
 4108TIP3    H212331   3.051   0.104   2.354 -2.9579  0.3566 -3.0182
 4109TIP3   OH212332   0.424   4.257   2.211  0.5842 -0.1588  0.3243
 4109TIP3    H112333   0.360   4.191   2.184 -0.3103  0.5146  0.7633
 4109TIP3    H212334   0.372   4.326   2.253  1.4680  0.9350 -0.3108
 4110TIP3   OH212335   2.149   5.748   4.757  0.4169 -0.3934  1.0104
 4110TIP3    H112336   2.135   5.673   4.815  0.5342 -0.9192  0.3815
 4110TIP3    H212337   2.233   5.731   4.716 -0.9281 -1.6013 -1.5200
 4111TIP3   OH212338   5.917   5.059   3.938 -0.2258  0.7853  0.4159
 4111TIP3    H112339   5.909   4.973   3.898  2.8823 -0.0723  1.3898
 4111TIP3    H212340   5.985   5.103   3.887 -0.8335  2.1684  0.7590
 4112TIP3   OH212341   3.101   4.359   2.805 -0.3101  0.3701  0.4991
 4112TIP3    H112342   3.005   4.357   2.807 -0.3799 -0.1396 -1.3219
 4112TIP3    H212343   3.122   4.401   2.721  1.0130 -1.2574 -0.0436
 4113TIP3   OH212344   2.499   5.412   4.281 -0.3103 -0.2413  0.2425
 4113TIP3    H112345   2.579   5.373   4.245  0.0389 -0.3029  1.0536
 4113TIP3    H212346   2.523   5.438   4.370 -0.7708  1.1069  0.0037
 4114TIP3   OH212347   4.236   2.254   3.176 -0.2776  0.4488  0.3549
 4114TIP3    H112348   4.330   2.237   3.175  0.0353  2.0323 -0.3221
 4114TIP3    H212349   4.221   2.302   3.257 -0.3838  0.7634  0.1511
 4115TIP3   OH212350   0.756   4.231   3.981 -0.3239 -0.6035 -0.0122
 4115TIP3    H112351   0.686   4.282   4.022  0.0609 -0.7345  0.8300
 4115TIP3    H212352   0.742   4.243   3.887 -0.8724  0.1917  0.1560
 4116TIP3   OH212353   5.644   0.081   4.284  0.8835 -0.1128 -0.8190
 4116TIP3    H112354   5.668   0.123   4.201 -0.2365  1.8289 -0.2412
 4116TIP3    H212355   5.568   0.028   4.262 -0.5117  1.7762 -0.7648
 4117TIP3   OH212356   1.719   4.944   3.285  0.0099  0.1668  0.4572
 4117TIP3    H112357   1.764   4.943   3.369 -0.1138 -0.5479  0.5153
 4117TIP3    H212358   1.739   5.030   3.248 -1.2077  1.1317  1.9127
 4118TIP3   OH212359   2.716   2.668   5.040  0.3349 -0.4391 -0.6769
 4118TIP3    H112360   2.722   2.723   5.118  1.4208 -0.9001 -0.4222
 4118TIP3    H212361   2.622   2.652   5.029  0.2310 -1.6102  1.4294
 4119TIP3   OH212362   2.513   2.720   4.772  0.4266 -0.1165 -0.0970
 4119TIP3    H112363   2.511   2.626   4.788  0.2847  0.0618  1.0264
 4119TIP3    H212364   2.425   2.750   4.795  0.3204  0.2340 -0.9053
 4120TIP3   OH212365   0.644   1.562   0.157 -0.0275  0.4619  0.2494
 4120TIP3    H112366   0.732   1.583   0.187  0.6525  0.5226 -1.6300
 4120TIP3    H212367   0.642   1.466   0.153 -0.1956  0.4460  0.6935
 4121TIP3   OH212368   0.928   5.182   2.240 -0.5296  0.0658 -0.2903
 4121TIP3    H112369   0.918   5.252   2.305  1.5927  0.4924 -0.3292
 4121TIP3    H212370   0.929   5.227   2.156 -0.7936 -0.2084 -0.4412
 4122TIP3   OH212371   3.334   0.312   5.148 -0.4851 -0.6408  0.0800
 4122TIP3    H112372   3.367   0.330   5.060  0.5940 -0.6193  0.4618
 4122TIP3    H212373   3.285   0.390   5.172 -0.9680 -0.7345 -0.5769
 4123TIP3   OH212374   4.640   4.391   0.228  0.5928 -0.2050 -0.0738
 4123TIP3    H112375   4.615   4.483   0.220  1.4958 -0.0766 -1.9033
 4123TIP3    H212376   4.684   4.385   0.314 -0.0866  0.8983  0.3690
 4124TIP3   OH212377   1.609   5.814   0.057 -0.3974  0.3327  0.3620
 4124TIP3    H112378   1.699   5.796   0.083 -0.7434  0.1862  1.5360
 4124TIP3    H212379   1.593   5.756  -0.017 -0.0157 -0.7987  1.1446
 4125TIP3   OH212380   1.671   4.950   2.862 -0.0246 -0.4523  0.2157
 4125TIP3    H112381   1.594   5.000   2.834 -0.6052 -1.4385  0.0173
 4125TIP3    H212382   1.719   5.011   2.918 -0.0136  0.7915 -1.0701
 4126TIP3   OH212383   4.951   4.389   0.061  0.0057  0.2565  0.5322
 4126TIP3    H112384   4.890   4.432   0.001  1.4315  0.7198 -0.6428
 4126TIP3    H212385   4.949   4.297   0.036  0.5311  0.4350 -0.1966
 4127TIP3   OH212386   4.429   1.094   1.551 -0.4797  0.0095 -0.7724
 4127TIP3    H112387   4.360   1.031   1.571  2.1704 -2.8368  0.1994
 4127TIP3    H212388   4.454   1.130   1.635 -0.3596  0.5493 -1.0370
 4128TIP3   OH212389   5.831   1.702   4.003 -0.0447  0.1242  0.3626
 4128TIP3    H112390   5.893   1.764   3.966 -0.1700  0.1792  0.2422
 4128TIP3    H212391   5.767   1.688   3.933  0.9352 -1.4763 -0.2667
 4129TIP3   OH212392   2.282   1.115   2.996 -0.2348  0.6820 -0.1970
 4129TIP3    H112393   2.283   1.182   2.928 -0.4877  0.5623 -0.3212
 4129TIP3    H212394   2.232   1.154   3.068 -1.6880  0.0946 -0.8361
 4130TIP3   OH212395   3.626   0.066   0.054  0.0135 -0.3087 -0.2851
 4130TIP3    H112396   3.657  -0.024   0.063 -1.3701 -0.7327  0.5964
 4130TIP3    H212397   3.551   0.071   0.113  1.1716  1.9588  1.1546
 4131TIP3   OH212398   5.118   5.480   2.018 -0.3256  0.3264 -0.5066
 4131TIP3    H112399   5.050   5.414   2.034  1.6717 -2.1959 -1.6210
 4131TIP3    H212400   5.089   5.525   1.939 -1.5744  0.5904  0.0847
 4132TIP3   OH212401   5.754   2.273   1.351 -0.3888  0.0140  0.0509
 4132TIP3    H112402   5.837   2.273   1.398  1.3378  1.0504 -2.7694
 4132TIP3    H212403   5.725   2.182   1.353  1.4058 -0.5896  0.1673
 4133TIP3   OH212404   3.097   0.322   3.522 -0.5513  0.3188 -0.2968
 4133TIP3    H112405   3.175   0.377   3.512 -0.9256  0.7441 -0.9524
 4133TIP3    H212406   3.024   0.384   3.522 -0.7908  0.3332  3.6120
 4134TIP3   OH212407   1.774   3.327   0.148 -0.7497  0.4672  0.0196
 4134TIP3    H112408   1.844   3.314   0.084 -1.1238  0.2890 -0.3603
 4134TIP3    H212409   1.695   3.335   0.095 -0.9931  0.8593  0.4348
 4135TIP3   OH212410   3.143   3.485   3.373  0.4694  0.0811 -0.3597
 4135TIP3    H112411   3.091   3.448   3.444 -0.5859  1.9907 -0.0505
 4135TIP3    H212412   3.169   3.410   3.320  1.0365 -1.3914  1.8491
 4136TIP3   OH212413   4.770   5.690   4.167 -0.0065  0.2968  0.4733
 4136TIP3    H112414   4.773   5.745   4.089 -0.0646  0.4279  0.5639
 4136TIP3    H212415   4.825   5.736   4.231  0.1049  0.1491  0.4833
 4137TIP3   OH212416   2.582   4.686   1.562 -0.4321  0.7497 -0.0119
 4137TIP3    H112417   2.667   4.643   1.561 -0.1553  1.1830  1.5909
 4137TIP3    H212418   2.588   4.754   1.495 -0.2838 -0.5779 -1.3701
 4138TIP3   OH212419   1.902   3.027   3.163 -0.9216  0.0805  0.4862
 4138TIP3    H112420   1.934   2.989   3.244  0.1169 -0.2379 -0.0568
 4138TIP3    H212421   1.962   3.099   3.145 -0.4017 -0.5973 -0.6076
 4139TIP3   OH212422   5.063   0.144   0.283 -0.2374  0.0525 -0.0104
 4139TIP3    H112423   5.085   0.220   0.336  0.0791 -0.1083  0.0923
 4139TIP3    H212424   5.104   0.160   0.198  0.1471 -0.1731  0.1298
 4140TIP3   OH212425   0.490   4.870   1.721 -0.2519  0.2920 -0.3956
 4140TIP3    H112426   0.522   4.929   1.789  2.2008  1.0511 -2.0960
 4140TIP3    H212427   0.546   4.886   1.645 -1.6964 -1.8037 -2.0559
 4141TIP3   OH212428   1.438   0.290   3.018  0.6070  0.2714 -0.0212
 4141TIP3    H112429   1.407   0.374   3.051 -3.5519 -1.5216  1.2391
 4141TIP3    H212430   1.451   0.304   2.924 -2.5080  1.7880 -0.3415
 4142TIP3   OH212431   4.778   3.140   2.288  0.4093  1.1059 -0.1476
 4142TIP3    H112432   4.854   3.162   2.235 -0.8006  2.5583 -1.3372
 4142TIP3    H212433   4.718   3.213   2.278 -0.4558  0.8300  2.1762
 4143TIP3   OH212434   0.964   4.411   2.097 -0.2759 -0.2100  0.0677
 4143TIP3    H112435   0.967   4.327   2.142  3.0724 -0.7420 -0.8297
 4143TIP3    H212436   0.956   4.389   2.005  2.3061  0.1966 -0.3542
 4144TIP3   OH212437   4.663   5.039   1.905 -0.1086  0.4373 -0.4578
 4144TIP3    H112438   4.694   4.953   1.933 -0.4537  0.4464 -0.0477
 4144TIP3    H212439   4.569   5.037   1.919 -0.4565  0.1002 -2.5187
 4145TIP3   OH212440   3.456   3.218   3.125 -0.1223 -0.4448 -0.2180
 4145TIP3    H112441   3.381   3.206   3.067 -0.7275 -0.8540  0.6300
 4145TIP3    H212442   3.446   3.307   3.158 -0.3665 -0.5846  0.0827
 4146TIP3   OH212443   4.864   1.774   1.002  0.5084 -0.0769  0.6032
 4146TIP3    H112444   4.822   1.690   1.020 -1.5263  0.7399  0.0292
 4146TIP3    H212445   4.829   1.833   1.070 -0.8341  1.0759 -1.0113
 4147TIP3   OH212446   5.243   1.852   0.531 -0.3179 -0.0425  0.0922
 4147TIP3    H112447   5.231   1.758   0.515 -0.2529 -0.3183  1.5226
 4147TIP3    H212448   5.158   1.891   0.510 -0.2739 -0.3669 -0.7475
 4148TIP3   OH212449   0.988   5.073   3.366 -0.8075 -0.1243 -0.1914
 4148TIP3    H112450   1.027   5.107   3.286 -0.6556  1.0660  0.3656
 4148TIP3    H212451   1.055   5.090   3.433 -1.7671  0.8231  0.5568
 4149TIP3   OH212452   5.960   5.564   4.670  0.7214 -0.2332  0.0095
 4149TIP3    H112453   5.938   5.654   4.694 -0.8420 -0.7438  0.6003
 4149TIP3    H212454   5.887   5.535   4.615  0.3068 -1.6999  1.2679
 4150TIP3   OH212455   1.330   1.228   0.594 -0.3096 -0.4307  0.4849
 4150TIP3    H112456   1.419   1.259   0.610 -1.0711  1.4995  1.2803
 4150TIP3    H212457   1.287   1.234   0.679 -1.6806  0.3715 -0.2359
 4151TIP3   OH212458   2.976   3.363   3.547  0.4416  0.0424 -0.4516
 4151TIP3    H112459   3.049   3.302   3.559 -0.0259 -0.6579 -1.0344
 4151TIP3    H212460   2.959   3.397   3.634  0.6491 -0.7571 -0.0833
 4152TIP3   OH212461   3.878   4.245   1.045 -0.1060  0.2760  0.6896
 4152TIP3    H112462   3.948   4.250   0.980  0.2258  0.8366  1.0767
 4152TIP3    H212463   3.924   4.230   1.128 -0.5804 -1.3131  0.6946
 4153TIP3   OH212464   4.429   1.663   4.705  0.8587 -0.3192 -0.6889
 4153TIP3    H112465   4.464   1.689   4.619  0.7629  1.1876 -0.2856
 4153TIP3    H212466   4.384   1.740   4.737  0.5154 -1.0139  0.5498
 4154TIP3   OH212467   3.453   4.624   2.797 -0.4631  0.4944  0.6081
 4154TIP3    H112468   3.379   4.587   2.844  0.6718 -1.2957  1.0873
 4154TIP3    H212469   3.476   4.703   2.846 -2.9202  1.9658 -0.4180
 4155TIP3   OH212470   3.304   2.377   2.127  0.2152 -1.1105 -0.2530
 4155TIP3    H112471   3.302   2.415   2.215 -0.5343  0.4458 -0.8987
 4155TIP3    H212472   3.347   2.444   2.074  1.0085 -2.2034 -1.0058
 4156TIP3   OH212473   1.090   1.437   1.390  0.2084 -0.5766  0.0272
 4156TIP3    H112474   1.157   1.411   1.453  0.2484 -1.0479 -0.2031
 4156TIP3    H212475   1.012   1.388   1.416 -0.4551  0.9807  1.1164
 4157TIP3   OH212476   3.992   5.231   1.074  0.2726 -0.7014  0.1458
 4157TIP3    H112477   3.964   5.260   0.986  1.6616 -1.0622 -0.4360
 4157TIP3    H212478   3.913   5.192   1.112 -0.6593  0.4684 -0.4871
 4158TIP3   OH212479   5.178   4.680   2.513 -0.4031  0.3464 -0.0214
 4158TIP3    H112480   5.212   4.623   2.444 -1.1397 -0.2310  0.0898
 4158TIP3    H212481   5.139   4.754   2.467 -2.1429 -0.7123 -0.3000
 4159TIP3   OH212482   0.672   3.990   3.617  0.1177  0.0699 -0.9338
 4159TIP3    H112483   0.578   3.977   3.621  0.3519 -1.6775  0.7293
 4159TIP3    H212484   0.697   3.968   3.528 -1.1124  1.5119 -1.6808
 4160TIP3   OH212485   0.185   5.021   5.192  0.7576  0.2890  0.4626
 4160TIP3    H112486   0.117   5.084   5.217 -0.8297 -1.4622  0.7604
 4160TIP3    H212487   0.148   4.974   5.118  1.8564 -0.3870  0.3238
 4161TIP3   OH212488   3.517   0.103   0.328 -0.6955  0.4035 -0.9472
 4161TIP3    H112489   3.498   0.171   0.392  0.2329  0.9785 -1.2638
 4161TIP3    H212490   3.608   0.118   0.303 -0.4698 -0.9702 -1.0208
 4162TIP3   OH212491   1.371   3.315   4.283 -0.2383  0.3446  0.4357
 4162TIP3    H112492   1.428   3.364   4.224  0.3070 -1.4584 -0.6228
 4162TIP3    H212493   1.402   3.336   4.371  2.8372 -1.3498 -0.1197
 4163TIP3   OH212494   4.203   4.864   3.125 -0.1393 -0.3980 -0.1973
 4163TIP3    H112495   4.292   4.890   3.102 -0.1185 -1.4828 -1.4645
 4163TIP3    H212496   4.149   4.937   3.094  0.2347 -0.1179 -0.2015
 4164TIP3   OH212497   0.865   5.298   3.510 -0.4104  0.1373  0.3151
 4164TIP3    H112498   0.871   5.233   3.579  0.7189 -1.1921 -0.9759
 4164TIP3    H212499   0.878   5.249   3.429 -2.8105  1.4519 -0.9797
 4165TIP3   OH212500   2.554   2.628   1.863 -0.0757  0.4319  0.5563
 4165TIP3    H112501   2.541   2.677   1.944 -1.4874  1.7325 -0.3867
 4165TIP3    H212502   2.576   2.695   1.798 -0.2097 -0.4127 -0.3929
 4166TIP3   OH212503   1.876   2.132   3.393  0.3024  0.0086 -0.2627
 4166TIP3    H112504   1.880   2.217   3.349  0.4103 -0.3813 -1.0236
 4166TIP3    H212505   1.783   2.118   3.409  0.3828  0.9425  1.2400
 4167TIP3   OH212506   3.185   5.479   3.892 -0.1163 -0.0606  0.1456
 4167TIP3    H112507   3.146   5.556   3.851  0.6851  0.6902  0.7628
 4167TIP3    H212508   3.252   5.514   3.951  0.6675 -1.2537  0.0025
 4168TIP3   OH212509   1.065   2.085   2.549  0.5696 -0.0894  0.0376
 4168TIP3    H112510   1.116   2.066   2.628 -0.1180 -0.3031  0.4430
 4168TIP3    H212511   1.053   2.000   2.507  0.0295 -0.1304  0.2699
 4169TIP3   OH212512   1.143   1.529   0.905  0.3760  0.1049  0.4184
 4169TIP3    H112513   1.123   1.438   0.928  0.0317 -0.0178 -0.3197
 4169TIP3    H212514   1.080   1.550   0.835 -0.3151  1.2830  1.3626
 4170TIP3   OH212515   4.826   5.228   5.134  0.1629 -0.0838 -0.1903
 4170TIP3    H112516   4.747   5.269   5.098  0.6403  0.8275 -0.2251
 4170TIP3    H212517   4.872   5.196   5.057  0.7614  1.1053 -0.3561
 4171TIP3   OH212518   5.418   1.140   2.930 -0.1963 -0.0688 -0.1978
 4171TIP3    H112519   5.324   1.151   2.919 -0.2635  0.4968  0.7558
 4171TIP3    H212520   5.430   1.047   2.946 -0.9260  0.1728  2.2129
 4172TIP3   OH212521   1.107   0.125   2.687  0.2541 -0.5265 -0.4228
 4172TIP3    H112522   1.040   0.121   2.619 -0.7101  0.1896  0.4514
 4172TIP3    H212523   1.118   0.034   2.715 -0.5336 -0.6265 -0.4102
 4173TIP3   OH212524   2.215   4.107   5.163  0.1247 -0.0680  0.4273
 4173TIP3    H112525   2.183   4.066   5.083  2.4354 -2.1201  0.4448
 4173TIP3    H212526   2.310   4.096   5.161  0.3412  0.4226  3.1196
 4174TIP3   OH212527   2.694   4.202   0.262 -0.5048  0.1318  0.1311
 4174TIP3    H112528   2.689   4.116   0.303  0.1920  0.7407  1.5571
 4174TIP3    H212529   2.614   4.247   0.289 -0.4541  0.2336  0.1125
 4175TIP3   OH212530   1.808   2.807   4.598  0.0394 -0.2808  0.3650
 4175TIP3    H112531   1.830   2.715   4.607  2.0358 -0.0490 -1.3773
 4175TIP3    H212532   1.841   2.832   4.511  0.4905  2.3144  1.1887
 4176TIP3   OH212533   4.980   3.678   0.996  0.4404 -0.5171  0.1127
 4176TIP3    H112534   5.071   3.694   0.970  0.1439  1.0605 -0.0440
 4176TIP3    H212535   4.984   3.665   1.091  0.6525  1.3909  0.4063
 4177TIP3   OH212536   1.746   0.659   5.053 -0.2365  0.4163  0.2829
 4177TIP3    H112537   1.743   0.583   5.111 -0.6946 -0.4215 -0.7997
 4177TIP3    H212538   1.729   0.733   5.111 -3.0735 -0.5803  0.9259
 4178TIP3   OH212539   1.493   4.575   4.035 -0.1214  0.0797 -0.1224
 4178TIP3    H112540   1.413   4.596   3.987  0.1987 -0.0410 -0.7149
 4178TIP3    H212541   1.547   4.653   4.028 -0.8860  0.8237  1.7754
 4179TIP3   OH212542   0.562   4.861   1.221 -0.2101 -0.0325 -0.4220
 4179TIP3    H112543   0.583   4.767   1.226 -0.7241 -0.1897 -1.1545
 4179TIP3    H212544   0.618   4.895   1.151  0.7476  0.4356  0.5443
 4180TIP3   OH212545   0.094   5.431   2.421 -0.1557 -0.8964 -0.2517
 4180TIP3    H112546   0.126   5.344   2.442  3.4398  0.2838 -0.1050
 4180TIP3    H212547   0.101   5.480   2.503  0.5671  0.2183 -0.9443
 4181TIP3   OH212548   1.001   0.496   0.890  0.5581  0.1535 -0.4777
 4181TIP3    H112549   0.989   0.421   0.832 -0.4587 -0.2690  0.2609
 4181TIP3    H212550   1.028   0.567   0.831  2.0955 -0.9009 -1.1039
 4182TIP3   OH212551   0.621   3.286   2.977  0.0257  0.3069 -0.6684
 4182TIP3    H112552   0.683   3.266   3.047 -1.2164 -0.1857  0.3199
 4182TIP3    H212553   0.549   3.225   2.990 -0.6516  0.8297 -1.8220
 4183TIP3   OH212554   3.607   4.438   4.740  0.1560  0.8443  0.4413
 4183TIP3    H112555   3.536   4.374   4.745  0.4908  0.1154 -2.2710
 4183TIP3    H212556   3.587   4.502   4.809 -2.8257  0.3715  0.1678
 4184TIP3   OH212557   3.945   2.699   4.544  0.0708  1.0783  0.1141
 4184TIP3    H112558   4.010   2.739   4.601  1.7904 -1.4071  0.0520
 4184TIP3    H212559   3.938   2.758   4.469  0.5661  2.4990  1.1548
 4185TIP3   OH212560   2.782   1.718   4.772 -0.3560 -0.0239  0.1337
 4185TIP3    H112561   2.722   1.684   4.839 -1.4589 -1.3612 -1.4634
 4185TIP3    H212562   2.860   1.743   4.822 -1.5540  0.1434  2.0608
 4186TIP3   OH212563   5.350   5.838   1.614 -0.1395  0.2697 -0.4794
 4186TIP3    H112564   5.326   5.880   1.697 -0.8454  0.1568 -0.6195
 4186TIP3    H212565   5.276   5.780   1.595  0.3134 -0.1889 -0.8632
 4187TIP3   OH212566   0.433   0.074   0.122 -0.2281  0.1597  0.0167
 4187TIP3    H112567   0.341   0.048   0.118 -0.1421 -0.0682 -0.5706
 4187TIP3    H212568   0.454   0.103   0.034  0.6380 -1.0980 -0.2119
 4188TIP3   OH212569   1.149   5.501   1.096  0.0526  0.0955 -0.1587
 4188TIP3    H112570   1.108   5.445   1.162  0.4355 -0.5120 -0.4262
 4188TIP3    H212571   1.217   5.446   1.057 -0.5742  0.2249 -1.4975
 4189TIP3   OH212572   4.117   4.665   1.947 -0.4568 -0.2424 -0.2887
 4189TIP3    H112573   4.195   4.611   1.950  0.1752  0.6834  1.6495
 4189TIP3    H212574   4.149   4.751   1.918 -0.8524  0.0086  0.0144
 4190TIP3   OH212575   4.080   2.787   1.447 -0.0777 -0.3015 -0.5386
 4190TIP3    H112576   4.003   2.735   1.472  0.2763 -1.3902 -1.6212
 4190TIP3    H212577   4.116   2.741   1.371  1.8930 -0.0324  0.1848
 4191TIP3   OH212578   5.845   4.272   1.764 -0.2903  0.5948  0.0689
 4191TIP3    H112579   5.863   4.252   1.672  0.9936  0.5285  0.3129
 4191TIP3    H212580   5.819   4.364   1.765 -2.5149  0.0436 -0.6015
 4192TIP3   OH212581   4.689   3.976   0.361  0.8835 -0.4127  0.1312
 4192TIP3    H112582   4.752   4.038   0.398  1.5929 -0.4918 -0.8912
 4192TIP3    H212583   4.608   3.992   0.409  0.7781  1.9591 -0.7289
 4193TIP3   OH212584   3.692   5.280   1.434 -0.5722  0.0741  0.2693
 4193TIP3    H112585   3.677   5.266   1.527 -0.8289 -1.2707  0.0493
 4193TIP3    H212586   3.773   5.331   1.430  0.4895 -1.4517  1.2072
 4194TIP3   OH212587   1.547   3.589   0.364  0.1662  0.7267  0.5352
 4194TIP3    H112588   1.483   3.636   0.418 -0.9232  0.5532 -0.5521
 4194TIP3    H212589   1.494   3.541   0.300  1.3778  0.2464 -0.1506
 4195TIP3   OH212590   2.645   2.764   0.768 -0.5242  0.1382  0.5917
 4195TIP3    H112591   2.666   2.766   0.861 -1.3172  3.0234  0.8130
 4195TIP3    H212592   2.688   2.842   0.733 -3.2473  1.1653 -0.6931
 4196TIP3   OH212593   0.889   0.913   0.238 -0.2277 -0.3486  0.0491
 4196TIP3    H112594   0.952   0.908   0.310 -3.3488  0.6766  3.1426
 4196TIP3    H212595   0.903   1.000   0.201 -0.1405  0.0924  1.0724
 4197TIP3   OH212596   3.444   4.783   4.176  0.3505 -0.2814  0.3452
 4197TIP3    H112597   3.393   4.776   4.096  0.5422  1.8389 -0.0149
 4197TIP3    H212598   3.385   4.823   4.240 -0.1395 -2.8521  1.6725
 4198TIP3   OH212599   6.051   5.046   4.232 -0.0447 -0.1567  1.0598
 4198TIP3    H112600   6.117   5.003   4.178  1.0932 -0.7928  2.8796
 4198TIP3    H212601   5.989   5.083   4.169  0.2895 -2.2987 -0.6414
 4199TIP3   OH212602   2.845   5.757   3.182  0.4797  0.1287 -0.0755
 4199TIP3    H112603   2.934   5.755   3.147 -0.1920  0.3832 -1.9457
 4199TIP3    H212604   2.846   5.695   3.255  1.6316 -1.7509 -1.5674
 4200TIP3   OH212605   4.496   3.047   3.861 -0.2610 -0.5377  0.5215
 4200TIP3    H112606   4.510   3.077   3.771 -0.6128  0.1157  0.6722
 4200TIP3    H212607   4.567   3.089   3.911 -0.5116 -0.2811  0.6666
 4201TIP3   OH212608   5.244   5.757   4.185 -0.6747  0.0602 -0.5352
 4201TIP3    H112609   5.197   5.679   4.156  0.6846 -0.3998 -1.5972
 4201TIP3    H212610   5.279   5.795   4.105 -1.7574  2.0972 -0.1028
 4202TIP3   OH212611   2.473   3.492   0.803 -0.8759  0.3051  1.3637
 4202TIP3    H112612   2.404   3.559   0.804 -2.4040 -1.0885 -0.6702
 4202TIP3    H212613   2.425   3.409   0.808  0.9400 -0.7289  3.4921
 4203TIP3   OH212614   3.150   4.216   4.937  0.3532 -0.7613  0.0336
 4203TIP3    H112615   3.213   4.146   4.918  1.3248 -0.3712  1.5788
 4203TIP3    H212616   3.066   4.170   4.948  0.2723 -1.2629 -2.2403
 4204TIP3   OH212617   4.011   4.042   0.125  0.0050  0.3727  0.2910
 4204TIP3    H112618   3.958   4.082   0.194 -1.6794  0.2809 -0.8668
 4204TIP3    H212619   3.948   3.989   0.075  1.1302  0.5329 -1.3735
 4205TIP3   OH212620   0.931   0.071   2.152  0.3557 -0.4814 -0.1634
 4205TIP3    H112621   0.856   0.127   2.169  0.3200 -0.8373  0.9453
 4205TIP3    H212622   0.897  -0.018   2.158  0.7653 -0.6430 -0.1740
 4206TIP3   OH212623   2.382   1.267   0.758  0.5535 -0.5190  0.2751
 4206TIP3    H112624   2.396   1.335   0.692  0.0829 -0.2145  0.4769
 4206TIP3    H212625   2.469   1.233   0.777  0.8237  0.1996  0.3487
 4207TIP3   OH212626   3.529   5.454   3.209 -0.3474  0.4106  0.4966
 4207TIP3    H112627   3.517   5.415   3.296 -0.9296 -1.3745 -0.3325
 4207TIP3    H212628   3.445   5.441   3.165  0.9258 -1.9045 -1.4869
 4208TIP3   OH212629   2.059   5.067   2.679 -0.3789 -0.6678  0.1750
 4208TIP3    H112630   1.968   5.094   2.667 -0.8565 -2.5893 -1.0848
 4208TIP3    H212631   2.110   5.145   2.658 -1.6716 -0.4369 -2.6029
 4209TIP3   OH212632   3.956   2.956   3.142  0.0653  0.0466  0.0483
 4209TIP3    H112633   3.905   2.959   3.061  0.4179 -3.1986 -0.4288
 4209TIP3    H212634   3.906   2.899   3.199 -1.1252  3.6402  3.0213
 4210TIP3   OH212635   0.189   5.804   3.574 -0.7757 -0.6302 -0.0841
 4210TIP3    H112636   0.211   5.782   3.483  1.4892 -0.0884  0.2688
 4210TIP3    H212637   0.255   5.758   3.626 -2.0909 -1.0071  1.3158
 4211TIP3   OH212638   0.579   5.558   0.908 -0.6071  0.7183  0.0576
 4211TIP3    H112639   0.555   5.505   0.831 -1.5943  1.5210 -0.2037
 4211TIP3    H212640   0.632   5.499   0.962 -0.3311 -0.0257 -0.9881
 4212TIP3   OH212641   5.755   5.623   0.814  0.0089  0.3415  0.9744
 4212TIP3    H112642   5.723   5.533   0.808  0.4489  0.1518  1.3462
 4212TIP3    H212643   5.677   5.677   0.823 -0.3475  0.1348 -0.6438
 4213TIP3   OH212644   0.747   4.101   4.988 -0.3235  0.4116  0.1337
 4213TIP3    H112645   0.758   4.079   5.081 -0.0837 -0.4021 -0.0801
 4213TIP3    H212646   0.702   4.186   4.989  3.1659  2.4287  1.0076
 4214TIP3   OH212647   1.079   1.871   4.698 -0.3234 -0.1398  0.3301
 4214TIP3    H112648   0.998   1.850   4.651 -0.3967  0.0650  0.3680
 4214TIP3    H212649   1.125   1.787   4.702  0.0854  0.0053 -0.8823
 4215TIP3   OH212650   4.425   2.121   1.191 -0.2676 -0.1405 -0.7119
 4215TIP3    H112651   4.423   2.120   1.096 -0.4555 -0.2523 -0.7090
 4215TIP3    H212652   4.469   2.039   1.215  0.4562  0.2448 -0.7122
 4216TIP3   OH212653   0.850   4.407   1.581 -0.3515  0.0610 -0.2924
 4216TIP3    H112654   0.832   4.461   1.503 -0.0905 -0.0714 -0.4478
 4216TIP3    H212655   0.945   4.414   1.593 -0.2857 -0.5429 -0.4447
 4217TIP3   OH212656   5.101   1.789   2.877  1.0582 -0.4140 -0.1084
 4217TIP3    H112657   5.016   1.758   2.908  1.1446  0.8174  1.4710
 4217TIP3    H212658   5.165   1.751   2.938  1.4321  0.3475 -0.0068
 4218TIP3   OH212659   4.819   4.051   1.289  0.6057  0.1086  0.0942
 4218TIP3    H112660   4.789   4.142   1.288  0.1463 -0.0395 -0.8871
 4218TIP3    H212661   4.760   4.006   1.229 -0.1275 -1.1575  1.6820
 4219TIP3   OH212662   2.941   1.123   5.113  0.1648  0.2691  0.2224
 4219TIP3    H112663   2.992   1.077   5.047  1.7701 -0.0990  1.6307
 4219TIP3    H212664   2.974   1.090   5.197  0.2044  2.7074  1.2654
 4220TIP3   OH212665   6.137   2.777   0.626 -0.4976 -0.6223  0.0667
 4220TIP3    H112666   6.208   2.838   0.603 -0.9297  0.2178  0.8748
 4220TIP3    H212667   6.074   2.785   0.554 -1.3656  1.2175  0.9724
 4221TIP3   OH212668   5.887   0.553   4.123  0.0726  0.0555 -0.3883
 4221TIP3    H112669   5.967   0.586   4.164  0.2510  0.6111 -1.1625
 4221TIP3    H212670   5.828   0.537   4.196  0.6619  0.2641  0.1478
 4222TIP3   OH212671   4.769   3.930   2.639  0.0973  0.0418  0.2983
 4222TIP3    H112672   4.850   3.980   2.645 -0.2997  1.0450 -1.7164
 4222TIP3    H212673   4.721   3.951   2.719  0.9905  0.9441  0.6091
 4223TIP3   OH212674   4.626   2.163   4.090 -0.3931  0.4622 -0.0904
 4223TIP3    H112675   4.707   2.114   4.073 -0.5471 -0.0709  0.6767
 4223TIP3    H212676   4.637   2.244   4.041 -0.0532 -0.2544 -1.2404
 4224TIP3   OH212677   5.753   4.712   1.491 -0.1715  0.2315 -0.3597
 4224TIP3    H112678   5.834   4.694   1.538 -1.1352  1.0988  1.8041
 4224TIP3    H212679   5.732   4.803   1.513 -2.0485 -0.1692 -0.2794
 4225TIP3   OH212680   2.322   0.125   4.345  0.3639  0.4414  0.0219
 4225TIP3    H112681   2.246   0.175   4.313  0.5989  0.3795 -0.6468
 4225TIP3    H212682   2.378   0.115   4.268  0.6965 -0.1704  0.3378
 4226TIP3   OH212683   1.100   2.689   5.001 -0.1253  0.6962 -0.1275
 4226TIP3    H112684   1.108   2.596   5.023 -1.3957  0.8652  1.2226
 4226TIP3    H212685   1.077   2.690   4.908  0.6213 -0.2945 -0.3391
 4227TIP3   OH212686   4.923   5.683   0.269  0.5230  0.0917 -1.0677
 4227TIP3    H112687   4.859   5.754   0.269  0.5851  0.1474 -0.8754
 4227TIP3    H212688   5.005   5.725   0.243  0.8981  0.3990  0.4951
 4228TIP3   OH212689   4.799   0.569   4.745  0.1865  0.4948 -0.2682
 4228TIP3    H112690   4.738   0.553   4.674 -2.1740  1.2387  1.4628
 4228TIP3    H212691   4.833   0.657   4.729 -0.1325  0.5546 -0.6116
 4229TIP3   OH212692   2.756   2.098   2.278  0.1360 -0.2683 -0.3864
 4229TIP3    H112693   2.764   2.065   2.368  0.2683 -1.0914 -0.6888
 4229TIP3    H212694   2.841   2.136   2.258  0.6909 -1.6290 -0.7437
 4230TIP3   OH212695   5.786   1.778   1.499 -0.2942 -0.1412  0.6110
 4230TIP3    H112696   5.829   1.794   1.583 -0.7634  0.9390  0.6497
 4230TIP3    H212697   5.759   1.686   1.503  0.5433 -0.3745  1.2412
 4231TIP3   OH212698   5.663   2.773   4.648 -0.4418  0.6039  0.3958
 4231TIP3    H112699   5.651   2.840   4.715 -2.3763 -0.7759  1.5400
 4231TIP3    H212700   5.603   2.703   4.673 -0.1376 -0.6210 -1.9846
 4232TIP3   OH212701   3.102   4.112   4.478  0.2555  0.0861  0.3725
 4232TIP3    H112702   3.020   4.140   4.519  0.0513  0.5896 -0.3546
 4232TIP3    H212703   3.163   4.183   4.494  0.1352  0.3521 -0.2777
 4233TIP3   OH212704   0.006   4.393   0.167 -0.1639 -0.1608  0.1688
 4233TIP3    H112705   0.100   4.382   0.183 -0.1229 -1.4635 -0.7799
 4233TIP3    H212706  -0.010   4.346   0.085 -1.1107  2.5680 -1.3276
 4234TIP3   OH212707   3.928   3.703   2.887 -0.1238  0.0670 -0.6036
 4234TIP3    H112708   3.878   3.785   2.884 -0.5228 -0.2005 -2.1026
 4234TIP3    H212709   3.898   3.654   2.810  0.6222 -1.1879 -0.1218
 4235TIP3   OH212710   4.852   0.649   2.537 -0.3561 -0.1437 -0.8016
 4235TIP3    H112711   4.821   0.588   2.470  1.0763 -0.1091 -1.5323
 4235TIP3    H212712   4.826   0.736   2.504 -1.2761 -0.2422 -0.3799
 4236TIP3   OH212713   3.816   1.492   3.607  0.3069 -0.4451 -0.3233
 4236TIP3    H112714   3.798   1.436   3.682  0.3999 -0.7178 -0.5026
 4236TIP3    H212715   3.791   1.580   3.636 -0.4190 -0.6685 -0.2534
 4237TIP3   OH212716   5.574   0.085   2.271 -0.0569  0.4520  0.3877
 4237TIP3    H112717   5.635   0.012   2.255  1.2983  1.1884  1.9184
 4237TIP3    H212718   5.543   0.070   2.361 -1.1314  0.8299  0.0920
 4238TIP3   OH212719   3.092   2.097   2.742  0.6244  0.2056 -0.2259
 4238TIP3    H112720   2.999   2.078   2.740  0.6801 -0.0037 -0.9647
 4238TIP3    H212721   3.097   2.190   2.764  0.1658  0.7085 -2.1169
 4239TIP3   OH212722   4.961   5.231   0.154  0.1693  0.6007  0.2514
 4239TIP3    H112723   4.893   5.297   0.163  0.3838  0.7011  1.2699
 4239TIP3    H212724   5.035   5.277   0.115 -0.7525  0.1837 -2.1785
 4240TIP3   OH212725   0.984   2.503   2.779  0.6351  0.3045  0.5176
 4240TIP3    H112726   0.901   2.521   2.823 -0.5393 -1.1857 -1.0044
 4240TIP3    H212727   1.024   2.434   2.833 -0.2342 -0.6537 -0.0332
 4241TIP3   OH212728   0.510   5.176   2.473  0.4967 -0.8081  0.0467
 4241TIP3    H112729   0.456   5.107   2.433  0.1182 -0.9455  0.7678
 4241TIP3    H212730   0.591   5.132   2.498  1.8816 -0.1699 -2.9195
 4242TIP3   OH212731   1.930   4.628   1.866  0.3062 -0.2678 -0.3794
 4242TIP3    H112732   1.885   4.547   1.889  0.3577  0.1616  1.3508
 4242TIP3    H212733   2.022   4.603   1.856  0.3710 -0.3716  0.4654
 4243TIP3   OH212734   5.633   0.228   3.188 -0.2544  0.1708  0.4656
 4243TIP3    H112735   5.698   0.239   3.118 -1.4488  0.6826 -0.5953
 4243TIP3    H212736   5.550   0.252   3.148 -1.3112 -1.6716  1.4257
 4244TIP3   OH212737   0.006   0.317   3.363  0.0472 -0.3527  0.0585
 4244TIP3    H112738   0.076   0.372   3.397  0.3139 -1.0430  0.6605
 4244TIP3    H212739  -0.022   0.360   3.282  0.6119  0.3631  0.2382
 4245TIP3   OH212740   1.938   5.320   2.356  0.3445 -0.4265  0.4166
 4245TIP3    H112741   1.927   5.408   2.392  3.2578 -0.1422  0.8604
 4245TIP3    H212742   1.851   5.281   2.360 -0.9498  2.2630  0.6103
 4246TIP3   OH212743   5.943   3.281   2.462  0.3771  0.0803  0.5541
 4246TIP3    H112744   6.005   3.344   2.425  1.3024 -0.3048  1.4033
 4246TIP3    H212745   5.898   3.329   2.531  0.0615  0.2207  0.2533
 4247TIP3   OH212746   4.129   2.153   1.506  0.2998  0.5714  0.2254
 4247TIP3    H112747   4.170   2.229   1.546 -1.0440  1.7534 -0.5567
 4247TIP3    H212748   4.140   2.165   1.412 -0.6350  0.2470  0.0561
 4248TIP3   OH212749   4.950   2.841   1.152 -0.3691 -0.1301 -0.3440
 4248TIP3    H112750   4.902   2.785   1.090  1.1954  0.5784 -2.3200
 4248TIP3    H212751   4.882   2.886   1.201 -1.7351 -0.1590 -2.1011
 4249TIP3   OH212752   2.994   3.215   2.829 -0.6207 -0.5102  0.5517
 4249TIP3    H112753   2.994   3.257   2.915 -3.4378 -1.1781  0.9525
 4249TIP3    H212754   3.021   3.125   2.846  0.2745 -0.2736  0.4670
 4250TIP3   OH212755   3.074   1.874   2.328 -0.7650  0.0764  0.1649
 4250TIP3    H112756   2.994   1.832   2.361 -0.7314 -0.5257 -0.4971
 4250TIP3    H212757   3.083   1.842   2.238 -0.1119  0.6242  0.0244
 4251TIP3   OH212758   4.980   0.314   3.566  0.2119  0.1355  0.5564
 4251TIP3    H112759   4.955   0.313   3.473  0.6941 -2.0339  0.4129
 4251TIP3    H212760   5.025   0.398   3.577 -0.2571  0.6451 -1.0390
 4252TIP3   OH212761   4.723   1.294   3.171 -0.8057  0.0035 -0.3005
 4252TIP3    H112762   4.752   1.207   3.144 -1.0164  0.2194 -1.2808
 4252TIP3    H212763   4.690   1.334   3.090  0.0166  1.2850 -0.0345
 4253TIP3   OH212764   5.463   3.328   3.352  0.1563  0.0305 -0.3613
 4253TIP3    H112765   5.462   3.412   3.397 -0.2465 -0.9800  1.6524
 4253TIP3    H212766   5.543   3.285   3.382  0.6986 -0.0650 -1.8796
 4254TIP3   OH212767   3.394   5.619   2.367 -0.0770 -0.2514  0.6898
 4254TIP3    H112768   3.312   5.574   2.348 -0.2165 -0.1634  1.0767
 4254TIP3    H212769   3.462   5.562   2.331 -0.2791 -0.5623  0.8026
 4255TIP3   OH212770   2.552   4.848   4.479  0.2121  0.5757  0.1854
 4255TIP3    H112771   2.558   4.943   4.485 -1.0999  0.6766  0.2964
 4255TIP3    H212772   2.633   4.815   4.518  0.3854  1.6359  0.7355
 4256TIP3   OH212773   3.412   0.302   1.344  0.0274 -0.1300 -0.3043
 4256TIP3    H112774   3.376   0.340   1.424  0.2161  0.2535 -0.3992
 4256TIP3    H212775   3.362   0.343   1.273 -0.2653 -0.6060 -0.3745
 4257TIP3   OH212776   3.980   2.008   4.956  0.4260  0.5006  0.2485
 4257TIP3    H112777   3.998   2.078   5.019  0.6855  1.8275 -1.2273
 4257TIP3    H212778   3.908   2.042   4.902  0.9089 -0.1393 -0.8398
 4258TIP3   OH212779   4.159   4.169   2.756 -0.6930 -0.2750 -0.1677
 4258TIP3    H112780   4.144   4.125   2.839 -2.6743  1.0911  0.2742
 4258TIP3    H212781   4.216   4.243   2.778  1.3894 -1.6486 -0.6473
 4259TIP3   OH212782   3.782   5.238   1.902 -0.6344 -0.1105 -0.3014
 4259TIP3    H112783   3.802   5.318   1.855 -0.7540 -0.1885 -0.4854
 4259TIP3    H212784   3.758   5.267   1.990  1.5441 -0.0756  0.3476
 4260TIP3   OH212785   5.834   4.056   4.202  0.4241 -0.4293 -0.1653
 4260TIP3    H112786   5.776   4.015   4.265  2.0110 -1.4927  0.6760
 4260TIP3    H212787   5.865   4.136   4.246  1.1014 -0.8855  0.2048
 4261TIP3   OH212788   6.192   3.426   2.687  0.4290  0.0686 -0.4979
 4261TIP3    H112789   6.135   3.496   2.656 -0.4222 -0.6833 -0.6823
 4261TIP3    H212790   6.240   3.399   2.609  0.5844  0.2923 -0.4787
 4262TIP3   OH212791   6.295   5.666   0.847 -0.5405  0.7885 -0.4197
 4262TIP3    H112792   6.255   5.645   0.931 -0.6210  1.2718 -0.3353
 4262TIP3    H212793   6.259   5.751   0.823  1.2992  1.7952  0.2135
 4263TIP3   OH212794   1.886   4.226   3.346  0.0664  0.0199 -0.1462
 4263TIP3    H112795   1.898   4.139   3.384  0.4010 -0.2443 -0.8399
 4263TIP3    H212796   1.896   4.286   3.420  0.4751 -0.4974  0.2266
 4264TIP3   OH212797   1.349   5.380   3.474 -0.3760 -0.4373  0.0498
 4264TIP3    H112798   1.371   5.444   3.542 -0.0823  0.0299 -0.4784
 4264TIP3    H212799   1.401   5.407   3.398  0.4371 -1.8210  0.0733
 4265TIP3   OH212800   2.064   0.441   2.920  0.1292 -0.5483  0.0702
 4265TIP3    H112801   2.138   0.500   2.910  0.7385 -1.4509 -0.9385
 4265TIP3    H212802   2.097   0.371   2.976  0.0314 -0.9335 -0.3512
 4266TIP3   OH212803   2.425   3.607   0.488 -0.4231  0.0726  0.5247
 4266TIP3    H112804   2.431   3.540   0.556 -1.0071 -0.9660 -0.4150
 4266TIP3    H212805   2.344   3.655   0.508 -1.2557 -1.0263 -0.1154
 4267TIP3   OH212806   2.199   1.664   0.625 -0.0709 -0.1938 -0.1553
 4267TIP3    H112807   2.294   1.673   0.632  0.0093 -0.5262 -0.7191
 4267TIP3    H212808   2.164   1.733   0.681  0.5011  1.0118 -1.2227
 4268TIP3   OH212809   5.087   4.107   4.899  0.1136  0.0155 -0.2052
 4268TIP3    H112810   5.171   4.062   4.911 -0.3043 -0.6938  0.1358
 4268TIP3    H212811   5.069   4.147   4.984  0.5144  0.9028 -0.5265
 4269TIP3   OH212812   3.336   5.831   2.127 -0.0497  0.0721 -0.4002
 4269TIP3    H112813   3.412   5.791   2.084 -0.4062 -2.1442  0.8664
 4269TIP3    H212814   3.341   5.924   2.104  3.2457  0.0967 -0.0402
 4270TIP3   OH212815   5.480   5.915   2.792 -0.2041 -0.8095  0.4779
 4270TIP3    H112816   5.516   5.924   2.880 -1.4263 -1.5705  1.0744
 4270TIP3    H212817   5.480   5.821   2.775 -1.3476 -0.7892  0.2775
 4271TIP3   OH212818   5.465   5.018   2.829  0.0628 -0.0168 -0.1643
 4271TIP3    H112819   5.504   5.021   2.742  0.5142  1.2115  0.0540
 4271TIP3    H212820   5.536   5.046   2.888 -1.0184  2.0059  0.2719
 4272TIP3   OH212821   1.557   5.117   0.498 -0.3122  0.3725  0.3277
 4272TIP3    H112822   1.578   5.063   0.575 -0.5956  2.2278  1.8021
 4272TIP3    H212823   1.473   5.157   0.519 -0.5302  0.7093 -1.0900
 4273TIP3   OH212824   5.761   3.790   3.241 -0.0956 -0.4690 -0.2241
 4273TIP3    H112825   5.806   3.864   3.199  1.7289 -2.1117 -1.3513
 4273TIP3    H212826   5.813   3.771   3.319 -1.8807  0.8029  1.3740
 4274TIP3   OH212827   4.997   3.830   0.638 -0.4504 -0.0817  0.5685
 4274TIP3    H112828   5.077   3.786   0.666 -0.4345 -0.0514  0.5718
 4274TIP3    H212829   4.933   3.760   0.629  0.4012 -0.6305 -2.6647
 4275TIP3   OH212830   6.075   3.269   2.874 -0.2169  0.2182  0.0544
 4275TIP3    H112831   6.120   3.310   2.801 -0.5763  0.3425 -0.0998
 4275TIP3    H212832   6.015   3.206   2.833 -0.2144  0.0842  0.2531
 4276TIP3   OH212833   2.233   2.189   3.194 -0.7940 -0.0280 -0.0310
 4276TIP3    H112834   2.231   2.219   3.103 -1.7993 -0.7105 -0.2477
 4276TIP3    H212835   2.320   2.150   3.204 -0.3661  0.8003 -0.4430
 4277TIP3   OH212836   3.720   5.622   1.648 -0.0828  0.0717 -0.2079
 4277TIP3    H112837   3.711   5.708   1.607 -1.4196 -0.4966 -1.1583
 4277TIP3    H212838   3.631   5.590   1.656  0.2407 -0.4707  1.8632
 4278TIP3   OH212839   3.573   2.129   4.579 -0.4484  0.2200 -0.6978
 4278TIP3    H112840   3.634   2.065   4.544 -0.4995 -0.1547 -0.1109
 4278TIP3    H212841   3.547   2.181   4.503 -0.1685 -0.2525 -1.1250
 4279TIP3   OH212842   5.025   0.820   4.921  0.1736  0.0960 -0.4108
 4279TIP3    H112843   5.085   0.882   4.963  0.1199  0.6712 -1.1761
 4279TIP3    H212844   4.999   0.863   4.840  1.2438 -1.5054 -1.6616
 4280TIP3   OH212845   2.468   2.080   3.230  0.0824  0.0868  0.1125
 4280TIP3    H112846   2.511   2.039   3.155  0.9106  0.9120  0.1135
 4280TIP3    H212847   2.460   2.010   3.294  0.0284 -0.4512 -0.4726
 4281TIP3   OH212848   0.774   1.940   1.627 -0.0474 -0.3308 -0.0745
 4281TIP3    H112849   0.756   1.862   1.574 -1.1303  1.7481 -3.0409
 4281TIP3    H212850   0.699   1.947   1.686  0.4071 -1.8579  0.7312
 4282TIP3   OH212851   3.548   5.289   2.603 -0.4791  0.5613 -0.3677
 4282TIP3    H112852   3.594   5.229   2.663 -1.2286  0.3880  0.0395
 4282TIP3    H212853   3.532   5.368   2.655  1.3264  1.5236 -1.1663
 4283TIP3   OH212854   5.461   3.115   3.734  0.1694  0.1289  0.6233
 4283TIP3    H112855   5.429   3.182   3.674  0.3107 -0.0173  0.3820
 4283TIP3    H212856   5.432   3.144   3.820 -1.4967 -0.5200  0.3152
 4284TIP3   OH212857   2.277   1.077   3.790  0.3663  0.0492  0.4042
 4284TIP3    H112858   2.283   1.172   3.790  0.7234  0.1451 -2.8239
 4284TIP3    H212859   2.335   1.049   3.861 -0.1839  2.1937  1.7997
 4285TIP3   OH212860   1.692   1.106   3.731 -0.2243 -0.1239  0.1886
 4285TIP3    H112861   1.627   1.081   3.796 -1.3764  0.3935 -0.7118
 4285TIP3    H212862   1.776   1.102   3.777 -0.9188 -0.5314  1.4644
 4286TIP3   OH212863   2.563   2.365   3.278  0.1702  0.1522 -0.2561
 4286TIP3    H112864   2.530   2.284   3.238 -0.1012  0.0078  0.2520
 4286TIP3    H212865   2.542   2.356   3.371  2.1261 -0.1946  0.1879
 4287TIP3   OH212866   2.175   6.003   2.632  0.1671  0.4648 -0.1649
 4287TIP3    H112867   2.097   5.949   2.619 -0.6098  1.8018 -1.3388
 4287TIP3    H212868   2.233   5.948   2.686 -1.0332 -1.0660 -0.3421
 4288TIP3   OH212869   1.279   1.424   1.655 -0.1081  0.1828 -0.8135
 4288TIP3    H112870   1.339   1.366   1.702  0.5837  0.2843 -1.5628
 4288TIP3    H212871   1.263   1.496   1.717 -3.2188 -2.0622  1.3015
 4289TIP3   OH212872   2.929   2.282   3.576  0.0277 -0.2568  0.3624
 4289TIP3    H112873   2.874   2.298   3.500  1.7189 -1.6363 -1.2727
 4289TIP3    H212874   2.982   2.206   3.551  0.5230 -0.8813  3.0164
 4290TIP3   OH212875   4.144   4.600   3.190 -0.2776 -0.4149  0.6225
 4290TIP3    H112876   4.210   4.539   3.155  1.5493  0.7155  1.9243
 4290TIP3    H212877   4.176   4.687   3.165 -2.1888  0.1248 -0.1388
 4291TIP3   OH212878   6.135   1.956   1.190 -0.2403 -0.3453 -0.0712
 4291TIP3    H112879   6.180   2.009   1.124 -0.3824 -1.1195 -0.8152
 4291TIP3    H212880   6.147   1.866   1.160  2.1502 -1.0047  2.4654
 4292TIP3   OH212881   1.052   1.756   0.195  0.3958  0.0715  0.0090
 4292TIP3    H112882   1.140   1.771   0.160  0.1579 -1.6976 -1.5063
 4292TIP3    H212883   0.999   1.828   0.160  1.2496  1.3027  1.1513
 4293TIP3   OH212884   0.688   4.013   0.220  0.2509 -0.2281  0.3468
 4293TIP3    H112885   0.722   3.992   0.307 -0.8604  0.0630  0.8662
 4293TIP3    H212886   0.748   3.969   0.160  1.5926  0.3661  1.2189
 4294TIP3   OH212887   2.395   0.690   1.944  0.0294  0.2250  0.0735
 4294TIP3    H112888   2.320   0.710   1.887  0.7461  0.6498 -0.7440
 4294TIP3    H212889   2.472   0.710   1.890  0.7514 -1.0355  0.5993
 4295TIP3   OH212890   5.924   0.478   2.811  0.4287  0.2973 -0.0112
 4295TIP3    H112891   5.851   0.436   2.766  0.2081  0.3975  0.2549
 4295TIP3    H212892   5.926   0.567   2.777  1.2161 -0.0591 -0.9613
 4296TIP3   OH212893   1.339   0.365   1.911 -0.4295  0.5963  0.2055
 4296TIP3    H112894   1.353   0.359   1.817 -0.4090  0.0811  0.2410
 4296TIP3    H212895   1.244   0.376   1.921 -0.5248 -0.1460  0.1583
 4297TIP3   OH212896   1.114   4.371  -0.032 -0.3528  0.6897  0.6145
 4297TIP3    H112897   1.029   4.391   0.007 -0.6157 -0.9033  0.9220
 4297TIP3    H212898   1.177   4.383   0.039 -0.7604 -1.5981  1.4485
 4298TIP3   OH212899   0.525   5.343   1.851  0.0031  0.2674 -0.4603
 4298TIP3    H112900   0.529   5.364   1.944  2.7367  0.9828 -0.6386
 4298TIP3    H212901   0.486   5.420   1.810  0.1414  0.5704 -0.0282
 4299TIP3   OH212902   0.990   2.022   0.810  0.5502 -0.0954  0.0097
 4299TIP3    H112903   0.993   1.931   0.781  2.0029 -0.6938  1.8456
 4299TIP3    H212904   1.076   2.058   0.786  0.9774 -0.0017  1.5626
 4300TIP3   OH212905   5.622   4.085   3.329  0.0641 -0.2249  0.0873
 4300TIP3    H112906   5.717   4.092   3.324  0.0090  0.6885  0.2000
 4300TIP3    H212907   5.590   4.174   3.314 -0.8810 -0.8725 -2.1671
 4301TIP3   OH212908   3.057   0.348   1.679 -0.1889  0.5365 -0.8280
 4301TIP3    H112909   2.980   0.366   1.625  0.1827  2.3081 -0.8070
 4301TIP3    H212910   3.034   0.383   1.765  0.4097  0.5031 -0.6515
 4302TIP3   OH212911   1.957   1.785   2.588 -0.2366  0.8662  0.5661
 4302TIP3    H112912   1.978   1.847   2.658 -1.6431  2.2233 -0.1401
 4302TIP3    H212913   1.865   1.804   2.567 -0.0328  0.0577 -1.2094
 4303TIP3   OH212914   5.993   4.766   3.507 -0.0546  0.3103 -0.4520
 4303TIP3    H112915   5.975   4.704   3.578  2.0456  0.1943  0.0624
 4303TIP3    H212916   6.017   4.847   3.552 -0.5640  0.8095 -1.0692
 4304TIP3   OH212917   6.289   3.206   4.433  0.4377 -0.6090 -0.3540
 4304TIP3    H112918   6.365   3.214   4.491  0.4810 -1.3361 -0.3046
 4304TIP3    H212919   6.322   3.159   4.356  0.1593 -0.4670 -0.5649
 4305TIP3   OH212920   3.825   4.797   3.772  0.2925 -0.3641  0.2527
 4305TIP3    H112921   3.786   4.826   3.854 -0.6567  1.9543 -0.9531
 4305TIP3    H212922   3.751   4.787   3.712  1.2153  0.8955 -1.1508
 4306TIP3   OH212923   2.582   5.087   1.575  0.1480 -0.5748 -0.5649
 4306TIP3    H112924   2.565   5.181   1.569  0.8450 -0.3248  0.9605
 4306TIP3    H212925   2.588   5.069   1.669 -1.6811 -2.4789 -0.7429
 4307TIP3   OH212926   5.532   5.605   2.812  0.0689  0.2590  0.8066
 4307TIP3    H112927   5.534   5.545   2.886 -0.3830 -0.8256 -0.0400
 4307TIP3    H212928   5.451   5.655   2.823 -0.7182 -0.8813  0.3002
 4308TIP3   OH212929   5.612   3.340   1.535 -0.5421  0.1612 -0.0096
 4308TIP3    H112930   5.661   3.280   1.479  0.7781 -0.1448  1.4119
 4308TIP3    H212931   5.652   3.426   1.520 -1.3562  0.4284 -0.8094
 4309TIP3   OH212932   4.149   0.464   4.091  0.1058 -0.6186 -0.3033
 4309TIP3    H112933   4.202   0.395   4.130 -0.4804 -1.9033 -1.6818
 4309TIP3    H212934   4.077   0.478   4.153  2.3466  1.7278  1.9970
 4310TIP3   OH212935   5.489   1.210   3.579  0.0631 -0.6191  0.8987
 4310TIP3    H112936   5.411   1.263   3.567  0.5719  0.3040  1.5387
 4310TIP3    H212937   5.493   1.155   3.501  0.0806  1.0267 -0.3270
 4311TIP3   OH212938   2.453   0.979   2.832 -0.7653  0.1084  0.1514
 4311TIP3    H112939   2.391   1.038   2.876 -0.2756  0.8672 -0.1546
 4311TIP3    H212940   2.440   0.995   2.739  0.1500  0.5706  0.0870
 4312TIP3   OH212941   2.186   0.493   0.491  0.4730  0.7542  0.2428
 4312TIP3    H112942   2.281   0.482   0.487  0.2661 -1.1649 -0.9877
 4312TIP3    H212943   2.153   0.405   0.509 -1.0814  1.3782  0.5583
 4313TIP3   OH212944   4.986   5.218   3.383  0.0916  0.4387  0.0684
 4313TIP3    H112945   5.016   5.300   3.423  0.2588 -0.5729  2.1464
 4313TIP3    H212946   4.910   5.243   3.329 -0.9099  1.7361  1.9907
 4314TIP3   OH212947   3.255   2.554   0.481 -0.2386 -0.4307  0.2639
 4314TIP3    H112948   3.300   2.598   0.409 -0.4579  0.9835  0.9583
 4314TIP3    H212949   3.178   2.514   0.440  0.5725 -1.1770 -0.5793
 4315TIP3   OH212950   1.899   1.651   3.459 -0.1497 -0.2984  0.2834
 4315TIP3    H112951   1.822   1.596   3.448 -0.0071 -0.5578  0.5760
 4315TIP3    H212952   1.971   1.590   3.470  0.0088 -0.0562  0.6040
 4316TIP3   OH212953   3.833   4.440   2.471  0.3113  0.2876  0.9526
 4316TIP3    H112954   3.752   4.425   2.422  0.1844  2.0977  0.5460
 4316TIP3    H212955   3.803   4.465   2.559  0.4706 -0.3481  1.1907
 4317TIP3   OH212956   3.955   0.802   4.889  0.4377 -0.3810 -1.0184
 4317TIP3    H112957   4.043   0.838   4.898 -0.0643  0.5219  1.1146
 4317TIP3    H212958   3.966   0.708   4.904  1.0105 -0.2050 -0.2378
 4318TIP3   OH212959   5.691   5.342   1.199 -0.3594  0.8256 -0.0461
 4318TIP3    H112960   5.617   5.291   1.165 -0.2192  0.5554  0.0480
 4318TIP3    H212961   5.672   5.432   1.173  0.0891  0.5468 -1.4483
 4319TIP3   OH212962   5.361   2.444   2.433 -0.4446  0.2607  0.0761
 4319TIP3    H112963   5.309   2.489   2.367 -1.1289  0.8540  0.9947
 4319TIP3    H212964   5.334   2.484   2.516  0.2828 -0.5710  0.7309
 4320TIP3   OH212965   4.708   3.720   3.196 -0.3958  0.3293 -0.2364
 4320TIP3    H112966   4.725   3.803   3.152 -0.8805  0.7200  0.2854
 4320TIP3    H212967   4.736   3.734   3.286 -0.1749 -0.1850 -0.2204
 4321TIP3   OH212968   2.603   3.397   3.463  0.2510 -0.2981  0.0638
 4321TIP3    H112969   2.659   3.378   3.388  0.4136  0.2934  0.0249
 4321TIP3    H212970   2.516   3.370   3.436  0.1430  0.7464 -0.6904
 4322TIP3   OH212971   4.036   4.587   1.672  0.4771  0.0593 -0.2886
 4322TIP3    H112972   4.050   4.655   1.607 -0.8146  1.1716  0.5301
 4322TIP3    H212973   4.073   4.623   1.753 -1.5892  0.5330  0.5126
 4323TIP3   OH212974   4.532   1.682   0.511 -0.2116  0.0087  0.5380
 4323TIP3    H112975   4.532   1.587   0.522  0.7693 -0.1989 -0.9571
 4323TIP3    H212976   4.442   1.703   0.487  0.0110 -0.8451 -1.1741
 4324TIP3   OH212977   1.792   3.364   3.044 -0.3465 -0.2554 -0.4967
 4324TIP3    H112978   1.863   3.338   2.984 -0.3212  0.3252 -0.7280
 4324TIP3    H212979   1.838   3.397   3.121 -0.3384  0.8097 -0.9380
 4325TIP3   OH212980   5.087   5.648   3.699 -0.2030 -0.2711 -0.0045
 4325TIP3    H112981   5.034   5.717   3.739  1.4796  2.0622 -1.5582
 4325TIP3    H212982   5.168   5.692   3.672  0.3991 -2.5550 -2.3215
 4326TIP3   OH212983   1.560   4.119   3.222  0.3961  0.5801  0.1472
 4326TIP3    H112984   1.555   4.115   3.126 -0.9629 -0.3977  0.2308
 4326TIP3    H212985   1.634   4.176   3.240  1.3933 -0.1392 -1.4906
 4327TIP3   OH212986   3.504   1.709   3.247  0.0289 -0.0363  0.0664
 4327TIP3    H112987   3.455   1.791   3.238  0.1838  0.1724  1.0661
 4327TIP3    H212988   3.446   1.652   3.298 -0.2205 -0.6801 -0.9105
 4328TIP3   OH212989   5.191   0.215   1.795 -0.1736  0.3304  0.1972
 4328TIP3    H112990   5.110   0.205   1.845  0.7545 -0.2621  1.6711
 4328TIP3    H212991   5.251   0.152   1.835  1.0447  0.8251 -0.7906
 4329TIP3   OH212992   4.509   3.909   4.545  0.5808 -0.1714  0.0510
 4329TIP3    H112993   4.594   3.866   4.555 -0.0631 -1.9737 -1.6027
 4329TIP3    H212994   4.471   3.870   4.466 -1.3546  1.3347  0.1538
 4330TIP3   OH212995   3.284   1.794   3.509  0.1347  0.6312 -0.2408
 4330TIP3    H112996   3.305   1.701   3.520  2.5046  1.1306  0.0512
 4330TIP3    H212997   3.227   1.814   3.583  1.8793 -0.0141  1.3738
 4331TIP3   OH212998   0.756   4.432   4.328 -0.4845 -0.9445  0.2408
 4331TIP3    H112999   0.849   4.407   4.332  0.4247  2.1116  1.1295
 4331TIP3    H213000   0.752   4.495   4.256 -1.5343  0.0101  1.0986
 4332TIP3   OH213001   1.800   3.521   0.470  0.1448 -0.9607  0.5383
 4332TIP3    H113002   1.828   3.463   0.399  0.1750  0.6270 -0.8121
 4332TIP3    H213003   1.707   3.539   0.452  0.2001 -0.3914  0.7704
 4333TIP3   OH213004   4.308   3.051   1.334 -0.5900 -0.2012 -0.3384
 4333TIP3    H113005   4.219   3.067   1.304 -0.8479 -1.6749 -0.4367
 4333TIP3    H213006   4.309   3.081   1.424 -1.2493 -0.3561 -0.2762
 4334TIP3   OH213007   0.759   4.283   3.677 -0.0932 -0.6502 -0.1537
 4334TIP3    H113008   0.678   4.314   3.716 -0.3397  0.7575 -1.6504
 4334TIP3    H213009   0.735   4.205   3.628 -0.1600 -1.3007  0.9020
 4335TIP3   OH213010   1.350   2.834   2.212 -0.1005 -0.2642  0.1306
 4335TIP3    H113011   1.342   2.919   2.168  0.2582 -0.3495 -0.1067
 4335TIP3    H213012   1.277   2.832   2.273 -0.3205  0.0637 -0.1175
 4336TIP3   OH213013   5.327   4.447   1.322 -0.6594  0.0742  0.4074
 4336TIP3    H113014   5.273   4.429   1.245 -1.3003  3.5433 -0.1175
 4336TIP3    H213015   5.413   4.470   1.286 -1.0513  2.0324  0.6630
 4337TIP3   OH213016   5.496   0.741   2.416 -0.4776  0.2210  0.1798
 4337TIP3    H113017   5.464   0.782   2.496 -0.6721  0.0402  0.1938
 4337TIP3    H213018   5.465   0.651   2.420 -0.2092  0.1210  0.0575
 4338TIP3   OH213019   0.190   3.558   1.276 -0.1075  0.2052  0.5299
 4338TIP3    H113020   0.273   3.604   1.259 -0.9872  1.6252 -0.1274
 4338TIP3    H213021   0.163   3.591   1.362 -0.4130  0.4311  0.3503
 4339TIP3   OH213022   1.261   0.807   3.737 -0.0954 -0.2754  0.3999
 4339TIP3    H113023   1.274   0.901   3.738  2.8812 -0.5713 -0.5885
 4339TIP3    H213024   1.219   0.789   3.653  2.4918 -0.0300 -1.0569
 4340TIP3   OH213025   2.696   3.915   2.191  0.1025 -0.5053  0.0478
 4340TIP3    H113026   2.624   3.931   2.130 -0.2593 -1.3742  0.2296
 4340TIP3    H213027   2.768   3.969   2.158 -0.4695 -0.0187 -0.4313
 4341TIP3   OH213028   2.042   3.038   0.230 -0.0272 -0.3116 -0.2314
 4341TIP3    H113029   1.949   3.032   0.254 -0.1399 -1.9486 -0.9731
 4341TIP3    H213030   2.087   3.057   0.312 -0.9467 -0.2217  0.2631
 4342TIP3   OH213031   4.420   3.799   4.328  0.0471 -0.2349  0.4918
 4342TIP3    H113032   4.349   3.775   4.269  0.7864 -1.3938  0.0153
 4342TIP3    H213033   4.500   3.770   4.283  0.8223  0.8918  1.0705
 4343TIP3   OH213034   5.928   3.548   0.260  0.0849  1.1649 -0.4571
 4343TIP3    H113035   5.924   3.641   0.239 -0.7164  1.2148 -0.1013
 4343TIP3    H213036   5.839   3.516   0.247  0.1087  0.6807  0.4880
 4344TIP3   OH213037   2.387   3.056   3.042 -0.3955  0.2090  0.0622
 4344TIP3    H113038   2.415   3.066   2.951 -1.6592 -2.3720 -0.6975
 4344TIP3    H213039   2.468   3.051   3.092  0.3304  3.2130 -0.6285
 4345TIP3   OH213040   5.952   2.532   5.132  0.1234  0.0131 -0.0492
 4345TIP3    H113041   5.939   2.533   5.037  1.1132  0.1768 -0.1974
 4345TIP3    H213042   6.011   2.458   5.148  2.7731  1.9629 -0.0191
 4346TIP3   OH213043   5.592   0.104   0.825 -0.2781 -0.1490 -0.3549
 4346TIP3    H113044   5.524   0.057   0.874 -0.6367  0.2516 -0.4642
 4346TIP3    H213045   5.659   0.125   0.890 -0.1831 -0.6836 -0.2764
 4347TIP3   OH213046   6.043   1.194   0.387  0.0649  0.3311  0.3751
 4347TIP3    H113047   6.086   1.126   0.336 -2.7407  0.0346 -1.8878
 4347TIP3    H213048   6.049   1.272   0.332  0.5063  1.1061  1.4962
 4348TIP3   OH213049   0.595   0.805   3.865 -0.4525 -0.3625  0.6625
 4348TIP3    H113050   0.514   0.756   3.854  0.0597 -0.9068 -0.8945
 4348TIP3    H213051   0.664   0.744   3.837  0.0664  1.8408 -3.6848
 4349TIP3   OH213052   0.099   5.646   0.524  0.2102  0.2533  0.2836
 4349TIP3    H113053   0.157   5.628   0.598 -1.4601  0.4095  1.6864
 4349TIP3    H213054   0.032   5.578   0.530  0.6561 -0.4429 -1.8098
 4350TIP3   OH213055   3.205   5.330   3.437  0.8318 -0.0550  0.5278
 4350TIP3    H113056   3.125   5.287   3.407  1.2856 -0.8644  0.4475
 4350TIP3    H213057   3.238   5.274   3.508  3.3752 -1.9616 -1.9326
 4351TIP3   OH213058   5.662   0.498   0.624 -0.6967  0.0802 -0.2761
 4351TIP3    H113059   5.757   0.483   0.624 -0.7975 -0.6486  0.3640
 4351TIP3    H213060   5.644   0.538   0.539 -0.0196 -1.2306 -1.0820
 4352TIP3   OH213061   4.623   5.083   3.021 -0.0837  0.5265  0.2969
 4352TIP3    H113062   4.600   5.030   2.945 -2.6438 -0.4506  1.6576
 4352TIP3    H213063   4.570   5.162   3.012  1.1948  1.3951  0.0358
 4353TIP3   OH213064   3.067   1.353   0.646  0.2021 -0.5499  0.0882
 4353TIP3    H113065   3.069   1.392   0.558  1.4928 -1.6583 -0.4069
 4353TIP3    H213066   3.125   1.277   0.640  0.4967 -0.5205  1.9772
 4354TIP3   OH213067   2.159   3.129   3.801  0.8099  0.4252 -0.0942
 4354TIP3    H113068   2.156   3.185   3.879 -0.1644 -0.6857  0.6938
 4354TIP3    H213069   2.073   3.087   3.798  0.1445  1.7268 -2.7759
 4355TIP3   OH213070   5.840   5.835   1.545  0.4708 -0.6265  0.4006
 4355TIP3    H113071   5.750   5.806   1.555 -0.0573  1.0257  0.8899
 4355TIP3    H213072   5.892   5.770   1.591 -0.3449 -2.1568 -0.7572
 4356TIP3   OH213073   1.352   3.130   1.290  0.1714 -0.6251  0.7935
 4356TIP3    H113074   1.404   3.052   1.309  2.5722  1.0481  1.5134
 4356TIP3    H213075   1.347   3.132   1.194  0.5103 -1.3897  0.7515
 4357TIP3   OH213076   3.894   5.513   3.701  0.1427 -0.1568 -0.6658
 4357TIP3    H113077   3.861   5.577   3.638 -1.3929 -0.9494 -0.7064
 4357TIP3    H213078   3.906   5.432   3.650 -0.1709 -0.5357 -0.1551
 4358TIP3   OH213079   1.600   2.792   3.847  0.5458  0.1533  0.1713
 4358TIP3    H113080   1.642   2.713   3.880 -0.4103 -0.0680  0.8805
 4358TIP3    H213081   1.568   2.768   3.760  3.3935  0.8440 -1.1862
 4359TIP3   OH213082   2.925   4.816   2.904  0.1159 -0.1042 -0.1027
 4359TIP3    H113083   2.965   4.894   2.942  0.5604  0.1909 -1.1329
 4359TIP3    H213084   2.929   4.831   2.809 -0.0456 -1.2571 -0.3092
 4360TIP3   OH213085   6.063   1.034   2.019  0.1998 -0.0364  0.0343
 4360TIP3    H113086   5.970   1.047   2.042  0.0842  0.9146 -0.9114
 4360TIP3    H213087   6.111   1.077   2.090 -0.1529  2.6796 -1.2530
 4361TIP3   OH213088   1.107   1.496   4.285  0.1006 -0.1539 -0.1730
 4361TIP3    H113089   1.110   1.566   4.220  2.4661 -1.4161 -1.5834
 4361TIP3    H213090   1.013   1.482   4.301 -0.5208  1.1422 -2.2755
 4362TIP3   OH213091   4.831   5.030   0.294  0.0730 -0.2418  0.5576
 4362TIP3    H113092   4.865   5.110   0.255 -0.5672 -0.5626 -0.7178
 4362TIP3    H213093   4.875   4.959   0.246  0.5691 -0.6788  1.6103
 4363TIP3   OH213094   1.124   1.051   2.239 -0.4811 -0.3583 -0.3107
 4363TIP3    H113095   1.148   0.966   2.200 -0.7756  0.1186 -1.5883
 4363TIP3    H213096   1.120   1.034   2.333  0.7605 -1.4426 -0.4294
 4364TIP3   OH213097   0.252   5.966   1.755  0.0806  0.1381  0.5626
 4364TIP3    H113098   0.198   6.021   1.698  0.2870  0.7516  0.9564
 4364TIP3    H213099   0.225   5.876   1.734  0.2480  0.3488 -0.6000
 4365TIP3   OH213100   2.945   4.084   2.139 -0.1107 -0.2749 -0.1975
 4365TIP3    H113101   2.927   4.172   2.106 -0.5683  0.3385  1.5848
 4365TIP3    H213102   2.964   4.097   2.232  5.1596 -1.3422 -0.7954
 4366TIP3   OH213103   1.153   5.802   4.081 -0.4500  0.2172 -0.4107
 4366TIP3    H113104   1.234   5.831   4.122 -0.6505  1.0780 -0.6035
 4366TIP3    H213105   1.084   5.824   4.144 -0.5718 -0.2092 -0.3892
 4367TIP3   OH213106   4.568   2.913   3.164 -0.2974  0.6220  0.6758
 4367TIP3    H113107   4.563   2.850   3.236  0.3536  0.1217  0.2906
 4367TIP3    H213108   4.566   2.998   3.206  0.8301  0.3317  1.3471
 4368TIP3   OH213109   5.488   4.132   2.789 -0.3720  0.2141  0.6598
 4368TIP3    H113110   5.414   4.132   2.728  0.2838 -1.3317 -0.2170
 4368TIP3    H213111   5.491   4.042   2.821  1.4824  0.0739  0.1981
 4369TIP3   OH213112   2.229  -0.015   2.691 -0.1303  0.5707 -0.1366
 4369TIP3    H113113   2.288   0.041   2.741 -1.4993  2.0225 -0.0659
 4369TIP3    H213114   2.147   0.034   2.686 -0.7310 -0.4938 -1.9208
 4370TIP3   OH213115   2.400   3.318   4.998  0.2366 -0.2583  0.9361
 4370TIP3    H113116   2.424   3.410   4.996 -0.0025 -0.1960  0.7411
 4370TIP3    H213117   2.325   3.313   5.058 -1.8079  0.2152 -1.3981
 4371TIP3   OH213118   5.207   0.907   3.371 -0.5471 -0.5156 -0.2174
 4371TIP3    H113119   5.135   0.969   3.363  0.6647  1.1511  1.2629
 4371TIP3    H213120   5.185   0.854   3.448 -0.2060 -0.0076  0.2336
 4372TIP3   OH213121   5.371   2.241   5.160  0.4288  0.2703  0.2774
 4372TIP3    H113122   5.319   2.219   5.083  1.9823 -2.2843 -0.1696
 4372TIP3    H213123   5.456   2.268   5.125  1.5766 -2.1133  1.0146
 4373TIP3   OH213124   1.961   2.846   2.965  0.1245  0.3037  0.0259
 4373TIP3    H113125   1.917   2.883   2.889  0.9972  1.4985  0.0716
 4373TIP3    H213126   1.941   2.907   3.037 -2.2467 -1.7582  1.2736
 4374TIP3   OH213127   1.179   4.666   4.276 -0.0412  0.6541  0.7201
 4374TIP3    H113128   1.116   4.642   4.344 -0.7908 -0.6961 -0.4093
 4374TIP3    H213129   1.143   4.629   4.196  1.3225  1.3756 -0.2578
 4375TIP3   OH213130   3.182   2.929   2.246 -0.2446  0.1979 -0.0929
 4375TIP3    H113131   3.102   2.927   2.194  0.1822 -2.8087 -0.8333
 4375TIP3    H213132   3.151   2.937   2.337 -1.2669  0.8609 -0.4851
 4376TIP3   OH213133   2.349   4.247   3.774 -0.3058 -0.1236 -0.4800
 4376TIP3    H113134   2.324   4.237   3.682  0.1352 -1.9355 -0.4476
 4376TIP3    H213135   2.301   4.178   3.820  2.0668 -1.5206  0.0911
 4377TIP3   OH213136   0.356   1.023   3.378 -0.2559  0.2822 -0.1206
 4377TIP3    H113137   0.422   0.964   3.414  0.0774 -0.4827 -1.9146
 4377TIP3    H213138   0.273   0.989   3.410  0.1538  1.5135  2.5407
 4378TIP3   OH213139   2.628   1.672   2.260 -0.0833 -0.2792  0.2970
 4378TIP3    H113140   2.598   1.752   2.217 -0.4944 -1.1147 -1.0047
 4378TIP3    H213141   2.548   1.628   2.289  0.0749 -0.7753 -0.0110
 4379TIP3   OH213142   5.020   3.256   1.657  0.5187  0.1640  0.2964
 4379TIP3    H113143   5.007   3.209   1.739 -0.4814 -1.4794 -0.7454
 4379TIP3    H213144   5.112   3.280   1.657  0.5192  0.2439  1.9151
 4380TIP3   OH213145   2.144   2.923  -0.026 -0.0183  0.3583  0.1638
 4380TIP3    H113146   2.174   2.841   0.012  0.4103  0.2036 -0.4795
 4380TIP3    H213147   2.107   2.972   0.047  0.0192 -0.2721  0.6118
 4381TIP3   OH213148   5.170   0.484   3.934  0.0461 -0.2120  0.3542
 4381TIP3    H113149   5.188   0.454   4.023  0.3888  0.9170  0.6823
 4381TIP3    H213150   5.251   0.467   3.885 -0.4774 -1.7745 -0.0298
 4382TIP3   OH213151   0.361   4.477   3.403  0.0653 -0.0763 -0.4258
 4382TIP3    H113152   0.436   4.520   3.446 -1.8079  1.7112  1.2780
 4382TIP3    H213153   0.337   4.536   3.332 -1.0187  0.4658  0.3788
 4383TIP3   OH213154   2.049   4.597   0.520  0.1640  0.1493 -0.3756
 4383TIP3    H113155   2.031   4.512   0.560 -2.1608  0.4723 -0.6369
 4383TIP3    H213156   2.035   4.584   0.427 -0.4111  0.8655 -0.3972
 4384TIP3   OH213157   0.404   1.507   0.992 -0.1546 -0.2426 -0.0328
 4384TIP3    H113158   0.311   1.512   0.967 -0.4727  1.9808  1.3246
 4384TIP3    H213159   0.433   1.422   0.959 -3.2642 -2.0677  1.4711
 4385TIP3   OH213160   2.745   4.205   5.050  0.2324 -0.9624 -0.8981
 4385TIP3    H113161   2.786   4.267   4.990 -0.3162 -0.6221 -0.9272
 4385TIP3    H213162   2.809   4.134   5.058  0.4382 -0.8697 -1.6448
 4386TIP3   OH213163   0.080   2.113   2.956 -0.1763 -0.7850  0.0822
 4386TIP3    H113164   0.058   2.188   2.901 -1.7872 -1.0954  0.2326
 4386TIP3    H213165   0.021   2.044   2.925 -0.4763 -1.2371  1.5780
 4387TIP3   OH213166   2.609   3.633   1.859 -0.4413  0.3047  0.5258
 4387TIP3    H113167   2.573   3.574   1.793 -0.9263  0.1756  0.9012
 4387TIP3    H213168   2.543   3.703   1.867  1.2612  2.3746 -1.8147
 4388TIP3   OH213169   2.268   2.909   1.135  0.3671 -0.0389  0.2883
 4388TIP3    H113170   2.255   2.853   1.211 -1.5898 -1.1290 -0.7871
 4388TIP3    H213171   2.194   2.970   1.138  1.2478  1.0644  0.1980
 4389TIP3   OH213172   3.563   3.195   1.787 -0.2442 -0.4284 -0.0578
 4389TIP3    H113173   3.585   3.138   1.861  1.9760 -0.5413 -0.7201
 4389TIP3    H213174   3.510   3.141   1.729  1.2800 -1.6920 -0.3678
 4390TIP3   OH213175   4.193   5.459   4.015  0.3141  0.4212 -0.1298
 4390TIP3    H113176   4.212   5.468   3.922 -0.7429  1.4197 -0.2707
 4390TIP3    H213177   4.279   5.462   4.058  0.8591 -0.6773 -1.0922
 4391TIP3   OH213178   5.079   0.660   2.692  0.1885  0.1324  0.2796
 4391TIP3    H113179   5.036   0.725   2.746  0.8540 -0.2347  1.2929
 4391TIP3    H213180   5.011   0.628   2.633 -0.2916  1.2894  0.1871
 4392TIP3   OH213181   1.747   2.100   1.323 -0.5418 -0.0879 -0.3275
 4392TIP3    H113182   1.715   2.096   1.233  0.3575 -1.1356 -0.6173
 4392TIP3    H213183   1.710   2.022   1.365 -1.7409  0.8774  0.5062
 4393TIP3   OH213184   2.209   3.807   2.424  0.0591 -0.2777 -0.0985
 4393TIP3    H113185   2.185   3.719   2.396  1.0402 -0.5192 -0.2202
 4393TIP3    H213186   2.156   3.823   2.502 -0.2666 -0.8977 -0.1892
 4394TIP3   OH213187   6.023   5.020   0.420 -0.2008 -0.0390 -0.3908
 4394TIP3    H113188   6.025   5.106   0.377  0.5859  0.4295  0.5407
 4394TIP3    H213189   5.971   5.035   0.499 -0.1404 -0.4419 -0.2766
 4395TIP3   OH213190   6.116   3.668   4.056 -0.5358  0.0561 -0.0645
 4395TIP3    H113191   6.074   3.716   4.128  0.2083 -2.3904  2.1656
 4395TIP3    H213192   6.049   3.609   4.023 -0.4889  0.2131 -0.4375
 4396TIP3   OH213193   5.165   0.595   0.596  0.3368 -0.1645  0.4045
 4396TIP3    H113194   5.226   0.639   0.655  2.8192 -0.9387 -1.4015
 4396TIP3    H213195   5.132   0.664   0.539  0.5939  0.0631  0.5296
 4397TIP3   OH213196   0.163   4.352   3.719  0.0002  0.2332  0.3125
 4397TIP3    H113197   0.248   4.388   3.745 -0.0049  0.2275  0.3368
 4397TIP3    H213198   0.163   4.262   3.753  0.5289 -0.2231 -0.8393
 4398TIP3   OH213199   3.005   5.963   1.304  0.2707  0.1843 -0.1599
 4398TIP3    H113200   2.973   6.042   1.260  0.4358 -0.5672 -1.7189
 4398TIP3    H213201   3.061   5.921   1.238  0.7465 -0.8667  0.8888
 4399TIP3   OH213202   1.647   5.455   4.544 -0.0929 -0.3875 -0.0854
 4399TIP3    H113203   1.719   5.392   4.547 -0.0464 -0.3050  0.8173
 4399TIP3    H213204   1.614   5.458   4.633 -1.4890 -0.7218 -0.5612
 4400TIP3   OH213205   1.069   0.920   0.453  0.0586  0.0479 -0.2111
 4400TIP3    H113206   1.159   0.889   0.466 -0.6398 -2.3677 -0.5594
 4400TIP3    H213207   1.054   0.980   0.526  0.8903 -2.1315  1.9352
 4401TIP3   OH213208   0.339   2.484   1.331 -0.8711 -0.6758 -0.1384
 4401TIP3    H113209   0.372   2.464   1.244 -0.0618 -1.1695  0.2631
 4401TIP3    H213210   0.413   2.464   1.389 -1.1691  0.2955  0.5932
 4402TIP3   OH213211   1.686   0.165   4.763  0.5294 -0.6467 -0.2730
 4402TIP3    H113212   1.680   0.123   4.677  1.0318 -1.7075  0.1970
 4402TIP3    H213213   1.680   0.259   4.744 -2.0928 -0.9135 -1.2394
 4403TIP3   OH213214   1.306   4.605   1.140  0.2337  0.2400  0.0873
 4403TIP3    H113215   1.269   4.657   1.068  1.6898  0.5892 -0.4383
 4403TIP3    H213216   1.298   4.514   1.110  2.0408  0.4421 -1.1653
 4404TIP3   OH213217   4.174   1.555   1.191 -0.2516  0.1289  0.6861
 4404TIP3    H113218   4.222   1.636   1.175 -0.4706  0.5348  1.9345
 4404TIP3    H213219   4.092   1.567   1.143 -0.9050  1.3136  1.9998
 4405TIP3   OH213220   4.123   2.937   0.512 -0.4350  0.4931 -0.2453
 4405TIP3    H113221   4.110   2.971   0.601  2.7063  0.8730  0.1845
 4405TIP3    H213222   4.056   2.981   0.459 -2.3130  0.3444  1.8606
 4406TIP3   OH213223   0.789   3.289   4.989 -0.3031 -0.2911 -0.1379
 4406TIP3    H113224   0.705   3.245   4.978 -0.3020 -0.2168 -0.4552
 4406TIP3    H213225   0.778   3.374   4.947  0.5259 -1.0151 -1.9322
 4407TIP3   OH213226   0.813   4.113   2.514 -0.2543  0.3729  0.1726
 4407TIP3    H113227   0.768   4.048   2.567  0.9539  0.8474  1.8587
 4407TIP3    H213228   0.858   4.169   2.577  0.7320  1.3654 -1.3343
 4408TIP3   OH213229   2.655   2.853   2.890  0.0436  0.4445 -0.0255
 4408TIP3    H113230   2.697   2.824   2.809 -0.8348  0.6919 -0.5836
 4408TIP3    H213231   2.723   2.900   2.937  0.6475  0.0503 -0.4836
 4409TIP3   OH213232   5.517   0.779   0.515 -0.3527  0.4714 -0.6826
 4409TIP3    H113233   5.457   0.819   0.452 -2.0403  0.9628  1.1327
 4409TIP3    H213234   5.461   0.751   0.587  1.4297 -0.5856  0.3627
 4410TIP3   OH213235   2.396   3.235   3.368  0.5737 -0.7017 -0.2295
 4410TIP3    H113236   2.344   3.174   3.420  1.0635 -0.9553 -0.0193
 4410TIP3    H213237   2.353   3.320   3.378 -0.0137 -0.9826 -0.3827
 4411TIP3   OH213238   3.185   4.809   1.418 -0.0690 -0.2178  0.1168
 4411TIP3    H113239   3.277   4.822   1.442  0.4161  0.1227 -1.8192
 4411TIP3    H213240   3.165   4.720   1.445  0.9543 -0.4373  0.1821
 4412TIP3   OH213241   1.970   1.530   2.046 -0.0854 -0.3351  0.4780
 4412TIP3    H113242   1.955   1.582   2.125 -0.5171 -1.3783  1.1125
 4412TIP3    H213243   1.992   1.594   1.979 -0.5647  0.6613  1.2348
 4413TIP3   OH213244   2.334   1.521   4.115 -0.2306 -0.6806  0.0257
 4413TIP3    H113245   2.365   1.548   4.201  0.6799 -1.4445 -0.0464
 4413TIP3    H213246   2.369   1.433   4.103 -0.5758 -0.6961 -1.0102
 4414TIP3   OH213247   0.960   2.120   1.968 -0.1347 -0.6058  0.0664
 4414TIP3    H113248   0.932   2.162   2.050 -0.0555  1.0731 -0.7321
 4414TIP3    H213249   0.935   2.028   1.979 -2.1707  0.0013  1.0992
 4415TIP3   OH213250   0.391   5.386   4.310  0.3975  0.1075  0.0784
 4415TIP3    H113251   0.472   5.409   4.357 -0.0558 -0.1887  1.0119
 4415TIP3    H213252   0.324   5.440   4.351  0.0761  0.2340 -0.5945
 4416TIP3   OH213253   2.002   0.190   4.691  0.1669 -0.0186  0.2017
 4416TIP3    H113254   1.969   0.202   4.780  2.1472  1.4137  0.8250
 4416TIP3    H213255   1.987   0.098   4.671 -0.9676 -0.1948  1.7430
 4417TIP3   OH213256   3.886   1.685   2.775  0.3215  0.7388 -0.6919
 4417TIP3    H113257   3.839   1.706   2.856  0.6448 -0.7192 -0.0860
 4417TIP3    H213258   3.944   1.760   2.760  0.3535  0.9752  0.5093
 4418TIP3   OH213259   4.513   3.169   2.963  0.1669 -0.2523  0.0542
 4418TIP3    H113260   4.449   3.202   2.900  1.1590  2.2213  0.2127
 4418TIP3    H213261   4.588   3.142   2.910 -0.1256 -1.0306  0.0190
 4419TIP3   OH213262   2.253   2.470   0.280 -0.4664  0.5544  0.2005
 4419TIP3    H113263   2.259   2.549   0.226  1.3225 -1.0485 -2.1606
 4419TIP3    H213264   2.216   2.404   0.221 -1.8888 -0.4474  2.1132
 4420TIP3   OH213265   2.891   1.780   3.249  0.3534 -0.0992  0.2731
 4420TIP3    H113266   2.856   1.839   3.316 -1.2359 -0.7602  0.0733
 4420TIP3    H213267   2.983   1.805   3.240  0.5053  0.2559  2.4207
 4421TIP3   OH213268   4.297   2.362   1.596  1.1139 -0.2940 -0.0782
 4421TIP3    H113269   4.339   2.438   1.556  0.9520 -0.0363  0.2419
 4421TIP3    H213270   4.282   2.387   1.687  1.4553 -0.8671  0.1453
 4422TIP3   OH213271   0.868   0.351   4.235  0.2579 -0.2706  0.0872
 4422TIP3    H113272   0.921   0.318   4.307 -0.2396  0.3900  0.7677
 4422TIP3    H213273   0.926   0.412   4.189  0.2049  0.1708  0.6057
 4423TIP3   OH213274   0.421   4.959   2.818 -0.2085  0.6345 -0.1183
 4423TIP3    H113275   0.487   5.015   2.857  0.2689 -0.2884  0.4291
 4423TIP3    H213276   0.467   4.878   2.796 -0.7701  0.6166 -1.3370
 4424TIP3   OH213277   4.671   0.465   2.013 -0.0929  0.3504 -0.0665
 4424TIP3    H113278   4.698   0.485   1.923 -0.4285  1.5818  0.0959
 4424TIP3    H213279   4.583   0.500   2.020 -0.2234 -0.1080  0.6296
 4425TIP3   OH213280   5.618   4.705   2.760 -0.1382  0.4102 -0.3739
 4425TIP3    H113281   5.553   4.740   2.821 -0.2212 -2.1776  1.1821
 4425TIP3    H213282   5.570   4.640   2.709  1.4033 -3.0250  2.1424
 4426TIP3   OH213283   3.931   1.810   4.639  0.0357 -0.6336 -0.3226
 4426TIP3    H113284   3.864   1.745   4.662 -0.5202 -0.5198 -1.5564
 4426TIP3    H213285   3.998   1.800   4.707 -0.6328 -1.6301  0.2154
 4427TIP3   OH213286   5.412   2.346   3.339  0.4056 -0.5032  0.3284
 4427TIP3    H113287   5.507   2.345   3.353  0.4042 -1.1887  0.3179
 4427TIP3    H213288   5.379   2.410   3.403  1.2934  3.2840 -2.6112
 4428TIP3   OH213289   1.353   0.241   2.394 -0.5878 -0.2726 -0.1497
 4428TIP3    H113290   1.362   0.329   2.356  0.7371 -0.6686 -0.8219
 4428TIP3    H213291   1.290   0.197   2.337 -2.3917  0.6745  1.0499
 4429TIP3   OH213292   0.542   4.719   0.659 -0.0857 -0.2524 -0.3182
 4429TIP3    H113293   0.513   4.651   0.598 -0.7517  0.4046 -0.7645
 4429TIP3    H213294   0.543   4.799   0.606 -0.1544  0.2330  0.3994
 4430TIP3   OH213295   3.364   3.001   3.933  0.2161  0.4858  0.0265
 4430TIP3    H113296   3.315   2.943   3.993 -1.3152  1.3441 -0.3305
 4430TIP3    H213297   3.438   2.948   3.904 -0.3815 -0.8154  0.7640
 4431TIP3   OH213298   2.250   2.859   1.410 -0.0290  0.0326  0.1308
 4431TIP3    H113299   2.206   2.840   1.493  1.8232  0.2076  1.2104
 4431TIP3    H213300   2.310   2.930   1.431 -0.9631  1.4906 -1.8852
 4432TIP3   OH213301   1.085   2.702   4.101 -0.4406 -0.2584  0.4676
 4432TIP3    H113302   1.164   2.712   4.048 -0.7514  1.5140  0.2696
 4432TIP3    H213303   1.027   2.772   4.070 -1.4588 -0.5234  1.7045
 4433TIP3   OH213304   5.006   2.709   0.652  0.3958 -0.0042 -0.2143
 4433TIP3    H113305   4.976   2.624   0.620  0.6266  0.4391 -1.6884
 4433TIP3    H213306   4.928   2.749   0.691 -0.0170 -0.3785 -0.6406
 4434TIP3   OH213307   1.570   1.507   2.974 -0.4074 -0.2847  0.1321
 4434TIP3    H113308   1.526   1.545   2.899  1.4487 -0.7831 -1.2966
 4434TIP3    H213309   1.607   1.582   3.021 -0.4878 -0.0530 -0.1740
 4435TIP3   OH213310   2.562   1.564   2.780  0.4212  0.1972 -0.5373
 4435TIP3    H113311   2.646   1.602   2.806  1.3627 -1.4836 -0.9842
 4435TIP3    H213312   2.541   1.608   2.697  0.3804  1.2976  0.0450
 4436TIP3   OH213313   4.059   4.754   4.338  0.3732  0.3564 -0.0551
 4436TIP3    H113314   4.009   4.778   4.259  1.4207  2.2816 -0.1932
 4436TIP3    H213315   4.149   4.747   4.307  0.3892 -2.0781  0.3917
 4437TIP3   OH213316   1.915   5.617   0.640  0.4187 -0.1089  0.4287
 4437TIP3    H113317   1.964   5.595   0.719  0.4040 -1.6250  0.0450
 4437TIP3    H213318   1.864   5.538   0.621  0.7379  0.0649 -1.3215
 4438TIP3   OH213319   5.461   3.649   0.789 -0.3281 -0.0810  0.2201
 4438TIP3    H113320   5.503   3.564   0.798  0.1890 -0.2565 -2.9088
 4438TIP3    H213321   5.526   3.704   0.747 -2.3313  0.2772 -2.7106
 4439TIP3   OH213322   1.058   5.713   2.284 -0.2771 -0.3518  0.4287
 4439TIP3    H113323   1.137   5.662   2.269  1.0884  1.4826  1.0462
 4439TIP3    H213324   1.029   5.688   2.372  0.2284 -0.2753  0.6168
 4440TIP3   OH213325   2.885   2.663   2.834 -0.1678 -0.1610 -0.4724
 4440TIP3    H113326   2.977   2.661   2.808 -0.3452 -2.0302 -1.1192
 4440TIP3    H213327   2.836   2.666   2.752 -0.7032  0.2224 -0.1497
 4441TIP3   OH213328   4.706   2.809   1.990 -0.3001  0.2835 -0.1693
 4441TIP3    H113329   4.742   2.864   1.921 -1.2415  1.4064  0.1985
 4441TIP3    H213330   4.616   2.790   1.963 -0.0348 -1.0117 -0.2332
 4442TIP3   OH213331   5.580   5.477   4.827  0.6602 -0.0539  0.0036
 4442TIP3    H113332   5.648   5.481   4.894 -0.3212  0.0085  1.0339
 4442TIP3    H213333   5.542   5.390   4.836  0.1399  0.1598 -0.0765
 4443TIP3   OH213334   1.183   3.736   4.021 -0.0083  0.3415  0.1531
 4443TIP3    H113335   1.175   3.707   3.929  1.3728  0.7603 -0.1134
 4443TIP3    H213336   1.144   3.664   4.071 -1.5973  0.4877 -0.7828
 4444TIP3   OH213337   4.508   4.621   0.349 -0.3098 -0.2048 -0.5892
 4444TIP3    H113338   4.590   4.643   0.393 -0.7336  0.8243 -0.2833
 4444TIP3    H213339   4.440   4.664   0.401 -0.8191  1.2608 -2.3418
 4445TIP3   OH213340   1.998   4.145   3.981 -0.1304 -0.4265  0.5613
 4445TIP3    H113341   2.082   4.104   3.957  0.8905  2.0475 -0.4761
 4445TIP3    H213342   2.023   4.232   4.014 -2.3129  0.6845 -0.5208
 4446TIP3   OH213343   4.867   2.016   3.596  0.0259  0.1064 -0.2838
 4446TIP3    H113344   4.889   1.982   3.683 -0.0601 -2.7754 -1.2720
 4446TIP3    H213345   4.773   2.002   3.587  0.5205 -2.9674 -2.0190
 4447TIP3   OH213346   4.326   4.199   1.247  0.3885 -0.4938 -0.8304
 4447TIP3    H113347   4.277   4.160   1.175  1.5160 -0.3254 -1.7063
 4447TIP3    H213348   4.345   4.288   1.218 -0.9705  0.3106  0.5777
 4448TIP3   OH213349   0.304   0.522   1.292 -0.1333 -0.5698 -0.3060
 4448TIP3    H113350   0.240   0.469   1.245 -1.1206  1.1570 -1.0152
 4448TIP3    H213351   0.273   0.612   1.282  1.3373  0.1475  1.0366
 4449TIP3   OH213352   5.349   4.287   3.849 -0.4861  0.1070  0.1723
 4449TIP3    H113353   5.286   4.352   3.880  1.1485  0.5364  2.9846
 4449TIP3    H213354   5.432   4.335   3.845  0.3785 -1.3245  0.3316
 4450TIP3   OH213355   4.203   4.555   2.413 -0.0170  0.5834 -0.1126
 4450TIP3    H113356   4.134   4.544   2.348 -0.3336 -0.7047  0.4219
 4450TIP3    H213357   4.169   4.513   2.492  1.4105 -0.1809  0.1270
 4451TIP3   OH213358   0.228   1.969   1.936  0.0624  0.0410  0.0187
 4451TIP3    H113359   0.304   2.020   1.964  0.2329 -0.4026  0.3711
 4451TIP3    H213360   0.242   1.953   1.843  0.0030  0.6425 -0.0977
 4452TIP3   OH213361   4.965   5.033   0.562  0.6333  0.7228 -0.2380
 4452TIP3    H113362   4.952   5.115   0.610 -0.9121  0.1605  0.3725
 4452TIP3    H213363   4.897   5.033   0.495  1.2760  0.3947 -0.9076
 4453TIP3   OH213364   6.316   0.200   0.955  0.1292 -0.6234  0.0998
 4453TIP3    H113365   6.355   0.115   0.975  1.1879  0.0528  1.0237
 4453TIP3    H213366   6.262   0.219   1.032  1.4352  0.3944  0.8090
 4454TIP3   OH213367   5.424   0.339   1.357 -0.3813 -0.2473 -0.1089
 4454TIP3    H113368   5.404   0.284   1.281  1.9310 -0.4021 -0.6686
 4454TIP3    H213369   5.372   0.301   1.427  0.8052 -2.9980 -0.5601
 4455TIP3   OH213370   2.211   4.826   0.188  0.4935  0.2786  0.1323
 4455TIP3    H113371   2.225   4.836   0.094  0.6371 -1.0750 -0.0059
 4455TIP3    H213372   2.154   4.750   0.197  1.9187 -0.7212  1.1978
 4456TIP3   OH213373   3.301   2.567   2.377 -0.3873 -0.5800 -0.0674
 4456TIP3    H113374   3.265   2.480   2.396  0.4664 -0.5716  1.8706
 4456TIP3    H213375   3.236   2.628   2.411 -0.8549 -0.4348 -1.1743
 4457TIP3   OH213376   0.066   4.188   4.094  0.0248  0.2215 -0.4050
 4457TIP3    H113377   0.086   4.157   4.182  0.0318  0.1031 -0.4480
 4457TIP3    H213378   0.145   4.235   4.066  0.3326 -0.4322 -0.6598
 4458TIP3   OH213379   5.485   4.206   2.376 -0.1138  0.2177  0.1382
 4458TIP3    H113380   5.418   4.184   2.312 -0.4951  1.3618  0.1275
 4458TIP3    H213381   5.556   4.243   2.324 -0.2524  0.7584  0.3313
 4459TIP3   OH213382   2.789   0.323   1.529  0.8075  1.0788 -0.2589
 4459TIP3    H113383   2.711   0.361   1.571  1.2357  0.8803  0.7396
 4459TIP3    H213384   2.767   0.231   1.518  0.4482  1.2456 -1.0959
 4460TIP3   OH213385   4.038   2.142   3.950 -0.7054 -0.2450  0.7495
 4460TIP3    H113386   4.036   2.157   4.044  0.1776 -1.0275  0.9070
 4460TIP3    H213387   3.951   2.167   3.919 -0.7451  0.7739  1.6476
 4461TIP3   OH213388   4.037   1.407   4.287  0.8124 -0.1307 -0.3990
 4461TIP3    H113389   4.032   1.496   4.322 -2.1941  0.3022 -1.7070
 4461TIP3    H213390   3.982   1.355   4.346  1.6890 -0.9455 -0.2716
 4462TIP3   OH213391   0.658   5.538   4.735 -0.7067  0.3679 -0.2150
 4462TIP3    H113392   0.583   5.483   4.759 -0.3873 -0.6921 -1.4776
 4462TIP3    H213393   0.725   5.517   4.800 -0.9142 -0.0336 -0.1231
 4463TIP3   OH213394   2.755   1.053   0.107  0.0448  0.0213 -0.1877
 4463TIP3    H113395   2.687   1.105   0.064  1.1930  1.0995 -0.7919
 4463TIP3    H213396   2.833   1.109   0.105  1.5399 -1.9438 -1.4320
 4464TIP3   OH213397   0.686   0.780   1.556 -0.0684  0.5458  0.5768
 4464TIP3    H113398   0.644   0.707   1.511 -0.1265 -0.9162  2.9027
 4464TIP3    H213399   0.779   0.770   1.537  0.0450 -0.7893  1.7528
 4465TIP3   OH213400   2.770   1.842   1.761 -0.3890 -0.2501 -0.5925
 4465TIP3    H113401   2.803   1.811   1.676  0.7715 -1.9382  0.4255
 4465TIP3    H213402   2.676   1.824   1.757 -0.4901  0.3962 -1.7911
 4466TIP3   OH213403   3.625   2.072   0.886  0.2929 -0.3613  0.3722
 4466TIP3    H113404   3.619   2.122   0.804  0.8750  0.2102  0.6685
 4466TIP3    H213405   3.636   2.138   0.954  1.7242 -0.9018  0.7066
 4467TIP3   OH213406   5.250   4.071   2.253 -0.6376  0.0219 -0.1646
 4467TIP3    H113407   5.249   4.126   2.174  0.6237  0.2915 -0.0077
 4467TIP3    H213408   5.157   4.063   2.277 -0.8562  3.0332  0.4446
 4468TIP3   OH213409   3.292   5.061   1.862  0.2736  0.3488  0.5781
 4468TIP3    H113410   3.211   5.009   1.863 -0.0627  0.8633  0.3794
 4468TIP3    H213411   3.262   5.152   1.870  0.8314  0.5454  0.4510
 4469TIP3   OH213412   2.971   4.756   5.120 -0.0449 -0.7112 -0.4504
 4469TIP3    H113413   3.003   4.674   5.157  0.4993 -0.9207 -1.3510
 4469TIP3    H213414   2.877   4.741   5.107 -0.4156 -0.3630  1.4979
 4470TIP3   OH213415   2.134   0.643   4.345  0.5880  0.5123 -0.2871
 4470TIP3    H113416   2.223   0.619   4.320  0.4837 -0.5901  0.3778
 4470TIP3    H213417   2.081   0.623   4.268  0.7377  0.0241 -0.2659
 4471TIP3   OH213418   0.912   1.444   4.567 -0.0432 -0.4115 -0.0726
 4471TIP3    H113419   0.861   1.449   4.648  1.2495 -0.6310  0.7655
 4471TIP3    H213420   0.879   1.366   4.523 -0.7014 -0.3312  0.2583
 4472TIP3   OH213421   1.056   5.843   3.037  0.1750  0.3298  0.2002
 4472TIP3    H113422   1.081   5.808   3.123 -1.0172 -0.6654  0.1660
 4472TIP3    H213423   1.016   5.928   3.057 -1.3256 -0.4790  0.7996
 4473TIP3   OH213424   4.393   3.936   3.440 -0.2000 -0.2776  0.4380
 4473TIP3    H113425   4.339   3.978   3.506  1.5604  0.4323  1.4796
 4473TIP3    H213426   4.464   3.894   3.489 -1.5493 -4.1871 -0.5616
 4474TIP3   OH213427   6.137   2.324   0.813 -0.5286 -0.5807  0.2366
 4474TIP3    H113428   6.044   2.314   0.794 -0.3813 -1.4287 -0.0876
 4474TIP3    H213429   6.164   2.400   0.762 -1.1037 -0.1340  0.5802
 4475TIP3   OH213430   5.387   3.487   3.097  0.3768  0.2698  0.5925
 4475TIP3    H113431   5.430   3.436   3.028 -0.0174  0.1744  0.4187
 4475TIP3    H213432   5.376   3.426   3.170  1.6240  0.6012  1.0965
 4476TIP3   OH213433   5.479   3.036   2.700 -0.0286 -0.4278 -0.8212
 4476TIP3    H113434   5.528   2.955   2.712  0.3049 -0.3153 -1.3790
 4476TIP3    H213435   5.525   3.100   2.753 -1.7088 -1.1136  1.6408
 4477TIP3   OH213436   4.664   4.543   3.793 -0.1381 -0.2643  0.0711
 4477TIP3    H113437   4.708   4.556   3.709  0.7191 -0.0682  0.5382
 4477TIP3    H213438   4.589   4.488   3.772  0.2772 -0.5364 -0.7631
 4478TIP3   OH213439   6.320   2.131   0.659  0.5096 -0.5133 -0.2179
 4478TIP3    H113440   6.316   2.174   0.573 -0.8153 -2.3536 -1.1450
 4478TIP3    H213441   6.302   2.201   0.722 -4.2891  0.0658 -1.7968
 4479TIP3   OH213442   3.013   2.656   2.214 -0.2946 -0.1252 -0.8089
 4479TIP3    H113443   3.082   2.692   2.156 -1.7286 -0.5232 -2.8681
 4479TIP3    H213444   2.932   2.689   2.176 -1.3548 -1.3047  0.3886
 4480TIP3   OH213445   2.511   2.434   1.669  0.5607  0.1635 -0.2354
 4480TIP3    H113446   2.430   2.386   1.653  1.0811 -0.8508  0.0390
 4480TIP3    H213447   2.506   2.458   1.761  0.1928  0.8640 -0.4314
 4481TIP3   OH213448   3.169   4.502   4.913  0.6780  0.2528 -0.1845
 4481TIP3    H113449   3.110   4.518   4.839  0.3777 -1.5067 -0.3883
 4481TIP3    H213450   3.154   4.410   4.935  1.6526  0.4177  1.2905
 4482TIP3   OH213451   4.299   3.154   3.270  0.0479  0.2686  0.1807
 4482TIP3    H113452   4.390   3.148   3.299  0.2052 -0.0073 -0.3488
 4482TIP3    H213453   4.292   3.239   3.227  0.0059  0.3615  0.3666
 4483TIP3   OH213454   1.866   0.298   0.476 -0.0280 -0.3106 -0.4618
 4483TIP3    H113455   1.891   0.273   0.565 -1.4734  1.6700  0.5816
 4483TIP3    H213456   1.942   0.275   0.423  1.1572 -0.9057  1.3925
 4484TIP3   OH213457   3.361   3.198   2.838 -0.1869 -0.0714 -0.0421
 4484TIP3    H113458   3.369   3.279   2.787  0.4215  0.7489  1.3083
 4484TIP3    H213459   3.414   3.134   2.790  1.8819  1.1650  0.4847
 4485TIP3   OH213460   2.382   0.225   2.461  0.0101  0.2459  0.0730
 4485TIP3    H113461   2.332   0.282   2.403  1.2372  2.2981  0.9097
 4485TIP3    H213462   2.317   0.183   2.517 -1.1714 -1.4616 -2.3724
 4486TIP3   OH213463   2.276   5.416   1.335 -0.0051 -0.5383  0.1364
 4486TIP3    H113464   2.274   5.354   1.407  0.9028 -0.2062  0.4659
 4486TIP3    H213465   2.265   5.502   1.377 -3.3723 -0.5288 -0.4905
 4487TIP3   OH213466   3.638   1.577   3.999 -0.2061  0.2465 -0.5101
 4487TIP3    H113467   3.675   1.506   4.051  2.7251  2.1378  0.2099
 4487TIP3    H213468   3.563   1.608   4.050 -0.5508 -1.2728 -0.0529
 4488TIP3   OH213469   3.340   4.015   4.864  0.5338  0.8551  0.5776
 4488TIP3    H113470   3.396   3.994   4.939  0.3462  1.1718  0.8105
 4488TIP3    H213471   3.298   3.933   4.842 -1.0626  1.1799  2.1943
 4489TIP3   OH213472   4.496   1.689   2.794 -0.3245  0.3180 -0.4666
 4489TIP3    H113473   4.513   1.763   2.851  0.4630 -0.1668 -0.0647
 4489TIP3    H213474   4.400   1.682   2.792 -0.3780 -0.2890  1.6468
 4490TIP3   OH213475   3.765   2.120   2.446 -0.4030 -0.0931 -0.0250
 4490TIP3    H113476   3.796   2.156   2.529 -1.4311  0.9471 -0.0723
 4490TIP3    H213477   3.787   2.186   2.381 -0.5870 -0.4128 -0.4169
 4491TIP3   OH213478   1.718   5.024   2.233 -0.0783 -0.1221  0.5386
 4491TIP3    H113479   1.798   5.028   2.180 -0.6104  0.7791 -0.2341
 4491TIP3    H213480   1.647   5.026   2.169 -0.7401  0.8131  1.2773
 4492TIP3   OH213481   0.140   5.728   1.629  0.0351 -0.8080  0.0391
 4492TIP3    H113482   0.106   5.686   1.707 -0.5912 -2.3683 -1.0090
 4492TIP3    H213483   0.129   5.662   1.560  1.0848  0.2930 -1.2466
 4493TIP3   OH213484   3.676   0.780   3.998  0.3225  0.3387 -0.5909
 4493TIP3    H113485   3.675   0.699   4.048  1.4245  0.3692 -0.4977
 4493TIP3    H213486   3.660   0.849   4.062 -1.9299  0.1396 -0.8603
 4494TIP3   OH213487   0.827   4.002   3.300  0.0035  0.0728 -0.4455
 4494TIP3    H113488   0.814   4.035   3.211  0.5658 -0.0335 -0.5727
 4494TIP3    H213489   0.844   4.081   3.352 -0.0496  0.1109 -0.4857
 4495TIP3   OH213490   3.029   2.104   2.466  0.2438 -0.2029 -0.2876
 4495TIP3    H113491   3.048   2.030   2.407 -0.8799 -0.7809  0.0520
 4495TIP3    H213492   3.032   2.066   2.554  2.4825  0.7696  0.1330
 4496TIP3   OH213493   3.441   1.013  -0.014  0.3667 -0.3135 -0.2215
 4496TIP3    H113494   3.462   1.072   0.059  1.1815 -0.4926 -0.3009
 4496TIP3    H213495   3.493   0.935   0.003  0.8677 -0.2067 -1.1924
 4497TIP3   OH213496   5.606   2.947   4.859  0.4341  0.1215  0.0728
 4497TIP3    H113497   5.561   3.017   4.812 -0.2712 -0.7383 -0.5658
 4497TIP3    H213498   5.561   2.944   4.944  1.2619  1.2187  0.5816
 4498TIP3   OH213499   5.251   0.468   0.884  0.0378  0.1471 -0.1429
 4498TIP3    H113500   5.223   0.470   0.792 -0.7301  0.3446  0.0879
 4498TIP3    H213501   5.324   0.406   0.885 -0.6675 -0.7273 -0.6912
 4499TIP3   OH213502   3.478   2.249   0.730  0.0216  0.0481 -0.1780
 4499TIP3    H113503   3.399   2.205   0.698  0.0095  0.0072 -0.0930
 4499TIP3    H213504   3.446   2.307   0.799  0.0368  0.1965 -0.2965
 4500TIP3   OH213505   3.507   5.151   4.622  0.6860  0.4392  0.6012
 4500TIP3    H113506   3.532   5.182   4.709 -0.1650  1.1725  0.6037
 4500TIP3    H213507   3.556   5.070   4.610 -1.0498 -1.0946  2.8431
 4501TIP3   OH213508   3.200   4.490   1.144 -0.1708 -0.1398  0.2109
 4501TIP3    H113509   3.199   4.505   1.238 -1.9135  0.5447  0.1265
 4501TIP3    H213510   3.213   4.577   1.106 -0.1352 -0.3176 -0.1908
 4502TIP3   OH213511   4.000   3.453   1.600 -0.2060  0.1501  0.3280
 4502TIP3    H113512   4.045   3.463   1.684 -1.2445  1.3120  0.7825
 4502TIP3    H213513   4.060   3.401   1.546  0.4811 -0.6124  1.7726
 4503TIP3   OH213514   4.086   3.322   2.603 -0.1161 -0.2773  0.3294
 4503TIP3    H113515   4.116   3.237   2.637 -0.4263 -0.2948  0.5640
 4503TIP3    H213516   4.130   3.386   2.659  0.8247 -0.2515 -0.4156
 4504TIP3   OH213517   0.987   5.500   3.340  0.2369  0.1794 -0.3318
 4504TIP3    H113518   0.927   5.444   3.292 -0.2765  2.0006 -1.9436
 4504TIP3    H213519   0.953   5.501   3.429 -1.6030  0.4156 -0.9961
 4505TIP3   OH213520   5.914   0.043   1.262 -0.4870  0.0479  0.0125
 4505TIP3    H113521   5.881  -0.011   1.334 -0.3221  1.8022  1.4908
 4505TIP3    H213522   5.860   0.020   1.187 -1.3807 -1.0767  0.9642
 4506TIP3   OH213523   2.535   1.529   4.381 -0.2951  0.1319 -0.0161
 4506TIP3    H113524   2.447   1.526   4.418 -0.2744  1.8371  0.2533
 4506TIP3    H213525   2.582   1.459   4.426 -1.6111 -1.1200 -0.5071
 4507TIP3   OH213526   4.194   3.589   5.050 -0.0599  0.6130  0.1269
 4507TIP3    H113527   4.237   3.540   5.120 -2.8150 -2.3103 -0.0075
 4507TIP3    H213528   4.254   3.583   4.976  1.9530  1.9797  1.5317
 4508TIP3   OH213529   3.479   5.414   0.902  0.0172 -0.7412  0.3348
 4508TIP3    H113530   3.467   5.347   0.835 -0.5214 -0.5428  0.2235
 4508TIP3    H213531   3.396   5.462   0.901  0.6502  0.3735 -0.0816
 4509TIP3   OH213532   6.214   4.629   4.807  0.1950  0.4610 -0.2844
 4509TIP3    H113533   6.231   4.717   4.775  2.3542 -0.4689 -1.9220
 4509TIP3    H213534   6.275   4.617   4.879 -1.3146  0.8419  1.1346
 4510TIP3   OH213535   5.373   2.699   2.879  0.5321 -0.2525 -0.0527
 4510TIP3    H113536   5.447   2.759   2.889 -0.0017  0.3134  0.5634
 4510TIP3    H213537   5.299   2.756   2.860  0.2648 -0.8279 -0.7999
 4511TIP3   OH213538   0.714   1.097   1.605 -0.8025  0.0548 -0.5519
 4511TIP3    H113539   0.636   1.117   1.657 -1.6855 -1.8888 -1.0337
 4511TIP3    H213540   0.784   1.088   1.669 -1.4953 -0.4994  0.1493
 4512TIP3   OH213541   0.549   0.840   4.681 -0.2119  0.8089 -0.6001
 4512TIP3    H113542   0.554   0.773   4.612  0.2215  0.3763 -0.1652
 4512TIP3    H213543   0.638   0.844   4.715 -0.1620  1.8497 -0.8332
 4513TIP3   OH213544   0.323   5.795   2.657 -0.2010  0.4069  0.1688
 4513TIP3    H113545   0.270   5.869   2.686 -0.8978 -0.4309  1.0652
 4513TIP3    H213546   0.261   5.724   2.642  0.2601  0.3903 -2.1829
 4514TIP3   OH213547   1.174   3.509   4.193 -0.2057 -0.5909 -0.1128
 4514TIP3    H113548   1.092   3.474   4.227 -0.8256 -0.1156 -1.0772
 4514TIP3    H213549   1.210   3.438   4.139 -0.5535 -0.4011 -0.5999
 4515TIP3   OH213550   1.540   2.755   0.023  0.7153 -0.0308  0.1288
 4515TIP3    H113551   1.498   2.679  -0.017  2.0043 -1.2537  0.9992
 4515TIP3    H213552   1.520   2.748   0.116  1.2413  0.4403  0.2875
 4516TIP3   OH213553   5.960   1.689   2.032 -0.0530  0.5481  0.3974
 4516TIP3    H113554   5.900   1.723   2.098  2.1122  2.7524  1.4017
 4516TIP3    H213555   6.037   1.662   2.082  0.3836 -0.8939 -0.9700
 4517TIP3   OH213556   0.881   1.106   2.555 -0.0330 -0.2686 -0.2704
 4517TIP3    H113557   0.787   1.107   2.571 -0.2112  1.3138 -1.1768
 4517TIP3    H213558   0.913   1.031   2.605 -1.6980 -0.5653  0.4275
 4518TIP3   OH213559   0.659   0.204   4.261 -0.5609  0.1943  0.2337
 4518TIP3    H113560   0.627   0.194   4.172 -1.7405  0.9168  0.5453
 4518TIP3    H213561   0.747   0.241   4.251 -1.2404  1.6773 -0.6309
 4519TIP3   OH213562   2.597   2.094   0.750 -0.0727 -0.2501  0.0928
 4519TIP3    H113563   2.564   2.086   0.660 -1.8338 -0.1181  0.6846
 4519TIP3    H213564   2.639   2.010   0.767  0.8822 -0.0375 -1.0626
 4520TIP3   OH213565   1.998   0.211   4.137  0.2423  0.2637  0.3561
 4520TIP3    H113566   1.932   0.271   4.103 -0.3533 -0.9380 -0.6579
 4520TIP3    H213567   2.002   0.231   4.231 -2.9295 -0.8614  0.8404
 4521TIP3   OH213568   2.254   1.857   2.545  0.3651 -0.0293  0.5426
 4521TIP3    H113569   2.256   1.816   2.631  0.2624 -0.6333  0.2592
 4521TIP3    H213570   2.161   1.858   2.522  0.3613  0.3999  0.5601
 4522TIP3   OH213571   0.074   0.091   4.501  0.1584 -0.1473 -0.1660
 4522TIP3    H113572   0.042   0.030   4.568  0.3933 -1.7527 -1.4524
 4522TIP3    H213573   0.100   0.169   4.550  0.4602 -1.3204  1.6236
 4523TIP3   OH213574   5.713   0.072   0.583  0.0976 -0.3868  0.7228
 4523TIP3    H113575   5.652   0.059   0.656 -0.8177  1.0556  0.2616
 4523TIP3    H213576   5.657   0.099   0.510  1.1882 -0.0655 -0.0199
 4524TIP3   OH213577   0.255   4.473   2.963  0.0817  1.0654  0.1293
 4524TIP3    H113578   0.295   4.502   2.881  1.3321  0.6554  0.5745
 4524TIP3    H213579   0.189   4.409   2.935 -0.2924  1.7648 -0.6223
 4525TIP3   OH213580   4.573   2.822   3.427 -0.0059  0.4028 -0.3459
 4525TIP3    H113581   4.532   2.893   3.476  0.0930  0.6369 -0.5976
 4525TIP3    H213582   4.667   2.838   3.435  0.0569 -0.3624  0.5695
 4526TIP3   OH213583   5.062   5.909   1.864 -0.4446 -0.8696  0.3662
 4526TIP3    H113584   5.053   5.947   1.777 -0.1672 -0.5542  0.4740
 4526TIP3    H213585   5.138   5.953   1.902 -0.4182 -1.1784  0.6771
 4527TIP3   OH213586   2.929   0.739   1.357  0.1950 -0.0985 -0.0539
 4527TIP3    H113587   2.907   0.784   1.439 -0.2721 -0.7712  0.1969
 4527TIP3    H213588   2.893   0.796   1.289  0.3977  0.3562  0.2070
 4528TIP3   OH213589   0.762   5.732   2.172 -0.6281  0.1099 -0.1946
 4528TIP3    H113590   0.761   5.682   2.254 -0.5064  0.1045 -0.1954
 4528TIP3    H213591   0.678   5.712   2.131 -1.4230  1.4590  0.7260
 4529TIP3   OH213592   3.739   4.299   0.796  0.2081 -0.0709 -0.0886
 4529TIP3    H113593   3.748   4.367   0.863  0.2674  1.5976 -1.7153
 4529TIP3    H213594   3.814   4.242   0.809 -0.4459 -0.5334  2.0372
 4530TIP3   OH213595   2.365   0.232   2.067 -0.0083 -0.3833 -0.6340
 4530TIP3    H113596   2.280   0.203   2.099  0.6256 -1.8076 -0.1664
 4530TIP3    H213597   2.344   0.301   2.004 -1.4555 -0.1324  0.0667
 4531TIP3   OH213598   1.893   3.475   4.600  0.1482 -0.0671 -0.0664
 4531TIP3    H113599   1.830   3.548   4.600 -0.1383 -0.3137 -0.0169
 4531TIP3    H213600   1.934   3.479   4.514  1.1145  0.9924  0.4098
 4532TIP3   OH213601   0.805   0.727   4.801  0.4656 -0.0088 -0.1414
 4532TIP3    H113602   0.756   0.654   4.762 -0.9593  0.7977  0.0854
 4532TIP3    H213603   0.876   0.743   4.739  0.0003 -0.6964 -0.8906
 4533TIP3   OH213604   4.817   1.514   1.878  0.3642 -0.1222 -0.0659
 4533TIP3    H113605   4.906   1.549   1.883  0.6724 -0.7480 -1.0164
 4533TIP3    H213606   4.784   1.520   1.968  0.8176  1.5053  0.0270
 4534TIP3   OH213607   3.676   4.064   2.381 -0.6728  0.2030  0.5331
 4534TIP3    H113608   3.765   4.031   2.394  0.1687  1.4058 -1.5682
 4534TIP3    H213609   3.623   3.986   2.367 -0.4478 -0.6833  3.9555
 4535TIP3   OH213610   1.997   2.906   4.782  0.2837  0.0574  0.7496
 4535TIP3    H113611   1.937   2.875   4.714  0.3500  3.0007 -0.8355
 4535TIP3    H213612   1.967   2.863   4.862 -0.8361 -2.2894 -0.8125
 4536TIP3   OH213613   4.173   0.850   0.924  0.0291  0.4538  0.8165
 4536TIP3    H113614   4.244   0.914   0.932  0.0983  0.5301 -0.2424
 4536TIP3    H213615   4.213   0.767   0.950  0.3881  0.5739  0.6568
 4537TIP3   OH213616   4.797   0.264   4.260  0.2187 -0.7337  0.1069
 4537TIP3    H113617   4.827   0.187   4.212 -4.1705 -0.4055 -3.8902
 4537TIP3    H213618   4.710   0.240   4.292 -0.0956  1.6699  1.2852
 4538TIP3   OH213619   2.432   4.312   3.423  0.0083  0.7115 -0.4313
 4538TIP3    H113620   2.524   4.290   3.437  0.3507  0.0998 -3.2263
 4538TIP3    H213621   2.387   4.228   3.426 -0.4728  0.9881  0.6985
 4539TIP3   OH213622   3.394   4.436   2.269  0.3538  0.0784  0.1643
 4539TIP3    H113623   3.360   4.367   2.213  1.0865 -0.6955  0.6528
 4539TIP3    H213624   3.486   4.414   2.281  0.4059  0.6954  0.9861
 4540TIP3   OH213625   3.715   1.145   3.379 -0.0812  0.4962 -0.5770
 4540TIP3    H113626   3.750   1.111   3.297  2.9563  1.4344  0.1991
 4540TIP3    H213627   3.624   1.115   3.381  0.7999 -2.7331 -2.4948
 4541TIP3   OH213628   3.610   1.189   4.466  1.0203  0.1445  0.6229
 4541TIP3    H113629   3.585   1.104   4.500  2.3488  0.3417  2.2063
 4541TIP3    H213630   3.527   1.234   4.450  0.2792 -1.7691 -1.2159
 4542TIP3   OH213631   2.010   5.069   4.521 -0.1315 -0.3335  0.6000
 4542TIP3    H113632   2.101   5.097   4.524  0.3198 -1.0092 -2.5933
 4542TIP3    H213633   2.005   5.013   4.443 -3.0421 -1.2357  1.3043
 4543TIP3   OH213634   6.014   1.565   4.726 -0.2523  0.5150 -0.0645
 4543TIP3    H113635   5.921   1.569   4.704  0.0717 -0.8522 -1.8707
 4543TIP3    H213636   6.050   1.647   4.691 -0.6521  0.7414  0.0480
 4544TIP3   OH213637   3.587   4.135   0.166  0.1107  0.2103 -0.2662
 4544TIP3    H113638   3.537   4.216   0.170 -0.7837 -0.3487  0.2805
 4544TIP3    H213639   3.628   4.128   0.253 -1.2406 -0.7754  0.3352
 4545TIP3   OH213640   3.882   4.744   2.626  0.7113 -0.3584  0.2079
 4545TIP3    H113641   3.905   4.825   2.671  0.0116 -0.6470  1.1177
 4545TIP3    H213642   3.883   4.767   2.533 -1.2286  1.2030  0.5094
 4546TIP3   OH213643   3.142   5.623   2.030  0.1150 -0.2035  0.8688
 4546TIP3    H113644   3.149   5.612   1.935 -0.0944  0.0877  0.8178
 4546TIP3    H213645   3.176   5.712   2.046  1.3600 -0.7235  1.2170
 4547TIP3   OH213646   1.287   5.895   2.457  0.3066 -0.6474 -0.0279
 4547TIP3    H113647   1.198   5.907   2.493  0.1934 -1.3975 -0.0366
 4547TIP3    H213648   1.295   5.963   2.391 -0.8450 -1.5121 -1.1070
 4548TIP3   OH213649   4.036   0.443   4.389  0.0479 -0.1320  0.0225
 4548TIP3    H113650   4.025   0.516   4.450 -0.0173 -0.8419  0.8775
 4548TIP3    H213651   3.978   0.464   4.316  0.0125  0.6580  0.2616
 4549TIP3   OH213652   1.852   3.772   4.285 -0.1420 -0.4799 -0.5872
 4549TIP3    H113653   1.924   3.712   4.302 -0.0855  0.0058  1.0877
 4549TIP3    H213654   1.773   3.720   4.297 -0.0903 -0.5625 -0.6063
 4550TIP3   OH213655   5.179   5.516   4.573  0.0790  0.5156  0.1373
 4550TIP3    H113656   5.219   5.525   4.487  1.7989 -1.4717  0.6495
 4550TIP3    H213657   5.239   5.561   4.632 -1.0028  1.7181  0.3799
 4551TIP3   OH213658   1.417   5.830   2.117 -0.3571 -0.2044 -0.1141
 4551TIP3    H113659   1.345   5.891   2.135  0.7499  1.1643 -0.1569
 4551TIP3    H213660   1.448   5.854   2.030  0.8996  0.0320  0.3690
 4552TIP3   OH213661   0.645   0.755   4.440 -0.4983  0.6762  0.0198
 4552TIP3    H113662   0.598   0.780   4.360  0.3609 -0.0999 -0.7476
 4552TIP3    H213663   0.723   0.709   4.409 -0.6788 -0.5944  1.3280
 4553TIP3   OH213664   4.549   3.602   4.188 -0.2107  0.3278  0.0357
 4553TIP3    H113665   4.624   3.614   4.129 -0.7270  1.2364 -0.4530
 4553TIP3    H213666   4.501   3.529   4.150 -0.0994  0.3768 -0.2038
 4554TIP3   OH213667   2.050   1.469   3.215  0.2155  0.1018 -0.3160
 4554TIP3    H113668   2.126   1.422   3.249  0.4006  1.3259  1.0454
 4554TIP3    H213669   2.073   1.562   3.222 -0.9560  0.4724 -0.9867
 4555TIP3   OH213670   4.008   3.435   2.364 -0.2995 -0.2116 -0.1968
 4555TIP3    H113671   3.975   3.461   2.450  1.1385 -1.8973  0.9354
 4555TIP3    H213672   4.089   3.486   2.354  0.3744 -1.1938  0.1870
 4556TIP3   OH213673   2.208   5.098   1.033  0.6764  0.2353  0.2652
 4556TIP3    H113674   2.182   5.096   0.941  0.4622  1.2379  0.2937
 4556TIP3    H213675   2.127   5.078   1.081  1.2282 -2.5246  0.2144
 4557TIP3   OH213676   2.315   1.571   2.686 -0.2410  0.5351  0.0952
 4557TIP3    H113677   2.388   1.531   2.735 -0.0363 -0.2650 -0.8384
 4557TIP3    H213678   2.267   1.497   2.649 -0.8777  1.0995 -0.2338
 4558TIP3   OH213679   0.063   5.380   4.183  0.1240  0.3177 -0.1714
 4558TIP3    H113680   0.092   5.471   4.195 -1.7209  1.0621 -1.0293
 4558TIP3    H213681  -0.028   5.387   4.153 -0.2962 -1.8433  0.4187
 4559TIP3   OH213682   5.702   2.181   3.705 -0.0425 -0.6979 -0.5514
 4559TIP3    H113683   5.781   2.153   3.659 -0.2672  1.0045 -2.0944
 4559TIP3    H213684   5.641   2.108   3.694  1.2058 -1.9475  0.4747
 4560TIP3   OH213685   3.613   2.231   0.413  0.0695 -0.0174 -0.0824
 4560TIP3    H113686   3.537   2.269   0.369 -0.6155 -2.0000 -0.7309
 4560TIP3    H213687   3.643   2.162   0.353  2.1773  0.4685  0.3289
 4561TIP3   OH213688   6.285   1.744   3.966  0.7629  0.2302  0.3361
 4561TIP3    H113689   6.272   1.715   3.876  1.7454  0.8280 -0.0141
 4561TIP3    H213690   6.248   1.673   4.020  1.0196 -0.5662 -0.5171
 4562TIP3   OH213691   4.656   3.284   0.922  0.0972 -0.0862 -0.5414
 4562TIP3    H113692   4.730   3.343   0.906 -0.2804  0.3455 -0.7250
 4562TIP3    H213693   4.690   3.197   0.902  0.5066  0.1268 -0.7884
 4563TIP3   OH213694   4.598   1.153   2.857  0.4278  0.5881 -0.0116
 4563TIP3    H113695   4.665   1.110   2.909  1.4946  2.4878  0.2878
 4563TIP3    H213696   4.551   1.208   2.920  0.8185  1.8355 -0.7716
 4564TIP3   OH213697   2.114   5.218   0.187 -0.0315 -0.9907  0.1877
 4564TIP3    H113698   2.061   5.206   0.108  0.8806 -0.0562 -0.5942
 4564TIP3    H213699   2.205   5.210   0.157  0.3151 -1.1914  1.2499
 4565TIP3   OH213700   1.114   2.075   1.335  0.5269 -0.1732  0.2133
 4565TIP3    H113701   1.200   2.104   1.365  0.0346 -0.1775  1.7398
 4565TIP3    H213702   1.057   2.086   1.412 -0.9589  0.3468 -0.8934
 4566TIP3   OH213703   6.128   3.433   4.374 -0.0701  0.0337 -0.3436
 4566TIP3    H113704   6.171   3.372   4.433 -2.3257  0.1417  1.5459
 4566TIP3    H213705   6.199   3.473   4.324  1.8709 -0.6559  1.7403
 4567TIP3   OH213706   2.873   5.521   1.232 -0.2339 -0.2054  0.1814
 4567TIP3    H113707   2.962   5.498   1.207  0.7093  1.0653  2.1556
 4567TIP3    H213708   2.821   5.444   1.211  1.5804 -1.5040  0.2843
 4568TIP3   OH213709   6.317   2.569   1.933  0.0593 -0.3233 -0.2810
 4568TIP3    H113710   6.278   2.655   1.948 -0.6375 -0.6069 -0.4400
 4568TIP3    H213711   6.243   2.509   1.935  0.4733 -0.8533 -0.7404
 4569TIP3   OH213712   4.725   5.137   4.305  0.1815 -0.0793  0.0376
 4569TIP3    H113713   4.673   5.060   4.283  1.4099 -0.7306 -0.6951
 4569TIP3    H213714   4.704   5.201   4.237 -1.1865  0.4384  0.9024
 4570TIP3   OH213715   1.434   1.988   1.963  0.1151 -0.0641  0.7500
 4570TIP3    H113716   1.487   1.938   1.900 -1.2271  0.7730 -1.1249
 4570TIP3    H213717   1.493   2.002   2.037  1.3159 -2.2952  0.3171
 4571TIP3   OH213718   0.214   2.883   3.174  0.1899  0.0798 -0.3512
 4571TIP3    H113719   0.174   2.871   3.088  0.5022 -0.6858 -0.3956
 4571TIP3    H213720   0.190   2.972   3.199  2.5886  1.4787 -2.5614
 4572TIP3   OH213721   6.043   4.359   4.940  0.0177  0.0569  0.2786
 4572TIP3    H113722   6.085   4.443   4.922 -2.3344  1.5700  1.2640
 4572TIP3    H213723   5.986   4.344   4.865  1.8910 -1.7658 -0.8652
 4573TIP3   OH213724   5.582   5.915   4.005  0.0212  0.0113 -0.0362
 4573TIP3    H113725   5.651   5.880   3.949 -0.5460 -0.7206 -0.2864
 4573TIP3    H213726   5.507   5.858   3.990 -0.6342  0.7725  0.2641
 4574TIP3   OH213727   2.078   3.947   2.663 -0.1396 -0.8555  0.1296
 4574TIP3    H113728   2.071   4.042   2.654  0.1288 -0.9090 -0.7636
 4574TIP3    H213729   2.024   3.925   2.738  0.1338  0.0518  0.5968
 4575TIP3   OH213730   1.242   0.489   1.467 -0.0195  0.4686  0.2292
 4575TIP3    H113731   1.279   0.430   1.401 -1.3857 -1.7461  1.2779
 4575TIP3    H213732   1.301   0.564   1.470  1.0019 -0.1551 -2.2642
 4576TIP3   OH213733   3.775   5.102   2.219 -0.0289  0.5984  0.0415
 4576TIP3    H113734   3.795   5.183   2.266  0.3585  1.1392 -1.0139
 4576TIP3    H213735   3.813   5.115   2.132  0.8132 -1.0834  0.1220
 4577TIP3   OH213736   4.859   4.115   0.629  0.0794  0.3259 -0.2330
 4577TIP3    H113737   4.917   4.170   0.681  1.0972  1.3678 -2.3543
 4577TIP3    H213738   4.918   4.065   0.572 -1.0113 -0.3338 -0.8222
 4578TIP3   OH213739   5.269   3.915   4.644  0.3280 -0.0847 -0.0011
 4578TIP3    H113740   5.285   3.942   4.735 -0.9760  0.8122 -0.0021
 4578TIP3    H213741   5.352   3.931   4.599  0.6157  0.6715  0.7743
 4579TIP3   OH213742   1.569   0.357   2.566  0.3072 -0.2316  0.1351
 4579TIP3    H113743   1.485   0.341   2.610  0.1830  1.5782  0.6396
 4579TIP3    H213744   1.558   0.317   2.480 -1.0341 -0.1496  0.2441
 4580TIP3   OH213745   3.219   4.279   0.984  0.3533 -0.1532 -0.0115
 4580TIP3    H113746   3.283   4.218   1.020 -0.5633 -0.4644  1.1263
 4580TIP3    H213747   3.197   4.338   1.056 -1.1510 -0.4818 -0.1587
 4581TIP3   OH213748   3.285   5.746   3.777 -0.0377  0.0579 -0.2940
 4581TIP3    H113749   3.264   5.775   3.688  0.8098  0.0999 -0.4910
 4581TIP3    H213750   3.354   5.681   3.765  1.3560  1.3331  0.4278
 4582TIP3   OH213751   3.742   5.420   3.059  0.3018 -0.4814 -0.3946
 4582TIP3    H113752   3.734   5.503   3.011  1.1657 -0.8815 -1.2517
 4582TIP3    H213753   3.678   5.428   3.130  0.6267  1.0774 -0.2360
 4583TIP3   OH213754   0.269   0.557   4.481 -0.0258  0.3266  0.5412
 4583TIP3    H113755   0.211   0.632   4.466 -0.9361 -0.3216  0.6944
 4583TIP3    H213756   0.215   0.495   4.531 -0.5291 -1.9148 -2.4864
 4584TIP3   OH213757   1.405   5.851   4.200 -0.2862 -0.6182 -0.3840
 4584TIP3    H113758   1.489   5.812   4.221 -0.6807 -0.6588  1.2641
 4584TIP3    H213759   1.425   5.943   4.183  0.0363 -0.5115  0.5314
 4585TIP3   OH213760   3.122   3.833   0.002  0.5066  0.6847  0.2560
 4585TIP3    H113761   3.046   3.829   0.060  0.1138 -0.3404 -0.3041
 4585TIP3    H213762   3.189   3.879   0.054  0.6159 -1.3333  2.0721
 4586TIP3   OH213763   3.771   3.609   1.508  0.6794 -0.0040  0.4039
 4586TIP3    H113764   3.774   3.580   1.417  0.0732  1.7864 -0.2197
 4586TIP3    H213765   3.821   3.542   1.556  2.0055 -0.3778 -1.4030
 4587TIP3   OH213766   5.424   0.824   3.641  0.1025  0.2313 -0.1229
 4587TIP3    H113767   5.387   0.910   3.621  0.0179  0.4080  0.7566
 4587TIP3    H213768   5.444   0.786   3.556  1.1961  1.5762 -0.4915
 4588TIP3   OH213769   1.010   0.668   4.599  0.1710  0.0811 -0.5553
 4588TIP3    H113770   0.936   0.621   4.560 -0.8103  1.1213 -0.0259
 4588TIP3    H213771   1.079   0.603   4.607 -0.7649 -0.9766 -0.8499
 4589TIP3   OH213772   2.705   3.538   0.153 -0.3789 -0.5235 -0.5839
 4589TIP3    H113773   2.666   3.613   0.108  0.1405  0.9202  1.2657
 4589TIP3    H213774   2.630   3.487   0.185 -0.7388 -1.1094 -2.2574
 4590TIP3   OH213775   6.250   5.039   1.904 -0.3697 -0.0337  0.2381
 4590TIP3    H113776   6.219   4.973   1.967  1.3502 -1.3865 -0.2388
 4590TIP3    H213777   6.178   5.048   1.841 -1.3381 -0.1056  1.2996
 4591TIP3   OH213778   5.110   0.837   0.497  0.0391 -0.1348  0.3640
 4591TIP3    H113779   5.137   0.913   0.445  0.6980  0.2578  1.2468
 4591TIP3    H213780   5.016   0.830   0.483  0.0029  0.7307  0.1112
 4592TIP3   OH213781   5.333   4.296   1.847 -0.5748 -0.2476 -0.0796
 4592TIP3    H113782   5.413   4.297   1.795  0.0022 -0.8396  0.7582
 4592TIP3    H213783   5.298   4.207   1.835 -0.7577 -0.1949  0.0563
 4593TIP3   OH213784   2.008   1.968   4.080  0.1658  0.1260  0.0532
 4593TIP3    H113785   1.937   1.979   4.016 -0.2792  0.9150  0.6624
 4593TIP3    H213786   2.082   1.936   4.029 -0.0497  1.1552 -0.9506
 4594TIP3   OH213787   4.685   4.562   4.224 -0.0963  0.0213 -0.2013
 4594TIP3    H113788   4.659   4.575   4.133  1.7748  1.6483 -0.5792
 4594TIP3    H213789   4.648   4.638   4.270 -0.7034 -0.5887  0.3317
 4595TIP3   OH213790   4.790   5.310   1.141  0.2734  0.0695 -0.0643
 4595TIP3    H113791   4.764   5.376   1.076  1.2499  0.5371  0.0089
 4595TIP3    H213792   4.856   5.353   1.195  0.5944 -0.8176  0.2738
 4596TIP3   OH213793   4.647   1.461   2.969  0.5428 -0.2693 -0.1655
 4596TIP3    H113794   4.585   1.516   3.016  0.5658 -0.4425  0.0699
 4596TIP3    H213795   4.615   1.460   2.878 -0.2353 -0.9723  0.1043
 4597TIP3   OH213796   5.245   2.563   0.671  0.4573 -0.0551 -0.6980
 4597TIP3    H113797   5.160   2.607   0.665  0.9694  1.0501 -0.1387
 4597TIP3    H213798   5.229   2.475   0.636 -0.9167  0.1222 -0.5799
 4598TIP3   OH213799   3.593   5.139   2.831 -0.5057 -0.3053  0.5207
 4598TIP3    H113800   3.520   5.168   2.885 -2.7301 -1.2305 -1.7829
 4598TIP3    H213801   3.607   5.047   2.856  1.2486  0.3736  2.2867
 4599TIP3   OH213802   5.568   4.990   4.159 -0.2000 -0.1010  0.4521
 4599TIP3    H113803   5.636   5.056   4.167 -1.5673  1.3561  0.4695
 4599TIP3    H213804   5.546   4.967   4.249  1.4231 -1.8920  0.4660
 4600TIP3   OH213805   2.732   0.206   0.500  0.0926 -0.5629 -0.1194
 4600TIP3    H113806   2.822   0.228   0.477 -0.0454 -0.0023 -0.1460
 4600TIP3    H213807   2.708   0.269   0.567 -0.8661  0.4916 -1.3947
 4601TIP3   OH213808   3.640   1.710   1.063 -0.0571 -0.3074  0.0234
 4601TIP3    H113809   3.566   1.759   1.027 -0.7242 -1.2180  0.1278
 4601TIP3    H213810   3.632   1.721   1.158  1.3737  1.6188 -0.0188
 4602TIP3   OH213811   1.025   1.782   2.779 -0.5556 -0.2280 -0.5856
 4602TIP3    H113812   0.945   1.743   2.746  0.6722 -1.2295 -2.5414
 4602TIP3    H213813   1.081   1.792   2.702  1.9768 -1.4685  0.9438
 4603TIP3   OH213814   2.446   5.932   0.910 -0.7102 -0.3139 -0.1079
 4603TIP3    H113815   2.436   5.852   0.859 -0.7947 -0.6333  0.3960
 4603TIP3    H213816   2.412   5.909   0.997 -1.3946  0.4800 -0.1539
 4604TIP3   OH213817   0.642   5.152   3.830 -0.3948  0.1078  0.6422
 4604TIP3    H113818   0.578   5.103   3.777 -2.1907 -0.9994  3.5529
 4604TIP3    H213819   0.726   5.136   3.787 -1.6368 -0.9393 -1.6254
 4605TIP3   OH213820   0.914   0.463   4.957 -0.0379  0.5551 -0.7069
 4605TIP3    H113821   0.979   0.516   5.003  0.5523  1.4443 -2.4621
 4605TIP3    H213822   0.859   0.527   4.912  0.0014 -0.2744 -1.9838
 4606TIP3   OH213823   1.511   0.228   1.083 -0.1816 -0.5510 -0.1919
 4606TIP3    H113824   1.470   0.272   1.009 -1.1541 -2.4668 -0.8545
 4606TIP3    H213825   1.581   0.175   1.044  1.1598  0.5662  0.6164
 4607TIP3   OH213826   4.862   1.653   2.925 -0.0717  0.2469 -0.1845
 4607TIP3    H113827   4.876   1.695   3.010  2.4084 -0.6385 -0.0562
 4607TIP3    H213828   4.769   1.632   2.922 -0.5032  1.7433  1.6099
 4608TIP3   OH213829   2.633   4.031   2.539 -0.5357 -0.2270  0.0362
 4608TIP3    H113830   2.660   3.983   2.460 -1.4111 -1.0787  0.2230
 4608TIP3    H213831   2.689   4.108   2.541  0.8077 -1.1555 -0.3871
 4609TIP3   OH213832   2.320   3.341   1.926 -0.0193  1.1172  0.5175
 4609TIP3    H113833   2.404   3.341   1.973 -0.6067 -0.6934  1.6723
 4609TIP3    H213834   2.337   3.392   1.847  2.1165  0.9796  0.8213
 4610TIP3   OH213835   4.429   0.636   1.975 -0.8364  0.1601  0.2144
 4610TIP3    H113836   4.440   0.638   2.070 -2.4503 -0.3492  0.4372
 4610TIP3    H213837   4.334   0.632   1.962 -0.5813 -2.2189 -1.3549
 4611TIP3   OH213838   5.793   3.549   2.113  0.5469  0.2492  0.6651
 4611TIP3    H113839   5.703   3.551   2.082  0.1564 -1.1955  1.6395
 4611TIP3    H213840   5.826   3.463   2.088  1.5685  0.6452  0.5881
 4612TIP3   OH213841   2.234   2.168   0.609 -0.3464  0.2235 -0.1738
 4612TIP3    H113842   2.297   2.099   0.630 -0.0697  0.9817  1.6117
 4612TIP3    H213843   2.217   2.157   0.515 -0.1935 -2.1582  0.0232
 4613TIP3   OH213844   3.926   1.266   3.490  0.1280 -0.8777  0.1898
 4613TIP3    H113845   3.864   1.201   3.457 -0.1658 -0.2289 -0.5905
 4613TIP3    H213846   3.871   1.333   3.530  0.3768 -0.7040  0.2429
 4614TIP3   OH213847   1.910   0.557   1.506 -0.1982 -0.6269 -0.3592
 4614TIP3    H113848   1.823   0.517   1.511 -0.3483 -0.2412  0.2432
 4614TIP3    H213849   1.965   0.491   1.464 -0.3415 -1.6352  0.9697
 4615TIP3   OH213850   0.409   4.671   2.155 -0.1418  0.1341  0.1099
 4615TIP3    H113851   0.385   4.764   2.149  1.4894  0.5300 -0.6711
 4615TIP3    H213852   0.442   4.660   2.245 -1.1362  0.0802  0.4860
 4616TIP3   OH213853   2.029   4.922   3.460 -0.1372  0.0203  0.4460
 4616TIP3    H113854   2.006   4.838   3.499  2.4398 -1.4131 -0.8492
 4616TIP3    H213855   2.068   4.972   3.531 -0.2983 -0.4709  0.8839
 4617TIP3   OH213856   0.668   1.499   2.466  0.0207  0.0276 -0.2049
 4617TIP3    H113857   0.594   1.439   2.454 -0.6450  0.7196  0.3425
 4617TIP3    H213858   0.742   1.453   2.427 -1.2253  0.5974 -3.6352
 4618TIP3   OH213859   5.849   0.219   4.894  0.8595 -0.8482  0.1250
 4618TIP3    H113860   5.925   0.215   4.836 -0.0837 -2.8296 -1.0730
 4618TIP3    H213861   5.845   0.132   4.935 -0.3528 -0.5396  0.7090
 4619TIP3   OH213862   4.809   2.679   0.968 -0.2552  0.5513  0.3139
 4619TIP3    H113863   4.813   2.597   1.017  1.2503  0.1474 -0.4336
 4619TIP3    H213864   4.724   2.676   0.924 -0.9424  0.1868  1.5911
 4620TIP3   OH213865   6.290   5.068   2.428 -0.4584 -0.5507  0.2283
 4620TIP3    H113866   6.227   5.118   2.375 -0.3412  0.3856  0.9411
 4620TIP3    H213867   6.252   4.981   2.434 -0.0180 -0.9935 -2.1829
 4621TIP3   OH213868   5.708   0.076   3.732 -0.1731 -0.3371  1.0586
 4621TIP3    H113869   5.622   0.062   3.693 -0.1886 -1.7347  1.5359
 4621TIP3    H213870   5.710   0.170   3.753 -0.2499  0.4320 -1.9672
 4622TIP3   OH213871   2.158   5.328   2.621 -0.0437  0.5481 -0.6158
 4622TIP3    H113872   2.246   5.343   2.653 -1.3461  1.2049  3.0789
 4622TIP3    H213873   2.143   5.399   2.558  0.9216  2.6415  1.3526
 4623TIP3   OH213874   3.993   4.513   2.261 -0.1724  0.0494 -0.2396
 4623TIP3    H113875   3.930   4.495   2.332 -1.4011 -0.5177 -1.4165
 4623TIP3    H213876   3.948   4.577   2.205 -0.3363 -1.3677 -1.8320
 4624TIP3   OH213877   1.347   0.031   0.845 -0.2449 -0.7591 -0.4246
 4624TIP3    H113878   1.403   0.109   0.840  0.1844 -1.0824 -0.7453
 4624TIP3    H213879   1.372  -0.021   0.769 -0.8799 -0.9827 -0.4838
 4625TIP3   OH213880   0.150   5.941   4.548 -0.1647 -0.0865 -0.1158
 4625TIP3    H113881   0.134   6.011   4.484 -0.2038  0.5879  0.6202
 4625TIP3    H213882   0.068   5.934   4.596  0.1949  0.0946  0.5234
 4626TIP3   OH213883   3.086   1.455   4.317  0.3137  0.0763 -1.1644
 4626TIP3    H113884   3.045   1.540   4.302  0.3106  0.4967  0.8751
 4626TIP3    H213885   3.016   1.401   4.354  0.7592 -0.2339 -0.7566
 4627TIP3   OH213886   5.908   2.982   4.605 -0.2491  0.2455 -0.6707
 4627TIP3    H113887   5.843   2.921   4.570 -1.5440  0.6640  0.8607
 4627TIP3    H213888   5.923   3.045   4.534 -0.2601 -0.7897 -1.6209
 4628TIP3   OH213889   3.346   0.447   0.161 -0.6948 -0.1103 -0.0768
 4628TIP3    H113890   3.395   0.442   0.243  0.2551  2.9004 -0.3184
 4628TIP3    H213891   3.271   0.503   0.181 -0.3953  0.7651 -1.2231
 4629TIP3   OH213892   6.231   1.486   4.093  0.0246 -0.0989 -0.4796
 4629TIP3    H113893   6.220   1.402   4.049 -0.2656 -0.1501 -0.3101
 4629TIP3    H213894   6.142   1.520   4.104  0.1339  0.1867 -0.4619
 4630TIP3   OH213895   0.712   3.183   3.328  0.4579  0.3328  0.2467
 4630TIP3    H113896   0.701   3.278   3.332  0.4390  0.3110  0.8122
 4630TIP3    H213897   0.626   3.150   3.300  0.8339  0.5620 -1.2554
 4631TIP3   OH213898   1.236   1.281   0.354  0.3128  0.1227 -0.1095
 4631TIP3    H113899   1.152   1.326   0.361  0.5188  0.3668  0.9529
 4631TIP3    H213900   1.270   1.279   0.444  1.1229 -0.5842 -0.4154
 4632TIP3   OH213901   2.513   2.601   2.956 -0.3451  0.2672  0.7969
 4632TIP3    H113902   2.536   2.634   3.042 -1.2098  1.2233  0.6734
 4632TIP3    H213903   2.551   2.664   2.895  0.6149 -0.6210  0.4460
 4633TIP3   OH213904   3.372   5.730   0.762  0.3634  0.2018  0.1571
 4633TIP3    H113905   3.341   5.758   0.848 -0.4885 -0.2718  0.0203
 4633TIP3    H213906   3.374   5.634   0.767 -0.1893  0.1455 -0.5074
 4634TIP3   OH213907   4.388   4.954   1.584  0.0604  0.2200  0.0315
 4634TIP3    H113908   4.401   5.046   1.607  2.4283  1.0220 -3.5536
 4634TIP3    H213909   4.454   4.906   1.634 -0.6137  0.5453  1.2642
 4635TIP3   OH213910   4.467   0.737   3.866 -0.4035  0.6267 -0.3300
 4635TIP3    H113911   4.488   0.739   3.960  0.6714  0.3595 -0.5571
 4635TIP3    H213912   4.380   0.697   3.862 -1.3973  2.5450  0.7043
 4636TIP3   OH213913   0.740   4.940   3.361  0.0639 -0.4434 -0.1131
 4636TIP3    H113914   0.687   4.926   3.439  1.5580 -2.1100  0.6985
 4636TIP3    H213915   0.817   4.987   3.392  0.4657 -0.7309 -0.6549
 4637TIP3   OH213916   2.817   5.879   3.534 -0.3305 -0.5027 -0.2104
 4637TIP3    H113917   2.792   5.795   3.572 -0.8895  0.3196  1.3000
 4637TIP3    H213918   2.864   5.925   3.603 -0.3869  0.5929 -0.8685
 4638TIP3   OH213919   0.378   5.055   0.715  0.2954 -0.0169  0.3466
 4638TIP3    H113920   0.300   5.076   0.664  1.7704  2.8042 -0.9663
 4638TIP3    H213921   0.434   5.005   0.655 -0.1898 -1.5348  1.0992
 4639TIP3   OH213922   3.766   2.053   1.362  0.7916 -0.2613 -0.0084
 4639TIP3    H113923   3.754   2.040   1.457  0.5612 -2.3052 -0.2716
 4639TIP3    H213924   3.725   2.137   1.345  0.9687  0.2337  1.7388
 4640TIP3   OH213925   0.698   4.463   2.830  0.0052  0.4364 -0.2368
 4640TIP3    H113926   0.618   4.411   2.836  0.5772 -0.7298 -1.9146
 4640TIP3    H213927   0.714   4.493   2.920 -1.9112  0.1236  0.2584
 4641TIP3   OH213928   2.400   1.850   5.007 -0.6101  0.1716  0.2220
 4641TIP3    H113929   2.411   1.918   4.940 -0.4571  0.7824  0.8517
 4641TIP3    H213930   2.316   1.869   5.047 -1.8631 -1.6419 -1.3839
 4642TIP3   OH213931   1.438   5.230   3.785  0.0302 -0.1662  0.0656
 4642TIP3    H113932   1.501   5.168   3.822 -0.9750 -0.6113  1.0868
 4642TIP3    H213933   1.456   5.228   3.691  0.9200 -0.9828  0.2312
 4643TIP3   OH213934   2.790   4.584   0.430 -0.2290  0.5297 -0.1481
 4643TIP3    H113935   2.841   4.625   0.499  0.5390 -1.7211  0.7055
 4643TIP3    H213936   2.854   4.561   0.363 -0.5767  0.3464 -0.4223
 4644TIP3   OH213937   3.986   1.506   0.448  0.0214 -0.0126 -0.0318
 4644TIP3    H113938   4.064   1.523   0.501 -0.4652 -1.4047  1.1890
 4644TIP3    H213939   3.928   1.456   0.506 -0.5741 -1.5181 -1.8386
 4645TIP3   OH213940   1.394   5.483   4.434  0.2986 -0.6801  0.3581
 4645TIP3    H113941   1.483   5.453   4.452  0.6724  0.2277  0.0752
 4645TIP3    H213942   1.400   5.578   4.436 -0.0790 -0.5163 -2.2925
 4646TIP3   OH213943   2.424   4.713   5.060 -0.7556  0.2400  0.0534
 4646TIP3    H113944   2.425   4.626   5.099 -0.7445  0.9523  1.7043
 4646TIP3    H213945   2.334   4.725   5.030 -0.9498 -0.0299  0.5249
 4647TIP3   OH213946   5.669   2.691   3.710  0.5039 -0.9782  0.1584
 4647TIP3    H113947   5.627   2.608   3.733 -1.6377  0.0639  0.2284
 4647TIP3    H213948   5.597   2.746   3.680  2.1220  0.3155 -1.5060
 4648TIP3   OH213949   5.412   0.076   1.880  0.5252  0.4298 -0.0616
 4648TIP3    H113950   5.466   0.130   1.823  1.9212 -0.5301  0.3016
 4648TIP3    H213951   5.406  -0.008   1.835  1.0855 -0.1288  0.8677
 4649TIP3   OH213952   1.471   2.502   2.489  0.3287 -0.4044  0.0054
 4649TIP3    H113953   1.415   2.467   2.559  0.4155  0.6414  0.6188
 4649TIP3    H213954   1.558   2.468   2.509  0.1533 -1.0267 -0.2493
 4650TIP3   OH213955   1.247   0.361   2.609 -0.1944  0.1305 -0.3769
 4650TIP3    H113956   1.208   0.278   2.639  0.0849 -0.3951 -1.4169
 4650TIP3    H213957   1.265   0.346   2.516  4.5273 -0.4688  0.4233
 4651TIP3   OH213958   4.485   5.541   4.661  0.6869 -0.0612  0.0804
 4651TIP3    H113959   4.394   5.515   4.674  1.0322 -1.0197  0.6925
 4651TIP3    H213960   4.483   5.637   4.661 -0.3947 -0.0754 -0.5293
 4652TIP3   OH213961   5.995   1.808   3.380 -0.6505  0.1693 -0.5521
 4652TIP3    H113962   6.028   1.898   3.377  0.4707 -0.1635  0.7525
 4652TIP3    H213963   6.070   1.756   3.410 -1.9170 -0.8442  1.0353
 4653TIP3   OH213964   3.628   0.656   1.502  0.0565  0.2443 -0.2286
 4653TIP3    H113965   3.621   0.664   1.597  2.0065 -0.8873  0.0797
 4653TIP3    H213966   3.712   0.698   1.481 -0.4332  0.6331 -1.4763
 4654TIP3   OH213967   6.067   5.344   4.818 -0.3644 -0.3522  0.2281
 4654TIP3    H113968   6.019   5.416   4.777  1.1542  1.3962  1.3440
 4654TIP3    H213969   6.075   5.278   4.749 -0.3529  1.2662 -1.3957
 4655TIP3   OH213970   4.942   2.272   3.558 -0.8100  0.7273  0.3660
 4655TIP3    H113971   4.914   2.200   3.615  1.5398  1.0117  2.0308
 4655TIP3    H213972   5.026   2.242   3.523 -1.5043  1.2045 -1.8629
 4656TIP3   OH213973   5.509   0.779   4.771  0.2344  0.1082  0.0876
 4656TIP3    H113974   5.587   0.827   4.744  1.3451  0.1491  3.0271
 4656TIP3    H213975   5.542   0.700   4.813 -1.4047 -0.8278 -0.2833
 4657TIP3   OH213976   0.340   5.200   3.424  0.4011  0.1150 -0.1060
 4657TIP3    H113977   0.426   5.243   3.428  1.1443 -1.4032  1.7024
 4657TIP3    H213978   0.336   5.161   3.337  1.7378 -0.1680 -0.0533
 4658TIP3   OH213979   2.998   2.180   2.171  0.1272 -0.5478 -0.1243
 4658TIP3    H113980   3.063   2.111   2.186 -0.5728 -1.0925  0.4891
 4658TIP3    H213981   2.960   2.159   2.085  1.2731  0.2110 -0.8397
 4659TIP3   OH213982   4.258   2.870   4.280 -0.3447 -0.4370  0.3251
 4659TIP3    H113983   4.295   2.917   4.205 -0.3132 -1.0751 -0.0698
 4659TIP3    H213984   4.253   2.935   4.350  3.6515 -0.7281  1.1645
 4660TIP3   OH213985   3.946   2.005   1.152 -0.1531  0.1086  0.6568
 4660TIP3    H113986   3.885   2.010   1.226  0.8534 -0.0345  1.5129
 4660TIP3    H213987   4.006   2.079   1.165  1.0392 -0.8685  0.9185
 4661TIP3   OH213988   5.079   1.622   1.943  0.1407  0.1793 -0.0689
 4661TIP3    H113989   5.073   1.692   2.008  1.2548  0.5468 -0.3377
 4661TIP3    H213990   5.153   1.569   1.972  1.1331  0.7788 -1.4303
 4662TIP3   OH213991   4.236   1.888   4.179  0.1455 -0.4324  0.3659
 4662TIP3    H113992   4.324   1.926   4.185 -0.1241  0.7344 -1.8672
 4662TIP3    H213993   4.177   1.957   4.210 -0.0432 -1.0398  1.4099
 4663TIP3   OH213994   1.612   2.423   3.653  0.3392  0.3032  0.4537
 4663TIP3    H113995   1.585   2.382   3.571 -0.9999 -0.4765  1.2506
 4663TIP3    H213996   1.530   2.448   3.695  0.7757 -1.9404  2.8842
 4664TIP3   OH213997   0.874   2.877   4.025 -0.3762 -0.0448  0.2828
 4664TIP3    H113998   0.815   2.863   4.099 -0.5942 -2.1283 -0.2156
 4664TIP3    H213999   0.826   2.936   3.967 -0.3990  1.2353  1.5475
 4665TIP3   OH214000   2.681   3.195   0.206  0.1142  0.2679 -0.2327
 4665TIP3    H114001   2.759   3.235   0.166  0.1837 -0.4617 -0.8333
 4665TIP3    H214002   2.649   3.133   0.141 -2.6538  2.5164 -1.2510
 4666TIP3   OH214003   3.803   0.765   2.700 -0.1827  0.7446 -0.5724
 4666TIP3    H114004   3.890   0.741   2.668 -0.1822  1.2804 -0.9802
 4666TIP3    H214005   3.760   0.682   2.717  1.2713  0.4102  2.0405
 4667TIP3   OH214006   6.335   1.483   3.291  0.0655 -0.4481  0.2680
 4667TIP3    H114007   6.288   1.469   3.209 -0.3245 -1.6409  0.6801
 4667TIP3    H214008   6.424   1.506   3.264 -0.0751 -0.7648 -0.4911
 4668TIP3   OH214009   1.848   4.642   5.024 -0.0325  0.1181 -0.5749
 4668TIP3    H114010   1.820   4.556   5.054  0.4710  0.3472  0.5802
 4668TIP3    H214011   1.884   4.626   4.937  1.1407 -1.0402  0.0860
 4669TIP3   OH214012   1.949   0.333   2.400 -0.3156  0.7359  0.1340
 4669TIP3    H114013   1.961   0.428   2.392  2.2543  0.4801  0.0191
 4669TIP3    H214014   1.961   0.315   2.493  0.3795  0.4271 -0.0055
 4670TIP3   OH214015   3.460   2.718   1.588  0.0535  0.2937 -0.4063
 4670TIP3    H114016   3.487   2.806   1.564 -1.0630  1.1169  1.1997
 4670TIP3    H214017   3.489   2.707   1.678  2.1047 -1.8554 -1.2181
 4671TIP3   OH214018   3.254  -0.024   4.855 -0.1969 -0.4077 -0.6652
 4671TIP3    H114019   3.313  -0.015   4.930  0.3623 -1.3399 -0.9757
 4671TIP3    H214020   3.196   0.052   4.861  0.7153  0.2597 -0.0704
 4672TIP3   OH214021   0.786   3.343   3.856 -0.0602 -0.4343  0.1916
 4672TIP3    H114022   0.758   3.294   3.778 -1.0913  0.3880  0.0310
 4672TIP3    H214023   0.873   3.307   3.876 -0.8451 -2.4532  0.1859
 4673TIP3   OH214024   6.349   2.549   5.148 -0.0957 -0.0001 -0.0384
 4673TIP3    H114025   6.262   2.545   5.188 -0.3266  2.0332 -0.2101
 4673TIP3    H214026   6.333   2.556   5.054  0.1435  1.8212  0.0171
 4674TIP3   OH214027   1.003   0.698   1.236  0.4142 -0.2888  0.1751
 4674TIP3    H114028   1.034   0.612   1.209 -1.7922 -1.6661  1.7199
 4674TIP3    H214029   0.924   0.713   1.185  0.1882  0.3198  0.6818
 4675TIP3   OH214030   2.269   0.726   3.121 -0.3317  0.9105  0.6376
 4675TIP3    H114031   2.260   0.806   3.173  1.9285  0.8688  1.1970
 4675TIP3    H214032   2.179   0.693   3.113 -1.0938  2.4612  2.0389
 4676TIP3   OH214033   6.217   4.423   3.076  0.2931  0.4917  0.1969
 4676TIP3    H114034   6.273   4.350   3.048  0.1756  0.3206  0.4075
 4676TIP3    H214035   6.139   4.381   3.111  0.9283  0.6484  1.9106
 4677TIP3   OH214036   0.646   4.536   0.830  0.4583 -0.1259  0.5019
 4677TIP3    H114037   0.633   4.616   0.779  0.1370 -0.9625 -0.7835
 4677TIP3    H214038   0.626   4.465   0.769 -1.0011 -1.1692  2.1176
 4678TIP3   OH214039   1.356   0.081   4.660 -0.3500 -0.1296  0.2484
 4678TIP3    H114040   1.414   0.089   4.736 -0.2908  0.1127  0.1816
 4678TIP3    H214041   1.367  -0.008   4.629  2.3234  0.7170 -1.6041
 4679TIP3   OH214042   0.166   1.713   4.706 -0.1716 -0.1766  0.0101
 4679TIP3    H114043   0.251   1.747   4.677  1.4372 -0.5297  3.6987
 4679TIP3    H214044   0.105   1.785   4.691  1.9331  2.2674  2.1318
 4680TIP3   OH214045   1.442   3.049   2.872  0.4328  0.0050 -0.1754
 4680TIP3    H114046   1.524   3.096   2.891  0.1567 -0.3149  2.2266
 4680TIP3    H214047   1.379   3.085   2.935  0.0679 -3.0762  1.4321
 4681TIP3   OH214048   3.204   5.234   1.425 -0.2060 -0.0954 -1.0877
 4681TIP3    H114049   3.268   5.304   1.436 -1.0610  0.7816 -1.5648
 4681TIP3    H214050   3.191   5.228   1.331 -1.7554  0.6299 -0.9518
 4682TIP3   OH214051   6.330   5.769   2.789 -0.2698 -0.2902  0.2201
 4682TIP3    H114052   6.356   5.772   2.881 -0.9466  0.3164  0.4039
 4682TIP3    H214053   6.360   5.853   2.753 -1.7538  0.3544  0.3972
 4683TIP3   OH214054   1.472   5.110   2.654  0.2305  0.6892 -0.7192
 4683TIP3    H114055   1.429   5.089   2.738  1.1682 -1.9735 -0.7907
 4683TIP3    H214056   1.479   5.205   2.654 -1.1057  0.8857  1.5601
 4684TIP3   OH214057   3.407   2.125   2.097 -0.5348  0.1415 -0.0320
 4684TIP3    H114058   3.353   2.096   2.170  0.0570  0.0489  0.3679
 4684TIP3    H214059   3.399   2.221   2.098  1.3983  0.3459  1.6784
 4685TIP3   OH214060   4.687   4.156   1.782  0.1957 -0.4711  0.3127
 4685TIP3    H114061   4.654   4.222   1.844  1.4187 -1.3320  1.9634
 4685TIP3    H214062   4.686   4.200   1.697  0.4726  1.4946  1.2697
 4686TIP3   OH214063   2.976   4.660   2.201 -0.1220  0.6660 -0.3476
 4686TIP3    H114064   2.995   4.682   2.292  1.3286  0.7629 -0.6419
 4686TIP3    H214065   2.914   4.726   2.172  0.9734  1.8892 -0.0050
 4687TIP3   OH214066   2.226   0.477   4.774 -0.4343 -0.0403 -0.1544
 4687TIP3    H114067   2.304   0.510   4.818 -0.5537 -2.3227  1.9614
 4687TIP3    H214068   2.154   0.496   4.835 -0.9221 -1.4139 -0.2674
 4688TIP3   OH214069   4.953   5.064   1.880 -0.7006  0.0771 -0.1551
 4688TIP3    H114070   5.010   5.017   1.819 -0.3925  0.3918 -0.1097
 4688TIP3    H214071   4.938   5.149   1.839  0.7313  0.8792  0.8833
 4689TIP3   OH214072   5.011   1.491   4.881  0.6529 -0.3669  0.6967
 4689TIP3    H114073   4.931   1.532   4.849  1.1517  0.0967  0.0300
 4689TIP3    H214074   4.990   1.398   4.885  0.4974 -0.4190 -0.7651
 4690TIP3   OH214075   2.447   2.622   5.044 -0.1387  0.4727 -0.5426
 4690TIP3    H114076   2.421   2.533   5.019 -0.0297  0.8445 -2.1033
 4690TIP3    H214077   2.390   2.679   4.993  1.0525  1.2884 -1.0154
 4691TIP3   OH214078   3.618   1.715   3.691 -0.5543  0.0112 -0.0431
 4691TIP3    H114079   3.685   1.726   3.759  3.8805  2.0037 -4.1454
 4691TIP3    H214080   3.546   1.771   3.720  0.8525  0.3700  3.1906
 4692TIP3   OH214081   0.041   1.190   3.888  0.3797  0.1534 -0.6044
 4692TIP3    H114082  -0.054   1.198   3.896  0.5106  1.7994 -0.2453
 4692TIP3    H214083   0.066   1.123   3.951 -0.6466 -1.1670 -1.5544
 4693TIP3   OH214084   2.669   2.095   1.644  1.0943 -0.6388  0.3848
 4693TIP3    H114085   2.657   2.190   1.635  0.3309 -0.7330  0.3729
 4693TIP3    H214086   2.764   2.083   1.637  1.2009  0.1219  0.3743
 4694TIP3   OH214087   4.017   2.179   0.592 -0.1856  0.0762  0.2728
 4694TIP3    H114088   4.047   2.129   0.515 -0.6372 -0.6930  0.5795
 4694TIP3    H214089   3.924   2.157   0.599 -0.1399  0.1152  1.0624
 4695TIP3   OH214090   0.305   4.865   1.310 -0.5083  0.3226  0.0992
 4695TIP3    H114091   0.268   4.944   1.270 -1.1385 -0.5743 -1.1831
 4695TIP3    H214092   0.396   4.864   1.282 -0.0565  1.4025  1.4482
 4696TIP3   OH214093   0.207   2.757   1.157 -0.1560 -0.0913 -0.9797
 4696TIP3    H114094   0.256   2.695   1.210 -0.6447 -2.0941 -2.7254
 4696TIP3    H214095   0.129   2.777   1.209  0.7684  0.3267  0.2818
 4697TIP3   OH214096   2.181   1.542   4.748 -0.6478 -0.0977 -0.1636
 4697TIP3    H114097   2.144   1.617   4.702 -0.0944  1.1472  1.3630
 4697TIP3    H214098   2.109   1.507   4.800 -0.8135 -0.4333 -0.6088
 4698TIP3   OH214099   2.772   4.277   2.049 -0.6348  0.0757 -0.1398
 4698TIP3    H114100   2.827   4.336   1.997  1.1801  0.2644  1.8914
 4698TIP3    H214101   2.759   4.201   1.991  1.7855  0.0193 -0.7373
 4699TIP3   OH214102   0.461   5.528   0.260 -0.4191  0.2140 -0.4949
 4699TIP3    H114103   0.543   5.479   0.265  0.0413  0.4845 -3.5424
 4699TIP3    H214104   0.448   5.562   0.349  1.7564 -1.3868  0.5253
 4700TIP3   OH214105   4.808   1.889   1.742 -0.2559 -0.2867  0.3260
 4700TIP3    H114106   4.888   1.844   1.771 -1.0248 -2.4263 -0.6090
 4700TIP3    H214107   4.839   1.957   1.682  0.9166 -0.3290  0.8504
 4701TIP3   OH214108   1.913   2.605   1.978 -0.7052  0.1860 -0.4979
 4701TIP3    H114109   1.853   2.623   2.051 -0.4245 -1.2210  0.1009
 4701TIP3    H214110   1.970   2.682   1.975 -1.4528  0.7789  0.0112
 4702TIP3   OH214111   1.957   4.634   0.998  0.6495 -0.9504 -0.2803
 4702TIP3    H114112   2.026   4.601   0.940  0.8563  0.3057 -0.7828
 4702TIP3    H214113   1.991   4.618   1.086  2.9246  2.0464 -0.4379
 4703TIP3   OH214114   0.451   2.526   2.785 -1.4648 -0.2257 -0.4187
 4703TIP3    H114115   0.447   2.591   2.714 -1.4258  1.2581  0.8865
 4703TIP3    H214116   0.545   2.510   2.796 -1.4966 -0.9925 -1.1361
 4704TIP3   OH214117   5.223  -0.012   2.581  0.1149  0.1548  0.5982
 4704TIP3    H114118   5.180   0.073   2.573  1.5362  0.8615  0.2042
 4704TIP3    H214119   5.208  -0.054   2.496  1.2330  0.9278 -0.0163
 4705TIP3   OH214120   1.880   4.131   0.404  0.1330 -0.0901 -0.5031
 4705TIP3    H114121   1.823   4.197   0.443  0.5023  0.0569 -0.2063
 4705TIP3    H214122   1.887   4.063   0.471 -0.2079 -0.4116 -0.7886
 4706TIP3   OH214123   5.396   1.788   3.546  0.2701  0.4348 -0.4248
 4706TIP3    H114124   5.461   1.721   3.529 -0.8872 -1.2641  1.4320
 4706TIP3    H214125   5.312   1.747   3.524 -0.3302  2.0630 -1.3861
 4707TIP3   OH214126   5.966   5.261   4.505 -0.3545 -0.2320 -0.2084
 4707TIP3    H114127   6.025   5.224   4.570 -0.2741  1.0540  0.4993
 4707TIP3    H214128   6.020   5.270   4.426 -0.4469 -1.7788 -0.4789
 4708TIP3   OH214129   3.107   0.908   3.405 -0.4757  0.0876 -0.4890
 4708TIP3    H114130   3.089   0.825   3.361 -3.0249  0.2372  0.1486
 4708TIP3    H214131   3.116   0.971   3.333  1.4070 -0.6503 -0.9734
 4709TIP3   OH214132   1.601   4.674   1.569  0.0747 -0.0974  0.1213
 4709TIP3    H114133   1.671   4.738   1.582 -1.2655  1.3554  0.5301
 4709TIP3    H214134   1.636   4.593   1.605  1.3007  0.7504  0.9253
 4710TIP3   OH214135   1.271   1.841  -0.010  0.2274  0.5497 -0.7937
 4710TIP3    H114136   1.343   1.790   0.026  0.6608  0.3746 -1.8596
 4710TIP3    H214137   1.293   1.932   0.009 -1.0584  0.3628  2.0364
 4711TIP3   OH214138   2.331   5.833   3.477 -0.0559  0.0363 -0.1230
 4711TIP3    H114139   2.255   5.871   3.521 -0.9243 -0.6052 -1.0149
 4711TIP3    H214140   2.386   5.908   3.455  0.0727  0.4264  1.4256
 4712TIP3   OH214141   5.635   5.946   0.563  0.3041 -0.0896  0.1052
 4712TIP3    H114142   5.646   5.860   0.523 -0.7537  0.1118 -0.6619
 4712TIP3    H214143   5.724   5.979   0.575  0.6627 -0.4405 -1.4792
 4713TIP3   OH214144   3.326   1.516   3.419  0.6544 -0.3433 -0.1878
 4713TIP3    H114145   3.296   1.444   3.363 -0.8324 -0.2300  0.4203
 4713TIP3    H214146   3.410   1.486   3.454  1.0354 -0.9113 -1.5198
 4714TIP3   OH214147   4.564   2.356   1.308  0.6691 -0.4067  0.3173
 4714TIP3    H114148   4.479   2.313   1.300 -0.3904  1.2875  1.8797
 4714TIP3    H214149   4.549   2.431   1.365  2.9959  0.5873 -0.2370
 4715TIP3   OH214150   1.785   5.912   4.932  0.2102  0.8730  0.4171
 4715TIP3    H114151   1.813   5.973   5.001  0.3904  0.5070  0.6703
 4715TIP3    H214152   1.826   5.829   4.956 -1.8514  0.0437  1.3404
 4716TIP3   OH214153   0.834   3.273   1.667 -0.2182 -0.4183  0.5347
 4716TIP3    H114154   0.861   3.289   1.577  0.3370 -1.2026  0.5584
 4716TIP3    H214155   0.744   3.242   1.660  0.5072 -2.5448  0.0647
 4717TIP3   OH214156   4.661   2.648   2.402 -0.3210 -0.1651  0.0739
 4717TIP3    H114157   4.662   2.736   2.363  1.1738  0.6152  1.7249
 4717TIP3    H214158   4.743   2.642   2.449 -1.2753 -1.7163  1.6494
 4718TIP3   OH214159   0.927   3.322   1.042  0.2776 -0.4274 -0.1391
 4718TIP3    H114160   0.845   3.368   1.026  0.5771  0.4316  0.7643
 4718TIP3    H214161   0.980   3.338   0.963  0.2122  0.4105 -0.0142
 4719TIP3   OH214162   5.399   3.927   0.611  0.1887 -0.5859  0.3337
 4719TIP3    H114163   5.391   4.017   0.642 -2.7023 -1.2764  1.9439
 4719TIP3    H214164   5.472   3.891   0.661  1.5854  0.8923 -0.5585
 4720TIP3   OH214165   4.335   2.026   2.675 -0.0742 -0.1935  0.6455
 4720TIP3    H114166   4.392   2.046   2.750  0.8286 -0.1611 -0.0384
 4720TIP3    H214167   4.377   1.951   2.633 -0.6711 -0.3115  0.2594
 4721TIP3   OH214168   4.583   4.297   2.956  0.2905 -0.1498 -0.4567
 4721TIP3    H114169   4.621   4.331   3.037 -0.0851  0.5826 -0.5851
 4721TIP3    H214170   4.642   4.328   2.887  0.7630 -1.0020 -0.4526
 4722TIP3   OH214171   4.683   3.700   1.473  0.1255 -0.3740 -0.2445
 4722TIP3    H114172   4.635   3.748   1.540  1.1747 -0.6100  0.7082
 4722TIP3    H214173   4.641   3.725   1.390 -0.2229  1.1095  0.3495
 4723TIP3   OH214174   4.087   0.692   3.296  0.0911  0.0734 -0.5337
 4723TIP3    H114175   4.058   0.728   3.213 -0.6250  2.8523  0.7776
 4723TIP3    H214176   4.149   0.757   3.330 -1.1507  0.0850  1.9555
 4724TIP3   OH214177   1.034   1.598   5.006 -0.1395 -0.1132  0.0388
 4724TIP3    H114178   1.095   1.525   5.004  0.2172  0.1548  0.8389
 4724TIP3    H214179   1.084   1.673   4.973  0.1242  0.2086  1.1255
 4725TIP3   OH214180   6.382   5.421   2.794 -0.4581  0.0888 -0.2186
 4725TIP3    H114181   6.367   5.327   2.786 -1.0854  0.2566 -1.2358
 4725TIP3    H214182   6.328   5.447   2.868  0.0553 -0.4199  0.3422
 4726TIP3   OH214183   0.790   2.933   1.479 -0.3354  0.3324 -1.0830
 4726TIP3    H114184   0.858   2.986   1.438 -0.3677 -0.1921 -1.8349
 4726TIP3    H214185   0.709   2.982   1.464 -0.1845  0.7463 -0.5613
 4727TIP3   OH214186   5.359   0.725   0.728 -0.2474 -0.1310  0.0515
 4727TIP3    H114187   5.310   0.786   0.783 -2.0977 -1.4803 -0.0049
 4727TIP3    H214188   5.417   0.679   0.789 -1.4993 -0.8466  0.7587
 4728TIP3   OH214189   4.827   2.368   1.483  0.0014 -0.0329  0.1466
 4728TIP3    H114190   4.908   2.403   1.519 -0.5776  1.7996 -0.2292
 4728TIP3    H214191   4.758   2.416   1.530 -0.7966  1.1886 -2.1270
 4729TIP3   OH214192   2.402   0.331   4.521 -0.2064 -0.0382 -0.4875
 4729TIP3    H114193   2.357   0.255   4.485  1.7997 -1.4485 -0.1776
 4729TIP3    H214194   2.411   0.312   4.615  0.5407  0.4295 -0.4521
 4730TIP3   OH214195   4.268   1.924   1.825  0.5900  0.2374 -0.3488
 4730TIP3    H114196   4.195   1.926   1.763 -0.1851 -1.1201  0.4624
 4730TIP3    H214197   4.271   2.013   1.861  0.5183  0.8089 -1.6995
 4731TIP3   OH214198   4.952   1.192   4.908 -0.1020 -0.2593  0.0541
 4731TIP3    H114199   4.878   1.218   4.853 -0.9954 -0.5842  1.0657
 4731TIP3    H214200   5.024   1.179   4.847 -1.1723 -1.0156 -1.0847
 4732TIP3   OH214201   3.771   0.751   1.011 -0.1132  0.0776  0.7193
 4732TIP3    H114202   3.718   0.825   1.040 -0.0878  0.5901 -0.4754
 4732TIP3    H214203   3.819   0.784   0.934  0.8590 -0.7989  0.9164
 4733TIP3   OH214204   2.287   0.517   0.182 -0.0503 -0.0239  0.0682
 4733TIP3    H114205   2.231   0.442   0.198 -0.5024  0.1404 -0.6696
 4733TIP3    H214206   2.362   0.505   0.240  0.2331 -1.4081 -0.5639
 4734TIP3   OH214207   2.152   1.930   5.039 -0.1436 -0.0694  0.0984
 4734TIP3    H114208   2.113   1.951   4.954 -0.6061 -1.7072 -0.1165
 4734TIP3    H214209   2.080   1.892   5.090  0.0250  1.2395  1.3973
 4735TIP3   OH214210   0.462   0.705   5.154 -0.1199 -0.0541  0.4449
 4735TIP3    H114211   0.471   0.796   5.124 -0.8095 -0.6780 -1.8301
 4735TIP3    H214212   0.469   0.653   5.074 -1.4567 -1.9078  1.4700
 4736TIP3   OH214213   5.749   2.825   4.255 -0.1452 -0.1714 -0.1586
 4736TIP3    H114214   5.825   2.808   4.310  0.5588 -0.5626 -1.2172
 4736TIP3    H214215   5.783   2.822   4.166 -1.3531 -0.0695 -0.6417
 4737TIP3   OH214216   3.435   0.118   2.225 -0.7916  0.0880  0.2608
 4737TIP3    H114217   3.375   0.192   2.227  0.7598  1.3736  0.7285
 4737TIP3    H214218   3.522   0.156   2.236 -0.1010 -1.9714  3.2824
 4738TIP3   OH214219   3.967   5.932   0.150  0.0133  0.4284 -0.3965
 4738TIP3    H114220   3.993   6.022   0.171  0.0888  0.6494 -1.3851
 4738TIP3    H214221   3.971   5.886   0.234 -2.1299  1.8270  0.5483
 4739TIP3   OH214222   5.159   2.958   1.036  0.1133  0.4582 -0.0963
 4739TIP3    H114223   5.215   2.881   1.045 -0.8629 -0.3247 -0.4916
 4739TIP3    H214224   5.075   2.930   1.073 -0.5891  0.9566 -1.2889
 4740TIP3   OH214225   2.492   4.355   4.504  0.0954  0.3034  0.6793
 4740TIP3    H114226   2.471   4.278   4.450  0.4294 -0.3623  1.4818
 4740TIP3    H214227   2.447   4.427   4.460  0.6806 -0.1427 -0.7114
 4741TIP3   OH214228   4.401   3.572   4.740  0.3419  0.2969 -0.0901
 4741TIP3    H114229   4.326   3.513   4.729  0.0134  0.6249  0.3892
 4741TIP3    H214230   4.450   3.563   4.658 -0.5603  0.5585 -0.6754
 4742TIP3   OH214231   5.987   5.869   3.838  0.0609 -0.0996  0.1575
 4742TIP3    H114232   6.019   5.902   3.922  0.2582  0.1235 -0.0039
 4742TIP3    H214233   6.055   5.808   3.808  1.1515  1.5880 -0.9565
 4743TIP3   OH214234   1.018   2.775   2.778  0.1601  0.6035  0.6634
 4743TIP3    H114235   1.033   2.681   2.780  1.5735  0.7223 -1.3423
 4743TIP3    H214236   0.925   2.785   2.760  0.0932 -0.4067  0.3926
 4744TIP3   OH214237   4.557   5.894   5.110  0.1357 -0.9942 -0.1198
 4744TIP3    H114238   4.517   5.836   5.174 -0.3014  0.7683  1.2748
 4744TIP3    H214239   4.482   5.931   5.062  0.4586 -2.5677 -2.0162
 4745TIP3   OH214240   6.080   3.645   1.287  0.1465 -0.1437  0.0793
 4745TIP3    H114241   5.993   3.684   1.288 -0.0025 -0.3253 -2.0003
 4745TIP3    H214242   6.129   3.696   1.223  1.0074 -1.1914 -0.1280
 4746TIP3   OH214243   3.021   4.812   4.262  0.3037  0.7607 -0.0040
 4746TIP3    H114244   3.063   4.893   4.234  1.2407  0.1816 -0.3049
 4746TIP3    H214245   2.944   4.804   4.206  1.1942  0.5307 -1.2413
 4747TIP3   OH214246   1.110   0.626   5.029 -0.8119 -0.7755 -0.1738
 4747TIP3    H114247   1.049   0.693   5.059 -0.6217 -0.6776 -0.0035
 4747TIP3    H214248   1.196   0.669   5.030 -0.5685 -1.2625  0.7360
 4748TIP3   OH214249   2.303   1.524   3.027  0.4655  0.2582  0.0386
 4748TIP3    H114250   2.388   1.510   3.067 -0.0341 -0.2969  0.9423
 4748TIP3    H214251   2.271   1.606   3.065 -0.2091 -0.5038  1.1807
 4749TIP3   OH214252   4.519   2.264   3.263  0.3511 -0.2416  0.2805
 4749TIP3    H114253   4.526   2.359   3.249 -1.5746 -0.0160  0.6092
 4749TIP3    H214254   4.558   2.249   3.349 -0.2151  0.4134  0.6632
 4750TIP3   OH214255   0.834   2.193   2.773 -0.4862  0.2487 -0.1446
 4750TIP3    H114256   0.920   2.211   2.734  1.6000 -0.9757  3.3621
 4750TIP3    H214257   0.812   2.273   2.820 -1.5211  0.6861 -1.3208
 4751TIP3   OH214258   4.769   3.469   3.676  0.2060  0.5028 -0.3641
 4751TIP3    H114259   4.855   3.508   3.685 -0.2500  2.1109 -2.3924
 4751TIP3    H214260   4.737   3.461   3.766  1.4441  2.2373  0.2837
 4752TIP3   OH214261   4.789   2.311   0.204  0.0528 -0.0185 -0.2007
 4752TIP3    H114262   4.782   2.397   0.247 -0.2853 -1.0399  1.9135
 4752TIP3    H214263   4.721   2.258   0.244 -0.2420 -1.1083 -2.0091
 4753TIP3   OH214264   2.689   3.051   0.672  0.0277  0.3694 -0.4829
 4753TIP3    H114265   2.597   3.052   0.646  0.0881 -0.2848 -0.7335
 4753TIP3    H214266   2.709   3.143   0.690 -1.3940  0.2475  2.1946
 4754TIP3   OH214267   0.120   4.869   4.979  0.1697 -0.1609 -0.2003
 4754TIP3    H114268   0.206   4.834   5.003 -0.0716 -0.7404 -0.1764
 4754TIP3    H214269   0.097   4.823   4.898  0.3538  0.7688 -0.8039
 4755TIP3   OH214270   0.474   2.959   2.440 -0.4772 -0.0817 -0.3265
 4755TIP3    H114271   0.468   3.016   2.363  0.8950  1.3861  0.5858
 4755TIP3    H214272   0.563   2.925   2.437  0.0297  1.0118  1.2614
 4756TIP3   OH214273   0.408   2.648   0.314  0.1053 -0.1676  0.0997
 4756TIP3    H114274   0.447   2.573   0.359 -0.7227  0.4581  1.9296
 4756TIP3    H214275   0.444   2.644   0.225  0.7610 -2.2070  0.4122
 4757TIP3   OH214276   6.255   0.882   4.084 -0.0162 -0.5271 -0.1847
 4757TIP3    H114277   6.325   0.945   4.101 -0.6913  0.6645 -1.6368
 4757TIP3    H214278   6.300   0.798   4.075  1.1088  0.0480 -0.0557
 4758TIP3   OH214279   0.376   5.129   1.129  0.3987 -0.3112  0.7166
 4758TIP3    H114280   0.450   5.179   1.165  0.6258 -0.7427  0.8548
 4758TIP3    H214281   0.417   5.069   1.067 -0.0308  0.7334 -0.6221
 4759TIP3   OH214282   6.033   2.952   1.850  0.3555  0.4856 -0.1488
 4759TIP3    H114283   6.122   2.979   1.827  0.2710 -0.3581 -1.5690
 4759TIP3    H214284   6.036   2.856   1.849 -0.8782  0.4166 -1.6442
 4760TIP3   OH214285   5.970   5.928   4.928  0.0569  0.4075  0.2698
 4760TIP3    H114286   5.972   5.917   5.023 -0.3939  2.1102  0.5112
 4760TIP3    H214287   5.991   6.021   4.914  1.9591 -0.2044 -1.4177
 4761TIP3   OH214288   5.105   0.223   1.076  0.6594  0.3765 -0.2205
 4761TIP3    H114289   5.089   0.140   1.032 -0.2793  1.6071 -2.3572
 4761TIP3    H214290   5.201   0.230   1.079  0.7413 -0.1560 -1.2504
 4762TIP3   OH214291   5.033   5.659   4.902 -0.0851 -0.4264  0.1078
 4762TIP3    H114292   5.081   5.697   4.976 -1.1886 -0.0227  0.6434
 4762TIP3    H214293   4.958   5.718   4.889 -1.1238 -1.6885  0.1124
 4763TIP3   OH214294   2.928   5.553   1.831 -0.1869  0.2855 -0.0886
 4763TIP3    H114295   2.979   5.499   1.772  0.2694 -0.2964  0.8291
 4763TIP3    H214296   2.947   5.643   1.803  1.2638  0.0760  0.1863
 4764TIP3   OH214297   4.066   1.881   2.731 -0.4789 -0.3074  0.0640
 4764TIP3    H114298   4.117   1.918   2.659 -3.6991 -0.2851 -2.4455
 4764TIP3    H214299   4.071   1.948   2.799  2.0271  0.0521 -0.3545
 4765TIP3   OH214300   3.635   0.476   2.074  0.1637 -0.2230  0.0445
 4765TIP3    H114301   3.553   0.522   2.055 -1.0473 -2.0879  0.5351
 4765TIP3    H214302   3.641   0.409   2.006  2.6519  1.4302 -1.5585
 4766TIP3   OH214303   0.796   5.106   3.111  0.2142  0.1410  0.3237
 4766TIP3    H114304   0.747   5.097   3.030  0.9400 -0.4275 -0.0668
 4766TIP3    H214305   0.759   5.039   3.169 -0.5892  0.8295  0.6200
 4767TIP3   OH214306   1.446   3.949   1.114  0.4512  0.0762 -0.5421
 4767TIP3    H114307   1.506   3.886   1.152 -0.2737  0.7966  2.0187
 4767TIP3    H214308   1.487   4.034   1.130  0.1830  0.4266 -1.5949
 4768TIP3   OH214309   1.117   2.378   3.128  0.3847 -0.0266  0.0927
 4768TIP3    H114310   1.151   2.360   3.215 -1.2702  1.6050  1.1290
 4768TIP3    H214311   1.145   2.468   3.109  1.3448 -0.5963 -1.4108
 4769TIP3   OH214312   5.696   3.355   1.176  0.8581  0.1039 -0.5514
 4769TIP3    H114313   5.766   3.379   1.115  1.3015 -1.4611 -0.7089
 4769TIP3    H214314   5.665   3.438   1.211  1.4721  0.9505 -1.9411
 4770TIP3   OH214315   1.507   1.684   2.779  0.2675 -0.4173 -0.3700
 4770TIP3    H114316   1.594   1.724   2.784  0.3131 -0.5141 -0.3813
 4770TIP3    H214317   1.446   1.757   2.786  0.3550 -0.2612 -1.1798
 4771TIP3   OH214318   4.180   0.572   2.252 -0.4623  0.6055 -0.0353
 4771TIP3    H114319   4.153   0.603   2.165  2.7666  2.0626 -0.7069
 4771TIP3    H214320   4.275   0.589   2.254 -0.0153 -1.4941  2.9534
 4772TIP3   OH214321   1.507   0.754   3.510 -0.2678  0.1602 -0.2796
 4772TIP3    H114322   1.602   0.763   3.508 -0.2184  1.0118  2.1443
 4772TIP3    H214323   1.478   0.781   3.423  1.7591 -1.4451 -1.5348
 4773TIP3   OH214324   0.475   2.358   3.294 -0.2695  0.4267 -0.7056
 4773TIP3    H114325   0.447   2.304   3.220 -1.2223 -0.6292  0.3648
 4773TIP3    H214326   0.393   2.384   3.335  0.1935 -1.5609  1.7207
 4774TIP3   OH214327   2.607   5.254   0.846  0.4777 -0.1090 -0.1575
 4774TIP3    H114328   2.605   5.319   0.916  1.0979 -0.2587  0.0128
 4774TIP3    H214329   2.587   5.303   0.766  0.0061  0.1086  0.0913
 4775TIP3   OH214330   5.943   2.554   1.077 -0.2011  1.0755 -0.3665
 4775TIP3    H114331   5.998   2.611   1.024 -1.7728  1.4673 -1.6714
 4775TIP3    H214332   5.915   2.485   1.016 -2.3039  1.7109 -0.2069
 4776TIP3   OH214333   0.009   0.962   0.183  0.1746 -0.9978 -0.2971
 4776TIP3    H114334   0.051   1.012   0.113  1.5110  0.4909  1.4700
 4776TIP3    H214335   0.019   0.870   0.156 -0.0576 -0.4524 -2.4052
 4777TIP3   OH214336   4.314   4.878   2.200  0.3426 -0.3526  0.1384
 4777TIP3    H114337   4.240   4.820   2.219  0.2451 -0.2147  0.1748
 4777TIP3    H214338   4.370   4.826   2.141  0.6097 -0.7561  0.7268
 4778TIP3   OH214339   3.858   3.203   0.794 -0.0263 -0.3438 -0.1301
 4778TIP3    H114340   3.887   3.210   0.702  0.9499  0.1746  0.1986
 4778TIP3    H214341   3.825   3.113   0.802 -1.7548  0.1102 -1.4251
 4779TIP3   OH214342   5.516   5.170   0.675  0.4615 -0.7733 -0.2432
 4779TIP3    H114343   5.429   5.189   0.640  0.6833 -2.6638 -2.0697
 4779TIP3    H214344   5.576   5.199   0.606  1.1670 -0.9743  0.2812
 4780TIP3   OH214345   2.263   3.093   1.659 -0.0939 -0.4250  0.1766
 4780TIP3    H114346   2.333   3.072   1.597 -0.0852  0.6051 -0.1776
 4780TIP3    H214347   2.208   3.156   1.613 -1.5412 -1.5653  0.2614
 4781TIP3   OH214348   5.862   3.514   4.322 -0.2435  0.1713  0.1947
 4781TIP3    H114349   5.794   3.463   4.365  1.1181  0.3283  2.6916
 4781TIP3    H214350   5.944   3.477   4.353  0.8023  2.0618 -0.1232
 4782TIP3   OH214351   4.021   0.934   0.586 -0.1624  0.3069  0.6823
 4782TIP3    H114352   4.091   0.871   0.573 -0.5268 -0.3512  1.7558
 4782TIP3    H214353   4.036   1.001   0.520 -0.9954 -1.9262 -1.9611
 4783TIP3   OH214354   0.306   3.854   1.751  0.1021 -1.0350  0.7521
 4783TIP3    H114355   0.237   3.918   1.733  2.2227  0.9794 -0.8439
 4783TIP3    H214356   0.379   3.906   1.785  1.7134 -2.6801 -0.0102
 4784TIP3   OH214357   5.626   3.827   0.286  0.5773  0.3119  0.5896
 4784TIP3    H114358   5.664   3.806   0.371 -0.8799  0.4890  1.3247
 4784TIP3    H214359   5.651   3.918   0.270 -2.0820  1.5233  2.5963
 4785TIP3   OH214360   5.846   5.444   4.962  0.0332  0.2823 -0.0153
 4785TIP3    H114361   5.868   5.513   5.025  0.7412  0.5166 -0.4911
 4785TIP3    H214362   5.919   5.383   4.967 -0.3760 -0.1995  0.0807
 4786TIP3   OH214363   4.118   5.111   4.283  0.6452 -0.0269  0.2047
 4786TIP3    H114364   4.048   5.059   4.324 -1.4450  0.5065 -2.3400
 4786TIP3    H214365   4.125   5.074   4.195  0.8276  2.3960 -0.8795
 4787TIP3   OH214366   4.588   3.238   1.453  0.5014  0.1467 -0.6410
 4787TIP3    H114367   4.516   3.279   1.500  1.1401  1.1978 -0.5442
 4787TIP3    H214368   4.575   3.144   1.466 -0.7434  0.3206 -0.4884
 4788TIP3   OH214369   5.272   4.906   1.489  0.8110 -0.4492 -0.0768
 4788TIP3    H114370   5.206   4.892   1.421  1.2530 -0.1046 -0.5930
 4788TIP3    H214371   5.320   4.823   1.492  0.1582 -0.8073  0.5234
 4789TIP3   OH214372   0.061   1.464   2.276 -0.0235 -0.2972 -0.4936
 4789TIP3    H114373   0.100   1.549   2.297  0.9044 -0.8592  0.1440
 4789TIP3    H214374   0.089   1.406   2.347  0.2029 -1.3725 -1.4237
 4790TIP3   OH214375   5.282   2.732   0.265 -0.5408  0.0957 -0.1261
 4790TIP3    H114376   5.278   2.778   0.349  1.1037  0.8126 -0.3894
 4790TIP3    H214377   5.343   2.785   0.212  0.7057 -1.8616 -0.7694
 4791TIP3   OH214378   5.550   1.792   1.878 -0.1961  0.1533 -0.3203
 4791TIP3    H114379   5.587   1.851   1.943 -0.5002 -0.5192  0.4858
 4791TIP3    H214380   5.463   1.770   1.912 -0.3346 -0.2644 -0.9166
 4792TIP3   OH214381   1.556   1.365   0.549 -0.1584  0.4442  0.3085
 4792TIP3    H114382   1.577   1.451   0.585  1.3038 -0.4464  1.7157
 4792TIP3    H214383   1.638   1.335   0.509 -1.1208  0.4017 -1.7991
 4793TIP3   OH214384   0.440   3.669   1.257 -0.2535 -0.8477  0.8662
 4793TIP3    H114385   0.521   3.692   1.211 -1.4240  0.5717 -0.6107
 4793TIP3    H214386   0.449   3.711   1.342 -0.1272  0.7915  0.0921
 4794TIP3   OH214387   6.072   1.301   4.672 -0.0433  0.2014 -0.2222
 4794TIP3    H114388   6.047   1.383   4.715 -1.3775 -0.8330  1.0886
 4794TIP3    H214389   6.146   1.324   4.616  0.0754  2.1378  0.6705
 4795TIP3   OH214390   5.739   4.885   0.670 -0.2044 -0.1526 -0.3704
 4795TIP3    H114391   5.759   4.975   0.647 -1.7780  0.7713  1.5677
 4795TIP3    H214392   5.824   4.845   0.687  0.4582  1.3679  0.0448
 4796TIP3   OH214393   1.717   5.685   1.019 -0.1752 -0.5387  0.1165
 4796TIP3    H114394   1.738   5.616   0.955  0.7655  0.8602 -1.1389
 4796TIP3    H214395   1.770   5.663   1.096  2.9770  0.6533 -1.5368
 4797TIP3   OH214396   1.657   4.922   2.547  0.1944  0.2756  0.0414
 4797TIP3    H114397   1.646   4.847   2.606 -0.2288  0.7008  0.5122
 4797TIP3    H214398   1.581   4.978   2.565  1.8382  2.1515  1.7076
 4798TIP3   OH214399   6.217   2.501   3.475  0.2234 -0.7725  0.0142
 4798TIP3    H114400   6.164   2.547   3.410  0.7239 -0.4126 -0.1450
 4798TIP3    H214401   6.263   2.434   3.425  0.5111 -0.5785  0.0210
 4799TIP3   OH214402   1.537   3.331   4.537 -0.5785 -0.3815 -0.2182
 4799TIP3    H114403   1.600   3.342   4.609 -1.1204  0.7814  0.1053
 4799TIP3    H214404   1.536   3.237   4.520  2.5048 -0.3261 -1.3769
 4800TIP3   OH214405   1.281   4.344   2.528  0.3909 -0.1760  0.8301
 4800TIP3    H114406   1.332   4.310   2.454 -1.1773  0.6987 -0.7189
 4800TIP3    H214407   1.216   4.401   2.488 -0.6190  0.2058  2.9014
 4801TIP3   OH214408   5.421   4.231   3.553 -0.0051  0.1508  0.3023
 4801TIP3    H114409   5.488   4.177   3.595  0.6381  0.8197  0.1412
 4801TIP3    H214410   5.380   4.279   3.625 -0.7857 -0.7600  0.4848
 4802TIP3   OH214411   3.548   3.691   1.833  0.8938 -0.1253 -0.1764
 4802TIP3    H114412   3.627   3.728   1.793  1.6378 -1.6305 -0.1735
 4802TIP3    H214413   3.476   3.729   1.782  1.3907  3.1529  1.3207
 4803TIP3   OH214414   3.828   0.923   2.938 -0.7659  0.1613 -0.4050
 4803TIP3    H114415   3.802   0.899   2.849  0.4767  0.4587 -0.8681
 4803TIP3    H214416   3.924   0.924   2.936 -0.7174  0.3060  0.9049
 4804TIP3   OH214417   2.005   4.518   2.193 -0.0056  0.1867 -0.5261
 4804TIP3    H114418   1.979   4.606   2.166  0.4438  0.5914  0.3423
 4804TIP3    H214419   2.045   4.480   2.115 -1.1021  0.3750 -1.2099
 4805TIP3   OH214420   1.587   0.319   0.409  0.2634 -0.6843  0.2368
 4805TIP3    H114421   1.673   0.290   0.440  0.8400  1.4545  0.8020
 4805TIP3    H214422   1.524   0.275   0.466  0.9115 -2.6741 -0.5099
 4806TIP3   OH214423   0.339   0.728   4.108  0.0068 -0.6474  0.0878
 4806TIP3    H114424   0.428   0.759   4.123 -0.3705  1.9234 -2.1154
 4806TIP3    H214425   0.284   0.782   4.165 -0.3508 -0.0158 -0.8273
 4807TIP3   OH214426   0.225   4.815   2.638 -0.1533  0.1187 -0.1345
 4807TIP3    H114427   0.270   4.862   2.708  0.5215 -0.4250 -0.1951
 4807TIP3    H214428   0.151   4.772   2.682 -0.1872  0.4174  0.1030
 4808TIP3   OH214429   0.029   3.903   2.874  0.5082 -0.3590 -0.0935
 4808TIP3    H114430   0.007   3.879   2.784  0.3294 -1.5855  0.2569
 4808TIP3    H214431   0.124   3.889   2.879  0.6500  0.4716 -0.3017
 4809TIP3   OH214432   6.096   0.646   4.295 -0.1236  0.4307 -0.2037
 4809TIP3    H114433   6.120   0.736   4.314  0.6590  0.2586 -0.3568
 4809TIP3    H214434   6.150   0.593   4.354 -1.7954  0.1018  1.1128
 4810TIP3   OH214435   0.485   5.502   4.070  0.1492  0.2506 -0.2934
 4810TIP3    H114436   0.445   5.463   4.148  0.0779  0.9446  0.0298
 4810TIP3    H214437   0.449   5.452   3.997 -1.6403  1.0992 -0.0420
 4811TIP3   OH214438   5.113   1.819   2.134 -0.6928 -0.0123 -0.0763
 4811TIP3    H114439   5.197   1.846   2.172 -2.3427  2.1480  2.3925
 4811TIP3    H214440   5.061   1.791   2.209 -2.7724  0.4589 -1.2639
 4812TIP3   OH214441   0.580   0.068   3.093 -0.7817  0.0033 -0.3779
 4812TIP3    H114442   0.594  -0.012   3.042 -0.0300  0.4132 -0.8277
 4812TIP3    H214443   0.537   0.128   3.032 -0.8593  0.1280 -0.2018
 4813TIP3   OH214444   5.159   2.911   2.054 -0.2655  0.5425  0.1412
 4813TIP3    H114445   5.245   2.938   2.021 -0.3529  1.5361  0.7077
 4813TIP3    H214446   5.178   2.839   2.115  0.1190  0.4770 -0.0536
 4814TIP3   OH214447   2.524   3.914   4.814 -0.1334 -0.3981  0.1279
 4814TIP3    H114448   2.486   3.853   4.750  0.4297 -1.5819  0.8859
 4814TIP3    H214449   2.541   3.994   4.764 -1.2264 -0.7200 -0.8100
 4815TIP3   OH214450   5.356   1.919   4.434  0.5495  0.4296  0.5577
 4815TIP3    H114451   5.267   1.945   4.456  1.2961  2.8304  1.0759
 4815TIP3    H214452   5.354   1.900   4.340 -1.0846 -2.5466  1.0974
 4816TIP3   OH214453   2.553   4.324   2.291  0.2986  0.0543 -0.3606
 4816TIP3    H114454   2.507   4.379   2.227  0.5277 -0.1858 -0.7349
 4816TIP3    H214455   2.635   4.300   2.248  0.1997 -0.5860 -0.2095
 4817TIP3   OH214456   4.384   1.045   1.991  0.0086  0.2276 -0.1295
 4817TIP3    H114457   4.424   1.054   2.077  0.4923  0.8415 -0.4135
 4817TIP3    H214458   4.291   1.031   2.009  0.2050 -0.2932  0.5041
 4818TIP3   OH214459   2.809   2.072   2.769 -0.3384 -0.1851 -0.1400
 4818TIP3    H114460   2.752   2.014   2.820 -0.4053 -0.0773 -0.0912
 4818TIP3    H214461   2.764   2.157   2.770 -0.3727 -0.1968 -0.4300
 4819TIP3   OH214462   5.379   3.923   1.983  0.1088  0.3849  0.0677
 4819TIP3    H114463   5.332   3.956   2.060  0.3174  0.0046  0.3663
 4819TIP3    H214464   5.320   3.857   1.947  1.0466 -1.2702  1.3793
 4820TIP3   OH214465   5.628   0.830   0.219  0.1040 -0.3966  0.1037
 4820TIP3    H114466   5.556   0.839   0.281 -0.0184 -2.1240  0.2408
 4820TIP3    H214467   5.673   0.751   0.245  0.8182 -0.4634 -1.2411
 4821TIP3   OH214468   2.741   0.275   0.916  0.2698 -0.4117 -0.4925
 4821TIP3    H114469   2.810   0.249   0.855  0.2005  1.2605 -1.3349
 4821TIP3    H214470   2.691   0.341   0.869  0.9910  1.9413  1.8075
 4822TIP3   OH214471   3.471   5.528   1.650  0.2711  0.5398 -0.6736
 4822TIP3    H114472   3.442   5.505   1.562 -0.8373  0.6306 -0.3430
 4822TIP3    H214473   3.496   5.445   1.689  1.1520  0.5448 -1.1980
 4823TIP3   OH214474   3.548   0.753   5.039 -0.1905 -0.8856  0.1320
 4823TIP3    H114475   3.460   0.759   5.076 -0.3370  0.5906 -0.4070
 4823TIP3    H214476   3.600   0.814   5.092 -0.0409  0.0228 -1.0195
 4824TIP3   OH214477   0.352   1.063   1.520  0.3666  0.3100 -0.0030
 4824TIP3    H114478   0.269   1.091   1.557 -0.7334 -1.6857 -0.8112
 4824TIP3    H214479   0.355   1.104   1.433 -0.0273 -0.0032 -0.1679
 4825TIP3   OH214480   1.938   3.684   4.853  0.4730  0.3747  0.1686
 4825TIP3    H114481   1.990   3.605   4.865 -1.2020 -0.4731  2.9684
 4825TIP3    H214482   1.879   3.664   4.781  1.9720  0.2363 -1.0662
 4826TIP3   OH214483   1.564   1.873   3.565 -0.0529  0.0062  0.7399
 4826TIP3    H114484   1.565   1.795   3.509  0.2597 -2.1573  3.5161
 4826TIP3    H214485   1.564   1.946   3.504 -0.2711 -2.1346 -2.0522
 4827TIP3   OH214486   5.362   1.556   0.822  0.4150 -0.0968  0.1007
 4827TIP3    H114487   5.394   1.481   0.772  1.0816 -0.4719  1.0658
 4827TIP3    H214488   5.271   1.566   0.793  0.4026 -1.0948 -0.2629
 4828TIP3   OH214489   0.536   0.399   0.689 -0.2425 -0.7095 -0.2037
 4828TIP3    H114490   0.613   0.456   0.692 -0.1794 -0.7705 -0.6342
 4828TIP3    H214491   0.485   0.431   0.614 -1.4626  0.3871  1.0432
 4829TIP3   OH214492   6.041   1.871   5.147 -0.5096  0.0666 -0.5035
 4829TIP3    H114493   6.051   1.787   5.191  2.4615  0.9868  0.8476
 4829TIP3    H214494   6.080   1.858   5.061  0.6137  0.1693 -0.0375
 4830TIP3   OH214495   4.705   2.538   1.664 -0.2653  0.3488  0.5092
 4830TIP3    H114496   4.798   2.549   1.683  0.2972 -0.3865 -1.5341
 4830TIP3    H214497   4.660   2.559   1.746  1.6911  0.7617  1.5130
 4831TIP3   OH214498   4.821   2.016   2.365 -0.2364 -0.8198  0.5408
 4831TIP3    H114499   4.883   2.004   2.437 -0.8000 -0.8824  1.0277
 4831TIP3    H214500   4.824   2.110   2.346 -1.5692 -0.4286  2.0430
 4832TIP3   OH214501   4.486   4.118   0.530  0.0720 -0.0388  0.1261
 4832TIP3    H114502   4.394   4.141   0.515 -0.0383  2.8010  3.7619
 4832TIP3    H214503   4.534   4.195   0.501  1.0659 -0.4505  0.6628
 4833TIP3   OH214504   3.945   0.796   0.808 -0.2784 -0.0082  0.3776
 4833TIP3    H114505   4.021   0.816   0.862 -0.1891  1.7519 -0.3446
 4833TIP3    H214506   3.969   0.823   0.720 -1.0371 -1.2746 -0.2615
 4834TIP3   OH214507   0.385   5.578   5.155 -0.2346  0.4912  0.4282
 4834TIP3    H114508   0.371   5.604   5.245 -2.6891  0.9321 -0.0256
 4834TIP3    H214509   0.314   5.517   5.136  1.9500 -2.0179 -0.3474
 4835TIP3   OH214510   4.549   2.792   5.081 -0.3068  0.1878  0.1064
 4835TIP3    H114511   4.578   2.713   5.034 -1.9042  0.1753 -0.9412
 4835TIP3    H214512   4.551   2.767   5.174  0.7579 -0.5424 -0.0997
 4836TIP3   OH214513   2.276   0.979   2.157 -0.6595  0.0837 -0.1179
 4836TIP3    H114514   2.203   0.982   2.094  0.1077 -2.5478 -1.2655
 4836TIP3    H214515   2.342   0.926   2.114  0.7711 -0.0713  2.1190
 4837TIP3   OH214516   2.640   4.257   3.809  0.3959  0.1257 -0.5718
 4837TIP3    H114517   2.546   4.264   3.825  0.7142  3.9103  0.6807
 4837TIP3    H214518   2.649   4.271   3.714 -0.2329  2.1830 -0.3683
 4838TIP3   OH214519   1.918   0.811   2.322  0.2161 -0.4282  0.3161
 4838TIP3    H114520   1.838   0.787   2.369  0.0635 -1.0340 -0.2439
 4838TIP3    H214521   1.895   0.893   2.278  0.1820 -0.1500  0.8476
 4839TIP3   OH214522   4.467   1.337   3.260  0.0399  0.8277 -0.0001
 4839TIP3    H114523   4.486   1.268   3.324  0.0270 -0.4662 -1.3337
 4839TIP3    H214524   4.553   1.367   3.231  0.0429  1.2084  0.3854
 4840TIP3   OH214525   4.727   4.997   4.692 -0.0259 -0.1459  1.1806
 4840TIP3    H114526   4.737   4.972   4.784 -0.9278 -0.1778  1.2768
 4840TIP3    H214527   4.652   5.056   4.691  0.9597  1.1575  0.6873
 4841TIP3   OH214528   2.089   0.960   4.488  0.1624  0.6082  0.4733
 4841TIP3    H114529   1.997   0.983   4.493  0.3502  1.4214  0.4403
 4841TIP3    H214530   2.123   0.979   4.575  0.0224 -1.0250  0.9141
 4842TIP3   OH214531   0.605   0.197   3.710  0.2201 -0.0192 -0.0870
 4842TIP3    H114532   0.613   0.116   3.660  1.7996 -0.0758  0.1799
 4842TIP3    H214533   0.606   0.266   3.644 -1.4137 -0.1959 -0.3345
 4843TIP3   OH214534   2.971   5.303   2.351  0.2996 -0.1073  0.3819
 4843TIP3    H114535   2.897   5.286   2.409  0.3287 -0.3520  0.3487
 4843TIP3    H214536   3.007   5.216   2.332 -0.1983 -0.0995 -0.6429
 4844TIP3   OH214537   5.304   0.047   4.036 -0.1962 -0.0553 -0.0312
 4844TIP3    H114538   5.306   0.058   4.131  0.1610  0.5167 -0.0972
 4844TIP3    H214539   5.246   0.116   4.006 -0.1796 -0.1323 -0.2391
 4845TIP3   OH214540   5.342   0.572   2.969  0.2538 -0.5812  0.2081
 4845TIP3    H114541   5.316   0.664   2.974 -0.8331 -0.6920 -1.9579
 4845TIP3    H214542   5.433   0.575   2.940 -0.0631 -0.1581 -0.7974
 4846TIP3   OH214543   4.375   3.870   4.767  0.0449  0.3168 -0.5022
 4846TIP3    H114544   4.458   3.882   4.720 -1.1464  2.9038 -2.2046
 4846TIP3    H214545   4.344   3.784   4.740  2.5457 -1.1457  0.9390
 4847TIP3   OH214546   4.798   5.454   0.136 -0.3100  0.0442 -0.0922
 4847TIP3    H114547   4.734   5.471   0.066  0.7010  1.3322 -0.7559
 4847TIP3    H214548   4.830   5.541   0.160  0.3433 -0.4947  1.0525
 4848TIP3   OH214549   5.115   4.900   2.305  0.1551 -0.5657  0.0117
 4848TIP3    H114550   5.150   4.978   2.263  1.5332 -1.4376 -0.5267
 4848TIP3    H214551   5.085   4.930   2.391  2.6646  0.1818  0.7115
 4849TIP3   OH214552   4.004   2.510   1.305 -0.0435 -0.0358 -0.8718
 4849TIP3    H114553   4.094   2.526   1.333 -0.1465  0.3546 -0.7577
 4849TIP3    H214554   4.013   2.451   1.230  0.2473 -0.9061 -0.1698
 4850TIP3   OH214555   3.458   2.587   0.259 -0.2240  0.2383 -0.1953
 4850TIP3    H114556   3.550   2.575   0.283 -0.5599 -0.3484  0.8254
 4850TIP3    H214557   3.461   2.652   0.189  0.7870  2.4263  1.7216
 4851TIP3   OH214558   4.839   0.804   0.391 -0.4100  1.1304 -0.2442
 4851TIP3    H114559   4.880   0.762   0.315  0.1331  1.9072 -0.3898
 4851TIP3    H214560   4.815   0.891   0.361  0.6791  1.7966  0.7376
 4852TIP3   OH214561   2.933   5.619   1.468 -0.0981 -0.5571 -0.1793
 4852TIP3    H114562   2.905   5.571   1.389 -1.4336 -0.1983  0.0540
 4852TIP3    H214563   2.852   5.643   1.511  0.5976  0.4152  0.6262
 4853TIP3   OH214564   4.599   3.892   4.054  0.5243 -0.0470 -0.3862
 4853TIP3    H114565   4.517   3.928   4.018 -0.8580 -0.9108  1.7199
 4853TIP3    H214566   4.621   3.819   3.996  0.7306  1.1662 -1.9061
 4854TIP3   OH214567   5.754   0.863   4.712  0.5511  0.1702  0.0618
 4854TIP3    H114568   5.757   0.957   4.693  2.4805  0.4564  1.5517
 4854TIP3    H214569   5.795   0.822   4.636  1.2253  0.6793  0.1427
 4855TIP3   OH214570   2.767   4.818   0.078 -1.1315  0.3319  0.2479
 4855TIP3    H114571   2.675   4.792   0.085 -0.8808 -0.8024 -0.4374
 4855TIP3    H214572   2.812   4.739   0.049 -0.3121  1.4815 -1.8512
 4856TIP3   OH214573   4.880   4.880   2.870 -0.4084 -0.1983 -0.6917
 4856TIP3    H114574   4.823   4.829   2.929 -0.5793 -0.1092 -0.7799
 4856TIP3    H214575   4.944   4.920   2.929 -0.3307 -0.4348 -0.6096
 4857TIP3   OH214576   4.515   3.430   2.634  0.2192  0.1038  0.0294
 4857TIP3    H114577   4.540   3.512   2.677  0.7989 -0.6512  1.2019
 4857TIP3    H214578   4.514   3.366   2.705 -1.0394 -0.7447 -0.7266
 4858TIP3   OH214579   4.533   2.224   4.896  0.3340  0.3151  0.0854
 4858TIP3    H114580   4.569   2.135   4.891 -0.2024  0.1263 -0.6069
 4858TIP3    H214581   4.604   2.281   4.865  0.2645  0.0057 -0.6708
 4859TIP3   OH214582   5.822   2.025   0.343 -0.2446 -0.5776 -0.0180
 4859TIP3    H114583   5.859   1.948   0.300 -0.1707 -0.5894  0.0655
 4859TIP3    H214584   5.875   2.036   0.422  0.1152 -0.0992 -0.3226
 4860TIP3   OH214585   5.378   5.501   1.891 -0.8141  0.8829  0.0747
 4860TIP3    H114586   5.331   5.465   1.966 -0.4674  1.6358  0.6535
 4860TIP3    H214587   5.326   5.473   1.815 -1.5208  0.6674  0.6306
 4861TIP3   OH214588   6.261   2.544   4.880 -0.5799  0.0798  0.3639
 4861TIP3    H114589   6.334   2.496   4.842 -1.3518 -0.4116 -0.5167
 4861TIP3    H214590   6.284   2.637   4.868  3.0384  0.3553  5.8685
 4862TIP3   OH214591   0.980   0.234   1.950 -0.4689  0.1819  0.0043
 4862TIP3    H114592   0.986   0.182   2.030  0.0612  1.4355  0.8014
 4862TIP3    H214593   1.007   0.174   1.880  0.1082 -0.6097  0.8883
 4863TIP3   OH214594   5.337   2.706   3.196 -0.4644 -0.1027  0.2562
 4863TIP3    H114595   5.371   2.786   3.155  0.4764 -0.5408  0.1553
 4863TIP3    H214596   5.319   2.647   3.123  1.9561 -1.1740  0.4504
 4864TIP3   OH214597   1.459   1.705   0.135  0.3183 -0.0783 -0.0562
 4864TIP3    H114598   1.519   1.715   0.209  0.6222  1.1006 -0.4365
 4864TIP3    H214599   1.438   1.612   0.133  1.7980 -0.4378  0.3497
 4865TIP3   OH214600   1.669   2.395   4.961 -0.1153 -0.1773 -0.5773
 4865TIP3    H114601   1.648   2.469   4.904  1.9604 -0.1922 -1.4461
 4865TIP3    H214602   1.671   2.432   5.049  0.7959  0.7944 -0.9928
 4866TIP3   OH214603   0.167   3.136   4.582  0.2001 -0.2316 -0.4850
 4866TIP3    H114604   0.226   3.148   4.508  1.3866 -3.1166 -0.1266
 4866TIP3    H214605   0.225   3.126   4.658 -0.7379 -2.0440  0.0474
 4867TIP3   OH214606   2.356   4.502   1.507  0.4044 -0.1055  0.0136
 4867TIP3    H114607   2.446   4.531   1.526  0.2810  0.1946  0.1397
 4867TIP3    H214608   2.327   4.560   1.437 -0.4608  1.2541  1.4344
 4868TIP3   OH214609   4.164   3.809   4.029  0.2226  0.3363  0.1220
 4868TIP3    H114610   4.131   3.803   4.119  0.0141 -1.5391 -0.0266
 4868TIP3    H214611   4.100   3.759   3.978  2.3049 -1.8996 -0.4615
 4869TIP3   OH214612   4.740   4.580   4.644  0.2892  0.4630  0.5555
 4869TIP3    H114613   4.672   4.604   4.706 -1.1784 -0.0050 -0.8112
 4869TIP3    H214614   4.771   4.663   4.608 -0.7426  0.6202 -0.0009
 4870TIP3   OH214615   0.808   2.596   4.270 -0.1042  0.0396 -0.5003
 4870TIP3    H114616   0.740   2.549   4.319  0.4350  0.8029  1.0472
 4870TIP3    H214617   0.791   2.688   4.289  2.2585  0.1901  1.1999
 4871TIP3   OH214618   4.767   4.119   4.529 -0.5320  0.3789 -0.0509
 4871TIP3    H114619   4.750   4.072   4.448 -0.8289 -0.7101  0.6164
 4871TIP3    H214620   4.801   4.052   4.589  0.4174  1.3163  0.4928
 4872TIP3   OH214621   4.149   2.904   3.707 -0.0412  0.2154  0.2769
 4872TIP3    H114622   4.104   2.831   3.666  0.7954 -0.7165  0.9647
 4872TIP3    H214623   4.122   2.981   3.656 -2.3816 -0.2818  0.6952
 4873TIP3   OH214624   4.178   0.727   0.484 -0.4085  0.1475 -0.3255
 4873TIP3    H114625   4.139   0.768   0.406 -2.9397  0.7887  1.1369
 4873TIP3    H214626   4.264   0.697   0.456 -0.7209  1.4898 -3.0058
 4874TIP3   OH214627   4.962   5.155   4.899 -0.4851  0.0215 -0.5158
 4874TIP3    H114628   4.954   5.239   4.854 -1.7889  0.3871  0.3198
 4874TIP3    H214629   5.036   5.167   4.959 -1.6222  1.1619  0.7265
 4875TIP3   OH214630   6.079   1.350   2.394  0.3112  0.7052 -0.3253
 4875TIP3    H114631   6.141   1.293   2.441 -1.0605 -0.0380  0.6699
 4875TIP3    H214632   6.000   1.297   2.386 -0.2366  1.6609 -1.5021
 4876TIP3   OH214633   1.565   3.482   0.037 -0.5639 -0.6367  0.4342
 4876TIP3    H114634   1.555   3.525  -0.048 -0.0972 -1.0443  0.1664
 4876TIP3    H214635   1.479   3.489   0.078 -0.3363  1.1761  0.7115
 4877TIP3   OH214636   1.660   0.087   0.567  0.1263 -0.0194 -0.3800
 4877TIP3    H114637   1.704   0.011   0.606  1.3037  1.2931  0.9383
 4877TIP3    H214638   1.725   0.127   0.511  0.2722  1.2558  0.6489
 4878TIP3   OH214639   4.819   3.303   2.730  0.3079 -0.1673  0.1427
 4878TIP3    H114640   4.914   3.319   2.732  0.4232  0.0557 -2.5624
 4878TIP3    H214641   4.780   3.390   2.723  0.1554 -0.3458 -1.8868
 4879TIP3   OH214642   3.636   5.218   4.100  0.0216  0.2985  0.2717
 4879TIP3    H114643   3.595   5.245   4.182 -0.3462 -0.0741  0.2122
 4879TIP3    H214644   3.730   5.235   4.113  0.0678 -0.4877  1.0643
 4880TIP3   OH214645   4.690   2.030   0.098  0.1689  0.3856  0.7139
 4880TIP3    H114646   4.596   2.049   0.107 -0.3368 -1.3236 -0.4310
 4880TIP3    H214647   4.697   1.936   0.111  1.2701 -0.0038 -1.9177
 4881TIP3   OH214648   2.127   1.956   1.782 -0.2067 -0.2711  0.4170
 4881TIP3    H114649   2.171   1.969   1.699 -0.4576  2.0491  0.5778
 4881TIP3    H214650   2.193   1.917   1.839  0.1625 -1.2379 -0.6436
 4882TIP3   OH214651   0.204   0.453   1.995 -0.3437 -0.0831 -0.3656
 4882TIP3    H114652   0.256   0.413   1.925 -0.9830  0.0850 -0.9559
 4882TIP3    H214653   0.119   0.469   1.954 -0.4216  0.9183  0.1703
 4883TIP3   OH214654   0.885   0.145   2.841 -0.5790  0.2759 -0.1126
 4883TIP3    H114655   0.970   0.142   2.796 -0.3795 -3.6744  0.1666
 4883TIP3    H214656   0.821   0.150   2.771 -0.1488 -1.5565 -0.7039
 4884TIP3   OH214657   4.798   4.773   0.059 -0.2487  0.1676 -0.2255
 4884TIP3    H114658   4.757   4.703   0.010 -0.2400  0.6723 -0.9729
 4884TIP3    H214659   4.740   4.849   0.046 -0.5695  0.1646  1.0442
 4885TIP3   OH214660   6.166   1.657   0.262 -0.0960 -0.2208  0.2025
 4885TIP3    H114661   6.259   1.643   0.280  0.6281  0.8317 -2.3183
 4885TIP3    H214662   6.125   1.574   0.285  1.5026 -0.8579  0.9577
 4886TIP3   OH214663   3.466   1.082   0.304  0.1059  0.7252  0.0226
 4886TIP3    H114664   3.502   1.106   0.389  1.2007  0.9535 -0.4786
 4886TIP3    H214665   3.492   0.991   0.292  2.2453  1.4013 -1.1341
 4887TIP3   OH214666   0.171   5.150   1.315  0.2203 -0.0767  0.5066
 4887TIP3    H114667   0.240   5.128   1.253 -0.5438 -0.1155 -0.3518
 4887TIP3    H214668   0.101   5.186   1.261 -0.5682 -0.3480  1.3230
 4888TIP3   OH214669   3.236   0.819   4.308  0.1341  0.3045 -0.0788
 4888TIP3    H114670   3.157   0.823   4.363 -0.2060 -0.0204 -0.5379
 4888TIP3    H214671   3.203   0.806   4.219  0.7173 -0.0372 -0.2523
 4889TIP3   OH214672   2.819   4.676   4.663  0.6944 -0.0918 -0.3748
 4889TIP3    H114673   2.835   4.760   4.621 -0.9727  0.3998 -0.0830
 4889TIP3    H214674   2.879   4.675   4.738  0.9298  0.7096 -0.5475
 4890TIP3   OH214675   0.450   2.038   0.726  0.0755  0.0507  0.3514
 4890TIP3    H114676   0.543   2.057   0.717 -0.0522  0.8802  0.6820
 4890TIP3    H214677   0.444   1.943   0.718  0.6317  0.1730 -2.3973
 4891TIP3   OH214678   3.038   3.152   4.187  0.2712 -0.3920 -0.3590
 4891TIP3    H114679   3.063   3.076   4.239  1.8968  0.1452 -0.3024
 4891TIP3    H214680   3.081   3.139   4.103  0.4507  0.3828 -0.3968
 4892TIP3   OH214681   3.460   1.945   3.747 -0.3590  0.6534  0.0032
 4892TIP3    H114682   3.476   1.980   3.660  0.5944  0.5735  0.1402
 4892TIP3    H214683   3.368   1.917   3.744 -0.4638  1.0405 -0.8307
 4893TIP3   OH214684   5.540   3.008   4.229  0.1833  0.2432 -0.1166
 4893TIP3    H114685   5.583   3.086   4.195  1.4554 -0.7786 -0.9820
 4893TIP3    H214686   5.609   2.942   4.230 -1.3604 -1.5317 -1.6833
 4894TIP3   OH214687   1.696   5.584   1.684  0.3952 -0.0671  0.0178
 4894TIP3    H114688   1.605   5.564   1.662  0.6609 -2.9170  1.1610
 4894TIP3    H214689   1.692   5.618   1.774  0.2220  3.1066 -1.0542
 4895TIP3   OH214690   0.886   4.149   4.753 -0.3378 -0.2866  0.4300
 4895TIP3    H114691   0.875   4.114   4.842  2.5218  1.6507  1.6866
 4895TIP3    H214692   0.896   4.243   4.766 -0.4947  0.1223 -2.0595
 4896TIP3   OH214693   5.567   1.557   3.467  0.5358 -0.0212 -0.7105
 4896TIP3    H114694   5.630   1.620   3.433  0.2373 -0.1643 -1.5656
 4896TIP3    H214695   5.565   1.487   3.401  0.9975 -1.0229  0.3125
 4897TIP3   OH214696   4.107   2.093   3.710 -0.6919  0.5676 -0.2517
 4897TIP3    H114697   4.110   2.118   3.803 -1.0817 -1.0686  0.2396
 4897TIP3    H214698   4.033   2.032   3.704 -0.3498  0.2468 -1.5315
 4898TIP3   OH214699   2.909   2.771   0.633  0.6840  0.1315 -0.1230
 4898TIP3    H114700   2.874   2.693   0.589  0.6322  0.0801  0.0090
 4898TIP3    H214701   2.972   2.808   0.571 -0.0177  0.5456 -0.6057
 4899TIP3   OH214702   1.559   2.850   2.385 -0.4549 -0.4180  0.0037
 4899TIP3    H114703   1.504   2.821   2.312  1.1761  1.6662 -2.2027
 4899TIP3    H214704   1.513   2.927   2.419  0.1162  0.2168 -0.6305
 4900TIP3   OH214705   5.704   4.074   1.177 -0.0115  0.4765 -0.0634
 4900TIP3    H114706   5.792   4.077   1.214 -0.3943  1.1867  0.8208
 4900TIP3    H214707   5.676   4.166   1.171 -0.1463  0.3675 -1.7196
 4901TIP3   OH214708   2.918   4.507   4.288  0.0978 -0.1772  0.0041
 4901TIP3    H114709   2.861   4.547   4.354 -0.0358  0.9494 -0.7604
 4901TIP3    H214710   2.917   4.414   4.308  0.6051  0.2166  2.0081
 4902TIP3   OH214711   5.903   3.074   2.670 -0.3729  0.1020 -0.0114
 4902TIP3    H114712   5.907   2.985   2.633  0.2143  0.1732 -0.1355
 4902TIP3    H214713   5.895   3.131   2.593 -2.8657  0.0670  0.1451
 4903TIP3   OH214714   5.028   3.824   2.099 -0.6354 -0.4443 -0.1071
 4903TIP3    H114715   5.053   3.914   2.078  1.2730 -0.9494 -0.1313
 4903TIP3    H214716   4.991   3.830   2.188 -0.8721  0.4082 -0.2563
 4904TIP3   OH214717   0.756   3.300   2.367  0.0187  0.4069  0.1603
 4904TIP3    H114718   0.740   3.321   2.459 -0.6928 -1.6775  0.5552
 4904TIP3    H214719   0.713   3.371   2.319 -0.6008  0.9219  1.4242
 4905TIP3   OH214720   1.992   2.996   1.189 -0.2176 -0.3286  0.1854
 4905TIP3    H114721   1.956   2.925   1.135  1.4807  0.1206 -1.6504
 4905TIP3    H214722   1.972   2.970   1.279 -1.2866 -2.1853 -0.5268
 4906TIP3   OH214723   4.580   1.836   1.529  0.0385  0.4940  0.2266
 4906TIP3    H114724   4.658   1.813   1.478 -1.1076 -0.9026 -0.9669
 4906TIP3    H214725   4.592   1.929   1.548  0.9140  0.8886 -1.9132
 4907TIP3   OH214726   4.399   2.980   3.569  0.4941 -0.5508  0.5238
 4907TIP3    H114727   4.389   3.061   3.620  1.4686 -0.4469  0.5608
 4907TIP3    H214728   4.339   2.918   3.611  0.9193 -0.3174  1.5084
 4908TIP3   OH214729   4.511   3.346   5.102  0.1086  0.0077  0.0668
 4908TIP3    H114730   4.544   3.433   5.124 -2.4916  0.4466  3.0875
 4908TIP3    H214731   4.442   3.362   5.038  0.2194  0.0665 -0.0379
 4909TIP3   OH214732   0.697   1.066   0.499  1.0057  0.5258 -0.3694
 4909TIP3    H114733   0.693   1.010   0.576  0.7816  0.2078 -0.6133
 4909TIP3    H214734   0.612   1.056   0.457  0.7374  1.5003 -0.1001
 4910TIP3   OH214735   4.905   1.394   4.573 -0.2690 -0.1395 -0.3192
 4910TIP3    H114736   4.840   1.452   4.534  0.0497  0.0524 -0.5687
 4910TIP3    H214737   4.974   1.452   4.604  0.7016 -0.4520 -1.7849
 4911TIP3   OH214738   5.274   2.438   0.935 -0.3694  0.1855 -0.1295
 4911TIP3    H114739   5.302   2.356   0.892 -1.6088 -0.0910 -0.4503
 4911TIP3    H214740   5.233   2.488   0.864 -2.1017 -0.1091  0.6294
 4912TIP3   OH214741   1.986   1.951   4.802 -0.0207 -0.1550  0.5197
 4912TIP3    H114742   2.034   1.989   4.729 -1.4229 -0.0908 -0.4094
 4912TIP3    H214743   1.921   2.016   4.825  0.7940  0.1001  2.2923
 4913TIP3   OH214744   5.144  -0.023   0.494  0.3878  0.3942  0.1587
 4913TIP3    H114745   5.185   0.036   0.557  1.5396  1.2748 -1.3303
 4913TIP3    H214746   5.103   0.035   0.430  0.8564 -0.4168 -0.9026
 4914TIP3   OH214747   4.622   4.317   3.611 -0.5185  0.1219  0.8196
 4914TIP3    H114748   4.548   4.287   3.664 -0.1261 -1.3556  0.5929
 4914TIP3    H214749   4.597   4.296   3.522 -0.6415  1.4465  0.5222
 4915TIP3   OH214750   5.436   2.360   3.997 -0.2716 -0.8353  0.1676
 4915TIP3    H114751   5.470   2.442   3.960 -1.7653 -0.3958 -0.3115
 4915TIP3    H214752   5.513   2.303   4.002  1.1337  1.0556  1.9238
 4916TIP3   OH214753   1.837   3.918   2.418  0.1876 -0.1626 -0.2323
 4916TIP3    H114754   1.811   3.894   2.507  0.2052 -0.8512 -0.4069
 4916TIP3    H214755   1.844   3.835   2.372  2.2811 -0.0076 -0.3065
 4917TIP3   OH214756   2.856   4.869   4.489 -0.1093  0.1779 -0.2357
 4917TIP3    H114757   2.917   4.850   4.417  0.2019 -0.7237  0.2463
 4917TIP3    H214758   2.856   4.964   4.496  0.3231  0.2480 -1.0324
 4918TIP3   OH214759   3.657   4.208   2.008 -0.0187 -0.3848  0.0408
 4918TIP3    H114760   3.663   4.116   2.032  0.2544 -0.2804  0.3821
 4918TIP3    H214761   3.740   4.247   2.038  0.3581 -0.2575 -1.1219
 4919TIP3   OH214762   3.354   0.291   4.050 -0.6100 -0.0069 -0.2890
 4919TIP3    H114763   3.439   0.267   4.014  0.2087  0.7553  1.0430
 4919TIP3    H214764   3.298   0.215   4.034  0.6711 -1.0148 -0.0986
 4920TIP3   OH214765   2.797   5.051   5.075  0.1511  0.7974  0.6725
 4920TIP3    H114766   2.784   4.987   5.145  0.1540  0.1638  0.1139
 4920TIP3    H214767   2.824   4.998   5.000  1.1915  1.5685  0.4776
 4921TIP3   OH214768   0.090   2.148   2.086 -0.3390  0.0332  0.2563
 4921TIP3    H114769   0.126   2.065   2.057 -0.8805 -1.1659  2.7904
 4921TIP3    H214770   0.108   2.208   2.013  2.5773 -1.5762 -0.5187
 4922TIP3   OH214771   4.148   4.817   0.212 -0.1222 -0.5542  0.2004
 4922TIP3    H114772   4.239   4.790   0.203 -0.0588 -0.1086 -0.5152
 4922TIP3    H214773   4.149   4.879   0.285 -0.1042 -1.6854  1.1818
 4923TIP3   OH214774   4.684   0.297   3.460 -0.5339  0.5485  0.2524
 4923TIP3    H114775   4.708   0.379   3.418  0.7590  0.3852  0.6353
 4923TIP3    H214776   4.674   0.319   3.553  2.0514 -0.1022  0.7583
 4924TIP3   OH214777   3.419   2.555   1.941  0.1940  0.6395 -0.0268
 4924TIP3    H114778   3.345   2.611   1.917 -0.9814  0.1118  2.1058
 4924TIP3    H214779   3.404   2.474   1.892  0.8536  1.4258 -1.6255
 4925TIP3   OH214780   2.944   1.059   3.725 -1.2743  0.1975  0.6179
 4925TIP3    H114781   2.849   1.044   3.728 -1.1007 -1.0288  0.3836
 4925TIP3    H214782   2.969   1.070   3.816 -1.3040 -1.8331  0.9057
 4926TIP3   OH214783   5.513   2.062   0.024  0.1502 -0.7019  0.0788
 4926TIP3    H114784   5.491   2.001   0.095  1.3818 -0.5096  0.6597
 4926TIP3    H214785   5.604   2.040   0.001  0.2660  0.2355 -0.4000
 4927TIP3   OH214786   0.233   4.311   0.394  0.0175  0.1741 -0.0551
 4927TIP3    H114787   0.149   4.270   0.415  0.3348 -0.1504  0.5974
 4927TIP3    H214788   0.281   4.244   0.346  0.2899 -0.0021  0.4564
 4928TIP3   OH214789   0.488   2.081   5.180 -0.0461  0.1362  0.5619
 4928TIP3    H114790   0.462   2.048   5.094 -0.8706  2.6762 -0.2843
 4928TIP3    H214791   0.579   2.054   5.190  0.5847  1.0981 -1.8738
 4929TIP3   OH214792   1.529   3.529   2.266  0.0245  0.4056 -0.0672
 4929TIP3    H114793   1.509   3.439   2.292  0.5295  0.0595 -0.8518
 4929TIP3    H214794   1.485   3.541   2.182 -0.7660  1.1850  0.4481
 4930TIP3   OH214795   0.065   1.306   1.790 -0.4948  0.4343 -0.8322
 4930TIP3    H114796   0.095   1.328   1.878 -1.6489  2.8402 -0.9379
 4930TIP3    H214797   0.125   1.354   1.732 -0.8002  0.2927 -1.2701
 4931TIP3   OH214798   4.597   0.201   2.098  0.2718 -0.0515  0.0151
 4931TIP3    H114799   4.643   0.166   2.174 -1.3479  0.7245  1.4218
 4931TIP3    H214800   4.638   0.286   2.082 -0.3133  0.4246  0.9587
 4932TIP3   OH214801   3.590   4.184   5.033 -0.5375 -0.1540  0.4652
 4932TIP3    H114802   3.537   4.109   5.059  0.0148 -0.1968  1.5401
 4932TIP3    H214803   3.619   4.164   4.944 -0.8428 -0.9551  0.5407
 4933TIP3   OH214804   0.931   2.613   1.009 -0.0437  0.4856 -0.3652
 4933TIP3    H114805   0.916   2.578   1.097  0.5354 -0.1206 -0.5005
 4933TIP3    H214806   0.918   2.707   1.019 -0.7433  0.3358  0.2006
 4934TIP3   OH214807   2.046   0.267   4.418 -0.5465 -0.4275 -0.0602
 4934TIP3    H114808   2.001   0.348   4.391  0.0324 -0.1981 -0.3547
 4934TIP3    H214809   2.038   0.266   4.514  1.0116  0.9385  0.1268
 4935TIP3   OH214810   3.831   2.849   3.904  0.1620 -0.1453  0.7044
 4935TIP3    H114811   3.863   2.888   3.823  0.4905 -0.0086  0.9004
 4935TIP3    H214812   3.909   2.835   3.957 -0.1273  0.4174  1.2877
 4936TIP3   OH214813   5.002   4.286   1.758 -0.4439 -0.2255 -0.0459
 4936TIP3    H114814   4.986   4.243   1.674  0.9858  1.0250 -1.0114
 4936TIP3    H214815   5.094   4.269   1.777 -0.6404 -0.1156  1.0611
 4937TIP3   OH214816   1.626   5.449   0.854 -0.2071  0.5605 -0.0550
 4937TIP3    H114817   1.608   5.416   0.942 -0.3510  0.5284 -0.0976
 4937TIP3    H214818   1.652   5.372   0.804 -3.6393 -0.1071 -1.0398
 4938TIP3   OH214819   0.315   4.545   4.593  0.3270  0.5215  0.2511
 4938TIP3    H114820   0.356   4.481   4.535  0.6848  0.3415  0.6966
 4938TIP3    H214821   0.374   4.552   4.667  0.3818  1.5079  0.1297
 4939TIP3   OH214822   3.022   4.441   0.709 -0.3731  0.4837  0.3042
 4939TIP3    H114823   3.069   4.365   0.675 -0.0481 -0.2268  2.2148
 4939TIP3    H214824   2.930   4.423   0.689 -0.2741 -0.3107  0.5274
 4940TIP3   OH214825   4.604   0.551   3.140  0.2039 -0.2734 -0.1546
 4940TIP3    H114826   4.573   0.464   3.113 -0.0372 -0.0089 -0.7555
 4940TIP3    H214827   4.664   0.534   3.212 -1.0128 -0.8253  0.7549
 4941TIP3   OH214828   4.912   5.605   1.043  0.3170  0.2148 -0.2339
 4941TIP3    H114829   4.972   5.557   0.986 -0.0933 -0.0702 -0.4322
 4941TIP3    H214830   4.834   5.619   0.990 -0.6487 -1.3256  0.6777
 4942TIP3   OH214831   1.471   0.623   1.812 -0.3628  0.7651  0.5426
 4942TIP3    H114832   1.463   0.566   1.888  2.5904  1.4756  1.4971
 4942TIP3    H214833   1.560   0.611   1.781 -1.1646  1.2223 -2.2962
 4943TIP3   OH214834   3.381   4.161   3.411 -0.4598 -0.0196  0.6467
 4943TIP3    H114835   3.361   4.075   3.448  0.2057 -0.9653 -1.0784
 4943TIP3    H214836   3.296   4.192   3.377 -0.9722  0.6399  2.4241
 4944TIP3   OH214837   6.208   5.515   0.073  0.3687 -0.0756 -0.6342
 4944TIP3    H114838   6.243   5.522  -0.016 -0.1225 -0.7008 -0.8881
 4944TIP3    H214839   6.267   5.569   0.126  0.7193  0.2355 -1.3203
 4945TIP3   OH214840   0.775   2.212   2.153 -0.1222 -0.2388 -0.2845
 4945TIP3    H114841   0.820   2.276   2.210 -0.1864  0.9310 -1.5082
 4945TIP3    H214842   0.754   2.140   2.212 -0.4446  1.0475  1.2726
 4946TIP3   OH214843   0.187   3.308   0.074 -0.6175 -0.2905 -0.3867
 4946TIP3    H114844   0.235   3.232   0.042  0.0604  0.3767 -1.0029
 4946TIP3    H214845   0.255   3.363   0.114 -0.4033  1.7198 -3.2096
 4947TIP3   OH214846   3.814   5.502   4.995  0.1159 -0.1385  0.0118
 4947TIP3    H114847   3.866   5.549   5.061  0.6024 -0.1505 -0.3614
 4947TIP3    H214848   3.792   5.419   5.037 -2.8277  1.2968  1.6466
 4948TIP3   OH214849   3.885   2.224   0.274 -0.0768  0.3511  0.3137
 4948TIP3    H114850   3.868   2.300   0.330 -0.2589  0.8344 -0.3809
 4948TIP3    H214851   3.802   2.177   0.272 -0.9617  1.8517 -1.7859
 4949TIP3   OH214852   5.477   2.551   2.095  0.4246  0.7059  0.8975
 4949TIP3    H114853   5.556   2.573   2.145 -0.4687  2.0326  1.7874
 4949TIP3    H214854   5.480   2.609   2.019  0.0689  1.1190  1.1925
 4950TIP3   OH214855   1.358   4.374   3.083  0.1403  0.4646  0.6759
 4950TIP3    H114856   1.379   4.373   2.990  0.3592  0.9070  0.7157
 4950TIP3    H214857   1.289   4.309   3.093 -0.1416  0.6770  0.1456
 4951TIP3   OH214858   5.867   1.218   3.857 -0.3483  0.1874 -0.0859
 4951TIP3    H114859   5.847   1.223   3.950 -1.9019 -0.9430 -0.3206
 4951TIP3    H214860   5.783   1.230   3.813  0.1675 -0.4707 -1.3157
 4952TIP3   OH214861   3.357   3.312   5.178  0.3242 -0.3038  0.4377
 4952TIP3    H114862   3.430   3.251   5.171  1.0228  0.4311  1.0989
 4952TIP3    H214863   3.366   3.369   5.101  0.1469 -0.5166  0.2562
 4953TIP3   OH214864   0.845   0.229   3.413  0.0645 -0.2261  0.0654
 4953TIP3    H114865   0.897   0.263   3.486  0.6766 -0.8501 -0.0660
 4953TIP3    H214866   0.868   0.284   3.339 -0.7236  0.5495  0.3799
 4954TIP3   OH214867   0.952   3.638   2.430 -0.2631 -0.2415 -0.1293
 4954TIP3    H114868   0.862   3.607   2.418 -0.0703 -0.8535 -0.0445
 4954TIP3    H214869   1.004   3.558   2.432  0.2574  0.0998  0.0475
 4955TIP3   OH214870   0.808   0.521   2.332 -0.1793 -0.5239 -0.1310
 4955TIP3    H114871   0.796   0.569   2.414 -0.4741 -1.2800  0.2873
 4955TIP3    H214872   0.838   0.587   2.269  0.1745  0.0447  0.6140
 4956TIP3   OH214873   2.675   4.743   5.167 -0.3649 -0.0845 -0.4256
 4956TIP3    H114874   2.589   4.731   5.127  0.6544 -1.0640 -2.4835
 4956TIP3    H214875   2.689   4.663   5.218 -1.3572  0.8557  1.4709
 4957TIP3   OH214876   1.238   3.960   2.461 -1.1561  0.0216 -0.3704
 4957TIP3    H114877   1.164   4.016   2.439 -2.3418 -0.9708  0.9220
 4957TIP3    H214878   1.215   3.922   2.546 -0.2742 -2.1983 -1.0536
 4958TIP3   OH214879   5.500   3.849   2.817  0.1403 -0.3453  0.4519
 4958TIP3    H114880   5.509   3.805   2.733 -0.3714  0.1434  0.1339
 4958TIP3    H214881   5.425   3.806   2.858 -1.0514  0.9168 -0.3193
 4959TIP3   OH214882   4.445   4.186   4.551  0.3887  0.1060 -0.7848
 4959TIP3    H114883   4.518   4.126   4.539  2.1019  1.6395  1.1474
 4959TIP3    H214884   4.473   4.266   4.507  0.9736  1.4333  1.7871
 4960TIP3   OH214885   4.174   0.050   0.579  0.6144  0.5384  0.3630
 4960TIP3    H114886   4.269   0.039   0.570  0.4363 -0.8694  0.0233
 4960TIP3    H214887   4.147  -0.023   0.635 -0.7846 -1.5437 -2.7255
 4961TIP3   OH214888   1.708   4.412   5.104 -0.6654  0.1317 -0.9577
 4961TIP3    H114889   1.718   4.320   5.081  0.7585 -0.0410  0.2474
 4961TIP3    H214890   1.629   4.415   5.158  0.2780 -0.7171  0.5405
 4962TIP3   OH214891   1.239   1.844   2.580 -0.0599  0.5239 -0.0110
 4962TIP3    H114892   1.286   1.840   2.497 -1.8853 -4.0195 -1.1822
 4962TIP3    H214893   1.307   1.838   2.647  1.3745 -2.3268 -1.5119
 4963TIP3   OH214894   3.727   5.223   1.181 -0.4277 -0.6215  0.2301
 4963TIP3    H114895   3.716   5.201   1.273  2.5392  1.7447  1.3209
 4963TIP3    H214896   3.659   5.288   1.163 -0.0756  0.0311  1.2118
 4964TIP3   OH214897   1.746   3.513   3.986 -0.5569  0.4276 -0.3971
 4964TIP3    H114898   1.686   3.458   3.936 -1.8083 -0.3189  1.8069
 4964TIP3    H214899   1.698   3.594   4.000 -0.2529  0.5882 -0.2755
 4965TIP3   OH214900   3.857   4.507   0.397 -0.1792  0.3685 -0.7610
 4965TIP3    H114901   3.876   4.569   0.468 -0.7421 -0.4554  0.1293
 4965TIP3    H214902   3.784   4.548   0.349 -0.5755  0.3873 -0.1538
 4966TIP3   OH214903   3.337   3.911   2.119  0.8877  0.2063 -0.3405
 4966TIP3    H114904   3.317   3.818   2.106  1.2460  0.2379 -1.1788
 4966TIP3    H214905   3.256   3.957   2.096 -0.5422 -0.0210  3.4389
 4967TIP3   OH214906   4.065   3.510   1.140  0.0837  0.5650  0.6400
 4967TIP3    H114907   3.980   3.554   1.133 -0.3407  0.2647  2.9804
 4967TIP3    H214908   4.044   3.423   1.175  1.0077 -1.2126 -2.7815
 4968TIP3   OH214909   6.182   4.672   0.960 -0.0393 -0.1645  0.3253
 4968TIP3    H114910   6.090   4.649   0.963 -0.3963  1.2283  0.5429
 4968TIP3    H214911   6.214   4.655   1.049  0.3762 -2.2755 -0.1512
 4969TIP3   OH214912   2.165   5.981   1.867  0.5202 -0.4445 -0.1763
 4969TIP3    H114913   2.245   5.934   1.842 -0.4739 -2.0515 -0.4804
 4969TIP3    H214914   2.178   6.002   1.960  1.4815 -0.2648 -0.3340
 4970TIP3   OH214915   1.459   2.302   1.760  0.1576 -0.0221  0.5301
 4970TIP3    H114916   1.442   2.292   1.854  0.9687  1.5540  0.8899
 4970TIP3    H214917   1.374   2.321   1.722  0.0301  0.8696  1.2141
 4971TIP3   OH214918   4.581   0.043   4.050 -0.1995  0.5251 -0.3653
 4971TIP3    H114919   4.635   0.032   3.971 -0.2564  1.4007 -0.5321
 4971TIP3    H214920   4.497   0.073   4.017 -0.8276 -0.8515 -0.1047
 4972TIP3   OH214921   3.596   3.694   4.973  0.3965 -0.3850 -0.0928
 4972TIP3    H114922   3.586   3.755   5.046  1.8931 -1.7816  1.3878
 4972TIP3    H214923   3.624   3.749   4.900  0.0951  0.9157  0.7355
 4973TIP3   OH214924   1.847   0.390   3.121 -0.8560  0.8416  0.8782
 4973TIP3    H114925   1.932   0.347   3.121 -1.2081  0.1188  0.6280
 4973TIP3    H214926   1.788   0.326   3.081 -2.1316  0.1181  3.7160
 4974TIP3   OH214927   0.335   4.016   2.643  0.5171 -0.2471 -0.0256
 4974TIP3    H114928   0.381   3.972   2.572  1.3548 -0.9835  0.9339
 4974TIP3    H214929   0.298   3.945   2.695 -0.9099  0.3096 -0.2395
 4975TIP3   OH214930   4.163   5.084   2.539  0.0243  0.2028 -0.5449
 4975TIP3    H114931   4.241   5.117   2.495 -0.6282  2.3146 -0.2510
 4975TIP3    H214932   4.116   5.163   2.567 -2.5208 -0.9291 -1.2445
 4976TIP3   OH214933   5.633   0.199   1.741 -0.4176 -0.1685 -0.1284
 4976TIP3    H114934   5.712   0.221   1.690 -0.4039  0.6498  0.2241
 4976TIP3    H214935   5.582   0.280   1.741 -0.8769 -0.4571  0.3373
 4977TIP3   OH214936   5.267   2.235   0.365  0.2656 -0.4125  0.7512
 4977TIP3    H114937   5.321   2.311   0.344 -1.8617  0.9907  0.1762
 4977TIP3    H214938   5.274   2.179   0.287  1.3443 -0.5428  0.9259
 4978TIP3   OH214939   1.508   0.244   0.755 -0.3259  0.1505  0.0975
 4978TIP3    H114940   1.572   0.205   0.695 -0.4114 -0.6027  0.4889
 4978TIP3    H214941   1.554   0.320   0.792  0.5911 -0.7197  0.8279
 4979TIP3   OH214942   1.567   0.831   1.353  0.0270  0.5634  0.0498
 4979TIP3    H114943   1.545   0.788   1.271  0.2866 -0.0762  0.3107
 4979TIP3    H214944   1.649   0.877   1.335  1.4969 -1.6659  0.6229
 4980TIP3   OH214945   5.672   2.655   2.290 -0.1456 -0.3576  0.6045
 4980TIP3    H114946   5.618   2.698   2.356 -0.5701 -0.5521  0.3864
 4980TIP3    H214947   5.711   2.581   2.335 -1.0975 -0.9857  0.4347
 4981TIP3   OH214948   4.476   5.355   0.904  0.7136 -0.0420  0.1497
 4981TIP3    H114949   4.458   5.261   0.892 -0.9047  0.3405 -0.6247
 4981TIP3    H214950   4.492   5.364   0.998 -1.0615 -0.8010  0.5597
 4982TIP3   OH214951   0.031   4.491   0.763 -0.5553  0.0743  0.3932
 4982TIP3    H114952   0.052   4.575   0.803 -0.8896 -0.0101  0.7635
 4982TIP3    H214953  -0.064   4.494   0.750 -0.7675 -0.6974  1.5322
 4983TIP3   OH214954   3.752   3.467   1.253 -0.2877  0.1053  0.5468
 4983TIP3    H114955   3.691   3.394   1.270  0.0335 -0.1265  0.7049
 4983TIP3    H214956   3.762   3.468   1.158  0.4514 -0.6631  0.6116
 4984TIP3   OH214957   4.574   3.705   0.545 -0.4342 -0.4176 -0.8091
 4984TIP3    H114958   4.536   3.748   0.469  1.8212  1.1975 -1.1093
 4984TIP3    H214959   4.604   3.776   0.601  1.4241 -1.5745 -0.2501
 4985TIP3   OH214960   4.656   1.655   2.083  0.2278  0.2802 -0.3855
 4985TIP3    H114961   4.706   1.701   2.151 -0.5037 -0.1036  0.4430
 4985TIP3    H214962   4.567   1.652   2.118  0.2914 -1.9334 -0.3210
 4986TIP3   OH214963   2.021   2.265   5.179  0.2614 -0.5698  0.1188
 4986TIP3    H114964   2.111   2.234   5.191  1.0374  1.5292  0.2851
 4986TIP3    H214965   2.022   2.309   5.093 -0.6209 -0.5482  0.1075
 4987TIP3   OH214966   3.725   4.755   3.472  0.0660  0.2463  0.5009
 4987TIP3    H114967   3.805   4.738   3.422 -0.4344 -0.3980 -0.1042
 4987TIP3    H214968   3.664   4.792   3.408 -0.1197  0.7445  0.9606
 4988TIP3   OH214969   4.399   1.804   0.781 -0.3399 -1.0178 -0.0289
 4988TIP3    H114970   4.314   1.770   0.809 -0.2715 -0.6955  0.6014
 4988TIP3    H214971   4.463   1.751   0.829 -0.2067 -0.7959  0.0408
 4989TIP3   OH214972   5.946   2.981   2.915  0.7375  0.2378  0.2522
 4989TIP3    H114973   5.925   3.013   2.827  0.5665  0.4224  0.3590
 4989TIP3    H214974   5.860   2.966   2.956  0.8133 -0.6489  0.1025
 4990TIP3   OH214975   0.718   3.464   3.439 -0.4685 -0.2793 -0.5025
 4990TIP3    H114976   0.805   3.500   3.455  0.2854 -2.3194  0.2651
 4990TIP3    H214977   0.659   3.538   3.454  1.1297  1.4004 -1.8868
 4991TIP3   OH214978   0.503   3.974   3.937  0.0771  0.2114 -0.1136
 4991TIP3    H114979   0.523   3.926   3.856 -1.6576 -2.0387  0.6809
 4991TIP3    H214980   0.586   3.977   3.984  1.0830  1.4128 -1.8339
 4992TIP3   OH214981   5.421   1.760   5.175 -0.1723  0.7059  0.1023
 4992TIP3    H114982   5.476   1.695   5.131  0.1833  0.8785  0.2845
 4992TIP3    H214983   5.331   1.730   5.160  0.0140 -1.0743  2.0013
 4993TIP3   OH214984   6.150   5.630   2.103 -0.3867  0.1277 -0.2967
 4993TIP3    H114985   6.210   5.557   2.115  0.8113  0.6919 -2.2385
 4993TIP3    H214986   6.077   5.612   2.162 -0.6975 -3.2195 -1.4937
 4994TIP3   OH214987   4.882   3.466   0.865  0.4346 -0.3939 -0.4137
 4994TIP3    H114988   4.929   3.542   0.900 -0.1507  0.1135 -0.7202
 4994TIP3    H214989   4.947   3.396   0.865  0.6781 -0.1958  0.9199
 4995TIP3   OH214990   5.182   1.450   1.201  0.5508  0.2373 -0.4639
 4995TIP3    H114991   5.185   1.502   1.121  0.4875 -0.4074 -0.8901
 4995TIP3    H214992   5.194   1.514   1.272  1.6423  0.6792 -1.0343
 4996TIP3   OH214993   0.945   0.789   2.431 -0.1906  0.4833 -0.2914
 4996TIP3    H114994   0.980   0.736   2.360  0.0998  1.3019 -0.7775
 4996TIP3    H214995   0.919   0.871   2.389  0.7149  1.2868  0.6652
 4997TIP3   OH214996   0.044   4.401   2.790  0.3897  0.4280 -0.1819
 4997TIP3    H114997  -0.051   4.408   2.780  0.5111  0.4188 -1.4961
 4997TIP3    H214998   0.068   4.325   2.738  1.1322  0.4643  0.0998
 4998TIP3   OH214999   4.736   1.963   4.937  0.1595 -0.5391 -0.0183
 4998TIP3    H115000   4.710   1.986   4.847 -1.0500 -0.1678  0.4047
 4998TIP3    H215001   4.830   1.946   4.931 -0.0690 -1.4702 -1.5504
 4999TIP3   OH215002   2.819   0.276   3.119 -0.3454 -0.0345  0.0287
 4999TIP3    H115003   2.738   0.313   3.081 -0.9499 -1.9879 -0.6767
 4999TIP3    H215004   2.788   0.223   3.192  0.6028  1.5618  1.6525
 5000TIP3   OH215005   6.343   4.772   2.157  0.3548 -0.2202 -0.2814
 5000TIP3    H115006   6.402   4.729   2.095  0.8081  0.1994 -0.1456
 5000TIP3    H215007   6.304   4.701   2.207  1.7309 -0.4467  0.5119
 5001TIP3   OH215008   1.450   4.129   4.084  0.5663  0.0912 -0.3098
 5001TIP3    H115009   1.478   4.041   4.057 -2.0890 -0.0893 -3.0608
 5001TIP3    H215010   1.423   4.119   4.175  0.3747 -1.9730 -0.5496
 5002TIP3   OH215011   2.711   5.610   3.917  0.0772 -0.2266 -0.1267
 5002TIP3    H115012   2.629   5.653   3.942 -0.1246 -1.4864  1.5358
 5002TIP3    H215013   2.688   5.518   3.904  0.9158 -0.2861 -1.4147
 5003TIP3   OH215014   5.207   4.587   0.379 -0.3345 -0.1524 -0.0049
 5003TIP3    H115015   5.160   4.507   0.355  0.3753 -0.8868  0.9894
 5003TIP3    H215016   5.231   4.627   0.296 -0.4976 -1.0892 -0.5123
 5004TIP3   OH215017   4.176   1.145   3.349  0.2637 -0.0211 -0.2967
 5004TIP3    H115018   4.216   1.063   3.380  1.5597  0.6272 -0.2243
 5004TIP3    H215019   4.133   1.181   3.427  1.2900  0.2974  0.1332
 5005TIP3   OH215020   3.780   5.573   0.347  0.5269  0.4763 -0.6960
 5005TIP3    H115021   3.742   5.485   0.343 -0.3239  0.8020 -0.0139
 5005TIP3    H215022   3.729   5.625   0.285 -0.2854  0.9585  0.3554
 5006TIP3   OH215023   4.918   1.299   1.265  0.1417 -0.6525 -0.3669
 5006TIP3    H115024   4.997   1.353   1.262  0.4480 -1.0350  0.6762
 5006TIP3    H215025   4.921   1.250   1.182  0.9452 -0.5849 -0.3950
 5007TIP3   OH215026   6.089   5.951   3.353  0.2194  0.1360  0.1901
 5007TIP3    H115027   6.130   5.976   3.436 -0.4093  0.5876  0.3723
 5007TIP3    H215028   6.091   5.855   3.354  1.4994  0.1400  0.0648
 5008TIP3   OH215029   5.473   1.156   0.328 -0.0477  0.5012 -0.0310
 5008TIP3    H115030   5.552   1.106   0.346  0.4055  0.9848 -0.6332
 5008TIP3    H215031   5.475   1.172   0.233  0.8317  3.2939  0.3634
 5009TIP3   OH215032   2.031   0.431   1.284 -0.7732 -0.6832 -0.0990
 5009TIP3    H115033   1.969   0.487   1.238 -0.1322  0.1736  0.0709
 5009TIP3    H215034   1.988   0.345   1.285 -1.8441 -0.1727 -0.2065
 5010TIP3   OH215035   3.716   2.446   1.589 -0.0306 -0.1446 -0.2791
 5010TIP3    H115036   3.733   2.472   1.680 -0.4025 -1.5499  0.2342
 5010TIP3    H215037   3.753   2.516   1.536 -0.3858  1.0275  0.9700
 5011TIP3   OH215038   6.089   0.550   3.018  0.0472  0.2109  0.5949
 5011TIP3    H115039   6.044   0.540   2.933  1.9887  0.5028 -0.5319
 5011TIP3    H215040   6.042   0.621   3.062 -1.1135 -0.0648 -0.1660
 5012TIP3   OH215041   3.857   5.222   2.867 -0.0028 -0.1491  0.3448
 5012TIP3    H115042   3.840   5.311   2.897  0.5526  0.0889 -0.0231
 5012TIP3    H215043   3.771   5.180   2.867 -0.6472  1.0421 -1.5414
 5013TIP3   OH215044   4.208   2.583   2.906 -0.1850 -0.6805 -0.1347
 5013TIP3    H115045   4.204   2.600   3.000 -0.0143 -1.5621  0.0475
 5013TIP3    H215046   4.301   2.588   2.884 -0.3246  0.6033 -0.4830
 5014TIP3   OH215047   4.699   1.529   4.438  0.1229  0.2138 -0.5296
 5014TIP3    H115048   4.640   1.478   4.494  1.8555 -2.4030 -0.8930
 5014TIP3    H215049   4.675   1.504   4.349 -0.4116  1.7604 -0.8346
 5015TIP3   OH215050   2.322  -0.015   2.267  0.0918  0.6065 -0.0233
 5015TIP3    H115051   2.239  -0.032   2.313  0.5895 -0.6288  0.4708
 5015TIP3    H215052   2.322   0.079   2.251 -0.9867  0.7639  0.8044
 5016TIP3   OH215053   4.781   5.280   1.990 -0.5838  0.3577 -0.3808
 5016TIP3    H115054   4.730   5.203   1.964 -0.2120  0.5929 -1.9015
 5016TIP3    H215055   4.795   5.327   1.908  0.3392  1.3484  0.3373
 5017TIP3   OH215056   6.229   2.813   2.018 -0.5247 -0.0147 -0.5298
 5017TIP3    H115057   6.264   2.900   2.037 -1.8251  0.4292 -0.0609
 5017TIP3    H215058   6.138   2.816   2.047 -1.0404 -1.0636 -1.8803
 5018TIP3   OH215059   0.285   3.605   1.881 -0.2789  0.2691 -0.3279
 5018TIP3    H115060   0.284   3.515   1.848  0.2620  0.2904 -0.4194
 5018TIP3    H215061   0.270   3.659   1.803  0.5996  0.3028 -0.4843
 5019TIP3   OH215062   5.560   3.968   3.588  0.0473  0.2264  0.3634
 5019TIP3    H115063   5.586   4.008   3.504 -0.8489  0.7214  0.3106
 5019TIP3    H215064   5.482   3.917   3.567 -1.0411  1.4935  1.1386
 5020TIP3   OH215065   0.623   0.243   3.980 -0.8021  0.3674  0.7974
 5020TIP3    H115066   0.558   0.307   3.952  0.7181  1.2837 -0.8015
 5020TIP3    H215067   0.633   0.184   3.905 -0.2362 -0.1274  1.2506
 5021TIP3   OH215068   5.600   2.467   3.083  0.2675 -0.2394  0.1485
 5021TIP3    H115069   5.539   2.410   3.131  0.1039 -0.3121 -0.1441
 5021TIP3    H215070   5.566   2.468   2.994  1.8017 -1.8975 -0.5195
 5022TIP3   OH215071   0.646   2.473   3.643 -0.4017 -0.1194 -0.7078
 5022TIP3    H115072   0.570   2.525   3.617 -0.5488 -0.1794 -0.4118
 5022TIP3    H215073   0.705   2.536   3.686 -0.9666 -0.3393  0.4388
 5023TIP3   OH215074   0.281   5.098   1.549 -0.4628  0.0498  0.2193
 5023TIP3    H115075   0.210   5.117   1.487 -0.0037 -0.9594 -0.6695
 5023TIP3    H215076   0.335   5.033   1.503 -1.1595 -2.2336  2.4013
 5024TIP3   OH215077   1.294   0.602   3.329  0.3519  0.4644 -0.3007
 5024TIP3    H115078   1.336   0.687   3.339 -2.4941  1.7719  3.2362
 5024TIP3    H215079   1.205   0.622   3.299  0.0367 -1.4129 -0.7972
 5025TIP3   OH215080   5.250   4.884   0.986 -0.2437 -0.4047 -0.2803
 5025TIP3    H115081   5.196   4.943   0.933 -1.7684 -2.0656 -0.6808
 5025TIP3    H215082   5.260   4.806   0.931  1.6901 -0.5604  0.2414
 5026TIP3   OH215083   1.516   4.932   1.645 -0.1553 -0.1518 -0.0718
 5026TIP3    H115084   1.523   4.836   1.644 -3.7715 -0.5232 -0.7624
 5026TIP3    H215085   1.551   4.959   1.560  2.6512 -0.5594  0.8416
 5027TIP3   OH215086   0.545   0.210   3.326 -0.0301  0.1535 -0.1212
 5027TIP3    H115087   0.505   0.295   3.311 -0.3922  0.2639  1.3380
 5027TIP3    H215088   0.554   0.172   3.239 -1.3800  0.9924 -0.6593
 5028TIP3   OH215089   1.705   1.487   2.417 -0.3526 -0.6148 -0.1793
 5028TIP3    H115090   1.797   1.494   2.439 -0.4320 -1.4557  0.4616
 5028TIP3    H215091   1.692   1.552   2.347  0.4550  0.3310  0.5171
 5029TIP3   OH215092   1.468   5.486   3.208 -0.4786 -0.4926 -0.5126
 5029TIP3    H115093   1.544   5.506   3.153  0.7576 -1.3809  0.7804
 5029TIP3    H215094   1.440   5.572   3.242  1.8186 -0.3339  1.2669
 5030TIP3   OH215095   0.094   3.863   5.056 -0.8698 -0.5137 -0.0285
 5030TIP3    H115096   0.145   3.783   5.066 -0.7851 -0.2814  1.7353
 5030TIP3    H215097   0.152   3.922   5.007  0.4950 -0.3626  1.6621
 5031TIP3   OH215098   0.716   5.411   0.263  0.1907  0.1039 -0.5569
 5031TIP3    H115099   0.725   5.329   0.311 -0.2949  0.6466  0.4965
 5031TIP3    H215100   0.800   5.455   0.274  0.2666 -0.0101 -0.6735
 5032TIP3   OH215101   5.297   3.018   1.275  0.1931 -0.7942 -0.6172
 5032TIP3    H115102   5.211   3.001   1.312  0.7162 -0.4782  0.8194
 5032TIP3    H215103   5.282   3.026   1.181 -1.9145  2.5398 -0.1621
 5033TIP3   OH215104   1.402   3.817   0.735  0.3056 -0.2915  0.0027
 5033TIP3    H115105   1.330   3.824   0.798 -0.7408  1.2059 -1.2733
 5033TIP3    H215106   1.444   3.903   0.736 -0.1156 -0.0177 -1.7087
 5034TIP3   OH215107   5.500   0.953   3.122 -0.2640  0.3959  0.2932
 5034TIP3    H115108   5.412   0.924   3.098 -0.0827 -1.9625  2.1213
 5034TIP3    H215109   5.553   0.874   3.117  1.2464  1.2771  1.5277
 5035TIP3   OH215110   3.717   1.394   5.087 -0.2753  1.2704 -0.0550
 5035TIP3    H115111   3.632   1.397   5.130  0.5969  1.3737  1.7779
 5035TIP3    H215112   3.714   1.314   5.034 -0.5546 -0.3749  2.2572
 5036TIP3   OH215113   4.097   0.893   4.488  0.6841 -0.0224 -0.6340
 5036TIP3    H115114   4.035   0.951   4.445 -1.2659 -1.2113  0.4352
 5036TIP3    H215115   4.047   0.812   4.504  2.4299 -0.9393  0.5223
 5037TIP3   OH215116   0.988   1.122   3.896 -0.0294  0.4763  0.2276
 5037TIP3    H115117   0.965   1.161   3.812 -0.6207 -0.9929 -0.3327
 5037TIP3    H215118   0.981   1.194   3.959  2.3993  2.1176 -1.2286
 5038TIP3   OH215119   1.686   4.112   1.886 -0.2137 -0.2002 -0.0078
 5038TIP3    H115120   1.649   4.111   1.798 -2.0987 -2.3119  0.7373
 5038TIP3    H215121   1.653   4.193   1.924  0.7783  0.8409 -1.2435
 5039TIP3   OH215122   0.100   0.866   4.982  0.2025 -0.0017  0.1769
 5039TIP3    H115123   0.140   0.843   5.066  0.0926 -0.5081  0.0941
 5039TIP3    H215124   0.173   0.890   4.926  0.1015  3.1554  1.2438
 5040TIP3   OH215125   6.211   0.846   2.568  0.0235 -0.0128 -0.3178
 5040TIP3    H115126   6.144   0.843   2.499 -0.4737 -0.9604  0.1849
 5040TIP3    H215127   6.161   0.856   2.649  0.2728 -2.6867  0.2848
 5041TIP3   OH215128   3.504   4.741   0.636  0.2008  0.5095 -0.3070
 5041TIP3    H115129   3.442   4.668   0.646  1.0899 -0.4292 -1.3562
 5041TIP3    H215130   3.452   4.819   0.650 -0.2031 -0.2730  4.4193
 5042TIP3   OH215131   0.725   3.197   2.089  0.4179 -0.4252 -0.3551
 5042TIP3    H115132   0.739   3.191   2.183  1.2399 -1.3135 -0.5178
 5042TIP3    H215133   0.691   3.285   2.075 -0.4734 -0.5527  0.8557
 5043TIP3   OH215134   1.177   4.153   3.089  0.1714 -0.1593  0.0271
 5043TIP3    H115135   1.132   4.075   3.058 -2.0320 -0.7809  4.1608
 5043TIP3    H215136   1.122   4.226   3.060 -1.1055 -0.6267  1.1708
 5044TIP3   OH215137   0.148   4.998   0.989 -0.1780 -0.1835  0.0673
 5044TIP3    H115138   0.159   5.094   0.990  0.1959 -0.2200 -0.0510
 5044TIP3    H215139   0.229   4.966   0.949  0.2803 -0.6286  1.3073
 5045TIP3   OH215140   1.943   5.093   3.253 -0.7955 -0.1973 -0.1463
 5045TIP3    H115141   1.923   5.183   3.278 -1.8921 -0.2302 -0.8373
 5045TIP3    H215142   1.984   5.055   3.330  0.3735  1.1086 -0.1076
 5046TIP3   OH215143   3.145   2.859   4.945  0.1476 -0.1774  0.0338
 5046TIP3    H115144   3.195   2.849   4.863 -0.3540  0.6059 -0.3860
 5046TIP3    H215145   3.144   2.954   4.960 -1.2119 -0.1799  0.0294
 5047TIP3   OH215146   1.136   1.999   2.904 -0.0683  0.4289 -0.2131
 5047TIP3    H115147   1.082   2.039   2.972  1.6786 -0.2189  1.6420
 5047TIP3    H215148   1.090   1.917   2.883  0.0470 -0.0188  1.1869
 5048TIP3   OH215149   5.178   3.002   3.957  0.8096  0.3645  0.2048
 5048TIP3    H115150   5.153   3.094   3.943 -0.3937  0.0596  0.2321
 5048TIP3    H215151   5.180   2.992   4.052 -0.9371 -0.0997  0.2177
 5049TIP3   OH215152   6.169   4.176   1.671  0.5202 -0.1882  0.3470
 5049TIP3    H115153   6.201   4.261   1.639  2.1756 -0.4464  1.1885
 5049TIP3    H215154   6.079   4.170   1.639  1.4404  0.3575 -2.7129
 5050TIP3   OH215155   0.900   2.298   3.626 -0.4049 -0.5209  0.3862
 5050TIP3    H115156   0.839   2.371   3.618 -0.5149 -0.6220  0.2809
 5050TIP3    H215157   0.877   2.256   3.709 -0.0806 -0.2043  0.6421
 5051TIP3   OH215158   2.670   5.962   5.011  0.2394  0.4767 -0.4388
 5051TIP3    H115159   2.615   5.961   4.932  0.1907  1.6289 -0.4346
 5051TIP3    H215160   2.699   5.872   5.020 -0.4790  0.1390 -1.2712
 5052TIP3   OH215161   5.508   4.725   2.441 -0.0657 -0.4055  0.5629
 5052TIP3    H115162   5.419   4.693   2.455 -0.1057 -0.2227  0.7380
 5052TIP3    H215163   5.508   4.755   2.350  0.6887 -3.1908 -0.4583
 5053TIP3   OH215164   3.669   1.078   3.120 -0.2645  0.2883 -0.9729
 5053TIP3    H115165   3.737   1.030   3.072 -1.6156 -1.4496 -1.2632
 5053TIP3    H215166   3.587   1.038   3.091 -1.3029  1.1564  0.6308
 5054TIP3   OH215167   0.221   5.475   3.524 -0.0808  0.1400 -0.0786
 5054TIP3    H115168   0.249   5.387   3.501 -0.2725 -0.0184  0.2844
 5054TIP3    H215169   0.131   5.481   3.491 -0.1136  0.1543  0.0136
 5055TIP3   OH215170   0.576   2.503   3.979 -0.9397  0.0329  0.1526
 5055TIP3    H115171   0.666   2.529   3.996 -0.5117 -1.9810  1.2186
 5055TIP3    H215172   0.545   2.466   4.061 -1.9829 -1.3599 -0.8163
 5056TIP3   OH215173   3.378   1.278   1.177  0.5302  0.3786 -0.2277
 5056TIP3    H115174   3.409   1.188   1.182  0.3060  0.1710 -1.9974
 5056TIP3    H215175   3.286   1.270   1.152  0.7569  1.1034 -1.3567
 5057TIP3   OH215176   3.586   2.986   1.537  0.6525  0.6949  0.2042
 5057TIP3    H115177   3.527   2.969   1.463  2.2095  0.8158 -1.1336
 5057TIP3    H215178   3.632   3.066   1.512  1.3945  0.5919  1.1974
 5058TIP3   OH215179   2.075   4.151   2.989 -0.2549  0.2296  0.0244
 5058TIP3    H115180   2.018   4.228   2.988 -0.8903 -0.1281 -3.1147
 5058TIP3    H215181   2.164   4.187   2.986 -0.5383  0.8824 -1.1253
 5059TIP3   OH215182   5.436   1.114   5.081  0.0255 -0.1962  0.0631
 5059TIP3    H115183   5.392   1.199   5.079  1.7243  0.7018 -0.8211
 5059TIP3    H215184   5.454   1.098   5.173 -3.2824 -1.2767  0.6733
 5060TIP3   OH215185   5.708   5.440   2.323 -0.1479  0.4473 -0.1164
 5060TIP3    H115186   5.637   5.392   2.365 -0.8829  1.1155 -0.5645
 5060TIP3    H215187   5.688   5.435   2.229  0.4426  0.5662 -0.2516
 5061TIP3   OH215188   3.271   1.213   1.903 -0.3985 -0.0334  0.5688
 5061TIP3    H115189   3.339   1.281   1.908  0.7937 -1.0743 -0.8386
 5061TIP3    H215190   3.238   1.207   1.993 -0.5397  2.3743  0.7511
 5062TIP3   OH215191   1.790   3.415   0.977 -0.1097 -0.0397 -0.1859
 5062TIP3    H115192   1.790   3.404   0.882 -0.8621 -1.7430 -0.0229
 5062TIP3    H215193   1.826   3.333   1.011  1.2645  0.9855  0.9945
 5063TIP3   OH215194   5.677   0.770   4.383 -0.4534  0.5146  0.0447
 5063TIP3    H115195   5.739   0.703   4.412  0.8603  1.1269 -1.1994
 5063TIP3    H215196   5.591   0.737   4.409  0.3832 -0.3462  1.8696
 5064TIP3   OH215197   1.392   1.358   3.138 -0.3113  0.3398 -0.1476
 5064TIP3    H115198   1.472   1.388   3.095  0.3957 -0.0391  0.8922
 5064TIP3    H215199   1.345   1.439   3.158 -0.2017  0.5637 -0.7619
 5065TIP3   OH215200   3.543   4.045   3.113 -0.4114 -0.1379 -0.2015
 5065TIP3    H115201   3.541   3.960   3.070 -1.0128 -0.9557  1.3772
 5065TIP3    H215202   3.455   4.055   3.150 -0.0828  0.7858  0.3472
 5066TIP3   OH215203   4.658   1.714   3.262  0.3911  0.1277 -0.0354
 5066TIP3    H115204   4.617   1.782   3.316  0.2363 -0.0181  0.0312
 5066TIP3    H215205   4.592   1.691   3.197  0.0726 -0.6677  0.5600
 5067TIP3   OH215206   0.221   2.574   2.948 -0.1580 -0.0129 -0.0302
 5067TIP3    H115207   0.273   2.529   2.882 -1.0461 -1.6785  0.3644
 5067TIP3    H215208   0.165   2.633   2.898  0.3622 -0.0197 -0.6334
 5068TIP3   OH215209   2.105   5.004   0.371 -0.3519  0.3382  0.3118
 5068TIP3    H115210   2.139   4.938   0.310 -0.1229  0.4294  0.3382
 5068TIP3    H215211   2.098   5.084   0.319 -1.4154  0.0991  0.0651
 5069TIP3   OH215212   4.114   1.707   3.650 -0.1569  0.5290 -0.7549
 5069TIP3    H115213   4.036   1.705   3.706  0.3722  0.8397  0.0047
 5069TIP3    H215214   4.121   1.618   3.615 -0.3081  0.2469 -0.0666
 5070TIP3   OH215215   6.039   4.882   2.378  0.3471  0.5330 -0.1044
 5070TIP3    H115216   6.057   4.852   2.467 -0.8422  1.5576  0.5184
 5070TIP3    H215217   6.021   4.975   2.388  0.0157  0.6238 -1.4071
 5071TIP3   OH215218   5.436   1.612   4.329  0.6514 -0.2916  0.4806
 5071TIP3    H115219   5.458   1.521   4.310 -1.8056 -0.9797  0.5904
 5071TIP3    H215220   5.414   1.613   4.422 -0.0242  0.2514  0.3264
 5072TIP3   OH215221   2.014   0.725   4.709  0.0960 -0.0801  0.1691
 5072TIP3    H115222   1.963   0.756   4.634  2.4829  0.3246 -1.3926
 5072TIP3    H215223   2.076   0.663   4.672  1.0223 -0.2490  1.8999
 5073TIP3   OH215224   0.459   4.610   1.047  0.5774 -0.3299  0.1870
 5073TIP3    H115225   0.492   4.589   0.960  0.6514  1.5864 -0.2924
 5073TIP3    H215226   0.538   4.631   1.098  0.4509 -0.3256  0.3823
 5074TIP3   OH215227   2.624   1.488   0.793  0.6671  0.9409  0.1650
 5074TIP3    H115228   2.684   1.440   0.851 -1.8260 -1.4013  1.0350
 5074TIP3    H215229   2.674   1.500   0.712  1.7606 -2.7225  0.0962
 5075TIP3   OH215230   1.758   1.202   1.788 -0.0806 -0.3287  0.0591
 5075TIP3    H115231   1.807   1.282   1.773  1.2766 -1.4192 -1.7547
 5075TIP3    H215232   1.815   1.149   1.844 -0.1148 -0.7888 -0.3351
 5076TIP3   OH215233   4.949   0.635   1.201 -0.0643  0.3406  0.0994
 5076TIP3    H115234   4.958   0.691   1.278 -0.3007 -1.6673  1.6499
 5076TIP3    H215235   4.855   0.617   1.195  0.0228 -0.0025 -0.3000
 5077TIP3   OH215236   3.432   2.106   0.071 -0.1838 -0.1946 -0.3639
 5077TIP3    H115237   3.395   2.061  -0.005 -1.0369 -0.3067  0.1016
 5077TIP3    H215238   3.474   2.184   0.035  0.3969 -0.8226 -1.0672
 5078TIP3   OH215239   5.429   4.224   5.027 -0.0782  0.8312  0.3143
 5078TIP3    H115240   5.478   4.170   5.090  0.3919  1.3714  0.4212
 5078TIP3    H215241   5.472   4.209   4.943 -1.2222 -0.5404 -0.0703
 5079TIP3   OH215242   1.082   2.253   0.214  0.2161 -0.2337 -0.1657
 5079TIP3    H115243   1.044   2.341   0.206 -1.6871 -0.8871  0.8739
 5079TIP3    H215244   1.008   2.194   0.198  1.5937 -1.6985 -1.5356
 5080TIP3   OH215245   4.242   4.770   5.082  0.5109  0.5032  0.1723
 5080TIP3    H115246   4.241   4.831   5.009  0.3926  0.8908  0.4947
 5080TIP3    H215247   4.334   4.748   5.094  0.3943 -0.7305 -1.0535
 5081TIP3   OH215248   4.028   1.290   1.811  0.0251 -0.4165 -0.2761
 5081TIP3    H115249   4.044   1.243   1.729 -0.2217  1.6172 -1.5708
 5081TIP3    H215250   3.935   1.314   1.807 -0.6134 -2.2367  1.7276
 5082TIP3   OH215251   2.950   3.988   4.938  0.4250  1.2090  0.4534
 5082TIP3    H115252   2.952   4.008   4.844 -0.1685 -0.7668 -0.0130
 5082TIP3    H215253   2.887   3.917   4.947 -0.8627  2.4963  2.6154
 5083TIP3   OH215254   3.435   4.458   0.462 -0.2589  0.3066  0.3802
 5083TIP3    H115255   3.470   4.455   0.551 -1.9248 -0.4183  1.0388
 5083TIP3    H215256   3.386   4.540   0.459 -0.2807  0.2831  0.1445
 5084TIP3   OH215257   1.545   0.630   0.557  0.3033 -0.4692  0.5736
 5084TIP3    H115258   1.509   0.673   0.635 -0.5014  0.3424 -0.2139
 5084TIP3    H215259   1.533   0.537   0.573  1.9540 -0.4502  2.2672
 5085TIP3   OH215260   5.327   2.762   1.103 -0.1091  0.0045  0.3541
 5085TIP3    H115261   5.351   2.672   1.082 -1.0797  0.1382 -1.4767
 5085TIP3    H215262   5.384   2.784   1.177  0.8876 -1.7488  0.1852
 5086TIP3   OH215263   1.566   5.610   2.203 -0.1807  0.3885  0.5033
 5086TIP3    H115264   1.514   5.565   2.269 -2.5433 -0.3055 -1.6662
 5086TIP3    H215265   1.508   5.678   2.169  1.5987  1.8995  0.3017
 5087TIP3   OH215266   5.697   2.228   2.236  0.5074 -0.1107 -0.6072
 5087TIP3    H115267   5.611   2.228   2.194  1.1617 -2.0967 -2.1115
 5087TIP3    H215268   5.758   2.250   2.165  1.4964 -1.9377 -0.3865
 5088TIP3   OH215269   4.875   2.064   0.321  0.1504  0.0009  0.3697
 5088TIP3    H115270   4.783   2.039   0.318  0.4520 -1.1067 -0.6989
 5088TIP3    H215271   4.878   2.147   0.273 -0.3204  0.1596  0.6072
 5089TIP3   OH215272   2.676   4.354   1.425 -0.2014 -0.2676 -0.1834
 5089TIP3    H115273   2.726   4.348   1.506  1.3039 -1.1929 -1.1313
 5089TIP3    H215274   2.718   4.424   1.376 -1.6666  0.9124  0.1541
 5090TIP3   OH215275   6.370   0.653   3.972 -0.2717  0.1627  0.2043
 5090TIP3    H115276   6.408   0.568   3.995  0.7086  0.8971  1.3896
 5090TIP3    H215277   6.289   0.631   3.925  0.8601 -1.4291 -1.0905
 5091TIP3   OH215278   5.007   4.882   0.818 -0.0930 -0.1620 -0.2183
 5091TIP3    H115279   4.972   4.859   0.732  0.5802  0.8069 -0.7617
 5091TIP3    H215280   5.000   4.801   0.869 -0.1320 -0.8538 -1.2954
 5092TIP3   OH215281   0.916   5.450   0.884 -0.1969  0.0058  0.5615
 5092TIP3    H115282   1.009   5.467   0.870 -0.4924  0.5894 -0.9543
 5092TIP3    H215283   0.898   5.371   0.833 -0.2652 -0.9341  1.9952
 5093TIP3   OH215284   1.009   1.244   4.867 -0.1913 -0.1204  0.2914
 5093TIP3    H115285   0.964   1.271   4.947 -3.4069  0.2185 -1.4274
 5093TIP3    H215286   1.097   1.219   4.895 -1.0087  0.4366  3.7954
 5094TIP3   OH215287   5.411   0.488   3.791  0.1044  0.0720 -0.3918
 5094TIP3    H115288   5.457   0.562   3.833  0.5300 -0.0156 -0.6938
 5094TIP3    H215289   5.422   0.504   3.698 -3.1162  1.7275 -0.6072
 5095TIP3   OH215290   5.399   5.464   3.384 -0.3818 -0.1291  0.0975
 5095TIP3    H115291   5.365   5.422   3.463 -1.4066  2.0748  0.9156
 5095TIP3    H215292   5.344   5.542   3.373  1.8002  1.3511 -0.9340
 5096TIP3   OH215293   4.631   1.626   0.753 -0.3572 -0.2680 -0.0741
 5096TIP3    H115294   4.596   1.673   0.677 -3.4187  1.2008  2.0090
 5096TIP3    H215295   4.726   1.634   0.744 -0.6304  1.5921 -2.6750
 5097TIP3   OH215296   6.239   5.547   1.109 -0.1668  0.6019  0.0168
 5097TIP3    H115297   6.333   5.527   1.102 -0.5038 -0.5719 -1.5631
 5097TIP3    H215298   6.224   5.557   1.203  1.6230  1.3030  0.2750
 5098TIP3   OH215299   0.696   2.936   0.936 -0.6957 -0.1380  0.3877
 5098TIP3    H115300   0.668   2.994   0.865  1.0446  1.5029  0.9499
 5098TIP3    H215301   0.791   2.930   0.925 -0.6060 -1.2198  1.5851
 5099TIP3   OH215302   0.275   3.396   3.051  0.9619 -0.2611 -0.0042
 5099TIP3    H115303   0.230   3.466   3.003 -0.6911 -0.7206  0.8010
 5099TIP3    H215304   0.334   3.356   2.986 -0.4327 -0.1970 -1.3670
 5100TIP3   OH215305   0.028   2.266   3.331  0.0458  0.0803  0.1434
 5100TIP3    H115306   0.075   2.189   3.299  0.2976  0.2769  0.0376
 5100TIP3    H215307   0.077   2.341   3.296  0.4162  0.2978  1.1005
 5101TIP3   OH215308   4.215   5.449   4.693 -0.5729 -0.3618 -0.2257
 5101TIP3    H115309   4.161   5.528   4.690  1.4281  1.1103  0.7171
 5101TIP3    H215310   4.205   5.411   4.605 -2.5990  0.1667 -0.2848
 5102TIP3   OH215311   1.501   4.875   3.138  0.4528  0.5546  0.1524
 5102TIP3    H115312   1.528   4.805   3.078 -1.3048 -0.3057  0.2967
 5102TIP3    H215313   1.576   4.886   3.197  0.7466 -1.2609  0.1722
 5103TIP3   OH215314   2.547   2.027   4.422  0.5733  0.3279 -0.0515
 5103TIP3    H115315   2.540   1.932   4.429 -2.4836  0.2586 -2.1747
 5103TIP3    H215316   2.578   2.042   4.332 -2.9394  1.2465 -1.2514
 5104TIP3   OH215317   4.688   4.382   3.227  0.4574  0.2361  0.2063
 5104TIP3    H115318   4.772   4.337   3.218  1.0834  0.9988  1.8111
 5104TIP3    H215319   4.711   4.475   3.231 -0.4293  0.4317  0.9730
 5105TIP3   OH215320   0.887   4.595   0.213  0.0023 -0.3308 -0.1806
 5105TIP3    H115321   0.928   4.618   0.129 -1.1229  0.7848 -0.4381
 5105TIP3    H215322   0.885   4.499   0.212  1.5817 -0.3887 -0.6410
 5106TIP3   OH215323   5.989   0.318   3.776  0.9512  0.0119  0.1115
 5106TIP3    H115324   5.961   0.249   3.717  1.6047 -1.5965  1.5623
 5106TIP3    H215325   6.084   0.325   3.761  0.7294  1.3953 -0.7855
 5107TIP3   OH215326   5.545   4.738   4.038  0.5428 -0.4986  0.6360
 5107TIP3    H115327   5.626   4.687   4.047 -0.1411 -1.3002  2.9039
 5107TIP3    H215328   5.567   4.825   4.073  1.2444  0.3615 -1.7200
 5108TIP3   OH215329   2.951   2.652   1.157  0.2579 -0.0094 -0.2894
 5108TIP3    H115330   3.044   2.670   1.145  0.0240  1.8276  0.3291
 5108TIP3    H215331   2.937   2.659   1.252 -0.6362  0.5026 -0.4463
 5109TIP3   OH215332   5.222   2.546   2.220  0.4956  0.3208 -0.0475
 5109TIP3    H115333   5.154   2.516   2.159 -0.7487  0.8414  1.0509
 5109TIP3    H215334   5.296   2.567   2.163 -0.1096 -0.6001 -1.2498
 5110TIP3   OH215335   5.260   0.193   4.582 -0.0614 -0.2668 -0.3805
 5110TIP3    H115336   5.327   0.133   4.615  0.1810  0.1839 -0.0430
 5110TIP3    H215337   5.229   0.240   4.660  0.2856  0.5713 -0.7342
 5111TIP3   OH215338   1.531   6.027   2.615 -1.0130  0.5525 -0.5155
 5111TIP3    H115339   1.571   5.941   2.606 -0.4135  1.0532 -4.9178
 5111TIP3    H215340   1.437   6.011   2.616 -0.9157 -0.1875  1.5339
 5112TIP3   OH215341   3.621   0.640   1.802  0.5132 -0.3053  0.2099
 5112TIP3    H115342   3.682   0.714   1.808 -0.1356  0.3180 -0.7638
 5112TIP3    H215343   3.677   0.563   1.815  1.7148  0.1878 -1.6192
 5113TIP3   OH215344   1.276   2.169   3.881  0.5442 -0.0536 -0.4669
 5113TIP3    H115345   1.349   2.108   3.875 -1.2045 -2.1778 -1.6216
 5113TIP3    H215346   1.212   2.124   3.936 -0.2825  1.3557 -0.2128
 5114TIP3   OH215347   2.759   5.966   2.107  0.5579  0.1711 -0.4087
 5114TIP3    H115348   2.816   6.019   2.052  1.4903  0.2493  0.6049
 5114TIP3    H215349   2.732   5.894   2.051  0.2733  1.0333 -1.4242
 5115TIP3   OH215350   2.384   4.852   3.380 -0.1016  0.2151  0.3063
 5115TIP3    H115351   2.306   4.796   3.377  1.6012 -2.5176  2.1432
 5115TIP3    H215352   2.433   4.829   3.301 -1.5331  2.7972 -1.4831
 5116TIP3   OH215353   5.133   3.323   1.236  0.5358  0.0483  0.1149
 5116TIP3    H115354   5.127   3.301   1.329  1.4243  0.9978  0.4255
 5116TIP3    H215355   5.227   3.322   1.218  0.3869  0.1805 -0.6971
 5117TIP3   OH215356   2.425   4.663   2.820  0.0691  0.2136 -0.2252
 5117TIP3    H115357   2.501   4.699   2.867 -0.3597 -0.6594  1.2078
 5117TIP3    H215358   2.455   4.655   2.729  0.2439  4.0048 -0.6700
 5118TIP3   OH215359   0.136   3.577   0.441  0.2956 -0.2453  0.3766
 5118TIP3    H115360   0.050   3.575   0.398  0.8090 -0.8267 -0.6598
 5118TIP3    H215361   0.186   3.641   0.390  0.7923 -0.6441  0.3668
 5119TIP3   OH215362   3.639   5.835   1.429  0.2392  0.4077  0.4163
 5119TIP3    H115363   3.551   5.864   1.405  0.2889 -1.1229 -1.9250
 5119TIP3    H215364   3.668   5.899   1.495 -1.8442  2.1081 -0.1887
 5120TIP3   OH215365   3.131   2.770   3.944  0.2364 -0.0828  0.4966
 5120TIP3    H115366   3.207   2.718   3.971  0.2607  0.5037  1.6367
 5120TIP3    H215367   3.115   2.745   3.854  0.5890 -1.6584  0.8485
 5121TIP3   OH215368   3.382   2.549   4.669 -0.1543 -0.7369 -0.3005
 5121TIP3    H115369   3.314   2.564   4.603  0.1262  1.0006 -0.2381
 5121TIP3    H215370   3.452   2.610   4.647  0.2209 -0.5596  1.2220
 5122TIP3   OH215371   1.042   1.164   2.811 -0.0046 -0.2792 -0.3577
 5122TIP3    H115372   0.999   1.107   2.874  0.3042 -0.1375 -0.0162
 5122TIP3    H215373   1.120   1.116   2.784  0.1165 -0.1310 -0.2698
 5123TIP3   OH215374   5.350   0.494   4.257  0.2072  0.5501 -0.2637
 5123TIP3    H115375   5.443   0.486   4.237  0.0515  0.5137 -1.0084
 5123TIP3    H215376   5.330   0.587   4.245 -0.1112  0.3558 -1.3231
 5124TIP3   OH215377   1.734   3.881   2.663  0.1405  0.5655  0.3665
 5124TIP3    H115378   1.654   3.837   2.693 -0.4797  1.0394 -0.5572
 5124TIP3    H215379   1.803   3.848   2.722 -0.8275  0.5893  1.5473
 5125TIP3   OH215380   1.901   0.820   0.505 -0.1361  0.3500 -0.2719
 5125TIP3    H115381   1.833   0.850   0.565 -1.3689  0.1442 -1.5252
 5125TIP3    H215382   1.890   0.725   0.504  0.5545  0.2632 -0.0576
 5126TIP3   OH215383   3.036   1.368   1.475 -0.6415  0.7815  0.4406
 5126TIP3    H115384   3.034   1.426   1.550  1.4606  1.3276  0.1543
 5126TIP3    H215385   3.103   1.406   1.417 -0.5763 -0.8657 -0.6409
 5127TIP3   OH215386   1.352   2.516   3.725 -0.4356 -0.4547  0.0758
 5127TIP3    H115387   1.336   2.531   3.632 -0.9036  0.6014  0.3106
 5127TIP3    H215388   1.315   2.593   3.769 -2.9609 -2.2364  1.3981
 5128TIP3   OH215389   5.185   0.826   4.561  0.0706 -0.0252  0.3429
 5128TIP3    H115390   5.146   0.739   4.561 -0.4022  0.1838  0.5332
 5128TIP3    H215391   5.121   0.882   4.604  0.4739  0.3742  0.4429
 5129TIP3   OH215392   1.548   5.095   0.072  0.0593 -0.5242 -0.2962
 5129TIP3    H115393   1.561   5.014   0.023  0.7434 -0.9221  0.5137
 5129TIP3    H215394   1.525   5.160   0.006  3.1814 -0.4843 -1.5114
 5130TIP3   OH215395   3.709   2.532   1.841 -0.0991 -0.3319 -0.0096
 5130TIP3    H115396   3.675   2.484   1.916 -1.6137 -1.1094 -1.1262
 5130TIP3    H215397   3.675   2.621   1.851  0.4986 -0.1773  0.6951
 5131TIP3   OH215398   0.207   2.841   2.821 -0.2581  0.0277 -0.3922
 5131TIP3    H115399   0.138   2.813   2.761 -0.8310 -0.0432  0.2875
 5131TIP3    H215400   0.168   2.912   2.872  0.8127  1.3421 -1.3321
 5132TIP3   OH215401   4.542   2.722   0.836  0.1783  0.4489 -0.7676
 5132TIP3    H115402   4.559   2.645   0.781 -0.7290 -0.0722 -0.3475
 5132TIP3    H215403   4.482   2.775   0.783 -1.7760 -0.6944  0.2091
 5133TIP3   OH215404   0.383   4.553   4.855  0.2137  0.0600 -0.1911
 5133TIP3    H115405   0.301   4.546   4.904  0.6001  0.5413  0.5298
 5133TIP3    H215406   0.417   4.640   4.876 -1.0505  1.5398 -3.5751
 5134TIP3   OH215407   2.794   1.613   3.867 -0.1155  0.0074 -0.0274
 5134TIP3    H115408   2.745   1.535   3.892 -0.0264  0.0984  0.4288
 5134TIP3    H215409   2.886   1.584   3.866 -0.0995  0.0587 -0.0423
 5135TIP3   OH215410   0.973   5.739   1.964  0.4774  0.1044 -0.4071
 5135TIP3    H115411   1.060   5.716   1.931  0.8425  0.5683  0.2100
 5135TIP3    H215412   0.938   5.802   1.901  1.5258  1.6590  0.5095
 5136TIP3   OH215413   2.927   0.998   1.746 -0.2947 -0.1574  0.3106
 5136TIP3    H115414   2.941   0.984   1.652 -3.4599  0.5359 -0.3537
 5136TIP3    H215415   2.988   0.937   1.788  1.0638 -0.6398 -2.1453
 5137TIP3   OH215416   5.200   0.654   1.115 -0.1820  0.7953  0.1799
 5137TIP3    H115417   5.117   0.640   1.161  0.6285 -0.3748  1.3821
 5137TIP3    H215418   5.202   0.586   1.048  0.6836 -0.6087  1.5339
 5138TIP3   OH215419   1.377   4.237   3.838 -0.0957  0.7415  0.1445
 5138TIP3    H115420   1.393   4.152   3.797 -0.2924  0.1173  1.3026
 5138TIP3    H215421   1.372   4.217   3.932  0.7043  2.1657  0.5137
 5139TIP3   OH215422   5.738   0.973   3.536  0.4280 -0.1107 -0.3205
 5139TIP3    H115423   5.772   0.941   3.619  1.0516 -1.7023 -1.1546
 5139TIP3    H215424   5.772   1.063   3.529 -0.2017  0.3135  1.4170
 5140TIP3   OH215425   5.731   4.349   2.986  0.1491  0.0831 -0.2022
 5140TIP3    H115426   5.818   4.335   3.023 -0.0126  1.6193  0.8701
 5140TIP3    H215427   5.743   4.338   2.891  1.2400 -0.8661  0.0157
 5141TIP3   OH215428   5.774   1.803   4.369 -0.2928  0.3206  0.1576
 5141TIP3    H115429   5.780   1.710   4.348  0.8722 -0.2983  2.8302
 5141TIP3    H215430   5.699   1.810   4.428 -0.4869  1.1355 -0.1608
 5142TIP3   OH215431   1.262   2.831   0.889 -0.4781 -0.0594  0.2842
 5142TIP3    H115432   1.277   2.816   0.982 -3.3101 -1.6482  0.5866
 5142TIP3    H215433   1.305   2.757   0.846 -0.8878 -0.4454  0.5244
 5143TIP3   OH215434   1.502   2.070   2.526  0.5003  0.3297  0.0797
 5143TIP3    H115435   1.516   2.139   2.591 -1.0621  0.7372  0.0107
 5143TIP3    H215436   1.437   2.107   2.466 -0.1991 -1.1192 -0.0782
 5144TIP3   OH215437   0.060   0.857   1.313 -0.2091 -0.5288 -0.2864
 5144TIP3    H115438   0.052   0.767   1.345 -2.2324 -0.0269  0.7889
 5144TIP3    H215439   0.092   0.906   1.388  3.0873 -0.5987 -1.4680
 5145TIP3   OH215440   2.477   1.753   1.549  0.2463  0.0383  0.2664
 5145TIP3    H115441   2.493   1.847   1.546  1.5611 -0.1802 -0.1888
 5145TIP3    H215442   2.488   1.729   1.641  0.9209  0.1798  0.2269
 5146TIP3   OH215443   5.331   4.587   4.341 -0.2796 -0.1106 -0.5085
 5146TIP3    H115444   5.414   4.616   4.303 -0.0351  0.3249  0.3340
 5146TIP3    H215445   5.336   4.491   4.338  0.8161 -0.1254  0.6717
 5147TIP3   OH215446   2.901   1.270   4.409 -0.6539  0.3803 -0.7311
 5147TIP3    H115447   2.848   1.269   4.329 -0.6960 -0.2267 -0.6968
 5147TIP3    H215448   2.837   1.274   4.480 -0.6640 -0.4579 -0.6861
 5148TIP3   OH215449   0.116   1.060   4.142 -0.1048  0.2416 -0.4822
 5148TIP3    H115450   0.186   1.005   4.177  0.0114 -0.7066 -2.1252
 5148TIP3    H215451   0.097   1.122   4.213  0.1615 -1.5147  1.2108
 5149TIP3   OH215452   2.981  -0.007   1.253  0.5313  0.0833  0.1003
 5149TIP3    H115453   2.947   0.078   1.226  0.7972 -0.4699 -2.1640
 5149TIP3    H215454   2.919  -0.071   1.217 -1.2532 -0.7541  4.0890
 5150TIP3   OH215455   2.896   4.480   1.898 -0.2770  0.1951  0.7241
 5150TIP3    H115456   2.836   4.553   1.882 -1.1657 -0.8373 -0.8541
 5150TIP3    H215457   2.971   4.521   1.941 -0.2060  2.3022 -1.1819
 5151TIP3   OH215458   1.849   0.747   3.452 -0.2463 -0.3864 -0.2324
 5151TIP3    H115459   1.819   0.820   3.398 -1.0930 -0.6042 -0.0682
 5151TIP3    H215460   1.820   0.669   3.405  1.5095 -0.6730 -0.9168
 5152TIP3   OH215461   0.030   0.770   0.418 -0.4379 -0.0210  0.2663
 5152TIP3    H115462  -0.016   0.693   0.452 -0.9521  0.3939  0.5404
 5152TIP3    H215463   0.098   0.735   0.361 -0.9173 -0.6634  0.0817
 5153TIP3   OH215464   1.316   4.624   3.125 -0.0836 -0.9472 -0.0735
 5153TIP3    H115465   1.318   4.528   3.120  0.8718 -0.9549  0.2316
 5153TIP3    H215466   1.408   4.650   3.134 -0.4006 -0.0622  0.8490
 5154TIP3   OH215467   4.987   2.842   4.243 -0.6721 -0.0594  0.9972
 5154TIP3    H115468   5.068   2.872   4.284 -0.0370 -0.4892  0.0759
 5154TIP3    H215469   5.013   2.769   4.187 -1.7040 -0.2449  0.7236
 5155TIP3   OH215470   5.288   5.320   3.598  0.0319  0.2972  0.2687
 5155TIP3    H115471   5.370   5.349   3.639  0.5197 -0.6674  0.0016
 5155TIP3    H215472   5.270   5.235   3.638 -0.2827  0.0270 -0.4283
 5156TIP3   OH215473   1.681   3.243   5.050  0.3833 -0.6205 -0.3927
 5156TIP3    H115474   1.597   3.199   5.059  0.6153 -0.9360  0.3013
 5156TIP3    H215475   1.721   3.205   4.972 -0.5322  0.2370 -1.3052
 5157TIP3   OH215476   5.388   5.336   0.330 -0.1187 -0.1086 -0.1000
 5157TIP3    H115477   5.298   5.309   0.348 -0.1475 -1.2183 -1.6880
 5157TIP3    H215478   5.387   5.363   0.238  0.8476  1.4538  0.2949
 5158TIP3   OH215479   6.154   3.791   2.096 -0.3186  0.5943  0.2484
 5158TIP3    H115480   6.198   3.823   2.017 -0.2420 -0.0300  0.0302
 5158TIP3    H215481   6.060   3.798   2.076 -0.3017 -0.3780 -0.2508
 5159TIP3   OH215482   1.020   1.485   0.484 -0.2227  0.0387  0.4075
 5159TIP3    H115483   0.963   1.540   0.537 -0.2103  0.4847 -0.0418
 5159TIP3    H215484   1.108   1.519   0.500 -0.2057  0.0932  0.1966
 5160TIP3   OH215485   1.667   4.948   0.274 -0.2619 -0.4226 -0.0780
 5160TIP3    H115486   1.645   4.994   0.193 -0.6309  0.5563  0.5668
 5160TIP3    H215487   1.647   5.010   0.344 -0.4552 -1.4339  0.8041
 5161TIP3   OH215488   3.434   1.844   0.917 -0.5091 -0.4467  0.1764
 5161TIP3    H115489   3.494   1.919   0.914  1.2218 -1.8037 -1.5404
 5161TIP3    H215490   3.353   1.880   0.954  0.4256  2.1262 -0.0409
 5162TIP3   OH215491   0.605   2.062   3.432 -0.5964  0.1254 -0.2923
 5162TIP3    H115492   0.624   2.115   3.510 -0.8065 -0.4164  0.1261
 5162TIP3    H215493   0.569   1.980   3.466 -0.5320 -0.1823 -0.9523
 5163TIP3   OH215494   5.143   4.409   3.649  0.1289 -0.2909  0.4894
 5163TIP3    H115495   5.060   4.361   3.657  1.4406 -2.4115  3.1134
 5163TIP3    H215496   5.141   4.446   3.561 -2.3978 -2.5620 -0.5562
 5164TIP3   OH215497   1.027   3.405   0.805 -0.0276  0.0978 -0.6213
 5164TIP3    H115498   0.986   3.369   0.727 -2.4141  0.7440  0.2326
 5164TIP3    H215499   1.028   3.499   0.790  0.2743  0.1604 -0.2161
 5165TIP3   OH215500   1.773   0.587   2.101  0.6742 -0.0653  0.0799
 5165TIP3    H115501   1.721   0.508   2.088 -0.9241  1.0265 -0.5562
 5165TIP3    H215502   1.735   0.628   2.179 -1.0318  1.8508 -1.6022
 5166TIP3   OH215503   3.630   4.651   2.296 -0.0456 -0.6589  0.2446
 5166TIP3    H115504   3.627   4.633   2.202  1.0199 -0.0998  0.0828
 5166TIP3    H215505   3.706   4.709   2.307 -1.4256  1.0820  1.1458
 5167TIP3   OH215506   5.618   4.622   0.804 -0.2948 -0.4876  0.1606
 5167TIP3    H115507   5.532   4.606   0.766  0.3597 -0.0980 -1.6176
 5167TIP3    H215508   5.650   4.700   0.758  1.4619 -1.2959 -0.0847
 5168TIP3   OH215509   4.778   5.673   4.471 -0.0666 -0.2305 -0.1668
 5168TIP3    H115510   4.787   5.584   4.505  1.1974 -0.6414 -1.4947
 5168TIP3    H215511   4.691   5.675   4.432 -0.8158 -0.3009  1.3948
 5169TIP3   OH215512   2.814   0.654   1.093 -0.1415 -0.0219  0.5717
 5169TIP3    H115513   2.823   0.613   1.179 -0.6616 -2.0490 -0.2750
 5169TIP3    H215514   2.897   0.635   1.049 -1.3640 -2.7201 -0.7925
 5170TIP3   OH215515   1.320   2.507   0.769 -0.1306 -0.2291 -0.2970
 5170TIP3    H115516   1.365   2.508   0.684 -1.5269 -1.7646 -1.1064
 5170TIP3    H215517   1.237   2.464   0.752 -1.6409  1.8279  1.3317
 5171TIP3   OH215518   4.676   0.496   4.338  0.0381  0.1991  0.5379
 5171TIP3    H115519   4.608   0.454   4.391 -1.8391  1.5819 -0.6183
 5171TIP3    H215520   4.728   0.424   4.303 -2.1072 -1.1314 -0.1483
 5172TIP3   OH215521   5.552   5.671   0.142 -0.1450  0.6775 -0.7286
 5172TIP3    H115522   5.485   5.648   0.078 -0.0336  1.0157 -0.9685
 5172TIP3    H215523   5.631   5.628   0.109 -0.7137 -1.7310  0.7971
 5173TIP3   OH215524   1.287   1.569   0.575 -0.2023  0.3135 -0.2187
 5173TIP3    H115525   1.336   1.530   0.647 -0.4197 -0.2071 -0.3442
 5173TIP3    H215526   1.347   1.633   0.536  0.1785  0.0657 -0.0378
 5174TIP3   OH215527   5.888   3.110   1.047  0.0453 -0.0225  0.0886
 5174TIP3    H115528   5.953   3.165   1.002  0.7267 -0.6476  0.2927
 5174TIP3    H215529   5.839   3.069   0.975  0.7877 -0.6118 -0.0966
 5175TIP3   OH215530   5.884   3.810   2.102  0.0295 -0.0725 -0.4335
 5175TIP3    H115531   5.857   3.724   2.069 -1.0571  0.1710 -0.2145
 5175TIP3    H215532   5.803   3.860   2.110  0.6803  1.0927 -0.8485
 5176TIP3   OH215533   3.780   3.940   2.878  0.2143 -0.1794  0.2959
 5176TIP3    H115534   3.796   4.033   2.895  0.2789 -0.1216 -0.0825
 5176TIP3    H215535   3.691   3.938   2.841  0.4124 -0.2106 -0.1860
 5177TIP3   OH215536   3.563   1.182   3.972  0.3931 -0.1653 -0.1632
 5177TIP3    H115537   3.620   1.160   4.046 -0.5539 -0.0179  0.6319
 5177TIP3    H215538   3.498   1.241   4.010  0.1369  0.2461 -1.2206
 5178TIP3   OH215539   6.051   2.208   3.717 -0.0792 -0.1901 -0.0450
 5178TIP3    H115540   6.072   2.115   3.705  2.5299  0.4118 -0.7297
 5178TIP3    H215541   6.089   2.230   3.803  0.4441  0.4989 -0.4379
 5179TIP3   OH215542   0.707   4.655   4.152  0.5927  0.4702  0.1985
 5179TIP3    H115543   0.787   4.672   4.102  0.5100  2.4409  0.6515
 5179TIP3    H215544   0.654   4.735   4.141 -1.3951 -0.8343 -0.2039
 5180TIP3   OH215545   0.749   0.358   5.147  0.3558  0.0297  0.3004
 5180TIP3    H115546   0.713   0.443   5.174 -0.3694 -0.3728  0.6369
 5180TIP3    H215547   0.820   0.380   5.087 -0.6343  0.8450 -0.6030
 5181TIP3   OH215548   5.460   1.770   4.854  0.1235  0.5874  0.1673
 5181TIP3    H115549   5.484   1.700   4.915  2.3990  0.9754 -0.1711
 5181TIP3    H215550   5.499   1.849   4.892 -2.1361  1.6718  0.3808
 5182TIP3   OH215551   5.677   1.662   0.921 -0.1300  0.2657  0.5011
 5182TIP3    H115552   5.719   1.589   0.966 -1.3649 -0.3117  0.7362
 5182TIP3    H215553   5.685   1.735   0.982  1.6645  0.5352  0.0095
 5183TIP3   OH215554   5.945   1.336   1.841 -0.6296  0.5104  0.7254
 5183TIP3    H115555   5.867   1.345   1.787 -0.5811  0.0151  0.5600
 5183TIP3    H215556   6.017   1.362   1.783 -0.5063 -0.6948  0.3049
 5184TIP3   OH215557   1.837   2.657   0.375 -0.2421 -0.0563  0.0199
 5184TIP3    H115558   1.865   2.566   0.366 -1.1585 -0.2940 -0.5958
 5184TIP3    H215559   1.744   2.656   0.351 -0.6423  0.7951  1.4055
 5185TIP3   OH215560   4.166   5.660   2.438 -0.0405 -0.5535 -0.2258
 5185TIP3    H115561   4.125   5.699   2.361 -0.5254 -0.1145  0.2501
 5185TIP3    H215562   4.243   5.714   2.455 -1.9033  1.6765  1.7729
 5186TIP3   OH215563   5.928   0.965   1.126 -0.1896 -0.0763  0.3255
 5186TIP3    H115564   6.005   1.009   1.163 -0.4124 -0.1601  0.8850
 5186TIP3    H215565   5.943   0.967   1.031 -1.3963  3.4820  0.0832
 5187TIP3   OH215566   3.992   3.278   0.543 -0.2303  0.8098  0.4448
 5187TIP3    H115567   4.083   3.257   0.561 -0.1420  0.5555 -0.2599
 5187TIP3    H215568   3.966   3.215   0.475 -0.9279  0.8780  0.6441
 5188TIP3   OH215569   0.647   5.423   2.973 -0.8520  0.0076  0.1493
 5188TIP3    H115570   0.563   5.469   2.964 -1.3096 -1.0321 -1.2996
 5188TIP3    H215571   0.701   5.458   2.902 -0.7475 -0.7110 -0.1336
 5189TIP3   OH215572   2.913   0.629   1.736 -0.2007 -0.4401 -0.0354
 5189TIP3    H115573   2.979   0.695   1.714 -1.6903  1.2448  0.3544
 5189TIP3    H215574   2.944   0.590   1.818 -1.0760  2.4313  1.7977
 5190TIP3   OH215575   4.908   4.411   4.395 -0.2547  0.1991  0.1650
 5190TIP3    H115576   4.843   4.385   4.330 -0.0263  0.8745 -0.3446
 5190TIP3    H215577   4.946   4.492   4.360 -0.2492  0.6720  1.2179
 5191TIP3   OH215578   4.775   4.708   0.625 -0.6711 -0.2538 -0.0933
 5191TIP3    H115579   4.818   4.623   0.638 -0.3807 -0.0314  0.4573
 5191TIP3    H215580   4.789   4.729   0.533  0.3246 -0.2357  0.0488
 5192TIP3   OH215581   3.937   5.737   2.788 -0.2787  0.5185 -0.0503
 5192TIP3    H115582   3.888   5.664   2.751  0.4030 -0.8931  1.7175
 5192TIP3    H215583   3.892   5.815   2.754 -1.8574 -0.7008 -0.9058
 5193TIP3   OH215584   5.683   3.165   3.440 -0.4552  0.2373  0.3414
 5193TIP3    H115585   5.697   3.156   3.534 -0.5229 -0.0174  0.3263
 5193TIP3    H215586   5.714   3.083   3.403  0.8836  0.8741 -0.0023
 5194TIP3   OH215587   1.417   0.696   1.525 -0.3362 -0.2249 -0.5225
 5194TIP3    H115588   1.475   0.661   1.593 -0.4406 -1.8403 -1.2404
 5194TIP3    H215589   1.471   0.761   1.479  0.2708 -0.3249  0.0398
 5195TIP3   OH215590   5.876   5.824   4.679  0.3905 -0.2332 -0.6865
 5195TIP3    H115591   5.906   5.874   4.604 -1.1339  1.1712 -0.4167
 5195TIP3    H215592   5.887   5.883   4.754 -0.3459 -0.7221 -0.1769
 5196TIP3   OH215593   3.793   2.552   0.984 -0.0539  0.5283 -0.0535
 5196TIP3    H115594   3.736   2.475   0.973 -0.7726  0.9364  0.6434
 5196TIP3    H215595   3.855   2.547   0.912  0.6162 -1.3184  0.5914
 5197TIP3   OH215596   1.025   5.417   2.113 -0.1956  0.2767  0.2209
 5197TIP3    H115597   1.110   5.435   2.153 -0.0570 -0.2534  0.1635
 5197TIP3    H215598   0.961   5.452   2.175  0.0108 -0.7226  1.0155
 5198TIP3   OH215599   2.604   5.010   2.107 -0.1740 -0.2094 -0.1249
 5198TIP3    H115600   2.529   5.058   2.070 -0.5171  0.7813  1.7501
 5198TIP3    H215601   2.568   4.965   2.183  0.7055 -1.4569 -0.4333
 5199TIP3   OH215602   4.684   0.862   2.098 -0.4877 -0.4290  0.3173
 5199TIP3    H115603   4.749   0.820   2.154 -2.7270 -3.0835  1.1746
 5199TIP3    H215604   4.696   0.821   2.012 -0.8617 -0.7701  0.4239
 5200TIP3   OH215605   3.172   3.129   3.048 -0.1704  0.0884 -0.3034
 5200TIP3    H115606   3.153   3.036   3.042 -1.6430  0.2188  1.2953
 5200TIP3    H215607   3.221   3.150   2.968 -0.4414 -1.8887 -1.0286
 5201TIP3   OH215608   3.411   2.991   0.866 -0.2557 -0.1235  0.5769
 5201TIP3    H115609   3.401   2.981   0.771 -0.9239  1.2703  0.4750
 5201TIP3    H215610   3.497   3.030   0.877  0.3510 -1.4208  0.6563
 5202TIP3   OH215611   2.684   0.237   4.734  0.0975 -0.3524 -0.4385
 5202TIP3    H115612   2.598   0.194   4.740 -0.7107  1.3603  1.4875
 5202TIP3    H215613   2.718   0.234   4.824  0.0716  2.7018 -0.2205
 5203TIP3   OH215614   0.419   4.131   3.046  0.4822 -0.1521  0.0075
 5203TIP3    H115615   0.473   4.055   3.069  1.1808  0.4243  0.2922
 5203TIP3    H215616   0.332   4.094   3.031  1.4146 -1.4527 -2.8986
 5204TIP3   OH215617   5.186   2.507   1.806 -0.0294 -0.4144  0.3045
 5204TIP3    H115618   5.201   2.460   1.888  0.6243 -1.2669 -0.2935
 5204TIP3    H215619   5.206   2.443   1.738 -1.1866  0.0828 -0.5275
 5205TIP3   OH215620   5.111   5.440   3.902  0.7227  0.7624  0.0720
 5205TIP3    H115621   5.095   5.356   3.858  3.2472  0.5599 -0.6730
 5205TIP3    H215622   5.121   5.503   3.831 -0.5345  1.5947  0.6079
 5206TIP3   OH215623   4.040   2.349   4.359  0.3391  0.0955  0.2311
 5206TIP3    H115624   4.085   2.430   4.338 -1.2773  1.3553  1.4097
 5206TIP3    H215625   4.081   2.283   4.302  1.5591  1.7534 -0.8868
 5207TIP3   OH215626   3.845   2.249   3.531 -0.0672 -0.3248  0.2547
 5207TIP3    H115627   3.938   2.269   3.517  0.2370 -2.1021 -0.6817
 5207TIP3    H215628   3.847   2.164   3.577 -1.2225 -0.6345 -0.2489
 5208TIP3   OH215629   4.401   4.189   4.828 -0.3511 -0.2222  0.5907
 5208TIP3    H115630   4.413   4.213   4.737  0.4586  0.6855  0.9205
 5208TIP3    H215631   4.473   4.128   4.847  1.5124  2.0956  1.4651
 5209TIP3   OH215632   5.527   2.254   2.017  0.9800 -0.0431  0.0761
 5209TIP3    H115633   5.490   2.341   2.029 -2.4274 -1.0697 -1.6966
 5209TIP3    H215634   5.538   2.245   1.923  1.1139 -1.5767  0.2115
 5210TIP3   OH215635   2.762   3.640   4.209 -0.4542  0.6605 -0.3811
 5210TIP3    H115636   2.706   3.573   4.171 -0.9262  1.2175 -0.6874
 5210TIP3    H215637   2.817   3.669   4.137  0.2900  0.0711 -0.0665
 5211TIP3   OH215638   3.965   5.518   1.900  0.2791 -0.2316 -0.0958
 5211TIP3    H115639   3.909   5.593   1.919  0.0260 -0.3013 -0.5508
 5211TIP3    H215640   4.054   5.552   1.911  0.1710 -0.5286  2.1609
 5212TIP3   OH215641   1.626   4.890   4.324 -0.1640  0.2116 -0.2901
 5212TIP3    H115642   1.656   4.977   4.299 -2.2847  1.2848  0.6231
 5212TIP3    H215643   1.580   4.857   4.246 -1.2507  0.8802  0.0336
 5213TIP3   OH215644   3.949   0.524   0.923  0.1497  0.3287  0.8114
 5213TIP3    H115645   3.873   0.576   0.949 -0.9136 -1.6343  1.8293
 5213TIP3    H215646   3.983   0.569   0.846 -1.7450  1.5579  0.6256
 5214TIP3   OH215647   1.546   1.570   4.254  0.5860 -0.6738  0.0493
 5214TIP3    H115648   1.561   1.647   4.307 -0.0729 -0.7829  0.4046
 5214TIP3    H215649   1.620   1.567   4.194 -0.3848  1.4052 -1.3897
 5215TIP3   OH215650   0.693   4.878   2.335 -0.0934  0.1730  0.0045
 5215TIP3    H115651   0.746   4.934   2.278  1.0817  1.3531  2.1284
 5215TIP3    H215652   0.606   4.918   2.333  0.7380  2.2152  1.5181
 5216TIP3   OH215653   0.833   0.654   3.804 -0.1624  0.8141 -0.5165
 5216TIP3    H115654   0.919   0.660   3.845  1.0331  1.2350 -2.9056
 5216TIP3    H215655   0.821   0.561   3.786 -0.7537  0.6084  0.7892
 5217TIP3   OH215656   2.563   3.474   3.127 -0.2010  0.1388  0.8221
 5217TIP3    H115657   2.592   3.528   3.053 -1.0984  2.2407  1.9137
 5217TIP3    H215658   2.470   3.461   3.112 -0.3717  0.5083  1.5182
 5218TIP3   OH215659   3.292   2.602   1.394  0.5364  0.1794  0.6577
 5218TIP3    H115660   3.283   2.507   1.392  0.5010  0.1196  2.2859
 5218TIP3    H215661   3.353   2.618   1.466  0.5993  1.3838  0.3475
 5219TIP3   OH215662   2.714   5.436   3.113 -0.0307 -0.1792  0.1351
 5219TIP3    H115663   2.808   5.451   3.126 -0.1286 -0.1481  0.8731
 5219TIP3    H215664   2.672   5.513   3.152 -0.2767  1.6865 -3.4414
 5220TIP3   OH215665   4.213   3.874   2.161 -0.5378  0.3766  0.3266
 5220TIP3    H115666   4.202   3.874   2.256  2.7182 -1.8721  0.8460
 5220TIP3    H215667   4.291   3.928   2.146 -0.4984 -0.0045 -0.9611
 5221TIP3   OH215668   3.732   0.046   3.821 -0.1727  0.1063  0.3010
 5221TIP3    H115669   3.746  -0.025   3.884 -1.1023  0.0461  0.4615
 5221TIP3    H215670   3.725   0.002   3.736  1.2928  0.2065  0.1117
 5222TIP3   OH215671   3.268   4.156   2.526 -0.3296 -0.3414 -0.4043
 5222TIP3    H115672   3.352   4.202   2.519 -0.2565 -0.7087 -2.9582
 5222TIP3    H215673   3.286   4.069   2.491 -1.2939 -1.1751  1.0856
 5223TIP3   OH215674   3.203   3.721   3.693  0.0620  0.0779 -0.5460
 5223TIP3    H115675   3.251   3.716   3.775  1.6333 -1.0522 -1.4663
 5223TIP3    H215676   3.249   3.660   3.635 -1.8929 -0.2919 -1.8172
 5224TIP3   OH215677   2.557   1.729   2.542  0.4264  0.2693  0.1282
 5224TIP3    H115678   2.571   1.685   2.459 -1.6756  0.1304 -0.2082
 5224TIP3    H215679   2.589   1.818   2.528  2.0580 -0.3140 -0.0956
 5225TIP3   OH215680   5.794   4.349   1.226  1.0953 -0.2010  0.2080
 5225TIP3    H115681   5.879   4.366   1.185 -0.0359  0.9057 -1.8084
 5225TIP3    H215682   5.758   4.436   1.243  0.4661 -0.6624  1.3270
 5226TIP3   OH215683   2.701   2.887   1.028  0.1329 -0.6585 -0.4353
 5226TIP3    H115684   2.666   2.859   1.113  1.0950 -0.0311  0.1777
 5226TIP3    H215685   2.796   2.884   1.039  0.2797  1.1518 -0.9021
 5227TIP3   OH215686   3.538   3.470   3.860  0.3651  0.4015 -0.0565
 5227TIP3    H115687   3.595   3.468   3.783 -1.0764 -0.2874 -1.1416
 5227TIP3    H215688   3.545   3.382   3.897 -2.1560 -0.6689 -1.8879
 5228TIP3   OH215689   1.353   4.059   1.522 -0.1610  0.0115 -0.5596
 5228TIP3    H115690   1.310   4.093   1.443 -1.9416  0.2646  0.4545
 5228TIP3    H215691   1.302   4.097   1.594  0.4018 -1.5067  0.6778
 5229TIP3   OH215692   1.559   0.164   5.040 -0.1369 -0.2369  0.4475
 5229TIP3    H115693   1.593   0.166   4.950  0.7254  0.8719  0.7837
 5229TIP3    H215694   1.464   0.172   5.030  0.1122  2.4492 -0.2888
 5230TIP3   OH215695   2.536   4.761   0.910  0.0337 -0.7506 -0.3150
 5230TIP3    H115696   2.597   4.834   0.920  0.2112 -0.8122 -0.8818
 5230TIP3    H215697   2.558   4.724   0.824 -1.2961 -0.3186 -0.8599
 5231TIP3   OH215698   1.024   5.770   0.887 -0.4446 -0.0314  0.2966
 5231TIP3    H115699   1.018   5.782   0.982  2.9335 -0.8057  0.7328
 5231TIP3    H215700   1.027   5.675   0.876 -0.3550  0.0632 -0.5231
 5232TIP3   OH215701   1.424   2.328   3.036  0.3042 -0.0331  0.0007
 5232TIP3    H115702   1.480   2.338   3.113 -0.8673  2.2583  0.6621
 5232TIP3    H215703   1.354   2.393   3.049  0.2820  0.7557 -3.2140
 5233TIP3   OH215704   0.598   0.784   2.895 -0.5701 -0.2604  0.7882
 5233TIP3    H115705   0.571   0.695   2.919  0.0917 -1.0819 -1.2777
 5233TIP3    H215706   0.523   0.820   2.849 -0.2942 -0.3204  0.2901
 5234TIP3   OH215707   0.811   3.453   2.714 -0.4212  0.2758  0.1778
 5234TIP3    H115708   0.723   3.467   2.749 -1.0535 -0.5074 -1.0121
 5234TIP3    H215709   0.869   3.467   2.789 -1.7262 -1.7463  1.6671
 5235TIP3   OH215710   2.688   1.322   3.891  0.3262 -0.6496 -0.7295
 5235TIP3    H115711   2.654   1.258   3.828  1.2726 -1.6878 -0.2304
 5235TIP3    H215712   2.780   1.335   3.865  0.4376 -0.3027 -0.1882
 5236TIP3   OH215713   2.926   1.215   0.396 -0.7550 -0.1015 -0.3084
 5236TIP3    H115714   2.873   1.162   0.456  1.4636  0.1988  2.1496
 5236TIP3    H215715   3.007   1.165   0.387  0.8644  2.0961  0.9679
 5237TIP3   OH215716   3.369   0.426   4.285 -0.0136  0.3578  0.9042
 5237TIP3    H115717   3.285   0.458   4.316  0.1582  1.2607  0.4732
 5237TIP3    H215718   3.348   0.370   4.210 -0.1754  1.5143  0.0599
 5238TIP3   OH215719   5.501   4.946   4.421 -0.3463 -0.3288  0.6346
 5238TIP3    H115720   5.412   4.973   4.399  0.5928  1.1387 -1.7301
 5238TIP3    H215721   5.538   5.021   4.468  0.8973  0.9475 -2.1476
 5239TIP3   OH215722   3.296   2.237   2.946 -0.0892 -0.1169 -0.3177
 5239TIP3    H115723   3.237   2.194   3.007 -1.1468  0.2180 -1.0809
 5239TIP3    H215724   3.282   2.330   2.959  2.2277  0.1020  1.3597
 5240TIP3   OH215725   3.733   1.333   4.749 -0.2258 -0.0787  0.5241
 5240TIP3    H115726   3.643   1.305   4.737 -0.8867  1.1747  2.1492
 5240TIP3    H215727   3.760   1.294   4.832  2.0561 -3.4614 -1.5675
 5241TIP3   OH215728   1.017   1.563   3.854  0.0808  0.3314  0.1800
 5241TIP3    H115729   1.060   1.594   3.934 -2.8422  2.3685  1.1210
 5241TIP3    H215730   1.048   1.623   3.786 -0.5093  1.2020  0.6567
 5242TIP3   OH215731   5.432   1.062   3.357  0.5138 -0.0952  0.3136
 5242TIP3    H115732   5.481   1.027   3.283  2.8169 -0.4276  1.8751
 5242TIP3    H215733   5.346   1.022   3.350  2.1619 -4.1546  0.5261
 5243TIP3   OH215734   3.872   4.672   1.149 -0.0990 -0.0477 -0.5208
 5243TIP3    H115735   3.817   4.747   1.175 -2.7934 -0.9752 -3.0340
 5243TIP3    H215736   3.897   4.690   1.059  0.2653 -1.6034 -0.7641
 5244TIP3   OH215737   4.429   5.724   3.642  0.2841 -0.2797 -0.1029
 5244TIP3    H115738   4.418   5.630   3.659 -1.8096 -0.0479  0.1653
 5244TIP3    H215739   4.366   5.766   3.700  3.2684  1.5714  2.0398
 5245TIP3   OH215740   2.001   1.963   2.780  0.2874  0.4787 -0.3661
 5245TIP3    H115741   2.074   1.929   2.832 -0.1563  0.2715  0.1236
 5245TIP3    H215742   1.935   1.986   2.844 -2.1745 -4.0172 -0.8642
 5246TIP3   OH215743   4.624   3.964   1.120  0.1103 -0.0285 -0.2173
 5246TIP3    H115744   4.621   3.883   1.069  0.3952 -0.1104 -0.1043
 5246TIP3    H215745   4.563   3.949   1.192 -2.1339  0.9610 -1.7960
 5247TIP3   OH215746   5.093   2.740   3.311  0.1823  0.1120 -0.2521
 5247TIP3    H115747   5.181   2.714   3.284 -0.2154 -2.0952  0.3885
 5247TIP3    H215748   5.039   2.730   3.233 -0.1591 -2.1912  0.1986
 5248TIP3   OH215749   6.179   1.258   1.687  0.8071 -0.3062 -0.5158
 5248TIP3    H115750   6.268   1.274   1.718 -0.2550  1.9417  1.6933
 5248TIP3    H215751   6.166   1.322   1.617  0.3405  0.7093  0.4736
 5249TIP3   OH215752   4.985   4.311   5.095 -0.6156 -0.1613  0.2165
 5249TIP3    H115753   4.989   4.387   5.037 -0.5938 -0.6465 -0.4313
 5249TIP3    H215754   4.892   4.297   5.109 -0.8668 -2.1902 -2.6368
 5250TIP3   OH215755   1.509   5.921   2.913 -0.2180 -0.3736  0.5194
 5250TIP3    H115756   1.500   5.840   2.863  1.0253 -0.9180  1.1388
 5250TIP3    H215757   1.504   5.894   3.005  0.3486  0.2274  0.7372
 5251TIP3   OH215758   1.564   0.396   2.129  0.0141 -0.1778 -0.2471
 5251TIP3    H115759   1.510   0.426   2.201  0.2679 -3.0109  1.2657
 5251TIP3    H215760   1.503   0.381   2.057 -0.4404  1.3031 -0.1980
 5252TIP3   OH215761   6.119   4.462   0.760 -0.2006 -0.1709  0.2757
 5252TIP3    H115762   6.057   4.399   0.722 -3.0217  1.3177  2.0854
 5252TIP3    H215763   6.128   4.434   0.851  0.3792  0.6950  0.4960
 5253TIP3   OH215764   1.043   4.269   3.961 -0.4920 -0.4154  0.7261
 5253TIP3    H115765   0.948   4.261   3.952 -0.2952 -1.5083 -0.8957
 5253TIP3    H215766   1.072   4.182   3.989  0.0005  0.0914  1.8729
 5254TIP3   OH215767   4.082   2.985   0.764  0.8211 -0.1211  0.5797
 5254TIP3    H115768   4.092   3.074   0.798  0.1499  0.6070 -1.0238
 5254TIP3    H215769   4.017   2.945   0.821 -0.1637  1.0095  0.3044
 5255TIP3   OH215770   1.248   1.577   3.194  0.2125 -0.2267  0.1626
 5255TIP3    H115771   1.214   1.543   3.277 -0.1373  2.0618  1.0348
 5255TIP3    H215772   1.169   1.591   3.141  0.3322 -0.5396 -0.0987
 5256TIP3   OH215773   0.728   2.014   2.431  0.3209  0.0387  0.8117
 5256TIP3    H115774   0.692   1.936   2.388 -0.5968  0.9886 -0.2085
 5256TIP3    H215775   0.821   1.996   2.439  0.4715 -0.3388 -1.2784
 5257TIP3   OH215776   1.703   0.193   3.002  0.4537  0.0393  0.1144
 5257TIP3    H115777   1.614   0.187   3.036  0.9998 -1.3237  1.3791
 5257TIP3    H215778   1.699   0.152   2.916 -0.0257 -0.6301  0.4467
 5258TIP3   OH215779   1.465   1.221   1.792 -0.1602  0.2410  0.0037
 5258TIP3    H115780   1.428   1.250   1.875  0.5506  1.0594  0.0545
 5258TIP3    H215781   1.553   1.189   1.814 -0.2133 -0.1553 -0.3393
 5259TIP3   OH215782   0.807   2.640   1.473  0.1861 -0.2086  0.7056
 5259TIP3    H115783   0.782   2.731   1.454 -0.5987 -0.0330  2.3769
 5259TIP3    H215784   0.733   2.588   1.442  1.5903 -0.5725 -2.3690
 5260TIP3   OH215785   3.395   1.365   4.440  0.3925  0.1963  0.4734
 5260TIP3    H115786   3.320   1.331   4.391  1.1626  0.5948 -1.0415
 5260TIP3    H215787   3.368   1.453   4.466  0.1393  0.1442  0.3974
 5261TIP3   OH215788   4.357   0.170   4.631 -0.6552  0.1332  0.0427
 5261TIP3    H115789   4.325   0.105   4.694 -0.0645  0.8005  1.0718
 5261TIP3    H215790   4.369   0.122   4.550  0.9288 -1.3535  1.0784
 5262TIP3   OH215791   1.907   2.507   4.285  0.0747  0.1448 -0.2615
 5262TIP3    H115792   1.871   2.420   4.267  0.0207 -0.0516  0.7679
 5262TIP3    H215793   1.945   2.500   4.372 -0.2446  1.2605 -0.0211
 5263TIP3   OH215794   0.228   0.094   2.070 -0.2132 -0.2994 -0.2309
 5263TIP3    H115795   0.167   0.036   2.024 -0.2686 -0.7256  0.3645
 5263TIP3    H215796   0.274   0.141   2.001  0.5831 -1.8157 -0.7832
 5264TIP3   OH215797   5.797   3.675   1.248  0.0881  0.0703 -0.0343
 5264TIP3    H115798   5.766   3.673   1.338 -3.0241  1.4749 -0.9245
 5264TIP3    H215799   5.735   3.733   1.203  0.4063 -1.9864 -3.4697
 5265TIP3   OH215800   1.978   3.909   3.404 -0.6175 -0.0352  1.1400
 5265TIP3    H115801   2.017   3.934   3.487  0.2486 -0.1692  0.7756
 5265TIP3    H215802   1.962   3.815   3.412 -0.9319  0.0291  1.3069
 5266TIP3   OH215803   4.719   4.902   1.516  0.0746 -0.2150 -0.2129
 5266TIP3    H115804   4.666   4.845   1.572  3.2647 -2.3333  0.9035
 5266TIP3    H215805   4.738   4.979   1.571  1.0928 -1.1185  0.7407
 5267TIP3   OH215806   0.111   1.656   1.753  0.0889  0.4109 -0.5434
 5267TIP3    H115807   0.170   1.586   1.725 -0.2388  0.2998 -0.9523
 5267TIP3    H215808   0.124   1.661   1.848 -0.8952 -1.1416 -0.2987
 5268TIP3   OH215809   2.466   2.992   0.965  0.2434 -0.4359  0.1069
 5268TIP3    H115810   2.405   2.967   1.035  0.1112 -0.4820 -0.0252
 5268TIP3    H215811   2.548   2.948   0.988  0.4508  0.2339  0.6965
 5269TIP3   OH215812   2.511   0.883   0.846 -0.0952  0.1527 -0.0595
 5269TIP3    H115813   2.601   0.874   0.816  0.5193  1.2714  1.3457
 5269TIP3    H215814   2.510   0.847   0.934 -1.1502 -0.3110 -0.2396
 5270TIP3   OH215815   0.092   1.063   1.949 -0.2271  0.0870  0.3989
 5270TIP3    H115816   0.090   1.104   2.035  3.0065  0.9453  0.1960
 5270TIP3    H215817   0.069   1.133   1.888 -0.7007 -0.0198  0.4585
 5271TIP3   OH215818   3.477   5.390   3.478  0.1800 -0.2557  0.2929
 5271TIP3    H115819   3.449   5.305   3.512  1.2478 -1.0548 -0.7381
 5271TIP3    H215820   3.396   5.433   3.450 -0.3272 -1.1878  0.2924
 5272TIP3   OH215821   1.852   5.970   0.400 -0.0234 -0.2897  0.2190
 5272TIP3    H115822   1.911   6.022   0.454  0.7830 -1.1215  0.1470
 5272TIP3    H215823   1.801   5.919   0.463 -0.0494 -0.2323  0.2447
 5273TIP3   OH215824   1.031   0.718   2.920  0.0980 -0.3065 -0.0636
 5273TIP3    H115825   0.957   0.777   2.936  0.2422 -0.6213  2.0009
 5273TIP3    H215826   0.990   0.634   2.899 -0.1383 -0.3416  0.5159
 5274TIP3   OH215827   1.673   5.811   3.627 -0.2214  0.4589  0.2388
 5274TIP3    H115828   1.676   5.882   3.563  0.5910 -0.5544 -0.9035
 5274TIP3    H215829   1.764   5.800   3.655 -0.6095  1.0919  1.8361
 5275TIP3   OH215830   0.568   0.844   4.163  0.3201 -0.0602 -0.4836
 5275TIP3    H115831   0.556   0.938   4.149 -2.5494 -0.4128 -1.0344
 5275TIP3    H215832   0.628   0.816   4.094 -1.7788  0.8050 -2.7854
 5276TIP3   OH215833   4.097   2.321   2.936 -0.3068  0.2985 -0.0370
 5276TIP3    H115834   4.101   2.309   3.031 -0.5809 -0.1392 -0.0752
 5276TIP3    H215835   4.117   2.414   2.923 -0.8728  0.5099  0.4984
 5277TIP3   OH215836   0.481   4.487   2.622 -0.6090  0.2489  0.4235
 5277TIP3    H115837   0.469   4.404   2.667  0.4409  0.3141  0.8630
 5277TIP3    H215838   0.456   4.469   2.531 -1.7253 -0.1605  0.7960
 5278TIP3   OH215839   1.395   4.489   2.261  0.0786  0.2008 -0.2126
 5278TIP3    H115840   1.486   4.460   2.252  0.9997  2.7569  0.1041
 5278TIP3    H215841   1.344   4.419   2.221  2.2879 -0.4981 -2.0259
 5279TIP3   OH215842   3.565   5.840   2.339  0.7046  0.3499 -0.0584
 5279TIP3    H115843   3.624   5.787   2.286  1.6740  4.2072 -3.2720
 5279TIP3    H215844   3.478   5.805   2.321  1.3510 -0.6643 -1.3487
 5280TIP3   OH215845   4.435   0.760   3.128 -0.3808 -0.2679 -0.3902
 5280TIP3    H115846   4.467   0.822   3.193 -0.5023 -0.7702  0.1462
 5280TIP3    H215847   4.489   0.682   3.139  1.7462  0.6722 -2.9607
 5281TIP3   OH215848   1.004   4.758   4.736 -0.3179 -0.1644  0.2019
 5281TIP3    H115849   1.030   4.842   4.776 -0.7578 -0.3922  0.9973
 5281TIP3    H215850   0.913   4.771   4.711 -0.4155 -0.4319  0.4118
 5282TIP3   OH215851   4.680   1.788   0.203 -0.2963 -0.6136 -0.4591
 5282TIP3    H115852   4.593   1.780   0.242 -0.0002  0.6810  0.5372
 5282TIP3    H215853   4.740   1.756   0.270  0.0865 -0.3267 -0.6593
 5283TIP3   OH215854   4.938   2.622   1.790 -0.5122  0.2852 -0.0411
 5283TIP3    H115855   5.003   2.575   1.738 -1.2724 -1.1707  0.2987
 5283TIP3    H215856   4.984   2.647   1.870 -0.2253 -0.2564 -0.0390
 5284TIP3   OH215857   2.191   5.501   4.485  0.0878 -0.2518 -0.0338
 5284TIP3    H115858   2.242   5.556   4.426  2.2755 -2.5516 -0.4575
 5284TIP3    H215859   2.138   5.563   4.535  3.3133  2.3989  0.4745
 5285TIP3   OH215860   5.593   1.897   3.276  0.3896 -0.3748 -0.3564
 5285TIP3    H115861   5.604   1.938   3.191 -0.4732  0.9031  0.1211
 5285TIP3    H215862   5.515   1.938   3.313 -0.7524 -2.7033  0.0312
 5286TIP3   OH215863   2.144   0.556   3.387  0.1568  0.1236 -0.1990
 5286TIP3    H115864   2.208   0.503   3.339 -0.7194 -0.7863 -0.3898
 5286TIP3    H215865   2.089   0.595   3.319  0.1792  0.4798 -0.0132
 5287TIP3   OH215866   1.487   5.751   4.802  0.1662  0.0072  0.4992
 5287TIP3    H115867   1.419   5.683   4.796  0.5202 -0.4651  1.5483
 5287TIP3    H215868   1.570   5.702   4.803  0.5234  0.5668 -0.6335
 5288TIP3   OH215869   2.489   1.863   2.889 -0.3529  0.3177 -0.0875
 5288TIP3    H115870   2.399   1.831   2.890 -0.1833 -0.1909  1.4170
 5288TIP3    H215871   2.536   1.801   2.833 -0.8997  0.5050 -0.7606
 5289TIP3   OH215872   4.134   0.880   1.258  0.1012  0.0684 -0.2069
 5289TIP3    H115873   4.215   0.853   1.214  1.0610 -0.1700  1.5956
 5289TIP3    H215874   4.074   0.807   1.246  0.6088 -0.3044 -0.4921
 5290TIP3   OH215875   5.975   0.743   2.796  0.9426 -0.5721  0.7039
 5290TIP3    H115876   5.968   0.821   2.851 -0.0732 -0.3122  0.2223
 5290TIP3    H215877   5.953   0.774   2.708 -0.2315 -1.5496  0.6378
 5291TIP3   OH215878   2.568   1.286   0.519 -0.4267 -0.0741  0.6207
 5291TIP3    H115879   2.625   1.359   0.544 -0.8955  0.6005 -0.2119
 5291TIP3    H215880   2.611   1.209   0.554  0.5621  0.5092  0.7413
 5292TIP3   OH215881   0.127   1.973   0.339  0.7358 -0.0348  0.1455
 5292TIP3    H115882   0.171   1.953   0.256  2.2494  0.9850  0.6603
 5292TIP3    H215883   0.096   2.063   0.328 -0.2053 -0.3416  0.2299
 5293TIP3   OH215884   5.754   4.519   3.811  0.3337  0.4375 -0.3578
 5293TIP3    H115885   5.764   4.540   3.904  1.0697  0.3916 -0.4170
 5293TIP3    H215886   5.830   4.559   3.769 -0.9357  2.0703 -1.2279
 5294TIP3   OH215887   5.354   2.429   2.905 -1.1441 -0.0825  0.8041
 5294TIP3    H115888   5.314   2.386   2.829  0.7993 -1.6597  0.5764
 5294TIP3    H215889   5.348   2.523   2.886  0.2773 -0.4340 -1.9151
 5295TIP3   OH215890   6.269   0.931   4.644  0.1859 -0.0844 -0.1151
 5295TIP3    H115891   6.356   0.968   4.658  0.2401  0.2982 -1.3453
 5295TIP3    H215892   6.228   0.932   4.730  0.2464  2.6885 -0.0372
 5296TIP3   OH215893   3.834   0.443   1.761  0.2590 -0.2830 -0.6256
 5296TIP3    H115894   3.913   0.425   1.812  0.5119 -0.7542 -1.1621
 5296TIP3    H215895   3.866   0.485   1.681 -0.1830  0.9760 -0.1668
 5297TIP3   OH215896   0.546   4.723   2.742  0.2205  0.1696  0.5956
 5297TIP3    H115897   0.605   4.706   2.815 -2.3727 -1.0341  2.5317
 5297TIP3    H215898   0.547   4.642   2.691 -1.7712 -0.9307  2.1936
 5298TIP3   OH215899   6.326   2.816   1.287  0.3527 -0.4849  0.6158
 5298TIP3    H115900   6.303   2.895   1.238  0.0870 -1.0035 -0.1101
 5298TIP3    H215901   6.247   2.795   1.336  0.5763 -0.0419  1.1882
 5299TIP3   OH215902   1.870   5.237   1.901 -0.7075  0.2417  0.2596
 5299TIP3    H115903   1.810   5.179   1.853 -0.5424 -1.3108  1.8267
 5299TIP3    H215904   1.813   5.302   1.942 -1.2144 -0.5259  0.7877
 5300TIP3   OH215905   2.511   2.334   4.335  0.0531 -0.3048 -1.1271
 5300TIP3    H115906   2.451   2.260   4.330 -0.2606 -0.2727  1.1636
 5300TIP3    H215907   2.474   2.399   4.275 -2.8155  0.0896  0.8626
 5301TIP3   OH215908   1.744   4.296   0.563 -0.3828 -0.7788 -0.1286
 5301TIP3    H115909   1.762   4.390   0.554 -0.2150 -0.7495  0.4514
 5301TIP3    H215910   1.731   4.284   0.657 -0.8562 -1.2582 -0.2565
 5302TIP3   OH215911   1.189   3.886   0.924 -0.4157 -0.0409 -0.1762
 5302TIP3    H115912   1.246   3.918   0.994  0.7900 -0.4803 -0.9155
 5302TIP3    H215913   1.156   3.965   0.882 -0.5973  0.2257  0.4562
 5303TIP3   OH215914   0.155   2.385   1.000 -0.6063 -0.5521  0.2793
 5303TIP3    H115915   0.092   2.344   1.060  0.5860 -1.4382  0.9803
 5303TIP3    H215916   0.206   2.311   0.966 -1.8136 -0.1955 -2.5882
 5304TIP3   OH215917   5.151   0.127   3.444 -0.1758  0.6754 -0.1826
 5304TIP3    H115918   5.080   0.068   3.417 -1.2263  1.1014  1.4833
 5304TIP3    H215919   5.108   0.193   3.497  1.4389  1.1591  0.5866
 5305TIP3   OH215920   1.507   1.428   4.013 -0.0999  0.5771 -0.3228
 5305TIP3    H115921   1.440   1.360   4.008  1.1359 -0.6545 -0.3925
 5305TIP3    H215922   1.469   1.494   4.071 -0.9605 -0.5639  0.4510
 5306TIP3   OH215923   5.378   4.563   2.704  0.4130  0.7134 -0.1483
 5306TIP3    H115924   5.298   4.569   2.652  0.7164  2.1574 -0.4781
 5306TIP3    H215925   5.347   4.564   2.795  0.0636  1.4817 -0.2706
 5307TIP3   OH215926   0.189   1.633   4.971 -0.7420 -0.2005 -0.0358
 5307TIP3    H115927   0.176   1.714   5.020  0.3491 -0.0957  0.1174
 5307TIP3    H215928   0.210   1.662   4.882  1.8092 -0.1708  0.4913
 5308TIP3   OH215929   1.321   3.087   2.092  0.1389  0.3526 -0.0099
 5308TIP3    H115930   1.405   3.127   2.071  1.4960 -2.0867  0.3292
 5308TIP3    H215931   1.255   3.148   2.059  2.0310  2.1633 -0.6206
 5309TIP3   OH215932   4.459   2.538   1.898 -0.4760 -0.2158 -0.1048
 5309TIP3    H115933   4.367   2.524   1.874 -0.6920  1.2745 -0.2135
 5309TIP3    H215934   4.456   2.595   1.974  0.3680  0.6832 -0.7199
 5310TIP3   OH215935   6.152   2.142   2.029  0.1406 -0.1843  0.5680
 5310TIP3    H115936   6.178   2.058   1.993  0.0241 -0.8172  1.8874
 5310TIP3    H215937   6.217   2.159   2.098 -0.2865  0.4202  0.8304
 5311TIP3   OH215938   1.179   1.041   2.493 -0.0473  0.2858 -0.7366
 5311TIP3    H115939   1.197   1.134   2.503  1.3003 -0.0296  0.0352
 5311TIP3    H215940   1.127   1.018   2.570 -1.3203  0.5838 -1.4657
 5312TIP3   OH215941   4.082   0.644   5.157  0.0032 -0.0985  0.3201
 5312TIP3    H115942   4.090   0.715   5.220  0.5207 -1.1170  1.4351
 5312TIP3    H215943   4.119   0.568   5.201 -2.1213 -1.4914 -0.1642
 5313TIP3   OH215944   0.168   2.077   3.226  0.2057 -0.0143  0.2331
 5313TIP3    H115945   0.141   1.988   3.249 -0.5206  0.1527  0.0405
 5313TIP3    H215946   0.112   2.101   3.152 -1.6124  1.6338  2.0270
 5314TIP3   OH215947   2.999   1.482   0.401  0.6782  0.3744  0.3280
 5314TIP3    H115948   2.977   1.390   0.391  0.9233  0.4264 -0.7897
 5314TIP3    H215949   3.015   1.513   0.312 -1.3068  1.9819  0.4462
 5315TIP3   OH215950   6.103   4.656   4.125  0.1127  0.3036 -0.3843
 5315TIP3    H115951   6.177   4.717   4.125 -0.0591  0.5138 -0.8327
 5315TIP3    H215952   6.127   4.589   4.061  0.9754 -0.9371  1.1773
 5316TIP3   OH215953   3.969   1.931   2.364 -0.2418 -0.0846  0.1479
 5316TIP3    H115954   3.892   1.986   2.372  1.0492  2.2003 -1.6996
 5316TIP3    H215955   4.035   1.975   2.418  0.5473 -0.3256 -0.5987
 5317TIP3   OH215956   0.347   4.705   2.425 -0.0810 -0.2161  0.0608
 5317TIP3    H115957   0.310   4.619   2.405 -0.1665  0.0805 -1.0884
 5317TIP3    H215958   0.305   4.730   2.508 -0.2858 -1.1362  0.2471
 5318TIP3   OH215959   2.156   1.004   0.346 -0.2338  0.0475 -0.0467
 5318TIP3    H115960   2.183   0.921   0.386 -1.3948  0.8284  2.6006
 5318TIP3    H215961   2.179   1.070   0.411 -1.6065  1.5202 -0.9782
 5319TIP3   OH215962   1.807   2.319   2.408  0.4281 -0.1786  0.2718
 5319TIP3    H115963   1.755   2.339   2.486  0.7763 -0.5138  0.5963
 5319TIP3    H215964   1.743   2.306   2.338  0.0738 -0.5883  0.6695
 5320TIP3   OH215965   0.428   3.418   0.117 -0.2680 -0.3932 -0.4266
 5320TIP3    H115966   0.502   3.381   0.069 -0.3415  0.4395 -1.2373
 5320TIP3    H215967   0.402   3.494   0.064 -1.7144 -0.6792 -0.1730
 5321TIP3   OH215968   3.205   3.439   3.939  0.0540  0.1958 -0.2307
 5321TIP3    H115969   3.150   3.361   3.932  1.5639 -1.0347  0.8138
 5321TIP3    H215970   3.255   3.440   3.857 -0.0682  0.1476 -0.3069
 5322TIP3   OH215971   4.645   5.848   2.197 -0.4036 -0.1143 -0.4999
 5322TIP3    H115972   4.601   5.924   2.158  0.2127 -0.0486 -1.0897
 5322TIP3    H215973   4.646   5.782   2.126 -1.5692 -0.9452  0.2222
 5323TIP3   OH215974   2.417   4.899   2.608 -0.0170 -0.2001  0.8117
 5323TIP3    H115975   2.492   4.845   2.586  0.6119 -0.0318  2.3748
 5323TIP3    H215976   2.346   4.837   2.625  0.2911 -0.4716  1.1300
 5324TIP3   OH215977   0.229   0.886   4.296  0.5590  0.7073  0.1281
 5324TIP3    H115978   0.157   0.846   4.346 -0.3763 -0.7164 -2.2131
 5324TIP3    H215979   0.261   0.957   4.353 -1.8696  0.6153  1.7589
 5325TIP3   OH215980   1.515   4.160   2.324 -0.0847  0.2163  0.1062
 5325TIP3    H115981   1.427   4.171   2.290  0.1551  0.6664 -0.3675
 5325TIP3    H215982   1.567   4.226   2.280  0.3825  0.3218  0.7955
 5326TIP3   OH215983   4.955   1.129   4.517  0.1332 -0.9050  0.1982
 5326TIP3    H115984   4.926   1.071   4.588 -2.2849  0.6277  0.5786
 5326TIP3    H215985   4.930   1.217   4.546  0.2283 -0.0813 -2.0178
 5327TIP3   OH215986   2.132   5.145   0.774  0.7871  0.1603 -0.1925
 5327TIP3    H115987   2.038   5.139   0.763  0.5835  2.1843  0.1347
 5327TIP3    H215988   2.169   5.119   0.689  0.0787 -2.5628  0.2451
 5328TIP3   OH215989   1.134   1.879   1.131  0.3495  0.5508  0.4420
 5328TIP3    H115990   1.148   1.788   1.159  0.8684  0.6808  0.6047
 5328TIP3    H215991   1.148   1.931   1.210  0.1756  0.7851  0.3187
 5329TIP3   OH215992   4.270   1.315   3.809 -0.3638 -0.0474  0.6921
 5329TIP3    H115993   4.214   1.359   3.873 -0.9506 -0.6183  0.5818
 5329TIP3    H215994   4.350   1.368   3.806 -0.9858  0.9136  0.6817
 5330TIP3   OH215995   0.955   2.682   4.512  0.5826 -0.5272  0.2610
 5330TIP3    H115996   1.018   2.656   4.445  0.1158 -0.0613 -0.3667
 5330TIP3    H215997   0.888   2.731   4.465  1.6422  2.2586  1.4645
 5331TIP3   OH215998   4.265   1.187   0.454 -0.2640 -0.0777 -0.1506
 5331TIP3    H115999   4.195   1.141   0.409 -0.5608 -0.3031  0.5263
 5331TIP3    H216000   4.291   1.128   0.525 -1.6237  1.3554  1.6279
 5332TIP3   OH216001   4.189   0.661   3.006  0.4799  0.0099  0.6710
 5332TIP3    H116002   4.255   0.644   3.074 -0.1115 -0.4127  1.1453
 5332TIP3    H216003   4.225   0.734   2.956  1.1211  0.0532  1.1812
 5333TIP3   OH216004   1.732   5.602   4.786  0.4401 -0.2143 -0.1394
 5333TIP3    H116005   1.758   5.513   4.811  0.8697 -0.2658 -0.7491
 5333TIP3    H216006   1.791   5.658   4.837  0.2349 -0.2758  0.1717
 5334TIP3   OH216007   1.989   5.901   0.181 -0.1076  0.0253  0.4196
 5334TIP3    H116008   1.906   5.904   0.229  0.4632 -0.4965  1.4852
 5334TIP3    H216009   1.970   5.851   0.102 -0.6096 -0.8700  1.0920
 5335TIP3   OH216010   2.298   4.159   0.840  0.3880 -0.0206 -0.3963
 5335TIP3    H116011   2.218   4.199   0.874  0.5807  0.3073 -0.3242
 5335TIP3    H216012   2.274   4.124   0.754  0.1489  0.0129 -0.3411
 5336TIP3   OH216013   3.787   1.631   0.830 -0.7321 -0.0452 -0.3225
 5336TIP3    H116014   3.721   1.605   0.894 -1.5407  0.7735 -0.7800
 5336TIP3    H216015   3.794   1.726   0.841  0.8785 -0.2021  0.1653
 5337TIP3   OH216016   4.212   0.861   4.987  0.5090  0.1770 -0.2743
 5337TIP3    H116017   4.251   0.779   4.955 -1.0105 -0.8393  0.3397
 5337TIP3    H216018   4.243   0.868   5.078 -1.0587 -0.8963  0.3774
 5338TIP3   OH216019   2.521   2.146   0.474 -0.0695  0.2143  0.1346
 5338TIP3    H116020   2.602   2.141   0.423  1.0621 -1.2058  1.9423
 5338TIP3    H216021   2.486   2.233   0.456  2.3116  1.1941 -0.0267
 5339TIP3   OH216022   5.032   5.865   0.852 -0.6680  0.1381 -0.1193
 5339TIP3    H116023   4.960   5.842   0.793 -0.9977 -1.6075  0.8840
 5339TIP3    H216024   5.108   5.820   0.816 -0.9415 -1.2197  0.9020
 5340TIP3   OH216025   6.091   4.976   2.652 -0.5927 -0.1116  0.1474
 5340TIP3    H116026   6.158   5.034   2.688  0.3037 -0.3836 -1.0389
 5340TIP3    H216027   6.113   4.889   2.685  0.1161 -0.3295 -0.8832
 5341TIP3   OH216028   1.283   3.288   0.730  0.0378  0.2451  0.1546
 5341TIP3    H116029   1.204   3.340   0.744 -0.7030 -1.1322  1.4652
 5341TIP3    H216030   1.253   3.197   0.737  1.5097 -0.3405 -0.6716
 5342TIP3   OH216031   4.475   4.592   4.015 -0.1786 -0.1323 -0.5900
 5342TIP3    H116032   4.390   4.581   3.974 -0.0266  1.9248 -1.5774
 5342TIP3    H216033   4.538   4.589   3.943  0.3194  1.1126 -0.2309
 5343TIP3   OH216034   2.410   0.282   0.815 -0.4660 -0.4045 -0.0556
 5343TIP3    H116035   2.440   0.211   0.872 -1.4577  0.1758  1.2520
 5343TIP3    H216036   2.448   0.262   0.730  2.1840 -0.5898  1.0816
 5344TIP3   OH216037   5.139   0.522   1.491 -0.1426 -0.0338  0.5964
 5344TIP3    H116038   5.234   0.523   1.475 -0.1604  1.4117  0.4417
 5344TIP3    H216039   5.106   0.451   1.436  0.6356  0.5874 -0.7239
 5345TIP3   OH216040   5.345   5.628   4.737  0.2653 -0.1480 -0.5767
 5345TIP3    H116041   5.308   5.662   4.819 -0.3062 -0.7956 -0.5608
 5345TIP3    H216042   5.418   5.573   4.765  0.3467 -0.0177 -0.5306
 5346TIP3   OH216043   4.568   3.759   2.590  0.4014 -0.0201  0.2724
 5346TIP3    H116044   4.483   3.785   2.626 -0.2700  1.4788 -2.1184
 5346TIP3    H216045   4.622   3.838   2.596  1.0504 -0.4577  0.2216
 5347TIP3   OH216046   2.123   2.235   1.873  0.0946  0.2835 -0.2537
 5347TIP3    H116047   2.127   2.139   1.864 -0.2939  0.2553 -0.1587
 5347TIP3    H216048   2.176   2.268   1.801 -0.7440  0.0100 -1.0242
 5348TIP3   OH216049   0.849   1.361   2.750 -0.2799  0.2410 -0.0486
 5348TIP3    H116050   0.780   1.300   2.776 -0.1551  0.4878  0.8877
 5348TIP3    H216051   0.930   1.314   2.768 -0.1660  1.0171  1.5647
 5349TIP3   OH216052   2.045   1.785   4.287  0.5335  0.0830  0.1292
 5349TIP3    H116053   2.049   1.719   4.217  0.7148  0.6549 -0.4040
 5349TIP3    H216054   2.010   1.863   4.244 -0.7215  0.0343  0.9926
 5350TIP3   OH216055   4.498   5.000   4.264  0.4493 -0.4183 -0.0670
 5350TIP3    H116056   4.537   4.944   4.197 -1.8619 -2.6978  0.3056
 5350TIP3    H216057   4.431   5.050   4.217  0.9097  0.2843  0.0204
 5351TIP3   OH216058   1.305   4.200   3.318  0.4558  0.0861 -0.0965
 5351TIP3    H116059   1.263   4.163   3.241  0.9596  2.0906 -1.4263
 5351TIP3    H216060   1.397   4.175   3.309  0.4264 -0.1120  0.1410
 5352TIP3   OH216061   0.705   1.564   2.991  0.1941  0.1353 -0.1967
 5352TIP3    H116062   0.788   1.533   2.953 -1.0194 -2.2652 -1.1247
 5352TIP3    H216063   0.671   1.625   2.926  0.5630  0.0025 -0.5204
 5353TIP3   OH216064   3.171   5.154   2.532  0.1248  0.2059  0.2840
 5353TIP3    H116065   3.121   5.222   2.578 -0.6010  0.1498 -0.4028
 5353TIP3    H216066   3.104   5.101   2.488  0.8625  1.5605 -2.6621
 5354TIP3   OH216067   2.704   5.291   4.159 -0.0290 -0.1432 -0.2141
 5354TIP3    H116068   2.768   5.336   4.104  1.2135 -0.3325  1.0316
 5354TIP3    H216069   2.756   5.247   4.226 -1.4487 -0.5479  0.6675
 5355TIP3   OH216070   2.243   0.672   3.622 -0.0151 -0.4498 -0.2898
 5355TIP3    H116071   2.278   0.757   3.595  1.6443 -1.6312 -2.1259
 5355TIP3    H216072   2.224   0.626   3.539 -0.2690 -2.0942  0.6344
 5356TIP3   OH216073   0.744   4.742   3.725 -0.2721 -0.0266 -0.3701
 5356TIP3    H116074   0.759   4.754   3.819  0.3730 -1.4735 -0.2591
 5356TIP3    H216075   0.826   4.705   3.692 -0.5175  0.3944 -1.5022
 5357TIP3   OH216076   4.245   5.423   3.118 -0.4267  0.0727 -0.6854
 5357TIP3    H116077   4.230   5.497   3.059  0.1316  0.8018  0.0519
 5357TIP3    H216078   4.282   5.463   3.197 -0.8642 -0.9137  0.0381
 5358TIP3   OH216079   2.427   5.124   1.872 -0.1875  0.5040 -0.2261
 5358TIP3    H116080   2.334   5.140   1.860 -0.5411 -1.4465 -0.4022
 5358TIP3    H216081   2.457   5.198   1.925 -2.0293  0.7047  0.6275
 5359TIP3   OH216082   3.840   5.757   1.931 -0.1312  0.4759 -0.2640
 5359TIP3    H116083   3.809   5.738   1.843  1.0053  0.9112 -0.7704
 5359TIP3    H216084   3.767   5.804   1.973 -0.2240  1.3646 -1.3779
 5360TIP3   OH216085   3.352   3.147   2.330  0.3986 -0.1771 -0.6480
 5360TIP3    H116086   3.286   3.081   2.310 -0.6117  0.5065  0.3148
 5360TIP3    H216087   3.308   3.231   2.315  0.8437  0.3005  0.5365
 5361TIP3   OH216088   4.554   4.738   3.569 -0.7395  0.4003  0.0233
 5361TIP3    H116089   4.488   4.674   3.543  1.1215 -1.8282  0.4367
 5361TIP3    H216090   4.544   4.746   3.664  0.9455 -1.7618  0.4787
 5362TIP3   OH216091   3.362   1.144   2.612 -0.3490 -0.3586  0.2389
 5362TIP3    H116092   3.450   1.123   2.642  0.0121  0.3498 -0.3070
 5362TIP3    H216093   3.365   1.132   2.517 -1.1668 -1.4637  0.3366
 5363TIP3   OH216094   1.898   4.766   2.093  0.1249  0.3472  0.1938
 5363TIP3    H116095   1.947   4.848   2.086  1.4574 -0.4036  0.3949
 5363TIP3    H216096   1.867   4.749   2.004  1.3505  0.1800 -0.2200
 5364TIP3   OH216097   3.252   0.507   3.698  0.7285 -0.0442  0.2882
 5364TIP3    H116098   3.262   0.560   3.778  1.2022 -1.4925  1.2223
 5364TIP3    H216099   3.267   0.569   3.627 -2.4170  1.9570  1.1565
 5365TIP3   OH216100   2.102   5.859   1.322 -0.4289  0.0482 -0.4454
 5365TIP3    H116101   2.020   5.821   1.291 -0.2581 -0.0273 -0.8143
 5365TIP3    H216102   2.082   5.951   1.338 -2.2891 -1.0051  5.4376
 5366TIP3   OH216103   5.283   5.250   1.789  0.9364  0.8603 -0.2809
 5366TIP3    H116104   5.255   5.165   1.822  0.4270  1.0620 -0.1741
 5366TIP3    H216105   5.378   5.243   1.778  0.8035  0.0199 -1.0128
 5367TIP3   OH216106   2.345   3.726   1.899  0.2344 -0.2175 -0.3004
 5367TIP3    H116107   2.322   3.803   1.951  2.0764  0.3836 -0.3155
 5367TIP3    H216108   2.285   3.658   1.929  0.3662  0.4826  1.6867
 5368TIP3   OH216109   1.178   1.813   3.813  0.6463 -0.3508 -0.3418
 5368TIP3    H116110   1.117   1.869   3.860 -0.9919 -0.2891 -2.4047
 5368TIP3    H216111   1.262   1.857   3.821 -0.4651  2.1094 -1.3506
 5369TIP3   OH216112   1.751   3.968   1.401  0.4660  0.0865  0.5869
 5369TIP3    H116113   1.811   3.896   1.384  0.6612  0.2866  0.4178
 5369TIP3    H216114   1.806   4.046   1.399 -0.2012  0.6329 -2.5279
 5370TIP3   OH216115   3.461   1.905   4.722  0.0508  0.6504 -0.5392
 5370TIP3    H116116   3.491   1.832   4.668 -0.1628  0.8356 -0.9091
 5370TIP3    H216117   3.494   1.983   4.678 -0.5140  0.8259 -0.6594
 5371TIP3   OH216118   0.333   2.175   3.437 -0.6131 -0.0522  0.2313
 5371TIP3    H116119   0.425   2.180   3.413 -0.9575  2.3368 -0.9543
 5371TIP3    H216120   0.291   2.132   3.362 -0.5140 -0.9417  0.6755
 5372TIP3   OH216121   4.202   1.966   3.415 -0.1760 -0.8526  0.0244
 5372TIP3    H116122   4.139   2.039   3.421  1.0002  0.0349  2.9826
 5372TIP3    H216123   4.184   1.912   3.491  1.4591 -1.5953 -0.0746
 5373TIP3   OH216124   4.904   2.680   3.883  0.1207  0.4872 -0.9344
 5373TIP3    H116125   4.964   2.748   3.854 -0.1047  1.3690  0.5559
 5373TIP3    H216126   4.954   2.629   3.947 -0.9409  1.8638  1.1067
 5374TIP3   OH216127   6.161   2.490   0.223 -0.1276  0.2111 -0.4212
 5374TIP3    H116128   6.118   2.561   0.176 -0.4416  0.2710 -0.0496
 5374TIP3    H216129   6.217   2.534   0.287 -0.2981  0.1292 -0.2119
 5375TIP3   OH216130   5.502   4.606   3.454  0.6600  0.8759  0.2849
 5375TIP3    H116131   5.439   4.584   3.522 -1.5366  0.6490 -1.6834
 5375TIP3    H216132   5.532   4.694   3.476  1.2795  0.1900  2.3754
 5376TIP3   OH216133   3.468   0.722   2.644 -0.3183 -0.5630  0.4941
 5376TIP3    H116134   3.396   0.718   2.581 -0.8177  1.2594  0.8797
 5376TIP3    H216135   3.523   0.646   2.623 -2.4126 -2.0954  0.2989
 5377TIP3   OH216136   6.337   3.807   2.634  0.6120 -0.0127  0.3817
 5377TIP3    H116137   6.280   3.752   2.580  0.3713 -0.7274  1.3405
 5377TIP3    H216138   6.357   3.882   2.578 -0.5009 -0.2084 -0.3231
 5378TIP3   OH216139   3.876   3.928   2.092 -0.1375  0.4131  0.2545
 5378TIP3    H116140   3.788   3.939   2.057  0.9225  1.2154 -2.3736
 5378TIP3    H216141   3.904   3.842   2.062 -0.3978 -0.3842  2.1235
 5379TIP3   OH216142   2.356   5.498   0.034 -0.1530 -0.0661 -0.4809
 5379TIP3    H116143   2.265   5.520   0.016  0.0209  1.0121 -0.1362
 5379TIP3    H216144   2.352   5.417   0.085 -0.9753  0.5615  0.4873
 5380TIP3   OH216145   4.472   3.469   3.706 -0.8987 -0.3019 -0.1027
 5380TIP3    H116146   4.396   3.519   3.680 -0.5537 -0.2774 -1.0971
 5380TIP3    H216147   4.547   3.525   3.685 -0.2631 -2.4111 -4.4943
 5381TIP3   OH216148   0.068   4.686   2.795  0.1864 -0.0138  0.0568
 5381TIP3    H116149   0.062   4.591   2.791  1.3176 -0.0970  0.1187
 5381TIP3    H216150   0.053   4.708   2.887 -0.5065 -0.0854 -0.0313
 5382TIP3   OH216151   5.529   0.666   2.799 -0.2727  0.3727  0.0367
 5382TIP3    H116152   5.568   0.594   2.750  1.9578  1.7370 -0.3269
 5382TIP3    H216153   5.461   0.700   2.740  2.1585  1.8021 -2.2268
 5383TIP3   OH216154   1.383   4.680   1.408 -0.6415  0.0809  0.1072
 5383TIP3    H116155   1.401   4.685   1.314  1.4259 -1.2442  0.3605
 5383TIP3    H216156   1.469   4.668   1.448 -1.3027  1.9218  2.3209
 5384TIP3   OH216157   2.124   3.407   3.685  0.5205  0.0082 -0.7285
 5384TIP3    H116158   2.147   3.337   3.746 -1.2080 -1.2022 -1.3937
 5384TIP3    H216159   2.189   3.475   3.702  1.6898 -1.3539  0.6040
 5385TIP3   OH216160   6.101   4.785   3.055 -0.2065 -0.2855  0.0822
 5385TIP3    H116161   6.008   4.790   3.033 -0.6541  0.9923  1.9563
 5385TIP3    H216162   6.104   4.736   3.137  0.6990  0.2155  0.3680
 5386TIP3   OH216163   3.369   5.157   3.606 -0.3140 -0.8686  0.5518
 5386TIP3    H116164   3.320   5.178   3.685  0.4641 -1.8082  1.3122
 5386TIP3    H216165   3.432   5.090   3.634 -1.1148 -2.4476 -1.2279
 5387TIP3   OH216166   3.066   5.760   4.978  0.1542  0.1846 -0.3069
 5387TIP3    H116167   3.067   5.674   5.020  1.1041  0.0889 -0.4973
 5387TIP3    H216168   3.096   5.743   4.889  2.0621  0.9340  0.1445
 5388TIP3   OH216169   5.186   5.043   2.809 -0.5304 -0.0284  0.3722
 5388TIP3    H116170   5.281   5.053   2.809 -0.6694  1.5513  0.5118
 5388TIP3    H216171   5.167   4.995   2.890  0.0720  0.6137  0.9103
 5389TIP3   OH216172   6.239   3.216   4.034 -0.8088 -0.1887 -0.0427
 5389TIP3    H116173   6.207   3.210   4.124 -0.4211  0.3639  0.1331
 5389TIP3    H216174   6.329   3.247   4.041 -0.9326  0.3351 -0.6411
 5390TIP3   OH216175   0.824   3.729   1.129 -0.3480  0.0628 -0.5543
 5390TIP3    H116176   0.777   3.704   1.049 -0.2617 -4.2575  0.5210
 5390TIP3    H216177   0.914   3.699   1.114  0.3516  1.6022  0.2497
 5391TIP3   OH216178   1.522   2.782   0.286 -0.0524  0.5072 -0.2443
 5391TIP3    H116179   1.557   2.695   0.306  0.3823  0.4722 -1.0956
 5391TIP3    H216180   1.450   2.794   0.348  0.0525 -0.3503  0.0556
 5392TIP3   OH216181   1.322   3.409   4.974 -0.1794 -0.2932  0.2578
 5392TIP3    H116182   1.288   3.395   4.886 -0.0367  1.8828 -0.2208
 5392TIP3    H216183   1.412   3.441   4.959 -0.4004  0.7915  1.1123
 5393TIP3   OH216184   4.108   5.737   4.928  0.4212  0.2721  0.4330
 5393TIP3    H116185   4.048   5.801   4.967 -1.4516 -1.1007 -0.0360
 5393TIP3    H216186   4.101   5.660   4.985  1.9011  0.1232  0.4478
 5394TIP3   OH216187   0.361   0.655   3.855 -0.0346  0.0584 -0.3096
 5394TIP3    H116188   0.333   0.678   3.944 -1.7275 -2.7852  0.0132
 5394TIP3    H216189   0.285   0.676   3.800 -0.5481 -1.8369 -0.4081
 5395TIP3   OH216190   4.116   3.319   3.717  0.3939 -0.7563  0.4746
 5395TIP3    H116191   4.051   3.276   3.772  0.9135 -1.8987  0.2398
 5395TIP3    H216192   4.075   3.401   3.691 -0.4793 -0.9133  1.2779
 5396TIP3   OH216193   1.886   3.946   0.646  0.0563  0.0250  0.1884
 5396TIP3    H116194   1.898   3.863   0.600  1.1616  0.1327  0.2592
 5396TIP3    H216195   1.804   3.935   0.694 -1.0752 -0.1484 -1.6604
 5397TIP3   OH216196   6.222   1.751   1.690 -0.4348 -0.1332  0.0892
 5397TIP3    H116197   6.255   1.816   1.629 -1.1256  2.1454  1.9862
 5397TIP3    H216198   6.299   1.704   1.721 -0.0218 -0.9097 -1.9878
 5398TIP3   OH216199   3.323   1.952   2.756 -0.7395  0.3594  0.5052
 5398TIP3    H116200   3.343   1.972   2.847 -1.2020  0.6988  0.5331
 5398TIP3    H216201   3.245   2.003   2.736 -0.1037  1.0393 -0.3700
 5399TIP3   OH216202   0.794   1.589   1.183 -0.2137 -0.6446  0.4195
 5399TIP3    H116203   0.886   1.597   1.160  0.2915 -0.0006  2.4973
 5399TIP3    H216204   0.750   1.574   1.099  1.8342 -1.7677 -0.5250
 5400TIP3   OH216205   5.041   3.244   3.925 -0.0455  0.3627  0.6437
 5400TIP3    H116206   4.953   3.207   3.911 -0.2152  1.0677 -0.2450
 5400TIP3    H216207   5.029   3.307   3.996 -0.4605  1.1117 -0.0758
 5401TIP3   OH216208   5.778   5.696   2.957 -0.1023 -0.2767 -0.2007
 5401TIP3    H116209   5.854   5.732   2.911  0.8962  0.0711  1.6377
 5401TIP3    H216210   5.731   5.646   2.890  1.5264 -0.1933 -1.4670
 5402TIP3   OH216211   1.204   5.035   1.023  0.0955  0.5549  0.0456
 5402TIP3    H116212   1.268   5.089   1.070  0.2174  2.1045 -1.7879
 5402TIP3    H216213   1.231   5.040   0.931 -1.1503 -0.9301 -0.4435
 5403TIP3   OH216214   3.895   0.422   1.295  0.2211 -0.1227  0.3724
 5403TIP3    H116215   3.944   0.371   1.230  1.5728 -0.1078  1.3455
 5403TIP3    H216216   3.814   0.371   1.308  0.4236 -0.7044 -0.4831
 5404TIP3   OH216217   0.699   5.024   1.039 -0.5273 -0.5943 -0.0230
 5404TIP3    H116218   0.677   5.112   1.070  0.6939 -0.7542  1.4160
 5404TIP3    H216219   0.794   5.017   1.052 -0.7538 -2.5355  1.0630
 5405TIP3   OH216220   1.047   0.110   4.989  0.5300  0.1828  0.5559
 5405TIP3    H116221   1.036   0.134   4.897  0.8312  0.7807  0.6722
 5405TIP3    H216222   0.963   0.131   5.030  0.3275 -0.2721  0.3825
 5406TIP3   OH216223   0.837   0.387   0.327 -0.2196  0.6394 -0.0107
 5406TIP3    H116224   0.854   0.480   0.316  0.0947  0.5245 -0.5408
 5406TIP3    H216225   0.759   0.383   0.382 -0.1977  1.2117  0.0682
 5407TIP3   OH216226   6.172   2.099   1.423  0.5950  0.1355 -0.1270
 5407TIP3    H116227   6.232   2.032   1.456  0.2274  0.2430  0.7938
 5407TIP3    H216228   6.138   2.062   1.341  1.7860  0.0065 -0.5793
 5408TIP3   OH216229   4.542   1.503   0.083  0.2609  0.3395  0.0989
 5408TIP3    H116230   4.485   1.442   0.128 -0.4490  1.4568  0.7672
 5408TIP3    H216231   4.629   1.487   0.120 -0.2298  0.9167  1.5536
 5409TIP3   OH216232   5.672   1.103   2.799  0.0095  0.4341  0.1693
 5409TIP3    H116233   5.606   1.038   2.823 -0.2502  0.8096  0.4838
 5409TIP3    H216234   5.622   1.175   2.761  0.2468  0.6728  0.3021
 5410TIP3   OH216235   3.829   2.685   1.443 -0.1792 -0.3620  0.0816
 5410TIP3    H116236   3.780   2.722   1.370  0.6421 -0.1154 -0.3568
 5410TIP3    H216237   3.889   2.622   1.402  0.6242  0.1241  0.4756
 5411TIP3   OH216238   3.323   2.025   0.676  0.0005 -0.2341 -0.2632
 5411TIP3    H116239   3.390   1.965   0.709 -0.5667  0.0932  1.6201
 5411TIP3    H216240   3.257   2.027   0.745 -1.9169 -0.4285 -1.9836
 5412TIP3   OH216241   0.638   2.065   4.779 -0.5324 -0.1010 -0.6258
 5412TIP3    H116242   0.712   2.087   4.836 -0.0247 -1.3314 -0.7881
 5412TIP3    H216243   0.678   2.024   4.703 -1.0923  2.4669 -2.4486
 5413TIP3   OH216244   3.333   1.295   0.451  0.0202 -0.0712 -0.5317
 5413TIP3    H116245   3.417   1.337   0.467 -0.9859  1.5122  1.0160
 5413TIP3    H216246   3.307   1.325   0.364  0.3833  0.6570 -0.4003
 5414TIP3   OH216247   0.938   5.552   3.012 -0.0952 -0.0388  0.4162
 5414TIP3    H116248   1.018   5.528   3.057  0.3662  1.4889  0.4521
 5414TIP3    H216249   0.887   5.601   3.076 -1.2456 -1.2724  0.5063
 5415TIP3   OH216250   0.520   3.693   0.558  0.4835  0.3873  0.3195
 5415TIP3    H116251   0.528   3.675   0.464  0.8674 -1.1711  0.6205
 5415TIP3    H216252   0.488   3.784   0.563 -0.1675  0.2817 -1.3219
 5416TIP3   OH216253   4.669   2.442   3.939  0.0668 -0.1520  0.2897
 5416TIP3    H116254   4.760   2.421   3.919 -0.1067  0.3519 -1.0988
 5416TIP3    H216255   4.637   2.489   3.862 -1.2627  0.0075  0.9085
 5417TIP3   OH216256   1.242   0.347   0.972  0.0954 -0.0702 -0.1670
 5417TIP3    H116257   1.182   0.418   0.995 -2.0064 -2.0980  1.1793
 5417TIP3    H216258   1.184   0.277   0.941  2.0215 -1.3633 -1.0176
 5418TIP3   OH216259   6.087   2.918   3.173  0.3381 -0.3091  0.0039
 5418TIP3    H116260   6.105   3.012   3.165  1.3068 -0.3473  1.2591
 5418TIP3    H216261   6.049   2.893   3.089  0.0225  1.2142 -0.3364
 5419TIP3   OH216262   4.198   0.011   3.998 -0.1331  0.3790  0.2291
 5419TIP3    H116263   4.234   0.037   3.914  2.1226  0.1946  1.0772
 5419TIP3    H216264   4.109  -0.019   3.978  1.0871 -1.8226 -2.4613
 5420TIP3   OH216265   5.087   4.947   3.045 -0.1472  0.2622  0.0799
 5420TIP3    H116266   5.110   4.989   3.128  0.6819  0.1064 -0.0630
 5420TIP3    H216267   5.087   4.853   3.064  0.1744  0.2186 -0.1275
 5421TIP3   OH216268   0.915   1.373   2.454 -0.2987  0.0267 -0.5695
 5421TIP3    H116269   0.898   1.294   2.505 -1.6313  0.4470 -0.3257
 5421TIP3    H216270   0.960   1.431   2.515 -1.8383  0.5049  0.1535
 5422TIP3   OH216271   4.483   4.456   2.373  0.0151  0.4571 -0.6035
 5422TIP3    H116272   4.396   4.497   2.371 -0.4042 -0.3838 -0.0634
 5422TIP3    H216273   4.478   4.393   2.445  1.8480  2.0702  1.0472
 5423TIP3   OH216274   1.690   0.448   4.755 -0.0950 -0.1243  0.2567
 5423TIP3    H116275   1.727   0.507   4.688 -0.2347 -0.7404 -0.3709
 5423TIP3    H216276   1.609   0.491   4.782  1.2519  1.5105  2.0155
 5424TIP3   OH216277   4.808   5.308   2.554 -0.0702  0.2522 -0.6221
 5424TIP3    H116278   4.714   5.300   2.536  0.0923  0.4941 -1.6545
 5424TIP3    H216279   4.850   5.288   2.471  0.9279 -2.2429  0.3933
 5425TIP3   OH216280   4.729   2.877   3.719  0.4706 -0.3228 -0.0533
 5425TIP3    H116281   4.772   2.840   3.643 -0.9233 -0.4497 -0.8109
 5425TIP3    H216282   4.753   2.970   3.718 -1.2289  0.1493 -1.9005
 5426TIP3   OH216283   2.582   5.645   3.230 -0.3284  0.2795 -0.0717
 5426TIP3    H116284   2.658   5.703   3.226  0.5106 -0.6501  1.4365
 5426TIP3    H216285   2.522   5.679   3.163  0.8796  1.7784 -0.4469
 5427TIP3   OH216286   6.088   1.087   3.069  0.0255  0.9240 -0.1796
 5427TIP3    H116287   6.002   1.102   3.031 -0.3517 -0.9944 -0.2047
 5427TIP3    H216288   6.083   1.127   3.156 -0.4304  1.9313 -0.6508
 5428TIP3   OH216289   3.095   4.191   0.613  0.4910 -0.1346 -0.7215
 5428TIP3    H116290   3.093   4.151   0.700  1.2815 -2.0412 -1.5141
 5428TIP3    H216291   3.032   4.140   0.563  0.8007  0.2657 -1.5288
 5429TIP3   OH216292   5.977   2.245   1.508 -0.0064  0.0463 -0.3284
 5429TIP3    H116293   6.008   2.331   1.534 -0.2132 -0.2308  0.8834
 5429TIP3    H216294   6.057   2.195   1.489  0.1195  0.4280 -0.8282
 5430TIP3   OH216295   2.285   4.947   3.872  0.3641  0.2034 -0.4249
 5430TIP3    H116296   2.263   4.858   3.845 -0.6210  0.6390 -1.1166
 5430TIP3    H216297   2.380   4.952   3.863  0.4432 -0.7918 -0.3051
 5431TIP3   OH216298   2.049   2.254   2.463  0.1977  0.1434  0.1863
 5431TIP3    H116299   1.961   2.280   2.434 -0.1662 -0.9400  0.2594
 5431TIP3    H216300   2.084   2.202   2.391  0.1764 -0.6808  0.7483
 5432TIP3   OH216301   2.303   2.964   2.633  0.0589  0.0683 -0.1809
 5432TIP3    H116302   2.219   2.998   2.662  0.3112  0.7123 -0.1752
 5432TIP3    H216303   2.367   3.005   2.691  0.4666  0.4328 -0.8612
 5433TIP3   OH216304   1.274   2.128   4.280 -0.1572  0.0767  0.4846
 5433TIP3    H116305   1.241   2.119   4.370  0.7956  0.7288  0.9282
 5433TIP3    H216306   1.368   2.114   4.289 -0.2519 -1.4501 -0.6880
 5434TIP3   OH216307   3.226   2.675   1.145 -0.2656  0.3199 -0.3578
 5434TIP3    H116308   3.310   2.700   1.107  0.5590  0.2297  1.2879
 5434TIP3    H216309   3.248   2.647   1.234 -2.0386  0.1983  0.0793
 5435TIP3   OH216310   3.395   4.954   0.335  0.0850 -0.5913  0.2348
 5435TIP3    H116311   3.343   4.875   0.352 -1.7885  0.4546 -0.3460
 5435TIP3    H216312   3.334   5.026   0.349  2.1675  0.8964  2.3503
 5436TIP3   OH216313   0.736   1.734   2.351 -0.0419 -0.5921  0.9699
 5436TIP3    H116314   0.680   1.746   2.274 -0.0943  0.3124  1.1389
 5436TIP3    H216315   0.684   1.679   2.410 -0.8330  0.3484  1.1867
 5437TIP3   OH216316   5.840   0.255   2.999  0.4698  0.3001  0.7658
 5437TIP3    H116317   5.920   0.276   2.951  0.3635 -0.4887  0.2126
 5437TIP3    H216318   5.806   0.177   2.954 -2.0126  2.1020 -0.7481
 5438TIP3   OH216319   3.331   1.102   4.237  0.4148 -0.1084  0.7656
 5438TIP3    H116320   3.242   1.103   4.273  0.0116  0.3079 -0.2004
 5438TIP3    H216321   3.348   1.194   4.213  1.1532 -0.1640  1.0610
 5439TIP3   OH216322   0.048   3.039   4.221  0.2531  0.1204 -0.2326
 5439TIP3    H116323   0.032   2.990   4.141  1.3175  0.7271 -0.8384
 5439TIP3    H216324   0.137   3.073   4.211  0.6988 -0.4008  1.5158
 5440TIP3   OH216325   5.715   3.013   3.760  0.6021 -0.5159  0.0941
 5440TIP3    H116326   5.772   3.090   3.756  0.5872 -0.5377 -0.5488
 5440TIP3    H216327   5.641   3.041   3.815  0.0887  0.2694 -0.9718
 5441TIP3   OH216328   2.486   5.053   0.686  0.2941  0.3784  0.3799
 5441TIP3    H116329   2.557   5.115   0.705  0.5003 -0.2501  1.8109
 5441TIP3    H216330   2.428   5.101   0.627  1.1926  1.4064  0.2899
 5442TIP3   OH216331   2.143   0.793   0.926 -0.2596  0.3936 -0.5049
 5442TIP3    H116332   2.157   0.815   0.834 -0.0354  2.1442 -0.0751
 5442TIP3    H216333   2.177   0.868   0.975  2.2261 -1.6652  1.1712
 5443TIP3   OH216334   0.608   3.079   0.706 -0.6414  0.1683 -0.3866
 5443TIP3    H116335   0.517   3.095   0.731 -0.6948 -1.7819  0.9239
 5443TIP3    H216336   0.602   3.030   0.624 -0.7820  0.1273 -0.3533
 5444TIP3   OH216337   0.783   1.127   3.516  0.1343  0.1631  0.3749
 5444TIP3    H116338   0.789   1.223   3.513 -0.8637  0.2188 -1.3808
 5444TIP3    H216339   0.748   1.108   3.603 -2.7350  1.6732 -0.3270
 5445TIP3   OH216340   5.922   2.829   2.534  0.2629  0.2451 -0.7999
 5445TIP3    H116341   5.978   2.815   2.458  0.6879 -0.5519 -0.3526
 5445TIP3    H216342   5.942   2.756   2.592  0.3293  1.1176  0.3097
 5446TIP3   OH216343   2.273   1.472   4.503  0.0920 -0.3275 -0.4197
 5446TIP3    H116344   2.184   1.441   4.484 -0.9054  2.2821 -0.3655
 5446TIP3    H216345   2.273   1.489   4.597  0.1025  1.2197 -0.6808
 5447TIP3   OH216346   4.497   5.309   2.492  0.1845 -0.6576  0.0795
 5447TIP3    H116347   4.453   5.296   2.576 -1.4479 -0.6238 -0.7371
 5447TIP3    H216348   4.505   5.221   2.455 -2.5174 -0.4037 -1.3476
 5448TIP3   OH216349   6.167   0.101   3.403  0.4659  0.3003 -0.2848
 5448TIP3    H116350   6.235   0.141   3.348  0.5230  0.6964  0.0708
 5448TIP3    H216351   6.184   0.007   3.397  1.1576  0.4061 -0.0488
 5449TIP3   OH216352   1.991   1.254   5.095 -0.3945 -0.6454 -0.2541
 5449TIP3    H116353   2.064   1.199   5.065  0.7702  0.3070  0.7454
 5449TIP3    H216354   1.949   1.202   5.164  0.3495 -0.5424  0.2940
 5450TIP3   OH216355   0.342   2.748   4.810 -0.3874 -0.2173 -0.1368
 5450TIP3    H116356   0.416   2.726   4.866  0.5679  0.8112 -0.9464
 5450TIP3    H216357   0.296   2.817   4.858  0.9478  1.3134 -0.9678
 5451TIP3   OH216358   3.129   5.532   2.297 -0.3673 -0.1947  0.1945
 5451TIP3    H116359   3.077   5.452   2.303 -0.8602  0.1841  1.1379
 5451TIP3    H216360   3.126   5.555   2.204 -0.1731 -1.2967 -0.0960
 5452TIP3   OH216361   5.438   3.620   2.390  0.1482 -0.0015 -0.2730
 5452TIP3    H116362   5.355   3.594   2.348 -0.5861 -0.4294  1.3680
 5452TIP3    H216363   5.416   3.701   2.437  0.4085 -0.5980  0.8997
 5453TIP3   OH216364   3.156   0.276   2.372 -0.3187  0.6426  0.0302
 5453TIP3    H116365   3.185   0.283   2.281  1.0248  0.3363  0.4067
 5453TIP3    H216366   3.167   0.364   2.408  0.5631  0.4458  0.2737
 5454TIP3   OH216367   4.890   4.240   2.656  0.0070  0.2606 -0.1728
 5454TIP3    H116368   4.950   4.305   2.695 -0.7222  0.7874  0.0887
 5454TIP3    H216369   4.809   4.288   2.640 -1.9014 -1.3156  3.4179
 5455TIP3   OH216370   5.986   4.321   3.538  0.1626  0.3731  0.5059
 5455TIP3    H116371   6.014   4.287   3.622 -1.6024 -2.3511  0.1177
 5455TIP3    H216372   5.890   4.319   3.541  0.0241 -0.7115 -1.8220
 5456TIP3   OH216373   4.429   4.092   1.488  0.4384 -0.2798  0.2004
 5456TIP3    H116374   4.394   4.156   1.426  0.4784  0.0687  0.5369
 5456TIP3    H216375   4.514   4.128   1.514  1.0600 -1.1041 -0.5942
 5457TIP3   OH216376   2.059   1.709   2.268 -0.1922  0.0299 -0.2047
 5457TIP3    H116377   2.144   1.686   2.306 -1.0067  0.0235  1.7170
 5457TIP3    H216378   2.074   1.794   2.226  0.8988 -0.2582 -0.4390
 5458TIP3   OH216379   1.089   4.947   5.039 -0.8186  0.3578 -0.4126
 5458TIP3    H116380   1.138   4.978   4.963 -1.7317 -0.3207 -1.3029
 5458TIP3    H216381   1.150   4.957   5.113  0.1273  0.8953 -1.2444
 5459TIP3   OH216382   3.643   4.493   5.090  0.2262 -0.6411 -1.1024
 5459TIP3    H116383   3.564   4.520   5.043  0.4318 -0.6836 -1.4779
 5459TIP3    H216384   3.652   4.400   5.070 -0.7174 -1.1217  0.5284
 5460TIP3   OH216385   4.724   2.513   3.205 -0.7229  0.2151 -0.0842
 5460TIP3    H116386   4.799   2.456   3.218  0.3071  1.4490 -0.4006
 5460TIP3    H216387   4.702   2.544   3.293 -0.5426  0.2448 -0.0496
 5461TIP3   OH216388   6.028   4.526   1.191 -0.3197 -0.2254  0.8247
 5461TIP3    H116389   6.062   4.567   1.271  2.2425  1.1404 -0.8170
 5461TIP3    H216390   5.961   4.586   1.159 -0.3079 -0.0188  1.1865
 5462TIP3   OH216391   4.735   5.037   1.280  0.1956  0.0604  0.2016
 5462TIP3    H116392   4.696   5.124   1.283 -0.7459 -0.3767  0.9890
 5462TIP3    H216393   4.699   4.991   1.356 -1.1048 -1.7401 -1.3941
 5463TIP3   OH216394   1.414   5.204   4.184 -0.2242 -0.2272  0.3637
 5463TIP3    H116395   1.365   5.286   4.189 -0.4073 -0.4068  2.7432
 5463TIP3    H216396   1.352   5.142   4.145 -0.9048  0.2298  0.6940
 5464TIP3   OH216397   0.498   0.772   2.222  0.5299  0.1900 -0.1723
 5464TIP3    H116398   0.511   0.678   2.213 -1.7646 -0.2209  0.1236
 5464TIP3    H216399   0.420   0.790   2.170 -0.4696  1.4895  1.6659
 5465TIP3   OH216400   1.772   4.143   2.573  0.1345 -0.1198 -0.6163
 5465TIP3    H116401   1.727   4.075   2.622 -0.8048  0.3833 -0.7620
 5465TIP3    H216402   1.800   4.100   2.492  2.2094 -1.1143  0.5403
 5466TIP3   OH216403   5.527   2.555   0.959  0.0175 -0.0628  0.3562
 5466TIP3    H116404   5.501   2.496   1.029 -0.9764 -2.1239 -1.6176
 5466TIP3    H216405   5.444   2.587   0.922  0.5092  0.8651  0.0126
 5467TIP3   OH216406   1.877   0.475   4.351 -0.3548 -0.1647 -0.1100
 5467TIP3    H116407   1.917   0.484   4.264 -0.6494  1.0318 -0.1311
 5467TIP3    H216408   1.877   0.563   4.387 -0.6408 -0.5807  0.9345
 5468TIP3   OH216409   0.685   5.940   3.519  0.2145  0.1138  0.0748
 5468TIP3    H116410   0.619   5.897   3.574 -0.3638  0.0760 -0.6271
 5468TIP3    H216411   0.742   5.985   3.580  0.8307 -1.6166  0.8577
 5469TIP3   OH216412   4.391   3.411   1.118 -0.3204 -0.3455  0.0858
 5469TIP3    H116413   4.435   3.467   1.054  1.6394 -1.4694  0.4008
 5469TIP3    H216414   4.450   3.408   1.193 -1.8342 -0.3705  1.3318
 5470TIP3   OH216415   3.906   4.186   0.367 -0.3950  0.6189 -0.1004
 5470TIP3    H116416   3.897   4.280   0.352 -0.4692  0.7069  0.4862
 5470TIP3    H216417   3.828   4.162   0.417  0.6502  0.6495  1.6058
 5471TIP3   OH216418   2.467   1.276   4.069 -0.0474 -0.3606  0.1846
 5471TIP3    H116419   2.535   1.291   4.004  1.1208 -2.4002  0.8384
 5471TIP3    H216420   2.465   1.181   4.079 -1.7777 -0.2271  1.4842
 5472TIP3   OH216421   5.812   3.944   0.511 -0.1028 -0.1201 -0.0474
 5472TIP3    H116422   5.813   4.020   0.569 -0.0227  0.6056 -0.9676
 5472TIP3    H216423   5.853   3.976   0.430  3.9546 -2.2714  0.8839
 5473TIP3   OH216424   2.931   3.156   5.139 -0.0632 -0.4470 -0.5017
 5473TIP3    H116425   2.979   3.131   5.218  0.6223 -0.2304 -0.8411
 5473TIP3    H216426   2.979   3.114   5.068  1.0598  1.6950 -1.0747
 5474TIP3   OH216427   4.766   1.317   0.139  0.3659  0.5830 -0.0768
 5474TIP3    H116428   4.767   1.358   0.226  1.8076 -0.6760  0.5497
 5474TIP3    H216429   4.843   1.353   0.095  0.3092  0.3281 -0.3863
 5475TIP3   OH216430   5.651   4.686   4.394  0.3555 -0.3376 -0.1531
 5475TIP3    H116431   5.607   4.771   4.391  0.0867 -0.4539  0.5165
 5475TIP3    H216432   5.744   4.708   4.394  0.3053  0.0559  2.2625
 5476TIP3   OH216433   5.453   5.585   2.532  0.2742 -0.1724 -0.0568
 5476TIP3    H116434   5.480   5.577   2.624 -2.0418 -0.3994  0.6624
 5476TIP3    H216435   5.483   5.503   2.492  0.2003 -0.6289  0.7988
 5477TIP3   OH216436   3.601   5.328   3.862 -0.2411 -0.0072  0.5711
 5477TIP3    H116437   3.624   5.296   3.949 -0.2671  1.4304  1.1362
 5477TIP3    H216438   3.521   5.281   3.839  0.0868 -0.8240  1.0501
 5478TIP3   OH216439   1.091   3.898   1.971  0.3483  0.1362 -0.5316
 5478TIP3    H116440   1.047   3.860   2.047  0.9432 -0.4296 -0.4610
 5478TIP3    H216441   1.064   3.841   1.898  2.2837 -1.2653 -0.2138
 5479TIP3   OH216442   1.966   2.826   2.555  1.0022 -0.1572  0.1753
 5479TIP3    H116443   1.964   2.771   2.477 -1.7834 -1.5597  1.0988
 5479TIP3    H216444   2.034   2.891   2.537  1.6002 -1.4165 -2.6804
 5480TIP3   OH216445   1.525   0.999   0.345  0.5135  0.4213 -0.3341
 5480TIP3    H116446   1.554   1.085   0.314  1.1379  0.0782 -0.7376
 5480TIP3    H216447   1.544   0.940   0.272 -2.1750  0.3083 -1.0445
 5481TIP3   OH216448   1.965   1.507   2.512  0.0147 -0.0032 -0.1010
 5481TIP3    H116449   1.996   1.571   2.447 -1.0573 -0.9553 -1.6206
 5481TIP3    H216450   1.938   1.560   2.587  1.4599  1.1204 -0.3316
 5482TIP3   OH216451   3.169   0.863   1.139  0.2315 -0.0473  0.0525
 5482TIP3    H116452   3.235   0.855   1.070  1.8584 -0.0331  1.5510
 5482TIP3    H216453   3.126   0.778   1.142 -0.3168  0.1518 -1.3823
 5483TIP3   OH216454   6.238   1.456   4.505  0.4729 -0.0519  0.0255
 5483TIP3    H116455   6.302   1.484   4.440 -0.0706  0.2555 -0.3940
 5483TIP3    H216456   6.155   1.494   4.474  0.5123  1.6873  1.8651
 5484TIP3   OH216457   1.545   2.303   0.330  0.1762 -0.1547 -0.4296
 5484TIP3    H116458   1.625   2.286   0.379 -0.3676  0.1872  0.6287
 5484TIP3    H216459   1.475   2.277   0.390 -0.5959  2.3980 -0.1013
 5485TIP3   OH216460   4.292   5.779   0.373 -0.0239 -0.1763 -0.4641
 5485TIP3    H116461   4.201   5.755   0.353 -0.8756  2.2825  0.1616
 5485TIP3    H216462   4.309   5.738   0.457 -1.0905  0.5043  0.1091
 5486TIP3   OH216463   3.451   1.686   0.685  0.5231 -0.1188 -0.5361
 5486TIP3    H116464   3.451   1.594   0.709  2.2342 -0.2030 -0.7426
 5486TIP3    H216465   3.457   1.733   0.768  0.6392 -0.2325 -0.4798
 5487TIP3   OH216466   1.001   2.441   0.618 -0.4785  0.3349 -0.2583
 5487TIP3    H116467   0.919   2.483   0.591  0.0945  0.7806 -1.3739
 5487TIP3    H216468   0.998   2.355   0.576 -0.1045  0.5888 -0.8171
 5488TIP3   OH216469   6.040   1.794   0.480  0.3680  0.2019  0.0141
 5488TIP3    H116470   6.132   1.817   0.489  0.9897 -0.9544 -2.5224
 5488TIP3    H216471   6.040   1.698   0.474 -0.9054  0.2328 -0.8120
 5489TIP3   OH216472   4.799   3.125   4.833  0.7892  0.1629 -0.2946
 5489TIP3    H116473   4.823   3.211   4.869 -1.6037  0.8969 -0.2839
 5489TIP3    H216474   4.806   3.136   4.738 -0.0909  0.5962 -0.3213
 5490TIP3   OH216475   5.840   0.828   0.840  0.3857  0.2266 -0.5363
 5490TIP3    H116476   5.768   0.887   0.817 -0.2417  0.0142  0.7927
 5490TIP3    H216477   5.892   0.821   0.759  0.5048  2.5972 -0.7523
 5491TIP3   OH216478   0.092   1.202   1.091 -0.2925  0.1388 -0.1824
 5491TIP3    H116479   0.045   1.119   1.079  0.1469 -0.0058 -1.0617
 5491TIP3    H216480   0.171   1.178   1.140 -0.1109  0.0103 -0.5327
 5492TIP3   OH216481   5.515   2.321   1.098 -0.8411  0.1167 -0.0386
 5492TIP3    H116482   5.438   2.280   1.059 -1.4940  0.4899  0.8126
 5492TIP3    H216483   5.488   2.342   1.188  0.0588  0.7842  0.0952
 5493TIP3   OH216484   1.537   3.222   0.845 -0.1378  0.3344  0.1742
 5493TIP3    H116485   1.609   3.195   0.788  0.2957  0.5278  0.6237
 5493TIP3    H216486   1.464   3.239   0.786 -0.9878 -3.3807 -0.0868
 5494TIP3   OH216487   4.134   5.399   3.748  0.2972  0.3134 -0.4671
 5494TIP3    H116488   4.115   5.340   3.675  0.8129 -1.2722  0.6242
 5494TIP3    H216489   4.058   5.457   3.752 -0.3126 -0.3860 -1.4745
 5495TIP3   OH216490   3.467   1.432   0.771  0.4406  0.5501 -0.2827
 5495TIP3    H116491   3.401   1.366   0.753 -0.5811  1.3559  0.3879
 5495TIP3    H216492   3.544   1.383   0.800 -0.5374 -0.3134  0.9275
 5496TIP3   OH216493   6.052   1.841   2.448  0.0211  0.4849 -0.4425
 5496TIP3    H116494   6.034   1.753   2.480  2.2691 -0.1305 -0.6781
 5496TIP3    H216495   6.064   1.894   2.527  0.9076  0.0371 -0.2648
 5497TIP3   OH216496   3.669   4.039   3.389  0.2151 -0.0648 -0.1670
 5497TIP3    H116497   3.758   4.073   3.379  0.5524 -0.9576 -0.2958
 5497TIP3    H216498   3.613   4.103   3.345  0.7535  0.6861  0.2266
 5498TIP3   OH216499   1.185   1.755   3.546  0.5714 -0.5819  0.0566
 5498TIP3    H116500   1.165   1.765   3.639  2.1427 -0.4124  0.4013
 5498TIP3    H216501   1.210   1.843   3.517 -0.4788 -0.5098 -0.6937
 5499TIP3   OH216502   4.800   2.394   1.966  0.1599  0.3735 -0.3868
 5499TIP3    H116503   4.713   2.420   1.996  1.1077  3.5670 -0.0016
 5499TIP3    H216504   4.788   2.373   1.873 -0.9747  1.1796 -0.4445
 5500TIP3   OH216505   3.713   4.744   2.843  0.0336 -0.4163  0.1201
 5500TIP3    H116506   3.659   4.821   2.861 -0.3108 -0.5716 -0.2117
 5500TIP3    H216507   3.768   4.770   2.769  0.0780 -0.4117  0.1552
 5501TIP3   OH216508   0.807   5.988   2.004 -0.4192 -0.2346  0.1243
 5501TIP3    H116509   0.800   5.989   1.909 -0.4595  0.7752  0.1290
 5501TIP3    H216510   0.717   5.988   2.035 -0.4223  0.9891  0.1553
 5502TIP3   OH216511   0.015  -0.012   2.251  0.0677  0.1201  0.4712
 5502TIP3    H116512  -0.050   0.057   2.268 -1.3699 -0.9872 -0.3618
 5502TIP3    H216513   0.082   0.031   2.198 -1.5263  0.5739 -1.2924
 5503TIP3   OH216514   0.722   5.366   2.691 -0.5094 -0.3101 -0.1135
 5503TIP3    H116515   0.739   5.274   2.671  0.2459 -0.2117  0.0645
 5503TIP3    H216516   0.637   5.384   2.650 -1.2582 -1.4216  0.8776
 5504TIP3   OH216517   1.667   2.904   4.237 -0.7910  0.1881  0.0487
 5504TIP3    H116518   1.742   2.878   4.290 -0.8253  1.0675  0.5495
 5504TIP3    H216519   1.691   2.989   4.201 -1.9054  0.9087  0.9626
 5505TIP3   OH216520   0.973   4.632   3.641 -0.1408  0.8497 -0.5890
 5505TIP3    H116521   1.050   4.587   3.675  0.2547  1.3118 -0.8459
 5505TIP3    H216522   1.001   4.723   3.632 -0.2323  0.7560 -2.1054
 5506TIP3   OH216523   4.125   3.887   1.089 -0.3504 -0.3617 -0.4133
 5506TIP3    H116524   4.147   3.966   1.039 -1.0269  1.0805  1.4484
 5506TIP3    H216525   4.208   3.841   1.098  0.5137  1.2257  0.2450
 5507TIP3   OH216526   3.892   1.301   2.862  0.0535 -0.7401  0.3305
 5507TIP3    H116527   3.838   1.333   2.790  0.5071 -2.1063 -0.6636
 5507TIP3    H216528   3.967   1.360   2.863  0.1580 -0.8436 -0.4877
 5508TIP3   OH216529   0.269   3.036   1.722  0.3975 -0.0930  0.0962
 5508TIP3    H116530   0.252   3.075   1.637  1.4241 -0.0072 -0.0864
 5508TIP3    H216531   0.302   2.948   1.702 -0.9749 -0.7192  0.4720
 5509TIP3   OH216532   2.803   0.668   3.787 -0.2841  0.3401 -0.6820
 5509TIP3    H116533   2.815   0.637   3.876 -0.4245 -0.0606 -0.8021
 5509TIP3    H216534   2.888   0.707   3.764 -0.5785  1.4318  0.0036
 5510TIP3   OH216535   3.335   5.896   2.836 -0.2225 -0.2178 -0.2651
 5510TIP3    H116536   3.346   5.823   2.775 -0.9867  0.1499 -0.8542
 5510TIP3    H216537   3.247   5.928   2.819 -0.1104  0.4633  0.4142
 5511TIP3   OH216538   1.539   4.458   3.288  0.5063 -0.0017  0.5991
 5511TIP3    H116539   1.467   4.422   3.235  0.1418  0.4873  0.7500
 5511TIP3    H216540   1.519   4.432   3.377  0.5729  0.0449  0.6277
 5512TIP3   OH216541   2.088   5.577   2.509  0.3103 -0.3516 -0.2355
 5512TIP3    H116542   1.996   5.575   2.481  0.4924 -1.3446 -0.8032
 5512TIP3    H216543   2.085   5.604   2.601 -0.3674  2.1419 -0.8924
 5513TIP3   OH216544   2.336   1.887   1.955 -0.6158 -0.3685 -0.1184
 5513TIP3    H116545   2.403   1.953   1.936  1.0790 -2.3547 -1.5960
 5513TIP3    H216546   2.382   1.803   1.944 -2.8759 -1.8159  0.7930
 5514TIP3   OH216547   5.087   0.312   1.345  0.1134  0.1932 -0.2106
 5514TIP3    H116548   5.082   0.287   1.253  0.5824 -0.0879 -0.1673
 5514TIP3    H216549   5.004   0.284   1.383  0.8111 -1.8630 -0.0402
 5515TIP3   OH216550   2.345   1.309   1.672 -0.0968 -0.2362  0.5932
 5515TIP3    H116551   2.253   1.303   1.645 -0.6241 -3.1654  2.5425
 5515TIP3    H216552   2.392   1.260   1.604 -0.1411  0.1730  0.2638
 5516TIP3   OH216553   4.429   4.344   2.618 -0.5239 -0.1769 -0.5849
 5516TIP3    H116554   4.357   4.406   2.631 -1.0285 -0.6666 -0.9765
 5516TIP3    H216555   4.386   4.259   2.608  0.2044 -0.7708  0.9455
 5517TIP3   OH216556   4.114   5.716   3.449  0.2845 -0.8536  0.0766
 5517TIP3    H116557   4.187   5.741   3.392 -1.6756  1.9357 -1.4619
 5517TIP3    H216558   4.105   5.621   3.437  1.9388 -0.8247 -1.7981
 5518TIP3   OH216559   6.236   2.264   3.954 -0.1759  0.3748 -0.1715
 5518TIP3    H116560   6.199   2.185   3.994  1.0424  0.9844  2.4311
 5518TIP3    H216561   6.308   2.231   3.900  0.3737 -0.3507  0.9421
 5519TIP3   OH216562   5.803   5.074   3.513 -0.6745  0.6516 -1.0224
 5519TIP3    H116563   5.735   5.024   3.468  0.5439  0.2290 -2.4859
 5519TIP3    H216564   5.844   5.126   3.444  0.6157  0.7531 -0.2136
 5520TIP3   OH216565   4.169   3.940   4.327 -0.3518  0.3588  0.0650
 5520TIP3    H116566   4.255   3.943   4.371  0.0627 -1.8318 -0.4406
 5520TIP3    H216567   4.106   3.946   4.399  0.2584  0.5544  0.5988
 5521TIP3   OH216568   4.765   1.538   1.120 -0.0756  0.2093  0.5987
 5521TIP3    H116569   4.746   1.454   1.079  3.6768 -0.0867 -0.8714
 5521TIP3    H216570   4.796   1.516   1.208  0.5555  0.0791  0.3449
 5522TIP3   OH216571   2.357   1.520   0.128  0.4849  0.3705 -0.2376
 5522TIP3    H116572   2.273   1.558   0.154 -1.2909 -1.4263 -2.8045
 5522TIP3    H216573   2.376   1.456   0.196 -0.7117  0.1921 -0.0467
 5523TIP3   OH216574   3.146   2.468   2.947 -0.8510  0.3469  0.5171
 5523TIP3    H116575   3.135   2.461   2.852 -1.5726  0.7821  0.5607
 5523TIP3    H216576   3.057   2.470   2.981 -0.6060  1.1383  1.1361
 5524TIP3   OH216577   2.764   2.363   1.657 -0.3096  0.0621  0.2746
 5524TIP3    H116578   2.673   2.390   1.645 -0.3625  0.3681  1.3136
 5524TIP3    H216579   2.792   2.407   1.737  0.8204  0.1229 -0.1411
 5525TIP3   OH216580   6.044   1.402   0.183  0.4279 -0.1582  0.0614
 5525TIP3    H116581   6.014   1.428   0.096 -0.6837 -1.6125 -0.0330
 5525TIP3    H216582   6.117   1.343   0.167 -0.5508 -1.4083  0.0192
 5526TIP3   OH216583   4.872   4.444   1.943  0.5010  0.1961  0.0871
 5526TIP3    H116584   4.934   4.400   1.885 -0.1416 -0.0503 -0.4316
 5526TIP3    H216585   4.897   4.415   2.031  3.4634  2.9697  0.3307
 5527TIP3   OH216586   0.030   1.963   1.538 -0.0050 -0.2998  0.1835
 5527TIP3    H116587   0.103   1.921   1.492 -0.7868 -1.0334 -0.4136
 5527TIP3    H216588   0.063   2.050   1.562 -0.1967  1.0156 -3.6280
 5528TIP3   OH216589   5.590   2.316   2.545 -0.6351  0.1095 -0.6042
 5528TIP3    H116590   5.515   2.357   2.503 -2.0498 -1.1637  0.5332
 5528TIP3    H216591   5.594   2.228   2.508  0.1437  0.0652 -0.4454
 5529TIP3   OH216592   3.768   2.528   4.393 -0.3610  0.9517 -0.1651
 5529TIP3    H116593   3.697   2.581   4.428 -0.0393  0.0942  1.8921
 5529TIP3    H216594   3.844   2.550   4.447  0.3897  0.2069 -0.8773
 5530TIP3   OH216595   1.804   3.867   2.019  0.4042  0.2950 -0.4775
 5530TIP3    H116596   1.781   3.935   1.956  0.9001 -0.3612 -1.3921
 5530TIP3    H216597   1.894   3.843   1.996  1.4970  1.6600  1.9630
 5531TIP3   OH216598   0.067   0.757   4.464  0.1994  0.3450 -0.0153
 5531TIP3    H116599   0.017   0.819   4.517  0.2225  1.1332 -0.8822
 5531TIP3    H216600   0.031   0.672   4.486  0.6481  0.5787  1.7272
 5532TIP3   OH216601   2.771   0.642   2.810  0.2194 -0.0881  0.1471
 5532TIP3    H116602   2.825   0.685   2.877 -1.6454  1.9209  0.4944
 5532TIP3    H216603   2.816   0.560   2.792  2.7032  0.9119  1.2670
 5533TIP3   OH216604   6.023   0.331   0.119  0.3527  0.4013 -0.5465
 5533TIP3    H116605   6.004   0.297   0.031  0.8920  0.7114 -0.7879
 5533TIP3    H216606   6.113   0.364   0.113  0.1193  1.1336 -0.0978
 5534TIP3   OH216607   4.334   1.771   1.560  0.3101  0.0584  0.0181
 5534TIP3    H116608   4.322   1.712   1.486 -0.0043 -0.8871  0.7928
 5534TIP3    H216609   4.426   1.796   1.556 -0.2576  2.1628 -2.2021
 5535TIP3   OH216610   4.379   3.217   3.682  0.3282 -0.1158  0.1192
 5535TIP3    H116611   4.438   3.294   3.680  0.5762 -0.3009 -2.4542
 5535TIP3    H216612   4.292   3.254   3.697  0.6824  0.4438  0.9128
 5536TIP3   OH216613   0.659   3.116   3.587  0.1877 -0.3481 -0.0072
 5536TIP3    H116614   0.701   3.171   3.521  0.7345 -1.1351 -0.3371
 5536TIP3    H216615   0.681   3.027   3.561 -1.6492 -0.8061 -0.1484
 5537TIP3   OH216616   3.153   5.506   5.060 -0.2429  0.0890 -0.3825
 5537TIP3    H116617   3.116   5.420   5.040  0.9516 -0.6725  0.5379
 5537TIP3    H216618   3.221   5.518   4.993 -0.2623  0.2210 -0.3784
 5538TIP3   OH216619   2.238   2.242   2.936  0.1069 -0.3656  0.1636
 5538TIP3    H116620   2.186   2.230   2.857  0.1056  0.5998  0.0083
 5538TIP3    H216621   2.317   2.188   2.921 -1.0140 -2.2277  0.6145
 5539TIP3   OH216622   1.366   4.329   1.023 -0.0699 -0.4411  0.4117
 5539TIP3    H116623   1.390   4.267   1.091 -0.7513 -2.0713 -0.7511
 5539TIP3    H216624   1.273   4.314   1.008 -0.0264  0.1561 -0.6087
 5540TIP3   OH216625   0.070   4.066   1.673 -0.2172 -0.4143 -0.1471
 5540TIP3    H116626   0.142   4.124   1.650  0.1685 -0.2666  1.3412
 5540TIP3    H216627  -0.004   4.125   1.691 -0.5999 -0.5427 -1.2196
 5541TIP3   OH216628   5.208   5.845   1.313 -0.4340 -0.3820  0.2936
 5541TIP3    H116629   5.295   5.809   1.294  0.4691  1.7134  0.1731
 5541TIP3    H216630   5.220   5.940   1.307 -3.2799 -0.0565 -1.9846
 5542TIP3   OH216631   4.118   0.361   3.159 -0.1367  0.0011 -0.2923
 5542TIP3    H116632   4.139   0.321   3.075 -1.0244 -0.0037 -0.5147
 5542TIP3    H216633   4.092   0.451   3.137  2.4687  0.9742  0.2500
 5543TIP3   OH216634   3.441   2.341   1.774 -0.4490 -0.4618 -0.1856
 5543TIP3    H116635   3.484   2.371   1.694  0.0520  1.9391  0.8723
 5543TIP3    H216636   3.499   2.273   1.808  0.8027  0.4132 -0.4828
 5544TIP3   OH216637   4.277   3.108   1.620  0.2343 -0.2184 -0.1077
 5544TIP3    H116638   4.337   3.142   1.687  0.7824 -0.5099 -0.4397
 5544TIP3    H216639   4.192   3.145   1.643  0.8100  1.4079 -0.4712
 5545TIP3   OH216640   2.362   1.290   1.073 -0.4258  0.5934  0.6306
 5545TIP3    H116641   2.432   1.336   1.120  0.2821 -1.4914  1.7927
 5545TIP3    H216642   2.360   1.330   0.987 -0.0750  2.9359  1.6326
 5546TIP3   OH216643   5.945   3.696   0.524  0.1525  0.0805 -0.0722
 5546TIP3    H116644   5.984   3.705   0.437 -2.3331 -0.4199 -1.3190
 5546TIP3    H216645   5.887   3.772   0.533 -0.2206 -0.2937  0.8294
 5547TIP3   OH216646   3.501   2.547   3.069 -0.3225  0.3110  0.5682
 5547TIP3    H116647   3.506   2.536   3.164 -2.1077  0.7349  0.7390
 5547TIP3    H216648   3.465   2.635   3.056 -1.2870 -0.2105 -0.4641
 5548TIP3   OH216649   2.169   3.380   0.444 -1.2913 -0.0859  0.3204
 5548TIP3    H116650   2.126   3.302   0.481 -0.4700 -0.5365  0.3444
 5548TIP3    H216651   2.260   3.354   0.433 -1.5828 -0.1298 -2.5266
 5549TIP3   OH216652   1.020   3.679   3.131  0.0649 -0.6172  0.3166
 5549TIP3    H116653   1.114   3.684   3.151  0.5183 -1.8616 -1.2793
 5549TIP3    H216654   1.001   3.760   3.086 -0.0564  0.4093  2.1200
 5550TIP3   OH216655   1.585   0.706   3.133 -0.8654  0.9875 -0.1917
 5550TIP3    H116656   1.631   0.649   3.195 -0.2116  0.7286 -0.8943
 5550TIP3    H216657   1.537   0.768   3.188 -0.8416  0.3425  0.5762
 5551TIP3   OH216658   1.350   0.016   1.960 -0.2594  0.7769 -0.2608
 5551TIP3    H116659   1.401   0.097   1.954 -1.1048  1.3945  0.6234
 5551TIP3    H216660   1.297   0.027   2.038 -1.5906  0.0477 -1.0281
 5552TIP3   OH216661   3.467   1.213   2.114 -0.4229 -0.0235  0.0070
 5552TIP3    H116662   3.474   1.160   2.193 -2.8947  2.1642  1.8935
 5552TIP3    H216663   3.381   1.191   2.078  0.2080 -0.1738 -1.4715
 5553TIP3   OH216664   0.640   1.333   4.432  0.2879 -0.1864 -0.1174
 5553TIP3    H116665   0.666   1.241   4.423  0.2158 -0.1788 -0.3994
 5553TIP3    H216666   0.546   1.329   4.452 -0.0999 -0.1215 -1.8016
 5554TIP3   OH216667   5.012   4.513   2.658  0.2593  0.1313  0.4272
 5554TIP3    H116668   5.064   4.574   2.606  0.0115 -0.9798 -1.1961
 5554TIP3    H216669   4.923   4.547   2.653 -0.0329 -0.7562 -1.2030
 5555TIP3   OH216670   4.090   3.065   4.881  0.2867 -0.1266  0.1083
 5555TIP3    H116671   4.139   3.049   4.800 -1.4947 -0.4181 -0.9752
 5555TIP3    H216672   4.151   3.041   4.951  1.9089  0.2002 -1.1195
 5556TIP3   OH216673   5.051   4.933   1.675  0.0353 -0.3264 -0.3284
 5556TIP3    H116674   5.100   4.966   1.600 -1.4100  0.6043 -0.9052
 5556TIP3    H216675   4.974   4.891   1.637 -0.4199 -0.3772  0.6003
 5557TIP3   OH216676   4.324   4.933   1.329  0.3286 -0.0753  0.4057
 5557TIP3    H116677   4.346   4.936   1.422 -1.0487 -0.1152  0.7600
 5557TIP3    H216678   4.339   5.022   1.298 -0.7416  0.3507  1.0617
 5558TIP3   OH216679   5.664   0.506   1.423  0.5185  0.2600  0.3751
 5558TIP3    H116680   5.671   0.543   1.335 -0.4302  3.0816  1.3799
 5558TIP3    H216681   5.597   0.438   1.415  0.2420  0.6652 -1.0221
 5559TIP3   OH216682   2.778   1.762   2.835  0.2984  0.5142  0.0449
 5559TIP3    H116683   2.819   1.831   2.888 -0.4025  0.0586  1.2335
 5559TIP3    H216684   2.849   1.701   2.815  0.8210  1.3080 -0.5895
 5560TIP3   OH216685   2.378   3.469   1.694 -0.3799 -0.4873  0.1425
 5560TIP3    H116686   2.292   3.509   1.693  0.9799  2.7524  0.5401
 5560TIP3    H216687   2.417   3.494   1.610  0.7265 -0.4810  0.6380
 5561TIP3   OH216688   4.243   4.499   5.072  0.1833 -0.0167 -0.1834
 5561TIP3    H116689   4.321   4.477   5.122  0.2447  1.9100  0.6803
 5561TIP3    H216690   4.229   4.592   5.089 -1.1679  0.1611 -1.9073
 5562TIP3   OH216691   1.358   0.548   3.017  0.3738 -0.8061 -0.8625
 5562TIP3    H116692   1.280   0.580   3.061  0.2219 -2.8209  0.4608
 5562TIP3    H216693   1.427   0.611   3.038 -0.0243 -1.0140  1.1889
 5563TIP3   OH216694   4.998   5.163   1.446 -0.0264  0.5695 -0.3877
 5563TIP3    H116695   4.931   5.205   1.392 -0.4876 -1.0273 -1.1414
 5563TIP3    H216696   5.046   5.107   1.385 -0.6840 -1.4436  0.8417
 5564TIP3   OH216697   3.980   0.118   4.770  0.0010  0.1712  0.4861
 5564TIP3    H116698   3.907   0.171   4.737 -0.2878 -0.8242 -0.5617
 5564TIP3    H216699   3.941   0.064   4.838 -0.2537 -0.3663 -0.0790
 5565TIP3   OH216700   3.190   3.765   2.634  0.1879  0.4569  0.0602
 5565TIP3    H116701   3.136   3.831   2.592 -1.7860 -0.6446  0.7235
 5565TIP3    H216702   3.265   3.754   2.576 -2.0086 -0.4226 -2.8433
 5566TIP3   OH216703   1.736   5.521   3.351 -0.2244 -0.7031  0.4270
 5566TIP3    H116704   1.680   5.527   3.429 -2.4668 -1.4913 -1.0173
 5566TIP3    H216705   1.754   5.612   3.328 -1.5543 -0.3841  0.5392
 5567TIP3   OH216706   4.539   4.003   3.719  0.0437 -0.0331 -0.3165
 5567TIP3    H116707   4.503   3.935   3.775 -1.2082 -0.0632 -1.1255
 5567TIP3    H216708   4.465   4.035   3.668  1.0053  0.4663 -1.4770
 5568TIP3   OH216709   1.570   1.747   3.958  0.3720  0.6347  0.1801
 5568TIP3    H116710   1.643   1.732   4.018  0.0543  1.0548  0.6710
 5568TIP3    H216711   1.591   1.693   3.881  0.8814  0.2628  0.5768
 5569TIP3   OH216712   0.706   5.744   4.247  0.3335  0.2747  0.0771
 5569TIP3    H116713   0.658   5.698   4.178  1.9289 -0.4053 -0.6337
 5569TIP3    H216714   0.655   5.729   4.326 -1.3865  0.8207 -0.8850
 5570TIP3   OH216715   5.076   3.573   4.038 -0.2272  0.0223 -0.3582
 5570TIP3    H116716   5.040   3.639   4.097 -0.1997 -0.4397  0.1826
 5570TIP3    H216717   5.107   3.503   4.096  1.2343  0.2530 -0.8253
 5571TIP3   OH216718   3.234   1.018   2.829  0.2242  0.7830  0.0368
 5571TIP3    H116719   3.257   1.098   2.783  1.7271 -0.2319 -1.0858
 5571TIP3    H216720   3.224   0.952   2.760 -1.1916  0.0370  0.9133
 5572TIP3   OH216721   0.880   0.071   1.024  0.9538 -0.3114 -0.4478
 5572TIP3    H116722   0.934   0.114   0.958 -0.2231 -0.3347 -1.4672
 5572TIP3    H216723   0.835   0.000   0.977  0.1079 -0.3442  0.3661
 5573TIP3   OH216724   1.780   2.221   0.446 -0.2269  0.1124  0.7807
 5573TIP3    H116725   1.873   2.238   0.435 -0.3703  0.0168 -0.8391
 5573TIP3    H216726   1.774   2.126   0.453 -0.0954  0.1952  2.3914
 5574TIP3   OH216727   5.758   4.541   4.858 -0.0380 -0.0327  0.1876
 5574TIP3    H116728   5.815   4.530   4.783  0.0626 -0.8921  0.3743
 5574TIP3    H216729   5.816   4.565   4.930 -0.1322  0.7728  0.0072
 5575TIP3   OH216730   3.978   4.555   0.802  0.0751  0.3635 -0.5799
 5575TIP3    H116731   3.937   4.635   0.834  1.6488  0.5652  1.0674
 5575TIP3    H216732   4.062   4.583   0.766 -1.1489 -0.0136 -4.0660
 5576TIP3   OH216733   1.304   3.624   3.184 -0.3256 -0.1116  0.6945
 5576TIP3    H116734   1.344   3.578   3.110  1.3584  2.7621 -0.3400
 5576TIP3    H216735   1.366   3.694   3.205 -2.8806  1.9712  1.8253
 5577TIP3   OH216736   5.590   1.974   4.119 -0.2990 -0.0840  0.0207
 5577TIP3    H116737   5.516   1.932   4.163  0.0579 -0.9033 -0.1376
 5577TIP3    H216738   5.667   1.936   4.160  0.0376 -0.4286 -0.8989
 5578TIP3   OH216739   4.423   4.486   1.851 -0.4086  0.1458 -0.1046
 5578TIP3    H116740   4.489   4.419   1.868 -0.9745 -0.0923  1.2394
 5578TIP3    H216741   4.369   4.448   1.782  0.8196  0.3363 -1.2108
 5579TIP3   OH216742   5.191   3.227   3.398  0.2329 -0.5703 -0.5382
 5579TIP3    H116743   5.184   3.132   3.392  1.6908 -0.6847 -0.6001
 5579TIP3    H216744   5.283   3.246   3.383 -0.2319  0.9525 -1.7668
 5580TIP3   OH216745   4.954   0.165   1.936 -0.4804 -0.2679 -0.0991
 5580TIP3    H116746   4.914   0.230   1.994 -1.2039  0.4748 -1.3813
 5580TIP3    H216747   4.883   0.137   1.878  0.0962 -1.3878 -0.2960
 5581TIP3   OH216748   1.008   5.929   1.483  0.1447  0.6150  1.0412
 5581TIP3    H116749   0.937   5.939   1.419 -0.2840  0.7076  1.5213
 5581TIP3    H216750   1.060   5.856   1.449 -1.3164 -0.8049  1.6784
 5582TIP3   OH216751   5.945   3.330   4.924  0.0565  0.9137  0.0706
 5582TIP3    H116752   5.958   3.235   4.926 -0.0888  0.8959  0.2143
 5582TIP3    H216753   5.857   3.343   4.960 -0.7016  0.9718 -1.6982
 5583TIP3   OH216754   4.472   2.550   1.486 -0.0431  0.0784 -0.1047
 5583TIP3    H116755   4.546   2.532   1.543  1.1675 -0.0249 -1.6263
 5583TIP3    H216756   4.467   2.646   1.483  0.7157  0.1128 -0.7847
 5584TIP3   OH216757   4.672   1.219   4.826  0.5018 -0.5042  0.0218
 5584TIP3    H116758   4.610   1.256   4.888  1.1060  0.5054  0.0501
 5584TIP3    H216759   4.643   1.249   4.740  1.6552  1.0920  0.1409
 5585TIP3   OH216760   1.033   3.457   2.934 -0.3759  0.4186 -0.2113
 5585TIP3    H116761   1.053   3.499   3.018  0.0618  0.6665 -0.4361
 5585TIP3    H216762   1.102   3.488   2.875 -1.0095  0.7046 -0.8163
 5586TIP3   OH216763   5.714   4.530   1.818 -0.2619 -0.1583 -0.5722
 5586TIP3    H116764   5.636   4.585   1.829 -0.2144  0.1548 -1.6180
 5586TIP3    H216765   5.786   4.593   1.809  0.2924 -0.4522  1.3981
 5587TIP3   OH216766   3.103   1.614   1.137  0.9747  0.3365 -0.1270
 5587TIP3    H116767   3.084   1.545   1.074  1.7000 -0.0623  0.0733
 5587TIP3    H216768   3.142   1.684   1.085 -0.4269  0.9159 -0.4443
 5588TIP3   OH216769   0.363   4.958   4.050  0.3145 -0.3065  0.0033
 5588TIP3    H116770   0.306   4.921   4.117  0.8020  0.6313  0.9833
 5588TIP3    H216771   0.307   5.019   4.002  0.5358  0.8677  1.1803
 5589TIP3   OH216772   4.064   4.116   2.097  0.8379  1.1487  0.0580
 5589TIP3    H116773   4.003   4.043   2.107 -0.6249  2.3910  0.7890
 5589TIP3    H216774   4.147   4.076   2.073 -0.5452 -0.5616 -2.2881
 5590TIP3   OH216775   0.205   0.481   2.949 -0.1988  0.1288 -0.1193
 5590TIP3    H116776   0.261   0.406   2.931 -0.4983 -0.5044  1.4533
 5590TIP3    H216777   0.240   0.551   2.893  0.8441 -0.8334 -0.6994
 5591TIP3   OH216778   5.951   4.091   2.100 -0.5573  0.0998  0.0015
 5591TIP3    H116779   5.938   4.000   2.126 -1.7106  0.3534  0.3908
 5591TIP3    H216780   5.867   4.133   2.118 -0.2065  1.1270 -0.6592
 5592TIP3   OH216781   4.867   0.260   3.071 -0.2538  0.1040  0.5046
 5592TIP3    H116782   4.935   0.193   3.078 -0.5989 -0.5419 -1.6483
 5592TIP3    H216783   4.914   0.338   3.042 -0.3704 -0.3114 -0.8695
 5593TIP3   OH216784   2.868   2.305   2.594  0.2142 -0.3630  0.2287
 5593TIP3    H116785   2.942   2.250   2.567 -1.2471 -1.3038 -2.2631
 5593TIP3    H216786   2.904   2.393   2.601  1.2523 -0.3630 -3.2177
 5594TIP3   OH216787   3.253   4.333   4.540 -0.5302 -0.1640 -0.3259
 5594TIP3    H116788   3.292   4.312   4.625 -0.5940 -1.7829 -0.6608
 5594TIP3    H216789   3.238   4.427   4.543  0.8283  0.0533  0.8851
 5595TIP3   OH216790   0.604   4.221   0.057  0.4892 -0.0519 -0.1474
 5595TIP3    H116791   0.627   4.155   0.122 -0.1662  0.3657  0.5249
 5595TIP3    H216792   0.581   4.171  -0.021 -3.3977 -0.8995  1.3337
 5596TIP3   OH216793   1.466   2.798   2.736  0.0178 -0.1440 -0.1966
 5596TIP3    H116794   1.514   2.766   2.813  2.2270  0.7836 -1.1073
 5596TIP3    H216795   1.436   2.886   2.761  0.3319 -0.0275 -0.2248
 5597TIP3   OH216796   0.503   4.382   3.075  0.1263  0.4431  0.5648
 5597TIP3    H116797   0.451   4.309   3.108 -0.6464  1.1417  0.9344
 5597TIP3    H216798   0.438   4.444   3.041  0.7420  1.1155  0.5984
 5598TIP3   OH216799   0.145   1.791   3.351  0.5892 -0.3465  0.3187
 5598TIP3    H116800   0.202   1.719   3.377 -0.8346 -1.8141 -0.4049
 5598TIP3    H216801   0.125   1.774   3.259  1.6301  2.0177 -0.4382
 5599TIP3   OH216802   5.175   3.128   4.721  0.4389  0.2370 -0.3304
 5599TIP3    H116803   5.202   3.197   4.781 -3.3828  1.1158  0.6987
 5599TIP3    H216804   5.220   3.049   4.751  2.1027  1.5625  0.7843
 5600TIP3   OH216805   2.414   2.231   0.963 -0.1755  0.1580 -0.0431
 5600TIP3    H116806   2.389   2.143   0.936 -0.8517 -0.2855  1.8611
 5600TIP3    H216807   2.332   2.270   0.996  0.4545  0.8743  0.7260
 5601TIP3   OH216808   1.863   0.558   1.049 -0.3304 -0.7184 -0.7381
 5601TIP3    H116809   1.819   0.487   1.095 -0.4949  0.1002  0.4011
 5601TIP3    H216810   1.802   0.631   1.054  0.9731  0.3367  0.5831
 5602TIP3   OH216811   0.314   0.822   1.152 -0.0229  0.1973 -0.2634
 5602TIP3    H116812   0.236   0.851   1.200  0.7829 -1.9088  2.5489
 5602TIP3    H216813   0.280   0.760   1.087 -0.7900 -0.4267  0.6966
 5603TIP3   OH216814   0.658   2.364   1.957 -0.7222  0.3492  0.3566
 5603TIP3    H116815   0.736   2.416   1.938 -1.5566  1.5272  0.0265
 5603TIP3    H216816   0.684   2.309   2.031  0.9697 -0.5776 -0.8546
 5604TIP3   OH216817   3.092   0.308   3.831 -0.2030  0.0302  0.3097
 5604TIP3    H116818   3.099   0.357   3.749 -1.9361  1.8649  1.1781
 5604TIP3    H216819   3.118   0.371   3.898  0.2688 -1.1530  1.2733
 5605TIP3   OH216820   0.335   2.775   2.203  0.5454  0.1469  0.3332
 5605TIP3    H116821   0.297   2.732   2.280  1.0419  0.3593  0.6983
 5605TIP3    H216822   0.424   2.740   2.197  0.9489  1.0993  0.6172
 5606TIP3   OH216823   2.306   4.760   4.392 -0.4789  0.2272 -0.4268
 5606TIP3    H116824   2.380   4.803   4.435 -1.6423  0.0496  1.8581
 5606TIP3    H216825   2.292   4.812   4.312  1.2511  1.0443 -0.2524
 5607TIP3   OH216826   3.040   2.808   3.281  0.1623  0.0198 -0.5478
 5607TIP3    H116827   3.101   2.734   3.273  0.5467  0.2001  0.5282
 5607TIP3    H216828   2.969   2.787   3.221 -0.4777 -1.9854  0.7730
 5608TIP3   OH216829   2.661   3.186   2.207 -0.0444 -0.4176 -0.2086
 5608TIP3    H116830   2.586   3.197   2.264  0.0337 -2.8354  0.4798
 5608TIP3    H216831   2.623   3.167   2.121 -0.2907 -2.1789  0.2517
 5609TIP3   OH216832   0.044   3.589   2.020 -0.2113 -0.4131  0.4065
 5609TIP3    H116833   0.135   3.608   1.998 -0.2186  0.4128  1.0460
 5609TIP3    H216834  -0.008   3.651   1.969 -0.2454  1.2266  2.3308
 5610TIP3   OH216835   1.490   1.965   4.837  0.5838  0.4207 -0.5225
 5610TIP3    H116836   1.470   1.876   4.810  0.0635 -0.0259  1.2017
 5610TIP3    H216837   1.552   1.956   4.909  0.3621  1.4363 -0.1783
 5611TIP3   OH216838   4.019   5.953   4.494  0.1374  0.7012 -0.3776
 5611TIP3    H116839   3.938   5.942   4.544  0.3118  0.9861 -0.0274
 5611TIP3    H216840   4.089   5.946   4.560  0.3357  2.0214 -0.4194
 5612TIP3   OH216841   5.764   5.442   1.537  0.0187 -0.7757  0.3573
 5612TIP3    H116842   5.700   5.373   1.517  0.1435 -1.2897  1.6781
 5612TIP3    H216843   5.711   5.522   1.540 -0.5363 -1.1563  1.1735
 5613TIP3   OH216844   1.718   2.181   1.839 -0.0914 -0.2330 -0.1162
 5613TIP3    H116845   1.645   2.244   1.846 -1.7149 -2.1912  2.3908
 5613TIP3    H216846   1.786   2.218   1.895  0.2857  0.8221 -1.2173
 5614TIP3   OH216847   1.918   5.357   5.103 -0.2223  0.3760 -0.5744
 5614TIP3    H116848   1.904   5.271   5.143  1.2901  0.5361  0.3987
 5614TIP3    H216849   1.915   5.418   5.177  1.4475  0.8243 -0.8364
 5615TIP3   OH216850   0.399   5.595   1.771  0.6210 -0.0439 -0.2054
 5615TIP3    H116851   0.399   5.624   1.680  0.1925 -1.5393 -0.7056
 5615TIP3    H216852   0.324   5.536   1.778  1.0872 -0.5358  0.9262
 5616TIP3   OH216853   5.696   4.150   3.782 -0.4378 -0.2302 -0.0129
 5616TIP3    H116854   5.627   4.096   3.744 -0.1261 -1.0400  0.5222
 5616TIP3    H216855   5.708   4.222   3.720  0.2415 -1.6393 -1.5981
 5617TIP3   OH216856   5.681   1.099   1.213  0.3210 -0.3649  0.0375
 5617TIP3    H116857   5.776   1.102   1.224  0.5293  1.3671 -1.7967
 5617TIP3    H216858   5.666   1.028   1.150  0.3757 -0.7217  0.4232
 5618TIP3   OH216859   1.402   1.543   1.452 -0.4043 -0.1931 -0.0301
 5618TIP3    H116860   1.364   1.505   1.531  0.4602  0.4981  0.7418
 5618TIP3    H216861   1.348   1.619   1.433 -0.1194  0.1171  0.3868
 5619TIP3   OH216862   0.125   2.294   4.107 -0.5940 -0.1333 -0.4003
 5619TIP3    H116863   0.053   2.320   4.050 -1.0062 -0.1185  0.1215
 5619TIP3    H216864   0.164   2.377   4.136 -0.5563 -0.1340 -0.4508
 5620TIP3   OH216865   0.598   4.699   1.961  0.0224  0.4216  0.1196
 5620TIP3    H116866   0.527   4.677   2.022  1.5407  0.3309  1.9293
 5620TIP3    H216867   0.554   4.746   1.890 -1.7875  0.8776  1.4524
 5621TIP3   OH216868   2.072   0.217   5.180 -0.3680 -0.3967 -0.3606
 5621TIP3    H116869   2.152   0.200   5.131 -0.5993  0.2998 -1.0089
 5621TIP3    H216870   2.090   0.297   5.229  0.2624 -1.6979  1.6379
 5622TIP3   OH216871   0.315   1.170   1.248 -0.0710  0.4840 -0.2158
 5622TIP3    H116872   0.361   1.253   1.260  1.5547 -0.7160  2.8699
 5622TIP3    H216873   0.365   1.123   1.181 -0.8728  1.7948 -1.8131
 5623TIP3   OH216874   3.780   3.188   3.728 -0.5229 -0.4285 -0.0569
 5623TIP3    H116875   3.815   3.265   3.774 -0.6544  0.5871 -1.5723
 5623TIP3    H216876   3.692   3.177   3.764  0.1360 -1.0099  1.4631
 5624TIP3   OH216877   5.930   1.796   0.206 -0.4279 -0.0757  0.1489
 5624TIP3    H116878   5.999   1.815   0.141  0.1540 -0.7286  0.5575
 5624TIP3    H216879   5.975   1.746   0.274 -1.1721  0.0660  0.7543
 5625TIP3   OH216880   5.885   0.961   3.797 -0.4436  0.5880  0.3282
 5625TIP3    H116881   5.924   0.931   3.879  0.8616  0.4483 -0.3246
 5625TIP3    H216882   5.887   1.056   3.802  2.3220  0.6599 -0.7133
 5626TIP3   OH216883   2.423   0.133   4.709 -0.0847 -0.1286  0.6914
 5626TIP3    H116884   2.387   0.067   4.650  0.4591 -0.3459  0.6011
 5626TIP3    H216885   2.378   0.118   4.792  0.6098 -1.1461  0.9053
 5627TIP3   OH216886   4.543   1.402   0.544  0.1861  0.0262 -0.4634
 5627TIP3    H116887   4.521   1.395   0.636 -0.2582 -1.8154 -0.6638
 5627TIP3    H216888   4.556   1.312   0.515 -1.6551  0.3514 -2.6581
 5628TIP3   OH216889   1.432   2.413   2.174 -0.2542  0.2218  0.2013
 5628TIP3    H116890   1.467   2.399   2.262 -0.6915  1.6570  0.6375
 5628TIP3    H216891   1.351   2.362   2.172  1.3169 -2.4779 -0.5469
 5629TIP3   OH216892   0.965   1.346   4.053  0.2927 -0.0046 -0.0716
 5629TIP3    H116893   0.973   1.432   4.095  1.1775 -0.7158  1.2870
 5629TIP3    H216894   0.911   1.295   4.113 -1.7082  0.0595 -1.6985
 5630TIP3   OH216895   5.250   4.382   4.828  0.3191 -0.3024 -0.2495
 5630TIP3    H116896   5.277   4.464   4.869 -0.4718  0.2256 -0.7712
 5630TIP3    H216897   5.326   4.324   4.838  1.6823  1.1462 -1.6829
 5631TIP3   OH216898   4.485   2.811   2.911  0.1998  0.6471  0.0284
 5631TIP3    H116899   4.511   2.870   2.982  0.6275  0.1944  0.2476
 5631TIP3    H216900   4.507   2.724   2.942  1.0853  0.4985 -0.9628
 5632TIP3   OH216901   4.245   0.459   1.339 -0.2619 -0.3134  0.8908
 5632TIP3    H116902   4.247   0.372   1.298 -1.6380 -0.6559  1.4966
 5632TIP3    H216903   4.197   0.514   1.277 -1.3477 -0.5570  1.4778
 5633TIP3   OH216904   0.502   5.935   1.526 -0.5190  0.3439 -0.5004
 5633TIP3    H116905   0.430   5.872   1.526  0.9263 -1.4249 -1.8031
 5633TIP3    H216906   0.463   6.017   1.495 -2.1619 -0.2622 -0.1127
 5634TIP3   OH216907   3.995   5.876   0.886  0.8929  0.0303 -0.4451
 5634TIP3    H116908   4.035   5.867   0.800 -1.6335  0.0191 -1.6920
 5634TIP3    H216909   3.950   5.960   0.883 -1.1552 -0.9983 -0.0154
 5635TIP3   OH216910   4.212   5.380   2.388 -0.1346 -0.0471 -0.1478
 5635TIP3    H116911   4.197   5.460   2.438  2.0168 -0.6093  1.5456
 5635TIP3    H216912   4.305   5.382   2.366 -0.5147 -1.0208 -2.0700
 5636TIP3   OH216913   0.031   5.674   0.238  0.2144 -0.5211  0.2128
 5636TIP3    H116914  -0.041   5.735   0.253 -1.1608 -1.8899 -0.6117
 5636TIP3    H216915   0.054   5.641   0.325 -1.0174 -0.9961  0.3742
 5637TIP3   OH216916   5.477   0.363   0.762  0.0679 -0.3297  0.1716
 5637TIP3    H116917   5.523   0.282   0.785  0.0790 -0.6398 -0.9236
 5637TIP3    H216918   5.541   0.415   0.714 -1.1087 -1.4172 -2.7483
 5638TIP3   OH216919   5.382   2.236   4.529  0.1431  0.4311  0.3674
 5638TIP3    H116920   5.434   2.310   4.561  0.9539  0.3756 -0.7700
 5638TIP3    H216921   5.369   2.254   4.436 -0.0192 -0.6465  0.1702
 5639TIP3   OH216922   4.820   3.649   3.431  0.1254 -0.0330  0.0434
 5639TIP3    H116923   4.865   3.653   3.515 -0.2679  1.0080  0.2134
 5639TIP3    H216924   4.889   3.657   3.365  0.2379  1.1697  0.2965
 5640TIP3   OH216925   1.831   2.983   2.780  0.2784 -0.3024  0.2977
 5640TIP3    H116926   1.840   2.915   2.714  1.2722  0.9374 -0.8909
 5640TIP3    H216927   1.739   2.978   2.807 -0.4284 -0.2652 -1.8645
 5641TIP3   OH216928   0.865   4.838   0.852  0.1281 -0.0169 -0.4982
 5641TIP3    H116929   0.872   4.748   0.884 -0.7167  0.3176  0.6911
 5641TIP3    H216930   0.833   4.887   0.927  1.0318  1.3747 -0.9936
 5642TIP3   OH216931   1.601   4.975   0.752 -0.5298  0.2668 -0.2721
 5642TIP3    H116932   1.696   4.979   0.768 -0.6903  0.0422  0.7948
 5642TIP3    H216933   1.572   4.896   0.797 -0.8103 -1.2910 -2.9999
 5643TIP3   OH216934   3.291   1.100   3.563 -0.1804  0.1708 -0.8303
 5643TIP3    H116935   3.303   1.076   3.655  0.6929  1.7560 -0.4957
 5643TIP3    H216936   3.233   1.033   3.528 -1.7993  0.3919  1.2590
 5644TIP3   OH216937   1.503   5.815   1.846  0.3677  0.1597  0.3712
 5644TIP3    H116938   1.469   5.731   1.814 -1.7360  0.9252  0.4623
 5644TIP3    H216939   1.559   5.846   1.774  1.0453 -1.2037  0.2674
 5645TIP3   OH216940   2.477   4.570   1.854 -0.4943 -0.1036 -0.2518
 5645TIP3    H116941   2.544   4.592   1.789 -1.9375  1.1300 -1.3734
 5645TIP3    H216942   2.447   4.655   1.888 -1.6947 -0.6147  0.0214
 5646TIP3   OH216943   5.804   1.634   3.281  0.3776  0.0471  0.4648
 5646TIP3    H116944   5.795   1.643   3.186  0.3556 -1.6065  0.2764
 5646TIP3    H216945   5.875   1.694   3.305 -1.1663  2.2489 -0.2173
 5647TIP3   OH216946   3.373   5.563   0.432  0.1215  0.1108  0.4558
 5647TIP3    H116947   3.329   5.642   0.463  0.9128  1.1020 -0.8458
 5647TIP3    H216948   3.410   5.588   0.347  1.8885 -1.1368  0.8123
 5648TIP3   OH216949   4.196   5.036   4.888 -0.0787  0.4526  0.4083
 5648TIP3    H116950   4.217   5.128   4.900  0.2394  0.8401 -2.5343
 5648TIP3    H216951   4.152   5.032   4.803 -1.5765 -1.9094  1.1961
 5649TIP3   OH216952   1.699   4.335   0.845  0.1360 -0.0076 -0.5926
 5649TIP3    H116953   1.619   4.352   0.796  0.2151  0.7356 -0.4817
 5649TIP3    H216954   1.702   4.406   0.910  1.8671  1.1406 -1.8353
 5650TIP3   OH216955   5.934   2.093   4.610 -0.6669 -0.5733 -0.5540
 5650TIP3    H116956   5.851   2.051   4.588 -0.3362 -1.7852  0.3997
 5650TIP3    H216957   5.941   2.165   4.548 -2.8065  0.0654 -0.1410
 5651TIP3   OH216958   0.243   1.427   1.618  0.2480  0.6095  0.4869
 5651TIP3    H116959   0.332   1.411   1.586 -0.5716 -0.9588 -1.1995
 5651TIP3    H216960   0.191   1.441   1.539 -1.1025  1.0932  1.4113
 5652TIP3   OH216961   4.959   4.041   4.005 -0.5655  0.5103  0.0289
 5652TIP3    H116962   5.052   4.029   3.984 -0.7738 -0.4506 -0.4301
 5652TIP3    H216963   4.913   4.017   3.925 -1.2501 -0.1101  0.5859
 5653TIP3   OH216964   1.286   5.941   3.748 -0.0369  0.0567 -0.1443
 5653TIP3    H116965   1.267   5.960   3.656  1.5681 -1.3954 -0.8381
 5653TIP3    H216966   1.368   5.988   3.765 -1.4161  2.1439  1.2838
 5654TIP3   OH216967   0.838   1.609   2.655 -0.3001  0.0515 -0.1102
 5654TIP3    H116968   0.790   1.598   2.573  0.0663 -1.1784 -0.1823
 5654TIP3    H216969   0.844   1.520   2.691  2.5135  0.0231 -0.4495
 5655TIP3   OH216970   6.176   5.671   3.814 -0.3230  0.2029  0.4036
 5655TIP3    H116971   6.249   5.609   3.817 -1.2869 -0.9398  1.5437
 5655TIP3    H216972   6.098   5.617   3.829 -1.5338  1.2583 -1.6718
 5656TIP3   OH216973   4.785   0.928   3.515 -0.3051  1.1424 -0.3331
 5656TIP3    H116974   4.811   0.944   3.606  2.0720  0.8792 -0.8808
 5656TIP3    H216975   4.690   0.939   3.514 -0.3741  1.2901  2.1378
 5657TIP3   OH216976   2.799   3.734   3.949  0.4926  0.2627 -0.3482
 5657TIP3    H116977   2.821   3.820   3.912  0.6602 -0.0429 -0.9663
 5657TIP3    H216978   2.703   3.730   3.944  0.5883 -0.5360 -2.5348
 5658TIP3   OH216979   4.998   5.817   3.295  0.0056  0.1435  0.0744
 5658TIP3    H116980   5.023   5.886   3.233 -1.5635  1.1947  0.5472
 5658TIP3    H216981   4.903   5.809   3.284  0.1380 -1.9982  0.0165
 5659TIP3   OH216982   3.265   3.221   4.673  0.6239 -0.2592  0.1115
 5659TIP3    H116983   3.223   3.284   4.615  0.1387 -1.9586 -1.4589
 5659TIP3    H216984   3.244   3.252   4.761 -1.3188  0.6484 -0.6158
 5660TIP3   OH216985   4.111   3.106   3.500 -0.4793  0.0517 -0.0560
 5660TIP3    H116986   4.155   3.105   3.415 -1.1117  0.5860 -0.3915
 5660TIP3    H216987   4.143   3.185   3.543 -0.5073  0.0224  0.0195
 5661TIP3   OH216988   5.301   5.925   0.205 -0.0183  0.1552 -0.3772
 5661TIP3    H116989   5.396   5.922   0.213  0.0365 -1.8903 -1.1396
 5661TIP3    H216990   5.281   6.017   0.186  2.0340  0.2172 -2.6574
 5662TIP3   OH216991   2.631   5.128   3.670 -0.0260 -0.1076 -0.3542
 5662TIP3    H116992   2.581   5.144   3.590 -1.8887 -0.5128  0.6720
 5662TIP3    H216993   2.617   5.035   3.689  0.6081 -0.0833  0.2933
 5663TIP3   OH216994   2.509   3.083   2.789  0.4321  0.3601 -0.1934
 5663TIP3    H116995   2.570   3.017   2.823 -0.2329 -1.2609 -1.9154
 5663TIP3    H216996   2.565   3.150   2.750  1.1345  1.0183  1.8191
 5664TIP3   OH216997   3.113   3.697   4.614  0.5522  0.1812  0.0101
 5664TIP3    H116998   3.116   3.717   4.707 -0.6492 -0.7878  0.2829
 5664TIP3    H216999   3.157   3.771   4.572 -0.4018  1.4871  1.2106
 5665TIP3   OH217000   0.766   1.010   1.325  0.1586 -0.5537  0.4730
 5665TIP3    H117001   0.723   1.024   1.410  0.0100 -0.5210  0.3940
 5665TIP3    H217002   0.723   0.932   1.289  0.7505 -1.0195  0.7625
 5666TIP3   OH217003   5.508   3.882   3.192  0.1860  0.1317  0.4119
 5666TIP3    H117004   5.576   3.820   3.217  0.5557  0.7603  1.0154
 5666TIP3    H217005   5.533   3.964   3.235 -0.2629  0.7137 -0.4022
 5667TIP3   OH217006   3.711   5.397   2.135  0.0809  0.2261 -0.1641
 5667TIP3    H117007   3.699   5.486   2.167  0.5272  0.1645  0.1910
 5667TIP3    H217008   3.644   5.345   2.179 -0.3116  0.4206 -0.5280
 5668TIP3   OH217009   0.555   1.708   2.805  0.3711 -0.5032  0.0519
 5668TIP3    H117010   0.582   1.784   2.858  1.0488  0.3766 -1.4864
 5668TIP3    H217011   0.543   1.744   2.717 -0.4799 -1.9793 -0.4617
 5669TIP3   OH217012   1.158   2.110   4.534  0.8313  0.7667 -0.1599
 5669TIP3    H117013   1.081   2.165   4.518  1.0439  0.5849 -1.9701
 5669TIP3    H217014   1.124   2.034   4.580  0.2857  1.6543  0.9622
 5670TIP3   OH217015   4.902   2.109   4.119  0.3952 -0.3131 -0.1084
 5670TIP3    H117016   4.964   2.037   4.133  0.2242 -0.5474 -0.5286
 5670TIP3    H217017   4.917   2.169   4.192  0.7493 -0.6299  0.0794
 5671TIP3   OH217018   4.104   3.391   1.871 -0.0548 -0.4487 -0.2231
 5671TIP3    H117019   4.053   3.377   1.952 -0.1638  1.9200  0.2007
 5671TIP3    H217020   4.189   3.422   1.902 -0.9947  3.3297 -0.8750
 5672TIP3   OH217021   0.468   2.706   3.087 -0.0145 -0.1307 -0.3852
 5672TIP3    H117022   0.406   2.683   3.018 -0.1350  0.9843 -0.6767
 5672TIP3    H217023   0.413   2.739   3.159  0.0834 -1.6097  0.4032
 5673TIP3   OH217024   2.323   2.691   4.461 -0.3033  0.4559  0.6899
 5673TIP3    H117025   2.302   2.599   4.479 -0.1323  0.3297  0.2587
 5673TIP3    H217026   2.418   2.693   4.454 -0.3723  0.4516 -0.4281
 5674TIP3   OH217027   1.964   3.651   3.413  0.1418  0.5078 -0.1284
 5674TIP3    H117028   1.943   3.590   3.344  1.8751  1.7490 -1.8710
 5674TIP3    H217029   1.949   3.603   3.494  0.3733 -1.8171 -1.3997
 5675TIP3   OH217030   1.695   1.056   1.570  0.5089 -0.0013  0.4231
 5675TIP3    H117031   1.722   1.095   1.653 -1.6595 -0.0417  1.1889
 5675TIP3    H217032   1.744   0.974   1.565  1.7667  0.6852  0.9256
 5676TIP3   OH217033   2.975   3.909   2.994 -0.7595  0.3883  0.4923
 5676TIP3    H117034   2.953   3.837   3.054 -0.9474 -0.1492 -0.2171
 5676TIP3    H217035   3.053   3.879   2.949 -1.0295  0.4817 -0.0436
 5677TIP3   OH217036   2.535   0.148   2.786 -0.4987  0.0348 -0.2156
 5677TIP3    H117037   2.487   0.228   2.807  0.0950  0.2810  0.2624
 5677TIP3    H217038   2.582   0.168   2.705  0.0667  0.3641  0.1863
 5678TIP3   OH217039   5.125   1.193   0.591  0.1082  0.5205  0.1062
 5678TIP3    H117040   5.208   1.167   0.631 -0.2890 -2.1796 -0.6461
 5678TIP3    H217041   5.147   1.211   0.499 -0.1793 -0.6179 -0.1967
 5679TIP3   OH217042   0.085   0.700   0.085 -0.2615  0.4267 -0.2088
 5679TIP3    H117043   0.065   0.744   0.002  1.0517  0.9717 -0.2618
 5679TIP3    H217044   0.138   0.624   0.060 -1.0377 -0.2127  0.0347
 5680TIP3   OH217045   6.128   2.785   5.127  0.3533 -0.5410 -0.0763
 5680TIP3    H117046   6.047   2.785   5.075 -0.1885  1.0158  0.6972
 5680TIP3    H217047   6.197   2.766   5.064 -0.4937 -0.6438 -1.0000
 5681TIP3   OH217048   0.322   4.639   3.717  0.4407 -0.3289  0.1419
 5681TIP3    H117049   0.236   4.623   3.679  0.3922 -0.6589  0.3860
 5681TIP3    H217050   0.371   4.683   3.648 -0.4389  1.4013  0.5554
 5682TIP3   OH217051   4.464   1.904   3.362 -0.6035 -0.6006  0.1593
 5682TIP3    H117052   4.514   1.941   3.435  0.5767  1.3850 -1.5531
 5682TIP3    H217053   4.374   1.933   3.378 -0.1044  1.1041  0.1222
 5683TIP3   OH217054   1.706   0.033   4.520 -0.6510  0.2217 -0.4439
 5683TIP3    H117055   1.739  -0.034   4.461 -1.2687 -0.0284 -0.5173
 5683TIP3    H217056   1.710   0.114   4.469  1.0909  0.4441  0.0066
 5684TIP3   OH217057   1.667   2.161   4.600  0.7110 -0.0808 -0.0703
 5684TIP3    H117058   1.681   2.254   4.581 -0.2129  0.2122  0.6199
 5684TIP3    H217059   1.576   2.155   4.628  1.0831 -0.9951  1.0722
 5685TIP3   OH217060   0.754   4.454   3.094  0.0082  0.2117 -0.5166
 5685TIP3    H117061   0.660   4.439   3.103  0.0403  0.6549  0.7737
 5685TIP3    H217062   0.770   4.534   3.144  1.1280 -0.0735 -0.4015
 5686TIP3   OH217063   5.306   4.727   0.141  0.6429  0.4130  0.1128
 5686TIP3    H117064   5.344   4.685   0.063  0.1190  0.0957  0.0207
 5686TIP3    H217065   5.340   4.816   0.139  1.0290  0.2613 -0.2102
 5687TIP3   OH217066   5.538   0.098   3.423 -0.0688  0.5231 -0.4673
 5687TIP3    H117067   5.502   0.163   3.485  2.0259  1.5736 -0.2597
 5687TIP3    H217068   5.585   0.151   3.359  1.4915 -0.7753 -0.4340
 5688TIP3   OH217069   1.042   0.686   3.200  0.0251 -0.1798  0.2689
 5688TIP3    H117070   1.043   0.700   3.105  1.7309  2.6930  0.5888
 5688TIP3    H217071   0.954   0.711   3.227  0.6172  2.8236 -0.2204
 5689TIP3   OH217072   3.966   3.555   4.481 -0.1699  0.7378  0.3536
 5689TIP3    H117073   3.936   3.612   4.553 -0.2257  2.2280 -0.7887
 5689TIP3    H217074   3.886   3.517   4.446 -0.1085 -0.3053  1.3064
 5690TIP3   OH217075   2.804   0.431   4.124  0.7438  0.2745  0.7976
 5690TIP3    H117076   2.769   0.520   4.121 -0.2119 -0.1168 -0.3104
 5690TIP3    H217077   2.766   0.387   4.048  1.2930 -1.0545  1.2535
 5691TIP3   OH217078   2.601   3.076   5.039  0.1432  0.2998 -0.4694
 5691TIP3    H117079   2.586   3.165   5.008 -1.3471 -0.2413 -1.3940
 5691TIP3    H217080   2.556   3.020   4.976  0.9792 -1.1229  0.1318
 5692TIP3   OH217081   2.287   2.817   4.967 -0.1564 -0.3837  0.1340
 5692TIP3    H117082   2.258   2.895   5.014  0.3163 -0.9920  1.4659
 5692TIP3    H217083   2.247   2.826   4.880 -0.4771  1.1075  0.4015
 5693TIP3   OH217084   1.309   5.217   0.556 -0.4833  0.3817  0.1443
 5693TIP3    H117085   1.323   5.307   0.526 -0.8477  0.3111 -0.2498
 5693TIP3    H217086   1.252   5.178   0.489 -0.2240 -0.1791  0.2452
 5694TIP3   OH217087   5.035   3.343   3.613 -0.6282  0.4493 -0.2434
 5694TIP3    H117088   5.092   3.314   3.541  0.3427  1.9222 -0.1226
 5694TIP3    H217089   5.084   3.320   3.692 -0.0347  1.9127 -0.1413
 5695TIP3   OH217090   6.076   4.917   4.503 -0.1535  0.1853 -0.5372
 5695TIP3    H117091   6.058   4.958   4.419 -0.5110 -0.0061 -0.5564
 5695TIP3    H217092   5.997   4.867   4.523  0.7115 -1.4885 -1.0916
 5696TIP3   OH217093   5.082   2.551   4.066  1.2367  0.2871 -0.5585
 5696TIP3    H117094   5.157   2.587   4.113  0.9805 -0.3189  0.3408
 5696TIP3    H217095   5.120   2.507   3.990  1.8142 -0.0844 -0.0664
 5697TIP3   OH217096   3.852   0.128   2.070  0.1100 -0.1801  0.4388
 5697TIP3    H117097   3.902   0.061   2.022 -0.8737 -1.9181  1.7060
 5697TIP3    H217098   3.792   0.164   2.005 -0.0805 -1.3198 -0.0434
 5698TIP3   OH217099   5.374   4.458   0.723  0.3945  0.5134  0.2316
 5698TIP3    H117100   5.371   4.500   0.637  1.6646  2.2853  0.9886
 5698TIP3    H217101   5.314   4.510   0.777  0.3732  0.0411  0.6720
 5699TIP3   OH217102   3.727   0.972   2.542  0.2335 -0.1216 -0.4153
 5699TIP3    H117103   3.749   0.894   2.593 -0.7774 -1.5560 -2.0505
 5699TIP3    H217104   3.668   1.023   2.599  1.5890 -0.0733  1.0036
 5700TIP3   OH217105   1.050   0.030   3.436 -0.6674 -0.2898 -0.3337
 5700TIP3    H117106   1.076   0.033   3.344  0.1316 -0.1590 -0.1074
 5700TIP3    H217107   0.974   0.088   3.441  0.9608  1.9805 -0.3901
 5701TIP3   OH217108   4.037   4.313   4.599 -0.1220 -0.3693 -0.4660
 5701TIP3    H117109   4.096   4.241   4.622 -0.4548 -0.0666  1.5389
 5701TIP3    H217110   4.092   4.391   4.603 -0.6146 -0.0656  1.5802
 5702TIP3   OH217111   3.108   5.650   3.520 -0.1002 -0.1114 -0.0102
 5702TIP3    H117112   3.051   5.582   3.555  0.8849 -0.4173  1.1058
 5702TIP3    H217113   3.133   5.619   3.433  1.5912 -2.0500  1.0628
 5703TIP3   OH217114   2.726   5.931   1.319  0.3817  0.1136  0.7622
 5703TIP3    H117115   2.819   5.927   1.298  0.1335  1.4120 -0.8020
 5703TIP3    H217116   2.682   5.914   1.236 -0.7431  1.0476  1.1310
 5704TIP3   OH217117   0.696   3.559   0.272 -0.6357 -0.4696  0.2614
 5704TIP3    H117118   0.770   3.505   0.299  0.4259  0.7891 -0.0682
 5704TIP3    H217119   0.725   3.649   0.285 -2.2439  0.0573  0.4728
 5705TIP3   OH217120   2.684   5.040   4.704 -0.0902 -0.2114 -0.2465
 5705TIP3    H117121   2.600   5.086   4.695  0.0641  0.2066  0.3537
 5705TIP3    H217122   2.735   5.068   4.629  0.2198  1.0899  0.4158
 5706TIP3   OH217123   5.101   4.317   2.413  0.0384 -0.4407 -0.1066
 5706TIP3    H117124   5.044   4.361   2.477 -1.2014  0.3694 -1.7048
 5706TIP3    H217125   5.068   4.227   2.410 -1.5280  0.1155 -1.3205
 5707TIP3   OH217126   1.628   4.395   2.211  0.2257  0.0930  0.3417
 5707TIP3    H117127   1.717   4.363   2.196  0.1091  0.7697 -2.2225
 5707TIP3    H217128   1.588   4.397   2.124 -1.4610  2.2155  1.0655
 5708TIP3   OH217129   0.448   2.150   1.965  0.3417  0.0038 -0.4548
 5708TIP3    H117130   0.527   2.197   1.938  0.0074  0.1186 -1.2550
 5708TIP3    H217131   0.426   2.186   2.050  0.3103  1.0259 -0.8882
 5709TIP3   OH217132   1.692   4.719   2.312 -0.0122 -0.0145  0.3066
 5709TIP3    H117133   1.756   4.738   2.243 -1.8645  0.0722 -1.4956
 5709TIP3    H217134   1.674   4.804   2.353 -2.5987  1.0508 -2.6038
 5710TIP3   OH217135   2.159   4.681   4.974  0.2782  0.3969 -0.3734
 5710TIP3    H117136   2.119   4.768   4.976  0.8021  0.6548 -0.8103
 5710TIP3    H217137   2.163   4.659   4.881 -0.3783 -0.3438 -0.2288
 5711TIP3   OH217138   4.055   3.308   2.970 -0.1720 -0.1941  0.4525
 5711TIP3    H117139   4.084   3.381   2.916 -1.5396 -0.4055 -0.6464
 5711TIP3    H217140   4.130   3.249   2.973  0.1423  0.1196 -0.7219
 5712TIP3   OH217141   6.145   2.809   2.782  0.5528 -0.2337  0.1679
 5712TIP3    H117142   6.111   2.724   2.811 -0.0248  0.4277  1.5142
 5712TIP3    H217143   6.089   2.873   2.826 -0.1026  0.8642 -2.1373
 5713TIP3   OH217144   3.620   3.359   0.616  0.0540  0.8768 -0.4000
 5713TIP3    H117145   3.669   3.293   0.664 -0.2607  0.2608 -0.9017
 5713TIP3    H217146   3.631   3.439   0.666 -0.2030  0.2690  0.6609
 5714TIP3   OH217147   3.635   1.290   2.444  0.4178 -0.8275  0.3730
 5714TIP3    H117148   3.724   1.296   2.480  0.2840  0.8089  0.4883
 5714TIP3    H217149   3.605   1.381   2.439 -1.2788 -1.3586  0.3762
 5715TIP3   OH217150   5.562   3.852   1.105  0.0775  0.4243  0.5349
 5715TIP3    H117151   5.590   3.939   1.134 -0.6337  1.0667 -0.5931
 5715TIP3    H217152   5.573   3.854   1.010  0.2151 -0.7956  0.5068
 5716TIP3   OH217153   1.279   5.486   2.680 -0.6472  0.6620 -0.4191
 5716TIP3    H117154   1.369   5.457   2.693 -0.4297  1.9996  1.5071
 5716TIP3    H217155   1.225   5.416   2.717 -0.2664  1.0849  0.9809
 5717TIP3   OH217156   4.891   3.886   1.746  0.4255 -0.2145 -0.5860
 5717TIP3    H117157   4.827   3.946   1.784 -0.8248 -1.5163 -0.5400
 5717TIP3    H217158   4.897   3.913   1.654  0.1214  0.1866 -0.4910
 5718TIP3   OH217159   5.172   3.557   3.452  0.6756  0.2875  0.5913
 5718TIP3    H117160   5.122   3.477   3.431  2.2265 -0.8312  1.0018
 5718TIP3    H217161   5.141   3.622   3.389 -1.9522 -0.0434  1.3848
 5719TIP3   OH217162   4.256   1.123   4.893  0.3865 -0.9544 -0.5634
 5719TIP3    H117163   4.254   1.121   4.797  0.8039 -0.7224 -0.5812
 5719TIP3    H217164   4.227   1.036   4.919 -1.8677 -0.3317 -0.8390
 5720TIP3   OH217165   0.340   1.872   1.011  0.1051  0.2411 -0.5675
 5720TIP3    H117166   0.341   1.828   0.926  0.2568  0.7930 -0.8613
 5720TIP3    H217167   0.247   1.872   1.037 -0.1602  1.3671 -1.4368
 5721TIP3   OH217168   5.924   0.656   1.054 -0.0334  0.3479  0.5972
 5721TIP3    H117169   5.919   0.713   0.977 -0.1769 -0.7653 -0.2511
 5721TIP3    H217170   5.875   0.702   1.122 -1.5450  0.4990 -0.5462
 5722TIP3   OH217171   1.709   3.135   0.623 -0.4765  0.4957 -0.1258
 5722TIP3    H117172   1.771   3.199   0.657  1.5190 -1.8053  0.8541
 5722TIP3    H217173   1.684   3.169   0.537  1.7768  1.7799 -0.3556
 5723TIP3   OH217174   5.597   1.779   0.170 -0.2319 -0.2742 -0.5203
 5723TIP3    H117175   5.677   1.787   0.223  0.1558  1.1219 -1.2616
 5723TIP3    H217176   5.570   1.688   0.181  0.4754 -0.3219  1.1433
 5724TIP3   OH217177   5.741   3.702   2.833 -0.1305  0.0718  0.1202
 5724TIP3    H117178   5.727   3.722   2.740 -0.3583  0.1383  0.1676
 5724TIP3    H217179   5.697   3.773   2.879 -0.0802 -0.0012  0.2796
 5725TIP3   OH217180   1.562   1.321   0.833 -0.5541  0.0406 -0.1597
 5725TIP3    H117181   1.598   1.373   0.761 -3.2518 -0.5342 -2.0727
 5725TIP3    H217182   1.627   1.252   0.848  1.4500  1.9013  0.0671
 5726TIP3   OH217183   4.358   4.796   0.523  0.4656  0.3905 -0.2575
 5726TIP3    H117184   4.302   4.851   0.469 -1.8449 -1.3274  0.2508
 5726TIP3    H217185   4.397   4.857   0.586 -3.4534  1.3852  1.5420
 5727TIP3   OH217186   4.634   4.996   3.592  0.0604 -0.1633  0.2236
 5727TIP3    H117187   4.728   4.981   3.597  0.0476 -0.2003  0.3540
 5727TIP3    H217188   4.595   4.909   3.589 -0.0267 -0.1669  1.2384
 5728TIP3   OH217189   5.298   5.271   3.048 -0.3114  0.4549 -0.6932
 5728TIP3    H117190   5.367   5.295   2.986  2.0138  1.2129  1.9646
 5728TIP3    H217191   5.257   5.353   3.073  0.9696  0.6062  1.0848
 5729TIP3   OH217192   3.791   4.895   4.711  0.0771  0.1516  0.0758
 5729TIP3    H117193   3.846   4.853   4.776 -1.2392 -0.4285  0.8559
 5729TIP3    H217194   3.768   4.979   4.749 -0.7943 -0.2390  0.4468
 5730TIP3   OH217195   5.675   3.475   0.779 -0.0078 -0.5005  0.1431
 5730TIP3    H117196   5.734   3.408   0.743 -3.0675 -2.6741 -1.2349
 5730TIP3    H217197   5.709   3.492   0.867  1.9029 -2.5897 -0.1048
 5731TIP3   OH217198   6.325   5.883   2.128 -0.1704  0.3026 -0.0235
 5731TIP3    H117199   6.316   5.936   2.207 -1.3931  0.9365 -0.5775
 5731TIP3    H217200   6.271   5.806   2.145  2.3519 -1.3359  1.1828
 5732TIP3   OH217201   1.123   4.888   3.653 -0.1054  0.4756 -0.3497
 5732TIP3    H117202   1.137   4.882   3.747 -1.0948 -1.7570 -0.2738
 5732TIP3    H217203   1.211   4.888   3.615  0.2903  0.6263  0.5499
 5733TIP3   OH217204   2.159   3.787   4.015  0.1732 -0.1355 -0.3533
 5733TIP3    H117205   2.193   3.764   4.102  1.6517 -0.6649 -1.0470
 5733TIP3    H217206   2.064   3.779   4.024  0.3851 -2.7155  0.5388
 5734TIP3   OH217207   5.023   3.011   1.450  0.3674  0.2851 -0.0980
 5734TIP3    H117208   4.944   3.017   1.396 -0.0354  0.9230  0.5520
 5734TIP3    H217209   5.007   3.070   1.523  0.7434 -0.8553  0.9487
 5735TIP3   OH217210   4.458   2.031   4.255 -0.0773 -0.4923  0.2968
 5735TIP3    H117211   4.513   2.091   4.204  1.0164 -1.2259  0.5886
 5735TIP3    H217212   4.472   2.057   4.346 -0.2000 -0.6980  0.3747
 5736TIP3   OH217213   0.836   0.649   3.420 -1.0370 -0.7234 -0.3212
 5736TIP3    H117214   0.793   0.705   3.484 -1.4073  0.4901 -1.5774
 5736TIP3    H217215   0.773   0.640   3.349 -0.3892 -1.4913 -0.8220
 5737TIP3   OH217216   5.167   0.325   4.847 -0.3919 -0.0907 -0.4854
 5737TIP3    H117217   5.136   0.404   4.891 -1.1556  0.6089 -2.1831
 5737TIP3    H217218   5.168   0.258   4.915 -2.0748  0.8066  0.4787
 5738TIP3   OH217219   5.734   5.261   3.782  0.0293 -0.1218  0.0761
 5738TIP3    H117220   5.763   5.190   3.724  0.0843 -0.5028  0.5630
 5738TIP3    H217221   5.802   5.327   3.775 -1.3726  1.2014 -2.6135
 5739TIP3   OH217222   4.504   1.840   2.570 -0.0433  0.2223 -0.0372
 5739TIP3    H117223   4.536   1.789   2.644  1.4337  0.2994 -0.5874
 5739TIP3    H217224   4.422   1.798   2.546  0.9982 -1.7852 -0.3155
 5740TIP3   OH217225   5.529   1.167   0.063  0.1337 -0.2337  0.5572
 5740TIP3    H117226   5.459   1.181  -0.001  1.4539  1.7823 -0.5621
 5740TIP3    H217227   5.566   1.082   0.040 -1.3990 -0.9834  0.6910
 5741TIP3   OH217228   3.185   0.582   0.378 -0.3134 -0.2469  0.4092
 5741TIP3    H117229   3.114   0.537   0.333  2.5220 -2.2531 -2.5836
 5741TIP3    H217230   3.198   0.533   0.459 -1.4640 -0.6506  0.3597
 5742TIP3   OH217231   0.124   5.162   1.891 -0.2378 -0.3743 -0.1210
 5742TIP3    H117232   0.041   5.113   1.893  0.2445 -1.1909  1.3545
 5742TIP3    H217233   0.188   5.099   1.858  0.1235 -0.3102  0.4432
 5743TIP3   OH217234   2.783   2.854   2.125  0.2941  0.9838 -0.3188
 5743TIP3    H117235   2.690   2.834   2.114  0.3730  0.5432 -0.2060
 5743TIP3    H217236   2.796   2.935   2.076 -0.5032  1.9719  1.0417
 5744TIP3   OH217237   5.473   2.616   4.791  0.1950  0.6824  0.1276
 5744TIP3    H117238   5.496   2.619   4.884  1.0685 -0.2235 -0.0309
 5744TIP3    H217239   5.386   2.576   4.789  1.4586 -2.3608  0.4423
 5745TIP3   OH217240   5.081   3.726  -0.006  0.3209 -0.1325  0.1563
 5745TIP3    H117241   5.149   3.771  -0.056 -0.5621  1.0078 -0.0449
 5745TIP3    H217242   5.071   3.778   0.074  0.0475 -0.5977  0.4322
 5746TIP3   OH217243   1.760   3.694   0.161  0.2267  0.6268 -0.3201
 5746TIP3    H117244   1.701   3.707   0.236 -1.4142 -0.4615 -1.3503
 5746TIP3    H217245   1.709   3.641   0.100  0.9730  2.6250 -2.8389
 5747TIP3   OH217246   4.543   4.891   1.121 -0.1080 -0.1846 -0.0710
 5747TIP3    H117247   4.488   4.895   1.199 -2.2548  1.2560 -1.5528
 5747TIP3    H217248   4.614   4.953   1.138 -0.0442 -0.5466  1.0491
 5748TIP3   OH217249   4.998   4.311   4.677  0.7666 -0.0270  0.2251
 5748TIP3    H117250   5.032   4.400   4.668  0.5846  0.1551  1.2566
 5748TIP3    H217251   5.049   4.272   4.748  0.0399 -0.3395  0.5883
 5749TIP3   OH217252   4.106   0.637   1.992 -0.0710 -0.0149 -0.0602
 5749TIP3    H117253   4.022   0.645   2.037  0.2635 -0.4869  0.6561
 5749TIP3    H217254   4.086   0.585   1.914 -1.2541  3.1979 -2.1072
 5750TIP3   OH217255   6.171   0.627   1.201 -0.3007  0.7613  0.3779
 5750TIP3    H117256   6.093   0.591   1.159 -0.6094  0.3433  1.2921
 5750TIP3    H217257   6.212   0.552   1.243 -0.2854  1.2594  1.2768
 5751TIP3   OH217258   2.593   0.424   3.053  0.1970  0.4818  0.0954
 5751TIP3    H117259   2.592   0.519   3.066  2.6406  0.4443  1.2273
 5751TIP3    H217260   2.503   0.396   3.066 -0.4284  2.5547  0.5586
 5752TIP3   OH217261   1.707   5.631   0.285 -0.3824 -0.2936 -0.4454
 5752TIP3    H117262   1.681   5.718   0.316  0.7863 -0.0215 -0.1578
 5752TIP3    H217263   1.626   5.591   0.253 -0.9787  0.8091 -0.3596
 5753TIP3   OH217264   0.395   4.888   0.979 -0.1756  0.5491 -0.0004
 5753TIP3    H117265   0.392   4.800   1.017  0.2659  0.8954  0.8500
 5753TIP3    H217266   0.437   4.876   0.894 -0.0055 -0.0398  0.1610
 5754TIP3   OH217267   2.893   0.373   4.634  0.5626  0.4995  0.1942
 5754TIP3    H117268   2.851   0.413   4.558 -0.7740  1.1563  1.2342
 5754TIP3    H217269   2.822   0.327   4.680  1.3119  0.2034  1.1033
 5755TIP3   OH217270   2.118   4.064   0.621  0.4999  0.2087 -0.2514
 5755TIP3    H117271   2.030   4.029   0.637  0.9376 -0.1333  1.6197
 5755TIP3    H217272   2.160   3.999   0.565 -0.0478 -0.2132 -0.1757
 5756TIP3   OH217273   3.932   4.347   3.027 -0.4620  0.2526  0.0057
 5756TIP3    H117274   3.875   4.307   2.961 -1.5589  0.6924  0.6546
 5756TIP3    H217275   3.900   4.437   3.034  0.0984  0.4114  0.6396
 5757TIP3   OH217276   3.158   0.485   4.026 -0.7995 -0.1541 -0.2511
 5757TIP3    H117277   3.116   0.466   4.111 -0.6137  3.1417  0.7132
 5757TIP3    H217278   3.245   0.445   4.033 -1.1342 -0.7523  0.7114
 5758TIP3   OH217279   1.510   0.621   4.882  0.7954 -0.2858  0.2523
 5758TIP3    H117280   1.440   0.680   4.910  0.0679 -1.8219  1.8864
 5758TIP3    H217281   1.588   0.654   4.927  1.0223  0.9846 -0.9864
 5759TIP3   OH217282   1.091   3.924   2.699 -0.1178 -0.5039 -0.0878
 5759TIP3    H117283   1.012   3.873   2.680 -0.0508 -0.2409 -1.1650
 5759TIP3    H217284   1.161   3.859   2.703 -0.3479 -0.7179  0.6889
 5760TIP3   OH217285   3.906   3.860   1.309  0.2486  0.5647 -0.0131
 5760TIP3    H117286   3.964   3.814   1.368 -0.6125 -1.5977 -0.7344
 5760TIP3    H217287   3.961   3.883   1.234  0.8206  1.2648  0.6097
 5761TIP3   OH217288   4.878   0.342   2.115 -0.1420  0.0761 -0.4049
 5761TIP3    H117289   4.800   0.376   2.073 -0.2940 -0.5540 -0.6525
 5761TIP3    H217290   4.847   0.309   2.200  0.1112  1.0801  0.0883
 5762TIP3   OH217291   0.649   0.562   4.102 -0.2799 -0.4513 -0.5518
 5762TIP3    H117292   0.603   0.487   4.064  0.2123  0.0526 -2.2157
 5762TIP3    H217293   0.668   0.535   4.192 -1.3171 -1.7722 -0.6948
 5763TIP3   OH217294   5.810   2.511   2.113  0.0252  0.6445 -0.4374
 5763TIP3    H117295   5.852   2.454   2.177  0.5994  0.2220 -1.1806
 5763TIP3    H217296   5.760   2.573   2.166 -0.6092 -0.5262  0.3799
 5764TIP3   OH217297   5.131   4.544   1.555  0.0957 -0.0655  0.0515
 5764TIP3    H117298   5.219   4.552   1.519  0.7706  1.1574  1.7998
 5764TIP3    H217299   5.076   4.597   1.497  0.8673  0.6261 -0.0679
 5765TIP3   OH217300   4.661   4.618   1.336 -0.1289 -0.6132 -0.6239
 5765TIP3    H117301   4.635   4.707   1.311  0.7179 -0.0375  0.4355
 5765TIP3    H217302   4.616   4.602   1.418 -1.3633 -1.7289 -1.4792
 5766TIP3   OH217303   2.472   2.409   0.417  0.0010 -0.4867  0.6065
 5766TIP3    H117304   2.388   2.420   0.372 -0.1446 -2.0457  0.4389
 5766TIP3    H217305   2.532   2.464   0.368 -1.0228  1.1478  1.0955
 5767TIP3   OH217306   3.587   0.261   3.200  0.1104 -0.7581  0.4673
 5767TIP3    H117307   3.561   0.283   3.111  0.9548 -1.5888 -0.0038
 5767TIP3    H217308   3.640   0.336   3.228 -3.0451  1.2566  1.6637
 5768TIP3   OH217309   3.343   0.621   1.775  0.2944 -0.1822 -0.0872
 5768TIP3    H117310   3.435   0.639   1.795  0.0444 -0.1736  1.1757
 5768TIP3    H217311   3.345   0.544   1.718  1.0164 -1.8876  2.1026
 5769TIP3   OH217312   0.666   1.061   3.814 -0.1925  0.6304 -0.3339
 5769TIP3    H117313   0.649   0.981   3.863 -0.4468 -0.5879 -2.2715
 5769TIP3    H217314   0.616   1.129   3.859 -0.0284 -0.2982  1.3184
 5770TIP3   OH217315   0.168   1.252   3.567  0.4939  0.0575 -0.5926
 5770TIP3    H117316   0.157   1.256   3.662 -0.6162 -1.4593 -0.6411
 5770TIP3    H217317   0.243   1.194   3.554  0.1788 -0.3365 -0.6607
 5771TIP3   OH217318   1.396   0.527   2.302  0.2614  0.4059 -0.0116
 5771TIP3    H117319   1.320   0.557   2.352 -0.5195  0.4141 -1.1742
 5771TIP3    H217320   1.453   0.603   2.297 -0.1287  0.7023 -0.0090
 5772TIP3   OH217321   4.231   0.379   4.760  0.0248 -0.3149  0.1975
 5772TIP3    H117322   4.139   0.377   4.736  0.1808 -0.5835 -0.3860
 5772TIP3    H217323   4.267   0.298   4.725  0.2683 -0.7134  1.3160
 5773TIP3   OH217324   0.148   3.591   2.869 -0.0231 -0.3831 -0.2023
 5773TIP3    H117325   0.147   3.547   2.784 -1.1222 -2.0607  0.6072
 5773TIP3    H217326   0.055   3.599   2.892  0.2657 -0.0060  0.8489
 5774TIP3   OH217327   4.969   3.293   1.949 -0.2913  0.3597  0.1416
 5774TIP3    H117328   5.050   3.342   1.941  0.0716 -0.2166  0.2482
 5774TIP3    H217329   4.983   3.233   2.022 -0.8838  0.3879  0.2889
 5775TIP3   OH217330   3.754   2.074   0.591  0.7581 -0.5459  0.9844
 5775TIP3    H117331   3.734   1.982   0.576 -3.3236  0.1670  0.9924
 5775TIP3    H217332   3.690   2.122   0.539  2.2141  2.3220  1.6164
 5776TIP3   OH217333   0.175   5.642   4.249 -0.6513  0.5007 -0.3686
 5776TIP3    H117334   0.248   5.698   4.222 -0.0746 -0.1879 -0.3082
 5776TIP3    H217335   0.193   5.623   4.341 -0.0036 -0.9678 -0.7622
 5777TIP3   OH217336   5.586   5.398   2.065 -0.0402 -1.2113 -0.0962
 5777TIP3    H117337   5.668   5.375   2.020 -0.6170 -1.7432 -0.9255
 5777TIP3    H217338   5.533   5.440   1.997 -1.2605 -2.7913 -0.1972
 5778TIP3   OH217339   4.722   4.920   0.783  0.0671  0.4585  0.1344
 5778TIP3    H117340   4.745   4.844   0.730 -1.4363 -0.1100  0.2699
 5778TIP3    H217341   4.801   4.937   0.836  0.4743 -0.9043 -0.0070
 5779TIP3   OH217342   1.160   2.402   1.378 -0.4653 -0.0822 -0.2968
 5779TIP3    H117343   1.237   2.358   1.343 -1.1912 -3.2476  1.6693
 5779TIP3    H217344   1.182   2.423   1.469 -1.1699  1.0882 -0.3655
 5780TIP3   OH217345   4.204   0.149   1.664  0.7877 -0.3391 -0.0623
 5780TIP3    H117346   4.259   0.220   1.630  0.2319  1.0458  1.7493
 5780TIP3    H217347   4.251   0.116   1.740  0.3562 -0.9647 -0.0581
 5781TIP3   OH217348   1.914   5.503   0.181  0.1389 -0.2884  0.6649
 5781TIP3    H117349   1.891   5.411   0.194 -0.2189 -0.6637 -2.0141
 5781TIP3    H217350   1.833   5.551   0.200 -0.5714 -0.8454 -0.7994
 5782TIP3   OH217351   2.100   0.269   0.911 -0.5408 -0.3916 -0.2344
 5782TIP3    H117352   2.079   0.360   0.890 -1.4654 -0.4597  0.3546
 5782TIP3    H217353   2.195   0.269   0.923 -0.0984 -0.0830 -3.0357
 5783TIP3   OH217354   5.170   3.792   1.859  0.1755 -0.0858 -0.1656
 5783TIP3    H117355   5.178   3.704   1.821 -0.1605  0.0358 -0.5257
 5783TIP3    H217356   5.082   3.792   1.898 -0.0416  0.2853 -0.6614
 5784TIP3   OH217357   3.161   2.724   2.784 -0.2587  0.2022  0.2279
 5784TIP3    H117358   3.205   2.782   2.722 -0.2965  0.4119  0.3974
 5784TIP3    H217359   3.227   2.705   2.850  0.1825 -1.0260 -0.5246
 5785TIP3   OH217360   4.816   4.018   3.751 -0.1550 -0.2438  0.5257
 5785TIP3    H117361   4.723   4.018   3.772 -0.2365  0.6797  0.1951
 5785TIP3    H217362   4.830   4.100   3.704  0.8474 -0.3195  0.6742
 5786TIP3   OH217363   5.547   2.819   0.460  0.0361 -0.0563  0.0528
 5786TIP3    H117364   5.544   2.859   0.374 -1.1487 -0.3272 -0.0475
 5786TIP3    H217365   5.457   2.822   0.492  0.4713  0.1631  1.3405
 5787TIP3   OH217366   4.790   5.383   3.764  0.4058 -0.3923  0.0440
 5787TIP3    H117367   4.804   5.430   3.681  0.0043 -0.4447 -0.0561
 5787TIP3    H217368   4.747   5.447   3.820  1.7646  0.0395  0.6350
 5788TIP3   OH217369   4.096   5.226   1.894 -0.3050 -0.5855 -0.2806
 5788TIP3    H117370   4.006   5.245   1.920  0.2879  1.4575  0.4414
 5788TIP3    H217371   4.118   5.146   1.943 -2.0915 -1.8673 -1.4527
 5789TIP3   OH217372   6.172   4.098   4.051 -0.3571 -0.3376 -0.6303
 5789TIP3    H117373   6.261   4.133   4.055  0.0097 -1.2605  2.7615
 5789TIP3    H217374   6.118   4.165   4.094 -0.7069 -1.1332  0.2175
 5790TIP3   OH217375   1.854   5.327   1.141  0.2581 -0.2644 -0.9835
 5790TIP3    H117376   1.793   5.258   1.116  0.1632  0.1780 -2.0460
 5790TIP3    H217377   1.926   5.281   1.183 -0.8874 -0.7714  0.4899
 5791TIP3   OH217378   0.292   3.123   4.144  0.1870 -0.1895 -0.3394
 5791TIP3    H117379   0.335   3.088   4.222  0.1705 -1.2836 -0.8048
 5791TIP3    H217380   0.361   3.169   4.097  0.4066 -0.3119 -0.1368
 5792TIP3   OH217381   6.144   1.985   3.934 -0.0812  0.0312  0.3471
 5792TIP3    H117382   6.189   1.902   3.921  0.7411  0.2248  1.7058
 5792TIP3    H217383   6.120   1.985   4.027 -0.4660  1.1139  0.2639
 5793TIP3   OH217384   4.092   0.960   2.917 -0.1488 -0.9968 -0.2246
 5793TIP3    H117385   4.109   1.037   2.972 -0.2374 -2.3445  1.8105
 5793TIP3    H217386   4.174   0.911   2.920 -0.2927 -1.3003 -1.0187
 5794TIP3   OH217387   5.450   3.088   0.914  0.5146 -0.0624  0.6052
 5794TIP3    H117388   5.362   3.061   0.941 -0.6022  4.0352  1.8043
 5794TIP3    H217389   5.436   3.152   0.845  2.5794  0.6874  0.8030
 5795TIP3   OH217390   0.231   5.540   4.494 -0.3938  0.3255  0.2681
 5795TIP3    H117391   0.305   5.599   4.507  1.3870 -1.3066 -1.7898
 5795TIP3    H217392   0.233   5.482   4.571  1.1424 -0.3359 -0.2340
 5796TIP3   OH217393   3.027   0.149   2.893  0.0313  0.3593  0.1361
 5796TIP3    H117394   3.057   0.239   2.879  1.0199 -0.1420 -1.2224
 5796TIP3    H217395   2.969   0.131   2.820  0.2559 -0.2788  0.1071
 5797TIP3   OH217396   4.917   2.633   2.080 -0.2969 -0.0880 -0.0817
 5797TIP3    H117397   4.886   2.547   2.050 -1.7355  0.3508  0.1037
 5797TIP3    H217398   4.850   2.695   2.051  0.4175  0.9075  0.3217
 5798TIP3   OH217399   4.523   1.046   5.175 -0.2157 -0.1530 -0.0344
 5798TIP3    H117400   4.590   0.980   5.155  1.7140  0.9871  2.1848
 5798TIP3    H217401   4.445   0.995   5.195  0.8580 -1.7187  0.3662
 5799TIP3   OH217402   5.781   1.735   2.264 -0.0544 -0.0236  0.8406
 5799TIP3    H117403   5.709   1.685   2.301  1.3033 -3.2388 -0.5099
 5799TIP3    H217404   5.855   1.719   2.322  0.6284 -0.3283 -0.0831
 5800TIP3   OH217405   2.290   1.003   1.086  0.4942 -0.1747 -0.0777
 5800TIP3    H117406   2.375   0.963   1.106 -0.0411 -0.7369  1.1713
 5800TIP3    H217407   2.309   1.096   1.075  1.4146 -0.4313 -0.8159
 5801TIP3   OH217408   1.787   2.594   0.848  0.3921 -0.3440 -0.2254
 5801TIP3    H117409   1.725   2.598   0.775  0.7795  0.3094 -0.5336
 5801TIP3    H217410   1.733   2.591   0.926 -0.0325  0.8313 -0.4652
 5802TIP3   OH217411   0.012   1.510   5.184 -0.0988  0.0150  0.2919
 5802TIP3    H117412   0.099   1.536   5.152 -0.4434  1.5084  0.5037
 5802TIP3    H217413  -0.041   1.503   5.105  0.1064 -0.5034  0.1964
 5803TIP3   OH217414   3.363   0.764   0.957  0.0371  0.1194 -0.5402
 5803TIP3    H117415   3.419   0.704   1.007 -0.1216 -0.4758 -1.0733
 5803TIP3    H217416   3.377   0.740   0.866  0.0857  0.9968 -0.7789
 5804TIP3   OH217417   0.737   3.901   4.362  0.1757 -0.4101  0.7249
 5804TIP3    H117418   0.735   3.835   4.431  0.1389 -0.7362  0.4181
 5804TIP3    H217419   0.732   3.984   4.408  0.2515 -0.6207  1.1195
 5805TIP3   OH217420   6.080   4.253   1.943  0.0182 -0.1409  0.5039
 5805TIP3    H117421   6.048   4.221   2.027 -0.1178  0.8612  0.8469
 5805TIP3    H217422   6.004   4.249   1.885  0.1406 -0.9410  0.3804
 5806TIP3   OH217423   5.140   0.333   2.223 -0.4514 -0.1500  0.4161
 5806TIP3    H117424   5.165   0.241   2.217  0.4484 -0.1609  2.9644
 5806TIP3    H217425   5.062   0.340   2.168 -0.2762 -2.3172 -0.2130
 5807TIP3   OH217426   3.611   3.818   4.736  0.4509 -0.0500  0.0786
 5807TIP3    H117427   3.686   3.768   4.703 -0.0343 -2.7355  2.6343
 5807TIP3    H217428   3.535   3.767   4.712 -0.3090  0.8404  0.5114
 5808TIP3   OH217429   2.172   0.321   3.574  0.1526 -0.0714 -0.2277
 5808TIP3    H117430   2.116   0.398   3.566  0.8009  0.3354 -0.9103
 5808TIP3    H217431   2.229   0.324   3.497  0.8134 -0.7245  0.2227
 5809TIP3   OH217432   1.948   1.764   0.557  0.1223 -0.1132 -0.2991
 5809TIP3    H117433   1.935   1.781   0.651  0.8441 -1.9904  0.1834
 5809TIP3    H217434   2.034   1.723   0.552 -0.4482 -1.2030 -1.6250
 5810TIP3   OH217435   1.542   3.190   0.052  0.2186  0.3860 -0.0329
 5810TIP3    H117436   1.512   3.268   0.006  1.3797  1.6307  1.2065
 5810TIP3    H217437   1.465   3.157   0.097 -0.4313  0.4363 -1.0794
 5811TIP3   OH217438   0.019   3.797   1.292 -0.4285  0.4319 -0.3556
 5811TIP3    H117439   0.021   3.788   1.388 -0.9000  1.5018 -0.2315
 5811TIP3    H217440   0.111   3.803   1.267 -0.2185 -1.4789 -0.1557
 5812TIP3   OH217441   4.612   0.607   2.675  0.4410  0.1603 -0.2479
 5812TIP3    H117442   4.683   0.650   2.626 -0.5433  1.3037 -0.7040
 5812TIP3    H217443   4.602   0.660   2.754  0.6546 -0.5007  0.2314
 5813TIP3   OH217444   2.326   3.602   2.820  0.0521 -0.0972  0.1761
 5813TIP3    H117445   2.292   3.688   2.794  0.7102 -0.4149 -1.9138
 5813TIP3    H217446   2.416   3.619   2.847  0.9217 -0.3439 -2.3122
 5814TIP3   OH217447   5.047   4.096   1.510 -0.3526 -0.0043  0.2075
 5814TIP3    H117448   4.989   4.075   1.438  0.8626 -1.8033 -0.3156
 5814TIP3    H217449   5.100   4.169   1.477  0.4731 -1.0730 -0.9223
 5815TIP3   OH217450   3.618   2.350   2.090  0.1008  0.9101  0.0403
 5815TIP3    H117451   3.613   2.434   2.136 -1.5096  0.0229  1.5850
 5815TIP3    H217452   3.620   2.285   2.160 -0.7969 -0.4284 -1.1350
 5816TIP3   OH217453   1.635   0.689   2.324  0.5513 -0.3977 -0.3175
 5816TIP3    H117454   1.686   0.652   2.396 -0.1527 -0.7011  0.0378
 5816TIP3    H217455   1.597   0.769   2.360  1.3788  0.2426 -0.8219
 5817TIP3   OH217456   3.076   5.300   4.264 -0.2814  0.9931 -0.0444
 5817TIP3    H117457   3.035   5.316   4.179 -2.0303 -0.7605  0.4000
 5817TIP3    H217458   3.009   5.256   4.315  2.1081 -2.0753  0.7483
 5818TIP3   OH217459   2.286   5.529   1.934 -0.0225  0.2313 -0.7608
 5818TIP3    H117460   2.335   5.456   1.896 -0.4248  0.2927 -1.4101
 5818TIP3    H217461   2.230   5.560   1.863  0.7001  1.6837 -0.7381
 5819TIP3   OH217462   6.339   5.322   4.909  0.1827  0.1391 -0.7929
 5819TIP3    H117463   6.319   5.233   4.936  2.1788 -0.2172 -0.3241
 5819TIP3    H217464   6.265   5.348   4.854 -1.0739 -1.2957  0.1408
 5820TIP3   OH217465   2.778   1.784   0.554 -0.0441  0.0660 -0.1406
 5820TIP3    H117466   2.858   1.758   0.600  0.2285  0.5593 -0.3349
 5820TIP3    H217467   2.808   1.828   0.475 -0.5111 -0.0497 -0.3875
 5821TIP3   OH217468   3.699   2.240   5.168 -0.6236 -0.4913 -0.6601
 5821TIP3    H117469   3.616   2.196   5.188 -0.3894 -1.2413 -1.2634
 5821TIP3    H217470   3.684   2.284   5.084 -0.3480 -0.8469 -0.9038
 5822TIP3   OH217471   6.217   0.349   3.611  0.0641  0.2507  0.4523
 5822TIP3    H117472   6.227   0.305   3.526 -1.2958 -1.3355  1.0421
 5822TIP3    H217473   6.200   0.440   3.589 -2.5803 -0.5161 -1.1730
 5823TIP3   OH217474   1.962   3.317   3.953  0.5399  0.0144 -0.0113
 5823TIP3    H117475   1.913   3.235   3.958  1.4273 -0.4944  0.6101
 5823TIP3    H217476   1.902   3.383   3.989 -0.0712 -0.4114 -0.2401
 5824TIP3   OH217477   6.047   4.539   1.488 -0.2831 -0.1060  0.5250
 5824TIP3    H117478   6.013   4.628   1.474 -0.2616 -0.1722  0.0387
 5824TIP3    H217479   6.096   4.545   1.570  0.9053  0.6790 -0.2094
 5825TIP3   OH217480   0.861   4.219   1.326  0.4774  0.2410  0.0746
 5825TIP3    H117481   0.906   4.302   1.311 -0.3563  1.0354  1.7152
 5825TIP3    H217482   0.769   4.237   1.308  0.4917 -0.8210 -1.2434
 5826TIP3   OH217483   4.014   3.472   3.255 -0.1782 -0.0358 -0.4894
 5826TIP3    H117484   3.983   3.382   3.262  1.2525 -0.5380 -0.3905
 5826TIP3    H217485   3.944   3.518   3.209 -1.0966 -1.0984 -0.1913
 5827TIP3   OH217486   5.897   3.311   0.681  0.1344 -0.3836 -0.0712
 5827TIP3    H117487   5.925   3.278   0.766 -1.6454 -1.3579  0.1949
 5827TIP3    H217488   5.893   3.233   0.625  1.7906  0.3103 -1.2491
 5828TIP3   OH217489   2.010   0.115   2.658 -0.2894 -0.0111 -0.2395
 5828TIP3    H117490   1.939   0.088   2.599 -1.1438  0.3767  0.5790
 5828TIP3    H217491   1.981   0.200   2.692 -1.0396 -1.3383  2.6572
 5829TIP3   OH217492   2.521   3.987   4.481 -0.3471 -0.2173 -0.0026
 5829TIP3    H117493   2.465   4.050   4.435  1.1785 -0.5667 -2.5561
 5829TIP3    H217494   2.503   3.904   4.438  1.4089 -0.5019 -0.2510
 5830TIP3   OH217495   3.265   1.007   2.305 -0.0696 -0.6177 -0.1389
 5830TIP3    H117496   3.254   0.915   2.329  1.5815 -0.3671  1.8343
 5830TIP3    H217497   3.360   1.022   2.309 -0.3796  1.4625  0.8179
 5831TIP3   OH217498   3.095   4.675   3.165 -0.1030  0.4739 -0.4476
 5831TIP3    H117499   3.088   4.706   3.255 -0.3803 -0.6167 -0.0787
 5831TIP3    H217500   3.014   4.703   3.123 -0.9499 -0.8161  0.2397
 5832TIP3   OH217501   2.050   4.220   2.633  0.5052  0.9747  0.6541
 5832TIP3    H117502   1.956   4.223   2.615 -0.0532  3.0536  3.2914
 5832TIP3    H217503   2.090   4.258   2.555 -0.9213  1.0469 -0.0775
 5833TIP3   OH217504   2.194   4.880   2.122 -0.0578 -0.0016  0.1534
 5833TIP3    H117505   2.230   4.936   2.190 -1.8095  3.1652 -1.3275
 5833TIP3    H217506   2.149   4.810   2.169 -0.2644  1.4510  2.2069
 5834TIP3   OH217507   4.171   2.079   2.474 -0.6046  0.4430 -0.2212
 5834TIP3    H117508   4.229   2.066   2.548  0.3110  0.0265 -0.9860
 5834TIP3    H217509   4.229   2.080   2.398 -1.3784  1.9864 -0.8511
 5835TIP3   OH217510   4.463   2.290   2.798  0.6441 -0.3734 -1.1212
 5835TIP3    H117511   4.370   2.301   2.777  0.3905 -0.7404 -0.2382
 5835TIP3    H217512   4.506   2.280   2.713  0.1613  1.8367 -1.6749
 5836TIP3   OH217513   3.474   5.557   5.135  0.2821  0.6363 -0.6371
 5836TIP3    H117514   3.463   5.468   5.170  1.2143  0.6114 -0.3968
 5836TIP3    H217515   3.449   5.548   5.042 -2.1903  0.7041 -0.0687
 5837TIP3   OH217516   2.246   1.084   4.672  0.6392 -0.2477  0.0515
 5837TIP3    H117517   2.274   1.055   4.759 -1.0335  0.5045  0.8851
 5837TIP3    H217518   2.178   1.149   4.689 -0.9608 -1.3258 -1.8166
 5838TIP3   OH217519   4.551   3.944   1.952 -0.2055 -0.5586  0.0649
 5838TIP3    H117520   4.584   4.011   1.892 -2.5937  0.2848 -0.4431
 5838TIP3    H217521   4.488   3.991   2.007 -0.2342 -1.9430  1.2712
 5839TIP3   OH217522   4.785   3.806   4.577  0.1589 -0.2478 -0.8398
 5839TIP3    H117523   4.853   3.858   4.620 -0.8487 -0.6353  1.3637
 5839TIP3    H217524   4.833   3.739   4.528  1.4040 -0.7653  0.9851
 5840TIP3   OH217525   5.204   2.845   4.496  0.2849  0.2762 -0.8610
 5840TIP3    H117526   5.290   2.804   4.495  0.0962 -0.1215 -0.6674
 5840TIP3    H217527   5.183   2.855   4.589 -0.1412 -0.1758 -0.9073
 5841TIP3   OH217528   3.375   4.189   2.073 -0.0506  0.1803  1.3799
 5841TIP3    H117529   3.393   4.098   2.098  1.0405  1.0623  4.1954
 5841TIP3    H217530   3.460   4.224   2.048 -0.3505  0.6218  0.9716
 5842TIP3   OH217531   0.685   2.357   5.046  0.5016  0.1332  0.3048
 5842TIP3    H117532   0.594   2.383   5.033  0.5874 -0.3565 -1.6543
 5842TIP3    H217533   0.726   2.432   5.087 -0.1991  1.4679 -1.2923
 5843TIP3   OH217534   2.859   3.509   2.801  0.2390 -0.2610  0.2384
 5843TIP3    H117535   2.947   3.512   2.763  0.7156 -0.8161  1.2444
 5843TIP3    H217536   2.874   3.492   2.894 -0.9557 -1.1755  0.2890
 5844TIP3   OH217537   2.068   0.553   5.003  0.5114  0.4695 -0.0571
 5844TIP3    H117538   2.080   0.552   5.098 -0.9030 -0.5782  0.1429
 5844TIP3    H217539   2.020   0.634   4.986 -1.5193 -0.5522  0.4864
 5845TIP3   OH217540   5.988   5.012   0.927  0.2414 -0.6004 -0.0584
 5845TIP3    H117541   6.050   5.022   1.000 -1.5061 -1.3819  1.6479
 5845TIP3    H217542   6.040   4.976   0.856  1.5195 -2.7029  1.7963
 5846TIP3   OH217543   0.077   1.822   1.026  0.6213  0.1324  0.2060
 5846TIP3    H117544  -0.004   1.829   0.974  2.7611  0.7191 -3.3925
 5846TIP3    H217545   0.070   1.892   1.091 -1.3931  0.7245 -0.5564
 5847TIP3   OH217546   4.298   1.595   4.966  0.1616 -0.1653 -0.8286
 5847TIP3    H117547   4.298   1.678   4.918 -3.4973  0.2549 -0.3370
 5847TIP3    H217548   4.366   1.543   4.923  0.0428  1.7425 -3.6047
 5848TIP3   OH217549   3.730   3.957   3.676  0.0202  0.3494 -0.3508
 5848TIP3    H117550   3.799   3.894   3.693  1.8478  2.1232 -0.8498
 5848TIP3    H217551   3.715   3.953   3.582 -2.5943 -1.9392  0.0256
 5849TIP3   OH217552   0.101   0.730   3.707  0.0874  0.4424 -0.0656
 5849TIP3    H117553   0.075   0.737   3.799 -2.5860  2.0234 -0.8545
 5849TIP3    H217554   0.105   0.635   3.690 -3.0731  0.0520  0.7857
 5850TIP3   OH217555   3.748   1.232   2.042  0.4380 -0.3070 -0.4268
 5850TIP3    H117556   3.785   1.294   1.979  1.9904  0.2446  0.9263
 5850TIP3    H217557   3.654   1.250   2.042  0.6202  0.7586 -1.4250
 5851TIP3   OH217558   2.232   1.581   1.666  0.0568  0.4324 -0.0092
 5851TIP3    H117559   2.272   1.590   1.579 -0.9434  0.0522 -0.5216
 5851TIP3    H217560   2.280   1.508   1.707 -1.9568 -2.0534 -1.7484
 5852TIP3   OH217561   3.676   1.781   1.335 -0.0589  0.1018 -0.1475
 5852TIP3    H117562   3.741   1.844   1.365  0.6909  0.7989 -2.8892
 5852TIP3    H217563   3.593   1.814   1.367  0.6489  0.6927  1.1518
 5853TIP3   OH217564   4.992   4.754   1.364 -0.2614 -0.1252  0.3618
 5853TIP3    H117565   4.899   4.778   1.371 -0.0160  0.5304  1.5497
 5853TIP3    H217566   5.030   4.824   1.312 -0.2756  0.0418  0.5756
 5854TIP3   OH217567   5.738   0.957  -0.014  0.4665  0.8534  0.1182
 5854TIP3    H117568   5.814   1.004   0.020  1.2655 -0.2577 -0.0653
 5854TIP3    H217569   5.706   0.907   0.061 -0.2399  1.4951  0.2547
 5855TIP3   OH217570   2.006   1.351   4.442  0.1275 -0.0276  0.1864
 5855TIP3    H117571   1.975   1.307   4.363  0.4490 -0.1006  0.0959
 5855TIP3    H217572   1.980   1.293   4.514 -0.6289  0.2996  0.1771
 5856TIP3   OH217573   1.920   2.916   1.472 -0.3004  0.1411  0.0447
 5856TIP3    H117574   1.973   2.923   1.552 -1.0080 -0.8135  0.6124
 5856TIP3    H217575   1.884   2.828   1.475 -1.2249  0.4774 -0.7747
 5857TIP3   OH217576   2.419   3.292   0.538  0.1132 -0.4190 -0.1670
 5857TIP3    H117577   2.398   3.218   0.481  0.3946  0.3003 -1.2403
 5857TIP3    H217578   2.500   3.328   0.501 -0.9141  1.4427 -0.7173
 5858TIP3   OH217579   5.768   0.902   4.163 -0.1701 -0.6475 -0.8250
 5858TIP3    H117580   5.731   0.842   4.228  1.2917  0.1222  0.8246
 5858TIP3    H217581   5.846   0.857   4.130  0.3342 -0.1358 -0.3692
 5859TIP3   OH217582   4.406   4.079   2.151  0.1794  0.0553  0.2038
 5859TIP3    H117583   4.357   4.114   2.226  0.4360 -0.1438  0.4622
 5859TIP3    H217584   4.488   4.128   2.152  0.8682 -1.0822  1.0271
 5860TIP3   OH217585   4.128   2.290   2.278  0.2136  0.3543  0.2308
 5860TIP3    H117586   4.135   2.206   2.323  0.6414  0.5164  0.4668
 5860TIP3    H217587   4.193   2.346   2.320 -0.9855  1.2209  0.9773
 5861TIP3   OH217588   6.036   2.273   4.224 -0.0920  0.1950  0.3005
 5861TIP3    H117589   5.965   2.258   4.287  0.2356  2.9198  1.4398
 5861TIP3    H217590   5.992   2.303   4.145 -0.2722  1.8484  0.9956
 5862TIP3   OH217591   6.158   2.521   3.923  0.5320 -0.5968 -0.2113
 5862TIP3    H117592   6.170   2.426   3.928 -0.6760 -0.7626 -0.3738
 5862TIP3    H217593   6.065   2.533   3.906  0.7884  0.6082 -0.8399
 5863TIP3   OH217594   6.104   3.391   1.431 -0.2673  0.7935  0.0883
 5863TIP3    H117595   6.185   3.346   1.408 -0.9927  0.5210 -2.2308
 5863TIP3    H217596   6.114   3.479   1.395 -1.1289  0.6319 -0.5812
 5864TIP3   OH217597   4.017   0.778   4.036  0.3770 -0.5118 -0.2543
 5864TIP3    H117598   4.071   0.818   3.968  1.4262 -0.6831  0.4631
 5864TIP3    H217599   3.975   0.704   3.992 -0.6029  0.5888 -1.2515
 5865TIP3   OH217600   1.520   4.921   1.117  0.1967 -0.2004 -0.4062
 5865TIP3    H117601   1.426   4.906   1.125 -0.0046  1.2872  0.2468
 5865TIP3    H217602   1.543   4.976   1.191  1.8002 -1.3666  0.0262
 5866TIP3   OH217603   3.323   2.919   3.292 -0.0668 -0.3687 -0.1054
 5866TIP3    H117604   3.347   2.896   3.382 -0.3800  2.9189  0.9488
 5866TIP3    H217605   3.227   2.928   3.294  0.0185  0.7511 -0.4674
 5867TIP3   OH217606   0.635   3.559   4.908 -0.0740 -0.5047 -0.4180
 5867TIP3    H117607   0.644   3.546   4.813 -1.1139 -0.4746 -0.5310
 5867TIP3    H217608   0.544   3.586   4.920  0.1996  0.0460  0.5368
 5868TIP3   OH217609   4.063   2.650   0.541 -0.2829  0.0397  0.0046
 5868TIP3    H117610   4.076   2.740   0.511 -1.2864  0.2444  0.1589
 5868TIP3    H217611   4.137   2.601   0.504 -0.2819  0.7265 -0.9262
 5869TIP3   OH217612   4.605   3.360   4.788  0.3121  0.3679 -0.6894
 5869TIP3    H117613   4.640   3.362   4.700  0.4602  2.2691 -0.6137
 5869TIP3    H217614   4.549   3.437   4.794 -0.9402 -0.5662  0.3970
 5870TIP3   OH217615   5.000   0.891   1.702  1.0558 -0.1426 -0.1506
 5870TIP3    H117616   4.920   0.935   1.731  1.6986  0.8956  0.0938
 5870TIP3    H217617   5.048   0.873   1.783  0.1539 -2.6902 -0.0863
 5871TIP3   OH217618   4.687   1.154   3.696 -0.5364  0.2244  0.1875
 5871TIP3    H117619   4.670   1.133   3.788  0.6970 -0.8053  0.2121
 5871TIP3    H217620   4.779   1.180   3.695 -0.6408  0.5696 -0.7129
 5872TIP3   OH217621   4.377   4.536   3.472 -0.0180  0.1259 -0.4575
 5872TIP3    H117622   4.404   4.450   3.442  1.3084 -0.1281  1.3469
 5872TIP3    H217623   4.281   4.529   3.480  0.1240 -1.3994  0.2925
 5873TIP3   OH217624   0.284   4.645   3.172  0.5865  0.5327  0.0250
 5873TIP3    H117625   0.256   4.602   3.091  1.1681 -0.7616  0.4834
 5873TIP3    H217626   0.319   4.730   3.143  1.5487 -0.2444 -1.1850
 5874TIP3   OH217627   1.439   4.738   2.160  0.0473 -0.2849 -0.1611
 5874TIP3    H117628   1.501   4.727   2.233 -0.4127  0.4471  0.3540
 5874TIP3    H217629   1.392   4.655   2.157  0.0588 -0.3173  0.3896
 5875TIP3   OH217630   3.445   1.813   1.519 -0.2733  0.1318  0.2764
 5875TIP3    H117631   3.438   1.719   1.535 -1.7189  0.3471  1.0853
 5875TIP3    H217632   3.490   1.848   1.596  0.7712  0.0651 -0.2745
 5876TIP3   OH217633   2.762   3.994   4.038  0.0518 -0.1557  0.3571
 5876TIP3    H117634   2.842   4.013   3.989  0.6751  1.8403  1.9997
 5876TIP3    H217635   2.793   3.954   4.119 -0.5549  0.8862  1.1307
 5877TIP3   OH217636   4.396   5.801   3.352 -0.2602  0.5014 -0.1898
 5877TIP3    H117637   4.442   5.884   3.342 -1.2839  1.3114  1.4510
 5877TIP3    H217638   4.399   5.782   3.446 -2.1184 -0.0508 -0.1867
 5878TIP3   OH217639   0.364   0.888   2.806 -0.3125  0.8236  0.0934
 5878TIP3    H117640   0.293   0.828   2.782  0.5254 -0.2991  0.3184
 5878TIP3    H217641   0.343   0.915   2.895  0.0186 -0.2397  0.5015
 5879TIP3   OH217642   6.245   5.038   3.998  0.3032 -0.3839 -0.0452
 5879TIP3    H117643   6.196   5.110   3.957 -0.9527 -1.1551  0.0572
 5879TIP3    H217644   6.264   4.978   3.926  0.5734 -0.3813  0.0223
 5880TIP3   OH217645   0.246   4.014   2.152 -0.0534  0.4460  0.0544
 5880TIP3    H117646   0.240   4.045   2.061 -0.0339  0.2467 -0.0137
 5880TIP3    H217647   0.156   4.017   2.185  0.1976  2.6961  0.7441
 5881TIP3   OH217648   0.319   1.339   1.924 -0.3479  0.1414 -0.4315
 5881TIP3    H117649   0.320   1.433   1.904  0.7303  0.3931  0.6944
 5881TIP3    H217650   0.382   1.302   1.862 -2.5483 -0.2721 -2.5768
 5882TIP3   OH217651   3.505   4.591   3.081  0.1380 -0.2315  0.2563
 5882TIP3    H117652   3.509   4.560   3.172  2.0146 -2.3904 -0.4616
 5882TIP3    H217653   3.421   4.558   3.049 -0.0239 -0.4554  0.8916
 5883TIP3   OH217654   1.197   5.407   3.171  0.4218  0.5359 -0.0671
 5883TIP3    H117655   1.148   5.455   3.237 -0.2870  2.2974 -1.7624
 5883TIP3    H217656   1.288   5.432   3.185  0.5178 -0.5263  1.3311
 5884TIP3   OH217657   5.083   0.200   3.876  0.0591  0.3056  0.2458
 5884TIP3    H117658   5.086   0.249   3.794 -0.3948 -1.6743 -1.0069
 5884TIP3    H217659   5.088   0.268   3.944  2.7688  1.8960 -1.3338
 5885TIP3   OH217660   4.464   0.181   0.496  0.8037  0.2525 -0.1089
 5885TIP3    H117661   4.514   0.132   0.561  0.2475  1.4346  1.2507
 5885TIP3    H217662   4.488   0.141   0.412  1.0620 -1.7223  0.8486
 5886TIP3   OH217663   4.666   1.757   4.549  0.1713  0.3271 -0.4269
 5886TIP3    H117664   4.755   1.790   4.563 -0.4441  1.5575  0.8275
 5886TIP3    H217665   4.678   1.672   4.506  2.0749 -0.7367  1.9602
 5887TIP3   OH217666   2.297   2.606   1.319  0.0968  0.6037 -0.3298
 5887TIP3    H117667   2.288   2.693   1.358 -0.9861  0.9507 -1.3189
 5887TIP3    H217668   2.208   2.571   1.318  0.6754 -1.0410  1.1764
 5888TIP3   OH217669   1.813   1.572   0.912 -0.8698 -0.2739  0.0201
 5888TIP3    H117670   1.771   1.627   0.978 -0.1044  0.0236  0.2752
 5888TIP3    H217671   1.750   1.568   0.840 -1.1702  0.4859  0.2306
 5889TIP3   OH217672   2.625   0.824   2.210 -0.2565  0.3551  0.6118
 5889TIP3    H117673   2.715   0.792   2.220  0.3364  1.8694  0.4831
 5889TIP3    H217674   2.606   0.815   2.117  0.1736  1.0144  0.4541
 5890TIP3   OH217675   3.707   3.461   3.340  0.0044  0.4004  0.0735
 5890TIP3    H117676   3.757   3.396   3.390  1.1320  0.8001 -0.4992
 5890TIP3    H217677   3.755   3.469   3.257 -1.5962  0.0534 -0.9199
 5891TIP3   OH217678   4.641   1.496   4.165  0.1022  0.6064  0.3658
 5891TIP3    H117679   4.552   1.520   4.140  0.2125  0.2005 -0.4387
 5891TIP3    H217680   4.641   1.401   4.167  0.6353  0.5851 -0.1254
 5892TIP3   OH217681   2.305   3.371   4.733  0.4737 -0.1088 -0.1040
 5892TIP3    H117682   2.282   3.289   4.689 -1.3328  0.3590 -0.1124
 5892TIP3    H217683   2.358   3.344   4.808  0.7481 -1.1899 -0.6715
 5893TIP3   OH217684   3.032   3.519   0.118  0.1896 -0.2253  0.7540
 5893TIP3    H117685   2.980   3.590   0.155 -1.2701 -0.3206 -0.9526
 5893TIP3    H217686   2.993   3.439   0.154 -0.0935 -0.2531  0.3931
 5894TIP3   OH217687   0.561   0.837   1.285 -0.6232 -0.2946  0.4204
 5894TIP3    H117688   0.484   0.840   1.228 -0.3019  0.8721  0.0158
 5894TIP3    H217689   0.529   0.795   1.365 -2.1851  1.7076  0.9398
 5895TIP3   OH217690   0.192   1.762   1.453 -0.4084 -0.5865  0.4603
 5895TIP3    H117691   0.153   1.676   1.439 -1.2229  0.0167 -1.1451
 5895TIP3    H217692   0.195   1.771   1.549 -0.1693 -2.4361  0.6579
 5896TIP3   OH217693   0.252   3.432   1.583  0.1332 -0.3884 -0.3628
 5896TIP3    H117694   0.283   3.424   1.492 -1.2523  0.0498 -0.9095
 5896TIP3    H217695   0.215   3.346   1.603  1.3399 -0.8057  0.1702
 5897TIP3   OH217696   5.290   0.766   4.247  0.0359  0.3958  0.2337
 5897TIP3    H117697   5.197   0.751   4.267  0.2301 -0.8513  0.2612
 5897TIP3    H217698   5.316   0.835   4.308 -0.7001  0.2683  0.7115
 5898TIP3   OH217699   0.442   0.514   4.940 -0.5371 -0.2135  0.8175
 5898TIP3    H117700   0.444   0.514   4.844 -1.6260 -0.9084  0.7854
 5898TIP3    H217701   0.428   0.422   4.964  0.7890 -0.2233  1.6863
 5899TIP3   OH217702   1.382   2.596   4.955  0.3030  0.0628  0.8012
 5899TIP3    H117703   1.315   2.541   4.997  0.8159 -0.0113  1.5337
 5899TIP3    H217704   1.403   2.549   4.874 -0.4375  0.0208  0.6219
 5900TIP3   OH217705   0.787   1.005   4.473 -0.2334 -0.0888  0.5067
 5900TIP3    H117706   0.741   0.923   4.491  0.6328 -0.5429  0.6879
 5900TIP3    H217707   0.813   1.037   4.559  0.7397 -0.4016  0.3385
 5901TIP3   OH217708   2.781   0.872   0.802 -0.4418  0.2139  0.4988
 5901TIP3    H117709   2.820   0.833   0.724 -0.8894 -0.4868  0.6181
 5901TIP3    H217710   2.857   0.894   0.857 -0.1747 -1.2203  0.7674
 5902TIP3   OH217711   3.231   3.342   0.962  0.7036  0.0184 -0.2738
 5902TIP3    H117712   3.298   3.406   0.936  0.7051  0.3078  0.4376
 5902TIP3    H217713   3.161   3.353   0.898 -0.1010  2.0054  0.8990
 5903TIP3   OH217714   0.521   3.489   1.639 -0.2417 -0.1839 -0.3335
 5903TIP3    H117715   0.554   3.571   1.676 -0.6024 -0.2601  0.1649
 5903TIP3    H217716   0.444   3.514   1.589 -0.3839 -0.2285 -0.1353
 5904TIP3   OH217717   2.026   3.824   5.083 -0.0276  0.0221  0.2917
 5904TIP3    H117718   1.991   3.776   5.008  2.3641  0.0752 -0.9376
 5904TIP3    H217719   1.982   3.909   5.080 -0.5281 -0.2577 -0.5820
 5905TIP3   OH217720   1.998   3.543   2.225 -0.1882 -0.4181  0.0036
 5905TIP3    H117721   2.008   3.519   2.317 -1.0462  1.4848  0.6251
 5905TIP3    H217722   1.943   3.621   2.225 -0.1834 -0.3411 -2.1282
 5906TIP3   OH217723   0.830   1.472   4.284  0.3233  0.0339 -0.1218
 5906TIP3    H117724   0.781   1.517   4.215 -1.2593 -0.2447  0.7847
 5906TIP3    H217725   0.766   1.415   4.327  1.2660  0.1627  1.5492
 5907TIP3   OH217726   4.226   0.497   0.066  0.4118  0.2146 -0.1765
 5907TIP3    H117727   4.134   0.521   0.074  0.4945  0.2982  0.5504
 5907TIP3    H217728   4.241   0.493  -0.029 -0.6145 -0.8576 -0.3310
 5908TIP3   OH217729   5.623   3.907   4.330 -0.0351 -0.4896 -0.1732
 5908TIP3    H117730   5.633   3.812   4.325  1.4708 -0.4098  0.7750
 5908TIP3    H217731   5.558   3.928   4.262  0.0523 -2.1161 -0.7990
 5909TIP3   OH217732   0.555   3.467   2.795 -0.1913 -0.0879  0.3167
 5909TIP3    H117733   0.559   3.446   2.888 -2.8450  1.0185  0.7691
 5909TIP3    H217734   0.524   3.386   2.754  2.9677 -1.2671 -0.0164
 5910TIP3   OH217735   2.745   5.069   2.469 -0.3082  0.1706  0.4365
 5910TIP3    H117736   2.775   4.999   2.411  0.6571  0.4552  0.5656
 5910TIP3    H217737   2.655   5.086   2.443  0.1347  0.3745 -1.0696
 5911TIP3   OH217738   5.893   0.576   3.420 -0.0290  0.3419 -0.2457
 5911TIP3    H117739   5.877   0.560   3.513 -0.2052 -0.0245 -0.3362
 5911TIP3    H217740   5.956   0.648   3.418 -0.3403  0.6243  0.1486
 5912TIP3   OH217741   3.025   2.555   1.459  0.1554 -0.3548  0.4024
 5912TIP3    H117742   3.043   2.484   1.521  0.8376  0.7278  1.4990
 5912TIP3    H217743   3.110   2.575   1.420  0.0417  0.1336  0.4040
 5913TIP3   OH217744   1.565   2.486   1.376 -0.0677 -0.2735  0.4204
 5913TIP3    H117745   1.484   2.437   1.357 -0.4208  0.7854 -1.0052
 5913TIP3    H217746   1.538   2.552   1.440 -0.1396 -0.4367  0.5605
 5914TIP3   OH217747   5.573   2.642   3.983  0.3825 -0.1023 -0.0415
 5914TIP3    H117748   5.635   2.704   4.023  0.8461  0.8870 -2.1707
 5914TIP3    H217749   5.499   2.696   3.957  1.0048 -0.2795 -2.3856
 5915TIP3   OH217750   1.689   1.717   0.302 -0.0625 -0.2183  0.2810
 5915TIP3    H117751   1.713   1.626   0.315  1.5300  0.2294  0.7027
 5915TIP3    H217752   1.752   1.749   0.236 -0.2623  0.6979  0.5196
 5916TIP3   OH217753   1.257   4.757   0.758 -0.0427 -0.0735 -0.0033
 5916TIP3    H117754   1.343   4.723   0.735  0.7447  3.1930 -2.7035
 5916TIP3    H217755   1.195   4.703   0.709  1.0126  1.1547 -2.8711
 5917TIP3   OH217756   3.912   4.716   2.105  0.1239  0.3726 -0.2808
 5917TIP3    H117757   3.849   4.711   2.034 -0.4440 -0.7840  0.2732
 5917TIP3    H217758   3.993   4.678   2.070  0.2544  1.0159 -0.7002
 5918TIP3   OH217759   2.443   4.188   4.265 -0.4306 -0.2365  0.2763
 5918TIP3    H117760   2.351   4.214   4.261  0.4709  3.4690 -0.7203
 5918TIP3    H217761   2.453   4.123   4.196 -2.1475 -0.1102 -0.1399
 5919TIP3   OH217762   2.196   2.635   4.052  0.2491 -0.1750 -0.0808
 5919TIP3    H117763   2.209   2.595   3.966  2.1888  0.5672 -0.1803
 5919TIP3    H217764   2.115   2.685   4.042  0.2891 -0.3137 -1.3848
 5920TIP3   OH217765   1.384   1.638   0.915 -0.7406  0.4783  0.8354
 5920TIP3    H117766   1.425   1.658   0.999  1.3412 -1.8992  0.5106
 5920TIP3    H217767   1.312   1.578   0.937 -0.3672  0.0715  0.9741
 5921TIP3   OH217768   5.856   2.607   4.577  0.0482 -0.1018 -0.1050
 5921TIP3    H117769   5.882   2.653   4.497  1.5026  0.8791  0.8717
 5921TIP3    H217770   5.783   2.658   4.612  0.8921  0.8416  0.3529
 5922TIP3   OH217771   0.308   3.379   2.105  0.1902 -0.8635 -0.0698
 5922TIP3    H117772   0.282   3.333   2.025 -0.2485  2.5308 -2.1224
 5922TIP3    H217773   0.251   3.457   2.106  0.0408 -0.8483  3.7349
 5923TIP3   OH217774   2.859   4.377   4.900 -0.1485  0.3645  0.4570
 5923TIP3    H117775   2.930   4.434   4.871 -0.5757  0.0869 -1.2044
 5923TIP3    H217776   2.779   4.425   4.876 -0.5189 -0.9766 -1.1636
 5924TIP3   OH217777   1.878   5.747   3.850  0.5291  0.5649  0.2363
 5924TIP3    H117778   1.973   5.753   3.840  0.4277  0.0882 -1.1423
 5924TIP3    H217779   1.853   5.669   3.800 -0.5537  0.5061  0.8461
 5925TIP3   OH217780   4.487   0.777   3.575  0.6849  0.1308 -0.4731
 5925TIP3    H117781   4.576   0.741   3.571  1.2129  1.1752  0.8054
 5925TIP3    H217782   4.470   0.787   3.669 -1.3757 -1.3604 -0.6238
 5926TIP3   OH217783   0.688   1.440   1.405  0.8923  0.5604 -0.4347
 5926TIP3    H117784   0.732   1.483   1.330 -0.1376  0.7228 -0.9591
 5926TIP3    H217785   0.758   1.390   1.447  1.5083  0.5025 -1.4775
 5927TIP3   OH217786   0.075   0.435   0.760 -0.2353  0.3874 -0.4054
 5927TIP3    H117787   0.084   0.395   0.847 -0.6830  2.4485  0.6590
 5927TIP3    H217788   0.133   0.384   0.704  1.8742  0.3959  1.6178
 5928TIP3   OH217789   3.602   2.324   3.624 -0.1679 -0.1125 -0.5918
 5928TIP3    H117790   3.561   2.360   3.546 -0.1106  1.5513  0.1122
 5928TIP3    H217791   3.695   2.315   3.601 -0.0994  0.6460 -0.6249
 5929TIP3   OH217792   6.141   1.799   0.935  0.1151  0.3944  0.2686
 5929TIP3    H117793   6.090   1.718   0.942 -0.8778  1.0843  1.6150
 5929TIP3    H217794   6.075   1.867   0.917  1.0841  0.7501 -2.5005
 5930TIP3   OH217795   1.055   3.411   0.431  0.0996 -0.3093  0.5221
 5930TIP3    H117796   0.987   3.392   0.495 -0.8389  0.3202 -0.2626
 5930TIP3    H217797   1.084   3.500   0.453 -0.3332 -0.0330 -0.0115
 5931TIP3   OH217798   3.784   5.680   0.962  0.7094  0.2647 -0.0546
 5931TIP3    H117799   3.706   5.720   0.925 -1.4499 -2.5732  1.0687
 5931TIP3    H217800   3.856   5.737   0.934 -1.3459  1.3977 -3.6825
 5932TIP3   OH217801   2.938   3.719   3.617 -0.4906  0.4583  0.1247
 5932TIP3    H117802   2.885   3.659   3.670  1.1050 -0.4151  0.7903
 5932TIP3    H217803   3.027   3.709   3.650  0.0845  2.0412 -0.8284
 5933TIP3   OH217804   2.882   5.817   3.994 -0.0438 -0.2058 -0.0999
 5933TIP3    H117805   2.832   5.745   3.954  0.3799  0.9638 -3.0187
 5933TIP3    H217806   2.965   5.778   4.019 -1.3562 -1.6167  2.5004
 5934TIP3   OH217807   6.359   5.897   3.755 -0.3556 -0.1083 -0.3120
 5934TIP3    H117808   6.300   5.822   3.763 -0.1937 -0.3405 -1.2120
 5934TIP3    H217809   6.423   5.871   3.690  0.8544  0.0815  0.7613
 5935TIP3   OH217810   1.453   5.437   4.816  0.1204  0.7929  0.4377
 5935TIP3    H117811   1.379   5.487   4.782  0.4357 -0.0150 -1.6157
 5935TIP3    H217812   1.472   5.477   4.901 -1.3693  2.3305  0.1148
 5936TIP3   OH217813   2.744   2.630   3.983  0.0214 -0.5927 -0.7086
 5936TIP3    H117814   2.729   2.546   4.027 -1.1081 -1.0712 -1.9575
 5936TIP3    H217815   2.803   2.677   4.042 -0.7736 -1.5372  0.9131
 5937TIP3   OH217816   6.078   4.616   3.263 -0.0537 -0.2195  0.5380
 5937TIP3    H117817   5.996   4.567   3.255  1.2901 -2.8955  1.6626
 5937TIP3    H217818   6.073   4.658   3.349  0.8437 -2.8479  1.9843
 5938TIP3   OH217819   3.933   4.632   4.802  0.3185  0.2611 -0.3163
 5938TIP3    H117820   3.911   4.539   4.811 -1.3607  0.6824  0.4569
 5938TIP3    H217821   3.903   4.655   4.714 -1.3486  0.5313  0.2733
 5939TIP3   OH217822   4.056   5.080   5.117 -0.7235  0.4814  0.4398
 5939TIP3    H117823   4.111   5.047   5.046  1.3162  1.3907  1.5096
 5939TIP3    H217824   3.969   5.046   5.098 -0.0862  0.0853 -2.0696
 5940TIP3   OH217825   3.187   5.812   0.060 -0.7071  0.0007  0.1286
 5940TIP3    H117826   3.094   5.830   0.063 -0.5179  1.5491 -1.6122
 5940TIP3    H217827   3.203   5.777  -0.028  0.4573  0.5202  0.1063
 5941TIP3   OH217828   0.372   5.659   1.097  0.3896 -0.1928 -0.5670
 5941TIP3    H117829   0.464   5.668   1.122  0.1998 -1.2328  0.6005
 5941TIP3    H217830   0.374   5.643   1.002  1.4978 -1.3645 -0.3719
 5942TIP3   OH217831   2.653   1.634   0.234  0.5139  0.1028 -0.0148
 5942TIP3    H117832   2.617   1.546   0.247 -0.2918  0.3155 -0.7253
 5942TIP3    H217833   2.704   1.627   0.154 -0.2931  0.4897 -0.5756
 5943TIP3   OH217834   0.673   2.467   1.283 -0.0992  0.5101 -0.5243
 5943TIP3    H117835   0.606   2.446   1.217 -0.9780 -2.9795  1.2589
 5943TIP3    H217836   0.755   2.434   1.246 -0.5390 -1.1551 -0.0928
 5944TIP3   OH217837   0.430   0.449   3.255 -0.4868  0.3982 -0.4948
 5944TIP3    H117838   0.470   0.493   3.330 -0.8634 -0.5984  0.3131
 5944TIP3    H217839   0.379   0.517   3.211  0.5256  1.2182 -0.4174
 5945TIP3   OH217840   5.884   0.670   1.749  0.2871  0.6129  0.6102
 5945TIP3    H117841   5.967   0.690   1.791  1.8359  0.5703 -2.2238
 5945TIP3    H217842   5.906   0.613   1.675 -2.3924 -0.2207  0.3223
 5946TIP3   OH217843   5.748   1.496   4.362 -0.0658 -0.7484  0.3835
 5946TIP3    H117844   5.682   1.454   4.306 -0.3479 -1.5165  1.2591
 5946TIP3    H217845   5.830   1.484   4.315 -0.4026 -0.7101 -0.2273
 5947TIP3   OH217846   1.348   5.034   3.303  0.4744 -0.3512  0.2213
 5947TIP3    H117847   1.269   5.038   3.249  0.3236  0.8088  0.5102
 5947TIP3    H217848   1.411   4.986   3.248 -0.3885 -1.2527 -0.0288
 5948TIP3   OH217849   0.974   2.882   0.927 -0.8102 -0.3973  0.3284
 5948TIP3    H117850   1.020   2.952   0.973 -1.5361 -0.6179  1.4220
 5948TIP3    H217851   1.039   2.846   0.866 -0.3359  0.9934 -0.0084
 5949TIP3   OH217852   5.174   0.998   3.656 -0.3183  0.5775  0.2027
 5949TIP3    H117853   5.204   1.023   3.743  0.5417  1.5194 -0.3409
 5949TIP3    H217854   5.118   1.070   3.628  0.0542  0.6575 -0.3438
 5950TIP3   OH217855   4.701   3.233   1.872 -0.1075 -0.2719 -0.0658
 5950TIP3    H117856   4.770   3.262   1.932 -0.6323 -0.3457  0.5853
 5950TIP3    H217857   4.731   3.149   1.840  1.2648  0.7896 -1.6947
 5951TIP3   OH217858   1.091   4.581   3.964 -0.3798 -0.1479 -0.0814
 5951TIP3    H117859   1.132   4.590   3.878 -2.0162 -0.1802 -0.9127
 5951TIP3    H217860   1.071   4.488   3.971  1.9988 -0.6216  1.4800
 5952TIP3   OH217861   0.236   2.958   4.950 -0.8002  0.7812  0.1694
 5952TIP3    H117862   0.284   3.011   4.886  0.7737 -0.3973  0.2950
 5952TIP3    H217863   0.213   3.019   5.020  1.6859  1.2050  0.7051
 5953TIP3   OH217864   3.381   0.446   4.607 -0.4831 -0.1872  0.7986
 5953TIP3    H117865   3.362   0.539   4.595 -1.7251 -0.4848  0.3019
 5953TIP3    H217866   3.442   0.426   4.536 -2.0170 -0.2409 -0.5801
 5954TIP3   OH217867   3.986   3.156   2.385 -0.0076 -0.1633 -0.0829
 5954TIP3    H117868   3.971   3.142   2.291 -1.1485 -3.1372  0.4371
 5954TIP3    H217869   4.007   3.249   2.392  2.0170 -0.1957 -3.4903
 5955TIP3   OH217870   5.243   3.019   4.231 -0.0889 -0.2389 -0.4019
 5955TIP3    H117871   5.238   2.973   4.315 -0.6869  2.1854  0.9932
 5955TIP3    H217872   5.336   3.026   4.213  0.1107  0.2281  0.6974
 5956TIP3   OH217873   4.517   4.810   3.829  0.4519  0.2846 -0.2047
 5956TIP3    H117874   4.566   4.843   3.904 -0.4327 -1.8351  1.4261
 5956TIP3    H217875   4.429   4.847   3.839  0.6399  0.9384 -0.8887
 5957TIP3   OH217876   1.348   3.037   4.188 -0.2297 -0.4659  0.0751
 5957TIP3    H117877   1.442   3.024   4.199 -0.3575 -1.5918 -0.0716
 5957TIP3    H217878   1.329   3.118   4.235  1.0413  0.5356 -1.0518
 5958TIP3   OH217879   3.841   3.412   3.865  0.2092  0.3556 -0.4363
 5958TIP3    H117880   3.894   3.380   3.938  0.0942 -0.3760 -0.6678
 5958TIP3    H217881   3.863   3.505   3.859  0.9268  0.2189 -0.0794
 5959TIP3   OH217882   3.907   5.447   1.244  0.7747  0.0245 -0.2777
 5959TIP3    H117883   3.836   5.511   1.239 -0.1066 -0.8605  0.6067
 5959TIP3    H217884   3.886   5.382   1.177  0.6644 -0.3239  0.0946
 5960TIP3   OH217885   2.998   5.545   2.839  0.0336 -0.4899 -0.3080
 5960TIP3    H117886   2.927   5.602   2.868 -0.7821 -1.6120 -0.0546
 5960TIP3    H217887   3.058   5.604   2.793 -0.1261  0.8080  1.0664
 5961TIP3   OH217888   1.643   1.985   2.176 -0.1435  0.3311  0.1051
 5961TIP3    H117889   1.730   1.968   2.139  0.0856 -0.2684  0.9110
 5961TIP3    H217890   1.646   2.077   2.202  0.3976  0.1976  0.5208
 5962TIP3   OH217891   3.259   2.677   5.098 -0.3479  0.2007 -0.4299
 5962TIP3    H117892   3.206   2.742   5.051 -1.9758 -0.6353  0.1656
 5962TIP3    H217893   3.348   2.691   5.066 -1.1745  0.4844 -2.8452
 5963TIP3   OH217894   2.788   4.513   1.221 -0.2439  0.6345  0.3297
 5963TIP3    H117895   2.703   4.544   1.188 -0.0802 -0.4254 -1.2368
 5963TIP3    H217896   2.829   4.590   1.259 -2.1280  1.0491  1.6352
 5964TIP3   OH217897   0.882   1.719   4.544 -0.4122  0.3632  0.3331
 5964TIP3    H117898   0.855   1.652   4.606 -0.1317 -0.6406 -0.6101
 5964TIP3    H217899   0.933   1.673   4.478 -1.6827  1.1807 -1.2981
 5965TIP3   OH217900   5.295   5.870   0.695 -0.1572 -0.6778 -0.3132
 5965TIP3    H117901   5.247   5.814   0.635 -1.1480  0.8024 -0.9640
 5965TIP3    H217902   5.288   5.958   0.657  2.7122 -0.2988 -0.2179
 5966TIP3   OH217903   4.521   4.612   4.808  0.4586 -0.4093  0.2271
 5966TIP3    H117904   4.476   4.639   4.888 -0.6780 -2.3438  0.3015
 5966TIP3    H217905   4.473   4.654   4.737 -0.6397 -1.3319  0.3966
 5967TIP3   OH217906   0.214   3.669   4.243 -0.2061 -0.6502 -0.2548
 5967TIP3    H117907   0.275   3.638   4.176 -1.3424 -0.6925 -1.3172
 5967TIP3    H217908   0.230   3.764   4.247 -0.1307 -0.6427 -0.6151
 5968TIP3   OH217909   6.281   0.514   4.500 -0.9142 -0.6773 -0.7125
 5968TIP3    H117910   6.350   0.448   4.511  1.3368  1.5720 -0.4439
 5968TIP3    H217911   6.246   0.526   4.588  0.0640 -0.1223 -0.3844
 5969TIP3   OH217912   2.465   5.111   2.425  0.5076 -0.5477  0.3636
 5969TIP3    H117913   2.412   5.054   2.481 -0.1076  1.0863  1.5291
 5969TIP3    H217914   2.410   5.127   2.348 -0.2249  0.1471  1.0058
 5970TIP3   OH217915   6.285   0.416   1.359  0.0764  0.3485  0.2623
 5970TIP3    H117916   6.257   0.368   1.437 -0.8494 -0.3430 -0.4683
 5970TIP3    H217917   6.355   0.363   1.322  0.3980  0.5871  0.5277
 5971TIP3   OH217918   4.985   0.574   1.724  0.0328  0.8170 -0.2389
 5971TIP3    H117919   5.038   0.565   1.645 -0.8152  1.3674 -0.8799
 5971TIP3    H217920   4.988   0.487   1.765 -1.5557 -0.2249 -2.1799
 5972TIP3   OH217921   5.579   3.019   1.149 -0.1991 -0.0297 -0.7460
 5972TIP3    H117922   5.551   2.950   1.210 -0.0326  0.7853  0.2912
 5972TIP3    H217923   5.529   3.002   1.069 -0.6469 -0.9583 -0.2856
 5973TIP3   OH217924   1.886   2.791   4.334 -0.1474  0.3828  0.3678
 5973TIP3    H117925   1.863   2.702   4.309  0.5610  0.0586  0.8395
 5973TIP3    H217926   1.980   2.798   4.314 -0.1824  1.0053  0.3871
 5974TIP3   OH217927   5.785   2.817   1.554 -0.4272  0.6390 -0.0588
 5974TIP3    H117928   5.804   2.737   1.504 -1.8055  1.0524 -1.3347
 5974TIP3    H217929   5.789   2.789   1.645  0.5486 -0.5376 -0.4257
 5975TIP3   OH217930   3.657   0.326   1.046 -0.0455  0.5970 -0.1742
 5975TIP3    H117931   3.571   0.282   1.048  0.1931  0.1399  0.4368
 5975TIP3    H217932   3.697   0.303   1.130  0.6982  0.7656 -0.4769
 5976TIP3   OH217933   4.871   4.415   3.443  0.5278  0.0637 -0.8599
 5976TIP3    H117934   4.821   4.345   3.484  2.3197 -1.3464 -0.9895
 5976TIP3    H217935   4.843   4.495   3.489  0.5969 -1.1181  1.3550
 5977TIP3   OH217936   1.779   1.887   4.571 -0.1905 -0.1604  0.4347
 5977TIP3    H117937   1.731   1.969   4.572 -0.5884 -0.3054 -1.8160
 5977TIP3    H217938   1.754   1.843   4.653  1.1485  2.4855  2.4354
 5978TIP3   OH217939   0.888   2.251   4.103 -0.2727 -0.0901  0.0170
 5978TIP3    H117940   0.933   2.328   4.066 -0.2950 -0.6922 -1.3134
 5978TIP3    H217941   0.851   2.283   4.186 -0.0780  1.2752 -0.3891
 5979TIP3   OH217942   3.595   2.135   1.902  0.4146  0.2579  0.4266
 5979TIP3    H117943   3.530   2.127   1.972 -1.0109  0.7115 -0.7953
 5979TIP3    H217944   3.653   2.205   1.932  0.8404 -0.6703  1.8921
 5980TIP3   OH217945   2.022   0.507   2.014 -0.2967  0.1551 -0.2592
 5980TIP3    H117946   2.076   0.579   1.981  0.4525  1.1045  2.6881
 5980TIP3    H217947   1.941   0.549   2.045 -0.3749 -0.4158  0.3526
 5981TIP3   OH217948   3.654   0.094   4.130 -0.3257  0.4340  0.3774
 5981TIP3    H117949   3.735   0.046   4.143 -0.7180 -0.1792  0.6132
 5981TIP3    H217950   3.656   0.121   4.038  1.1405  2.3199  0.9045
 5982TIP3   OH217951   0.345   1.568   0.118 -0.3080  0.0000 -0.1739
 5982TIP3    H117952   0.437   1.591   0.128 -0.9457  2.4880  0.8259
 5982TIP3    H217953   0.340   1.475   0.141  1.7950  0.0260  0.5805
 5983TIP3   OH217954   3.395   3.700   3.905  0.0524  0.2805 -0.8385
 5983TIP3    H117955   3.451   3.623   3.889  0.2724  0.3200 -0.2651
 5983TIP3    H217956   3.394   3.710   4.000 -0.7307  0.4376 -0.8605
 5984TIP3   OH217957   2.063   1.289   1.069 -0.0255 -0.2247  0.0018
 5984TIP3    H117958   2.155   1.303   1.091 -0.4913  1.4075  1.1123
 5984TIP3    H217959   2.064   1.238   0.988  1.8364 -3.2344  1.7399
 5985TIP3   OH217960   1.131   5.845   4.604 -0.2946 -0.1348 -0.4147
 5985TIP3    H117961   1.195   5.907   4.569 -1.9028  0.7227 -1.9578
 5985TIP3    H217962   1.112   5.878   4.692  0.3186  0.4058 -0.4732
 5986TIP3   OH217963   2.278   2.160   3.929 -0.1938  0.8800 -0.3914
 5986TIP3    H117964   2.325   2.103   3.869 -2.2493 -1.5539  0.1273
 5986TIP3    H217965   2.192   2.173   3.889 -0.6132  1.5993  0.6714
 5987TIP3   OH217966   1.791   3.704   2.249  0.0912 -0.1996  0.1599
 5987TIP3    H117967   1.706   3.667   2.270 -0.3244  0.4288 -0.3735
 5987TIP3    H217968   1.779   3.746   2.164  0.7178  0.5550  0.4248
 5988TIP3   OH217969   2.819   2.406   2.170 -0.5606 -0.7294 -0.1562
 5988TIP3    H117970   2.873   2.330   2.193 -0.9565 -0.5740  1.4475
 5988TIP3    H217971   2.868   2.481   2.202 -1.6366 -0.5819  1.2628
 5989TIP3   OH217972   0.663   1.331   0.530  0.1468 -0.7321  0.0200
 5989TIP3    H117973   0.686   1.239   0.543 -1.0105 -1.0098  0.2044
 5989TIP3    H217974   0.720   1.378   0.590  0.0599 -1.4185  0.6638
 5990TIP3   OH217975   2.375   5.957   2.399  0.3945  0.1180 -0.1198
 5990TIP3    H117976   2.312   6.003   2.454 -0.2141 -2.0988  1.1626
 5990TIP3    H217977   2.447   5.934   2.457  0.4955 -0.8569 -0.6064
 5991TIP3   OH217978   2.192   3.042   0.798 -0.0745 -0.4690 -0.0827
 5991TIP3    H117979   2.270   2.996   0.830 -0.8525 -1.3642  0.5816
 5991TIP3    H217980   2.192   3.125   0.845 -0.8477 -1.4966  1.8580
 5992TIP3   OH217981   2.103   5.335   3.657 -0.0377  0.2243  0.1275
 5992TIP3    H117982   2.026   5.297   3.614  0.7198 -1.6565  0.3177
 5992TIP3    H217983   2.069   5.367   3.741 -0.6633 -0.3496  0.1054
 5993TIP3   OH217984   0.062   4.723   1.776  0.4021 -0.2227 -0.5317
 5993TIP3    H117985   0.085   4.709   1.868 -0.0841  0.7948 -0.2486
 5993TIP3    H217986   0.125   4.788   1.745 -1.0521  1.4204 -0.1743
 5994TIP3   OH217987   3.534   3.306   4.506  0.1306 -0.5015  0.1729
 5994TIP3    H117988   3.532   3.314   4.411 -1.8677 -0.5677  0.1578
 5994TIP3    H217989   3.444   3.284   4.530  0.7732 -1.3527  2.0163
 5995TIP3   OH217990   5.739   3.804   3.742 -0.0491 -0.3828 -0.1113
 5995TIP3    H117991   5.728   3.848   3.826  1.0466 -1.2401  0.5081
 5995TIP3    H217992   5.680   3.851   3.683  1.0222  1.8610  0.5051
 5996TIP3   OH217993   0.796   3.502   1.289  0.1517  0.2327  0.4779
 5996TIP3    H117994   0.707   3.536   1.289 -0.3329 -0.9872  0.2411
 5996TIP3    H217995   0.844   3.561   1.229 -0.2379  1.4559  1.3251
 5997TIP3   OH217996   0.654   4.949   4.042  0.2194  0.5615 -0.1525
 5997TIP3    H117997   0.669   5.025   3.985 -1.7833  1.6492  0.6539
 5997TIP3    H217998   0.562   4.956   4.067  0.6324 -0.7424  1.9787
 5998TIP3   OH217999   0.248   0.394   1.007  0.0150 -0.2848 -0.0966
 5998TIP3    H118000   0.325   0.347   0.976 -0.2067 -1.8600  1.5842
 5998TIP3    H218001   0.210   0.337   1.074 -1.2201  1.5715  0.8723
 5999TIP3   OH218002   4.368   5.744   4.884 -0.6337  0.6330  0.0446
 5999TIP3    H118003   4.407   5.734   4.971 -2.3785 -1.6313  0.6697
 5999TIP3    H218004   4.276   5.722   4.896 -1.1449  1.2326 -2.2248
 6000TIP3   OH218005   4.182   5.681   3.013 -0.2373 -0.5145 -0.4302
 6000TIP3    H118006   4.107   5.706   2.959  1.0418 -1.3323 -2.6704
 6000TIP3    H218007   4.222   5.765   3.038 -0.6765 -0.1274 -0.9918
 6001TIP3   OH218008   2.938   3.663   3.220 -0.1306  0.1127 -0.2375
 6001TIP3    H118009   2.850   3.638   3.247  0.0916 -0.0231  0.3654
 6001TIP3    H218010   2.991   3.584   3.231 -0.0457  0.0196 -1.1588
 6002TIP3   OH218011   2.096   0.808   2.574  0.4102 -0.0257  0.0568
 6002TIP3    H118012   2.182   0.850   2.571  0.6195 -0.4564 -0.0524
 6002TIP3    H218013   2.034   0.878   2.555  0.7618  0.2154 -0.2072
 6003TIP3   OH218014   6.000   0.333   1.395  0.0158 -0.0231 -0.2427
 6003TIP3    H118015   6.001   0.350   1.300  0.1028 -0.1348 -0.2620
 6003TIP3    H218016   6.091   0.311   1.416  0.0662  0.3655 -0.0661
 6004TIP3   OH218017   1.682   3.192   4.144 -0.6779 -0.1332 -0.2850
 6004TIP3    H118018   1.745   3.262   4.162  0.5911 -1.2524 -0.1578
 6004TIP3    H218019   1.615   3.233   4.090  1.1885  0.6916 -2.1023
 6005TIP3   OH218020   5.039   0.111   2.813  0.0834 -0.2150  0.7861
 6005TIP3    H118021   5.089   0.079   2.888  0.5982  0.0743  0.5679
 6005TIP3    H218022   5.084   0.191   2.786  0.2380 -0.6164 -0.1857
 6006TIP3   OH218023   3.248   4.386   1.892 -0.0750 -0.2282  0.2340
 6006TIP3    H118024   3.333   4.401   1.933  0.6483  0.0448 -1.2905
 6006TIP3    H218025   3.249   4.440   1.813 -1.8684  0.1449  0.4233
 6007TIP3   OH218026   6.297   0.133   0.176  0.1439  0.0624  0.4707
 6007TIP3    H118027   6.346   0.063   0.219 -0.0910 -0.1733  0.3560
 6007TIP3    H218028   6.298   0.206   0.239 -1.0476 -0.6096  1.2887
 6008TIP3   OH218029   2.488   5.639   1.189  0.4224  0.1611 -0.4597
 6008TIP3    H118030   2.413   5.653   1.246  1.3174 -0.1923  0.8419
 6008TIP3    H218031   2.454   5.585   1.117 -1.0719  1.8608 -1.1083
 6009TIP3   OH218032   1.897   3.959   3.110 -0.4364  0.7249  0.1878
 6009TIP3    H118033   1.973   3.928   3.159  0.2518  2.4245  0.2892
 6009TIP3    H218034   1.919   4.050   3.087 -2.0536  0.9640 -0.5779
 6010TIP3   OH218035   2.882   1.407   3.122  0.3840  0.6898 -0.3957
 6010TIP3    H118036   2.881   1.316   3.090  0.1406  0.0039  1.4604
 6010TIP3    H218037   2.803   1.446   3.085  0.6628  0.2679 -1.4890
 6011TIP3   OH218038   6.240   5.899   4.637 -0.4815  0.2181  0.7379
 6011TIP3    H118039   6.182   5.917   4.563  0.5465  1.9619  0.3042
 6011TIP3    H218040   6.266   5.808   4.626 -1.5938  0.0018 -0.1565
 6012TIP3   OH218041   5.664   0.509   3.247 -0.5403  0.0915 -0.3497
 6012TIP3    H118042   5.649   0.417   3.268 -1.3389  0.5990  1.4579
 6012TIP3    H218043   5.739   0.535   3.301  1.1301 -0.0036 -2.4698
 6013TIP3   OH218044   3.621   1.429   1.061  0.0117  0.0797 -0.2512
 6013TIP3    H118045   3.597   1.521   1.061 -0.0240  0.0864  0.7369
 6013TIP3    H218046   3.548   1.385   1.104  1.6487  0.1104  2.8942
 6014TIP3   OH218047   4.138   0.134   1.348  0.3904 -0.6785 -0.3878
 6014TIP3    H118048   4.081   0.178   1.411  0.4772  0.2456 -0.9385
 6014TIP3    H218049   4.095   0.148   1.264  0.6923 -1.2148 -0.6315
 6015TIP3   OH218050   3.565   1.301   1.661  0.7376 -0.0473  0.3290
 6015TIP3    H118051   3.486   1.252   1.640  0.0787  1.1259 -0.0555
 6015TIP3    H218052   3.629   1.273   1.596  0.1205  0.1882 -0.3970
 6016TIP3   OH218053   5.509   4.744   2.159  0.2641 -0.2191  0.3733
 6016TIP3    H118054   5.577   4.728   2.093 -0.6496  1.3340 -1.0133
 6016TIP3    H218055   5.429   4.711   2.118 -0.3192  0.8089  0.6712
 6017TIP3   OH218056   5.764   2.427   2.729  0.3882 -0.2636 -0.5530
 6017TIP3    H118057   5.712   2.416   2.649 -1.0064  1.6717  0.0174
 6017TIP3    H218058   5.855   2.416   2.700  0.0099  1.5166 -2.6831
 6018TIP3   OH218059   5.242   2.289   3.112 -0.3899 -0.0888  0.5190
 6018TIP3    H118060   5.302   2.296   3.186  0.0897 -0.9625  0.2329
 6018TIP3    H218061   5.281   2.344   3.044  0.1906 -0.7726  0.2811
 6019TIP3   OH218062   0.687   5.097   2.158 -0.4650  0.3171  0.4117
 6019TIP3    H118063   0.776   5.131   2.166  0.0642 -0.4633 -1.7245
 6019TIP3    H218064   0.631   5.169   2.189  0.8019  1.6457 -0.2953
 6020TIP3   OH218065   5.071   3.414   2.732 -0.1436  0.3641  0.1343
 6020TIP3    H118066   5.138   3.390   2.796 -0.8062  1.0643  1.1160
 6020TIP3    H218067   5.070   3.510   2.734 -3.0702  0.4118  2.2266
 6021TIP3   OH218068   4.264   4.656   1.344 -0.0837  0.1134  1.0521
 6021TIP3    H118069   4.290   4.746   1.364  1.2946  0.4329 -1.6079
 6021TIP3    H218070   4.171   4.661   1.322  0.3560  1.2946 -0.7518
 6022TIP3   OH218071   0.681   3.956   1.542 -0.3620  0.6201 -0.4064
 6022TIP3    H118072   0.669   4.042   1.582 -1.4122  0.6724 -0.8163
 6022TIP3    H218073   0.770   3.959   1.506 -0.7713  1.9575 -1.4063
 6023TIP3   OH218074   0.964   2.631   4.771 -0.0782  0.3290 -0.0915
 6023TIP3    H118075   0.953   2.653   4.679 -0.9455  0.9865  0.1569
 6023TIP3    H218076   0.963   2.535   4.773  0.8549  0.2959 -0.8584
 6024TIP3   OH218077   3.967   2.394   3.249 -0.1012  0.3806  0.1201
 6024TIP3    H118078   4.033   2.447   3.203 -1.1975  0.4635 -1.4476
 6024TIP3    H218079   3.917   2.457   3.301 -0.5934  0.7200 -0.7486
 6025TIP3   OH218080   6.034   2.354   3.201  0.1232  0.4114 -0.2186
 6025TIP3    H118081   6.022   2.432   3.254  0.9769  0.8649 -0.6702
 6025TIP3    H218082   5.955   2.302   3.215  0.6906  0.1060  2.1664
 6026TIP3   OH218083   1.187   4.790   1.564  0.5154 -0.3492  0.2868
 6026TIP3    H118084   1.255   4.769   1.500 -0.6114 -1.4321 -0.6089
 6026TIP3    H218085   1.178   4.710   1.616  0.3868  0.0177  0.8370
 6027TIP3   OH218086   0.982   5.454   2.744  0.1961 -0.8289  0.1384
 6027TIP3    H118087   0.980   5.486   2.835 -0.8864  0.9057 -0.4425
 6027TIP3    H218088   0.889   5.442   2.721  0.2905  0.8803 -1.3923
 6028TIP3   OH218089   0.504   2.351   4.196  0.0438  0.2234  0.4078
 6028TIP3    H118090   0.456   2.274   4.166  0.8743 -0.6731  1.2940
 6028TIP3    H218091   0.440   2.401   4.247 -0.6789  0.4869 -0.7102
 6029TIP3   OH218092   5.666   2.217   3.980  0.3624  0.1463 -0.0874
 6029TIP3    H118093   5.666   2.190   3.888 -1.2309 -1.5210  0.3317
 6029TIP3    H218094   5.639   2.138   4.028 -0.9412  1.5275  1.6042
 6030TIP3   OH218095   2.958   5.414   4.033  0.0474 -0.1154 -0.2992
 6030TIP3    H118096   2.926   5.341   3.980 -0.3250 -0.9888  1.0726
 6030TIP3    H218097   3.036   5.445   3.987 -0.6001 -0.4260 -1.6744
 6031TIP3   OH218098   5.057   5.441   3.513  0.0856  0.5596 -0.0686
 6031TIP3    H118099   5.148   5.412   3.518  0.9825  2.8921 -1.1449
 6031TIP3    H218100   5.056   5.522   3.564 -1.7372 -0.0926  1.0193
 6032TIP3   OH218101   5.311   3.951   4.928 -0.3992 -0.1318 -0.3120
 6032TIP3    H118102   5.297   3.857   4.943  0.7533 -0.4947 -1.4000
 6032TIP3    H218103   5.402   3.966   4.953 -0.9025  0.9739  0.9940
 6033TIP3   OH218104   4.465   0.614   2.241  0.6658  0.2986 -0.4419
 6033TIP3    H118105   4.528   0.556   2.284 -0.2453 -1.3378 -1.1988
 6033TIP3    H218106   4.453   0.686   2.302  0.2635 -1.3786  1.5660
 6034TIP3   OH218107   2.120   0.798   5.210  0.1165 -0.1589  0.1719
 6034TIP3    H118108   2.071   0.809   5.128  1.7767  0.7569 -0.7514
 6034TIP3    H218109   2.106   0.706   5.233 -1.2766 -0.1608 -0.5259
 6035TIP3   OH218110   3.343   3.243   4.102  0.3928 -0.5120  0.2115
 6035TIP3    H118111   3.281   3.284   4.042  0.9319  0.5305  0.3488
 6035TIP3    H218112   3.358   3.156   4.064 -0.3127 -0.3765 -0.4102
 6036TIP3   OH218113   1.579   3.391   1.169 -0.9605  0.7563 -0.0702
 6036TIP3    H118114   1.641   3.410   1.099 -1.7554 -0.0244 -1.0274
 6036TIP3    H218115   1.493   3.412   1.132 -1.3947  0.4271  0.7089
 6037TIP3   OH218116   1.389   1.069   1.177 -0.6283  0.3420 -0.5285
 6037TIP3    H118117   1.343   1.018   1.243 -0.3596  0.7640 -0.0138
 6037TIP3    H218118   1.385   1.159   1.208 -0.0783  0.4784 -0.8352
 6038TIP3   OH218119   0.756   4.921   0.259 -1.1691 -0.4783  0.0355
 6038TIP3    H118120   0.789   4.847   0.208 -0.6187 -0.2131 -0.0055
 6038TIP3    H218121   0.666   4.897   0.281 -1.3409 -0.7089 -0.8547
 6039TIP3   OH218122   2.417   2.690   1.021 -0.4017 -0.1710  0.5225
 6039TIP3    H118123   2.369   2.734   1.091  0.4739  0.1500  0.9363
 6039TIP3    H218124   2.375   2.720   0.941 -1.0239 -0.0614  0.8888
 6040TIP3   OH218125   5.505   1.798   1.212  0.2660 -0.6949 -0.3904
 6040TIP3    H118126   5.449   1.808   1.135  1.0697  0.1172 -0.8857
 6040TIP3    H218127   5.503   1.704   1.231 -1.1170 -0.7045 -0.4994
 6041TIP3   OH218128   2.156   4.255   4.297 -0.3859  0.0214 -0.1388
 6041TIP3    H118129   2.061   4.265   4.295 -0.2988  1.2778  0.5682
 6041TIP3    H218130   2.188   4.341   4.325  0.9972 -0.1855 -1.0123
 6042TIP3   OH218131   0.280   3.648   4.965 -0.1052  0.2461  0.2051
 6042TIP3    H118132   0.277   3.583   4.895 -1.7174  2.4225 -1.9240
 6042TIP3    H218133   0.314   3.601   5.041 -1.2454 -3.0697 -1.1688
 6043TIP3   OH218134   1.390   3.990   4.683  0.5507 -0.2958  0.2164
 6043TIP3    H118135   1.344   3.962   4.762  1.6367  0.3409  1.1060
 6043TIP3    H218136   1.399   4.085   4.693  1.4767 -0.3194 -0.2355
 6044TIP3   OH218137   0.276   4.624   0.033  0.3035 -0.0741 -0.1467
 6044TIP3    H118138   0.227   4.645   0.113 -1.0425  0.8242 -1.1650
 6044TIP3    H218139   0.251   4.533   0.014 -0.2340  0.0664 -0.1401
 6045TIP3   OH218140   6.090   0.777   1.899  0.0135  0.0899 -0.5701
 6045TIP3    H118141   6.150   0.737   1.962 -0.4803  0.4448  0.1440
 6045TIP3    H218142   6.079   0.867   1.931 -0.9526  0.0066 -0.6417
 6046TIP3   OH218143   4.725   2.781   0.554  0.1365  0.4794 -0.0453
 6046TIP3    H118144   4.668   2.781   0.476 -1.1568  2.3493  0.8323
 6046TIP3    H218145   4.712   2.694   0.592 -0.9411  0.3116 -0.7311
 6047TIP3   OH218146   1.260   1.337   2.588 -1.0226 -0.3236  0.5292
 6047TIP3    H118147   1.343   1.310   2.547  0.0784  4.5652 -1.1654
 6047TIP3    H218148   1.272   1.317   2.681  1.0689 -1.8845 -0.0043
 6048TIP3   OH218149   1.604   1.791   4.396  0.2728 -0.0090  0.2707
 6048TIP3    H118150   1.605   1.867   4.338  0.2171 -0.4038 -0.2511
 6048TIP3    H218151   1.680   1.804   4.454 -0.0176  0.6845  0.5115
 6049TIP3   OH218152   2.335   2.175   0.022 -0.7104  0.3223 -0.2278
 6049TIP3    H118153   2.378   2.094  -0.005  0.7038  0.6259  0.9386
 6049TIP3    H218154   2.395   2.244  -0.008 -1.1043  0.8495  0.1783
 6050TIP3   OH218155   1.370   2.488   1.051  0.4113 -0.3265 -0.1899
 6050TIP3    H118156   1.373   2.489   0.956  1.6896 -1.3065 -0.1815
 6050TIP3    H218157   1.328   2.405   1.073  0.0244 -0.0576  0.1164
 6051TIP3   OH218158   0.877   5.607   1.601 -0.0404 -0.4051 -0.3308
 6051TIP3    H118159   0.888   5.664   1.678 -0.6375  0.9504 -1.1970
 6051TIP3    H218160   0.819   5.537   1.631  1.5333 -1.1958  1.0535
 6052TIP3   OH218161   2.371   0.825   4.439  0.4062  0.1198 -0.3014
 6052TIP3    H118162   2.399   0.750   4.491 -0.5380  0.7343  1.1668
 6052TIP3    H218163   2.282   0.804   4.412  0.7179  0.0205 -1.2903
 6053TIP3   OH218164   2.997   0.483   1.952  0.1918 -0.7825 -0.4028
 6053TIP3    H118165   3.031   0.556   2.004  1.9468 -0.7388 -1.5344
 6053TIP3    H218166   2.963   0.422   2.017  2.4250 -0.7844  0.8624
 6054TIP3   OH218167   3.078   3.808   4.240  0.1234 -0.9740  0.8417
 6054TIP3    H118168   3.000   3.795   4.294 -1.7751 -0.4259 -1.5672
 6054TIP3    H218169   3.060   3.758   4.160  2.3895 -1.0445  0.3063
 6055TIP3   OH218170   2.420   5.665   5.022  0.2235  0.0325 -0.5202
 6055TIP3    H118171   2.513   5.655   5.004  0.6111  0.5906  0.9762
 6055TIP3    H218172   2.402   5.758   5.004 -0.2607 -0.2517 -1.6071
 6056TIP3   OH218173   5.923   0.178   1.804 -0.1064  0.0639 -0.3484
 6056TIP3    H118174   5.987   0.181   1.875  2.1050  0.9381 -2.2284
 6056TIP3    H218175   5.883   0.265   1.804 -0.0306  0.0983 -0.2414
 6057TIP3   OH218176   3.216   3.079   1.082  0.1745 -0.9610  0.0036
 6057TIP3    H118177   3.240   3.172   1.083 -1.0042 -0.6159  1.9594
 6057TIP3    H218178   3.274   3.040   1.017  0.5631  1.1729 -1.0108
 6058TIP3   OH218179   0.190   0.138   2.485 -0.2677 -0.3011 -0.2109
 6058TIP3    H118180   0.104   0.160   2.521 -0.1872 -0.9524  0.4015
 6058TIP3    H218181   0.179   0.050   2.449 -0.6125  0.6851 -2.7260
 6059TIP3   OH218182   4.975   1.473   4.267  0.0893 -0.0303 -0.2503
 6059TIP3    H118183   4.887   1.496   4.239  0.2287 -0.3756 -0.9971
 6059TIP3    H218184   5.018   1.442   4.187  0.2826 -1.7143  0.4754
 6060TIP3   OH218185   1.537   0.942   0.974 -0.3662 -0.7260  0.4976
 6060TIP3    H118186   1.627   0.973   0.982 -0.7412  0.3664  0.6251
 6060TIP3    H218187   1.490   0.987   1.044 -1.1042 -0.9549  0.1608
 6061TIP3   OH218188   5.695   3.412   1.796  0.3574  0.4439  0.1178
 6061TIP3    H118189   5.658   3.373   1.717  4.2388 -0.3134 -1.5505
 6061TIP3    H218190   5.668   3.354   1.867  1.3321 -2.1943 -1.5220
 6062TIP3   OH218191   4.399   1.459   0.804 -0.3591  0.4830  0.2128
 6062TIP3    H118192   4.470   1.522   0.819 -0.7457  0.9860 -0.0492
 6062TIP3    H218193   4.389   1.415   0.889  1.0229 -0.3986 -0.0499
 6063TIP3   OH218194   1.911   5.065   0.616  0.1400 -0.7109  0.0377
 6063TIP3    H118195   1.943   5.048   0.527  0.2719 -1.1376  0.1655
 6063TIP3    H218196   1.932   4.985   0.664  0.2282 -0.4082  0.4985
 6064TIP3   OH218197   2.135   1.948   2.143 -0.7519  0.4032  0.1591
 6064TIP3    H118198   2.174   2.002   2.211 -1.4446  0.2967  0.6610
 6064TIP3    H218199   2.209   1.914   2.092 -0.2540  0.8563  0.5754
 6065TIP3   OH218200   4.899   4.824   4.541 -0.4632 -0.4694  0.3679
 6065TIP3    H118201   4.867   4.896   4.596 -0.3618 -0.0733 -0.0881
 6065TIP3    H218202   4.899   4.860   4.452 -0.2541 -0.9814  0.1600
 6066TIP3   OH218203   5.979   2.803   4.842 -0.0442 -0.2489 -0.4581
 6066TIP3    H118204   5.929   2.866   4.791  1.7230  1.3112 -0.3691
 6066TIP3    H218205   6.061   2.792   4.794  1.2531  0.4886  1.4367
 6067TIP3   OH218206   5.690   3.179   2.845 -0.5224 -0.4329 -0.3445
 6067TIP3    H118207   5.769   3.182   2.792 -0.8836  0.7580 -0.8653
 6067TIP3    H218208   5.719   3.197   2.934 -0.0508 -1.3564 -0.3029
 6068TIP3   OH218209   2.530   0.912   4.669  0.3764  0.7835  0.3123
 6068TIP3    H118210   2.469   0.913   4.595  1.5543  0.9137 -0.6889
 6068TIP3    H218211   2.489   0.969   4.735 -1.0413  0.0831  0.0652
 6069TIP3   OH218212   4.400   0.592   0.238  0.2582 -0.3732  0.3433
 6069TIP3    H118213   4.329   0.549   0.190 -1.1727  1.0364  1.1088
 6069TIP3    H218214   4.414   0.537   0.315 -0.6294 -0.2170  0.6307
 6070TIP3   OH218215   1.239   1.123   3.573 -0.1236 -0.3049 -0.0128
 6070TIP3    H118216   1.226   1.167   3.489 -0.6201 -0.9311 -0.2667
 6070TIP3    H218217   1.161   1.070   3.586  0.6008 -1.3886  0.1199
 6071TIP3   OH218218   4.531   2.035   2.378  0.1804  0.6009 -0.4559
 6071TIP3    H118219   4.534   1.966   2.445 -2.3411  1.7825  0.9935
 6071TIP3    H218220   4.622   2.045   2.351  0.9330 -1.7513  0.8817
 6072TIP3   OH218221   3.936   1.736   4.976 -0.1506  0.1105 -0.6485
 6072TIP3    H118222   3.846   1.710   4.994 -0.5557  1.9430  0.2066
 6072TIP3    H218223   3.934   1.831   4.976  1.8764  0.2004 -0.1850
 6073TIP3   OH218224   1.314   2.035   0.267  0.4849 -0.9014 -0.0222
 6073TIP3    H118225   1.225   2.046   0.235 -0.1041 -1.4458  1.3365
 6073TIP3    H218226   1.303   1.997   0.355  2.0562 -1.3009  0.0277
 6074TIP3   OH218227   5.775   2.541   1.830  0.2742 -0.3037  0.5136
 6074TIP3    H118228   5.743   2.456   1.798  0.5457 -0.6676  1.1727
 6074TIP3    H218229   5.771   2.532   1.926  0.7801  0.2516  0.5868
 6075TIP3   OH218230   3.886   5.044   1.716 -0.3778 -0.1972  0.2120
 6075TIP3    H118231   3.848   5.066   1.801 -0.1468  0.0745  0.2479
 6075TIP3    H218232   3.872   5.122   1.663  0.0108 -0.1406  0.1882
 6076TIP3   OH218233   5.925   3.069   5.027  0.1714  0.1940 -0.0715
 6076TIP3    H118234   5.946   3.089   5.118  0.3889 -0.8306  0.1246
 6076TIP3    H218235   5.830   3.056   5.027  0.1822  0.1085  0.0306
 6077TIP3   OH218236   2.642   4.925   0.378  0.1334 -0.7323 -0.1138
 6077TIP3    H118237   2.564   4.872   0.400  1.0769 -1.6833  1.1165
 6077TIP3    H218238   2.671   4.890   0.294 -1.0781  0.0246 -0.8761
 6078TIP3   OH218239   0.354   1.017   1.937  0.0869 -0.0578  0.0644
 6078TIP3    H118240   0.302   1.095   1.954  0.7701  0.7326 -1.3677
 6078TIP3    H218241   0.310   0.948   1.987 -1.9060  0.7242 -0.5120
 6079TIP3   OH218242   0.282   1.075   2.413 -0.1636  0.5677 -0.3701
 6079TIP3    H118243   0.275   1.146   2.349  0.3922  2.1354  1.2280
 6079TIP3    H218244   0.221   1.099   2.482 -2.7257 -2.4382 -1.3867
 6080TIP3   OH218245   4.536   2.536   2.971 -0.4909 -0.3530  0.8079
 6080TIP3    H118246   4.603   2.518   3.036  0.6184 -2.0816 -0.6955
 6080TIP3    H218247   4.539   2.460   2.912 -3.1670 -0.0731  0.1635
 6081TIP3   OH218248   2.219   3.276   4.065  0.3050  0.1315 -0.3211
 6081TIP3    H118249   2.134   3.320   4.063  0.6469  0.8428  0.3010
 6081TIP3    H218250   2.204   3.198   4.119 -0.4090 -0.7727 -1.7776
 6082TIP3   OH218251   1.414   1.932   3.828  0.2806  0.0738  0.1822
 6082TIP3    H118252   1.451   1.937   3.740 -0.1347 -0.8105 -0.0561
 6082TIP3    H218253   1.467   1.865   3.872  0.1781  0.1702  0.4518
 6083TIP3   OH218254   1.607   3.476   3.599  0.3798 -0.0661  0.0831
 6083TIP3    H118255   1.680   3.534   3.577  0.6354 -0.5280 -0.2927
 6083TIP3    H218256   1.564   3.459   3.515  0.9202 -1.2442  0.0278
 6084TIP3   OH218257   2.271   1.322   2.849  0.1101 -0.4681 -0.2857
 6084TIP3    H118258   2.224   1.333   2.766  0.7169  1.4522 -0.4302
 6084TIP3    H218259   2.273   1.410   2.886  0.9367 -1.0796  1.1767
 6085TIP3   OH218260   3.709   4.435   4.476 -0.2366  0.7369  0.5732
 6085TIP3    H118261   3.695   4.459   4.568  1.4520 -0.1721  1.1082
 6085TIP3    H218262   3.681   4.344   4.470  0.1556  0.6302  0.3177
 6086TIP3   OH218263   1.452   2.741   1.485 -0.1671 -0.2426  0.5095
 6086TIP3    H118264   1.495   2.813   1.531 -0.1428 -1.4858  2.5034
 6086TIP3    H218265   1.362   2.742   1.518 -0.0974 -1.2759  0.7566
 6087TIP3   OH218266   4.056   2.763   4.063 -0.0905 -0.2943 -0.1744
 6087TIP3    H118267   4.134   2.817   4.077 -1.3377  1.9263 -1.1034
 6087TIP3    H218268   4.086   2.689   4.011  1.6780 -0.3978  0.9428
 6088TIP3   OH218269   2.482   0.522   0.958 -0.0874  0.5956  0.0402
 6088TIP3    H118270   2.466   0.431   0.984  2.2566 -0.0124 -0.3535
 6088TIP3    H218271   2.488   0.520   0.863  0.5885  1.0221  0.0610
 6089TIP3   OH218272   5.524   1.478   3.767  0.0085  0.2019  0.1255
 6089TIP3    H118273   5.453   1.418   3.788  0.5173 -0.4042  0.1420
 6089TIP3    H218274   5.544   1.461   3.675  0.0606  0.4451  0.0901
 6090TIP3   OH218275   0.189   4.917   4.265  0.0559 -0.3401  0.5423
 6090TIP3    H118276   0.180   4.867   4.345  1.9108 -0.8040  0.5103
 6090TIP3    H218277   0.203   5.007   4.294 -0.0051 -0.3880  0.7162
 6091TIP3   OH218278   0.891   1.995   4.199 -0.1807  0.0192 -0.4655
 6091TIP3    H118279   0.826   2.065   4.202 -1.6253 -1.2399 -0.7535
 6091TIP3    H218280   0.967   2.034   4.157 -0.5028  1.7365  0.4686
 6092TIP3   OH218281   6.288   2.717   1.669  0.2006  0.2888 -0.4302
 6092TIP3    H118282   6.375   2.708   1.629  0.0232 -1.0308 -0.5670
 6092TIP3    H218283   6.300   2.683   1.758  0.3264  2.1645  0.3097
 6093TIP3   OH218284   4.981   5.456   1.295 -0.3018 -0.3627 -0.0176
 6093TIP3    H118285   5.054   5.407   1.258 -0.7369 -0.7352 -0.4016
 6093TIP3    H218286   4.970   5.530   1.235  1.8134  1.5509  1.7747
 6094TIP3   OH218287   4.762   0.701   4.500 -0.1706  0.0450  0.1898
 6094TIP3    H118288   4.710   0.631   4.460  0.2026 -0.7171  0.9910
 6094TIP3    H218289   4.767   0.769   4.433 -1.5565 -0.1801 -0.1728
 6095TIP3   OH218290   2.281   4.519   2.383  0.2574  0.2666  0.0857
 6095TIP3    H118291   2.215   4.450   2.398  2.1368 -1.7646 -0.4873
 6095TIP3    H218292   2.230   4.600   2.384 -2.0696 -1.0732  0.9259
 6096TIP3   OH218293   0.611   3.716   3.530  0.0355  0.6629 -0.5837
 6096TIP3    H118294   0.544   3.717   3.599  0.3459 -0.1705 -0.2581
 6096TIP3    H218295   0.694   3.710   3.577  0.3057  0.9320 -1.0128
 6097TIP3   OH218296   0.601   5.784   0.770  0.2713  0.0411 -0.3165
 6097TIP3    H118297   0.577   5.705   0.818 -0.6368  1.2663  1.3794
 6097TIP3    H218298   0.594   5.760   0.678 -0.8789 -1.5839  0.1518
 6098TIP3   OH218299   3.679   0.243   2.446  0.1602  0.0325 -0.1658
 6098TIP3    H118300   3.660   0.177   2.513  0.6182  1.3880  1.3804
 6098TIP3    H218301   3.594   0.279   2.423  0.0488  0.0363  0.2354
 6099TIP3   OH218302   6.311   5.976   2.383  0.1125 -0.3743  0.1032
 6099TIP3    H118303   6.328   6.021   2.466  1.0783  0.0175 -0.2971
 6099TIP3    H218304   6.225   5.935   2.396 -0.1240  0.3546  1.0064
 6100TIP3   OH218305   1.315   5.212   1.229 -0.2640  0.2835  0.3566
 6100TIP3    H118306   1.358   5.194   1.312 -1.5571 -1.2242  0.7538
 6100TIP3    H218307   1.254   5.284   1.248  0.4226  0.8792  0.3477
 6101TIP3   OH218308   3.404   5.131   2.409  0.2095 -0.4200  0.1990
 6101TIP3    H118309   3.315   5.148   2.439  0.0719 -0.1943 -0.3335
 6101TIP3    H218310   3.459   5.175   2.473 -0.1063  0.7441 -0.3062
 6102TIP3   OH218311   5.044   0.944   4.322  0.6886 -0.1470 -0.3104
 6102TIP3    H118312   5.124   0.908   4.361 -0.8434 -1.0424  2.2147
 6102TIP3    H218313   5.017   1.013   4.382  0.6792  1.6864 -2.3042
 6103TIP3   OH218314   5.452   0.698   1.213  0.0385  0.0543  0.1788
 6103TIP3    H118315   5.372   0.685   1.162  0.9590 -1.4440 -1.0059
 6103TIP3    H218316   5.435   0.775   1.267 -1.8128  0.3643 -0.7761
 6104TIP3   OH218317   0.870   4.758   3.969  0.1642 -0.0081  0.3317
 6104TIP3    H118318   0.881   4.848   3.998 -0.0353 -0.2780  1.2617
 6104TIP3    H218319   0.957   4.719   3.976  0.1178 -0.0709  0.5420
 6105TIP3   OH218320   4.458   2.998   4.461 -0.1989  0.0395 -0.3760
 6105TIP3    H118321   4.487   3.011   4.371 -0.5579  0.2630 -0.4636
 6105TIP3    H218322   4.467   2.904   4.476 -1.1522 -0.1656 -1.0134
 6106TIP3   OH218323   0.246   3.391   3.317  0.2061 -0.7023  0.2966
 6106TIP3    H118324   0.253   3.484   3.338 -1.2139 -0.3967 -0.3800
 6106TIP3    H218325   0.272   3.386   3.225  1.9049 -1.2748  0.7732
 6107TIP3   OH218326   6.246   3.596   0.326 -0.5781  0.0471 -0.1999
 6107TIP3    H118327   6.153   3.620   0.324 -1.0799 -1.7567 -0.6698
 6107TIP3    H218328   6.252   3.523   0.264  0.7846 -1.1177  1.2491
 6108TIP3   OH218329   1.320   2.579   1.983  0.1606 -0.2833  0.1655
 6108TIP3    H118330   1.229   2.549   1.992 -0.7078  1.7027 -1.1505
 6108TIP3    H218331   1.362   2.555   2.065 -2.4797  1.6207  2.2631
 6109TIP3   OH218332   3.989   1.417   5.103  0.1754 -0.0060 -0.1997
 6109TIP3    H118333   3.894   1.403   5.104  0.1789 -0.0403  0.2781
 6109TIP3    H218334   4.018   1.383   5.019 -0.3810  1.0065 -0.8214
 6110TIP3   OH218335   2.097   0.212   3.121 -0.1651  0.5734  0.3576
 6110TIP3    H118336   2.152   0.168   3.186  0.2968  0.7257  0.0783
 6110TIP3    H218337   2.021   0.155   3.110  0.5441 -0.2844 -0.1887
 6111TIP3   OH218338   3.427   1.832   0.186  0.0473 -0.6634 -0.0338
 6111TIP3    H118339   3.434   1.760   0.249  1.9879 -0.1392  0.4031
 6111TIP3    H218340   3.409   1.909   0.239  1.2255 -0.2975 -0.1271
 6112TIP3   OH218341   3.220   1.034   4.813  0.0171  0.0970 -0.1938
 6112TIP3    H118342   3.284   0.972   4.780 -0.0778 -0.0245 -0.1512
 6112TIP3    H218343   3.247   1.119   4.777  0.6190  0.1668  0.4179
 6113TIP3   OH218344   1.900   4.585   4.761 -0.7490  0.2653 -1.3019
 6113TIP3    H118345   1.804   4.578   4.759 -0.7013 -0.3251 -1.6923
 6113TIP3    H218346   1.926   4.580   4.669 -0.3604  0.6964 -1.2169
 6114TIP3   OH218347   5.039   3.333   4.184  0.5278  0.9384  0.3063
 6114TIP3    H118348   5.068   3.346   4.274  2.1055  1.6733 -0.2741
 6114TIP3    H218349   4.978   3.259   4.189 -2.1729  3.0992  2.4534
 6115TIP3   OH218350   3.954   0.176   2.334  0.3168  0.3609 -0.0181
 6115TIP3    H118351   3.862   0.199   2.351  0.1686 -0.6358  0.6354
 6115TIP3    H218352   3.952   0.137   2.246  0.3577  1.5889 -0.5802
 6116TIP3   OH218353   4.363   3.332   2.411  0.0540 -0.2509 -0.0133
 6116TIP3    H118354   4.321   3.395   2.352 -0.2735  0.7336  1.2454
 6116TIP3    H218355   4.424   3.384   2.463 -0.8462 -0.7995  1.6495
 6117TIP3   OH218356   2.277   0.185   1.537  0.3265  0.1010  0.3650
 6117TIP3    H118357   2.201   0.236   1.564  0.3471 -0.1620  0.9578
 6117TIP3    H218358   2.247   0.136   1.460  0.5508  1.5777 -0.6909
 6118TIP3   OH218359   0.551   0.573   1.412  1.2063 -0.1277 -0.2031
 6118TIP3    H118360   0.493   0.574   1.336  2.5044 -2.3463 -1.3225
 6118TIP3    H218361   0.506   0.517   1.476  0.4704  1.1299  0.4309
 6119TIP3   OH218362   3.824   0.540   3.372 -0.7875  0.5695 -0.0755
 6119TIP3    H118363   3.774   0.608   3.327 -0.4029  1.0673  0.2360
 6119TIP3    H218364   3.913   0.573   3.374 -0.7556  0.4475  0.8394
 6120TIP3   OH218365   1.792   5.144   2.654  0.2414 -0.1140  0.2669
 6120TIP3    H118366   1.767   5.060   2.615 -0.9957  0.8866 -1.2215
 6120TIP3    H218367   1.720   5.203   2.632  1.2729  1.4440  0.9235
 6121TIP3   OH218368   6.314   5.165   1.644  0.4099  0.3339  0.2248
 6121TIP3    H118369   6.355   5.211   1.717 -1.7873  0.0736  1.7275
 6121TIP3    H218370   6.300   5.232   1.578  2.2573  0.6187  0.0756
 6122TIP3   OH218371   1.602   2.064   1.071  0.1951 -0.2759  0.1486
 6122TIP3    H118372   1.534   1.997   1.069  0.4175 -0.5310  0.7823
 6122TIP3    H218373   1.590   2.114   0.990 -0.6130 -0.4448  0.1603
 6123TIP3   OH218374   0.629   3.095   4.733 -0.4500 -0.1550 -0.0604
 6123TIP3    H118375   0.650   3.091   4.639 -2.7585 -4.3715 -0.6584
 6123TIP3    H218376   0.714   3.109   4.776  0.6465  2.2372 -2.6544
 6124TIP3   OH218377   1.574   0.164   1.625  0.0834 -0.2552 -0.1777
 6124TIP3    H118378   1.480   0.168   1.608  0.2921  1.1037 -1.1542
 6124TIP3    H218379   1.608   0.106   1.557  0.3215  1.6761 -1.7903
 6125TIP3   OH218380   1.690   1.475   3.407  0.2111  0.1119 -0.0352
 6125TIP3    H118381   1.624   1.535   3.373  1.7223  1.4883 -0.6670
 6125TIP3    H218382   1.640   1.411   3.457 -1.5330  1.6255  0.2943
 6126TIP3   OH218383   5.121   0.562   4.966 -0.5514 -0.3938  0.6559
 6126TIP3    H118384   5.058   0.634   4.978 -3.0372 -2.6914  2.8309
 6126TIP3    H218385   5.132   0.526   5.054  0.6549 -2.6144 -0.3418
 6127TIP3   OH218386   2.542   0.381   2.243 -0.1589 -0.6038 -0.2600
 6127TIP3    H118387   2.510   0.294   2.221 -0.4625  0.2015 -3.5800
 6127TIP3    H218388   2.466   0.427   2.278 -0.4380 -1.1691 -0.1189
 6128TIP3   OH218389   1.692   1.347   2.781  0.1646 -0.0388 -0.4477
 6128TIP3    H118390   1.762   1.389   2.831  0.2454  0.8383 -1.2528
 6128TIP3    H218391   1.613   1.363   2.833  0.0956  1.6956 -1.0016
 6129TIP3   OH218392   4.203   2.617   4.350  0.2608  0.3697 -0.0309
 6129TIP3    H118393   4.207   2.637   4.443  1.2366 -1.0352  0.2504
 6129TIP3    H218394   4.216   2.701   4.307 -2.5573  1.4871  1.0429
 6130TIP3   OH218395   3.110   4.036   1.651 -0.0536  0.1957  0.3869
 6130TIP3    H118396   3.114   3.951   1.607 -0.9071  0.9689 -1.3058
 6130TIP3    H218397   3.200   4.069   1.649  0.3655 -0.8323  1.4570
 6131TIP3   OH218398   5.290   2.053   4.709 -0.1546 -0.1486  0.4856
 6131TIP3    H118399   5.331   1.967   4.699  0.8223  0.1867  1.5687
 6131TIP3    H218400   5.329   2.107   4.640  0.4314 -0.1248  0.8375
 6132TIP3   OH218401   5.714   5.316   2.694  0.2791  0.4682  0.6693
 6132TIP3    H118402   5.772   5.240   2.705 -0.7251 -0.1474  1.9106
 6132TIP3    H218403   5.774   5.392   2.700  1.2070 -0.1921  0.0288
 6133TIP3   OH218404   1.215   0.273   1.245  0.0751  0.0467  0.2833
 6133TIP3    H118405   1.142   0.319   1.203 -0.3024  0.3094  1.2204
 6133TIP3    H218406   1.283   0.269   1.177  0.4118  2.6119  0.3882
 6134TIP3   OH218407   1.293   0.089   1.411  0.1377 -0.2713 -0.0354
 6134TIP3    H118408   1.245   0.149   1.354 -0.9346  1.8705  2.8712
 6134TIP3    H218409   1.385   0.104   1.389 -0.0914  2.5205  0.5194
 6135TIP3   OH218410   6.171   2.179   2.308  0.0303 -0.2090 -0.4118
 6135TIP3    H118411   6.203   2.089   2.306  2.5660  0.5494  1.3847
 6135TIP3    H218412   6.235   2.229   2.258 -0.8813  0.7403 -0.6712
 6136TIP3   OH218413   6.038   4.608   2.311  0.1740 -0.0329 -0.1154
 6136TIP3    H118414   6.055   4.699   2.333  3.2653 -0.5990  0.3613
 6136TIP3    H218415   5.986   4.575   2.385 -1.3311  1.3638 -0.4884
 6137TIP3   OH218416   1.884   1.957   2.050 -0.4550  0.3753 -0.0159
 6137TIP3    H118417   1.973   1.964   2.086 -0.0437  1.7380 -1.2204
 6137TIP3    H218418   1.882   2.021   1.980 -2.3545  0.2165 -0.1387
 6138TIP3   OH218419   3.677   1.274   0.820 -0.6079  0.5198  0.8147
 6138TIP3    H118420   3.659   1.321   0.901  2.8131  3.1616  0.2630
 6138TIP3    H218421   3.737   1.204   0.846 -0.6706  0.4465  0.7625
 6139TIP3   OH218422   1.387   3.805   0.208 -0.2317 -0.2470  0.3683
 6139TIP3    H118423   1.376   3.806   0.303  1.1119 -1.8173  0.5875
 6139TIP3    H218424   1.476   3.837   0.194 -0.5256  0.2565 -0.3950
 6140TIP3   OH218425   4.786   2.807   1.561 -0.1318 -0.2082 -0.4391
 6140TIP3    H118426   4.787   2.716   1.593 -1.6217  0.5007  1.9138
 6140TIP3    H218427   4.762   2.799   1.469 -0.4414 -2.1937 -0.2446
 6141TIP3   OH218428   0.695   2.783   2.276 -0.1370 -0.3128 -0.1104
 6141TIP3    H118429   0.687   2.856   2.216 -0.2915  0.4105  0.7663
 6141TIP3    H218430   0.730   2.821   2.356 -2.6103 -0.6875  1.2520
 6142TIP3   OH218431   1.873   4.880   0.849  0.4347  0.1876  0.4134
 6142TIP3    H118432   1.954   4.849   0.808  1.3969  1.4263  1.2838
 6142TIP3    H218433   1.824   4.800   0.867  0.5745 -0.4760 -1.8419
 6143TIP3   OH218434   3.803   1.449   2.644 -0.1214  0.4239 -0.4655
 6143TIP3    H118435   3.827   1.530   2.688 -2.2019  0.6273  0.4025
 6143TIP3    H218436   3.712   1.461   2.619 -1.0158 -2.2398  1.1229
 6144TIP3   OH218437   0.393   2.155   4.828 -0.0569  0.0173  0.1449
 6144TIP3    H118438   0.390   2.249   4.811 -0.7591 -0.2526 -1.3828
 6144TIP3    H218439   0.485   2.132   4.816 -0.0094  0.3903 -0.2452
 6145TIP3   OH218440   4.684   2.299   3.480 -0.3251  0.0043  0.7602
 6145TIP3    H118441   4.780   2.304   3.478 -0.2457 -0.6162  1.7950
 6145TIP3    H218442   4.655   2.390   3.487  0.2771  0.1182  2.1244
 6146TIP3   OH218443   3.025   5.041   2.289  0.1922 -0.6577 -0.2873
 6146TIP3    H118444   3.086   5.007   2.224 -0.0230 -0.1852 -0.7567
 6146TIP3    H218445   2.958   4.973   2.297  1.0022 -1.3696  0.5607
 6147TIP3   OH218446   5.875   4.136   2.491 -0.6209 -0.0738 -0.4284
 6147TIP3    H118447   5.842   4.197   2.425  0.6500 -0.3796 -1.3950
 6147TIP3    H218448   5.890   4.190   2.569 -1.8489  0.3518 -0.4696
 6148TIP3   OH218449   5.504   0.718   3.892 -0.5256 -0.1182  0.7520
 6148TIP3    H118450   5.519   0.751   3.803  0.7052 -0.3107  0.8626
 6148TIP3    H218451   5.480   0.795   3.943 -0.3106  0.1530  0.4474
 6149TIP3   OH218452   2.007   3.865   3.752  0.1716 -0.1093 -0.6574
 6149TIP3    H118453   1.939   3.913   3.705 -0.1761 -1.6555 -1.7971
 6149TIP3    H218454   1.975   3.861   3.842  0.1916  1.7008 -0.5309
 6150TIP3   OH218455   5.003   3.955   4.694  0.0531  0.4538 -0.2228
 6150TIP3    H118456   4.996   4.030   4.753  0.4302 -0.4274  0.9730
 6150TIP3    H218457   5.097   3.943   4.682  0.0366 -0.4338  0.4182
 6151TIP3   OH218458   1.169   2.407   4.981  0.1645 -0.2748  0.6099
 6151TIP3    H118459   1.182   2.317   5.012  0.9372 -0.7720 -1.0425
 6151TIP3    H218460   1.158   2.398   4.887  1.9801  1.5094  0.1664
 6152TIP3   OH218461   0.977   1.854   2.381  0.1530  0.3623 -0.1174
 6152TIP3    H118462   1.027   1.790   2.433 -1.0027  0.5264  1.2561
 6152TIP3    H218463   0.893   1.811   2.364 -0.5044  1.3518  0.5176
 6153TIP3   OH218464   3.296   2.896   3.588 -0.2068 -0.1079 -0.3882
 6153TIP3    H118465   3.366   2.842   3.626 -0.9655  0.4074  1.9268
 6153TIP3    H218466   3.217   2.867   3.633 -0.9310  1.6437 -0.4774
 6154TIP3   OH218467   0.182   1.371   4.042 -0.4712  0.1198 -0.4248
 6154TIP3    H118468   0.134   1.323   3.974 -1.6213  1.2689 -0.4541
 6154TIP3    H218469   0.115   1.395   4.106  0.1502  1.2814 -0.1835
 6155TIP3   OH218470   0.845   0.969   0.951 -0.0542  0.0529 -0.1012
 6155TIP3    H118471   0.928   0.998   0.989 -0.2255  0.6376 -0.1563
 6155TIP3    H218472   0.842   0.875   0.967 -0.6670  0.4441  2.4143
 6156TIP3   OH218473   0.314   0.031   1.165 -0.4132 -0.2667  0.0006
 6156TIP3    H118474   0.353   0.084   1.235 -1.0685  1.0675 -0.5984
 6156TIP3    H218475   0.389  -0.002   1.115  0.0478  2.2694 -1.1526
 6157TIP3   OH218476   2.055   2.484   1.249  0.5325  0.3873  0.1865
 6157TIP3    H118477   2.097   2.447   1.172  0.9982 -0.0249  0.6287
 6157TIP3    H218478   1.971   2.438   1.255  0.3623  0.6378 -0.2416
 6158TIP3   OH218479   5.607   0.396   4.195 -0.4124 -0.1020 -0.2114
 6158TIP3    H118480   5.661   0.340   4.139 -0.8904 -0.9387  0.1382
 6158TIP3    H218481   5.628   0.368   4.284 -0.0638  0.8405  0.0113
 6159TIP3   OH218482   4.128   5.533   5.121  0.7899  0.4415  0.2629
 6159TIP3    H118483   4.061   5.550   5.188 -0.5150  0.1483 -0.9055
 6159TIP3    H218484   4.211   5.556   5.163 -0.0937  1.4003  1.5753
 6160TIP3   OH218485   4.973   1.955   3.840  0.0681  0.1056  0.2974
 6160TIP3    H118486   5.044   1.960   3.904 -0.4531  2.1988  0.8077
 6160TIP3    H218487   4.895   1.983   3.889 -0.5089  0.9259 -1.0224
 6161TIP3   OH218488   0.658   1.471   2.050 -0.3282  0.1384  0.1292
 6161TIP3    H118489   0.723   1.520   1.999  0.5105 -1.1679 -0.1283
 6161TIP3    H218490   0.711   1.410   2.102 -1.3361 -2.9121 -2.1028
 6162TIP3   OH218491   5.436   4.355   2.143 -0.3489  0.2971  0.0990
 6162TIP3    H118492   5.391   4.409   2.079 -1.3269 -0.6021 -0.0020
 6162TIP3    H218493   5.486   4.292   2.091 -0.5191  0.0692  0.2061
 6163TIP3   OH218494   4.267   0.658   4.445 -0.0135  0.1533 -0.3483
 6163TIP3    H118495   4.266   0.647   4.350 -2.7447 -0.0375 -0.3774
 6163TIP3    H218496   4.229   0.744   4.460 -1.1073 -0.4618  0.5909
 6164TIP3   OH218497   0.785   5.485   1.119 -0.1392  0.3529  0.2667
 6164TIP3    H118498   0.837   5.477   1.039 -0.1313 -0.5252  0.3501
 6164TIP3    H218499   0.837   5.542   1.176 -0.1691  1.0177 -0.3674
 6165TIP3   OH218500   4.324   0.588   4.918  0.2947  0.1874 -0.4151
 6165TIP3    H118501   4.300   0.567   5.008 -0.0911  2.4981  0.0923
 6165TIP3    H218502   4.280   0.522   4.865 -2.9500  1.1688  0.8435
 6166TIP3   OH218503   5.618   2.347   4.378 -0.7921  0.0220  0.0872
 6166TIP3    H118504   5.537   2.333   4.329  0.2349  0.1689 -1.7351
 6166TIP3    H218505   5.589   2.376   4.465 -2.6857 -0.6412 -0.2761
 6167TIP3   OH218506   1.647   4.337   4.114  0.3026  0.1346  0.2927
 6167TIP3    H118507   1.603   4.421   4.099  2.1426  0.7871 -2.0013
 6167TIP3    H218508   1.582   4.272   4.090 -0.2586  0.9994 -0.6446
 6168TIP3   OH218509   4.175   5.901   1.367  0.6296 -0.3194  0.0395
 6168TIP3    H118510   4.106   5.862   1.422 -0.7267  1.8756  0.0353
 6168TIP3    H218511   4.155   5.870   1.279  0.8196 -1.2128  0.2987
 6169TIP3   OH218512   4.623   5.536   2.408 -0.1765  0.2584 -0.0681
 6169TIP3    H118513   4.704   5.514   2.454  0.3236  0.9023 -0.6192
 6169TIP3    H218514   4.563   5.465   2.430 -0.0142  0.6201  1.6975
 6170TIP3   OH218515   1.965   3.742   0.466 -0.4641 -0.2802  0.5837
 6170TIP3    H118516   1.900   3.672   0.479  1.4131 -2.3610 -0.5493
 6170TIP3    H218517   1.983   3.741   0.372  0.2109  1.2143  0.6746
 6171TIP3   OH218518   1.176   3.476   2.701  0.2624 -0.1670 -0.1632
 6171TIP3    H118519   1.157   3.490   2.608 -0.2887 -1.3958 -0.2592
 6171TIP3    H218520   1.240   3.544   2.723  0.7334 -0.1237 -1.5549
 6172TIP3   OH218521   3.384   0.062   1.515 -0.0123 -0.1578  0.2381
 6172TIP3    H118522   3.368   0.123   1.443  2.3548  0.4542  0.1773
 6172TIP3    H218523   3.297   0.045   1.551 -0.8730  2.2834 -0.5213
 6173TIP3   OH218524   1.895   4.930   2.413 -0.4863 -0.3852  0.3434
 6173TIP3    H118525   1.872   5.012   2.369  0.7324 -0.7788 -1.1184
 6173TIP3    H218526   1.823   4.914   2.474 -2.2001  0.3133 -1.3890
 6174TIP3   OH218527   3.636   2.733   4.073  0.5102  0.1702 -0.1670
 6174TIP3    H118528   3.700   2.753   4.005  1.3056  0.5719  0.6706
 6174TIP3    H218529   3.651   2.641   4.095  1.0174  0.3436  0.2344
 6175TIP3   OH218530   2.435   4.518   3.833  0.4065  0.3003  0.1424
 6175TIP3    H118531   2.436   4.500   3.927 -0.2509 -0.1449  0.0680
 6175TIP3    H218532   2.397   4.440   3.793 -0.6455  1.0501 -0.3645
 6176TIP3   OH218533   0.639   0.450   3.497 -0.2787 -0.4316  0.0036
 6176TIP3    H118534   0.651   0.384   3.430 -0.1247  0.7042 -1.1189
 6176TIP3    H218535   0.725   0.492   3.505 -0.1115 -0.9696  1.3974
 6177TIP3   OH218536   4.025   2.292   1.958 -0.0843  0.2506 -0.1749
 6177TIP3    H118537   4.028   2.215   2.015  2.2110  0.3430 -0.0952
 6177TIP3    H218538   4.004   2.257   1.871  0.2686 -0.3813 -0.0104
 6178TIP3   OH218539   3.150   0.782   1.709 -0.9523 -0.6052 -0.1747
 6178TIP3    H118540   3.218   0.721   1.739 -0.7589 -1.4475 -2.1877
 6178TIP3    H218541   3.195   0.865   1.699 -0.1990 -1.1390 -1.4097
 6179TIP3   OH218542   0.439   1.978   2.828 -0.0393 -0.3873  0.3871
 6179TIP3    H118543   0.376   2.015   2.766 -0.1530  0.2473  0.8728
 6179TIP3    H218544   0.524   1.988   2.784  0.1506  1.9257  1.1093
 6180TIP3   OH218545   1.739   2.983   1.934  0.5526  0.2686  0.1705
 6180TIP3    H118546   1.726   2.892   1.906  0.5866  0.0039  0.9988
 6180TIP3    H218547   1.826   3.005   1.901  1.3874 -0.6603  1.6439
 6181TIP3   OH218548   5.409   0.783   1.828 -0.2556  0.4106  0.2573
 6181TIP3    H118549   5.473   0.724   1.788  2.4178  3.2046  0.0396
 6181TIP3    H218550   5.353   0.726   1.881  2.3877 -2.2617  0.4195
 6182TIP3   OH218551   5.372   2.171   2.410 -0.1971  0.0179 -0.1619
 6182TIP3    H118552   5.377   2.266   2.410  1.2668 -0.0382 -0.3173
 6182TIP3    H218553   5.289   2.151   2.368 -1.6036  1.2451  1.8777
 6183TIP3   OH218554   1.224   1.207   2.002  0.3252 -0.5257 -0.5368
 6183TIP3    H118555   1.259   1.149   2.070 -0.0928 -0.1107  0.0451
 6183TIP3    H218556   1.203   1.148   1.929  1.6424 -0.8635 -0.6803
 6184TIP3   OH218557   1.657   3.722   5.101  0.2957  0.0133  0.3099
 6184TIP3    H118558   1.605   3.800   5.119  0.9358  0.4465  0.3316
 6184TIP3    H218559   1.684   3.691   5.187  2.2325  1.3074  0.2351
 6185TIP3   OH218560   1.406   3.559   3.776  0.0803  0.1828  0.8640
 6185TIP3    H118561   1.390   3.644   3.735 -2.7047 -1.1912 -1.3162
 6185TIP3    H218562   1.463   3.513   3.715 -0.8110 -0.4956  0.5232
 6186TIP3   OH218563   6.202   3.686   4.904 -0.3999 -0.2339  0.0987
 6186TIP3    H118564   6.277   3.710   4.850 -1.5456  0.8385 -1.0839
 6186TIP3    H218565   6.210   3.741   4.982  1.2183 -1.7305  1.0650
 6187TIP3   OH218566   3.797   2.842   1.713  0.2340  0.8038 -0.4694
 6187TIP3    H118567   3.775   2.804   1.628  0.4749  0.2870 -0.3034
 6187TIP3    H218568   3.714   2.880   1.743  0.5194  2.4611 -1.6642
 6188TIP3   OH218569   2.595   3.642   3.558  0.0611 -0.6752  0.2812
 6188TIP3    H118570   2.595   3.550   3.532  0.6468 -0.5044 -0.3375
 6188TIP3    H218571   2.559   3.688   3.481  0.9652 -0.2609  0.0984
 6189TIP3   OH218572   4.421   5.460   1.206  0.0361 -0.3367  0.4328
 6189TIP3    H118573   4.461   5.541   1.240 -0.2725  0.0424 -0.1012
 6189TIP3    H218574   4.331   5.485   1.185 -0.0334 -0.7984  0.1787
 6190TIP3   OH218575   2.636   2.079   4.145  0.2801 -0.0460  0.2928
 6190TIP3    H118576   2.550   2.121   4.148 -0.3567 -1.3398  0.8954
 6190TIP3    H218577   2.632   2.023   4.068  0.8510  0.3852 -0.0655
 6191TIP3   OH218578   2.224   4.485   4.428  0.1623 -0.2818 -0.0377
 6191TIP3    H118579   2.229   4.581   4.431  0.3503 -0.3167  1.1584
 6191TIP3    H218580   2.170   4.461   4.503 -1.5072 -1.0399 -1.4025
 6192TIP3   OH218581   4.097   3.868   1.644 -0.0508 -0.2180  0.0544
 6192TIP3    H118582   4.173   3.875   1.701 -0.6158 -1.2732  0.9723
 6192TIP3    H218583   4.029   3.920   1.688  0.0772  0.5919 -0.6795
 6193TIP3   OH218584   6.209   1.845   4.462 -0.3697  0.1949 -0.4369
 6193TIP3    H118585   6.304   1.842   4.461 -0.2870  1.7702 -1.7095
 6193TIP3    H218586   6.186   1.910   4.396 -2.2556  1.4317  1.2827
 6194TIP3   OH218587   3.959   4.516   1.376  0.4479  0.2559 -0.1555
 6194TIP3    H118588   3.956   4.523   1.280 -3.0041  0.0717 -0.1788
 6194TIP3    H218589   3.944   4.606   1.406  1.3757  0.2860  0.2475
 6195TIP3   OH218590   2.401   1.006   4.048  0.6404 -0.2255  0.1648
 6195TIP3    H118591   2.336   1.040   4.109 -0.3052 -0.6498 -0.5869
 6195TIP3    H218592   2.435   0.927   4.091  0.8248  0.1088  0.6481
 6196TIP3   OH218593   3.217   1.933   1.055 -0.2347 -0.0594 -0.5000
 6196TIP3    H118594   3.157   1.930   1.130 -0.8203 -0.2848 -0.9744
 6196TIP3    H218595   3.180   1.999   0.997 -0.7844 -1.1381 -1.4167
 6197TIP3   OH218596   0.638   3.432   0.625 -0.3140  0.2097 -0.2045
 6197TIP3    H118597   0.603   3.521   0.627 -1.5927 -0.2789  0.3597
 6197TIP3    H218598   0.576   3.384   0.570  0.4693 -0.3009 -0.6562
 6198TIP3   OH218599   3.805   0.189   0.310  0.4678 -0.1768  0.0235
 6198TIP3    H118600   3.859   0.243   0.252  1.3219  1.6474  2.3846
 6198TIP3    H218601   3.844   0.102   0.305  1.7957  0.4231 -0.5782
 6199TIP3   OH218602   5.573   5.351   3.991 -0.3403  0.5763 -0.6941
 6199TIP3    H118603   5.627   5.398   4.054  0.3915 -1.3393  0.1636
 6199TIP3    H218604   5.635   5.316   3.927 -0.6542 -0.6658 -0.3454
 6200TIP3   OH218605   3.713   3.986   3.967 -0.0139 -0.3210 -0.6949
 6200TIP3    H118606   3.806   3.969   3.979 -0.1330  0.4233  1.9177
 6200TIP3    H218607   3.699   3.979   3.873  2.8791  0.6804 -1.2858
 6201TIP3   OH218608   1.500   0.240   3.888 -0.5205  0.4577  0.7781
 6201TIP3    H118609   1.543   0.181   3.826  0.0957  1.6538  0.0322
 6201TIP3    H218610   1.452   0.182   3.947  0.5373 -0.8064  0.4294
 6202TIP3   OH218611   1.127   4.848   0.241  0.6050 -0.1478  0.0163
 6202TIP3    H118612   1.151   4.806   0.159 -0.5423 -0.1776 -0.3290
 6202TIP3    H218613   1.170   4.933   0.238  0.3376 -0.0283 -0.7603
 6203TIP3   OH218614   5.679   3.184   2.282  0.2072 -0.4658  0.2800
 6203TIP3    H118615   5.727   3.241   2.342 -1.7207  1.5594  0.0401
 6203TIP3    H218616   5.683   3.097   2.321  1.6167  0.2069  1.6972
 6204TIP3   OH218617   5.373   5.717   3.950  0.1626 -0.4977 -0.7602
 6204TIP3    H118618   5.392   5.709   3.857 -0.7207  0.1255 -1.0111
 6204TIP3    H218619   5.373   5.627   3.982  0.8161 -0.6904 -1.2820
 6205TIP3   OH218620   1.223   5.650   0.142  1.2433 -0.1618  0.1570
 6205TIP3    H118621   1.180   5.725   0.182  1.4798  0.8668 -1.4078
 6205TIP3    H218622   1.225   5.583   0.210 -0.2977  0.7366  1.1309
 6206TIP3   OH218623   1.546   1.181   2.106  0.5507  0.2502  0.6384
 6206TIP3    H118624   1.608   1.253   2.118 -0.8740  2.0101 -1.6924
 6206TIP3    H218625   1.464   1.214   2.141  0.0188 -0.4774  0.1066
 6207TIP3   OH218626   3.611   2.452   2.518  0.4538 -0.1358  0.0358
 6207TIP3    H118627   3.548   2.384   2.540  0.2140  0.3903  1.0793
 6207TIP3    H218628   3.590   2.524   2.579 -0.8726  1.8499 -2.5543
 6208TIP3   OH218629   0.576   5.836   1.238 -0.4704  0.3873  0.8406
 6208TIP3    H118630   0.531   5.823   1.322 -1.8968  0.9797  0.2097
 6208TIP3    H218631   0.582   5.931   1.228  3.4694  0.4559  2.1446
 6209TIP3   OH218632   1.788   5.282   0.721 -0.1264  0.0437  0.4017
 6209TIP3    H118633   1.782   5.314   0.631  1.7193 -0.3919  0.0804
 6209TIP3    H218634   1.844   5.205   0.715  0.0351  0.0196  1.9355
 6210TIP3   OH218635   1.894   4.786   0.338  0.1189 -0.3475  0.0561
 6210TIP3    H118636   1.812   4.835   0.329  0.4375  0.0898 -0.5024
 6210TIP3    H218637   1.952   4.846   0.385  0.4211 -0.3007 -0.3787
 6211TIP3   OH218638   2.494   4.767   0.133  0.6399 -0.3894 -0.3436
 6211TIP3    H118639   2.490   4.786   0.039 -1.8144 -2.3323 -0.7534
 6211TIP3    H218640   2.406   4.787   0.165  0.4566 -2.7051  0.8340
 6212TIP3   OH218641   4.212   3.592   2.286 -0.6630 -0.3330  0.2062
 6212TIP3    H118642   4.268   3.551   2.220 -0.5617 -0.5944  0.4543
 6212TIP3    H218643   4.157   3.652   2.236  0.7793  0.9659  0.1190
 6213TIP3   OH218644   5.161   1.649   1.014  0.2919  0.1628  0.3984
 6213TIP3    H118645   5.088   1.710   1.016 -1.3010 -1.6542  2.7214
 6213TIP3    H218646   5.239   1.704   1.008 -1.1109  2.3367  1.2037
 6214TIP3   OH218647   0.825   4.436   4.650 -0.4573 -0.1851  0.7136
 6214TIP3    H118648   0.912   4.470   4.627  0.2055 -1.8153  0.6446
 6214TIP3    H218649   0.764   4.493   4.603  0.5477  1.1129  0.9064
 6215TIP3   OH218650   2.061   2.359   1.523 -0.4111  0.2349  0.1702
 6215TIP3    H118651   2.016   2.409   1.454 -0.6753  1.0315  0.9105
 6215TIP3    H218652   1.990   2.327   1.579 -0.1398  0.3141  0.5587
 6216TIP3   OH218653   0.786   5.321   4.905 -0.1204 -0.2907 -0.2140
 6216TIP3    H118654   0.712   5.338   4.963  0.4700 -1.0150  0.7814
 6216TIP3    H218655   0.803   5.227   4.913  1.0198 -0.1105 -0.2580
 6217TIP3   OH218656   5.428   0.406   1.798 -0.3572  0.2193 -0.5124
 6217TIP3    H118657   5.426   0.458   1.717  0.6215  0.5825 -0.3163
 6217TIP3    H218658   5.342   0.420   1.837 -0.4548  0.9160 -0.9467
 6218TIP3   OH218659   0.307   1.508   3.406  0.6277  0.1558 -0.6683
 6218TIP3    H118660   0.368   1.567   3.362 -1.0937  0.5951 -2.6088
 6218TIP3    H218661   0.320   1.424   3.362  1.1542 -0.2575  0.2404
 6219TIP3   OH218662   2.053   1.817   1.401 -0.1503  0.2849 -0.0377
 6219TIP3    H118663   1.979   1.759   1.383  0.5728 -0.0036 -2.3069
 6219TIP3    H218664   2.128   1.758   1.408  0.1903  0.7441  0.1988
 6220TIP3   OH218665   6.098   2.051   3.275 -0.9427 -0.1518 -0.1810
 6220TIP3    H118666   6.121   2.136   3.313  0.0863 -1.1922  1.6729
 6220TIP3    H218667   6.016   2.067   3.228 -1.2279  1.6646  0.8366
 6221TIP3   OH218668   5.454   0.666   4.527  0.3927 -0.1894 -0.1211
 6221TIP3    H118669   5.477   0.702   4.613  0.4118  0.6731 -0.4755
 6221TIP3    H218670   5.359   0.656   4.529  0.2588  0.8873 -0.3801
 6222TIP3   OH218671   0.398   3.506   2.444 -0.0661 -0.5371  0.1205
 6222TIP3    H118672   0.336   3.504   2.371 -0.8341  0.7601  0.6888
 6222TIP3    H218673   0.343   3.496   2.522  0.5876 -0.6331  0.5743
 6223TIP3   OH218674   3.704   5.917   4.096  0.3935 -0.1317 -0.3876
 6223TIP3    H118675   3.617   5.952   4.078  0.5565  0.6999  0.3929
 6223TIP3    H218676   3.752   5.990   4.134  1.5420 -0.4811 -1.1061
 6224TIP3   OH218677   2.276   2.125   1.241  0.2159  0.5303 -0.4275
 6224TIP3    H118678   2.204   2.122   1.179 -0.3578  0.4606  0.2362
 6224TIP3    H218679   2.301   2.218   1.244 -0.1234  0.6210 -0.3438
 6225TIP3   OH218680   1.164   4.474   1.405  0.5610  0.3423 -0.1050
 6225TIP3    H118681   1.102   4.511   1.342 -0.0767 -1.3140 -0.5218
 6225TIP3    H218682   1.241   4.530   1.399  0.8451 -0.2058 -2.9916
 6226TIP3   OH218683   5.347   1.459   2.303 -0.2495 -0.4242  0.1585
 6226TIP3    H118684   5.295   1.477   2.225  0.3982 -1.8670 -0.6395
 6226TIP3    H218685   5.389   1.375   2.286  2.1666  0.5472  0.8456
 6227TIP3   OH218686   5.893   1.351   3.291 -0.5311 -0.5001  0.5944
 6227TIP3    H118687   5.984   1.376   3.275 -0.9189 -0.2855 -1.6040
 6227TIP3    H218688   5.842   1.430   3.273 -1.2793 -1.1301 -0.1506
 6228TIP3   OH218689   4.293   1.575   0.353  0.4457 -0.0085 -0.2560
 6228TIP3    H118690   4.300   1.501   0.293 -1.4296  1.4516 -2.4326
 6228TIP3    H218691   4.319   1.651   0.300 -1.7694  1.4037  0.5629
 6229TIP3   OH218692   0.200   5.890   1.132  0.4463 -0.3892  0.5235
 6229TIP3    H118693   0.189   5.885   1.037 -3.8794 -3.5058  0.8523
 6229TIP3    H218694   0.265   5.823   1.152  1.7400  0.6119 -0.2253
 6230TIP3   OH218695   1.056   0.323   2.246  0.6866 -0.1634  0.3104
 6230TIP3    H118696   1.005   0.245   2.267  0.4852 -0.1538 -0.1317
 6230TIP3    H218697   1.034   0.343   2.155  0.6672  0.4601  0.4417
 6231TIP3   OH218698   4.453   2.259   0.708 -0.1812 -0.1637 -0.3718
 6231TIP3    H118699   4.369   2.286   0.669 -2.0128 -0.3276  3.0923
 6231TIP3    H218700   4.517   2.319   0.669 -2.3300  1.7458 -1.2045
 6232TIP3   OH218701   2.959   5.161   3.516  0.0121 -0.4591 -0.0877
 6232TIP3    H118702   2.902   5.197   3.447  0.4225  0.8684  0.2411
 6232TIP3    H218703   2.898   5.137   3.586 -0.1342  1.9188  0.6908
 6233TIP3   OH218704   3.324   0.987   1.727 -0.3583 -0.4806 -0.4647
 6233TIP3    H118705   3.337   1.039   1.807 -0.9743 -0.3323 -0.4552
 6233TIP3    H218706   3.315   1.053   1.658  1.3787 -0.6231 -0.8621
 6234TIP3   OH218707   5.717   3.059   0.848  0.2390 -0.7626  1.4441
 6234TIP3    H118708   5.717   3.010   0.766 -1.1893  0.5718  0.5877
 6234TIP3    H218709   5.625   3.079   0.864  0.5692 -0.3689  3.0017
 6235TIP3   OH218710   6.122   1.740   3.115 -0.1035  0.1416  0.1122
 6235TIP3    H118711   6.207   1.784   3.111  0.7125 -1.4462 -0.9400
 6235TIP3    H218712   6.075   1.785   3.186  0.1970  3.4205 -1.5757
 6236TIP3   OH218713   4.093   4.302   3.743 -0.1636 -0.2898 -0.5499
 6236TIP3    H118714   4.027   4.367   3.766  2.0275  1.2505  2.0158
 6236TIP3    H218715   4.083   4.233   3.808  1.2876  0.4553  0.5407
 6237TIP3   OH218716   5.956   4.223   4.381  0.6685  0.4068  0.3074
 6237TIP3    H118717   6.008   4.148   4.351  1.2458  1.3434 -1.1366
 6237TIP3    H218718   6.021   4.292   4.395 -0.1178  1.4624 -1.0828
 6238TIP3   OH218719   2.684   0.734   2.531  0.5944 -0.2812 -0.8536
 6238TIP3    H118720   2.591   0.716   2.525  0.8562 -1.5803 -1.4439
 6238TIP3    H218721   2.708   0.711   2.620  0.4837 -0.6245 -0.9131
 6239TIP3   OH218722   2.071   3.509   1.140 -0.1307  0.2883 -0.4410
 6239TIP3    H118723   1.994   3.547   1.098 -0.1017 -0.9423 -1.6941
 6239TIP3    H218724   2.072   3.547   1.227 -2.4835 -0.0549 -0.1861
 6240TIP3   OH218725   3.387   5.576   4.064  0.2334 -0.7192 -0.0201
 6240TIP3    H118726   3.347   5.553   4.148 -1.5216  2.8335  0.2759
 6240TIP3    H218727   3.479   5.592   4.085  0.3018 -1.9592  0.7417
 6241TIP3   OH218728   4.761   1.711   4.053 -0.1157  0.3222  0.0380
 6241TIP3    H118729   4.686   1.651   4.055  1.6129 -2.0023 -0.4375
 6241TIP3    H218730   4.779   1.731   4.145 -0.2284 -0.5636  0.2592
 6242TIP3   OH218731   1.799   0.299   1.092  0.1914 -0.2865  0.0298
 6242TIP3    H118732   1.816   0.230   1.028  0.6549 -0.2713  0.1330
 6242TIP3    H218733   1.814   0.258   1.177 -1.6294 -0.6567  0.2118
 6243TIP3   OH218734   5.545   1.754   4.588  0.1144  0.7252 -0.0603
 6243TIP3    H118735   5.466   1.731   4.539 -0.2626 -1.6501  1.5028
 6243TIP3    H218736   5.517   1.755   4.680  1.9800 -0.9765  0.6095
 6244TIP3   OH218737   2.171   2.693   2.274 -0.2999 -0.5364  0.0144
 6244TIP3    H118738   2.245   2.677   2.332  0.1411  2.5878  0.5048
 6244TIP3    H218739   2.200   2.663   2.188  0.3910 -1.9867  0.7270
 6245TIP3   OH218740   1.950   1.181   4.240 -0.7193 -0.1505  0.4949
 6245TIP3    H118741   2.027   1.137   4.205 -0.8152  0.1130 -0.0522
 6245TIP3    H218742   1.894   1.196   4.164 -1.6580 -1.0237  0.9893
 6246TIP3   OH218743   3.312   3.907   2.402 -0.3630  0.3965  0.2201
 6246TIP3    H118744   3.253   3.895   2.328 -0.0803  0.9936 -0.1090
 6246TIP3    H218745   3.381   3.841   2.389 -0.9272 -0.2852  0.5924
 6247TIP3   OH218746   4.585   2.898   4.764 -0.1260 -0.7498 -0.0582
 6247TIP3    H118747   4.613   2.844   4.838 -0.2024  0.4760  0.8995
 6247TIP3    H218748   4.568   2.984   4.802 -2.4770 -0.6766 -1.0662
 6248TIP3   OH218749   1.819   5.543   2.478 -0.5251  0.4167  0.2081
 6248TIP3    H118750   1.776   5.591   2.407 -0.9757  0.6764  0.6501
 6248TIP3    H218751   1.746   5.509   2.531 -0.1987  1.0591  1.0950
 6249TIP3   OH218752   2.626   3.235   1.482 -0.1742 -0.2548  0.0329
 6249TIP3    H118753   2.543   3.271   1.450  0.0910  0.4977  0.1659
 6249TIP3    H218754   2.662   3.189   1.406 -1.7550 -2.6063  0.5810
 6250TIP3   OH218755   2.147   5.242   1.958  0.0813 -0.3530  0.2287
 6250TIP3    H118756   2.183   5.330   1.962  1.5483 -0.9038 -0.1691
 6250TIP3    H218757   2.066   5.252   1.908 -0.2153  0.8864  0.9123
 6251TIP3   OH218758   2.279   5.827   4.102 -0.0548  0.3600  0.4171
 6251TIP3    H118759   2.212   5.762   4.122  0.7612 -0.4172  0.7272
 6251TIP3    H218760   2.233   5.897   4.058 -0.8218 -0.8723 -0.8099
 6252TIP3   OH218761   2.341   2.838   3.358 -0.1264  0.0585  0.7046
 6252TIP3    H118762   2.367   2.781   3.431  0.6434 -0.0547  0.3509
 6252TIP3    H218763   2.341   2.926   3.396 -1.8222 -0.1881  1.3899
 6253TIP3   OH218764   4.975   4.075   2.368  0.0497  0.1422 -0.2571
 6253TIP3    H118765   4.983   4.005   2.432  0.7590  0.1500 -0.3294
 6253TIP3    H218766   4.881   4.092   2.363 -0.0784 -0.3945  0.1966
 6254TIP3   OH218767   5.322   4.482   2.359  0.1549 -0.0236  0.4233
 6254TIP3    H118768   5.255   4.415   2.371 -1.1705  0.9320 -1.2556
 6254TIP3    H218769   5.372   4.452   2.283 -1.0866  1.3018 -0.9898
 6255TIP3   OH218770   0.402   0.492   0.094 -0.2272 -0.3709  0.6133
 6255TIP3    H118771   0.470   0.430   0.066  0.2621  0.5848 -0.3743
 6255TIP3    H218772   0.320   0.447   0.072  0.1205  0.2149 -2.3083
 6256TIP3   OH218773   0.319   3.357   5.091  0.5001 -0.0258  0.3307
 6256TIP3    H118774   0.264   3.278   5.093 -2.0661  1.6509  0.3001
 6256TIP3    H218775   0.353   3.365   5.180  1.2759 -1.4349  0.1914
 6257TIP3   OH218776   2.957   0.160   0.212  0.2092 -0.5467  0.3428
 6257TIP3    H118777   2.930   0.231   0.155  0.7447  1.4604  2.4592
 6257TIP3    H218778   2.884   0.098   0.210 -1.9443  1.7952  1.1915
 6258TIP3   OH218779   5.456   0.194   3.685 -0.2185 -0.5494 -0.4987
 6258TIP3    H118780   5.371   0.152   3.705  1.3220 -3.0559  1.4584
 6258TIP3    H218781   5.448   0.282   3.722 -1.5919 -1.1310  0.7265
 6259TIP3   OH218782   3.095   4.666   1.969  0.2692 -0.3889 -0.7290
 6259TIP3    H118783   3.089   4.663   2.064 -1.0046 -0.2232 -0.7986
 6259TIP3    H218784   3.092   4.759   1.947  1.0644 -0.3979 -0.9132
 6260TIP3   OH218785   3.375   5.043   4.360  0.6641  0.1759  0.0203
 6260TIP3    H118786   3.405   5.133   4.367  0.8369  0.2207 -1.0818
 6260TIP3    H218787   3.440   4.991   4.407  0.9824  0.5421 -0.0171
 6261TIP3   OH218788   5.537   4.404   2.553  0.3051 -0.3893 -0.1525
 6261TIP3    H118789   5.473   4.457   2.600  0.5487  2.9073 -3.0690
 6261TIP3    H218790   5.486   4.356   2.489  0.4931  1.5532 -1.8776
 6262TIP3   OH218791   6.187   5.669   1.386 -0.0153  0.0979 -0.4129
 6262TIP3    H118792   6.158   5.756   1.358 -0.8819 -0.2106 -0.5067
 6262TIP3    H218793   6.136   5.651   1.465  1.6719  0.5337  0.8171
 6263TIP3   OH218794   3.880   3.106   2.124 -0.9333  0.4293 -0.5632
 6263TIP3    H118795   3.918   3.098   2.036  0.9146 -2.0170  0.3504
 6263TIP3    H218796   3.818   3.034   2.130  0.2111 -0.4826  0.6840
 6264TIP3   OH218797   3.533   1.077   2.351 -0.5338 -0.2368 -0.5720
 6264TIP3    H118798   3.598   1.013   2.380  1.8700  2.2516 -0.0616
 6264TIP3    H218799   3.578   1.161   2.357 -2.9992  1.3833 -2.7438
 6265TIP3   OH218800  -0.019   5.414   3.819  0.0687  0.3130  0.6404
 6265TIP3    H118801   0.014   5.363   3.744 -1.4638 -1.4701  1.1025
 6265TIP3    H218802   0.059   5.455   3.856  1.2263 -0.8248 -0.4301
 6266TIP3   OH218803   3.827   3.417   0.033  0.0648  0.2601 -0.4562
 6266TIP3    H118804   3.883   3.348   0.068  0.3009  0.8072  0.2770
 6266TIP3    H218805   3.753   3.371  -0.006  0.7980 -0.4499 -1.0264
 6267TIP3   OH218806   1.652   5.310   2.330  0.4615 -0.4217  0.0282
 6267TIP3    H118807   1.615   5.352   2.407  0.6722  0.2835 -0.2482
 6267TIP3    H218808   1.611   5.223   2.328 -0.3502 -0.0561  0.3329
 6268TIP3   OH218809   5.732   4.973   1.451 -0.2837  0.0937 -0.3952
 6268TIP3    H118810   5.641   4.960   1.423 -0.2672 -0.5913 -0.1572
 6268TIP3    H218811   5.772   5.021   1.379 -1.0681  1.2445 -0.0931
 6269TIP3   OH218812   0.699   0.756   2.559  0.3634 -0.2272 -0.4980
 6269TIP3    H118813   0.778   0.779   2.510  0.9276  1.7531  1.2279
 6269TIP3    H218814   0.630   0.809   2.519  0.5167  0.2491 -0.1387
 6270TIP3   OH218815   5.394   1.820   0.953 -0.1325  0.3498  0.4049
 6270TIP3    H118816   5.403   1.899   0.900 -2.8817  1.2564  1.0756
 6270TIP3    H218817   5.409   1.748   0.893 -0.4032  1.3825 -0.9451
 6271TIP3   OH218818   4.919   5.897   4.042 -0.4881 -0.1560  0.3635
 6271TIP3    H118819   5.013   5.909   4.049 -0.6292  1.2908  0.1704
 6271TIP3    H218820   4.903   5.891   3.948 -0.5894 -0.4745  0.3992
 6272TIP3   OH218821   1.253   2.614   3.067 -0.2362 -0.0715 -0.5872
 6272TIP3    H118822   1.344   2.642   3.062 -0.3849  0.3454 -1.0650
 6272TIP3    H218823   1.203   2.686   3.029 -0.8521  0.1300  0.5563
 6273TIP3   OH218824   6.170   3.870   1.568 -0.0573 -0.5797 -0.1704
 6273TIP3    H118825   6.210   3.958   1.567 -0.5899 -0.3155 -2.3051
 6273TIP3    H218826   6.182   3.838   1.479  2.2613 -3.7305  1.0889
 6274TIP3   OH218827   1.488   2.661   3.329 -0.1441 -0.1730  0.1417
 6274TIP3    H118828   1.512   2.572   3.354 -1.6368 -0.3677  0.9925
 6274TIP3    H218829   1.496   2.662   3.234  1.3968 -0.7349  0.2386
 6275TIP3   OH218830   1.326   3.396   1.007  0.3601 -0.0373 -0.3211
 6275TIP3    H118831   1.358   3.306   1.005  1.8252  0.4229  0.9976
 6275TIP3    H218832   1.297   3.413   0.918  0.0225 -1.8170 -0.5842
 6276TIP3   OH218833   3.844   1.574   1.590 -0.4333 -0.0273 -0.4715
 6276TIP3    H118834   3.783   1.648   1.591  0.3419  0.6258 -0.6442
 6276TIP3    H218835   3.919   1.605   1.539 -0.0180 -0.8684 -0.3896
 6277TIP3   OH218836   2.470   1.751   0.538 -0.2886 -0.2254  0.1180
 6277TIP3    H118837   2.564   1.767   0.550 -0.5843  2.1004 -0.1268
 6277TIP3    H218838   2.459   1.748   0.443 -0.5711  0.3677  0.1299
 6278TIP3   OH218839   4.282   2.560   5.068  0.5937  0.3826  0.6023
 6278TIP3    H118840   4.322   2.487   5.116 -1.8878 -0.4421  1.6044
 6278TIP3    H218841   4.337   2.571   4.990  2.3173 -1.0646  1.5448
 6279TIP3   OH218842   1.257   0.763   0.119 -0.1487  0.1002  0.3543
 6279TIP3    H118843   1.224   0.845   0.157  0.6224  0.4799  0.2273
 6279TIP3    H218844   1.276   0.707   0.194 -3.2015 -1.0288  0.4174
 6280TIP3   OH218845   0.665   3.935   4.784  0.3483 -0.0549 -0.0031
 6280TIP3    H118846   0.590   3.899   4.833  0.3307  0.6522  0.5153
 6280TIP3    H218847   0.719   3.977   4.851  2.1762 -2.0932 -0.0967
 6281TIP3   OH218848   2.752   3.790   4.940  0.3193 -0.4944 -0.0348
 6281TIP3    H118849   2.673   3.839   4.920 -0.6278 -1.1688  1.7872
 6281TIP3    H218850   2.792   3.772   4.855 -0.4004  1.5842 -0.8556
 6282TIP3   OH218851   3.920   4.122   3.369  0.5340 -0.2602 -0.5968
 6282TIP3    H118852   3.973   4.196   3.339  1.3200 -0.0588  1.1620
 6282TIP3    H218853   3.972   4.045   3.347 -0.0497 -0.3004 -1.9585
 6283TIP3   OH218854   4.308   1.647   2.024  0.2830  0.1585  0.2626
 6283TIP3    H118855   4.341   1.606   2.104  0.3800  2.5191  1.5207
 6283TIP3    H218856   4.221   1.679   2.047 -0.0593  0.0929 -0.8725
 6284TIP3   OH218857   2.411   3.445   4.152  0.2897  0.4164  0.1863
 6284TIP3    H118858   2.350   3.400   4.094  0.7482  0.9835 -0.7445
 6284TIP3    H218859   2.408   3.394   4.233  0.0907 -0.7351 -0.5274
 6285TIP3   OH218860   5.901   4.753   3.972  0.4211  0.0458 -0.1786
 6285TIP3    H118861   5.994   4.740   3.994  0.1686  1.1152  1.7022
 6285TIP3    H218862   5.855   4.694   4.031 -0.1720  0.6910  0.0025
 6286TIP3   OH218863   1.914   0.319   4.913 -0.0878  0.1047 -0.3115
 6286TIP3    H118864   1.842   0.368   4.874 -0.9406 -0.3355  0.6560
 6286TIP3    H218865   1.971   0.386   4.951 -1.2072  0.3944  0.9400
 6287TIP3   OH218866   1.567   5.364   2.893  0.2746  0.4615  0.4510
 6287TIP3    H118867   1.660   5.351   2.912  0.0655 -0.0926  1.1224
 6287TIP3    H218868   1.566   5.402   2.805  1.0971 -0.5460 -0.0131
 6288TIP3   OH218869   6.092   1.066   4.473 -0.0968  0.4245 -0.1309
 6288TIP3    H118870   6.136   1.004   4.531  0.8235  0.1493 -1.0803
 6288TIP3    H218871   6.097   1.150   4.519  0.9764  0.2938  0.0196
 6289TIP3   OH218872   3.547   4.964   3.776 -0.2660  0.7373  0.3550
 6289TIP3    H118873   3.610   4.935   3.843 -0.2894 -1.8661 -0.6208
 6289TIP3    H218874   3.475   4.902   3.783 -0.9835  1.3801 -1.0551
 6290TIP3   OH218875   1.551   0.592   2.819 -0.4112 -0.1129  0.0398
 6290TIP3    H118876   1.635   0.576   2.863  0.2757  3.6184  0.4038
 6290TIP3    H218877   1.485   0.571   2.884  0.3324 -0.6652  0.6332
 6291TIP3   OH218878   4.691   0.833   5.057 -0.1230 -0.0721  0.0362
 6291TIP3    H118879   4.776   0.825   5.100  0.4106 -1.4659 -1.1686
 6291TIP3    H218880   4.645   0.752   5.080 -0.4191 -0.1365 -0.7515
 6292TIP3   OH218881   4.335   4.028   0.216 -0.1327 -0.1465  0.2041
 6292TIP3    H118882   4.250   4.011   0.175 -1.5426 -0.5065  3.0291
 6292TIP3    H218883   4.365   4.109   0.176 -1.3015 -0.5381 -1.5846
 6293TIP3   OH218884   1.037   4.576   2.412 -0.5182  0.1702 -0.1086
 6293TIP3    H118885   0.973   4.576   2.483 -1.1439  1.8502 -0.6392
 6293TIP3    H218886   0.986   4.599   2.334  0.5976  0.8082 -0.6670
 6294TIP3   OH218887   1.689   1.884   5.042 -0.1711 -0.0191 -0.0154
 6294TIP3    H118888   1.767   1.829   5.043  0.5961  0.8986 -2.5785
 6294TIP3    H218889   1.719   1.971   5.070 -0.6646 -0.0661  0.6991
 6295TIP3   OH218890   6.352   3.397   2.454 -0.1240  0.1390  0.4175
 6295TIP3    H118891   6.320   3.421   2.367  1.3240  0.9609  0.0831
 6295TIP3    H218892   6.396   3.312   2.440  0.7468  0.6156  0.1711
 6296TIP3   OH218893   3.794   4.582   3.050  0.2709  0.1811  0.4380
 6296TIP3    H118894   3.799   4.639   2.974 -1.7034 -3.8399 -3.0918
 6296TIP3    H218895   3.704   4.591   3.082  0.2649 -0.1406  0.5208
 6297TIP3   OH218896   0.279   1.837   3.042 -0.5819  0.0158 -0.2964
 6297TIP3    H118897   0.348   1.845   3.108 -0.2383  1.6363 -0.8221
 6297TIP3    H218898   0.316   1.878   2.963 -2.1243  0.8916 -0.5952
 6298TIP3   OH218899   2.555   3.670   2.274  0.4736  0.2438 -0.3030
 6298TIP3    H118900   2.613   3.602   2.239 -1.2575 -0.1723 -2.6332
 6298TIP3    H218901   2.592   3.752   2.241  0.8705  0.1750 -0.0404
 6299TIP3   OH218902   4.537   5.809   2.718  0.1635  0.5189 -0.1971
 6299TIP3    H118903   4.478   5.878   2.748 -2.3560 -1.6472  0.1832
 6299TIP3    H218904   4.530   5.810   2.623 -1.0100 -0.1029 -0.1307
 6300TIP3   OH218905   6.132   4.529   2.049  0.0678 -0.5000 -0.2492
 6300TIP3    H118906   6.076   4.555   2.123  0.5222 -0.0908 -0.0432
 6300TIP3    H218907   6.088   4.453   2.011 -0.6524 -0.1544 -0.1191
 6301TIP3   OH218908   2.379   5.028   4.879  0.0728 -0.0421 -0.4087
 6301TIP3    H118909   2.375   5.089   4.953  0.2229  0.4449 -0.7945
 6301TIP3    H218910   2.348   4.945   4.915 -1.1916  0.5185 -0.1527
 6302TIP3   OH218911   2.424   0.745   2.423 -0.1990 -0.2401 -0.1176
 6302TIP3    H118912   2.482   0.807   2.381  0.4662 -0.6599  0.1541
 6302TIP3    H218913   2.357   0.725   2.357  0.1658 -0.0190 -0.5564
 6303TIP3   OH218914   1.294   3.313   3.197 -0.4830 -0.0190 -1.0264
 6303TIP3    H118915   1.374   3.261   3.190 -0.5786 -0.4452  0.6242
 6303TIP3    H218916   1.308   3.386   3.137  0.6639 -0.6823 -1.6031
 6304TIP3   OH218917   4.102   4.506   0.253  0.0699  0.2162  0.5754
 6304TIP3    H118918   4.013   4.470   0.262 -0.1370 -0.1605 -2.0252
 6304TIP3    H218919   4.093   4.598   0.278 -2.0629  1.2286 -3.1283
 6305TIP3   OH218920   1.682   3.764   3.646  0.4425 -0.1639 -0.6398
 6305TIP3    H118921   1.689   3.845   3.596  0.8984 -1.1743 -2.3223
 6305TIP3    H218922   1.772   3.738   3.663  0.2860  0.3926  1.1568
 6306TIP3   OH218923   2.356   1.078   0.177 -0.4921  0.0136  0.1114
 6306TIP3    H118924   2.284   1.037   0.225 -0.0139 -2.5180 -1.1759
 6306TIP3    H218925   2.313   1.136   0.114 -1.2078  1.1698  1.5820
 6307TIP3   OH218926   2.375   0.520   4.244 -1.1792  0.0665 -0.0623
 6307TIP3    H118927   2.348   0.444   4.193  1.8938  0.3007 -2.3624
 6307TIP3    H218928   2.425   0.484   4.317 -0.2035 -0.2015 -0.8364
 6308TIP3   OH218929   5.913   2.587   1.450  0.3015  0.2375 -0.4764
 6308TIP3    H118930   5.861   2.518   1.409 -1.5705  2.1153 -1.4153
 6308TIP3    H218931   5.944   2.548   1.532  0.4574 -2.1326 -1.5786
 6309TIP3   OH218932   5.515   5.011   2.542  0.9260  0.4757 -0.2917
 6309TIP3    H118933   5.485   4.921   2.530  0.3480  0.9601 -3.4236
 6309TIP3    H218934   5.581   5.024   2.473  2.0108  2.0766  0.9571
 6310TIP3   OH218935   6.004   1.062   1.724 -0.6692 -0.7124 -0.2742
 6310TIP3    H118936   6.049   1.146   1.728 -2.2210  0.1140  0.4458
 6310TIP3    H218937   5.997   1.034   1.815 -1.7949 -0.7167 -0.3507
 6311TIP3   OH218938   2.315   3.781   1.490 -0.0850 -0.1335  0.0170
 6311TIP3    H118939   2.390   3.722   1.495 -0.7816 -0.9887  3.2451
 6311TIP3    H218940   2.350   3.862   1.455  2.1229 -0.8577  0.3822
 6312TIP3   OH218941   1.337   5.356   0.939  0.1382 -0.0607  0.4383
 6312TIP3    H118942   1.339   5.268   0.903 -1.2131  0.2173 -0.3924
 6312TIP3    H218943   1.416   5.362   0.993  1.7037 -0.8339 -1.6527
 6313TIP3   OH218944   2.970   3.553   0.415  0.3082 -0.2248  0.0277
 6313TIP3    H118945   3.004   3.627   0.465 -1.0173  1.5984 -1.6402
 6313TIP3    H218946   3.048   3.505   0.388  1.2587  1.0281  0.4427
 6314TIP3   OH218947   4.591   3.293   0.543 -0.2426 -0.1781 -0.4789
 6314TIP3    H118948   4.529   3.358   0.576 -0.0228 -0.2225  0.0292
 6314TIP3    H218949   4.553   3.209   0.567  0.1152 -0.1995  0.0178
 6315TIP3   OH218950   2.395   0.798   5.107 -0.0749  0.1312  0.2485
 6315TIP3    H118951   2.308   0.813   5.144 -0.0970 -0.7435  0.5698
 6315TIP3    H218952   2.454   0.804   5.182 -0.2173 -2.6372  0.6702
 6316TIP3   OH218953   0.661   4.217   1.682  0.2768  0.7145 -0.6066
 6316TIP3    H118954   0.735   4.271   1.654 -0.7665  1.7517 -1.4562
 6316TIP3    H218955   0.590   4.279   1.696 -0.2509 -0.1758  0.9504
 6317TIP3   OH218956   4.452   0.142   3.467  0.4930 -0.1203 -0.4603
 6317TIP3    H118957   4.431   0.145   3.373 -0.5500 -1.4351 -0.3090
 6317TIP3    H218958   4.530   0.196   3.476 -0.4492  1.5699 -1.7796
 6318TIP3   OH218959   3.615   0.787   0.668 -0.6591 -0.0403 -0.6088
 6318TIP3    H118960   3.688   0.796   0.606 -1.1229 -1.0985 -1.3372
 6318TIP3    H218961   3.633   0.704   0.713 -1.3988 -0.2884 -0.7681
 6319TIP3   OH218962   3.712   4.175   4.150  0.0155 -0.0596  0.5900
 6319TIP3    H118963   3.713   4.093   4.100 -0.3492  1.2072 -1.6111
 6319TIP3    H218964   3.790   4.222   4.120 -1.4795  1.7540 -0.6574
 6320TIP3   OH218965   5.883   3.247   1.409  0.1824 -0.1675  0.2717
 6320TIP3    H118966   5.963   3.297   1.394 -0.0709  0.4328  0.8150
 6320TIP3    H218967   5.896   3.206   1.495 -0.3848  0.5815  0.7429
 6321TIP3   OH218968   5.492   2.936   0.218 -0.6555  0.1373 -0.2714
 6321TIP3    H118969   5.562   2.950   0.155  0.2769 -1.3211  0.4033
 6321TIP3    H218970   5.441   3.017   0.215  1.0311  1.2328 -0.7899
 6322TIP3   OH218971   3.596   5.380   0.536  0.4381  0.1810 -0.6497
 6322TIP3    H118972   3.526   5.441   0.513  0.3983  0.6768  0.6867
 6322TIP3    H218973   3.554   5.294   0.537 -0.2579  0.5153  0.4879
 6323TIP3   OH218974   1.860   1.323   0.767  0.2689  0.4611  0.1383
 6323TIP3    H118975   1.873   1.405   0.815  0.6960  2.2899 -2.8420
 6323TIP3    H218976   1.949   1.293   0.746  0.1081  0.6508 -0.9061
 6324TIP3   OH218977   1.202   0.256   1.645 -0.5663 -0.4181 -0.2911
 6324TIP3    H118978   1.180   0.186   1.583  1.9386 -1.2312 -0.3359
 6324TIP3    H218979   1.184   0.337   1.596 -1.3686 -1.0093 -1.0191
 6325TIP3   OH218980   1.895   4.487   4.060  0.6234 -0.4697 -0.8221
 6325TIP3    H118981   1.867   4.398   4.082  1.7141 -0.9960 -1.5121
 6325TIP3    H218982   1.972   4.475   4.004 -0.0171  0.8883 -2.0404
 6326TIP3   OH218983   1.443   5.739   4.524  0.5913  0.0238  0.0254
 6326TIP3    H118984   1.413   5.826   4.498 -1.2689 -0.8778 -1.0352
 6326TIP3    H218985   1.444   5.742   4.620 -0.8337  0.7962  0.0428
 6327TIP3   OH218986   4.257   4.285   2.299  0.2065 -0.0137 -0.1981
 6327TIP3    H118987   4.230   4.376   2.294  0.3163  0.0595  0.3820
 6327TIP3    H218988   4.201   4.247   2.367  1.7260  0.2268  1.2644
 6328TIP3   OH218989   5.480   2.680   3.416 -0.5397  0.5060 -0.0752
 6328TIP3    H118990   5.440   2.605   3.461  0.6885 -0.8521 -1.1477
 6328TIP3    H218991   5.443   2.678   3.328 -1.0407  1.6344  0.0908
 6329TIP3   OH218992   6.119   3.420   3.160 -0.3050 -0.0286  0.2160
 6329TIP3    H118993   6.033   3.416   3.117 -0.2241  0.1041  0.0367
 6329TIP3    H218994   6.171   3.476   3.102  0.6836 -2.1164 -1.0256
 6330TIP3   OH218995   1.153   2.856   2.989 -0.3676  0.0670 -0.2823
 6330TIP3    H118996   1.173   2.949   2.997 -0.5702  0.1571 -0.7707
 6330TIP3    H218997   1.113   2.848   2.902  1.1518 -0.7326 -0.9426
 6331TIP3   OH218998   1.751   5.775   2.360 -0.1670 -0.6166 -0.3897
 6331TIP3    H118999   1.816   5.826   2.311 -2.2256  0.6830 -1.9939
 6331TIP3    H219000   1.704   5.725   2.293 -1.9202 -0.1778  0.4451
 6332TIP3   OH219001   5.870   0.757   0.548  0.5340  0.6468 -0.6828
 6332TIP3    H119002   5.780   0.786   0.535  0.9187  0.6918 -4.1826
 6332TIP3    H219003   5.924   0.830   0.518  1.8342  0.6110  1.3112
 6333TIP3   OH219004   1.559   5.414   1.109  0.2224 -0.5595 -0.0735
 6333TIP3    H119005   1.562   5.487   1.171 -0.0577 -0.2074 -0.4682
 6333TIP3    H219006   1.567   5.336   1.164 -1.5363 -0.3274  0.6015
 6334TIP3   OH219007   0.523   3.711   2.684  0.2840  0.7147 -0.4979
 6334TIP3    H119008   0.445   3.717   2.628  0.3081  0.5962 -0.5430
 6334TIP3    H219009   0.518   3.624   2.723  0.9448  0.3060 -1.3020
 6335TIP3   OH219010   4.717   0.065   0.696 -0.4762  0.3705  0.0525
 6335TIP3    H119011   4.663   0.035   0.770  2.0553  1.2093  2.4019
 6335TIP3    H219012   4.733  -0.014   0.645 -2.3049 -0.2400  0.3372
 6336TIP3   OH219013   4.195   2.481   1.830 -0.1779 -0.0227  0.4927
 6336TIP3    H119014   4.137   2.537   1.778  0.4720 -0.5334 -0.8364
 6336TIP3    H219015   4.151   2.472   1.914 -0.4633  2.1776  0.6222
 6337TIP3   OH219016   2.402   1.605   5.190  0.1388  0.1691  0.2280
 6337TIP3    H119017   2.381   1.679   5.133  0.1913 -1.2643 -1.7353
 6337TIP3    H219018   2.317   1.569   5.215  0.1250  0.5509  0.7539
 6338TIP3   OH219019   2.882   5.140   2.998 -0.4645  0.1670  0.2123
 6338TIP3    H119020   2.940   5.118   2.925 -0.7662 -0.4222  0.1473
 6338TIP3    H219021   2.928   5.211   3.044  0.4579 -0.4889  0.3359
 6339TIP3   OH219022   4.783   2.958   1.777  0.4890  0.1073 -0.6927
 6339TIP3    H119023   4.777   2.898   1.703 -0.8719  1.2899 -1.5973
 6339TIP3    H219024   4.874   2.989   1.776  1.2502 -1.9484 -0.1394
 6340TIP3   OH219025   4.732   4.495   0.953  0.4625 -0.7046 -0.5969
 6340TIP3    H119026   4.783   4.433   1.004  0.9005 -1.1028 -1.5149
 6340TIP3    H219027   4.697   4.444   0.880  0.7008  0.0841 -1.2752
 6341TIP3   OH219028   0.806   4.888   0.565 -0.4764  0.1554  0.2638
 6341TIP3    H119029   0.873   4.826   0.534 -0.2014  0.5547  0.0435
 6341TIP3    H219030   0.803   4.875   0.660  2.9171  2.9462  0.9676
 6342TIP3   OH219031   3.873   0.973   1.383  0.7122  0.2810 -0.7688
 6342TIP3    H119032   3.957   0.991   1.342  0.5925 -0.1743 -1.2198
 6342TIP3    H219033   3.893   0.911   1.454  0.6722 -0.3473 -1.2964
 6343TIP3   OH219034   1.189   0.567   0.501  0.2382 -0.0221 -0.4719
 6343TIP3    H119035   1.238   0.515   0.565  1.2657 -0.4575 -1.5738
 6343TIP3    H219036   1.250   0.581   0.429 -0.3422  1.9086 -0.6463
 6344TIP3   OH219037   1.783   0.061   2.505 -0.4622 -0.0478  0.4806
 6344TIP3    H119038   1.804  -0.030   2.482  0.5740  0.3114 -0.0537
 6344TIP3    H219039   1.735   0.094   2.429  0.3596  0.2497  0.0798
 6345TIP3   OH219040   0.278   1.038   0.879  0.0732  0.4418 -0.1241
 6345TIP3    H119041   0.353   0.984   0.852  1.6342  1.3513  2.0927
 6345TIP3    H219042   0.203   0.997   0.837  1.8994  0.3377 -3.7033
 6346TIP3   OH219043   6.206   5.527   1.823  0.5424 -0.2104  0.2481
 6346TIP3    H119044   6.217   5.488   1.736 -0.1553 -0.0058  0.0660
 6346TIP3    H219045   6.188   5.453   1.881 -1.5679 -0.1325 -0.2259
 6347TIP3   OH219046   5.536   5.311   2.487 -0.3166  0.2416 -0.3520
 6347TIP3    H119047   5.521   5.219   2.509  2.8825 -0.4874 -0.7406
 6347TIP3    H219048   5.601   5.341   2.551 -0.3440  1.8616 -1.0272
 6348TIP3   OH219049   4.533   1.050   3.905  0.0065  0.4996 -0.2633
 6348TIP3    H119050   4.517   0.956   3.912 -2.1288  0.7662 -0.7266
 6348TIP3    H219051   4.479   1.088   3.974 -0.7637  1.4797 -1.3601
 6349TIP3   OH219052   5.653   1.285   1.622  0.3381  0.2480 -0.0242
 6349TIP3    H119053   5.599   1.250   1.552  0.9325  1.1296 -0.9642
 6349TIP3    H219054   5.742   1.255   1.602  0.2960 -0.8047  1.2430
 6350TIP3   OH219055   1.503   4.961   2.020 -0.1003 -0.1901  0.0079
 6350TIP3    H119056   1.506   4.874   2.060  1.3922 -0.0965  0.1730
 6350TIP3    H219057   1.410   4.981   2.012 -0.4626 -1.6671  0.2563
 6351TIP3   OH219058   5.985   1.330   5.025  0.0905  0.1342  0.0189
 6351TIP3    H119059   5.974   1.238   5.001  1.5931  0.2015 -1.0605
 6351TIP3    H219060   5.915   1.375   4.977 -1.0817 -0.4754  1.0783
 6352TIP3   OH219061   3.747   1.941   4.481 -0.4231  0.3345 -0.4049
 6352TIP3    H119062   3.780   2.029   4.464  2.0133 -0.7584 -1.7546
 6352TIP3    H219063   3.806   1.905   4.547 -1.2720 -0.3740 -0.0149
 6353TIP3   OH219064   2.053   5.567   2.786  0.2852  0.3922  0.3761
 6353TIP3    H119065   2.133   5.551   2.836  0.2041  1.6485  0.9435
 6353TIP3    H219066   2.002   5.487   2.794  0.7964  0.1555  1.3302
 6354TIP3   OH219067   2.238   3.118   4.797 -0.1990 -0.0036  0.2807
 6354TIP3    H119068   2.162   3.059   4.793 -1.3013  1.2602  1.5287
 6354TIP3    H219069   2.262   3.121   4.889 -0.1784  1.4723  0.2599
 6355TIP3   OH219070   2.557   3.578   4.907  0.2923  0.1162  0.4428
 6355TIP3    H119071   2.575   3.489   4.876 -1.1666 -0.4081  1.0422
 6355TIP3    H219072   2.641   3.623   4.897  1.2481 -1.5030  0.7461
 6356TIP3   OH219073   1.140   0.871   4.750  0.0846  0.3575 -0.4093
 6356TIP3    H119074   1.074   0.899   4.813  0.8385  2.3371 -0.4199
 6356TIP3    H219075   1.091   0.844   4.673 -0.7606  1.5839 -0.3335
 6357TIP3   OH219076   1.791   0.592   2.909  0.6002  0.3610 -0.0021
 6357TIP3    H119077   1.789   0.687   2.916 -0.7955  0.4092 -0.5578
 6357TIP3    H219078   1.843   0.563   2.983 -0.0171  1.5041  0.9159
 6358TIP3   OH219079   3.152   2.397   0.927  0.1711  0.4218  0.4153
 6358TIP3    H119080   3.081   2.459   0.916  0.4130  0.8005  0.9447
 6358TIP3    H219081   3.114   2.312   0.903 -0.3310  0.6835  0.2813
 6359TIP3   OH219082   3.102   0.648   2.162 -0.1048 -0.1518  0.4832
 6359TIP3    H119083   3.039   0.719   2.171  0.0589  0.4126 -1.9950
 6359TIP3    H219084   3.120   0.619   2.251 -2.8561  0.5339  1.3269
 6360TIP3   OH219085   0.802   2.873   5.204  0.7551  0.1929 -0.2852
 6360TIP3    H119086   0.804   2.867   5.109  0.5441 -0.3445 -0.2569
 6360TIP3    H219087   0.716   2.911   5.224 -0.7965 -3.1104 -0.1514
 6361TIP3   OH219088   4.806   3.048   1.272 -0.1830  0.3823 -0.6331
 6361TIP3    H119089   4.838   3.106   1.203 -1.2984 -0.0191 -1.5193
 6361TIP3    H219090   4.711   3.053   1.266 -0.2990 -0.2392  0.3930
 6362TIP3   OH219091   6.096   3.350   4.645 -0.3004 -0.2914  0.6115
 6362TIP3    H119092   6.053   3.304   4.717 -2.6639 -0.0566 -0.5783
 6362TIP3    H219093   6.026   3.397   4.601  1.4056  1.1746 -0.6819
 6363TIP3   OH219094   2.964   4.351   3.537  0.5468 -0.2265 -0.6932
 6363TIP3    H119095   2.982   4.359   3.443  1.0545 -0.0860 -0.5853
 6363TIP3    H219096   3.031   4.290   3.569  1.2704  0.8307 -0.1631
 6364TIP3   OH219097   6.295   5.897   1.649  0.0340  0.0029 -0.0247
 6364TIP3    H119098   6.373   5.857   1.611 -0.7797 -1.4331 -0.2646
 6364TIP3    H219099   6.323   5.927   1.735  0.4808 -1.9186  0.5331
 6365TIP3   OH219100   5.805   5.052   2.431  0.3726 -0.1276 -0.2645
 6365TIP3    H119101   5.724   5.037   2.383 -0.4749  2.1891  0.3382
 6365TIP3    H219102   5.821   4.970   2.478  0.1837 -1.7671 -2.8859
 6366TIP3   OH219103   0.100   0.368   3.982 -0.1243  0.1972 -0.2160
 6366TIP3    H119104   0.060   0.287   3.951  0.4657 -1.0237  2.0554
 6366TIP3    H219105   0.105   0.424   3.903  0.0658 -2.1801 -1.9945
 6367TIP3   OH219106   3.976   4.189   1.285  0.7520 -0.0914  0.5633
 6367TIP3    H119107   4.071   4.175   1.282  1.0364  1.6804  0.5337
 6367TIP3    H219108   3.964   4.262   1.347 -0.0778  3.4053 -3.2865
 6368TIP3   OH219109   3.963   3.049   1.422 -0.0259  0.5144 -0.5365
 6368TIP3    H119110   4.005   2.973   1.463  1.8356  2.2958  1.0902
 6368TIP3    H219111   3.921   3.096   1.494  2.7494  3.3851 -0.5587
 6369TIP3   OH219112   0.636   4.950   4.540 -0.3447  0.7254 -0.3148
 6369TIP3    H119113   0.622   5.033   4.494 -0.5604  0.7339 -0.2311
 6369TIP3    H219114   0.563   4.895   4.514  0.2874  0.2376 -1.1036
 6370TIP3   OH219115   0.409   1.575   2.166 -0.0391 -0.4207  0.2193
 6370TIP3    H119116   0.354   1.615   2.098 -1.4197 -0.9064  1.0121
 6370TIP3    H219117   0.495   1.565   2.124 -0.8580 -0.7718 -1.4973
 6371TIP3   OH219118   5.061   4.589   4.648 -0.2606 -1.2207 -0.4975
 6371TIP3    H119119   5.017   4.666   4.613 -0.0975 -0.1226  1.5383
 6371TIP3    H219120   5.154   4.614   4.649 -0.3087 -1.0237  1.0728
 6372TIP3   OH219121   4.507   0.849   1.809  0.4412  0.4474  0.2084
 6372TIP3    H119122   4.471   0.905   1.878 -1.8260 -0.9830  0.2871
 6372TIP3    H219123   4.500   0.760   1.844  1.9469 -0.0778 -0.7600
 6373TIP3   OH219124   4.775   0.988   1.403  0.2369 -0.2079 -0.3509
 6373TIP3    H119125   4.870   0.979   1.403  0.4108  0.8817  2.0851
 6373TIP3    H219126   4.759   1.080   1.424 -1.3552 -0.5246 -0.0283
 6374TIP3   OH219127   4.665   4.641   2.309  0.4643  0.5767  0.2199
 6374TIP3    H119128   4.593   4.584   2.335 -0.4663  1.2030 -0.8553
 6374TIP3    H219129   4.740   4.583   2.301 -0.4321 -0.4994 -0.7121
 6375TIP3   OH219130   3.597   2.679   0.495 -0.1560 -0.8763 -0.0500
 6375TIP3    H119131   3.508   2.651   0.473 -1.2420  2.5267 -0.5294
 6375TIP3    H219132   3.593   2.697   0.589 -0.5911  1.0070 -0.3857
 6376TIP3   OH219133   2.447   2.717   2.620  0.0108 -0.4393  0.3969
 6376TIP3    H119134   2.398   2.797   2.637 -0.1009 -0.3922 -0.1199
 6376TIP3    H219135   2.383   2.647   2.628 -0.0401 -0.4178  0.1821
 6377TIP3   OH219136   2.774   2.488   1.895 -0.6287  0.2459 -0.0691
 6377TIP3    H119137   2.695   2.541   1.890 -0.8665 -0.1647 -0.8230
 6377TIP3    H219138   2.761   2.433   1.972 -0.8165  0.5841  0.1441
 6378TIP3   OH219139   6.287   5.112   2.801  0.4537 -0.3020  0.5501
 6378TIP3    H119140   6.256   5.082   2.886 -0.7135 -0.6461  0.0215
 6378TIP3    H219141   6.381   5.094   2.802  0.7518  1.0796  2.3315
 6379TIP3   OH219142   0.005   2.753   3.342 -0.1518  0.4896 -0.5211
 6379TIP3    H119143   0.009   2.830   3.285  0.2473  1.5883  0.9385
 6379TIP3    H219144   0.004   2.789   3.431 -0.0339 -1.2006  0.1970
 6380TIP3   OH219145   5.484   4.504   4.990 -0.7555 -0.3493  0.0174
 6380TIP3    H119146   5.561   4.493   4.933 -1.1458  2.2207 -1.1947
 6380TIP3    H219147   5.447   4.417   4.999 -0.2565 -1.0131 -3.1892
 6381TIP3   OH219148   4.447   4.729   1.991 -0.2482 -0.4587  0.1112
 6381TIP3    H119149   4.453   4.645   1.946 -0.4004 -0.2476 -0.3030
 6381TIP3    H219150   4.537   4.762   1.992 -0.3479 -0.1361 -0.6727
 6382TIP3   OH219151   4.241   3.369   1.456 -0.1523 -0.0970 -0.2597
 6382TIP3    H119152   4.281   3.393   1.540 -2.3027  1.7631  0.3541
 6382TIP3    H219153   4.279   3.430   1.393 -0.5600  0.3681 -0.0629
 6383TIP3   OH219154   3.094   4.693   3.451  0.2359  0.3923  0.3691
 6383TIP3    H119155   3.141   4.631   3.508  0.4010 -0.8622 -1.0672
 6383TIP3    H219156   3.001   4.674   3.467  0.2335  1.1173  1.3256
 6384TIP3   OH219157   1.091   3.688   0.510  0.6235 -0.6180 -0.1945
 6384TIP3    H119158   1.026   3.720   0.448  1.2976  0.6089 -0.2969
 6384TIP3    H219159   1.050   3.700   0.596 -0.1161 -1.8714 -0.3387
 6385TIP3   OH219160   1.343   3.088   0.992 -0.0939  0.2743  0.0529
 6385TIP3    H119161   1.311   3.004   0.959  0.1746 -1.4762  3.7320
 6385TIP3    H219162   1.438   3.085   0.979 -0.0525 -0.1279  0.4444
 6386TIP3   OH219163   3.650   3.049   4.095  0.2603  0.2907 -0.1390
 6386TIP3    H119164   3.670   2.956   4.090 -1.5490 -0.0971 -1.2618
 6386TIP3    H219165   3.633   3.075   4.005 -1.3023  1.1737  0.3681
 6387TIP3   OH219166   5.290   2.139   1.036  0.1083  0.1533 -0.3277
 6387TIP3    H119167   5.292   2.136   0.940 -1.7880  2.2895 -0.5206
 6387TIP3    H219168   5.207   2.098   1.059  0.9255 -1.0882  0.4906
 6388TIP3   OH219169   5.987   2.043   0.587 -0.0689 -0.0578  0.1429
 6388TIP3    H119170   6.024   1.969   0.538 -0.0054 -0.1787  0.3707
 6388TIP3    H219171   6.016   2.120   0.539 -0.0283 -0.1772 -0.0253
 6389TIP3   OH219172   0.928   5.125   1.691  0.3374  0.2857 -0.0927
 6389TIP3    H119173   1.024   5.126   1.686  0.2882  0.0362 -2.5622
 6389TIP3    H219174   0.904   5.038   1.658 -0.7456  0.0681  1.2028
 6390TIP3   OH219175   5.292   2.274   1.678  0.0096  0.1054 -0.3797
 6390TIP3    H119176   5.226   2.268   1.609 -0.2251 -1.1211 -0.0730
 6390TIP3    H219177   5.375   2.266   1.632 -0.1667 -1.6201 -0.4744
 6391TIP3   OH219178   5.855   3.560   2.390 -0.1085  0.2096 -0.4788
 6391TIP3    H119179   5.790   3.495   2.416 -0.9710  0.5552 -1.6612
 6391TIP3    H219180   5.823   3.593   2.306  0.5656  1.8115 -0.1400
 6392TIP3   OH219181   4.968   4.456   0.644  0.6424  0.0665 -0.2671
 6392TIP3    H119182   5.022   4.458   0.565  2.7788  0.9793  1.1384
 6392TIP3    H219183   4.997   4.379   0.692 -2.1657 -1.7788 -1.2560
 6393TIP3   OH219184   5.880   5.103   4.914 -0.4659  0.4581 -0.2038
 6393TIP3    H119185   5.851   5.073   4.828 -0.2625 -2.0209  0.5330
 6393TIP3    H219186   5.807   5.156   4.947 -1.9436 -1.2772 -0.5610
 6394TIP3   OH219187   1.143   4.609   2.134 -0.0170  0.0364 -0.6614
 6394TIP3    H119188   1.112   4.523   2.106 -2.6110  0.5140  0.4523
 6394TIP3    H219189   1.162   4.598   2.227 -0.5172  0.6765 -0.4772
 6395TIP3   OH219190   6.344   1.092   0.406 -0.0678 -0.2489  0.5525
 6395TIP3    H119191   6.396   1.024   0.450 -0.3770 -1.3299 -0.6759
 6395TIP3    H219192   6.344   1.066   0.314  0.1528  1.6781 -0.0254
 6396TIP3   OH219193   1.652   2.541   1.067 -0.4212  0.4124  0.0079
 6396TIP3    H119194   1.712   2.477   1.105 -0.5889 -0.8081 -1.6976
 6396TIP3    H219195   1.573   2.533   1.120 -0.9319 -1.8249 -0.9690
 6397TIP3   OH219196   0.438   1.612   4.351 -0.2099  0.5052 -0.3046
 6397TIP3    H119197   0.489   1.673   4.298  1.1701 -0.0422  0.3384
 6397TIP3    H219198   0.470   1.624   4.440  0.5651 -1.5523 -0.2394
 6398TIP3   OH219199   0.613   0.035   4.914  0.7279  0.4110 -0.0998
 6398TIP3    H119200   0.668   0.038   4.836  0.1240  0.2248 -0.5455
 6398TIP3    H219201   0.559  -0.044   4.901 -0.1527  0.9913 -0.0346
 6399TIP3   OH219202   1.459   4.110   0.759 -0.3987 -0.3629  0.3409
 6399TIP3    H119203   1.388   4.100   0.823 -0.5627 -2.3448 -0.0844
 6399TIP3    H219204   1.441   4.194   0.717 -2.3116 -0.6324  0.5000
 6400TIP3   OH219205   3.270   3.000   0.059  0.5453 -0.5327 -0.8993
 6400TIP3    H119206   3.220   2.950   0.123  0.0145 -1.2830 -1.8615
 6400TIP3    H219207   3.206   3.058   0.018  1.0096  0.4123 -0.3233
 6401TIP3   OH219208   2.962   5.818   1.733 -0.1601  0.0043 -0.3152
 6401TIP3    H119209   2.962   5.891   1.672 -0.5750  0.0565 -0.2563
 6401TIP3    H219210   3.052   5.785   1.732 -0.4781 -0.9124 -2.0632
 6402TIP3   OH219211   5.518   2.237   1.537  0.2042 -0.4103  0.0546
 6402TIP3    H119212   5.560   2.166   1.488 -0.6101 -0.8389 -0.0468
 6402TIP3    H219213   5.500   2.304   1.471  0.9305 -0.1182  0.1416
 6403TIP3   OH219214   2.769   0.694   4.060 -0.1375 -0.3036  0.2292
 6403TIP3    H119215   2.816   0.773   4.086  0.3590 -0.4549 -0.1898
 6403TIP3    H219216   2.677   0.714   4.078  0.2102 -0.6172  2.6314
 6404TIP3   OH219217   1.832   3.393   1.753 -0.1949  0.2850  0.2950
 6404TIP3    H119218   1.823   3.327   1.684  2.0413 -0.1707  0.3555
 6404TIP3    H219219   1.748   3.438   1.754 -1.0742 -1.1953 -1.1671
 6405TIP3   OH219220   6.165   1.702   3.738 -0.6248  0.0739 -0.6635
 6405TIP3    H119221   6.175   1.698   3.643 -0.2253 -1.0448 -0.5887
 6405TIP3    H219222   6.097   1.638   3.758  0.0569 -0.4879 -0.1030
 6406TIP3   OH219223   0.148   3.643   0.068 -0.0053  0.1480  0.1001
 6406TIP3    H119224   0.087   3.624   0.139 -0.9824 -0.7206 -0.9079
 6406TIP3    H219225   0.126   3.731   0.039  0.9677  0.8371  1.3926
 6407TIP3   OH219226   2.372   0.931   3.558 -0.2119 -0.4237 -0.2369
 6407TIP3    H119227   2.388   0.984   3.480  0.3689 -0.2291  0.0115
 6407TIP3    H219228   2.313   0.984   3.611 -2.8962 -1.6917 -1.7434
 6408TIP3   OH219229   3.040   3.418   4.974 -0.3775 -0.2893 -0.4615
 6408TIP3    H119230   3.129   3.387   4.956 -0.7595 -1.8086  0.1015
 6408TIP3    H219231   3.043   3.448   5.065 -0.0941  1.0934 -0.9018
 6409TIP3   OH219232   5.383   4.618   2.983  0.1258 -0.4591 -0.1799
 6409TIP3    H119233   5.385   4.558   3.059  0.5369 -0.1726  0.0384
 6409TIP3    H219234   5.376   4.705   3.022  1.5293 -0.2190 -0.4231
 6410TIP3   OH219235   3.465   0.937   4.730  0.0346  0.1983  0.2915
 6410TIP3    H119236   3.556   0.920   4.752 -0.0992 -0.6525  0.2463
 6410TIP3    H219237   3.468   0.975   4.642  0.4974  2.6276  1.2714
 6411TIP3   OH219238   0.671   4.093   2.286 -0.4707  0.1265  0.2288
 6411TIP3    H119239   0.591   4.141   2.309  0.4428  2.1277 -0.5284
 6411TIP3    H219240   0.720   4.089   2.368 -0.9588 -0.3391  0.5042
 6412TIP3   OH219241   4.260   2.779   2.461  0.0930  0.4008  0.4188
 6412TIP3    H119242   4.214   2.718   2.519 -0.5062  1.4932  1.1237
 6412TIP3    H219243   4.327   2.820   2.517 -1.5330  2.6505  0.8463
 6413TIP3   OH219244   2.352   1.355   3.729 -0.2656 -0.1050  0.0474
 6413TIP3    H119245   2.376   1.340   3.638 -0.6633  1.8366 -0.4311
 6413TIP3    H219246   2.410   1.426   3.758 -0.0612 -0.7707  1.3478
 6414TIP3   OH219247   5.591   2.023   3.013 -0.0946  0.0788 -0.2358
 6414TIP3    H119248   5.498   2.010   2.995  0.1843 -0.5104 -1.3214
 6414TIP3    H219249   5.616   2.097   2.957 -0.0372  0.6316  0.5069
 6415TIP3   OH219250   0.238   3.484   4.766 -0.0176 -0.3658  0.2027
 6415TIP3    H119251   0.309   3.459   4.708  0.4478  0.0561  0.5864
 6415TIP3    H219252   0.158   3.457   4.720  0.4487 -3.1704  0.8680
 6416TIP3   OH219253   0.063   4.340   4.580 -0.2782 -0.6247  0.0404
 6416TIP3    H119254   0.142   4.394   4.576 -0.6715  0.3072  2.7230
 6416TIP3    H219255   0.096   4.252   4.599  0.1699 -0.4275  0.2056
 6417TIP3   OH219256   3.183   5.765   0.540 -0.4143  0.7397 -0.6509
 6417TIP3    H119257   3.127   5.841   0.523  0.1131  1.3437  0.2242
 6417TIP3    H219258   3.185   5.757   0.635 -2.2780 -1.7741 -0.7245
 6418TIP3   OH219259   1.701   4.472   3.675  0.3452  0.4312  0.3643
 6418TIP3    H119260   1.731   4.408   3.740  1.5198  0.6648  0.0711
 6418TIP3    H219261   1.781   4.512   3.641 -0.3351  1.6727  0.1377
 6419TIP3   OH219262   0.067   0.825   1.797  0.6668  0.2167 -0.3423
 6419TIP3    H119263  -0.014   0.848   1.751  0.1374 -1.2285 -0.2041
 6419TIP3    H219264   0.084   0.898   1.856 -0.8196  0.3467 -0.0359
 6420TIP3   OH219265   0.154   0.275   1.309  0.4039 -0.2622  0.4575
 6420TIP3    H119266   0.130   0.182   1.316 -0.2618  0.0114  2.7283
 6420TIP3    H219267   0.249   0.276   1.316  0.4471 -0.7861  0.0409
 6421TIP3   OH219268   0.218   5.782   0.869 -0.0877 -0.1515  0.3510
 6421TIP3    H119269   0.283   5.738   0.814  0.4927  2.0754 -0.8673
 6421TIP3    H219270   0.157   5.713   0.895  1.7929 -1.9829  0.1074
 6422TIP3   OH219271   0.789   2.992   3.017  0.6069  0.0661  0.0368
 6422TIP3    H119272   0.824   3.018   3.102 -0.1537  3.2291 -0.5252
 6422TIP3    H219273   0.827   3.054   2.954 -1.6822  0.1651 -1.3749
 6423TIP3   OH219274   4.870   5.737   1.992  0.4057  0.7260 -0.2544
 6423TIP3    H119275   4.947   5.768   1.945  0.1399  1.1227 -0.4401
 6423TIP3    H219276   4.806   5.808   1.982  0.8325  1.5079  1.9334
 6424TIP3   OH219277   4.665   0.156   4.628 -0.1856  0.3365 -0.6037
 6424TIP3    H119278   4.579   0.181   4.595 -0.1094 -0.3593 -1.3843
 6424TIP3    H219279   4.649   0.078   4.681 -0.0958  0.4801 -0.3655
 6425TIP3   OH219280   1.667   5.329   1.339 -0.1700 -0.1023 -0.1315
 6425TIP3    H119281   1.631   5.406   1.384 -0.9142  0.8143 -2.1553
 6425TIP3    H219282   1.743   5.363   1.291 -0.2765 -0.6886 -0.7421
 6426TIP3   OH219283   3.310   4.982   2.740 -0.1723  0.3866 -0.1925
 6426TIP3    H119284   3.296   4.912   2.676 -0.3698 -0.5157  0.8052
 6426TIP3    H219285   3.318   5.062   2.688 -0.0466 -0.3658 -1.3513
 6427TIP3   OH219286   3.491   5.114   3.190 -0.2793 -0.3922  0.2448
 6427TIP3    H119287   3.482   5.069   3.274 -0.2597 -1.0034 -0.0668
 6427TIP3    H219288   3.582   5.096   3.163  0.3979  1.5942  1.0806
 6428TIP3   OH219289   2.435   4.289   0.366 -0.1802 -0.6285  0.0106
 6428TIP3    H119290   2.380   4.365   0.349  0.0369  0.0429  2.0702
 6428TIP3    H219291   2.432   4.277   0.461  1.1567 -2.1510 -0.0882
 6429TIP3   OH219292   0.466   0.010   1.611 -0.1825 -0.2313 -0.3184
 6429TIP3    H119293   0.422   0.076   1.664  3.5256  0.8920  1.6990
 6429TIP3    H219294   0.465   0.045   1.523  0.1838  1.6985  0.4074
 6430TIP3   OH219295   1.692   0.964   3.410  0.2268 -0.0106 -0.5526
 6430TIP3    H119296   1.702   1.027   3.481 -1.6355 -0.1087 -0.1795
 6430TIP3    H219297   1.639   1.010   3.344  2.2568  0.2407 -2.1345
 6431TIP3   OH219298   1.812   4.227   2.125  0.0319  0.8226 -0.0565
 6431TIP3    H119299   1.853   4.162   2.182 -0.3533 -0.1997 -0.9000
 6431TIP3    H219300   1.812   4.186   2.038  0.2169  2.1590 -0.7132
 6432TIP3   OH219301   5.309   3.199   0.334 -0.5586  0.2840  0.3919
 6432TIP3    H119302   5.385   3.255   0.353 -0.3029  0.6265 -1.4496
 6432TIP3    H219303   5.234   3.257   0.345 -0.2652  1.3291 -2.2027
 6433TIP3   OH219304   4.733   0.965   4.790 -0.0575  0.3602 -0.1802
 6433TIP3    H119305   4.720   1.059   4.803 -0.7041  0.1198  1.0566
 6433TIP3    H219306   4.722   0.927   4.877  1.0314 -0.7816 -0.5090
 6434TIP3   OH219307   4.356   0.975   0.215 -0.0993 -0.0399 -0.7773
 6434TIP3    H119308   4.376   0.957   0.307  2.1609  1.6685 -0.8498
 6434TIP3    H219309   4.425   0.931   0.166  0.0732  0.9843 -1.4843
 6435TIP3   OH219310   5.510   1.306   2.713  0.8160  0.5111  1.0234
 6435TIP3    H119311   5.449   1.268   2.777 -0.9215  0.5582 -0.5253
 6435TIP3    H219312   5.461   1.379   2.674  0.4184 -1.5501 -2.7820
 6436TIP3   OH219313   5.429   3.682   4.036 -0.2114  1.1143  0.2561
 6436TIP3    H119314   5.525   3.683   4.034 -0.1826 -0.4953 -0.4466
 6436TIP3    H219315   5.407   3.635   4.116 -0.2966 -1.7607 -1.3103
 6437TIP3   OH219316   3.043   4.268   1.515 -0.1467 -0.0169  0.5905
 6437TIP3    H119317   3.007   4.220   1.440 -0.9497 -0.7269  1.3988
 6437TIP3    H219318   3.078   4.200   1.572 -0.7639  0.4010  1.4841
 6438TIP3   OH219319   6.329   2.585   4.135  0.3358 -0.3078  0.0375
 6438TIP3    H119320   6.249   2.547   4.099  0.8980 -1.6525  0.1804
 6438TIP3    H219321   6.327   2.562   4.228 -0.3617  1.8692  0.6396
 6439TIP3   OH219322   4.813   4.976   3.252 -0.0926 -0.3489  0.0730
 6439TIP3    H119323   4.888   5.027   3.283 -0.0438 -0.4492  0.1203
 6439TIP3    H219324   4.762   5.038   3.200  0.3929 -0.4554 -0.5579
 6440TIP3   OH219325   5.192   3.452  -0.011 -0.5194  0.2050 -0.4306
 6440TIP3    H119326   5.169   3.417   0.075 -0.7763 -1.2996 -1.0834
 6440TIP3    H219327   5.176   3.546  -0.003 -1.0455  0.0270  1.0051
 6441TIP3   OH219328   4.605   2.790   0.303 -0.4258  0.1676 -0.0889
 6441TIP3    H119329   4.510   2.799   0.316 -0.2508  0.0012  1.4441
 6441TIP3    H219330   4.635   2.880   0.290 -0.9301  0.1208 -1.7889
 6442TIP3   OH219331   5.646   3.225   4.096  0.1232 -0.2917 -0.1125
 6442TIP3    H119332   5.742   3.232   4.093  0.0479  1.1498 -0.0678
 6442TIP3    H219333   5.619   3.233   4.004  0.0564 -1.2120 -0.1835
 6443TIP3   OH219334   2.016   4.420   3.550  0.0341 -0.0431 -0.0057
 6443TIP3    H119335   2.107   4.439   3.525  0.2200 -1.5711 -0.5933
 6443TIP3    H219336   1.987   4.499   3.595  1.0278  1.2386 -1.4962
 6444TIP3   OH219337   4.682   3.795   0.905 -0.1222 -0.0835 -0.6805
 6444TIP3    H119338   4.764   3.833   0.935 -1.2277  2.3470 -0.4983
 6444TIP3    H219339   4.653   3.853   0.835 -2.8029  0.5393  0.7976
 6445TIP3   OH219340   5.660   3.255   2.007  0.3954 -0.4876 -0.3977
 6445TIP3    H119341   5.702   3.175   1.976  0.9434 -0.3965  0.0744
 6445TIP3    H219342   5.677   3.255   2.102 -0.4374 -0.3036 -0.2432
 6446TIP3   OH219343   1.340   0.038   4.391 -0.0909  0.2417 -0.4899
 6446TIP3    H119344   1.323  -0.049   4.427  2.9451 -1.2343 -2.1919
 6446TIP3    H219345   1.317   0.098   4.462 -0.4843 -2.0570  1.4639
 6447TIP3   OH219346   5.913   5.315   0.824  0.6147 -0.0298  0.1303
 6447TIP3    H119347   5.917   5.229   0.866  0.8633  0.8733  2.0477
 6447TIP3    H219348   5.933   5.377   0.894  2.5489  1.4979 -1.6588
 6448TIP3   OH219349   3.790   2.683   3.067  0.5330  0.1646  0.1340
 6448TIP3    H119350   3.788   2.677   3.162  0.7395 -0.0167  0.1273
 6448TIP3    H219351   3.718   2.629   3.037 -0.6789  1.6407  0.2461
 6449TIP3   OH219352   4.483   3.867   1.335  0.1433 -0.2525  0.2580
 6449TIP3    H119353   4.455   3.940   1.391  0.2532 -0.4815  0.6123
 6449TIP3    H219354   4.405   3.814   1.324  0.0459 -0.0465 -0.0561
 6450TIP3   OH219355   2.298   4.183   2.038  0.1033 -0.0966 -0.2019
 6450TIP3    H119356   2.379   4.234   2.042  0.5010 -0.7709  0.4915
 6450TIP3    H219357   2.273   4.169   2.129  1.2466 -3.0675 -0.2626
 6451TIP3   OH219358   0.511   4.405   3.696 -0.2534  0.0265 -0.2546
 6451TIP3    H119359   0.552   4.445   3.620  0.7737  2.0437  1.2755
 6451TIP3    H219360   0.448   4.470   3.727  0.3206 -0.1508  1.3967
 6452TIP3   OH219361   4.588   3.516   3.021  0.4031  0.2868 -0.0960
 6452TIP3    H119362   4.608   3.427   3.049 -1.0609  0.3245  1.2334
 6452TIP3    H219363   4.652   3.570   3.066  0.5846 -0.0094  0.0058
 6453TIP3   OH219364   0.498   0.338   1.563 -0.5393 -0.6502 -0.2658
 6453TIP3    H119365   0.590   0.328   1.588 -0.4936  2.4990  1.3245
 6453TIP3    H219366   0.450   0.334   1.646 -1.7416 -1.1370 -0.9521
 6454TIP3   OH219367   1.765   2.137   5.126  0.9041  0.0578 -0.3238
 6454TIP3    H119368   1.851   2.180   5.134  0.3632  1.0737  0.2415
 6454TIP3    H219369   1.706   2.207   5.099 -0.0674 -0.2410  0.9371
 6455TIP3   OH219370   1.183   3.026   0.681 -0.2874 -0.5818  0.1737
 6455TIP3    H119371   1.090   3.003   0.686 -0.5049  0.4743  1.6145
 6455TIP3    H219372   1.226   2.965   0.741 -0.4072  0.4918  1.3895
 6456TIP3   OH219373   3.641   5.779   3.806 -0.0868 -0.1249  0.1939
 6456TIP3    H119374   3.592   5.709   3.763 -0.6450  0.2329  0.2283
 6456TIP3    H219375   3.573   5.833   3.847  0.3064  0.6660 -0.1784
 6457TIP3   OH219376   5.066   2.929   3.721  0.9705  0.1629 -0.6567
 6457TIP3    H119377   4.982   2.974   3.728 -0.3619 -1.8757 -2.3338
 6457TIP3    H219378   5.107   2.941   3.807 -1.1944  0.8896  0.3450
 6458TIP3   OH219379   5.876   4.653   1.004 -0.2040 -0.5230  0.1399
 6458TIP3    H119380   5.874   4.704   0.923 -2.0461 -0.3268  0.2759
 6458TIP3    H219381   5.826   4.574   0.984  0.9897 -1.3997  0.5208
 6459TIP3   OH219382   5.971   4.732   0.749 -0.1413  0.5328 -0.5497
 6459TIP3    H119383   6.045   4.783   0.783  0.6701  0.7380 -2.5136
 6459TIP3    H219384   6.005   4.644   0.739 -1.3191 -0.3305  2.0835
 6460TIP3   OH219385   2.927   2.826   4.454 -0.3254 -0.1976 -0.6834
 6460TIP3    H119386   2.870   2.896   4.420 -1.2961  0.1598  1.4906
 6460TIP3    H219387   2.966   2.864   4.533 -0.1074 -1.7838  0.0038
 6461TIP3   OH219388   4.947   1.037   3.312  0.3872  0.3152 -0.2786
 6461TIP3    H119389   4.882   0.988   3.363  1.5549  0.0073  0.9574
 6461TIP3    H219390   4.911   1.039   3.223 -0.9304 -0.5200  0.2042
 6462TIP3   OH219391   4.128   1.242   0.777  0.2100  0.4657  0.1193
 6462TIP3    H119392   4.185   1.298   0.724 -0.7239 -0.5958 -2.1285
 6462TIP3    H219393   4.076   1.303   0.830 -0.3157  1.7232 -1.7619
 6463TIP3   OH219394   0.169   2.907   2.481 -0.5881 -0.7891  0.1569
 6463TIP3    H119395   0.256   2.896   2.444 -1.1912 -0.0767 -1.5721
 6463TIP3    H219396   0.147   2.821   2.517  0.8418 -0.9497  0.6952
 6464TIP3   OH219397   2.523   5.347   1.616 -0.2292  0.3768  0.3384
 6464TIP3    H119398   2.528   5.403   1.538  1.0987  0.3938  0.4228
 6464TIP3    H219399   2.571   5.394   1.683  1.8113 -1.2782  0.1264
 6465TIP3   OH219400   2.178   1.030   4.227  0.1746  0.0217  0.0730
 6465TIP3    H119401   2.137   0.969   4.166  0.4092  0.4900 -0.5688
 6465TIP3    H219402   2.172   0.987   4.313 -1.2518 -0.1192 -0.0796
 6466TIP3   OH219403   0.079   1.829   5.103 -0.3637  0.3631 -0.6067
 6466TIP3    H119404  -0.005   1.801   5.066  0.9521 -1.3844 -2.5331
 6466TIP3    H219405   0.076   1.925   5.100 -2.0163  0.3205 -1.2819
 6467TIP3   OH219406   4.007   0.995   2.631  0.5270 -0.2389 -0.3640
 6467TIP3    H119407   4.030   0.916   2.680  0.8236  0.0957  0.0508
 6467TIP3    H219408   4.026   1.066   2.692  1.3598  0.2250 -1.1389
 6468TIP3   OH219409   4.106   2.394   1.057  0.5900  0.2266 -0.5599
 6468TIP3    H119410   4.051   2.354   0.990 -2.6404  2.5319  0.4682
 6468TIP3    H219411   4.122   2.483   1.025  1.3823  0.4641  0.4423
 6469TIP3   OH219412   4.558   0.956   3.272  0.5863  0.6445  0.0989
 6469TIP3    H119413   4.633   0.949   3.213  1.1365  0.5777  0.7969
 6469TIP3    H219414   4.567   1.043   3.312 -0.5366  1.2585 -0.8984
 6470TIP3   OH219415   2.616   3.303   3.775  0.2272 -0.0200  0.3392
 6470TIP3    H119416   2.585   3.340   3.692 -0.9790 -1.0344  0.3048
 6470TIP3    H219417   2.541   3.255   3.810  1.5000 -1.8867  0.6920
 6471TIP3   OH219418   1.259   0.844   1.293  0.7663 -0.0711  0.1908
 6471TIP3    H119419   1.168   0.813   1.296  0.3158  1.0258 -1.2115
 6471TIP3    H219420   1.290   0.835   1.383 -1.2802  1.0952  1.0939
 6472TIP3   OH219421   5.962   2.558   0.012 -0.1025  0.7707 -0.0515
 6472TIP3    H119422   5.894   2.614  -0.026 -0.2504 -0.0776 -1.0641
 6472TIP3    H219423   5.913   2.497   0.068  0.0476  1.5334  0.9517
 6473TIP3   OH219424   4.814   3.507   2.465  0.0087  0.1265  0.2811
 6473TIP3    H119425   4.723   3.480   2.455 -0.0683  0.2204  0.6942
 6473TIP3    H219426   4.818   3.545   2.553  0.3778  0.3943  0.1508
 6474TIP3   OH219427   1.704   1.837   2.535 -0.3527 -0.4577 -0.5323
 6474TIP3    H119428   1.669   1.773   2.474  0.4289  0.7190 -2.3354
 6474TIP3    H219429   1.658   1.918   2.514 -0.1040 -0.0306  0.4927
 6475TIP3   OH219430   0.999   0.396   1.136 -0.4949 -0.1129  0.0118
 6475TIP3    H119431   1.004   0.450   1.057 -2.4635 -0.3810 -0.3319
 6475TIP3    H219432   0.928   0.435   1.187  1.4133  0.7172  2.2039
 6476TIP3   OH219433   3.323   0.615   3.429  0.6128  0.5730  0.5661
 6476TIP3    H119434   3.410   0.576   3.420 -0.2522 -1.0634 -2.0228
 6476TIP3    H219435   3.337   0.709   3.416  1.7774  0.0695 -2.7663
 6477TIP3   OH219436   0.114   5.609   3.136  0.1145  0.0054 -0.6418
 6477TIP3    H119437   0.130   5.703   3.129  1.7575 -0.2862 -1.1814
 6477TIP3    H219438   0.103   5.593   3.230 -0.5075  0.7729 -0.5793
 6478TIP3   OH219439   3.539   1.986   2.429  0.4511 -0.6469  0.8815
 6478TIP3    H119440   3.586   1.937   2.361 -1.8961 -0.6980 -0.8488
 6478TIP3    H219441   3.598   2.058   2.452  0.8902  0.1561 -2.2181
 6479TIP3   OH219442   4.911   1.267   0.743  0.0120 -0.2652  0.3257
 6479TIP3    H119443   4.843   1.264   0.676  1.1406  2.4726 -1.0724
 6479TIP3    H219444   4.989   1.230   0.701  0.3907  0.2233  0.5834
 6480TIP3   OH219445   3.475   0.911   2.973  0.2366  0.0100 -0.4007
 6480TIP3    H119446   3.496   0.824   2.939 -0.9895 -0.1461 -0.7712
 6480TIP3    H219447   3.405   0.944   2.917 -0.2193  0.6975  0.5343
 6481TIP3   OH219448   6.277   2.909   0.046  0.1654 -0.4615  0.6387
 6481TIP3    H119449   6.370   2.890   0.032 -0.1621 -2.5261  0.9187
 6481TIP3    H219450   6.276   2.964   0.125  1.0837 -1.4444  1.3613
 6482TIP3   OH219451   0.792   4.474   0.565  0.0837 -0.5606  0.0729
 6482TIP3    H119452   0.698   4.460   0.568  0.0235 -0.5385 -1.1546
 6482TIP3    H219453   0.804   4.550   0.508  0.8581 -0.7885 -0.0893
 6483TIP3   OH219454   1.164   2.396   3.987 -0.6769  0.5381  0.3349
 6483TIP3    H119455   1.208   2.336   3.927 -0.4887 -0.8815  1.8105
 6483TIP3    H219456   1.124   2.462   3.931  0.3399 -0.1549 -1.2601
 6484TIP3   OH219457   5.251   3.861   0.362  0.3088  0.1187  0.2599
 6484TIP3    H119458   5.318   3.820   0.308  1.6973  2.0533  0.3974
 6484TIP3    H219459   5.290   3.866   0.449 -1.6371 -2.3271  1.3931
 6485TIP3   OH219460   1.386   0.647   0.344 -0.2419 -0.0689  0.3598
 6485TIP3    H119461   1.422   0.588   0.279 -1.2528 -0.3929  0.0648
 6485TIP3    H219462   1.457   0.662   0.406  0.4875 -0.3918 -0.3810
 6486TIP3   OH219463   3.804   5.933   4.689  0.3825  0.4848  0.0262
 6486TIP3    H119464   3.794   5.839   4.703  0.2855  0.2279 -1.5502
 6486TIP3    H219465   3.733   5.956   4.629 -0.1938  1.7708  1.1614
 6487TIP3   OH219466   3.231   4.933   2.129  0.2458 -0.3781 -0.3728
 6487TIP3    H119467   3.266   4.851   2.164 -0.3878 -0.8476 -0.8203
 6487TIP3    H219468   3.308   4.982   2.102  0.7473 -0.1457  1.3293
 6488TIP3   OH219469   2.772   4.163   0.934 -0.4181  0.3178  0.6567
 6488TIP3    H119470   2.826   4.231   0.973  0.4390 -0.7749  1.4423
 6488TIP3    H219471   2.834   4.095   0.906 -1.3250 -0.7272  1.0801
 6489TIP3   OH219472   0.239   1.573   3.098  0.3850 -0.8954 -0.0078
 6489TIP3    H119473   0.328   1.561   3.131 -0.3949 -0.0875  2.6260
 6489TIP3    H219474   0.241   1.660   3.058  0.5024 -0.2943  1.2431
 6490TIP3   OH219475   1.647   0.666   0.042 -0.3062  0.8045 -0.0462
 6490TIP3    H119476   1.588   0.607   0.089 -0.7248  2.0677  1.0996
 6490TIP3    H219477   1.690   0.717   0.112  1.6872  0.3639 -0.8769
 6491TIP3   OH219478   6.022   2.991   3.463  0.7928 -0.0834  0.0125
 6491TIP3    H119479   6.051   2.932   3.393 -1.1617 -3.5028  1.7725
 6491TIP3    H219480   6.003   2.932   3.536 -0.1423  2.9729  2.4165
 6492TIP3   OH219481   1.917   4.202   1.339  0.0179  0.2226 -0.0548
 6492TIP3    H119482   1.983   4.226   1.404 -0.8691  0.6444  0.7223
 6492TIP3    H219483   1.967   4.165   1.266  1.3760  3.0365 -0.6988
 6493TIP3   OH219484   3.005   5.364   2.056  0.1993 -0.0975 -0.1972
 6493TIP3    H119485   2.987   5.451   2.019  2.2105  1.0652  1.3188
 6493TIP3    H219486   2.966   5.368   2.143  0.7271 -0.5192  0.0608
 6494TIP3   OH219487   2.257   5.342   3.384 -0.1796  0.3507  0.1194
 6494TIP3    H119488   2.246   5.396   3.462 -1.3796  1.1373 -0.5692
 6494TIP3    H219489   2.188   5.371   3.324  0.7269 -0.2111 -1.2581
 6495TIP3   OH219490   3.429   4.611   4.957 -0.6978  0.0658 -0.0826
 6495TIP3    H119491   3.347   4.569   4.932  0.4692 -0.5902 -3.2819
 6495TIP3    H219492   3.404   4.700   4.981 -2.3456 -0.0509 -1.2110
 6496TIP3   OH219493   4.408   3.810   0.370  0.1872 -0.5352 -0.1846
 6496TIP3    H119494   4.429   3.760   0.291 -1.4789 -2.0719  0.2789
 6496TIP3    H219495   4.383   3.897   0.337  0.7765 -0.7379 -1.2259
 6497TIP3   OH219496   6.336   4.926   1.314  0.0110  0.0592 -0.1979
 6497TIP3    H119497   6.308   4.903   1.403  1.5616 -1.6320 -0.0876
 6497TIP3    H219498   6.408   4.988   1.327 -0.1781  0.3088 -0.3189
 6498TIP3   OH219499   1.420   1.273   4.650 -0.0066  0.1920  0.1467
 6498TIP3    H119500   1.361   1.325   4.704 -0.3874 -0.7256  0.6231
 6498TIP3    H219501   1.379   1.187   4.646  0.1711  0.1533 -1.3484
 6499TIP3   OH219502   1.724   4.392   1.638  0.0393 -0.1029  0.1342
 6499TIP3    H119503   1.686   4.305   1.629  0.0242 -0.0020 -0.8205
 6499TIP3    H219504   1.785   4.384   1.712  0.8962 -1.2311 -0.6574
 6500TIP3   OH219505   3.777   5.959   1.617  0.1132 -0.2308 -0.3564
 6500TIP3    H119506   3.869   5.984   1.611  0.3537 -0.8266  0.6707
 6500TIP3    H219507   3.746   6.002   1.697 -1.1071  1.7689 -1.8102
 6501TIP3   OH219508   5.953   1.120   0.081 -0.2115 -0.0856  0.2625
 6501TIP3    H119509   5.943   1.207   0.120  2.0724 -0.6991  2.4327
 6501TIP3    H219510   5.970   1.137  -0.012 -0.9271  1.6955  0.4129
 6502TIP3   OH219511   2.839   1.835   0.292 -0.3751  0.2034 -0.2414
 6502TIP3    H119512   2.803   1.905   0.237 -0.6909  1.0247  0.9680
 6502TIP3    H219513   2.776   1.764   0.284 -3.2599  2.0858  2.9253
 6503TIP3   OH219514   5.140   3.117   0.578 -0.4977  0.8023  0.3503
 6503TIP3    H119515   5.166   3.161   0.498 -1.5770  0.6103 -0.1222
 6503TIP3    H219516   5.050   3.088   0.562 -0.4426  0.0187  1.3118
 6504TIP3   OH219517   5.111   5.411   0.933  0.4107  0.4519 -0.2873
 6504TIP3    H119518   5.141   5.352   1.003 -0.3544  0.5045  0.0885
 6504TIP3    H219519   5.091   5.352   0.860  0.1186  0.2939 -0.0794
 6505TIP3   OH219520   2.627   1.292   4.498 -0.0790  0.3059  0.0987
 6505TIP3    H119521   2.536   1.280   4.471 -0.3435 -0.4862  1.2608
 6505TIP3    H219522   2.623   1.298   4.594  1.3887 -3.5536  0.5998
 6506TIP3   OH219523   2.505   2.782   2.129  0.2805 -0.2190 -0.4147
 6506TIP3    H119524   2.451   2.853   2.163 -1.2393 -1.3143 -0.4593
 6506TIP3    H219525   2.502   2.714   2.197  0.3919 -0.8877 -1.0588
 6507TIP3   OH219526   0.505   5.690   0.511  0.1864 -0.2603 -0.6045
 6507TIP3    H119527   0.548   5.748   0.448  1.8071  0.6219  1.2225
 6507TIP3    H219528   0.568   5.619   0.524  0.1885 -0.0522  0.5583
 6508TIP3   OH219529   4.589   3.712   3.531 -0.5310 -0.1921  0.3816
 6508TIP3    H119530   4.675   3.710   3.489 -0.5581 -1.1617  0.3545
 6508TIP3    H219531   4.606   3.746   3.619 -0.4252  1.5298 -0.2666
 6509TIP3   OH219532   6.292   1.255   0.134 -1.0618 -0.1291  0.1633
 6509TIP3    H119533   6.313   1.179   0.081  1.4777 -0.4578  1.4856
 6509TIP3    H219534   6.329   1.329   0.086  1.3149 -0.4363  1.3508
 6510TIP3   OH219535   4.427   5.728   1.677 -0.4099  0.1287 -0.1953
 6510TIP3    H119536   4.486   5.724   1.752 -0.1735 -1.3685 -0.4313
 6510TIP3    H219537   4.464   5.667   1.613 -1.9028 -0.4605 -0.5481
 6511TIP3   OH219538   4.068   3.272   1.297  0.1196 -0.3711  0.0491
 6511TIP3    H119539   4.125   3.310   1.365 -0.4683 -2.0406  1.5679
 6511TIP3    H219540   4.005   3.219   1.346 -0.9272 -0.8993 -1.7790
 6512TIP3   OH219541   5.916   2.518   4.848  0.0941  0.1108  0.4959
 6512TIP3    H119542   5.879   2.549   4.766 -2.0006  0.2831  1.4485
 6512TIP3    H219543   5.988   2.578   4.867  0.6386  0.0389 -1.2041
 6513TIP3   OH219544   4.612   0.274   3.107  0.2080 -0.1344  0.0732
 6513TIP3    H119545   4.610   0.276   3.011  0.6107  0.4281  0.0745
 6513TIP3    H219546   4.705   0.262   3.129  0.1534  0.0356  0.3978
 6514TIP3   OH219547   1.670   1.161   4.099  0.4334  0.1160  0.2449
 6514TIP3    H119548   1.650   1.212   4.177 -0.0431 -0.2213  0.3443
 6514TIP3    H219549   1.714   1.223   4.041  0.0062  0.5973  0.4274
 6515TIP3   OH219550   4.242   0.282   5.031 -0.1471 -0.1753 -0.2352
 6515TIP3    H119551   4.274   0.299   4.943  1.1950 -0.6675  0.1364
 6515TIP3    H219552   4.317   0.297   5.088 -0.2864 -2.2422  0.5784
 6516TIP3   OH219553   1.791   1.602   5.062  0.3479  0.1620  0.0896
 6516TIP3    H119554   1.752   1.581   4.977  0.5432 -0.8214  0.2329
 6516TIP3    H219555   1.718   1.591   5.124  0.5364 -0.4481  0.2069
 6517TIP3   OH219556   3.667   3.396   2.323  0.4156 -0.5218 -0.4165
 6517TIP3    H119557   3.677   3.434   2.236  0.8784 -0.6656 -0.4298
 6517TIP3    H219558   3.628   3.465   2.376  2.6650  0.5411 -0.0372
 6518TIP3   OH219559   4.427   5.765   1.241  1.1454 -0.0481  0.3070
 6518TIP3    H119560   4.475   5.841   1.275 -0.0293  0.5983  0.5775
 6518TIP3    H219561   4.346   5.763   1.291  1.0870 -1.4135  0.1990
 6519TIP3   OH219562   5.268   5.121   0.568 -0.6839  0.2818 -0.0967
 6519TIP3    H119563   5.247   5.046   0.624 -0.6416 -0.7546 -1.4235
 6519TIP3    H219564   5.272   5.085   0.480 -2.7325  2.2396 -1.0819
 6520TIP3   OH219565   2.102   3.650   3.000 -0.3563  0.3185  0.2714
 6520TIP3    H119566   2.174   3.600   2.961 -1.8342 -0.4757 -1.6266
 6520TIP3    H219567   2.144   3.726   3.040  1.6833 -1.0015  0.7869
 6521TIP3   OH219568   6.123   0.518   1.705  0.2982  0.3595 -0.2373
 6521TIP3    H119569   6.100   0.436   1.660 -2.2971  0.8789 -0.0204
 6521TIP3    H219570   6.218   0.524   1.698  0.2305 -0.7440 -3.6489
 6522TIP3   OH219571   6.177   0.317   2.780 -0.1711  0.6429  0.2033
 6522TIP3    H119572   6.241   0.389   2.777 -1.3370  1.7122  0.4268
 6522TIP3    H219573   6.098   0.357   2.814 -0.7628 -0.8389  0.6091
 6523TIP3   OH219574   5.380   3.767   3.540 -0.4036 -0.2418 -0.6879
 6523TIP3    H119575   5.298   3.735   3.503  0.1685 -1.4255 -0.9881
 6523TIP3    H219576   5.395   3.713   3.618 -0.4446  0.7005 -0.0029
 6524TIP3   OH219577   1.466   3.480   3.373 -0.1878  0.2725  0.2596
 6524TIP3    H119578   1.371   3.486   3.357 -0.3265 -0.5024  0.7771
 6524TIP3    H219579   1.495   3.408   3.318  0.4622  1.7435 -1.4094
 6525TIP3   OH219580   2.433   1.815   3.200  0.0643 -0.0313  0.2765
 6525TIP3    H119581   2.489   1.810   3.122 -0.8590 -2.8209 -0.3351
 6525TIP3    H219582   2.489   1.783   3.271  0.5745  1.4767  0.5737
 6526TIP3   OH219583   1.596   3.945   4.505  0.1293  0.2941  0.1407
 6526TIP3    H119584   1.599   4.037   4.481 -0.7588  0.5711  1.0278
 6526TIP3    H219585   1.531   3.940   4.575  1.5601 -0.6746  1.4856
 6527TIP3   OH219586   3.919   0.651   4.511  0.1945 -0.2505  0.2297
 6527TIP3    H119587   3.825   0.669   4.501  0.1481  0.7595  2.0283
 6527TIP3    H219588   3.924   0.596   4.590  1.1132 -0.4310  0.0526
 6528TIP3   OH219589   2.423   5.386   1.109  0.0717  0.3021 -0.5662
 6528TIP3    H119590   2.361   5.380   1.036  0.2611 -2.2824 -0.6146
 6528TIP3    H219591   2.368   5.397   1.186 -0.4797 -1.3339 -0.6781
 6529TIP3   OH219592  -0.018   2.853   4.002 -0.1032  0.7173 -0.0061
 6529TIP3    H119593   0.062   2.854   3.950 -0.2348  0.5864 -0.2100
 6529TIP3    H219594  -0.034   2.761   4.021  0.0179  0.7725  0.3827
 6530TIP3   OH219595   5.096   1.893   1.682 -0.7945 -0.4460  0.4689
 6530TIP3    H119596   5.169   1.936   1.727  0.1553  1.3500 -2.5123
 6530TIP3    H219597   5.136   1.815   1.643 -0.9116 -0.4571  0.3712
 6531TIP3   OH219598   3.985   0.936   3.231 -0.4349  0.3392 -0.4312
 6531TIP3    H119599   4.023   0.976   3.309  2.6643 -1.8257 -0.6696
 6531TIP3    H219600   4.046   0.958   3.160 -1.0206 -1.0341 -1.4149
 6532TIP3   OH219601   0.381   1.628   2.418  0.0359 -0.1469 -0.0188
 6532TIP3    H119602   0.294   1.589   2.415 -0.2971  0.4134  1.4566
 6532TIP3    H219603   0.418   1.612   2.331 -1.0764 -1.4286 -0.2862
 6533TIP3   OH219604   2.060   0.976   1.981 -0.4556  0.1204  0.2258
 6533TIP3    H119605   2.085   1.006   1.893 -0.5387  0.0957  0.1931
 6533TIP3    H219606   1.990   0.913   1.965 -0.9509  0.6267  0.3473
 6534TIP3   OH219607   5.516   5.830   1.310  0.1662 -0.0410  0.6174
 6534TIP3    H119608   5.547   5.778   1.385  0.4057  0.0575  0.5845
 6534TIP3    H219609   5.550   5.918   1.326  1.2487 -0.2933 -0.2359
 6535TIP3   OH219610   5.623   0.240   4.704  0.4769 -0.1342  0.1636
 6535TIP3    H119611   5.690   0.236   4.772  1.4080  0.9338 -0.6573
 6535TIP3    H219612   5.550   0.287   4.744  0.9018  0.2205  0.5296
 6536TIP3   OH219613   2.355   1.542   0.931 -0.0001 -0.0042  0.1163
 6536TIP3    H119614   2.392   1.535   0.843 -2.5406 -1.0931 -0.9736
 6536TIP3    H219615   2.416   1.599   0.978  0.7924  1.7237 -2.7303
 6537TIP3   OH219616   3.168   1.774   2.994  0.6034 -0.1785 -0.2327
 6537TIP3    H119617   3.166   1.741   3.084  1.0063 -3.0000 -1.1462
 6537TIP3    H219618   3.259   1.800   2.979  1.2232 -2.3607 -0.6028
 6538TIP3   OH219619   6.238   2.947   1.048 -0.3063 -0.0190  0.3756
 6538TIP3    H119620   6.333   2.944   1.052 -0.3099  0.2453  0.6864
 6538TIP3    H219621   6.219   2.981   0.960 -0.0864  1.2328  0.7849
 6539TIP3   OH219622   0.431   5.136   3.161 -0.0237 -0.0852  0.2565
 6539TIP3    H119623   0.387   5.188   3.094 -0.4909 -1.8250 -0.8735
 6539TIP3    H219624   0.519   5.171   3.165 -0.5057  1.2017  0.0098
 6540TIP3   OH219625   0.268   5.330   0.879 -0.2752 -0.2268 -0.1633
 6540TIP3    H119626   0.325   5.368   0.812 -0.1722 -0.1986 -0.0596
 6540TIP3    H219627   0.325   5.273   0.930  0.7365  3.0801  2.7226
 6541TIP3   OH219628   2.521   0.708   2.762  0.1371 -0.2791  0.1308
 6541TIP3    H119629   2.516   0.797   2.798 -0.2328 -0.4903  0.6157
 6541TIP3    H219630   2.592   0.666   2.812  2.1414  0.5144 -1.8612
 6542TIP3   OH219631   5.896   4.065   3.365 -0.0154  0.1181  0.3609
 6542TIP3    H119632   5.921   4.028   3.450  2.0684 -2.1079 -1.0855
 6542TIP3    H219633   5.967   4.124   3.342 -0.6552  0.8441  0.1942
 6543TIP3   OH219634   0.325   1.975   1.664  0.1626 -0.3725  0.0688
 6543TIP3    H119635   0.405   2.002   1.618  0.0144 -1.8110 -1.1173
 6543TIP3    H219636   0.261   2.042   1.641  0.8724  0.5005  0.5812
 6544TIP3   OH219637   2.534   0.444   1.360  0.1410  0.3326 -0.2841
 6544TIP3    H119638   2.619   0.485   1.346  0.0918  0.8515  0.8181
 6544TIP3    H219639   2.482   0.511   1.406 -0.1187 -0.7537  1.0803
 6545TIP3   OH219640   0.373   2.164   0.964  0.1029 -0.3560  0.2227
 6545TIP3    H119641   0.419   2.163   0.880 -0.6751  0.8208 -0.2337
 6545TIP3    H219642   0.361   2.071   0.986  0.5430 -0.6753 -0.8281
 6546TIP3   OH219643   3.408   5.227   0.701  0.4262  0.0670 -0.4580
 6546TIP3    H119644   3.341   5.280   0.655 -0.2716  0.4631  0.9625
 6546TIP3    H219645   3.365   5.144   0.718 -0.3080  0.8249  1.7787
 6547TIP3   OH219646   5.221   5.077   3.242  0.9191 -0.3661 -0.2514
 6547TIP3    H119647   5.166   5.111   3.312 -0.1727 -1.8461 -0.3443
 6547TIP3    H219648   5.255   5.155   3.198 -1.2535  0.6291 -0.2980
 6548TIP3   OH219649   0.088   1.065   1.543  0.1874 -0.3181 -0.3408
 6548TIP3    H119650   0.003   1.044   1.580 -0.1750 -1.2950 -1.6471
 6548TIP3    H219651   0.070   1.131   1.476  0.8467  1.5378  1.2245
 6549TIP3   OH219652   1.880   5.690   5.029  0.5320  0.9264  0.0914
 6549TIP3    H119653   1.962   5.641   5.022  0.3152  0.7338 -1.5191
 6549TIP3    H219654   1.842   5.662   5.113  0.8854 -0.9338 -0.3302
 6550TIP3   OH219655   5.330   0.935   1.256  0.0747  0.2708 -0.4180
 6550TIP3    H119656   5.237   0.927   1.235  0.1912  0.4279 -1.0181
 6550TIP3    H219657   5.355   1.019   1.217  0.3216  0.5347  0.2947
 6551TIP3   OH219658   4.265   1.212   4.310  0.1173 -0.2898  0.4488
 6551TIP3    H119659   4.279   1.168   4.394  0.7748  0.1588  0.5845
 6551TIP3    H219660   4.291   1.303   4.326 -0.8455  0.0746  0.0721
 6552TIP3   OH219661   3.422   1.630   2.969 -0.2037  0.2966  0.2491
 6552TIP3    H119662   3.477   1.636   3.048  1.5859 -2.6393 -0.6130
 6552TIP3    H219663   3.467   1.685   2.905 -0.5502  1.0973  0.6790
 6553TIP3   OH219664   2.854   1.205   0.749 -0.2413  0.4783  0.4810
 6553TIP3    H119665   2.916   1.271   0.717 -0.0894  0.9204  1.6567
 6553TIP3    H219666   2.831   1.234   0.837 -3.5713  1.3626 -0.5300
 6554TIP3   OH219667   3.532   3.332   1.106  0.5682  0.0393 -0.4241
 6554TIP3    H119668   3.598   3.362   1.043 -0.0210  1.3824 -0.4313
 6554TIP3    H219669   3.473   3.406   1.116  0.2850 -0.3780  1.2476
 6555TIP3   OH219670   1.578   5.627   1.335  0.3952  0.4417  0.5250
 6555TIP3    H119671   1.627   5.708   1.345  0.5659  0.3812  0.2069
 6555TIP3    H219672   1.490   5.655   1.311  1.0113  0.5133 -1.9153
 6556TIP3   OH219673   3.648   0.636   4.579  0.0960 -0.9295  0.4016
 6556TIP3    H119674   3.565   0.651   4.536  0.5276 -0.9117 -0.4461
 6556TIP3    H219675   3.651   0.700   4.650 -0.4611 -0.7021  0.2201
 6557TIP3   OH219676   1.099   2.541   3.534 -0.0458  0.5448  0.5498
 6557TIP3    H119677   1.027   2.594   3.500  0.3782  0.4833 -0.4801
 6557TIP3    H219678   1.123   2.483   3.462  0.9159  0.4330  0.9427
 6558TIP3   OH219679   0.409   3.110   4.436  0.5188  0.2253 -0.1499
 6558TIP3    H119680   0.496   3.149   4.444  1.1334 -1.0658 -0.4005
 6558TIP3    H219681   0.425   3.019   4.414 -0.9078 -0.0065 -0.3205
 6559TIP3   OH219682   4.415   3.200   2.117 -0.2077 -0.0741  0.1036
 6559TIP3    H119683   4.377   3.218   2.203 -0.0962 -0.5113  0.2471
 6559TIP3    H219684   4.442   3.108   2.121  0.3209  0.0602 -0.1988
 6560TIP3   OH219685   3.027   4.122   0.224 -0.4719  0.1852 -0.3247
 6560TIP3    H119686   3.028   4.062   0.298  0.7077 -0.5909 -0.9328
 6560TIP3    H219687   3.072   4.200   0.256  0.1212 -0.1859 -0.2437
 6561TIP3   OH219688   5.162   1.045   2.642  0.0305  0.1874 -0.1465
 6561TIP3    H119689   5.165   1.140   2.650 -0.1924  0.3589 -1.8042
 6561TIP3    H219690   5.076   1.020   2.678 -0.1930  0.6854 -0.3352
 6562TIP3   OH219691   4.903   1.196   1.021 -0.0773  0.1665 -0.0671
 6562TIP3    H119692   4.838   1.131   0.994  1.1332 -0.6198 -1.1667
 6562TIP3    H219693   4.930   1.238   0.940  1.2194  0.0753  0.3031
 6563TIP3   OH219694   5.899   2.797   2.083  0.3921 -0.3145 -0.2347
 6563TIP3    H119695   5.911   2.795   2.178  1.9763  0.5529 -0.3854
 6563TIP3    H219696   5.805   2.811   2.071 -0.0245 -1.5764  1.1655
 6564TIP3   OH219697   2.146   1.265   0.068  0.1180  0.0841  0.5879
 6564TIP3    H119698   2.122   1.291   0.156 -0.1913  1.4971  0.1051
 6564TIP3    H219699   2.082   1.198   0.044 -2.4554  2.5682 -0.0487
 6565TIP3   OH219700   4.527   0.410   1.341 -0.7218 -0.2772  0.5214
 6565TIP3    H119701   4.544   0.336   1.283 -0.9722 -0.4264  0.6403
 6565TIP3    H219702   4.448   0.387   1.388 -1.6271  0.6783 -0.4663
 6566TIP3   OH219703   4.027   5.287   0.642 -0.2901  0.3553 -0.2509
 6566TIP3    H119704   4.089   5.335   0.696  0.8957 -0.0802 -1.1859
 6566TIP3    H219705   4.068   5.283   0.555 -1.1105 -0.9002 -0.6133
 6567TIP3   OH219706   2.958   0.374   2.604  0.1631 -0.6724 -0.4171
 6567TIP3    H119707   2.933   0.282   2.617 -0.7901 -0.5882 -1.5001
 6567TIP3    H219708   2.900   0.405   2.536  0.4510  0.7709 -0.0370
 6568TIP3   OH219709   3.834   5.231   3.733 -0.3321  0.0618 -0.2465
 6568TIP3    H119710   3.753   5.256   3.778 -0.5202  0.3214 -0.7217
 6568TIP3    H219711   3.904   5.257   3.793 -0.6210 -2.1750  1.1962
 6569TIP3   OH219712   0.432   1.009   0.259 -0.2612 -0.1258  0.3167
 6569TIP3    H119713   0.339   1.024   0.241 -0.5145 -0.3270  1.3756
 6569TIP3    H219714   0.448   0.919   0.232 -0.3013 -0.0010 -0.1293
 6570TIP3   OH219715   5.198   5.786   0.420  0.0918  0.1618  0.4786
 6570TIP3    H119716   5.238   5.823   0.342  1.6011 -0.0157  1.1289
 6570TIP3    H219717   5.261   5.721   0.451 -0.9360 -0.4928  1.2811
 6571TIP3   OH219718   6.199   0.853   2.954 -0.0682 -0.0758 -0.6158
 6571TIP3    H119719   6.156   0.937   2.970 -0.4809 -0.4042  0.0459
 6571TIP3    H219720   6.127   0.790   2.949  0.0510 -0.1382 -3.0725
 6572TIP3   OH219721   2.498   0.864   1.350 -1.0531  0.1681 -0.1447
 6572TIP3    H119722   2.518   0.812   1.272 -0.5600 -2.3330  1.5121
 6572TIP3    H219723   2.582   0.869   1.397 -1.3958  1.3723  0.3748
 6573TIP3   OH219724   0.053   4.169   5.149 -0.1331  0.1061 -0.3911
 6573TIP3    H119725   0.130   4.197   5.099  1.5693 -1.5218  1.1568
 6573TIP3    H219726   0.079   4.086   5.188 -1.4617  1.0579  2.8422
 6574TIP3   OH219727   4.000   0.938   3.523  0.2708  0.0491 -0.1146
 6574TIP3    H119728   3.915   0.897   3.540 -0.1917  0.1030 -2.0622
 6574TIP3    H219729   4.064   0.870   3.544 -0.3440 -0.5867 -0.2440
 6575TIP3   OH219730   0.695   1.358   3.202 -0.1637 -0.2723  0.8673
 6575TIP3    H119731   0.691   1.264   3.183  1.1066 -0.3294  0.7818
 6575TIP3    H219732   0.699   1.400   3.117  1.5385 -0.2950  0.9030
 6576TIP3   OH219733   5.321   0.787   4.976  0.4238  0.2854  0.5115
 6576TIP3    H119734   5.359   0.810   4.891 -0.4754  1.6638  0.4607
 6576TIP3    H219735   5.254   0.722   4.955  1.1380 -0.4228  0.3486
 6577TIP3   OH219736   4.709   3.758   0.151 -0.3554 -0.1290  0.4054
 6577TIP3    H119737   4.717   3.677   0.203  3.6356  0.1971  0.6485
 6577TIP3    H219738   4.719   3.828   0.215  0.5467  0.3916 -0.2804
 6578TIP3   OH219739   2.445   4.723   0.483  0.0420 -0.0816 -0.1768
 6578TIP3    H119740   2.407   4.646   0.442 -0.2790  0.4550 -0.9131
 6578TIP3    H219741   2.393   4.737   0.562  2.5196 -2.8846  2.1734
 6579TIP3   OH219742   2.253   5.378   0.876 -0.1688  0.2232 -0.3359
 6579TIP3    H119743   2.259   5.296   0.829  0.0766 -0.3076  0.5845
 6579TIP3    H219744   2.166   5.377   0.917  0.6742 -0.6672  1.5540
 6580TIP3   OH219745   2.937   0.187   0.737  0.1760 -0.0245  0.0053
 6580TIP3    H119746   2.963   0.095   0.729 -4.0450 -1.3707 -0.7357
 6580TIP3    H219747   2.948   0.223   0.649  1.0018 -0.0536  0.0889
 6581TIP3   OH219748   2.606   3.607   2.894 -0.4311 -0.0694 -0.1031
 6581TIP3    H119749   2.686   3.584   2.846 -1.3994 -0.9623 -1.3415
 6581TIP3    H219750   2.604   3.703   2.892  2.0979  0.1533  2.5089
 6582TIP3   OH219751   2.383   4.250   2.485 -0.3365  0.0037  0.0871
 6582TIP3    H119752   2.456   4.287   2.436  0.0879  2.1349  2.1452
 6582TIP3    H219753   2.366   4.313   2.555 -1.9845 -2.0291  1.6755
 6583TIP3   OH219754   1.289   3.586   1.453  0.0799  0.4921 -0.1679
 6583TIP3    H119755   1.352   3.534   1.502  0.6439  0.3804 -1.0053
 6583TIP3    H219756   1.280   3.542   1.369 -1.5152  0.2068  0.1070
 6584TIP3   OH219757   4.690   2.089   0.892 -0.2284 -0.0374 -0.6054
 6584TIP3    H119758   4.693   2.090   0.796 -1.2165 -0.3051 -0.6510
 6584TIP3    H219759   4.598   2.072   0.912  0.2292 -1.5291  0.3815
 6585TIP3   OH219760   5.419   1.396   0.448 -0.4280 -0.2110 -0.5433
 6585TIP3    H119761   5.407   1.360   0.536 -0.2650  0.7480 -0.1206
 6585TIP3    H219762   5.448   1.321   0.395  0.9212 -0.4950  0.5444
 6586TIP3   OH219763   3.677   4.899   3.984  0.2183  0.5651  0.1119
 6586TIP3    H119764   3.738   4.962   4.023  1.2581 -0.3677  0.0255
 6586TIP3    H219765   3.616   4.879   4.055  0.7092  0.6321  0.5620
 6587TIP3   OH219766   2.418   4.361   0.980  0.3018 -0.5845 -0.4161
 6587TIP3    H119767   2.395   4.282   0.932  0.0821 -0.8105  0.0526
 6587TIP3    H219768   2.336   4.388   1.022 -0.1635  1.0621 -2.2044
 6588TIP3   OH219769   0.396   2.802   1.403 -0.0167 -0.4270 -0.4001
 6588TIP3    H119770   0.478   2.788   1.356  0.1061  1.2307 -0.7246
 6588TIP3    H219771   0.422   2.803   1.496  0.0497 -1.5722 -0.3861
 6589TIP3   OH219772   1.458   0.620   3.958 -1.0527  0.3611  0.1824
 6589TIP3    H119773   1.537   0.633   4.012  1.0743  0.2205 -2.6893
 6589TIP3    H219774   1.402   0.564   4.011  1.4598 -0.8432  1.7566
 6590TIP3   OH219775   0.862   5.839   3.946  0.1583 -0.7385  0.1730
 6590TIP3    H119776   0.878   5.849   4.040 -0.2082  0.3020  0.1434
 6590TIP3    H219777   0.780   5.791   3.940 -0.6202  0.5226  0.4217
 6591TIP3   OH219778   0.098   4.368   2.134 -0.2860  0.2235  0.2375
 6591TIP3    H119779   0.019   4.401   2.177 -0.6559  0.5666 -0.6801
 6591TIP3    H219780   0.067   4.298   2.077  0.2665 -0.5515  0.8699
 6592TIP3   OH219781   2.219   4.526   3.051 -0.0973  0.4347 -0.0631
 6592TIP3    H119782   2.285   4.462   3.023 -1.0527  0.0146 -1.4547
 6592TIP3    H219783   2.152   4.474   3.096 -1.4106  0.2429 -2.1370
 6593TIP3   OH219784   2.575   2.802   1.284  0.1128 -0.2447 -0.4546
 6593TIP3    H119785   2.527   2.722   1.305 -2.0188  1.1704  0.4115
 6593TIP3    H219786   2.652   2.800   1.341 -1.7345 -0.0508  2.2092
 6594TIP3   OH219787   3.515   1.794   2.649  0.1071 -0.1698  0.2430
 6594TIP3    H119788   3.433   1.844   2.653 -0.1652 -0.4712 -1.0499
 6594TIP3    H219789   3.582   1.859   2.628  0.3363  0.1923  1.9798
 6595TIP3   OH219790   3.973   0.213   0.060  0.0480  0.2288  0.2521
 6595TIP3    H119791   4.041   0.215   0.127  0.3774 -0.4123 -0.0584
 6595TIP3    H219792   4.020   0.212  -0.023 -0.3666  1.9322 -0.0304
 6596TIP3   OH219793   3.566   5.938   3.092  0.0706 -0.1826 -0.3962
 6596TIP3    H119794   3.617   5.951   3.172  0.1765 -0.2507 -0.4516
 6596TIP3    H219795   3.475   5.936   3.121  0.1870 -2.2841  0.0169
 6597TIP3   OH219796   5.077   5.610   1.781  0.2050 -0.4384  0.3830
 6597TIP3    H119797   5.094   5.698   1.745  1.2785 -0.2586  1.2585
 6597TIP3    H219798   5.103   5.550   1.711 -0.5496 -0.0603 -0.2278
 6598TIP3   OH219799   2.624   4.545   4.901 -0.5426  0.4855  1.0435
 6598TIP3    H119800   2.538   4.542   4.944 -0.7428  1.1243  0.6967
 6598TIP3    H219801   2.623   4.625   4.849  0.3621  0.6418  1.2383
 6599TIP3   OH219802   1.829   0.594   3.687 -0.2798 -0.1100 -0.1003
 6599TIP3    H119803   1.752   0.636   3.726  0.3510 -0.1537  1.2863
 6599TIP3    H219804   1.835   0.631   3.600 -2.1832 -0.5118 -0.4601
 6600TIP3   OH219805   2.719   5.696   1.091 -0.0908 -0.0247 -0.1632
 6600TIP3    H119806   2.787   5.641   1.132 -0.2336 -1.5313 -1.8072
 6600TIP3    H219807   2.640   5.677   1.140  0.3560  0.5872  0.8142
 6601TIP3   OH219808   1.464   5.302   1.840 -0.5307 -0.2149  0.5333
 6601TIP3    H119809   1.517   5.235   1.799  1.2996  1.8591 -0.6989
 6601TIP3    H219810   1.527   5.361   1.882 -1.5528  3.1223 -2.1323
 6602TIP3   OH219811   1.579   3.274   3.233  0.5233 -0.3001  0.5086
 6602TIP3    H119812   1.645   3.267   3.165 -0.2093  0.7620 -0.3592
 6602TIP3    H219813   1.609   3.216   3.303  1.3099 -1.3888 -0.7006
 6603TIP3   OH219814   5.183   1.170   4.749 -0.5018 -0.0058  0.3808
 6603TIP3    H119815   5.222   1.123   4.676 -0.9252  0.1757  0.0317
 6603TIP3    H219816   5.210   1.261   4.737 -3.0446  0.6270 -1.3185
 6604TIP3   OH219817   4.460   1.623   3.087  0.0252  0.1508  0.0380
 6604TIP3    H119818   4.395   1.615   3.157 -2.6152  2.1228 -1.9638
 6604TIP3    H219819   4.420   1.682   3.024  1.9000 -2.0457 -3.5450
 6605TIP3   OH219820   2.463   5.910   4.803  0.6882 -0.3244  0.4444
 6605TIP3    H119821   2.379   5.935   4.840  0.8074 -1.0449  1.2318
 6605TIP3    H219822   2.441   5.851   4.731  0.4628  0.9590 -0.5848
 6606TIP3   OH219823   6.237   5.515   4.542  0.4628 -0.0033  0.6895
 6606TIP3    H119824   6.152   5.500   4.585  0.0974 -0.2248 -0.0905
 6606TIP3    H219825   6.240   5.450   4.472  1.3745 -0.1271  0.8333
 6607TIP3   OH219826   0.735   4.735   4.683 -0.0636 -0.0401 -0.1215
 6607TIP3    H119827   0.710   4.816   4.639 -0.7483 -0.2642 -0.1694
 6607TIP3    H219828   0.701   4.745   4.772  1.7972  0.6456  0.5605
 6608TIP3   OH219829   4.598   0.340   2.683 -0.0902  0.0241  0.1532
 6608TIP3    H119830   4.607   0.434   2.695 -1.3110  0.3553 -1.2813
 6608TIP3    H219831   4.687   0.306   2.691  0.6818  1.5550 -1.3820
 6609TIP3   OH219832   5.245   2.481   1.201 -0.5464 -0.2744 -0.0320
 6609TIP3    H119833   5.258   2.457   1.110 -1.4645 -0.7995 -0.0418
 6609TIP3    H219834   5.157   2.449   1.221 -0.4684  0.1023  0.9481
 6610TIP3   OH219835   4.039   6.011   1.673  0.2243  0.1813 -0.2420
 6610TIP3    H119836   4.041   5.919   1.647  1.5161 -0.0607  0.6454
 6610TIP3    H219837   4.028   6.009   1.768 -1.5039  0.9964 -0.3855
 6611TIP3   OH219838   6.326   1.324   0.866 -0.5267 -0.2059  0.2981
 6611TIP3    H119839   6.379   1.278   0.931 -0.7196  0.3882  0.8862
 6611TIP3    H219840   6.367   1.302   0.782  0.1017 -0.4804  0.6656
 6612TIP3   OH219841   0.668   0.948   0.751  0.1501  0.1712 -0.1349
 6612TIP3    H119842   0.697   1.009   0.818  0.0358  1.9599 -1.6372
 6612TIP3    H219843   0.622   0.879   0.799  0.7131  0.9959  1.6581
 6613TIP3   OH219844   0.206   4.585   1.144  0.2857  0.1183 -0.1242
 6613TIP3    H119845   0.178   4.527   1.073  0.3084 -0.5798  0.4226
 6613TIP3    H219846   0.284   4.628   1.109  1.0371 -1.1454 -0.0929
 6614TIP3   OH219847   3.197   5.326   1.844 -0.0641 -0.1364 -0.4334
 6614TIP3    H119848   3.162   5.369   1.766 -1.2331 -0.9487 -0.3790
 6614TIP3    H219849   3.127   5.332   1.909  0.7287  0.1307  0.4136
 6615TIP3   OH219850   4.431   0.928   0.474  0.2686 -0.5951  0.0972
 6615TIP3    H119851   4.521   0.904   0.496  1.1863  3.4809  1.7639
 6615TIP3    H219852   4.391   0.952   0.558 -1.8904 -0.8012 -0.7960
 6616TIP3   OH219853   3.463   2.815   1.102  0.4273  0.1683 -0.1399
 6616TIP3    H119854   3.462   2.813   1.006  2.7729 -1.8326 -0.2310
 6616TIP3    H219855   3.487   2.904   1.124  2.9809 -0.0494 -1.6137
 6617TIP3   OH219856   4.215   2.217   4.187 -0.0661  0.8764  0.6093
 6617TIP3    H119857   4.286   2.216   4.251 -1.2694 -1.8209  2.0485
 6617TIP3    H219858   4.252   2.263   4.111  3.0245  0.0801  1.4937
 6618TIP3   OH219859   1.869   1.634   1.437 -0.1049  0.2084 -0.2518
 6618TIP3    H119860   1.888   1.544   1.410 -2.3792  0.2848 -2.5752
 6618TIP3    H219861   1.809   1.624   1.511 -1.4366 -0.3142 -1.3376
 6619TIP3   OH219862   0.341   1.132   4.393 -0.1940 -0.3275  0.0457
 6619TIP3    H119863   0.405   1.142   4.464  0.9592  1.5507 -1.1546
 6619TIP3    H219864   0.284   1.208   4.402  0.3326  0.2674 -1.3311
 6620TIP3   OH219865   2.417   3.194   2.344  0.6769 -0.1931 -0.7736
 6620TIP3    H119866   2.345   3.255   2.331  2.0618  1.9258  0.7941
 6620TIP3    H219867   2.430   3.192   2.439  2.6779 -0.4640 -1.0074
 6621TIP3   OH219868   4.222   0.179   2.418 -0.0674 -0.1062 -0.7045
 6621TIP3    H119869   4.235   0.123   2.495  1.8415 -0.9458 -1.5814
 6621TIP3    H219870   4.127   0.182   2.407 -0.3029 -1.6162  0.5051
 6622TIP3   OH219871   1.908   4.897   4.720  0.1192 -0.3353  0.0243
 6622TIP3    H119872   1.954   4.816   4.700  1.2006  0.1430  0.4794
 6622TIP3    H219873   1.947   4.962   4.662  0.7080  0.2767  1.0788
 6623TIP3   OH219874   3.490   4.869   1.873 -0.0239  0.5411  0.0605
 6623TIP3    H119875   3.443   4.953   1.874  0.5266  0.8511  0.1141
 6623TIP3    H219876   3.529   4.863   1.960  0.8033  0.7223 -0.2939
 6624TIP3   OH219877   5.279   1.990   1.258  0.1951  0.3395 -0.2282
 6624TIP3    H119878   5.308   2.058   1.198  2.7570  1.1983  1.7748
 6624TIP3    H219879   5.340   1.918   1.243  0.8100  0.5277  1.1960
 6625TIP3   OH219880   2.856   4.590   3.602  0.1511 -0.2461  0.4507
 6625TIP3    H119881   2.880   4.559   3.689  3.5908  0.0662 -0.2254
 6625TIP3    H219882   2.874   4.515   3.544 -0.8271 -0.0437 -0.1325
 6626TIP3   OH219883   1.230   4.959   4.198 -0.3710  0.0015 -0.7712
 6626TIP3    H119884   1.163   5.012   4.240 -1.1050  0.7349 -2.7403
 6626TIP3    H219885   1.207   4.869   4.221 -0.2531  0.3897  1.0120
 6627TIP3   OH219886   5.606   2.199   0.421 -0.8443 -0.1715  0.5192
 6627TIP3    H119887   5.553   2.142   0.476  0.5510 -0.6341  1.4137
 6627TIP3    H219888   5.675   2.142   0.387  0.4003  0.8930  1.1961
 6628TIP3   OH219889   3.569   3.067   1.133  0.4323  0.5098 -0.5900
 6628TIP3    H119890   3.665   3.068   1.130  0.6595  0.2387  2.7879
 6628TIP3    H219891   3.543   3.155   1.108  1.6857  1.0487 -0.0777
 6629TIP3   OH219892   4.409   0.298   3.916 -0.2051  0.5638  0.0600
 6629TIP3    H119893   4.422   0.363   3.986 -0.1326  0.7654 -0.1379
 6629TIP3    H219894   4.402   0.351   3.836  2.2684  0.2509 -0.4674
 6630TIP3   OH219895   4.360   3.776   3.143 -0.5138  0.0291 -0.2234
 6630TIP3    H119896   4.434   3.785   3.203  0.2931  1.9060 -1.4073
 6630TIP3    H219897   4.294   3.729   3.194  0.4570  0.7541  1.8334
 6631TIP3   OH219898   5.226   5.279   2.673 -0.0107 -0.2682 -0.3453
 6631TIP3    H119899   5.289   5.326   2.727 -0.1738 -0.1562 -0.2509
 6631TIP3    H219900   5.199   5.205   2.728 -0.1655 -0.1627 -0.2785
 6632TIP3   OH219901   3.969   0.799   1.570 -0.0134  0.3587  0.0204
 6632TIP3    H119902   3.987   0.710   1.540  0.8266  0.6265 -0.2920
 6632TIP3    H219903   3.954   0.790   1.664 -2.8913 -0.5183 -0.4388
 6633TIP3   OH219904   2.343   5.662   4.334  0.8671 -0.0113  0.1931
 6633TIP3    H119905   2.393   5.601   4.280  2.3679 -0.0507  1.5629
 6633TIP3    H219906   2.367   5.749   4.300  0.4889 -0.0891 -0.2841
 6634TIP3   OH219907   2.513   5.392   4.904 -0.1838  0.1212 -0.5184
 6634TIP3    H119908   2.425   5.392   4.942  0.1894  0.6248  0.3904
 6634TIP3    H219909   2.561   5.327   4.955  0.0566  0.0790 -0.7992
 6635TIP3   OH219910   3.795   4.990   0.470 -0.6644 -0.3128  0.1252
 6635TIP3    H119911   3.861   5.008   0.537 -0.1895  0.3754 -0.5084
 6635TIP3    H219912   3.766   4.900   0.488  0.5602 -0.6851  0.3360
 6636TIP3   OH219913   3.958   3.113   0.065  0.0763  0.3450 -0.2120
 6636TIP3    H119914   4.032   3.149   0.015  0.4793  0.3970  0.4200
 6636TIP3    H219915   3.881   3.134   0.011  0.4149  1.1841 -0.3851
 6637TIP3   OH219916   2.137   4.139   1.184 -0.1185  0.0994  0.1148
 6637TIP3    H119917   2.196   4.063   1.178 -1.0288 -0.6028 -0.0651
 6637TIP3    H219918   2.178   4.195   1.250  0.4374 -0.6647  0.4403
 6638TIP3   OH219919   4.643   0.517   0.625 -0.4402 -0.2733 -0.4101
 6638TIP3    H119920   4.725   0.467   0.620 -0.5526 -0.3691 -1.5123
 6638TIP3    H219921   4.592   0.472   0.692 -0.2362 -1.1907 -0.8554
 6639TIP3   OH219922   0.875   5.082   0.036 -0.3066  0.2656  0.0424
 6639TIP3    H119923   0.849   4.991   0.050 -0.8811  0.6776  1.8357
 6639TIP3    H219924   0.970   5.083   0.047 -0.4328  0.0733  1.2208
 6640TIP3   OH219925   5.712   3.671   1.834 -0.1382 -0.2418  0.3423
 6640TIP3    H119926   5.799   3.680   1.794 -0.8815  0.4355 -1.2272
 6640TIP3    H219927   5.699   3.577   1.840  0.5187 -0.3535  0.1623
   6.36129   5.99748   5.19398   0.00000   0.00000  -2.12043   0.00000  -2.12043  -2.99874
