Title t= 346.00000 step= 173000
29212
    1ASP      N    1   1.645   2.809   5.016
    1ASP    HT1    2   1.663   2.814   4.914
    1ASP    HT2    3   1.616   2.905   5.045
    1ASP    HT3    4   1.563   2.750   5.037
    1ASP     CA    5   1.761   2.761   5.096
    1ASP     HA    6   1.751   2.788   5.200
    1ASP     CB    7   1.770   2.609   5.096
    1ASP    HB1    8   1.864   2.568   5.140
    1ASP    HB2    9   1.747   2.570   4.995
    1ASP     CG   10   1.658   2.557   5.183
    1ASP    OD1   11   1.595   2.639   5.255
    1ASP    OD2   12   1.631   2.436   5.189
    1ASP      C   13   1.897   2.810   5.043
    1ASP      O   14   1.947   2.916   5.090
    2GLY      N   15   1.970   2.735   4.953
    2GLY     HN   16   1.929   2.654   4.912
    2GLY     CA   17   2.104   2.750   4.900
    2GLY    HA1   18   2.111   2.678   4.820
    2GLY    HA2   19   2.167   2.731   4.986
    2GLY      C   20   2.136   2.887   4.839
    2GLY      O   21   2.056   2.976   4.815
    3ASP      N   22   2.267   2.905   4.803
    3ASP     HN   23   2.330   2.831   4.825
    3ASP     CA   24   2.317   3.006   4.710
    3ASP     HA   25   2.290   3.102   4.750
    3ASP     CB   26   2.466   3.003   4.696
    3ASP    HB1   27   2.505   3.078   4.623
    3ASP    HB2   28   2.497   2.903   4.659
    3ASP     CG   29   2.548   3.020   4.825
    3ASP    OD1   30   2.487   3.041   4.938
    3ASP    OD2   31   2.675   3.009   4.813
    3ASP      C   32   2.254   2.999   4.569
    3ASP      O   33   2.236   2.887   4.518
    4GLY      N   34   2.224   3.119   4.503
    4GLY     HN   35   2.233   3.209   4.546
    4GLY     CA   36   2.177   3.129   4.367
    4GLY    HA1   37   2.126   3.224   4.363
    4GLY    HA2   38   2.115   3.044   4.345
    4GLY      C   39   2.292   3.139   4.271
    4GLY      O   40   2.407   3.107   4.311
    5PRO      N   41   2.274   3.168   4.148
    5PRO     CD   42   2.147   3.155   4.078
    5PRO    HD1   43   2.084   3.242   4.106
    5PRO    HD2   44   2.101   3.057   4.100
    5PRO     CA   45   2.374   3.214   4.057
    5PRO     HA   46   2.407   3.119   4.019
    5PRO     CB   47   2.295   3.275   3.939
    5PRO    HB1   48   2.362   3.288   3.851
    5PRO    HB2   49   2.245   3.367   3.975
    5PRO     CG   50   2.186   3.171   3.931
    5PRO    HG1   51   2.099   3.191   3.865
    5PRO    HG2   52   2.234   3.074   3.908
    5PRO      C   53   2.493   3.303   4.085
    5PRO      O   54   2.497   3.379   4.182
    6GLY      N   55   2.601   3.291   4.002
    6GLY     HN   56   2.608   3.228   3.925
    6GLY     CA   57   2.705   3.390   4.014
    6GLY    HA1   58   2.785   3.354   3.952
    6GLY    HA2   59   2.744   3.384   4.115
    6GLY      C   60   2.673   3.537   3.985
    6GLY      O   61   2.555   3.581   3.963
    7ASP      N   62   2.784   3.612   3.970
    7ASP     HN   63   2.871   3.571   3.999
    7ASP     CA   64   2.788   3.749   3.926
    7ASP     HA   65   2.704   3.787   3.983
    7ASP     CB   66   2.922   3.811   3.962
    7ASP    HB1   67   2.924   3.912   3.917
    7ASP    HB2   68   3.005   3.760   3.908
    7ASP     CG   69   2.947   3.835   4.107
    7ASP    OD1   70   3.062   3.853   4.150
    7ASP    OD2   71   2.843   3.850   4.183
    7ASP      C   72   2.753   3.757   3.776
    7ASP      O   73   2.738   3.653   3.707
    8PRO      N   74   2.706   3.875   3.725
    8PRO     CD   75   2.684   3.996   3.803
    8PRO    HD1   76   2.771   4.060   3.827
    8PRO    HD2   77   2.635   3.958   3.896
    8PRO     CA   78   2.659   3.891   3.588
    8PRO     HA   79   2.578   3.820   3.583
    8PRO     CB   80   2.620   4.041   3.581
    8PRO    HB1   81   2.548   4.054   3.497
    8PRO    HB2   82   2.710   4.104   3.567
    8PRO     CG   83   2.581   4.076   3.723
    8PRO    HG1   84   2.582   4.186   3.741
    8PRO    HG2   85   2.477   4.047   3.750
    8PRO      C   86   2.745   3.844   3.474
    8PRO      O   87   2.869   3.835   3.494
    9GLY      N   88   2.688   3.809   3.356
    9GLY     HN   89   2.590   3.796   3.361
    9GLY     CA   90   2.751   3.784   3.225
    9GLY    HA1   91   2.698   3.704   3.174
    9GLY    HA2   92   2.856   3.763   3.236
    9GLY      C   93   2.714   3.903   3.137
    9GLY      O   94   2.643   3.995   3.169
   10ASP      N   95   2.771   3.906   3.018
   10ASP     HN   96   2.841   3.839   2.994
   10ASP     CA   97   2.745   3.994   2.901
   10ASP     HA   98   2.797   4.083   2.935
   10ASP     CB   99   2.804   3.940   2.762
   10ASP    HB1  100   2.778   4.006   2.676
   10ASP    HB2  101   2.754   3.842   2.744
   10ASP     CG  102   2.952   3.917   2.759
   10ASP    OD1  103   3.029   3.931   2.860
   10ASP    OD2  104   3.003   3.872   2.652
   10ASP      C  105   2.597   4.043   2.885
   10ASP      O  106   2.508   3.963   2.869
   11GLY      N  107   2.579   4.174   2.882
   11GLY     HN  108   2.654   4.235   2.903
   11GLY     CA  109   2.450   4.242   2.854
   11GLY    HA1  110   2.462   4.345   2.886
   11GLY    HA2  111   2.387   4.198   2.930
   11GLY      C  112   2.379   4.236   2.715
   11GLY    OT1  113   2.256   4.221   2.711
   11GLY    OT2  114   2.447   4.243   2.608
   12SOD    SOD  115   4.949   1.311   1.331
   13SOD    SOD  116   0.783   0.342   0.720
   14SOD    SOD  117   2.090   0.268   1.987
   15SOD    SOD  118   0.619   0.875   3.441
   16SOD    SOD  119   3.904   0.572   4.432
   17SOD    SOD  120   1.837   3.514   4.240
   18SOD    SOD  121   1.560   4.593   5.784
   19SOD    SOD  122   6.474   0.408   4.738
   20SOD    SOD  123   6.218   1.732   4.627
   21SOD    SOD  124   6.823   1.967   0.280
   22SOD    SOD  125   6.519   0.226   4.184
   23SOD    SOD  126   3.719   1.347   2.510
   24SOD    SOD  127   1.653   2.379   5.800
   25SOD    SOD  128   1.977   3.432   0.854
   26SOD    SOD  129   3.393   6.149   3.644
   27SOD    SOD  130   3.468   3.424   3.090
   28SOD    SOD  131   5.170   2.611   3.428
   29SOD    SOD  132   0.840   1.361   2.088
   30SOD    SOD  133   1.738   6.107   4.643
   31SOD    SOD  134   0.207   6.498   3.025
   32SOD    SOD  135   2.874   4.427   0.946
   33SOD    SOD  136   0.337   3.244   1.153
   34SOD    SOD  137   5.070   6.038   3.193
   35SOD    SOD  138   3.405   4.398   1.612
   36SOD    SOD  139   5.782   2.476   4.433
   37SOD    SOD  140   3.901   3.295   0.913
   38SOD    SOD  141   1.241   5.067   4.207
   39SOD    SOD  142   0.725   4.047   2.653
   40SOD    SOD  143   4.787   1.740   1.022
   41SOD    SOD  144   6.831   3.281   1.610
   42SOD    SOD  145   6.292   4.425   4.245
   43CLA    CLA  146   1.505   5.481   4.862
   44CLA    CLA  147   6.569   4.568   0.260
   45CLA    CLA  148   3.375   4.378   0.900
   46CLA    CLA  149   6.175   3.587   3.634
   47CLA    CLA  150   3.105   0.401   0.890
   48CLA    CLA  151   2.934   0.332   2.972
   49CLA    CLA  152   0.960   2.400   3.985
   50CLA    CLA  153   5.488   0.404   3.658
   51CLA    CLA  154   5.584   4.648   4.561
   52CLA    CLA  155   1.654   3.158   2.921
   53CLA    CLA  156   0.289   4.039   0.973
   54CLA    CLA  157   2.792   3.560   2.491
   55CLA    CLA  158   1.632   0.241   2.316
   56CLA    CLA  159   0.474   5.611   5.826
   57CLA    CLA  160   2.809   4.301   0.466
   58CLA    CLA  161   3.030   2.485   2.967
   59CLA    CLA  162   0.292   4.426   2.143
   60CLA    CLA  163   3.001   0.680   4.827
   61CLA    CLA  164   6.112   2.859   0.958
   62CLA    CLA  165   6.407   2.283   2.467
   63CLA    CLA  166   0.329   1.605   3.185
   64CLA    CLA  167   3.744   6.102   1.814
   65CLA    CLA  168   5.180   0.353   4.623
   66CLA    CLA  169   6.819   6.513   2.719
   67CLA    CLA  170   7.134   0.784   0.621
   68CLA    CLA  171   6.383   1.055   1.201
   69CLA    CLA  172   4.921   1.436   1.752
   70TIP3   OH2  173   2.967   5.024   4.905
   70TIP3    H1  174   3.046   4.975   4.929
   70TIP3    H2  175   2.944   4.990   4.818
   71TIP3   OH2  176   2.159   6.022   0.496
   71TIP3    H1  177   2.080   5.993   0.450
   71TIP3    H2  178   2.176   5.953   0.560
   72TIP3   OH2  179   1.697   2.220   1.290
   72TIP3    H1  180   1.708   2.305   1.331
   72TIP3    H2  181   1.775   2.209   1.236
   73TIP3   OH2  182   0.138   0.979   4.098
   73TIP3    H1  183   0.146   1.022   4.013
   73TIP3    H2  184   0.221   0.932   4.109
   74TIP3   OH2  185   3.484   4.936   3.524
   74TIP3    H1  186   3.432   5.015   3.508
   74TIP3    H2  187   3.423   4.864   3.508
   75TIP3   OH2  188   1.128   1.769   4.269
   75TIP3    H1  189   1.035   1.792   4.264
   75TIP3    H2  190   1.174   1.845   4.234
   76TIP3   OH2  191   6.878   4.002   0.504
   76TIP3    H1  192   6.851   4.011   0.596
   76TIP3    H2  193   6.971   3.982   0.508
   77TIP3   OH2  194   5.497   3.304   5.470
   77TIP3    H1  195   5.422   3.283   5.416
   77TIP3    H2  196   5.498   3.400   5.473
   78TIP3   OH2  197   6.536   3.773   5.148
   78TIP3    H1  198   6.553   3.688   5.108
   78TIP3    H2  199   6.582   3.769   5.232
   79TIP3   OH2  200   6.823   4.765   0.204
   79TIP3    H1  201   6.869   4.742   0.123
   79TIP3    H2  202   6.743   4.713   0.202
   80TIP3   OH2  203   2.564   2.275   2.065
   80TIP3    H1  204   2.659   2.268   2.063
   80TIP3    H2  205   2.542   2.316   1.981
   81TIP3   OH2  206   6.303   3.549   1.203
   81TIP3    H1  207   6.346   3.555   1.118
   81TIP3    H2  208   6.274   3.638   1.222
   82TIP3   OH2  209   1.252   1.266   4.871
   82TIP3    H1  210   1.196   1.245   4.945
   82TIP3    H2  211   1.204   1.231   4.795
   83TIP3   OH2  212   2.020   5.257   1.858
   83TIP3    H1  213   1.965   5.202   1.913
   83TIP3    H2  214   2.038   5.334   1.910
   84TIP3   OH2  215   0.987   3.930   1.672
   84TIP3    H1  216   0.917   3.933   1.607
   84TIP3    H2  217   1.000   3.837   1.689
   85TIP3   OH2  218   6.645   6.531   4.049
   85TIP3    H1  219   6.550   6.536   4.036
   85TIP3    H2  220   6.675   6.622   4.042
   86TIP3   OH2  221   3.958   5.606   0.063
   86TIP3    H1  222   3.863   5.605   0.056
   86TIP3    H2  223   3.975   5.600   0.157
   87TIP3   OH2  224   3.179   0.677   5.412
   87TIP3    H1  225   3.251   0.664   5.351
   87TIP3    H2  226   3.108   0.623   5.378
   88TIP3   OH2  227   0.855   3.889   5.789
   88TIP3    H1  228   0.808   3.827   5.844
   88TIP3    H2  229   0.786   3.940   5.746
   89TIP3   OH2  230   4.885   1.143   0.061
   89TIP3    H1  231   4.898   1.238   0.052
   89TIP3    H2  232   4.796   1.134   0.096
   90TIP3   OH2  233   0.386   0.905   1.891
   90TIP3    H1  234   0.394   0.983   1.945
   90TIP3    H2  235   0.303   0.866   1.917
   91TIP3   OH2  236   1.455   1.659   1.758
   91TIP3    H1  237   1.450   1.617   1.844
   91TIP3    H2  238   1.430   1.590   1.696
   92TIP3   OH2  239   3.079   1.256   0.550
   92TIP3    H1  240   3.029   1.333   0.578
   92TIP3    H2  241   3.098   1.209   0.631
   93TIP3   OH2  242   0.742   5.720   5.696
   93TIP3    H1  243   0.704   5.787   5.639
   93TIP3    H2  244   0.668   5.685   5.745
   94TIP3   OH2  245   4.413   0.804   2.217
   94TIP3    H1  246   4.344   0.748   2.253
   94TIP3    H2  247   4.423   0.875   2.280
   95TIP3   OH2  248   3.400   2.020   4.057
   95TIP3    H1  249   3.323   1.967   4.081
   95TIP3    H2  250   3.365   2.108   4.045
   96TIP3   OH2  251   1.105   3.652   1.754
   96TIP3    H1  252   1.168   3.582   1.736
   96TIP3    H2  253   1.154   3.716   1.805
   97TIP3   OH2  254   0.844   2.195   0.215
   97TIP3    H1  255   0.936   2.217   0.231
   97TIP3    H2  256   0.836   2.194   0.120
   98TIP3   OH2  257   3.305   3.634   3.104
   98TIP3    H1  258   3.220   3.624   3.146
   98TIP3    H2  259   3.293   3.706   3.042
   99TIP3   OH2  260   2.350   5.875   1.006
   99TIP3    H1  261   2.335   5.966   0.980
   99TIP3    H2  262   2.446   5.867   1.012
  100TIP3   OH2  263   5.330   1.688   5.298
  100TIP3    H1  264   5.257   1.742   5.328
  100TIP3    H2  265   5.312   1.673   5.205
  101TIP3   OH2  266   1.454   0.801   0.034
  101TIP3    H1  267   1.422   0.719  -0.003
  101TIP3    H2  268   1.375   0.845   0.067
  102TIP3   OH2  269   2.135   0.915   1.192
  102TIP3    H1  270   2.061   0.976   1.185
  102TIP3    H2  271   2.211   0.972   1.201
  103TIP3   OH2  272   2.838   5.648   0.490
  103TIP3    H1  273   2.776   5.575   0.493
  103TIP3    H2  274   2.906   5.623   0.552
  104TIP3   OH2  275   5.870   1.743   2.276
  104TIP3    H1  276   5.830   1.666   2.317
  104TIP3    H2  277   5.896   1.712   2.189
  105TIP3   OH2  278   5.232   1.389   0.974
  105TIP3    H1  279   5.321   1.354   0.966
  105TIP3    H2  280   5.238   1.478   0.941
  106TIP3   OH2  281   3.739   5.233   1.918
  106TIP3    H1  282   3.735   5.160   1.856
  106TIP3    H2  283   3.654   5.276   1.910
  107TIP3   OH2  284   2.127   6.284   4.205
  107TIP3    H1  285   2.111   6.198   4.244
  107TIP3    H2  286   2.218   6.281   4.176
  108TIP3   OH2  287   1.225   5.635   4.210
  108TIP3    H1  288   1.239   5.621   4.116
  108TIP3    H2  289   1.312   5.656   4.243
  109TIP3   OH2  290   6.096   1.884   1.578
  109TIP3    H1  291   6.091   1.832   1.659
  109TIP3    H2  292   6.024   1.947   1.586
  110TIP3   OH2  293   0.472   6.286   5.554
  110TIP3    H1  294   0.448   6.226   5.625
  110TIP3    H2  295   0.396   6.342   5.542
  111TIP3   OH2  296   3.876   0.653   3.654
  111TIP3    H1  297   3.906   0.744   3.642
  111TIP3    H2  298   3.784   0.661   3.677
  112TIP3   OH2  299   0.278   1.709   1.448
  112TIP3    H1  300   0.207   1.752   1.400
  112TIP3    H2  301   0.316   1.649   1.385
  113TIP3   OH2  302   2.025   1.934   5.274
  113TIP3    H1  303   2.054   1.917   5.364
  113TIP3    H2  304   2.101   1.975   5.232
  114TIP3   OH2  305   5.169   3.655   3.006
  114TIP3    H1  306   5.073   3.656   3.009
  114TIP3    H2  307   5.190   3.631   2.915
  115TIP3   OH2  308   2.523   1.899   3.604
  115TIP3    H1  309   2.452   1.888   3.541
  115TIP3    H2  310   2.532   1.994   3.614
  116TIP3   OH2  311   6.048   2.146   4.109
  116TIP3    H1  312   5.967   2.111   4.073
  116TIP3    H2  313   6.106   2.158   4.033
  117TIP3   OH2  314   2.895   5.413   0.246
  117TIP3    H1  315   2.981   5.386   0.281
  117TIP3    H2  316   2.910   5.500   0.210
  118TIP3   OH2  317   2.038   4.750   4.851
  118TIP3    H1  318   2.008   4.665   4.818
  118TIP3    H2  319   1.958   4.803   4.855
  119TIP3   OH2  320   2.753   1.870   3.448
  119TIP3    H1  321   2.808   1.936   3.491
  119TIP3    H2  322   2.674   1.865   3.502
  120TIP3   OH2  323   3.401   0.417   5.057
  120TIP3    H1  324   3.444   0.340   5.020
  120TIP3    H2  325   3.308   0.403   5.041
  121TIP3   OH2  326   4.501   5.222   1.112
  121TIP3    H1  327   4.445   5.288   1.154
  121TIP3    H2  328   4.504   5.248   1.020
  122TIP3   OH2  329   6.176   4.927   1.262
  122TIP3    H1  330   6.268   4.921   1.233
  122TIP3    H2  331   6.127   4.943   1.181
  123TIP3   OH2  332   7.024   6.470   0.459
  123TIP3    H1  333   6.940   6.465   0.412
  123TIP3    H2  334   7.090   6.470   0.390
  124TIP3   OH2  335   4.175   3.921   2.917
  124TIP3    H1  336   4.115   3.941   2.846
  124TIP3    H2  337   4.250   3.978   2.902
  125TIP3   OH2  338   4.414   5.533   4.505
  125TIP3    H1  339   4.421   5.628   4.511
  125TIP3    H2  340   4.472   5.499   4.573
  126TIP3   OH2  341   6.687   3.702   5.356
  126TIP3    H1  342   6.773   3.664   5.334
  126TIP3    H2  343   6.708   3.783   5.402
  127TIP3   OH2  344   2.576   2.188   3.546
  127TIP3    H1  345   2.656   2.156   3.588
  127TIP3    H2  346   2.568   2.279   3.577
  128TIP3   OH2  347   0.086   6.652   2.892
  128TIP3    H1  348   0.037   6.717   2.942
  128TIP3    H2  349   0.020   6.605   2.842
  129TIP3   OH2  350   2.221   3.853   0.019
  129TIP3    H1  351   2.291   3.800   0.057
  129TIP3    H2  352   2.236   3.941   0.054
  130TIP3   OH2  353   0.840   1.480   0.883
  130TIP3    H1  354   0.856   1.566   0.920
  130TIP3    H2  355   0.760   1.490   0.832
  131TIP3   OH2  356   4.505   4.671   5.402
  131TIP3    H1  357   4.581   4.726   5.383
  131TIP3    H2  358   4.515   4.595   5.344
  132TIP3   OH2  359   3.931   4.921   0.805
  132TIP3    H1  360   3.900   4.857   0.740
  132TIP3    H2  361   3.855   4.976   0.822
  133TIP3   OH2  362   6.906   3.690   1.262
  133TIP3    H1  363   6.994   3.722   1.246
  133TIP3    H2  364   6.856   3.767   1.290
  134TIP3   OH2  365   4.320   4.390   2.973
  134TIP3    H1  366   4.274   4.321   3.022
  134TIP3    H2  367   4.411   4.382   3.001
  135TIP3   OH2  368   2.732   4.713   5.171
  135TIP3    H1  369   2.757   4.721   5.079
  135TIP3    H2  370   2.637   4.709   5.170
  136TIP3   OH2  371   1.217   2.264   1.648
  136TIP3    H1  372   1.282   2.268   1.578
  136TIP3    H2  373   1.158   2.337   1.630
  137TIP3   OH2  374   3.631   5.520   2.189
  137TIP3    H1  375   3.576   5.583   2.236
  137TIP3    H2  376   3.577   5.441   2.183
  138TIP3   OH2  377   6.723   3.504   3.178
  138TIP3    H1  378   6.816   3.479   3.174
  138TIP3    H2  379   6.688   3.453   3.252
  139TIP3   OH2  380   5.053   3.663   0.603
  139TIP3    H1  381   5.122   3.691   0.664
  139TIP3    H2  382   5.098   3.606   0.541
  140TIP3   OH2  383   4.840   1.584   2.201
  140TIP3    H1  384   4.857   1.672   2.234
  140TIP3    H2  385   4.843   1.529   2.279
  141TIP3   OH2  386   2.213   2.720   4.284
  141TIP3    H1  387   2.245   2.786   4.346
  141TIP3    H2  388   2.152   2.767   4.227
  142TIP3   OH2  389   6.869   2.474   2.425
  142TIP3    H1  390   6.920   2.523   2.488
  142TIP3    H2  391   6.790   2.447   2.472
  143TIP3   OH2  392   3.421   5.621   2.323
  143TIP3    H1  393   3.385   5.597   2.408
  143TIP3    H2  394   3.378   5.705   2.302
  144TIP3   OH2  395   6.898   5.730   0.060
  144TIP3    H1  396   6.855   5.649   0.031
  144TIP3    H2  397   6.826   5.791   0.076
  145TIP3   OH2  398   5.089   2.996   2.048
  145TIP3    H1  399   5.075   2.928   1.983
  145TIP3    H2  400   5.005   3.041   2.055
  146TIP3   OH2  401   1.908   1.973   0.829
  146TIP3    H1  402   1.907   1.898   0.888
  146TIP3    H2  403   1.818   1.979   0.796
  147TIP3   OH2  404   6.493   6.387   2.602
  147TIP3    H1  405   6.490   6.309   2.656
  147TIP3    H2  406   6.403   6.420   2.603
  148TIP3   OH2  407   1.383   0.345   0.164
  148TIP3    H1  408   1.326   0.271   0.143
  148TIP3    H2  409   1.468   0.305   0.184
  149TIP3   OH2  410   6.025   4.148   2.840
  149TIP3    H1  411   6.115   4.119   2.830
  149TIP3    H2  412   6.014   4.215   2.772
  150TIP3   OH2  413   0.995   3.837   5.559
  150TIP3    H1  414   0.935   3.848   5.632
  150TIP3    H2  415   0.959   3.892   5.489
  151TIP3   OH2  416   1.893   1.459   1.330
  151TIP3    H1  417   1.837   1.434   1.403
  151TIP3    H2  418   1.907   1.553   1.342
  152TIP3   OH2  419   5.994   1.609   0.238
  152TIP3    H1  420   5.985   1.621   0.333
  152TIP3    H2  421   6.070   1.663   0.215
  153TIP3   OH2  422   0.007   3.474   2.870
  153TIP3    H1  423   0.054   3.419   2.807
  153TIP3    H2  424   0.017   3.563   2.836
  154TIP3   OH2  425   6.852   5.370   0.276
  154TIP3    H1  426   6.768   5.412   0.257
  154TIP3    H2  427   6.908   5.441   0.308
  155TIP3   OH2  428   0.885   0.640   1.165
  155TIP3    H1  429   0.961   0.584   1.180
  155TIP3    H2  430   0.859   0.669   1.252
  156TIP3   OH2  431   2.755   4.075   1.182
  156TIP3    H1  432   2.719   3.992   1.151
  156TIP3    H2  433   2.680   4.120   1.221
  157TIP3   OH2  434   7.166   2.863   0.047
  157TIP3    H1  435   7.139   2.825  -0.037
  157TIP3    H2  436   7.162   2.958   0.033
  158TIP3   OH2  437   0.045   1.264   0.646
  158TIP3    H1  438  -0.017   1.229   0.710
  158TIP3    H2  439   0.068   1.350   0.680
  159TIP3   OH2  440   6.877   4.076   0.788
  159TIP3    H1  441   6.966   4.111   0.793
  159TIP3    H2  442   6.886   3.985   0.816
  160TIP3   OH2  443   3.058   6.448   3.640
  160TIP3    H1  444   2.964   6.439   3.628
  160TIP3    H2  445   3.073   6.543   3.639
  161TIP3   OH2  446   0.298   2.121   5.503
  161TIP3    H1  447   0.344   2.066   5.440
  161TIP3    H2  448   0.206   2.098   5.492
  162TIP3   OH2  449   1.446   5.507   0.301
  162TIP3    H1  450   1.380   5.526   0.234
  162TIP3    H2  451   1.489   5.591   0.316
  163TIP3   OH2  452   4.297   2.926   3.430
  163TIP3    H1  453   4.282   2.955   3.340
  163TIP3    H2  454   4.389   2.899   3.431
  164TIP3   OH2  455   1.022   6.451   2.733
  164TIP3    H1  456   1.048   6.361   2.710
  164TIP3    H2  457   1.104   6.498   2.740
  165TIP3   OH2  458   6.648   0.690   0.886
  165TIP3    H1  459   6.719   0.721   0.830
  165TIP3    H2  460   6.692   0.642   0.956
  166TIP3   OH2  461   4.977   1.920   4.005
  166TIP3    H1  462   4.922   1.931   4.082
  166TIP3    H2  463   5.024   1.838   4.020
  167TIP3   OH2  464   1.835   0.816   2.943
  167TIP3    H1  465   1.869   0.903   2.965
  167TIP3    H2  466   1.828   0.817   2.848
  168TIP3   OH2  467   5.858   4.916   1.704
  168TIP3    H1  468   5.839   4.827   1.675
  168TIP3    H2  469   5.860   4.968   1.624
  169TIP3   OH2  470   0.440   4.905   3.225
  169TIP3    H1  471   0.460   4.998   3.241
  169TIP3    H2  472   0.526   4.864   3.216
  170TIP3   OH2  473   1.788   6.311   4.545
  170TIP3    H1  474   1.750   6.399   4.537
  170TIP3    H2  475   1.881   6.327   4.564
  171TIP3   OH2  476   6.343   2.569   5.566
  171TIP3    H1  477   6.371   2.641   5.510
  171TIP3    H2  478   6.313   2.611   5.647
  172TIP3   OH2  479   5.144   0.594   2.625
  172TIP3    H1  480   5.118   0.571   2.536
  172TIP3    H2  481   5.062   0.618   2.669
  173TIP3   OH2  482   4.178   3.038   4.688
  173TIP3    H1  483   4.107   2.974   4.686
  173TIP3    H2  484   4.142   3.113   4.735
  174TIP3   OH2  485   5.191   3.291   2.585
  174TIP3    H1  486   5.194   3.220   2.648
  174TIP3    H2  487   5.120   3.267   2.526
  175TIP3   OH2  488   5.667   4.192   4.500
  175TIP3    H1  489   5.628   4.250   4.565
  175TIP3    H2  490   5.592   4.149   4.458
  176TIP3   OH2  491   0.707   0.767   2.334
  176TIP3    H1  492   0.652   0.810   2.268
  176TIP3    H2  493   0.698   0.822   2.412
  177TIP3   OH2  494   0.181   2.341   2.632
  177TIP3    H1  495   0.091   2.369   2.614
  177TIP3    H2  496   0.191   2.353   2.726
  178TIP3   OH2  497   6.101   4.301   3.579
  178TIP3    H1  498   6.059   4.346   3.653
  178TIP3    H2  499   6.034   4.240   3.548
  179TIP3   OH2  500   0.374   1.084   0.132
  179TIP3    H1  501   0.301   1.040   0.175
  179TIP3    H2  502   0.338   1.114   0.048
  180TIP3   OH2  503   1.760   0.842   0.091
  180TIP3    H1  504   1.816   0.912   0.125
  180TIP3    H2  505   1.671   0.876   0.099
  181TIP3   OH2  506   3.881   4.025   4.780
  181TIP3    H1  507   3.862   4.082   4.706
  181TIP3    H2  508   3.976   4.010   4.774
  182TIP3   OH2  509   5.079   4.342   3.876
  182TIP3    H1  510   5.163   4.364   3.836
  182TIP3    H2  511   5.077   4.246   3.877
  183TIP3   OH2  512   5.805   0.839   3.704
  183TIP3    H1  513   5.856   0.772   3.750
  183TIP3    H2  514   5.761   0.791   3.634
  184TIP3   OH2  515   3.142   5.214   5.061
  184TIP3    H1  516   3.066   5.167   5.027
  184TIP3    H2  517   3.213   5.149   5.059
  185TIP3   OH2  518   6.906   3.014   4.726
  185TIP3    H1  519   6.898   3.014   4.630
  185TIP3    H2  520   6.999   3.002   4.743
  186TIP3   OH2  521   1.283   0.975   0.261
  186TIP3    H1  522   1.244   0.966   0.174
  186TIP3    H2  523   1.320   0.888   0.280
  187TIP3   OH2  524   4.525   1.230   2.734
  187TIP3    H1  525   4.514   1.319   2.766
  187TIP3    H2  526   4.436   1.196   2.726
  188TIP3   OH2  527   4.301   6.284   3.292
  188TIP3    H1  528   4.216   6.321   3.313
  188TIP3    H2  529   4.282   6.193   3.267
  189TIP3   OH2  530   2.712   2.042   2.286
  189TIP3    H1  531   2.733   2.055   2.194
  189TIP3    H2  532   2.728   2.127   2.327
  190TIP3   OH2  533   0.765   1.032   3.975
  190TIP3    H1  534   0.817   0.966   3.929
  190TIP3    H2  535   0.804   1.115   3.949
  191TIP3   OH2  536   4.316   2.142   5.318
  191TIP3    H1  537   4.393   2.172   5.269
  191TIP3    H2  538   4.334   2.170   5.408
  192TIP3   OH2  539   6.273   3.005   5.765
  192TIP3    H1  540   6.229   3.089   5.747
  192TIP3    H2  541   6.233   2.975   5.847
  193TIP3   OH2  542   2.065   1.604   5.094
  193TIP3    H1  543   2.095   1.557   5.172
  193TIP3    H2  544   1.994   1.660   5.126
  194TIP3   OH2  545   3.380   3.340   3.296
  194TIP3    H1  546   3.298   3.292   3.289
  194TIP3    H2  547   3.372   3.390   3.377
  195TIP3   OH2  548   3.908   5.236   4.691
  195TIP3    H1  549   3.976   5.300   4.712
  195TIP3    H2  550   3.955   5.152   4.686
  196TIP3   OH2  551   6.253   5.217   0.980
  196TIP3    H1  552   6.204   5.139   0.955
  196TIP3    H2  553   6.194   5.265   1.038
  197TIP3   OH2  554   3.137   0.163   1.565
  197TIP3    H1  555   3.081   0.089   1.542
  197TIP3    H2  556   3.181   0.188   1.484
  198TIP3   OH2  557   2.233   5.254   0.411
  198TIP3    H1  558   2.280   5.188   0.461
  198TIP3    H2  559   2.174   5.295   0.474
  199TIP3   OH2  560   3.003   2.097   2.717
  199TIP3    H1  561   3.008   2.191   2.701
  199TIP3    H2  562   2.914   2.073   2.693
  200TIP3   OH2  563   6.456   6.120   2.739
  200TIP3    H1  564   6.468   6.128   2.834
  200TIP3    H2  565   6.440   6.027   2.725
  201TIP3   OH2  566   6.375   1.776   3.513
  201TIP3    H1  567   6.375   1.793   3.418
  201TIP3    H2  568   6.283   1.760   3.535
  202TIP3   OH2  569   2.261   4.586   2.766
  202TIP3    H1  570   2.172   4.617   2.780
  202TIP3    H2  571   2.314   4.632   2.831
  203TIP3   OH2  572   4.278   0.391   3.406
  203TIP3    H1  573   4.358   0.392   3.459
  203TIP3    H2  574   4.219   0.452   3.450
  204TIP3   OH2  575   1.684   3.640   2.521
  204TIP3    H1  576   1.618   3.680   2.577
  204TIP3    H2  577   1.697   3.703   2.450
  205TIP3   OH2  578   0.353   3.191   5.310
  205TIP3    H1  579   0.439   3.183   5.351
  205TIP3    H2  580   0.359   3.269   5.255
  206TIP3   OH2  581   0.998   3.210   4.397
  206TIP3    H1  582   0.982   3.180   4.307
  206TIP3    H2  583   1.025   3.301   4.387
  207TIP3   OH2  584   7.158   2.420   3.582
  207TIP3    H1  585   7.073   2.450   3.548
  207TIP3    H2  586   7.138   2.393   3.672
  208TIP3   OH2  587   2.665   1.082   2.257
  208TIP3    H1  588   2.728   1.052   2.191
  208TIP3    H2  589   2.659   1.176   2.244
  209TIP3   OH2  590   4.205   3.029   0.839
  209TIP3    H1  591   4.263   2.956   0.815
  209TIP3    H2  592   4.121   3.007   0.797
  210TIP3   OH2  593   5.457   1.224   5.755
  210TIP3    H1  594   5.402   1.265   5.822
  210TIP3    H2  595   5.537   1.199   5.801
  211TIP3   OH2  596   6.438   3.498   0.979
  211TIP3    H1  597   6.424   3.440   0.905
  211TIP3    H2  598   6.533   3.512   0.981
  212TIP3   OH2  599   4.560   4.224   3.918
  212TIP3    H1  600   4.608   4.147   3.889
  212TIP3    H2  601   4.596   4.297   3.868
  213TIP3   OH2  602   5.006   0.346   1.877
  213TIP3    H1  603   5.050   0.325   1.794
  213TIP3    H2  604   4.918   0.373   1.851
  214TIP3   OH2  605   3.318   2.236   0.649
  214TIP3    H1  606   3.374   2.206   0.577
  214TIP3    H2  607   3.316   2.331   0.640
  215TIP3   OH2  608   0.040   3.441   3.175
  215TIP3    H1  609  -0.037   3.487   3.208
  215TIP3    H2  610   0.039   3.457   3.080
  216TIP3   OH2  611   6.600   1.997   3.505
  216TIP3    H1  612   6.516   1.952   3.493
  216TIP3    H2  613   6.616   1.993   3.599
  217TIP3   OH2  614   3.025   0.125   0.999
  217TIP3    H1  615   3.033   0.198   0.937
  217TIP3    H2  616   2.943   0.143   1.046
  218TIP3   OH2  617   0.101   0.839   0.050
  218TIP3    H1  618   0.072   0.915   0.102
  218TIP3    H2  619   0.040   0.769   0.074
  219TIP3   OH2  620   6.450   1.882   4.954
  219TIP3    H1  621   6.368   1.931   4.955
  219TIP3    H2  622   6.492   1.904   5.037
  220TIP3   OH2  623   0.661   4.091   2.133
  220TIP3    H1  624   0.637   4.005   2.096
  220TIP3    H2  625   0.627   4.154   2.070
  221TIP3   OH2  626   0.431   5.683   1.288
  221TIP3    H1  627   0.439   5.767   1.331
  221TIP3    H2  628   0.356   5.693   1.229
  222TIP3   OH2  629   3.689   0.630   3.892
  222TIP3    H1  630   3.658   0.540   3.887
  222TIP3    H2  631   3.784   0.623   3.903
  223TIP3   OH2  632   4.835   5.741   5.656
  223TIP3    H1  633   4.785   5.820   5.637
  223TIP3    H2  634   4.896   5.732   5.583
  224TIP3   OH2  635   0.203   4.437   2.819
  224TIP3    H1  636   0.139   4.501   2.788
  224TIP3    H2  637   0.254   4.413   2.742
  225TIP3   OH2  638   1.936   0.873   2.160
  225TIP3    H1  639   2.012   0.928   2.179
  225TIP3    H2  640   1.873   0.932   2.117
  226TIP3   OH2  641   2.486   4.506   2.616
  226TIP3    H1  642   2.409   4.559   2.637
  226TIP3    H2  643   2.455   4.415   2.620
  227TIP3   OH2  644   1.429   1.009   4.651
  227TIP3    H1  645   1.474   1.093   4.644
  227TIP3    H2  646   1.344   1.024   4.612
  228TIP3   OH2  647   5.376   5.309   4.625
  228TIP3    H1  648   5.284   5.292   4.601
  228TIP3    H2  649   5.371   5.381   4.688
  229TIP3   OH2  650   3.826   5.657   0.793
  229TIP3    H1  651   3.780   5.739   0.812
  229TIP3    H2  652   3.787   5.593   0.853
  230TIP3   OH2  653   4.962   2.678   3.594
  230TIP3    H1  654   4.982   2.674   3.687
  230TIP3    H2  655   4.868   2.662   3.589
  231TIP3   OH2  656   4.320   2.586   4.425
  231TIP3    H1  657   4.406   2.555   4.396
  231TIP3    H2  658   4.257   2.542   4.368
  232TIP3   OH2  659   5.665   5.650   0.853
  232TIP3    H1  660   5.635   5.613   0.936
  232TIP3    H2  661   5.761   5.648   0.860
  233TIP3   OH2  662   1.988   0.144   3.670
  233TIP3    H1  663   1.956   0.183   3.588
  233TIP3    H2  664   1.977   0.050   3.657
  234TIP3   OH2  665   5.312   3.607   0.498
  234TIP3    H1  666   5.322   3.661   0.419
  234TIP3    H2  667   5.366   3.651   0.564
  235TIP3   OH2  668   4.694   5.454   1.267
  235TIP3    H1  669   4.600   5.471   1.263
  235TIP3    H2  670   4.702   5.359   1.266
  236TIP3   OH2  671   4.423   3.890   3.993
  236TIP3    H1  672   4.485   3.842   3.939
  236TIP3    H2  673   4.478   3.940   4.054
  237TIP3   OH2  674   0.271   3.321   0.950
  237TIP3    H1  675   0.222   3.403   0.952
  237TIP3    H2  676   0.235   3.273   0.876
  238TIP3   OH2  677   1.346   1.511   3.515
  238TIP3    H1  678   1.306   1.592   3.484
  238TIP3    H2  679   1.440   1.525   3.505
  239TIP3   OH2  680   3.081   1.779   0.149
  239TIP3    H1  681   3.005   1.815   0.195
  239TIP3    H2  682   3.145   1.851   0.148
  240TIP3   OH2  683   5.333   5.609   0.173
  240TIP3    H1  684   5.419   5.626   0.136
  240TIP3    H2  685   5.330   5.661   0.253
  241TIP3   OH2  686   3.375   1.391   1.993
  241TIP3    H1  687   3.323   1.402   2.072
  241TIP3    H2  688   3.365   1.299   1.970
  242TIP3   OH2  689   5.112   2.630   2.597
  242TIP3    H1  690   5.202   2.606   2.574
  242TIP3    H2  691   5.112   2.634   2.692
  243TIP3   OH2  692   2.989   5.543   0.706
  243TIP3    H1  693   3.057   5.478   0.725
  243TIP3    H2  694   3.000   5.610   0.773
  244TIP3   OH2  695   0.500   3.375   0.770
  244TIP3    H1  696   0.565   3.441   0.793
  244TIP3    H2  697   0.460   3.349   0.853
  245TIP3   OH2  698   4.765   6.023   3.751
  245TIP3    H1  699   4.742   5.986   3.836
  245TIP3    H2  700   4.763   5.949   3.690
  246TIP3   OH2  701   6.456   4.343   1.312
  246TIP3    H1  702   6.477   4.334   1.219
  246TIP3    H2  703   6.532   4.307   1.357
  247TIP3   OH2  704   0.795   4.688   4.351
  247TIP3    H1  705   0.701   4.705   4.341
  247TIP3    H2  706   0.830   4.771   4.384
  248TIP3   OH2  707   3.944   5.279   0.298
  248TIP3    H1  708   3.929   5.350   0.360
  248TIP3    H2  709   3.952   5.322   0.213
  249TIP3   OH2  710   1.174   3.577   4.885
  249TIP3    H1  711   1.159   3.489   4.921
  249TIP3    H2  712   1.153   3.568   4.792
  250TIP3   OH2  713   2.591   5.577   2.537
  250TIP3    H1  714   2.656   5.566   2.468
  250TIP3    H2  715   2.641   5.573   2.618
  251TIP3   OH2  716   5.626   3.046   5.844
  251TIP3    H1  717   5.595   3.111   5.908
  251TIP3    H2  718   5.664   3.099   5.773
  252TIP3   OH2  719   6.505   3.868   1.643
  252TIP3    H1  720   6.436   3.807   1.619
  252TIP3    H2  721   6.586   3.817   1.637
  253TIP3   OH2  722   2.485   4.432   5.190
  253TIP3    H1  723   2.511   4.438   5.098
  253TIP3    H2  724   2.398   4.392   5.188
  254TIP3   OH2  725   4.528   1.237   3.154
  254TIP3    H1  726   4.520   1.149   3.188
  254TIP3    H2  727   4.587   1.228   3.078
  255TIP3   OH2  728   0.785   0.789   0.958
  255TIP3    H1  729   0.827   0.757   1.038
  255TIP3    H2  730   0.750   0.875   0.982
  256TIP3   OH2  731   3.050   1.478   5.377
  256TIP3    H1  732   3.039   1.386   5.402
  256TIP3    H2  733   3.101   1.516   5.449
  257TIP3   OH2  734   4.553   5.878   2.258
  257TIP3    H1  735   4.481   5.934   2.230
  257TIP3    H2  736   4.531   5.791   2.224
  258TIP3   OH2  737   1.655   6.246   3.339
  258TIP3    H1  738   1.701   6.197   3.270
  258TIP3    H2  739   1.699   6.331   3.340
  259TIP3   OH2  740   2.696   1.678   4.472
  259TIP3    H1  741   2.759   1.606   4.480
  259TIP3    H2  742   2.749   1.753   4.448
  260TIP3   OH2  743   6.153   3.707   4.411
  260TIP3    H1  744   6.161   3.791   4.366
  260TIP3    H2  745   6.153   3.642   4.341
  261TIP3   OH2  746   4.152   5.349   5.846
  261TIP3    H1  747   4.102   5.273   5.814
  261TIP3    H2  748   4.185   5.390   5.766
  262TIP3   OH2  749   7.067   3.297   1.671
  262TIP3    H1  750   7.130   3.341   1.614
  262TIP3    H2  751   7.104   3.210   1.686
  263TIP3   OH2  752   5.560   6.346   4.886
  263TIP3    H1  753   5.591   6.316   4.972
  263TIP3    H2  754   5.512   6.427   4.904
  264TIP3   OH2  755   5.986   6.377   5.533
  264TIP3    H1  756   6.028   6.400   5.450
  264TIP3    H2  757   6.028   6.433   5.598
  265TIP3   OH2  758   2.458   5.252   0.855
  265TIP3    H1  759   2.427   5.182   0.912
  265TIP3    H2  760   2.392   5.320   0.862
  266TIP3   OH2  761   4.066   2.016   5.813
  266TIP3    H1  762   4.139   1.987   5.758
  266TIP3    H2  763   4.016   1.937   5.832
  267TIP3   OH2  764   2.391   4.480   3.153
  267TIP3    H1  765   2.409   4.496   3.061
  267TIP3    H2  766   2.425   4.557   3.198
  268TIP3   OH2  767   5.613   0.410   4.153
  268TIP3    H1  768   5.652   0.419   4.066
  268TIP3    H2  769   5.535   0.356   4.140
  269TIP3   OH2  770   2.177   3.768   3.219
  269TIP3    H1  771   2.095   3.738   3.259
  269TIP3    H2  772   2.150   3.834   3.156
  270TIP3   OH2  773   5.424   3.845   2.806
  270TIP3    H1  774   5.439   3.777   2.872
  270TIP3    H2  775   5.447   3.803   2.723
  271TIP3   OH2  776   3.371   1.892   3.439
  271TIP3    H1  777   3.421   1.969   3.410
  271TIP3    H2  778   3.330   1.859   3.360
  272TIP3   OH2  779   2.534   2.550   1.472
  272TIP3    H1  780   2.558   2.458   1.479
  272TIP3    H2  781   2.458   2.551   1.415
  273TIP3   OH2  782   4.286   0.957   0.344
  273TIP3    H1  783   4.281   0.931   0.253
  273TIP3    H2  784   4.298   0.875   0.393
  274TIP3   OH2  785   3.681   4.902   3.049
  274TIP3    H1  786   3.756   4.847   3.027
  274TIP3    H2  787   3.613   4.840   3.075
  275TIP3   OH2  788   6.362   4.545   4.038
  275TIP3    H1  789   6.309   4.593   3.975
  275TIP3    H2  790   6.413   4.484   3.985
  276TIP3   OH2  791   0.393   3.090   0.771
  276TIP3    H1  792   0.404   3.183   0.749
  276TIP3    H2  793   0.374   3.048   0.688
  277TIP3   OH2  794   2.648   0.067   4.646
  277TIP3    H1  795   2.600   0.131   4.594
  277TIP3    H2  796   2.731   0.056   4.598
  278TIP3   OH2  797   2.340   3.079   2.201
  278TIP3    H1  798   2.361   3.165   2.237
  278TIP3    H2  799   2.404   3.065   2.132
  279TIP3   OH2  800   0.308   3.045   2.881
  279TIP3    H1  801   0.264   3.022   2.963
  279TIP3    H2  802   0.301   3.140   2.876
  280TIP3   OH2  803   0.894   2.924   1.229
  280TIP3    H1  804   0.984   2.944   1.253
  280TIP3    H2  805   0.862   2.868   1.300
  281TIP3   OH2  806   3.163   5.207   2.964
  281TIP3    H1  807   3.095   5.185   2.900
  281TIP3    H2  808   3.128   5.175   3.047
  282TIP3   OH2  809  -0.021   3.943   2.692
  282TIP3    H1  810   0.010   3.947   2.602
  282TIP3    H2  811  -0.069   4.025   2.704
  283TIP3   OH2  812   2.745   0.696   5.253
  283TIP3    H1  813   2.714   0.785   5.267
  283TIP3    H2  814   2.673   0.652   5.208
  284TIP3   OH2  815   4.939   3.510   3.432
  284TIP3    H1  816   5.014   3.508   3.372
  284TIP3    H2  817   4.890   3.588   3.407
  285TIP3   OH2  818   6.336   2.201   3.518
  285TIP3    H1  819   6.420   2.213   3.474
  285TIP3    H2  820   6.294   2.287   3.516
  286TIP3   OH2  821   0.679   2.049   3.527
  286TIP3    H1  822   0.703   2.001   3.448
  286TIP3    H2  823   0.703   2.140   3.508
  287TIP3   OH2  824   2.587   4.006   2.078
  287TIP3    H1  825   2.572   3.915   2.105
  287TIP3    H2  826   2.500   4.038   2.052
  288TIP3   OH2  827   5.077   2.596   1.479
  288TIP3    H1  828   5.157   2.630   1.439
  288TIP3    H2  829   5.033   2.550   1.409
  289TIP3   OH2  830   2.408   5.322   3.022
  289TIP3    H1  831   2.410   5.413   2.991
  289TIP3    H2  832   2.317   5.295   3.009
  290TIP3   OH2  833   4.593   5.232   3.799
  290TIP3    H1  834   4.544   5.242   3.880
  290TIP3    H2  835   4.684   5.243   3.824
  291TIP3   OH2  836   0.747   2.569   4.867
  291TIP3    H1  837   0.731   2.652   4.912
  291TIP3    H2  838   0.811   2.523   4.921
  292TIP3   OH2  839   6.143   4.440   3.311
  292TIP3    H1  840   6.139   4.445   3.406
  292TIP3    H2  841   6.111   4.352   3.290
  293TIP3   OH2  842   0.794   2.792   3.849
  293TIP3    H1  843   0.813   2.719   3.789
  293TIP3    H2  844   0.838   2.769   3.930
  294TIP3   OH2  845   3.680   2.161   3.219
  294TIP3    H1  846   3.711   2.240   3.265
  294TIP3    H2  847   3.679   2.186   3.127
  295TIP3   OH2  848   4.023   5.101   1.849
  295TIP3    H1  849   3.939   5.104   1.894
  295TIP3    H2  850   4.074   5.037   1.898
  296TIP3   OH2  851   3.565   2.934   3.869
  296TIP3    H1  852   3.483   2.907   3.911
  296TIP3    H2  853   3.541   3.010   3.816
  297TIP3   OH2  854   4.343   5.132   1.401
  297TIP3    H1  855   4.349   5.062   1.335
  297TIP3    H2  856   4.267   5.107   1.454
  298TIP3   OH2  857   0.614   2.786   2.340
  298TIP3    H1  858   0.654   2.860   2.294
  298TIP3    H2  859   0.629   2.804   2.433
  299TIP3   OH2  860   3.638   6.613   4.871
  299TIP3    H1  861   3.672   6.526   4.890
  299TIP3    H2  862   3.573   6.599   4.802
  300TIP3   OH2  863   4.503   1.407   5.815
  300TIP3    H1  864   4.533   1.483   5.865
  300TIP3    H2  865   4.456   1.445   5.741
  301TIP3   OH2  866   5.818   6.280   3.793
  301TIP3    H1  867   5.744   6.324   3.751
  301TIP3    H2  868   5.788   6.191   3.809
  302TIP3   OH2  869   5.192   3.970   5.417
  302TIP3    H1  870   5.111   4.015   5.397
  302TIP3    H2  871   5.246   3.982   5.339
  303TIP3   OH2  872   6.280   4.050   2.809
  303TIP3    H1  873   6.309   3.976   2.862
  303TIP3    H2  874   6.360   4.084   2.769
  304TIP3   OH2  875   2.787   4.986   3.588
  304TIP3    H1  876   2.881   4.969   3.584
  304TIP3    H2  877   2.751   4.943   3.510
  305TIP3   OH2  878   5.977   2.300   5.057
  305TIP3    H1  879   5.935   2.384   5.040
  305TIP3    H2  880   5.945   2.274   5.143
  306TIP3   OH2  881   4.730   2.422   4.992
  306TIP3    H1  882   4.822   2.399   4.977
  306TIP3    H2  883   4.716   2.406   5.085
  307TIP3   OH2  884   6.864   6.473   1.830
  307TIP3    H1  885   6.853   6.403   1.765
  307TIP3    H2  886   6.776   6.508   1.844
  308TIP3   OH2  887   7.158   1.370   0.910
  308TIP3    H1  888   7.071   1.408   0.924
  308TIP3    H2  889   7.207   1.393   0.988
  309TIP3   OH2  890   4.868   2.491   4.066
  309TIP3    H1  891   4.895   2.406   4.031
  309TIP3    H2  892   4.774   2.495   4.048
  310TIP3   OH2  893   7.138   4.206   1.839
  310TIP3    H1  894   7.126   4.296   1.868
  310TIP3    H2  895   7.174   4.160   1.914
  311TIP3   OH2  896   0.358   5.961   4.963
  311TIP3    H1  897   0.400   5.897   5.019
  311TIP3    H2  898   0.319   5.909   4.892
  312TIP3   OH2  899   1.661   0.509   0.261
  312TIP3    H1  900   1.639   0.418   0.281
  312TIP3    H2  901   1.724   0.502   0.189
  313TIP3   OH2  902   6.569   2.103   2.669
  313TIP3    H1  903   6.610   2.033   2.619
  313TIP3    H2  904   6.514   2.149   2.606
  314TIP3   OH2  905   1.696   0.729   1.079
  314TIP3    H1  906   1.725   0.803   1.132
  314TIP3    H2  907   1.621   0.693   1.126
  315TIP3   OH2  908   5.772   1.648   3.124
  315TIP3    H1  909   5.711   1.634   3.052
  315TIP3    H2  910   5.750   1.581   3.188
  316TIP3   OH2  911   4.520   1.668   2.025
  316TIP3    H1  912   4.466   1.697   1.951
  316TIP3    H2  913   4.589   1.616   1.984
  317TIP3   OH2  914   1.476   0.533   2.379
  317TIP3    H1  915   1.552   0.542   2.321
  317TIP3    H2  916   1.439   0.448   2.356
  318TIP3   OH2  917   5.701   3.555   2.953
  318TIP3    H1  918   5.606   3.567   2.944
  318TIP3    H2  919   5.727   3.618   3.020
  319TIP3   OH2  920   2.101   4.718   1.420
  319TIP3    H1  921   2.194   4.735   1.406
  319TIP3    H2  922   2.062   4.725   1.333
  320TIP3   OH2  923   3.277   0.619   3.152
  320TIP3    H1  924   3.256   0.584   3.065
  320TIP3    H2  925   3.363   0.659   3.141
  321TIP3   OH2  926   3.547   1.501   2.598
  321TIP3    H1  927   3.496   1.510   2.518
  321TIP3    H2  928   3.562   1.592   2.626
  322TIP3   OH2  929   3.455   2.450   5.626
  322TIP3    H1  930   3.398   2.376   5.648
  322TIP3    H2  931   3.433   2.517   5.692
  323TIP3   OH2  932   3.691   4.287   5.100
  323TIP3    H1  933   3.783   4.261   5.090
  323TIP3    H2  934   3.641   4.214   5.064
  324TIP3   OH2  935   5.481   1.501   4.226
  324TIP3    H1  936   5.507   1.464   4.141
  324TIP3    H2  937   5.491   1.596   4.215
  325TIP3   OH2  938   1.467   1.195   0.858
  325TIP3    H1  939   1.506   1.110   0.835
  325TIP3    H2  940   1.383   1.196   0.812
  326TIP3   OH2  941   7.034   6.480   3.602
  326TIP3    H1  942   6.973   6.488   3.676
  326TIP3    H2  943   7.118   6.459   3.643
  327TIP3   OH2  944   5.581   4.357   4.766
  327TIP3    H1  945   5.640   4.431   4.781
  327TIP3    H2  946   5.588   4.304   4.846
  328TIP3   OH2  947   6.035   0.194   5.381
  328TIP3    H1  948   6.087   0.151   5.449
  328TIP3    H2  949   5.968   0.130   5.358
  329TIP3   OH2  950   2.609   0.987   1.126
  329TIP3    H1  951   2.580   0.898   1.144
  329TIP3    H2  952   2.561   1.013   1.047
  330TIP3   OH2  953   5.257   5.403   2.657
  330TIP3    H1  954   5.262   5.439   2.569
  330TIP3    H2  955   5.181   5.445   2.696
  331TIP3   OH2  956   1.651   3.503   0.522
  331TIP3    H1  957   1.577   3.529   0.467
  331TIP3    H2  958   1.625   3.418   0.558
  332TIP3   OH2  959   3.370   1.835   3.708
  332TIP3    H1  960   3.321   1.754   3.720
  332TIP3    H2  961   3.357   1.857   3.615
  333TIP3   OH2  962   2.822   0.614   5.568
  333TIP3    H1  963   2.860   0.694   5.530
  333TIP3    H2  964   2.811   0.555   5.494
  334TIP3   OH2  965   1.160   2.656   2.052
  334TIP3    H1  966   1.082   2.697   2.088
  334TIP3    H2  967   1.138   2.639   1.961
  335TIP3   OH2  968   1.489   3.419   4.634
  335TIP3    H1  969   1.473   3.508   4.602
  335TIP3    H2  970   1.480   3.364   4.556
  336TIP3   OH2  971   7.156   1.376   3.092
  336TIP3    H1  972   7.213   1.397   3.166
  336TIP3    H2  973   7.216   1.349   3.022
  337TIP3   OH2  974   2.791   0.601   3.837
  337TIP3    H1  975   2.853   0.547   3.886
  337TIP3    H2  976   2.845   0.668   3.796
  338TIP3   OH2  977   7.068   6.685   4.533
  338TIP3    H1  978   7.072   6.674   4.438
  338TIP3    H2  979   7.126   6.617   4.567
  339TIP3   OH2  980   1.545   0.446   5.787
  339TIP3    H1  981   1.585   0.514   5.843
  339TIP3    H2  982   1.536   0.489   5.702
  340TIP3   OH2  983   2.616   4.411   3.616
  340TIP3    H1  984   2.696   4.366   3.641
  340TIP3    H2  985   2.644   4.500   3.593
  341TIP3   OH2  986   4.489   4.800   1.936
  341TIP3    H1  987   4.575   4.779   1.899
  341TIP3    H2  988   4.462   4.719   1.980
  342TIP3   OH2  989   1.076   4.489   0.791
  342TIP3    H1  990   1.133   4.428   0.839
  342TIP3    H2  991   1.005   4.434   0.757
  343TIP3   OH2  992   6.755   5.291   4.517
  343TIP3    H1  993   6.777   5.325   4.431
  343TIP3    H2  994   6.682   5.231   4.501
  344TIP3   OH2  995   1.774   5.581   3.559
  344TIP3    H1  996   1.799   5.673   3.557
  344TIP3    H2  997   1.688   5.579   3.515
  345TIP3   OH2  998   4.932   5.012   3.590
  345TIP3    H1  999   5.025   5.032   3.595
  345TIP3    H2 1000   4.928   4.920   3.565
  346TIP3   OH2 1001   3.720   3.664   2.675
  346TIP3    H1 1002   3.798   3.662   2.731
  346TIP3    H2 1003   3.729   3.745   2.625
  347TIP3   OH2 1004   5.201   4.941   4.402
  347TIP3    H1 1005   5.145   4.869   4.431
  347TIP3    H2 1006   5.183   4.948   4.308
  348TIP3   OH2 1007   2.705   6.175   5.799
  348TIP3    H1 1008   2.750   6.094   5.774
  348TIP3    H2 1009   2.625   6.146   5.843
  349TIP3   OH2 1010   3.540   1.452   3.483
  349TIP3    H1 1011   3.588   1.476   3.562
  349TIP3    H2 1012   3.462   1.509   3.484
  350TIP3   OH2 1013   0.538   6.585   5.221
  350TIP3    H1 1014   0.583   6.536   5.289
  350TIP3    H2 1015   0.507   6.664   5.265
  351TIP3   OH2 1016   5.469   5.896   2.442
  351TIP3    H1 1017   5.392   5.917   2.494
  351TIP3    H2 1018   5.459   5.803   2.419
  352TIP3   OH2 1019   4.217   1.627   2.435
  352TIP3    H1 1020   4.303   1.670   2.431
  352TIP3    H2 1021   4.184   1.630   2.345
  353TIP3   OH2 1022   2.177   6.326   5.328
  353TIP3    H1 1023   2.250   6.367   5.375
  353TIP3    H2 1024   2.153   6.251   5.382
  354TIP3   OH2 1025   7.135   4.162   0.764
  354TIP3    H1 1026   7.176   4.084   0.727
  354TIP3    H2 1027   7.203   4.229   0.758
  355TIP3   OH2 1028   4.455   1.845   3.597
  355TIP3    H1 1029   4.377   1.887   3.559
  355TIP3    H2 1030   4.523   1.857   3.530
  356TIP3   OH2 1031   4.600   1.126   3.852
  356TIP3    H1 1032   4.524   1.184   3.861
  356TIP3    H2 1033   4.599   1.101   3.759
  357TIP3   OH2 1034   1.569   6.334   5.587
  357TIP3    H1 1035   1.531   6.320   5.674
  357TIP3    H2 1036   1.493   6.349   5.530
  358TIP3   OH2 1037   2.231   1.521   3.180
  358TIP3    H1 1038   2.281   1.597   3.210
  358TIP3    H2 1039   2.295   1.468   3.132
  359TIP3   OH2 1040   2.455   6.150   3.136
  359TIP3    H1 1041   2.376   6.193   3.102
  359TIP3    H2 1042   2.450   6.162   3.230
  360TIP3   OH2 1043   2.244   6.305   3.770
  360TIP3    H1 1044   2.325   6.353   3.790
  360TIP3    H2 1045   2.266   6.253   3.693
  361TIP3   OH2 1046   6.644   6.337   3.165
  361TIP3    H1 1047   6.686   6.314   3.082
  361TIP3    H2 1048   6.692   6.289   3.232
  362TIP3   OH2 1049   2.451   0.419   5.150
  362TIP3    H1 1050   2.508   0.342   5.159
  362TIP3    H2 1051   2.414   0.410   5.062
  363TIP3   OH2 1052   6.466   2.659   3.167
  363TIP3    H1 1053   6.393   2.605   3.136
  363TIP3    H2 1054   6.447   2.747   3.134
  364TIP3   OH2 1055   6.476   3.995   0.965
  364TIP3    H1 1056   6.533   3.926   1.000
  364TIP3    H2 1057   6.535   4.055   0.920
  365TIP3   OH2 1058   7.151   3.855   3.554
  365TIP3    H1 1059   7.154   3.760   3.549
  365TIP3    H2 1060   7.113   3.882   3.471
  366TIP3   OH2 1061   5.618   2.534   2.957
  366TIP3    H1 1062   5.561   2.557   2.884
  366TIP3    H2 1063   5.667   2.614   2.974
  367TIP3   OH2 1064   5.019   6.460   1.256
  367TIP3    H1 1065   4.938   6.459   1.306
  367TIP3    H2 1066   5.087   6.439   1.320
  368TIP3   OH2 1067   0.828   2.519   2.154
  368TIP3    H1 1068   0.832   2.464   2.233
  368TIP3    H2 1069   0.739   2.555   2.156
  369TIP3   OH2 1070   4.941   5.487   1.144
  369TIP3    H1 1071   4.860   5.484   1.194
  369TIP3    H2 1072   4.933   5.565   1.089
  370TIP3   OH2 1073   1.843   5.624   0.444
  370TIP3    H1 1074   1.892   5.673   0.510
  370TIP3    H2 1075   1.897   5.630   0.365
  371TIP3   OH2 1076   0.620   5.965   1.207
  371TIP3    H1 1077   0.643   5.891   1.150
  371TIP3    H2 1078   0.531   5.990   1.180
  372TIP3   OH2 1079   5.408   6.629   0.857
  372TIP3    H1 1080   5.461   6.702   0.887
  372TIP3    H2 1081   5.339   6.621   0.923
  373TIP3   OH2 1082   3.594   4.050   4.903
  373TIP3    H1 1083   3.675   4.052   4.852
  373TIP3    H2 1084   3.525   4.038   4.838
  374TIP3   OH2 1085   2.790   0.222   1.419
  374TIP3    H1 1086   2.873   0.201   1.462
  374TIP3    H2 1087   2.730   0.239   1.492
  375TIP3   OH2 1088   1.770   3.233   3.875
  375TIP3    H1 1089   1.790   3.322   3.846
  375TIP3    H2 1090   1.821   3.176   3.818
  376TIP3   OH2 1091   4.336   6.068   5.223
  376TIP3    H1 1092   4.335   6.049   5.129
  376TIP3    H2 1093   4.338   6.163   5.228
  377TIP3   OH2 1094   3.430   0.749   3.796
  377TIP3    H1 1095   3.421   0.658   3.767
  377TIP3    H2 1096   3.484   0.742   3.876
  378TIP3   OH2 1097   5.985   6.759   4.851
  378TIP3    H1 1098   5.896   6.724   4.860
  378TIP3    H2 1099   6.009   6.786   4.940
  379TIP3   OH2 1100   3.443   0.067   5.895
  379TIP3    H1 1101   3.361   0.039   5.853
  379TIP3    H2 1102   3.415   0.126   5.965
  380TIP3   OH2 1103   4.004   1.225   1.055
  380TIP3    H1 1104   4.014   1.152   0.993
  380TIP3    H2 1105   3.960   1.293   1.004
  381TIP3   OH2 1106   6.931   2.662   1.314
  381TIP3    H1 1107   6.880   2.742   1.300
  381TIP3    H2 1108   6.895   2.624   1.394
  382TIP3   OH2 1109   1.360   0.890   3.578
  382TIP3    H1 1110   1.327   0.849   3.659
  382TIP3    H2 1111   1.280   0.918   3.532
  383TIP3   OH2 1112   5.137   0.837   1.094
  383TIP3    H1 1113   5.213   0.780   1.103
  383TIP3    H2 1114   5.063   0.777   1.086
  384TIP3   OH2 1115   4.639   5.921   4.234
  384TIP3    H1 1116   4.729   5.904   4.264
  384TIP3    H2 1117   4.622   6.011   4.259
  385TIP3   OH2 1118   3.632   0.715   5.537
  385TIP3    H1 1119   3.567   0.756   5.481
  385TIP3    H2 1120   3.711   0.767   5.525
  386TIP3   OH2 1121   1.439   3.943   4.660
  386TIP3    H1 1122   1.487   3.860   4.661
  386TIP3    H2 1123   1.356   3.922   4.619
  387TIP3   OH2 1124   3.093   6.466   3.096
  387TIP3    H1 1125   3.043   6.385   3.091
  387TIP3    H2 1126   3.051   6.524   3.032
  388TIP3   OH2 1127   2.620   1.356   3.909
  388TIP3    H1 1128   2.691   1.419   3.892
  388TIP3    H2 1129   2.582   1.386   3.992
  389TIP3   OH2 1130   1.873   1.809   4.314
  389TIP3    H1 1131   1.928   1.734   4.293
  389TIP3    H2 1132   1.826   1.783   4.393
  390TIP3   OH2 1133   0.669   5.823   5.434
  390TIP3    H1 1134   0.675   5.918   5.425
  390TIP3    H2 1135   0.575   5.805   5.437
  391TIP3   OH2 1136   0.180   1.501   0.790
  391TIP3    H1 1137   0.118   1.477   0.859
  391TIP3    H2 1138   0.242   1.560   0.833
  392TIP3   OH2 1139   3.779   4.396   0.232
  392TIP3    H1 1140   3.764   4.380   0.325
  392TIP3    H2 1141   3.866   4.359   0.216
  393TIP3   OH2 1142   6.771   6.237   1.305
  393TIP3    H1 1143   6.854   6.216   1.348
  393TIP3    H2 1144   6.747   6.157   1.258
  394TIP3   OH2 1145   1.654   2.880   3.375
  394TIP3    H1 1146   1.665   2.810   3.311
  394TIP3    H2 1147   1.596   2.843   3.441
  395TIP3   OH2 1148   0.530   3.859   0.903
  395TIP3    H1 1149   0.445   3.902   0.912
  395TIP3    H2 1150   0.590   3.914   0.953
  396TIP3   OH2 1151   2.838   0.543   4.364
  396TIP3    H1 1152   2.821   0.576   4.453
  396TIP3    H2 1153   2.752   0.519   4.331
  397TIP3   OH2 1154   6.328   1.511   1.954
  397TIP3    H1 1155   6.246   1.488   1.910
  397TIP3    H2 1156   6.309   1.594   1.998
  398TIP3   OH2 1157   3.645   0.452   5.210
  398TIP3    H1 1158   3.563   0.478   5.168
  398TIP3    H2 1159   3.622   0.439   5.302
  399TIP3   OH2 1160   6.407   0.628   4.715
  399TIP3    H1 1161   6.405   0.688   4.790
  399TIP3    H2 1162   6.316   0.625   4.685
  400TIP3   OH2 1163   0.351   2.863   5.057
  400TIP3    H1 1164   0.444   2.838   5.059
  400TIP3    H2 1165   0.352   2.959   5.060
  401TIP3   OH2 1166   3.312   6.139   0.201
  401TIP3    H1 1167   3.302   6.046   0.181
  401TIP3    H2 1168   3.237   6.160   0.256
  402TIP3   OH2 1169   4.630   0.639   4.301
  402TIP3    H1 1170   4.583   0.716   4.331
  402TIP3    H2 1171   4.573   0.565   4.326
  403TIP3   OH2 1172   0.095   3.539   5.168
  403TIP3    H1 1173   0.076   3.595   5.092
  403TIP3    H2 1174   0.039   3.463   5.155
  404TIP3   OH2 1175   5.999   3.313   2.764
  404TIP3    H1 1176   5.987   3.218   2.761
  404TIP3    H2 1177   6.054   3.332   2.688
  405TIP3   OH2 1178   1.421   2.288   0.720
  405TIP3    H1 1179   1.349   2.225   0.721
  405TIP3    H2 1180   1.402   2.345   0.645
  406TIP3   OH2 1181   2.411   1.601   3.494
  406TIP3    H1 1182   2.373   1.590   3.581
  406TIP3    H2 1183   2.495   1.555   3.498
  407TIP3   OH2 1184   6.715   5.889   1.682
  407TIP3    H1 1185   6.781   5.826   1.710
  407TIP3    H2 1186   6.766   5.965   1.654
  408TIP3   OH2 1187   2.431   5.153   1.963
  408TIP3    H1 1188   2.449   5.247   1.965
  408TIP3    H2 1189   2.435   5.126   2.055
  409TIP3   OH2 1190   3.753   4.531   5.880
  409TIP3    H1 1191   3.730   4.563   5.967
  409TIP3    H2 1192   3.670   4.508   5.840
  410TIP3   OH2 1193   2.566   5.220   2.812
  410TIP3    H1 1194   2.504   5.257   2.875
  410TIP3    H2 1195   2.521   5.225   2.728
  411TIP3   OH2 1196   1.269   2.344   4.859
  411TIP3    H1 1197   1.342   2.297   4.817
  411TIP3    H2 1198   1.231   2.279   4.918
  412TIP3   OH2 1199   3.789   6.161   4.477
  412TIP3    H1 1200   3.734   6.088   4.505
  412TIP3    H2 1201   3.730   6.220   4.431
  413TIP3   OH2 1202   4.909   6.071   0.472
  413TIP3    H1 1203   4.967   6.134   0.429
  413TIP3    H2 1204   4.899   6.000   0.408
  414TIP3   OH2 1205   5.540   4.030   0.946
  414TIP3    H1 1206   5.447   4.010   0.932
  414TIP3    H2 1207   5.568   4.072   0.865
  415TIP3   OH2 1208   2.107   3.928   2.091
  415TIP3    H1 1209   2.158   3.851   2.116
  415TIP3    H2 1210   2.104   3.981   2.171
  416TIP3   OH2 1211   1.594   4.318   1.857
  416TIP3    H1 1212   1.555   4.232   1.844
  416TIP3    H2 1213   1.630   4.315   1.946
  417TIP3   OH2 1214   6.911   2.429   2.159
  417TIP3    H1 1215   6.841   2.367   2.139
  417TIP3    H2 1216   6.901   2.447   2.252
  418TIP3   OH2 1217   2.321   5.007   0.570
  418TIP3    H1 1218   2.277   4.960   0.640
  418TIP3    H2 1219   2.402   4.958   0.554
  419TIP3   OH2 1220   5.490   4.644   2.540
  419TIP3    H1 1221   5.541   4.693   2.604
  419TIP3    H2 1222   5.553   4.622   2.471
  420TIP3   OH2 1223   4.301   5.173   3.642
  420TIP3    H1 1224   4.240   5.191   3.713
  420TIP3    H2 1225   4.370   5.120   3.682
  421TIP3   OH2 1226   2.129   6.249   0.198
  421TIP3    H1 1227   2.167   6.337   0.209
  421TIP3    H2 1228   2.203   6.190   0.211
  422TIP3   OH2 1229   0.601   0.993   0.777
  422TIP3    H1 1230   0.647   1.073   0.752
  422TIP3    H2 1231   0.573   1.007   0.867
  423TIP3   OH2 1232   3.753   1.575   5.842
  423TIP3    H1 1233   3.803   1.495   5.826
  423TIP3    H2 1234   3.741   1.577   5.937
  424TIP3   OH2 1235   0.841   3.331   3.657
  424TIP3    H1 1236   0.839   3.426   3.645
  424TIP3    H2 1237   0.821   3.318   3.750
  425TIP3   OH2 1238   0.291   3.177   4.258
  425TIP3    H1 1239   0.307   3.091   4.219
  425TIP3    H2 1240   0.197   3.177   4.278
  426TIP3   OH2 1241   2.146   0.631   0.211
  426TIP3    H1 1242   2.172   0.709   0.161
  426TIP3    H2 1243   2.177   0.649   0.300
  427TIP3   OH2 1244   3.980   1.614   1.232
  427TIP3    H1 1245   3.942   1.682   1.176
  427TIP3    H2 1246   3.913   1.546   1.235
  428TIP3   OH2 1247   5.210   0.915   5.823
  428TIP3    H1 1248   5.188   0.839   5.769
  428TIP3    H2 1249   5.138   0.976   5.808
  429TIP3   OH2 1250   1.127   0.545   4.980
  429TIP3    H1 1251   1.178   0.561   4.900
  429TIP3    H2 1252   1.143   0.453   5.001
  430TIP3   OH2 1253   5.051   0.621   0.676
  430TIP3    H1 1254   5.126   0.680   0.676
  430TIP3    H2 1255   5.085   0.538   0.643
  431TIP3   OH2 1256   6.018   4.656   3.168
  431TIP3    H1 1257   6.053   4.575   3.203
  431TIP3    H2 1258   5.932   4.665   3.210
  432TIP3   OH2 1259   4.211   6.716   5.489
  432TIP3    H1 1260   4.250   6.785   5.544
  432TIP3    H2 1261   4.285   6.660   5.465
  433TIP3   OH2 1262   4.997   2.651   3.881
  433TIP3    H1 1263   4.948   2.733   3.893
  433TIP3    H2 1264   4.958   2.591   3.945
  434TIP3   OH2 1265   2.449   0.782   2.979
  434TIP3    H1 1266   2.531   0.772   3.028
  434TIP3    H2 1267   2.477   0.807   2.891
  435TIP3   OH2 1268   0.582   4.629   5.494
  435TIP3    H1 1269   0.660   4.606   5.442
  435TIP3    H2 1270   0.580   4.725   5.492
  436TIP3   OH2 1271   0.039   5.859   4.555
  436TIP3    H1 1272  -0.054   5.860   4.532
  436TIP3    H2 1273   0.080   5.808   4.485
  437TIP3   OH2 1274   5.855   2.330   0.315
  437TIP3    H1 1275   5.835   2.284   0.233
  437TIP3    H2 1276   5.804   2.283   0.382
  438TIP3   OH2 1277   1.259   3.081   0.041
  438TIP3    H1 1278   1.196   3.011   0.025
  438TIP3    H2 1279   1.208   3.148   0.087
  439TIP3   OH2 1280   1.876   2.955   5.653
  439TIP3    H1 1281   1.788   2.923   5.672
  439TIP3    H2 1282   1.865   3.009   5.575
  440TIP3   OH2 1283   0.834   0.876   0.191
  440TIP3    H1 1284   0.767   0.898   0.126
  440TIP3    H2 1285   0.876   0.797   0.156
  441TIP3   OH2 1286   0.069   6.314   2.906
  441TIP3    H1 1287  -0.020   6.350   2.906
  441TIP3    H2 1288   0.070   6.253   2.832
  442TIP3   OH2 1289   5.555   1.318   4.742
  442TIP3    H1 1290   5.481   1.317   4.803
  442TIP3    H2 1291   5.528   1.260   4.671
  443TIP3   OH2 1292   5.496   1.734   4.447
  443TIP3    H1 1293   5.428   1.795   4.477
  443TIP3    H2 1294   5.519   1.685   4.526
  444TIP3   OH2 1295   1.962   4.278   3.581
  444TIP3    H1 1296   1.973   4.183   3.583
  444TIP3    H2 1297   2.039   4.310   3.534
  445TIP3   OH2 1298   3.819   1.910   2.377
  445TIP3    H1 1299   3.760   1.845   2.416
  445TIP3    H2 1300   3.769   1.991   2.378
  446TIP3   OH2 1301   6.447   1.545   2.711
  446TIP3    H1 1302   6.368   1.546   2.764
  446TIP3    H2 1303   6.517   1.569   2.772
  447TIP3   OH2 1304   0.199  -0.001   3.476
  447TIP3    H1 1305   0.169   0.089   3.470
  447TIP3    H2 1306   0.131  -0.053   3.434
  448TIP3   OH2 1307   2.632   0.013   4.079
  448TIP3    H1 1308   2.608  -0.011   4.168
  448TIP3    H2 1309   2.684   0.093   4.089
  449TIP3   OH2 1310   4.110   6.656   3.324
  449TIP3    H1 1311   4.179   6.683   3.264
  449TIP3    H2 1312   4.058   6.593   3.274
  450TIP3   OH2 1313   3.422   5.301   4.613
  450TIP3    H1 1314   3.365   5.361   4.661
  450TIP3    H2 1315   3.428   5.224   4.669
  451TIP3   OH2 1316   1.677   3.623   1.447
  451TIP3    H1 1317   1.596   3.643   1.401
  451TIP3    H2 1318   1.719   3.708   1.461
  452TIP3   OH2 1319   6.377   0.212   4.650
  452TIP3    H1 1320   6.435   0.141   4.677
  452TIP3    H2 1321   6.302   0.167   4.611
  453TIP3   OH2 1322   2.174   1.814   3.613
  453TIP3    H1 1323   2.137   1.892   3.572
  453TIP3    H2 1324   2.152   1.742   3.553
  454TIP3   OH2 1325   6.691   0.205   5.020
  454TIP3    H1 1326   6.606   0.162   5.014
  454TIP3    H2 1327   6.683   0.281   4.962
  455TIP3   OH2 1328   0.641   5.441   3.506
  455TIP3    H1 1329   0.714   5.499   3.528
  455TIP3    H2 1330   0.581   5.448   3.580
  456TIP3   OH2 1331   3.523   3.995   3.714
  456TIP3    H1 1332   3.523   3.951   3.799
  456TIP3    H2 1333   3.503   4.087   3.735
  457TIP3   OH2 1334   3.672   4.928   2.427
  457TIP3    H1 1335   3.722   4.909   2.506
  457TIP3    H2 1336   3.737   4.929   2.357
  458TIP3   OH2 1337   4.550   6.542   5.181
  458TIP3    H1 1338   4.555   6.600   5.257
  458TIP3    H2 1339   4.590   6.461   5.209
  459TIP3   OH2 1340   0.559   2.748   1.349
  459TIP3    H1 1341   0.647   2.767   1.383
  459TIP3    H2 1342   0.567   2.758   1.254
  460TIP3   OH2 1343   5.316   1.689   3.885
  460TIP3    H1 1344   5.400   1.655   3.915
  460TIP3    H2 1345   5.280   1.620   3.830
  461TIP3   OH2 1346   3.454   0.346   3.290
  461TIP3    H1 1347   3.533   0.318   3.245
  461TIP3    H2 1348   3.390   0.361   3.220
  462TIP3   OH2 1349   1.289   1.343   2.482
  462TIP3    H1 1350   1.334   1.385   2.555
  462TIP3    H2 1351   1.267   1.256   2.515
  463TIP3   OH2 1352   1.845   3.091   3.639
  463TIP3    H1 1353   1.758   3.095   3.601
  463TIP3    H2 1354   1.903   3.070   3.565
  464TIP3   OH2 1355   1.088   4.425   3.104
  464TIP3    H1 1356   1.178   4.392   3.101
  464TIP3    H2 1357   1.097   4.516   3.132
  465TIP3   OH2 1358   6.479   2.808   5.451
  465TIP3    H1 1359   6.391   2.843   5.436
  465TIP3    H2 1360   6.514   2.863   5.521
  466TIP3   OH2 1361   1.616   1.940   1.275
  466TIP3    H1 1362   1.641   2.021   1.230
  466TIP3    H2 1363   1.605   1.876   1.204
  467TIP3   OH2 1364   1.943   0.139   5.779
  467TIP3    H1 1365   1.926   0.228   5.747
  467TIP3    H2 1366   1.890   0.132   5.859
  468TIP3   OH2 1367   2.472   3.268   5.588
  468TIP3    H1 1368   2.412   3.285   5.516
  468TIP3    H2 1369   2.416   3.256   5.665
  469TIP3   OH2 1370   1.487   1.843   3.595
  469TIP3    H1 1371   1.577   1.876   3.600
  469TIP3    H2 1372   1.457   1.843   3.686
  470TIP3   OH2 1373   7.122   4.665   5.296
  470TIP3    H1 1374   7.087   4.639   5.382
  470TIP3    H2 1375   7.061   4.730   5.264
  471TIP3   OH2 1376   4.089   4.874   5.624
  471TIP3    H1 1377   4.061   4.785   5.602
  471TIP3    H2 1378   4.184   4.872   5.614
  472TIP3   OH2 1379   6.773   5.076   3.321
  472TIP3    H1 1380   6.858   5.058   3.283
  472TIP3    H2 1381   6.715   5.088   3.246
  473TIP3   OH2 1382   2.014   5.189   4.932
  473TIP3    H1 1383   1.994   5.186   4.838
  473TIP3    H2 1384   2.104   5.157   4.939
  474TIP3   OH2 1385   6.910   5.190   4.712
  474TIP3    H1 1386   6.852   5.216   4.640
  474TIP3    H2 1387   6.959   5.115   4.677
  475TIP3   OH2 1388   6.713   1.287   3.293
  475TIP3    H1 1389   6.703   1.333   3.210
  475TIP3    H2 1390   6.765   1.346   3.347
  476TIP3   OH2 1391   4.006   6.418   4.845
  476TIP3    H1 1392   3.915   6.436   4.869
  476TIP3    H2 1393   4.002   6.388   4.754
  477TIP3   OH2 1394   3.480   3.641   4.577
  477TIP3    H1 1395   3.559   3.587   4.589
  477TIP3    H2 1396   3.498   3.694   4.500
  478TIP3   OH2 1397   6.787   1.895   0.058
  478TIP3    H1 1398   6.874   1.878   0.022
  478TIP3    H2 1399   6.728   1.883  -0.016
  479TIP3   OH2 1400   6.264   3.930   1.808
  479TIP3    H1 1401   6.340   3.920   1.750
  479TIP3    H2 1402   6.295   3.901   1.893
  480TIP3   OH2 1403   1.175   5.181   3.530
  480TIP3    H1 1404   1.161   5.188   3.624
  480TIP3    H2 1405   1.251   5.236   3.512
  481TIP3   OH2 1406   5.343   1.340   4.888
  481TIP3    H1 1407   5.290   1.337   4.968
  481TIP3    H2 1408   5.282   1.365   4.819
  482TIP3   OH2 1409   1.767   0.175   3.883
  482TIP3    H1 1410   1.829   0.116   3.925
  482TIP3    H2 1411   1.791   0.173   3.790
  483TIP3   OH2 1412   5.121   4.901   0.280
  483TIP3    H1 1413   5.033   4.872   0.257
  483TIP3    H2 1414   5.149   4.955   0.206
  484TIP3   OH2 1415   5.245   0.712   0.014
  484TIP3    H1 1416   5.192   0.762  -0.049
  484TIP3    H2 1417   5.184   0.693   0.085
  485TIP3   OH2 1418   2.461   4.774   3.629
  485TIP3    H1 1419   2.443   4.840   3.697
  485TIP3    H2 1420   2.557   4.767   3.628
  486TIP3   OH2 1421   0.798   2.086   1.396
  486TIP3    H1 1422   0.836   2.146   1.331
  486TIP3    H2 1423   0.762   2.014   1.345
  487TIP3   OH2 1424   3.184   2.266   1.959
  487TIP3    H1 1425   3.208   2.299   2.045
  487TIP3    H2 1426   3.121   2.330   1.925
  488TIP3   OH2 1427   2.351   1.312   0.144
  488TIP3    H1 1428   2.259   1.321   0.118
  488TIP3    H2 1429   2.395   1.386   0.103
  489TIP3   OH2 1430   2.471   6.678   5.491
  489TIP3    H1 1431   2.562   6.706   5.480
  489TIP3    H2 1432   2.419   6.753   5.463
  490TIP3   OH2 1433   4.014   5.587   5.908
  490TIP3    H1 1434   4.064   5.508   5.893
  490TIP3    H2 1435   3.934   5.576   5.855
  491TIP3   OH2 1436   4.772   1.472   0.308
  491TIP3    H1 1437   4.807   1.426   0.231
  491TIP3    H2 1438   4.759   1.562   0.278
  492TIP3   OH2 1439   0.794   5.652   5.040
  492TIP3    H1 1440   0.765   5.613   4.958
  492TIP3    H2 1441   0.831   5.580   5.090
  493TIP3   OH2 1442   1.875   3.485   3.849
  493TIP3    H1 1443   1.924   3.567   3.850
  493TIP3    H2 1444   1.811   3.494   3.920
  494TIP3   OH2 1445   0.287   0.137   0.471
  494TIP3    H1 1446   0.348   0.071   0.436
  494TIP3    H2 1447   0.339   0.217   0.478
  495TIP3   OH2 1448   6.882   5.728   1.861
  495TIP3    H1 1449   6.866   5.643   1.902
  495TIP3    H2 1450   6.977   5.732   1.850
  496TIP3   OH2 1451   6.108   3.089   4.861
  496TIP3    H1 1452   6.152   3.163   4.903
  496TIP3    H2 1453   6.159   3.012   4.889
  497TIP3   OH2 1454   2.159   0.495   0.782
  497TIP3    H1 1455   2.077   0.516   0.828
  497TIP3    H2 1456   2.162   0.399   0.780
  498TIP3   OH2 1457   2.326   5.637   3.250
  498TIP3    H1 1458   2.281   5.633   3.166
  498TIP3    H2 1459   2.401   5.695   3.234
  499TIP3   OH2 1460   6.085   5.804   1.232
  499TIP3    H1 1461   6.147   5.815   1.303
  499TIP3    H2 1462   6.074   5.892   1.195
  500TIP3   OH2 1463   4.250   4.143   5.014
  500TIP3    H1 1464   4.338   4.124   5.044
  500TIP3    H2 1465   4.206   4.181   5.090
  501TIP3   OH2 1466   1.548   6.306   0.407
  501TIP3    H1 1467   1.604   6.282   0.480
  501TIP3    H2 1468   1.459   6.290   0.439
  502TIP3   OH2 1469   3.276   3.445   1.006
  502TIP3    H1 1470   3.350   3.501   1.028
  502TIP3    H2 1471   3.252   3.470   0.917
  503TIP3   OH2 1472   2.901   3.060   5.913
  503TIP3    H1 1473   2.815   3.020   5.896
  503TIP3    H2 1474   2.954   3.035   5.838
  504TIP3   OH2 1475   4.936   3.237   2.878
  504TIP3    H1 1476   4.903   3.312   2.829
  504TIP3    H2 1477   4.863   3.211   2.934
  505TIP3   OH2 1478   3.646   2.272   0.793
  505TIP3    H1 1479   3.648   2.179   0.816
  505TIP3    H2 1480   3.735   2.292   0.764
  506TIP3   OH2 1481   4.345   5.505   1.677
  506TIP3    H1 1482   4.281   5.442   1.710
  506TIP3    H2 1483   4.299   5.588   1.675
  507TIP3   OH2 1484   1.724   1.586   0.364
  507TIP3    H1 1485   1.637   1.548   0.379
  507TIP3    H2 1486   1.718   1.625   0.277
  508TIP3   OH2 1487   4.026   4.983   3.604
  508TIP3    H1 1488   4.044   5.009   3.695
  508TIP3    H2 1489   3.930   4.986   3.597
  509TIP3   OH2 1490   3.182   3.517   1.484
  509TIP3    H1 1491   3.209   3.457   1.414
  509TIP3    H2 1492   3.092   3.491   1.504
  510TIP3   OH2 1493   5.457   1.711   2.508
  510TIP3    H1 1494   5.498   1.720   2.422
  510TIP3    H2 1495   5.530   1.689   2.566
  511TIP3   OH2 1496   3.986   1.759   3.465
  511TIP3    H1 1497   3.943   1.800   3.390
  511TIP3    H2 1498   3.914   1.720   3.515
  512TIP3   OH2 1499   0.158   6.713   4.304
  512TIP3    H1 1500   0.062   6.707   4.297
  512TIP3    H2 1501   0.185   6.629   4.340
  513TIP3   OH2 1502   1.191   6.158   5.541
  513TIP3    H1 1503   1.135   6.207   5.480
  513TIP3    H2 1504   1.191   6.069   5.508
  514TIP3   OH2 1505   3.666   3.322   3.143
  514TIP3    H1 1506   3.738   3.343   3.083
  514TIP3    H2 1507   3.705   3.328   3.230
  515TIP3   OH2 1508   6.180   6.325   0.152
  515TIP3    H1 1509   6.127   6.354   0.226
  515TIP3    H2 1510   6.140   6.366   0.076
  516TIP3   OH2 1511   0.642   4.811   2.111
  516TIP3    H1 1512   0.611   4.896   2.142
  516TIP3    H2 1513   0.578   4.748   2.147
  517TIP3   OH2 1514   6.315   4.398   0.163
  517TIP3    H1 1515   6.348   4.342   0.233
  517TIP3    H2 1516   6.373   4.473   0.162
  518TIP3   OH2 1517   6.328   0.285   5.513
  518TIP3    H1 1518   6.368   0.360   5.468
  518TIP3    H2 1519   6.350   0.210   5.458
  519TIP3   OH2 1520   7.011   0.987   4.142
  519TIP3    H1 1521   7.076   1.030   4.086
  519TIP3    H2 1522   6.994   0.903   4.099
  520TIP3   OH2 1523   2.675   3.768   1.302
  520TIP3    H1 1524   2.682   3.685   1.349
  520TIP3    H2 1525   2.612   3.819   1.354
  521TIP3   OH2 1526   0.501   2.102   1.813
  521TIP3    H1 1527   0.449   2.148   1.878
  521TIP3    H2 1528   0.440   2.082   1.742
  522TIP3   OH2 1529   3.378   4.647   3.634
  522TIP3    H1 1530   3.426   4.642   3.717
  522TIP3    H2 1531   3.384   4.559   3.598
  523TIP3   OH2 1532   0.881   6.409   2.136
  523TIP3    H1 1533   0.917   6.449   2.057
  523TIP3    H2 1534   0.903   6.470   2.206
  524TIP3   OH2 1535   5.873   6.155   4.710
  524TIP3    H1 1536   5.889   6.193   4.623
  524TIP3    H2 1537   5.953   6.107   4.730
  525TIP3   OH2 1538   5.122   4.183   2.802
  525TIP3    H1 1539   5.118   4.278   2.814
  525TIP3    H2 1540   5.108   4.147   2.889
  526TIP3   OH2 1541   6.796   5.951   4.290
  526TIP3    H1 1542   6.738   5.986   4.358
  526TIP3    H2 1543   6.744   5.955   4.210
  527TIP3   OH2 1544   3.597   4.320   4.599
  527TIP3    H1 1545   3.639   4.366   4.671
  527TIP3    H2 1546   3.524   4.273   4.639
  528TIP3   OH2 1547   0.722   2.484   1.115
  528TIP3    H1 1548   0.753   2.558   1.063
  528TIP3    H2 1549   0.630   2.474   1.089
  529TIP3   OH2 1550   5.094   0.851   1.892
  529TIP3    H1 1551   5.035   0.834   1.818
  529TIP3    H2 1552   5.180   0.864   1.852
  530TIP3   OH2 1553   4.950   3.397   0.323
  530TIP3    H1 1554   4.946   3.362   0.412
  530TIP3    H2 1555   5.043   3.415   0.308
  531TIP3   OH2 1556   0.020   5.009   5.735
  531TIP3    H1 1557  -0.053   5.069   5.717
  531TIP3    H2 1558   0.096   5.066   5.745
  532TIP3   OH2 1559   5.643   1.790   1.931
  532TIP3    H1 1560   5.649   1.710   1.983
  532TIP3    H2 1561   5.589   1.765   1.856
  533TIP3   OH2 1562   5.510   1.811   4.111
  533TIP3    H1 1563   5.569   1.855   4.172
  533TIP3    H2 1564   5.424   1.849   4.129
  534TIP3   OH2 1565   0.675   3.141   2.795
  534TIP3    H1 1566   0.658   3.174   2.883
  534TIP3    H2 1567   0.761   3.099   2.801
  535TIP3   OH2 1568   5.517   5.812   4.138
  535TIP3    H1 1569   5.455   5.841   4.205
  535TIP3    H2 1570   5.463   5.777   4.068
  536TIP3   OH2 1571   3.917   3.877   2.242
  536TIP3    H1 1572   3.921   3.804   2.180
  536TIP3    H2 1573   3.916   3.955   2.187
  537TIP3   OH2 1574   1.588   6.509   0.947
  537TIP3    H1 1575   1.649   6.444   0.981
  537TIP3    H2 1576   1.548   6.467   0.871
  538TIP3   OH2 1577   7.073   2.614   4.356
  538TIP3    H1 1578   7.029   2.699   4.363
  538TIP3    H2 1579   7.003   2.550   4.348
  539TIP3   OH2 1580   4.940   4.648   5.527
  539TIP3    H1 1581   4.919   4.608   5.612
  539TIP3    H2 1582   4.928   4.742   5.541
  540TIP3   OH2 1583   0.768   4.732   1.632
  540TIP3    H1 1584   0.854   4.771   1.617
  540TIP3    H2 1585   0.778   4.642   1.603
  541TIP3   OH2 1586   1.061   6.792   0.513
  541TIP3    H1 1587   1.146   6.786   0.470
  541TIP3    H2 1588   1.081   6.775   0.606
  542TIP3   OH2 1589   3.089   1.640   0.405
  542TIP3    H1 1590   3.012   1.671   0.357
  542TIP3    H2 1591   3.053   1.607   0.488
  543TIP3   OH2 1592   3.619   2.517   1.046
  543TIP3    H1 1593   3.566   2.460   0.991
  543TIP3    H2 1594   3.709   2.501   1.018
  544TIP3   OH2 1595   4.996   5.563   5.799
  544TIP3    H1 1596   4.945   5.622   5.743
  544TIP3    H2 1597   5.048   5.511   5.739
  545TIP3   OH2 1598   1.002   4.096   4.351
  545TIP3    H1 1599   0.989   4.160   4.282
  545TIP3    H2 1600   0.925   4.104   4.407
  546TIP3   OH2 1601   6.476   5.038   5.300
  546TIP3    H1 1602   6.418   5.025   5.225
  546TIP3    H2 1603   6.564   5.038   5.261
  547TIP3   OH2 1604   5.791   0.618   1.630
  547TIP3    H1 1605   5.866   0.577   1.674
  547TIP3    H2 1606   5.780   0.702   1.674
  548TIP3   OH2 1607   6.069   4.740   0.464
  548TIP3    H1 1608   6.039   4.827   0.437
  548TIP3    H2 1609   6.149   4.726   0.413
  549TIP3   OH2 1610   5.864   2.263   0.778
  549TIP3    H1 1611   5.958   2.267   0.759
  549TIP3    H2 1612   5.859   2.247   0.872
  550TIP3   OH2 1613   4.202   5.384   4.057
  550TIP3    H1 1614   4.176   5.310   4.001
  550TIP3    H2 1615   4.148   5.457   4.027
  551TIP3   OH2 1616   5.635   3.075   1.446
  551TIP3    H1 1617   5.678   3.025   1.514
  551TIP3    H2 1618   5.541   3.065   1.464
  552TIP3   OH2 1619   0.965   4.180   3.551
  552TIP3    H1 1620   0.872   4.201   3.548
  552TIP3    H2 1621   0.993   4.206   3.639
  553TIP3   OH2 1622   0.555   2.934   3.339
  553TIP3    H1 1623   0.628   2.958   3.396
  553TIP3    H2 1624   0.480   2.928   3.399
  554TIP3   OH2 1625   0.071   4.013   5.139
  554TIP3    H1 1626  -0.007   3.978   5.097
  554TIP3    H2 1627   0.129   4.036   5.066
  555TIP3   OH2 1628   6.524   5.844   5.787
  555TIP3    H1 1629   6.469   5.918   5.761
  555TIP3    H2 1630   6.513   5.838   5.881
  556TIP3   OH2 1631   5.167   2.237   1.358
  556TIP3    H1 1632   5.128   2.151   1.340
  556TIP3    H2 1633   5.237   2.219   1.420
  557TIP3   OH2 1634   3.947   1.022   2.778
  557TIP3    H1 1635   3.965   1.114   2.798
  557TIP3    H2 1636   4.024   0.975   2.809
  558TIP3   OH2 1637   6.594   0.666   5.460
  558TIP3    H1 1638   6.664   0.732   5.454
  558TIP3    H2 1639   6.613   0.618   5.540
  559TIP3   OH2 1640   3.794   1.360   4.831
  559TIP3    H1 1641   3.861   1.340   4.766
  559TIP3    H2 1642   3.796   1.285   4.891
  560TIP3   OH2 1643   5.680   5.483   4.322
  560TIP3    H1 1644   5.596   5.529   4.330
  560TIP3    H2 1645   5.662   5.395   4.356
  561TIP3   OH2 1646   6.694   3.699   1.767
  561TIP3    H1 1647   6.718   3.746   1.847
  561TIP3    H2 1648   6.636   3.628   1.797
  562TIP3   OH2 1649   0.979   5.219   1.018
  562TIP3    H1 1650   0.924   5.285   1.062
  562TIP3    H2 1651   1.060   5.266   0.997
  563TIP3   OH2 1652   2.119   3.497   1.463
  563TIP3    H1 1653   2.089   3.415   1.425
  563TIP3    H2 1654   2.179   3.472   1.533
  564TIP3   OH2 1655   0.174   2.612   4.173
  564TIP3    H1 1656   0.192   2.562   4.253
  564TIP3    H2 1657   0.256   2.607   4.123
  565TIP3   OH2 1658   0.441   2.684   0.495
  565TIP3    H1 1659   0.473   2.714   0.410
  565TIP3    H2 1660   0.348   2.667   0.482
  566TIP3   OH2 1661   0.357   1.105   4.411
  566TIP3    H1 1662   0.361   1.017   4.376
  566TIP3    H2 1663   0.264   1.123   4.423
  567TIP3   OH2 1664   5.198   2.156   5.310
  567TIP3    H1 1665   5.160   2.243   5.294
  567TIP3    H2 1666   5.162   2.129   5.394
  568TIP3   OH2 1667   2.312   4.177   4.891
  568TIP3    H1 1668   2.379   4.164   4.825
  568TIP3    H2 1669   2.303   4.091   4.934
  569TIP3   OH2 1670   0.442   1.639   0.884
  569TIP3    H1 1671   0.505   1.620   0.814
  569TIP3    H2 1672   0.495   1.644   0.964
  570TIP3   OH2 1673   3.965   5.959   1.459
  570TIP3    H1 1674   4.052   6.000   1.453
  570TIP3    H2 1675   3.974   5.878   1.410
  571TIP3   OH2 1676   1.962   2.433   2.681
  571TIP3    H1 1677   2.024   2.441   2.754
  571TIP3    H2 1678   1.908   2.512   2.687
  572TIP3   OH2 1679   6.680   6.341   1.659
  572TIP3    H1 1680   6.634   6.308   1.582
  572TIP3    H2 1681   6.624   6.411   1.693
  573TIP3   OH2 1682   4.552   4.315   3.109
  573TIP3    H1 1683   4.499   4.276   3.178
  573TIP3    H2 1684   4.642   4.308   3.140
  574TIP3   OH2 1685   2.119   3.280   1.923
  574TIP3    H1 1686   2.211   3.256   1.912
  574TIP3    H2 1687   2.102   3.269   2.017
  575TIP3   OH2 1688   2.189   1.014   3.810
  575TIP3    H1 1689   2.106   0.990   3.767
  575TIP3    H2 1690   2.244   1.046   3.739
  576TIP3   OH2 1691   4.036   5.938   1.733
  576TIP3    H1 1692   3.957   5.962   1.781
  576TIP3    H2 1693   4.016   5.962   1.642
  577TIP3   OH2 1694   1.657   2.647   4.270
  577TIP3    H1 1695   1.699   2.563   4.253
  577TIP3    H2 1696   1.576   2.624   4.317
  578TIP3   OH2 1697   3.225   1.716   2.516
  578TIP3    H1 1698   3.196   1.765   2.594
  578TIP3    H2 1699   3.149   1.664   2.491
  579TIP3   OH2 1700   5.198   6.080   4.955
  579TIP3    H1 1701   5.145   6.033   4.891
  579TIP3    H2 1702   5.199   6.171   4.924
  580TIP3   OH2 1703   3.222   2.847   4.800
  580TIP3    H1 1704   3.155   2.782   4.775
  580TIP3    H2 1705   3.184   2.931   4.774
  581TIP3   OH2 1706   6.535   6.119   2.297
  581TIP3    H1 1707   6.487   6.121   2.214
  581TIP3    H2 1708   6.567   6.209   2.307
  582TIP3   OH2 1709   3.787   3.655   3.463
  582TIP3    H1 1710   3.801   3.607   3.545
  582TIP3    H2 1711   3.755   3.741   3.492
  583TIP3   OH2 1712   1.099   4.994   2.542
  583TIP3    H1 1713   1.089   5.009   2.636
  583TIP3    H2 1714   1.192   4.972   2.531
  584TIP3   OH2 1715   1.882   5.559   0.035
  584TIP3    H1 1716   1.797   5.539  -0.005
  584TIP3    H2 1717   1.901   5.483   0.090
  585TIP3   OH2 1718   4.358   6.498   2.178
  585TIP3    H1 1719   4.403   6.486   2.095
  585TIP3    H2 1720   4.343   6.592   2.185
  586TIP3   OH2 1721   1.596   1.213   0.062
  586TIP3    H1 1722   1.511   1.177   0.036
  586TIP3    H2 1723   1.590   1.306   0.040
  587TIP3   OH2 1724   5.014   0.678   2.858
  587TIP3    H1 1725   4.940   0.626   2.890
  587TIP3    H2 1726   5.020   0.751   2.918
  588TIP3   OH2 1727   0.387   3.146   1.363
  588TIP3    H1 1728   0.467   3.138   1.415
  588TIP3    H2 1729   0.317   3.147   1.428
  589TIP3   OH2 1730   1.575   2.367   3.986
  589TIP3    H1 1731   1.626   2.305   4.038
  589TIP3    H2 1732   1.490   2.325   3.974
  590TIP3   OH2 1733   0.353   0.830   4.023
  590TIP3    H1 1734   0.344   0.734   4.021
  590TIP3    H2 1735   0.432   0.847   3.973
  591TIP3   OH2 1736   6.836   1.700   2.539
  591TIP3    H1 1737   6.838   1.675   2.446
  591TIP3    H2 1738   6.824   1.618   2.586
  592TIP3   OH2 1739   3.234   6.247   4.076
  592TIP3    H1 1740   3.144   6.229   4.103
  592TIP3    H2 1741   3.241   6.214   3.987
  593TIP3   OH2 1742   5.236   1.488   2.657
  593TIP3    H1 1743   5.271   1.573   2.683
  593TIP3    H2 1744   5.142   1.495   2.672
  594TIP3   OH2 1745   0.991   4.959   5.209
  594TIP3    H1 1746   0.943   4.930   5.286
  594TIP3    H2 1747   0.990   4.884   5.150
  595TIP3   OH2 1748   4.075   0.685   4.533
  595TIP3    H1 1749   4.113   0.736   4.462
  595TIP3    H2 1750   4.150   0.661   4.588
  596TIP3   OH2 1751   6.913   4.655   4.374
  596TIP3    H1 1752   6.974   4.680   4.305
  596TIP3    H2 1753   6.942   4.705   4.451
  597TIP3   OH2 1754   0.669   6.710   2.063
  597TIP3    H1 1755   0.746   6.667   2.101
  597TIP3    H2 1756   0.680   6.802   2.086
  598TIP3   OH2 1757   1.124   1.907   2.807
  598TIP3    H1 1758   1.140   1.999   2.828
  598TIP3    H2 1759   1.096   1.908   2.716
  599TIP3   OH2 1760   1.212   1.323   0.207
  599TIP3    H1 1761   1.157   1.336   0.130
  599TIP3    H2 1762   1.154   1.343   0.281
  600TIP3   OH2 1763   3.545   3.227   2.137
  600TIP3    H1 1764   3.590   3.155   2.094
  600TIP3    H2 1765   3.556   3.301   2.077
  601TIP3   OH2 1766   2.120   0.433   1.197
  601TIP3    H1 1767   2.185   0.396   1.257
  601TIP3    H2 1768   2.164   0.508   1.157
  602TIP3   OH2 1769   3.841   6.721   1.782
  602TIP3    H1 1770   3.759   6.701   1.736
  602TIP3    H2 1771   3.904   6.735   1.712
  603TIP3   OH2 1772   3.353   1.216   2.539
  603TIP3    H1 1773   3.314   1.300   2.564
  603TIP3    H2 1774   3.314   1.195   2.454
  604TIP3   OH2 1775   5.809   3.388   1.514
  604TIP3    H1 1776   5.827   3.339   1.434
  604TIP3    H2 1777   5.808   3.321   1.583
  605TIP3   OH2 1778   6.450   4.433   4.417
  605TIP3    H1 1779   6.465   4.504   4.480
  605TIP3    H2 1780   6.512   4.365   4.442
  606TIP3   OH2 1781   4.113   2.036   1.950
  606TIP3    H1 1782   4.031   2.055   1.904
  606TIP3    H2 1783   4.089   1.971   2.015
  607TIP3   OH2 1784   2.859   1.402   0.328
  607TIP3    H1 1785   2.766   1.397   0.306
  607TIP3    H2 1786   2.897   1.456   0.260
  608TIP3   OH2 1787   0.636   1.531   0.701
  608TIP3    H1 1788   0.647   1.590   0.626
  608TIP3    H2 1789   0.570   1.468   0.674
  609TIP3   OH2 1790   0.502   3.717   1.785
  609TIP3    H1 1791   0.520   3.642   1.728
  609TIP3    H2 1792   0.547   3.791   1.743
  610TIP3   OH2 1793   1.711   1.361   3.083
  610TIP3    H1 1794   1.784   1.400   3.034
  610TIP3    H2 1795   1.707   1.412   3.164
  611TIP3   OH2 1796   5.952   3.149   5.620
  611TIP3    H1 1797   5.958   3.082   5.688
  611TIP3    H2 1798   5.861   3.147   5.592
  612TIP3   OH2 1799   2.574   3.793   0.349
  612TIP3    H1 1800   2.563   3.860   0.416
  612TIP3    H2 1801   2.594   3.842   0.269
  613TIP3   OH2 1802   0.940   6.148   0.613
  613TIP3    H1 1803   0.950   6.110   0.700
  613TIP3    H2 1804   0.962   6.077   0.553
  614TIP3   OH2 1805   3.641   5.302   0.024
  614TIP3    H1 1806   3.579   5.268  -0.041
  614TIP3    H2 1807   3.643   5.234   0.092
  615TIP3   OH2 1808   2.258   2.313   4.520
  615TIP3    H1 1809   2.258   2.344   4.429
  615TIP3    H2 1810   2.347   2.328   4.550
  616TIP3   OH2 1811   1.223   1.036   5.738
  616TIP3    H1 1812   1.150   1.069   5.791
  616TIP3    H2 1813   1.269   0.975   5.796
  617TIP3   OH2 1814   4.891   1.176   2.347
  617TIP3    H1 1815   4.904   1.167   2.441
  617TIP3    H2 1816   4.974   1.213   2.315
  618TIP3   OH2 1817   2.468   4.128   1.598
  618TIP3    H1 1818   2.544   4.179   1.571
  618TIP3    H2 1819   2.499   4.075   1.672
  619TIP3   OH2 1820   4.379   2.463   2.242
  619TIP3    H1 1821   4.333   2.383   2.217
  619TIP3    H2 1822   4.471   2.437   2.250
  620TIP3   OH2 1823   1.280   5.970   0.463
  620TIP3    H1 1824   1.186   5.955   0.455
  620TIP3    H2 1825   1.321   5.895   0.421
  621TIP3   OH2 1826   5.478   1.401   2.497
  621TIP3    H1 1827   5.518   1.422   2.412
  621TIP3    H2 1828   5.436   1.483   2.524
  622TIP3   OH2 1829   3.728   2.237   4.823
  622TIP3    H1 1830   3.801   2.190   4.862
  622TIP3    H2 1831   3.651   2.183   4.842
  623TIP3   OH2 1832   3.404   4.938   2.403
  623TIP3    H1 1833   3.500   4.929   2.403
  623TIP3    H2 1834   3.389   5.031   2.385
  624TIP3   OH2 1835   1.068   2.635   1.274
  624TIP3    H1 1836   1.044   2.638   1.182
  624TIP3    H2 1837   0.986   2.654   1.321
  625TIP3   OH2 1838   0.550   3.079   4.385
  625TIP3    H1 1839   0.489   3.078   4.311
  625TIP3    H2 1840   0.631   3.116   4.349
  626TIP3   OH2 1841   6.911   1.064   3.192
  626TIP3    H1 1842   6.979   1.049   3.127
  626TIP3    H2 1843   6.950   1.125   3.254
  627TIP3   OH2 1844   0.077   2.547   0.743
  627TIP3    H1 1845   0.003   2.536   0.683
  627TIP3    H2 1846   0.123   2.624   0.711
  628TIP3   OH2 1847   4.098   5.610   2.038
  628TIP3    H1 1848   4.147   5.548   1.984
  628TIP3    H2 1849   4.144   5.694   2.025
  629TIP3   OH2 1850   3.656   6.117   2.636
  629TIP3    H1 1851   3.700   6.066   2.568
  629TIP3    H2 1852   3.699   6.202   2.635
  630TIP3   OH2 1853   4.284   4.889   0.086
  630TIP3    H1 1854   4.348   4.949   0.046
  630TIP3    H2 1855   4.277   4.817   0.023
  631TIP3   OH2 1856   1.858   2.464   4.188
  631TIP3    H1 1857   1.898   2.534   4.136
  631TIP3    H2 1858   1.932   2.421   4.231
  632TIP3   OH2 1859   3.240   3.272   0.558
  632TIP3    H1 1860   3.314   3.255   0.500
  632TIP3    H2 1861   3.181   3.327   0.507
  633TIP3   OH2 1862   4.359   4.416   3.572
  633TIP3    H1 1863   4.388   4.480   3.507
  633TIP3    H2 1864   4.315   4.467   3.640
  634TIP3   OH2 1865   0.529   4.425   2.350
  634TIP3    H1 1866   0.462   4.426   2.281
  634TIP3    H2 1867   0.612   4.440   2.303
  635TIP3   OH2 1868   6.416   1.102   0.116
  635TIP3    H1 1869   6.437   1.182   0.164
  635TIP3    H2 1870   6.406   1.035   0.184
  636TIP3   OH2 1871   5.195   3.023   4.956
  636TIP3    H1 1872   5.226   3.108   4.922
  636TIP3    H2 1873   5.229   2.959   4.893
  637TIP3   OH2 1874   6.331   4.833   0.911
  637TIP3    H1 1875   6.342   4.740   0.892
  637TIP3    H2 1876   6.313   4.873   0.825
  638TIP3   OH2 1877   1.930   4.473   4.773
  638TIP3    H1 1878   2.020   4.461   4.744
  638TIP3    H2 1879   1.880   4.405   4.727
  639TIP3   OH2 1880   5.845   0.113   2.007
  639TIP3    H1 1881   5.778   0.134   2.072
  639TIP3    H2 1882   5.898   0.045   2.048
  640TIP3   OH2 1883   3.813   6.655   5.758
  640TIP3    H1 1884   3.885   6.709   5.790
  640TIP3    H2 1885   3.797   6.592   5.828
  641TIP3   OH2 1886   0.363   2.797   2.767
  641TIP3    H1 1887   0.369   2.879   2.817
  641TIP3    H2 1888   0.346   2.825   2.678
  642TIP3   OH2 1889   1.788   5.441   2.698
  642TIP3    H1 1890   1.717   5.429   2.761
  642TIP3    H2 1891   1.743   5.451   2.614
  643TIP3   OH2 1892   2.996   2.883   4.529
  643TIP3    H1 1893   3.017   2.968   4.490
  643TIP3    H2 1894   3.040   2.820   4.472
  644TIP3   OH2 1895   6.542   1.799   1.199
  644TIP3    H1 1896   6.558   1.893   1.200
  644TIP3    H2 1897   6.503   1.780   1.284
  645TIP3   OH2 1898   0.677   1.718   3.459
  645TIP3    H1 1899   0.656   1.657   3.388
  645TIP3    H2 1900   0.729   1.786   3.416
  646TIP3   OH2 1901   5.288   5.609   5.594
  646TIP3    H1 1902   5.193   5.615   5.582
  646TIP3    H2 1903   5.325   5.626   5.507
  647TIP3   OH2 1904   1.015   5.323   0.244
  647TIP3    H1 1905   0.941   5.316   0.305
  647TIP3    H2 1906   0.982   5.379   0.173
  648TIP3   OH2 1907   6.651   4.791   1.892
  648TIP3    H1 1908   6.742   4.762   1.902
  648TIP3    H2 1909   6.657   4.880   1.859
  649TIP3   OH2 1910   0.587   6.458   0.531
  649TIP3    H1 1911   0.594   6.362   0.538
  649TIP3    H2 1912   0.672   6.490   0.560
  650TIP3   OH2 1913   1.107   4.267   1.036
  650TIP3    H1 1914   1.198   4.287   1.059
  650TIP3    H2 1915   1.056   4.333   1.084
  651TIP3   OH2 1916   1.184   0.309   2.324
  651TIP3    H1 1917   1.188   0.241   2.391
  651TIP3    H2 1918   1.166   0.390   2.372
  652TIP3   OH2 1919   3.601   2.789   4.370
  652TIP3    H1 1920   3.683   2.748   4.397
  652TIP3    H2 1921   3.622   2.883   4.366
  653TIP3   OH2 1922   4.457   3.541   1.697
  653TIP3    H1 1923   4.536   3.540   1.751
  653TIP3    H2 1924   4.405   3.468   1.729
  654TIP3   OH2 1925   3.668   1.987   4.209
  654TIP3    H1 1926   3.712   2.041   4.144
  654TIP3    H2 1927   3.575   2.007   4.197
  655TIP3   OH2 1928   6.105   1.174   1.310
  655TIP3    H1 1929   6.146   1.255   1.337
  655TIP3    H2 1930   6.177   1.119   1.279
  656TIP3   OH2 1931   0.571   5.460   1.977
  656TIP3    H1 1932   0.628   5.452   1.900
  656TIP3    H2 1933   0.493   5.410   1.955
  657TIP3   OH2 1934   2.159   6.271   0.554
  657TIP3    H1 1935   2.162   6.177   0.538
  657TIP3    H2 1936   2.142   6.280   0.647
  658TIP3   OH2 1937   4.742   6.263   2.915
  658TIP3    H1 1938   4.684   6.187   2.918
  658TIP3    H2 1939   4.821   6.230   2.872
  659TIP3   OH2 1940   0.353   6.605   4.745
  659TIP3    H1 1941   0.296   6.676   4.717
  659TIP3    H2 1942   0.332   6.593   4.838
  660TIP3   OH2 1943   4.334   5.814   5.706
  660TIP3    H1 1944   4.404   5.862   5.660
  660TIP3    H2 1945   4.350   5.831   5.799
  661TIP3   OH2 1946   0.208   4.114   4.936
  661TIP3    H1 1947   0.154   4.186   4.904
  661TIP3    H2 1948   0.297   4.149   4.936
  662TIP3   OH2 1949   1.977   6.175   1.207
  662TIP3    H1 1950   2.041   6.196   1.275
  662TIP3    H2 1951   2.026   6.124   1.143
  663TIP3   OH2 1952   0.556   3.991   3.989
  663TIP3    H1 1953   0.474   4.036   3.972
  663TIP3    H2 1954   0.622   4.042   3.942
  664TIP3   OH2 1955   1.440   2.284   5.077
  664TIP3    H1 1956   1.397   2.349   5.021
  664TIP3    H2 1957   1.505   2.335   5.126
  665TIP3   OH2 1958   2.138   4.932   0.405
  665TIP3    H1 1959   2.162   4.981   0.326
  665TIP3    H2 1960   2.207   4.953   0.468
  666TIP3   OH2 1961   5.390   0.290   2.131
  666TIP3    H1 1962   5.388   0.198   2.104
  666TIP3    H2 1963   5.298   0.316   2.132
  667TIP3   OH2 1964   2.807   1.522   5.701
  667TIP3    H1 1965   2.888   1.481   5.733
  667TIP3    H2 1966   2.764   1.453   5.650
  668TIP3   OH2 1967   3.750   5.330   5.458
  668TIP3    H1 1968   3.831   5.355   5.414
  668TIP3    H2 1969   3.681   5.381   5.414
  669TIP3   OH2 1970   0.206   3.314   3.485
  669TIP3    H1 1971   0.117   3.343   3.502
  669TIP3    H2 1972   0.246   3.305   3.571
  670TIP3   OH2 1973   3.532   3.556   0.985
  670TIP3    H1 1974   3.585   3.626   1.023
  670TIP3    H2 1975   3.477   3.600   0.920
  671TIP3   OH2 1976   5.241   2.809   5.620
  671TIP3    H1 1977   5.229   2.894   5.579
  671TIP3    H2 1978   5.331   2.784   5.598
  672TIP3   OH2 1979   0.370   2.746   2.193
  672TIP3    H1 1980   0.329   2.832   2.199
  672TIP3    H2 1981   0.452   2.755   2.241
  673TIP3   OH2 1982   5.033   4.357   3.485
  673TIP3    H1 1983   4.985   4.431   3.449
  673TIP3    H2 1984   5.034   4.292   3.414
  674TIP3   OH2 1985   3.249   1.292   0.350
  674TIP3    H1 1986   3.195   1.295   0.429
  674TIP3    H2 1987   3.226   1.209   0.309
  675TIP3   OH2 1988   6.173   6.503   1.979
  675TIP3    H1 1989   6.140   6.430   2.031
  675TIP3    H2 1990   6.112   6.574   1.994
  676TIP3   OH2 1991   6.300   6.119   5.076
  676TIP3    H1 1992   6.378   6.066   5.060
  676TIP3    H2 1993   6.334   6.199   5.117
  677TIP3   OH2 1994   2.424   4.642   4.962
  677TIP3    H1 1995   2.392   4.720   5.008
  677TIP3    H2 1996   2.387   4.649   4.874
  678TIP3   OH2 1997   3.686   4.011   1.143
  678TIP3    H1 1998   3.616   4.049   1.090
  678TIP3    H2 1999   3.682   3.917   1.124
  679TIP3   OH2 2000   5.273   1.244   2.466
  679TIP3    H1 2001   5.348   1.282   2.511
  679TIP3    H2 2002   5.236   1.316   2.415
  680TIP3   OH2 2003   1.138   5.898   5.392
  680TIP3    H1 2004   1.137   5.828   5.457
  680TIP3    H2 2005   1.072   5.871   5.328
  681TIP3   OH2 2006   6.547   5.579   0.740
  681TIP3    H1 2007   6.558   5.630   0.820
  681TIP3    H2 2008   6.510   5.496   0.769
  682TIP3   OH2 2009   2.608   0.945   3.660
  682TIP3    H1 2010   2.617   0.930   3.566
  682TIP3    H2 2011   2.566   1.030   3.667
  683TIP3   OH2 2012   6.283   3.718   1.592
  683TIP3    H1 2013   6.211   3.690   1.536
  683TIP3    H2 2014   6.265   3.678   1.677
  684TIP3   OH2 2015   4.715   2.242   5.535
  684TIP3    H1 2016   4.756   2.260   5.620
  684TIP3    H2 2017   4.647   2.309   5.526
  685TIP3   OH2 2018   3.508   6.464   2.247
  685TIP3    H1 2019   3.578   6.413   2.286
  685TIP3    H2 2020   3.449   6.486   2.320
  686TIP3   OH2 2021   1.159   2.199   0.328
  686TIP3    H1 2022   1.109   2.274   0.360
  686TIP3    H2 2023   1.246   2.235   0.308
  687TIP3   OH2 2024   2.422   0.615   3.419
  687TIP3    H1 2025   2.379   0.685   3.371
  687TIP3    H2 2026   2.482   0.576   3.356
  688TIP3   OH2 2027   5.525   6.028   1.740
  688TIP3    H1 2028   5.614   6.059   1.755
  688TIP3    H2 2029   5.486   6.022   1.827
  689TIP3   OH2 2030   6.327   6.751   3.782
  689TIP3    H1 2031   6.271   6.686   3.739
  689TIP3    H2 2032   6.400   6.762   3.721
  690TIP3   OH2 2033   2.726   3.818   5.502
  690TIP3    H1 2034   2.693   3.869   5.576
  690TIP3    H2 2035   2.677   3.851   5.426
  691TIP3   OH2 2036   3.035   0.542   2.318
  691TIP3    H1 2037   2.948   0.561   2.283
  691TIP3    H2 2038   3.033   0.449   2.339
  692TIP3   OH2 2039   3.385   2.754   2.912
  692TIP3    H1 2040   3.440   2.728   2.837
  692TIP3    H2 2041   3.325   2.819   2.877
  693TIP3   OH2 2042   0.833   5.051   0.878
  693TIP3    H1 2043   0.851   4.962   0.907
  693TIP3    H2 2044   0.873   5.107   0.944
  694TIP3   OH2 2045   3.679   4.114   4.278
  694TIP3    H1 2046   3.729   4.034   4.261
  694TIP3    H2 2047   3.745   4.183   4.284
  695TIP3   OH2 2048   4.602   2.789   0.905
  695TIP3    H1 2049   4.522   2.827   0.870
  695TIP3    H2 2050   4.668   2.806   0.838
  696TIP3   OH2 2051   0.127   1.000   0.540
  696TIP3    H1 2052   0.107   1.084   0.581
  696TIP3    H2 2053   0.064   0.938   0.578
  697TIP3   OH2 2054   2.980   0.562   5.255
  697TIP3    H1 2055   2.939   0.486   5.296
  697TIP3    H2 2056   2.907   0.620   5.233
  698TIP3   OH2 2057   3.174   1.798   5.364
  698TIP3    H1 2058   3.248   1.847   5.329
  698TIP3    H2 2059   3.213   1.726   5.413
  699TIP3   OH2 2060   4.399   2.831   0.722
  699TIP3    H1 2061   4.463   2.791   0.663
  699TIP3    H2 2062   4.343   2.759   0.748
  700TIP3   OH2 2063   4.977   5.444   2.191
  700TIP3    H1 2064   4.884   5.420   2.191
  700TIP3    H2 2065   5.013   5.401   2.113
  701TIP3   OH2 2066   5.367   0.685   3.770
  701TIP3    H1 2067   5.367   0.703   3.863
  701TIP3    H2 2068   5.429   0.612   3.759
  702TIP3   OH2 2069   3.567   3.599   3.260
  702TIP3    H1 2070   3.496   3.622   3.320
  702TIP3    H2 2071   3.643   3.647   3.292
  703TIP3   OH2 2072   2.692   5.294   4.594
  703TIP3    H1 2073   2.640   5.362   4.638
  703TIP3    H2 2074   2.635   5.217   4.594
  704TIP3   OH2 2075   6.056   3.181   0.572
  704TIP3    H1 2076   6.084   3.207   0.485
  704TIP3    H2 2077   5.980   3.125   0.557
  705TIP3   OH2 2078   6.551   6.373   4.878
  705TIP3    H1 2079   6.538   6.431   4.802
  705TIP3    H2 2080   6.641   6.342   4.869
  706TIP3   OH2 2081   4.588   3.036   5.680
  706TIP3    H1 2082   4.682   3.023   5.671
  706TIP3    H2 2083   4.550   2.955   5.647
  707TIP3   OH2 2084   4.141   5.695   1.646
  707TIP3    H1 2085   4.074   5.649   1.595
  707TIP3    H2 2086   4.096   5.773   1.680
  708TIP3   OH2 2087   0.136   0.584   3.658
  708TIP3    H1 2088   0.095   0.670   3.653
  708TIP3    H2 2089   0.130   0.549   3.569
  709TIP3   OH2 2090   7.100   6.125   5.534
  709TIP3    H1 2091   7.169   6.066   5.504
  709TIP3    H2 2092   7.020   6.074   5.527
  710TIP3   OH2 2093   6.487   4.474   3.428
  710TIP3    H1 2094   6.473   4.524   3.508
  710TIP3    H2 2095   6.424   4.403   3.432
  711TIP3   OH2 2096   6.333   3.287   0.539
  711TIP3    H1 2097   6.276   3.266   0.612
  711TIP3    H2 2098   6.276   3.288   0.462
  712TIP3   OH2 2099   2.780   3.839   2.328
  712TIP3    H1 2100   2.812   3.757   2.367
  712TIP3    H2 2101   2.694   3.816   2.293
  713TIP3   OH2 2102   1.677   4.131   4.437
  713TIP3    H1 2103   1.752   4.184   4.411
  713TIP3    H2 2104   1.635   4.182   4.506
  714TIP3   OH2 2105   2.848   3.247   4.824
  714TIP3    H1 2106   2.907   3.173   4.841
  714TIP3    H2 2107   2.760   3.211   4.837
  715TIP3   OH2 2108   6.052   4.024   4.383
  715TIP3    H1 2109   6.004   4.030   4.300
  715TIP3    H2 2110   5.986   4.042   4.450
  716TIP3   OH2 2111   6.661   4.310   3.661
  716TIP3    H1 2112   6.695   4.220   3.656
  716TIP3    H2 2113   6.567   4.300   3.649
  717TIP3   OH2 2114   1.797   5.968   4.840
  717TIP3    H1 2115   1.787   5.876   4.865
  717TIP3    H2 2116   1.820   6.013   4.921
  718TIP3   OH2 2117   7.151   5.918   4.833
  718TIP3    H1 2118   7.155   6.013   4.820
  718TIP3    H2 2119   7.194   5.881   4.757
  719TIP3   OH2 2120   0.419   1.913   3.142
  719TIP3    H1 2121   0.379   1.922   3.228
  719TIP3    H2 2122   0.418   1.819   3.124
  720TIP3   OH2 2123   3.733   3.291   1.323
  720TIP3    H1 2124   3.822   3.320   1.301
  720TIP3    H2 2125   3.743   3.243   1.405
  721TIP3   OH2 2126   3.840   0.637   0.113
  721TIP3    H1 2127   3.882   0.665   0.032
  721TIP3    H2 2128   3.750   0.667   0.105
  722TIP3   OH2 2129   6.766   2.876   1.322
  722TIP3    H1 2130   6.772   2.917   1.236
  722TIP3    H2 2131   6.674   2.850   1.329
  723TIP3   OH2 2132   3.057   3.442   0.465
  723TIP3    H1 2133   3.101   3.516   0.424
  723TIP3    H2 2134   2.971   3.477   0.490
  724TIP3   OH2 2135   3.521   2.540   2.653
  724TIP3    H1 2136   3.603   2.496   2.675
  724TIP3    H2 2137   3.547   2.630   2.631
  725TIP3   OH2 2138   0.287   4.150   4.533
  725TIP3    H1 2139   0.203   4.153   4.488
  725TIP3    H2 2140   0.295   4.235   4.576
  726TIP3   OH2 2141   4.862   6.097   1.456
  726TIP3    H1 2142   4.804   6.147   1.398
  726TIP3    H2 2143   4.941   6.082   1.404
  727TIP3   OH2 2144   1.414   1.929   5.290
  727TIP3    H1 2145   1.459   1.962   5.211
  727TIP3    H2 2146   1.328   1.901   5.258
  728TIP3   OH2 2147   6.189   6.776   3.214
  728TIP3    H1 2148   6.272   6.800   3.173
  728TIP3    H2 2149   6.135   6.746   3.141
  729TIP3   OH2 2150   2.672   3.266   2.470
  729TIP3    H1 2151   2.577   3.260   2.481
  729TIP3    H2 2152   2.691   3.359   2.485
  730TIP3   OH2 2153   6.094   4.955   5.419
  730TIP3    H1 2154   6.007   4.922   5.444
  730TIP3    H2 2155   6.118   5.015   5.490
  731TIP3   OH2 2156   5.280   3.652   5.061
  731TIP3    H1 2157   5.371   3.678   5.074
  731TIP3    H2 2158   5.283   3.588   4.991
  732TIP3   OH2 2159   1.832   4.915   0.508
  732TIP3    H1 2160   1.832   4.826   0.543
  732TIP3    H2 2161   1.921   4.927   0.475
  733TIP3   OH2 2162   2.517   3.957   1.793
  733TIP3    H1 2163   2.512   3.862   1.792
  733TIP3    H2 2164   2.572   3.978   1.869
  734TIP3   OH2 2165   4.078   6.710   5.810
  734TIP3    H1 2166   4.104   6.732   5.721
  734TIP3    H2 2167   4.117   6.778   5.865
  735TIP3   OH2 2168   5.781   5.541   5.079
  735TIP3    H1 2169   5.807   5.462   5.126
  735TIP3    H2 2170   5.849   5.553   5.013
  736TIP3   OH2 2171   1.219   6.482   0.697
  736TIP3    H1 2172   1.153   6.552   0.702
  736TIP3    H2 2173   1.172   6.404   0.727
  737TIP3   OH2 2174   2.745   6.056   3.844
  737TIP3    H1 2175   2.822   6.023   3.891
  737TIP3    H2 2176   2.749   6.151   3.856
  738TIP3   OH2 2177   0.825   6.723   2.470
  738TIP3    H1 2178   0.830   6.643   2.522
  738TIP3    H2 2179   0.732   6.733   2.449
  739TIP3   OH2 2180   2.605   5.315   3.394
  739TIP3    H1 2181   2.512   5.329   3.376
  739TIP3    H2 2182   2.629   5.243   3.336
  740TIP3   OH2 2183   3.960   3.329   2.757
  740TIP3    H1 2184   3.964   3.263   2.687
  740TIP3    H2 2185   3.986   3.410   2.714
  741TIP3   OH2 2186   1.501   6.420   4.589
  741TIP3    H1 2187   1.410   6.395   4.574
  741TIP3    H2 2188   1.549   6.337   4.591
  742TIP3   OH2 2189   6.472   5.754   2.140
  742TIP3    H1 2190   6.490   5.797   2.056
  742TIP3    H2 2191   6.544   5.691   2.151
  743TIP3   OH2 2192   4.900   3.525   2.745
  743TIP3    H1 2193   4.988   3.535   2.781
  743TIP3    H2 2194   4.883   3.608   2.700
  744TIP3   OH2 2195   6.871   0.275   1.898
  744TIP3    H1 2196   6.930   0.206   1.926
  744TIP3    H2 2197   6.806   0.230   1.843
  745TIP3   OH2 2198   0.748   5.774   3.136
  745TIP3    H1 2199   0.807   5.849   3.148
  745TIP3    H2 2200   0.755   5.752   3.043
  746TIP3   OH2 2201   1.251   1.714   3.167
  746TIP3    H1 2202   1.294   1.787   3.211
  746TIP3    H2 2203   1.277   1.722   3.075
  747TIP3   OH2 2204   2.865   5.673   2.182
  747TIP3    H1 2205   2.903   5.758   2.162
  747TIP3    H2 2206   2.806   5.655   2.109
  748TIP3   OH2 2207   5.818   5.660   5.343
  748TIP3    H1 2208   5.799   5.657   5.249
  748TIP3    H2 2209   5.912   5.678   5.348
  749TIP3   OH2 2210   5.430   3.013   3.400
  749TIP3    H1 2211   5.495   2.993   3.333
  749TIP3    H2 2212   5.457   2.962   3.476
  750TIP3   OH2 2213   6.323   6.272   3.300
  750TIP3    H1 2214   6.307   6.364   3.281
  750TIP3    H2 2215   6.415   6.269   3.328
  751TIP3   OH2 2216   5.772   1.282   2.172
  751TIP3    H1 2217   5.809   1.273   2.084
  751TIP3    H2 2218   5.846   1.305   2.227
  752TIP3   OH2 2219   1.721   2.566   3.507
  752TIP3    H1 2220   1.682   2.641   3.463
  752TIP3    H2 2221   1.727   2.592   3.599
  753TIP3   OH2 2222   1.827   5.096   5.112
  753TIP3    H1 2223   1.899   5.125   5.055
  753TIP3    H2 2224   1.748   5.124   5.065
  754TIP3   OH2 2225   2.218   2.083   5.145
  754TIP3    H1 2226   2.221   2.172   5.179
  754TIP3    H2 2227   2.310   2.060   5.131
  755TIP3   OH2 2228   1.777   1.319   2.505
  755TIP3    H1 2229   1.701   1.313   2.563
  755TIP3    H2 2230   1.846   1.271   2.551
  756TIP3   OH2 2231   6.229   0.236   5.085
  756TIP3    H1 2232   6.184   0.305   5.134
  756TIP3    H2 2233   6.162   0.168   5.072
  757TIP3   OH2 2234   5.093   3.807   1.998
  757TIP3    H1 2235   5.144   3.775   1.924
  757TIP3    H2 2236   5.158   3.823   2.066
  758TIP3   OH2 2237   1.511   1.872   5.902
  758TIP3    H1 2238   1.417   1.892   5.901
  758TIP3    H2 2239   1.517   1.783   5.868
  759TIP3   OH2 2240   6.622   1.507   3.841
  759TIP3    H1 2241   6.640   1.418   3.810
  759TIP3    H2 2242   6.549   1.497   3.902
  760TIP3   OH2 2243   5.954   6.475   4.188
  760TIP3    H1 2244   5.884   6.412   4.172
  760TIP3    H2 2245   5.990   6.450   4.273
  761TIP3   OH2 2246   3.065   0.274   4.492
  761TIP3    H1 2247   3.045   0.351   4.439
  761TIP3    H2 2248   3.041   0.299   4.581
  762TIP3   OH2 2249   4.360   3.452   1.056
  762TIP3    H1 2250   4.389   3.539   1.028
  762TIP3    H2 2251   4.394   3.393   0.989
  763TIP3   OH2 2252   2.529   2.406   5.103
  763TIP3    H1 2253   2.523   2.334   5.041
  763TIP3    H2 2254   2.445   2.406   5.149
  764TIP3   OH2 2255   4.576   1.850   1.043
  764TIP3    H1 2256   4.615   1.931   1.076
  764TIP3    H2 2257   4.500   1.835   1.099
  765TIP3   OH2 2258   3.580   6.109   3.515
  765TIP3    H1 2259   3.671   6.137   3.517
  765TIP3    H2 2260   3.568   6.073   3.427
  766TIP3   OH2 2261   3.662   3.779   5.014
  766TIP3    H1 2262   3.701   3.775   5.102
  766TIP3    H2 2263   3.659   3.873   4.994
  767TIP3   OH2 2264   0.133   5.488   4.955
  767TIP3    H1 2265   0.146   5.484   4.861
  767TIP3    H2 2266   0.086   5.408   4.977
  768TIP3   OH2 2267   5.622   5.233   5.686
  768TIP3    H1 2268   5.691   5.291   5.716
  768TIP3    H2 2269   5.656   5.194   5.605
  769TIP3   OH2 2270   0.320   4.170   0.668
  769TIP3    H1 2271   0.346   4.151   0.758
  769TIP3    H2 2272   0.228   4.196   0.674
  770TIP3   OH2 2273   2.616   5.002   5.342
  770TIP3    H1 2274   2.601   5.000   5.436
  770TIP3    H2 2275   2.656   4.917   5.322
  771TIP3   OH2 2276   1.371   0.604   4.287
  771TIP3    H1 2277   1.430   0.649   4.226
  771TIP3    H2 2278   1.319   0.675   4.325
  772TIP3   OH2 2279   1.058   3.004   2.107
  772TIP3    H1 2280   1.020   2.937   2.163
  772TIP3    H2 2281   1.019   3.086   2.139
  773TIP3   OH2 2282   6.431   5.141   3.539
  773TIP3    H1 2283   6.527   5.147   3.544
  773TIP3    H2 2284   6.404   5.123   3.629
  774TIP3   OH2 2285   5.415   4.368   1.329
  774TIP3    H1 2286   5.383   4.295   1.382
  774TIP3    H2 2287   5.366   4.444   1.361
  775TIP3   OH2 2288   6.060   4.595   4.949
  775TIP3    H1 2289   6.043   4.679   4.905
  775TIP3    H2 2290   6.081   4.620   5.040
  776TIP3   OH2 2291   2.683   1.346   1.490
  776TIP3    H1 2292   2.670   1.439   1.472
  776TIP3    H2 2293   2.667   1.303   1.406
  777TIP3   OH2 2294   3.085   3.985   3.133
  777TIP3    H1 2295   3.033   4.064   3.145
  777TIP3    H2 2296   3.064   3.955   3.044
  778TIP3   OH2 2297   2.598   2.851   2.376
  778TIP3    H1 2298   2.577   2.891   2.460
  778TIP3    H2 2299   2.651   2.775   2.398
  779TIP3   OH2 2300   2.484   1.015   4.438
  779TIP3    H1 2301   2.517   0.989   4.352
  779TIP3    H2 2302   2.562   1.020   4.494
  780TIP3   OH2 2303   2.968   1.815   3.729
  780TIP3    H1 2304   2.985   1.879   3.798
  780TIP3    H2 2305   2.959   1.868   3.649
  781TIP3   OH2 2306   1.413   2.979   2.823
  781TIP3    H1 2307   1.413   2.897   2.872
  781TIP3    H2 2308   1.493   3.024   2.850
  782TIP3   OH2 2309   4.179   4.216   3.637
  782TIP3    H1 2310   4.251   4.273   3.610
  782TIP3    H2 2311   4.210   4.127   3.620
  783TIP3   OH2 2312   3.097   1.141   0.791
  783TIP3    H1 2313   3.145   1.180   0.864
  783TIP3    H2 2314   3.012   1.118   0.828
  784TIP3   OH2 2315   5.780   6.558   1.308
  784TIP3    H1 2316   5.719   6.631   1.324
  784TIP3    H2 2317   5.861   6.585   1.351
  785TIP3   OH2 2318   3.956   0.744   5.204
  785TIP3    H1 2319   3.896   0.811   5.237
  785TIP3    H2 2320   3.926   0.663   5.246
  786TIP3   OH2 2321   2.962   5.534   3.746
  786TIP3    H1 2322   3.052   5.531   3.715
  786TIP3    H2 2323   2.909   5.521   3.667
  787TIP3   OH2 2324   0.835   3.816   4.022
  787TIP3    H1 2325   0.748   3.796   4.057
  787TIP3    H2 2326   0.828   3.906   3.992
  788TIP3   OH2 2327   0.626   4.985   0.131
  788TIP3    H1 2328   0.645   5.038   0.209
  788TIP3    H2 2329   0.696   4.920   0.128
  789TIP3   OH2 2330   5.336   3.057   4.557
  789TIP3    H1 2331   5.330   3.143   4.598
  789TIP3    H2 2332   5.330   2.995   4.630
  790TIP3   OH2 2333   3.047   0.199   3.869
  790TIP3    H1 2334   2.968   0.162   3.829
  790TIP3    H2 2335   3.027   0.201   3.962
  791TIP3   OH2 2336   0.381   1.490   5.813
  791TIP3    H1 2337   0.453   1.477   5.752
  791TIP3    H2 2338   0.419   1.474   5.900
  792TIP3   OH2 2339   5.002   3.703   0.217
  792TIP3    H1 2340   4.965   3.753   0.290
  792TIP3    H2 2341   4.958   3.618   0.221
  793TIP3   OH2 2342   1.836   1.889   5.887
  793TIP3    H1 2343   1.765   1.912   5.827
  793TIP3    H2 2344   1.846   1.966   5.943
  794TIP3   OH2 2345   6.866   4.092   5.192
  794TIP3    H1 2346   6.913   4.019   5.234
  794TIP3    H2 2347   6.878   4.165   5.253
  795TIP3   OH2 2348   6.444   5.793   5.145
  795TIP3    H1 2349   6.435   5.759   5.234
  795TIP3    H2 2350   6.537   5.816   5.137
  796TIP3   OH2 2351   0.862   0.417   4.597
  796TIP3    H1 2352   0.841   0.438   4.506
  796TIP3    H2 2353   0.948   0.375   4.593
  797TIP3   OH2 2354   1.391   5.190   3.805
  797TIP3    H1 2355   1.461   5.244   3.767
  797TIP3    H2 2356   1.426   5.100   3.802
  798TIP3   OH2 2357   0.447   4.474   0.983
  798TIP3    H1 2358   0.484   4.512   0.903
  798TIP3    H2 2359   0.522   4.436   1.029
  799TIP3   OH2 2360   6.159   6.675   5.103
  799TIP3    H1 2361   6.088   6.687   5.166
  799TIP3    H2 2362   6.225   6.739   5.129
  800TIP3   OH2 2363   4.647   6.045   1.873
  800TIP3    H1 2364   4.559   6.034   1.838
  800TIP3    H2 2365   4.652   6.138   1.897
  801TIP3   OH2 2366   5.386   4.808   5.675
  801TIP3    H1 2367   5.457   4.852   5.722
  801TIP3    H2 2368   5.411   4.715   5.677
  802TIP3   OH2 2369   3.063   1.536   0.809
  802TIP3    H1 2370   3.046   1.628   0.830
  802TIP3    H2 2371   3.015   1.521   0.727
  803TIP3   OH2 2372   2.731   4.996   4.407
  803TIP3    H1 2373   2.786   5.064   4.446
  803TIP3    H2 2374   2.667   5.044   4.355
  804TIP3   OH2 2375   6.651   5.263   3.072
  804TIP3    H1 2376   6.625   5.188   3.018
  804TIP3    H2 2377   6.574   5.320   3.074
  805TIP3   OH2 2378   5.977   5.307   1.811
  805TIP3    H1 2379   5.945   5.227   1.853
  805TIP3    H2 2380   6.049   5.278   1.755
  806TIP3   OH2 2381   2.146   3.787   3.568
  806TIP3    H1 2382   2.121   3.710   3.517
  806TIP3    H2 2383   2.238   3.770   3.591
  807TIP3   OH2 2384   2.550   0.039   1.091
  807TIP3    H1 2385   2.608   0.063   1.020
  807TIP3    H2 2386   2.520   0.122   1.127
  808TIP3   OH2 2387   6.081   5.453   2.042
  808TIP3    H1 2388   6.016   5.463   1.973
  808TIP3    H2 2389   6.074   5.361   2.069
  809TIP3   OH2 2390   3.874   4.336   4.371
  809TIP3    H1 2391   3.860   4.378   4.286
  809TIP3    H2 2392   3.958   4.370   4.402
  810TIP3   OH2 2393   5.873   4.947   2.828
  810TIP3    H1 2394   5.934   4.928   2.757
  810TIP3    H2 2395   5.838   5.033   2.808
  811TIP3   OH2 2396   4.475   0.807   0.131
  811TIP3    H1 2397   4.443   0.791   0.042
  811TIP3    H2 2398   4.480   0.720   0.170
  812TIP3   OH2 2399   1.369   2.355   1.039
  812TIP3    H1 2400   1.449   2.407   1.051
  812TIP3    H2 2401   1.393   2.289   0.974
  813TIP3   OH2 2402   5.465   5.091   0.337
  813TIP3    H1 2403   5.422   5.175   0.325
  813TIP3    H2 2404   5.439   5.039   0.261
  814TIP3   OH2 2405   3.057   5.916   2.683
  814TIP3    H1 2406   3.061   5.961   2.599
  814TIP3    H2 2407   2.964   5.893   2.693
  815TIP3   OH2 2408   1.140   1.884   5.639
  815TIP3    H1 2409   1.235   1.886   5.626
  815TIP3    H2 2410   1.122   1.797   5.674
  816TIP3   OH2 2411   6.401   1.252   5.258
  816TIP3    H1 2412   6.364   1.267   5.172
  816TIP3    H2 2413   6.390   1.158   5.273
  817TIP3   OH2 2414   3.846   3.720   1.809
  817TIP3    H1 2415   3.793   3.655   1.855
  817TIP3    H2 2416   3.811   3.804   1.838
  818TIP3   OH2 2417   5.879   3.074   3.918
  818TIP3    H1 2418   5.811   3.074   3.986
  818TIP3    H2 2419   5.961   3.063   3.966
  819TIP3   OH2 2420   6.601   0.062   4.738
  819TIP3    H1 2421   6.648   0.054   4.656
  819TIP3    H2 2422   6.634  -0.010   4.792
  820TIP3   OH2 2423   6.437   0.196   2.082
  820TIP3    H1 2424   6.512   0.216   2.138
  820TIP3    H2 2425   6.383   0.275   2.085
  821TIP3   OH2 2426   1.297   2.416   2.989
  821TIP3    H1 2427   1.386   2.416   2.955
  821TIP3    H2 2428   1.270   2.508   2.986
  822TIP3   OH2 2429   3.938   0.964   3.209
  822TIP3    H1 2430   3.847   0.947   3.234
  822TIP3    H2 2431   3.985   0.886   3.239
  823TIP3   OH2 2432   5.314   0.525   0.896
  823TIP3    H1 2433   5.341   0.461   0.830
  823TIP3    H2 2434   5.394   0.572   0.918
  824TIP3   OH2 2435   2.414   3.376   0.482
  824TIP3    H1 2436   2.332   3.332   0.465
  824TIP3    H2 2437   2.425   3.371   0.577
  825TIP3   OH2 2438   5.391   3.096   3.884
  825TIP3    H1 2439   5.295   3.090   3.879
  825TIP3    H2 2440   5.414   3.159   3.816
  826TIP3   OH2 2441   2.736   4.515   4.803
  826TIP3    H1 2442   2.819   4.470   4.821
  826TIP3    H2 2443   2.749   4.604   4.836
  827TIP3   OH2 2444   0.553   5.208   2.429
  827TIP3    H1 2445   0.502   5.208   2.347
  827TIP3    H2 2446   0.491   5.177   2.495
  828TIP3   OH2 2447   5.804   4.917   3.599
  828TIP3    H1 2448   5.818   5.001   3.642
  828TIP3    H2 2449   5.789   4.940   3.507
  829TIP3   OH2 2450   4.515   3.147   5.056
  829TIP3    H1 2451   4.443   3.204   5.083
  829TIP3    H2 2452   4.483   3.106   4.975
  830TIP3   OH2 2453   6.318   2.106   1.672
  830TIP3    H1 2454   6.311   2.012   1.652
  830TIP3    H2 2455   6.231   2.130   1.706
  831TIP3   OH2 2456   1.513   0.990   1.566
  831TIP3    H1 2457   1.466   0.973   1.484
  831TIP3    H2 2458   1.602   1.012   1.539
  832TIP3   OH2 2459   5.767   5.186   3.708
  832TIP3    H1 2460   5.777   5.205   3.615
  832TIP3    H2 2461   5.686   5.230   3.733
  833TIP3   OH2 2462   4.298   0.596   5.717
  833TIP3    H1 2463   4.225   0.634   5.668
  833TIP3    H2 2464   4.359   0.668   5.729
  834TIP3   OH2 2465   6.773   5.245   2.731
  834TIP3    H1 2466   6.756   5.268   2.639
  834TIP3    H2 2467   6.689   5.257   2.775
  835TIP3   OH2 2468   3.911   0.539   0.367
  835TIP3    H1 2469   4.006   0.527   0.364
  835TIP3    H2 2470   3.890   0.585   0.286
  836TIP3   OH2 2471   5.093   1.944   3.180
  836TIP3    H1 2472   5.008   1.986   3.194
  836TIP3    H2 2473   5.153   2.016   3.164
  837TIP3   OH2 2474   3.501   1.120   0.644
  837TIP3    H1 2475   3.491   1.167   0.727
  837TIP3    H2 2476   3.566   1.170   0.595
  838TIP3   OH2 2477   2.924   6.474   5.737
  838TIP3    H1 2478   2.956   6.389   5.765
  838TIP3    H2 2479   2.839   6.483   5.779
  839TIP3   OH2 2480   0.139   1.815   1.053
  839TIP3    H1 2481   0.085   1.874   1.106
  839TIP3    H2 2482   0.223   1.861   1.046
  840TIP3   OH2 2483   4.943   3.138   5.214
  840TIP3    H1 2484   4.978   3.051   5.195
  840TIP3    H2 2485   5.020   3.192   5.227
  841TIP3   OH2 2486   6.780   3.805   3.217
  841TIP3    H1 2487   6.761   3.842   3.131
  841TIP3    H2 2488   6.804   3.714   3.199
  842TIP3   OH2 2489   1.831   4.499   0.215
  842TIP3    H1 2490   1.894   4.522   0.147
  842TIP3    H2 2491   1.866   4.539   0.294
  843TIP3   OH2 2492   2.868   2.215   5.201
  843TIP3    H1 2493   2.878   2.122   5.219
  843TIP3    H2 2494   2.774   2.231   5.208
  844TIP3   OH2 2495   3.736   3.512   1.958
  844TIP3    H1 2496   3.747   3.505   2.053
  844TIP3    H2 2497   3.649   3.477   1.941
  845TIP3   OH2 2498   6.406   2.914   1.017
  845TIP3    H1 2499   6.415   2.956   0.932
  845TIP3    H2 2500   6.311   2.901   1.028
  846TIP3   OH2 2501   1.691   6.840   2.480
  846TIP3    H1 2502   1.657   6.751   2.490
  846TIP3    H2 2503   1.734   6.840   2.394
  847TIP3   OH2 2504   1.385   4.823   4.818
  847TIP3    H1 2505   1.455   4.780   4.769
  847TIP3    H2 2506   1.398   4.794   4.908
  848TIP3   OH2 2507   2.262   5.730   4.185
  848TIP3    H1 2508   2.188   5.737   4.125
  848TIP3    H2 2509   2.229   5.765   4.268
  849TIP3   OH2 2510   0.367   5.132   5.008
  849TIP3    H1 2511   0.353   5.047   5.051
  849TIP3    H2 2512   0.357   5.196   5.078
  850TIP3   OH2 2513   5.689   2.962   2.391
  850TIP3    H1 2514   5.756   2.933   2.453
  850TIP3    H2 2515   5.700   3.057   2.386
  851TIP3   OH2 2516   6.920   4.023   1.413
  851TIP3    H1 2517   7.002   4.045   1.457
  851TIP3    H2 2518   6.857   4.010   1.485
  852TIP3   OH2 2519   1.852   1.060   4.838
  852TIP3    H1 2520   1.925   1.042   4.896
  852TIP3    H2 2521   1.888   1.051   4.750
  853TIP3   OH2 2522   5.637   6.315   0.555
  853TIP3    H1 2523   5.550   6.334   0.590
  853TIP3    H2 2524   5.646   6.220   0.565
  854TIP3   OH2 2525   1.936   5.632   1.365
  854TIP3    H1 2526   1.842   5.644   1.379
  854TIP3    H2 2527   1.966   5.717   1.331
  855TIP3   OH2 2528   5.173   2.089   3.909
  855TIP3    H1 2529   5.136   2.016   3.958
  855TIP3    H2 2530   5.243   2.050   3.857
  856TIP3   OH2 2531   5.701   6.663   2.425
  856TIP3    H1 2532   5.792   6.678   2.399
  856TIP3    H2 2533   5.700   6.572   2.457
  857TIP3   OH2 2534   6.893   5.964   5.538
  857TIP3    H1 2535   6.847   5.901   5.594
  857TIP3    H2 2536   6.924   5.912   5.464
  858TIP3   OH2 2537   0.217   5.085   0.250
  858TIP3    H1 2538   0.295   5.030   0.253
  858TIP3    H2 2539   0.145   5.026   0.275
  859TIP3   OH2 2540   1.524   5.766   3.493
  859TIP3    H1 2541   1.433   5.740   3.475
  859TIP3    H2 2542   1.519   5.816   3.574
  860TIP3   OH2 2543   1.847   6.639   3.829
  860TIP3    H1 2544   1.892   6.684   3.900
  860TIP3    H2 2545   1.905   6.567   3.805
  861TIP3   OH2 2546   1.579   3.864   2.707
  861TIP3    H1 2547   1.615   3.912   2.633
  861TIP3    H2 2548   1.557   3.931   2.771
  862TIP3   OH2 2549   0.650   6.172   3.668
  862TIP3    H1 2550   0.690   6.257   3.649
  862TIP3    H2 2551   0.675   6.155   3.759
  863TIP3   OH2 2552   5.675   0.046   4.113
  863TIP3    H1 2553   5.672   0.004   4.027
  863TIP3    H2 2554   5.591   0.093   4.119
  864TIP3   OH2 2555   2.804   0.547   2.791
  864TIP3    H1 2556   2.855   0.483   2.840
  864TIP3    H2 2557   2.855   0.563   2.712
  865TIP3   OH2 2558   2.175   4.337   1.338
  865TIP3    H1 2559   2.216   4.290   1.411
  865TIP3    H2 2560   2.100   4.381   1.378
  866TIP3   OH2 2561   6.974   6.137   0.450
  866TIP3    H1 2562   6.933   6.205   0.397
  866TIP3    H2 2563   6.956   6.056   0.403
  867TIP3   OH2 2564   2.481   3.559   3.354
  867TIP3    H1 2565   2.561   3.543   3.403
  867TIP3    H2 2566   2.418   3.497   3.389
  868TIP3   OH2 2567   2.532   3.709   2.548
  868TIP3    H1 2568   2.625   3.708   2.570
  868TIP3    H2 2569   2.497   3.629   2.587
  869TIP3   OH2 2570   1.002   1.253   2.446
  869TIP3    H1 2571   1.054   1.308   2.387
  869TIP3    H2 2572   1.011   1.293   2.532
  870TIP3   OH2 2573   5.861   1.303   2.552
  870TIP3    H1 2574   5.814   1.233   2.508
  870TIP3    H2 2575   5.914   1.258   2.619
  871TIP3   OH2 2576   2.792   1.391   1.073
  871TIP3    H1 2577   2.825   1.480   1.063
  871TIP3    H2 2578   2.697   1.400   1.072
  872TIP3   OH2 2579   2.974   5.209   2.389
  872TIP3    H1 2580   3.034   5.267   2.436
  872TIP3    H2 2581   3.013   5.122   2.398
  873TIP3   OH2 2582   4.857   5.292   4.882
  873TIP3    H1 2583   4.906   5.274   4.962
  873TIP3    H2 2584   4.804   5.369   4.902
  874TIP3   OH2 2585   4.387   5.164   4.670
  874TIP3    H1 2586   4.379   5.074   4.640
  874TIP3    H2 2587   4.479   5.174   4.694
  875TIP3   OH2 2588   2.252   4.255   3.149
  875TIP3    H1 2589   2.302   4.336   3.155
  875TIP3    H2 2590   2.310   4.187   3.185
  876TIP3   OH2 2591   3.549   0.260   3.551
  876TIP3    H1 2592   3.536   0.165   3.559
  876TIP3    H2 2593   3.505   0.284   3.470
  877TIP3   OH2 2594   6.668   2.343   1.490
  877TIP3    H1 2595   6.644   2.411   1.426
  877TIP3    H2 2596   6.596   2.343   1.553
  878TIP3   OH2 2597   0.549   5.478   1.140
  878TIP3    H1 2598   0.499   5.555   1.165
  878TIP3    H2 2599   0.587   5.501   1.055
  879TIP3   OH2 2600   0.008   0.334   5.410
  879TIP3    H1 2601  -0.048   0.275   5.360
  879TIP3    H2 2602   0.080   0.279   5.441
  880TIP3   OH2 2603   5.445   0.828   1.525
  880TIP3    H1 2604   5.422   0.737   1.540
  880TIP3    H2 2605   5.522   0.824   1.469
  881TIP3   OH2 2606   1.611   0.413   3.959
  881TIP3    H1 2607   1.661   0.332   3.949
  881TIP3    H2 2608   1.533   0.401   3.904
  882TIP3   OH2 2609   0.963   5.718   2.272
  882TIP3    H1 2610   0.912   5.662   2.213
  882TIP3    H2 2611   1.039   5.664   2.296
  883TIP3   OH2 2612   7.015   4.185   4.137
  883TIP3    H1 2613   7.043   4.270   4.102
  883TIP3    H2 2614   6.920   4.184   4.123
  884TIP3   OH2 2615   4.222   4.530   3.774
  884TIP3    H1 2616   4.188   4.603   3.721
  884TIP3    H2 2617   4.188   4.546   3.862
  885TIP3   OH2 2618   6.811   0.491   1.088
  885TIP3    H1 2619   6.773   0.422   1.142
  885TIP3    H2 2620   6.798   0.461   0.998
  886TIP3   OH2 2621   6.977   1.777   2.855
  886TIP3    H1 2622   6.943   1.822   2.932
  886TIP3    H2 2623   6.965   1.684   2.874
  887TIP3   OH2 2624   6.211   1.870   3.741
  887TIP3    H1 2625   6.273   1.801   3.720
  887TIP3    H2 2626   6.142   1.827   3.791
  888TIP3   OH2 2627   6.614   3.045   4.423
  888TIP3    H1 2628   6.701   3.078   4.444
  888TIP3    H2 2629   6.560   3.069   4.498
  889TIP3   OH2 2630   6.807   6.517   1.344
  889TIP3    H1 2631   6.768   6.434   1.319
  889TIP3    H2 2632   6.900   6.508   1.325
  890TIP3   OH2 2633   1.164   2.756   3.620
  890TIP3    H1 2634   1.078   2.720   3.643
  890TIP3    H2 2635   1.155   2.779   3.528
  891TIP3   OH2 2636   2.005   1.659   4.628
  891TIP3    H1 2637   2.005   1.755   4.629
  891TIP3    H2 2638   2.051   1.635   4.709
  892TIP3   OH2 2639   6.076   6.735   2.979
  892TIP3    H1 2640   6.012   6.788   2.932
  892TIP3    H2 2641   6.150   6.729   2.918
  893TIP3   OH2 2642   7.111   3.040   4.080
  893TIP3    H1 2643   7.187   2.997   4.042
  893TIP3    H2 2644   7.146   3.093   4.151
  894TIP3   OH2 2645   7.112   0.732   3.195
  894TIP3    H1 2646   7.163   0.813   3.200
  894TIP3    H2 2647   7.033   0.749   3.247
  895TIP3   OH2 2648   4.344   5.098   5.656
  895TIP3    H1 2649   4.398   5.164   5.699
  895TIP3    H2 2650   4.296   5.056   5.727
  896TIP3   OH2 2651   0.072   0.528   3.404
  896TIP3    H1 2652   0.114   0.579   3.335
  896TIP3    H2 2653  -0.018   0.561   3.406
  897TIP3   OH2 2654   2.633   5.166   3.763
  897TIP3    H1 2655   2.674   5.116   3.693
  897TIP3    H2 2656   2.546   5.129   3.771
  898TIP3   OH2 2657   3.989   0.811   2.345
  898TIP3    H1 2658   4.029   0.806   2.432
  898TIP3    H2 2659   3.930   0.736   2.341
  899TIP3   OH2 2660   5.802   1.396   0.787
  899TIP3    H1 2661   5.775   1.316   0.743
  899TIP3    H2 2662   5.891   1.412   0.755
  900TIP3   OH2 2663   0.736   5.756   2.861
  900TIP3    H1 2664   0.660   5.754   2.803
  900TIP3    H2 2665   0.805   5.798   2.809
  901TIP3   OH2 2666   2.863   6.640   0.947
  901TIP3    H1 2667   2.883   6.730   0.922
  901TIP3    H2 2668   2.820   6.648   1.032
  902TIP3   OH2 2669   6.155   2.196   0.865
  902TIP3    H1 2670   6.137   2.246   0.786
  902TIP3    H2 2671   6.183   2.110   0.834
  903TIP3   OH2 2672   0.461   5.589   4.626
  903TIP3    H1 2673   0.482   5.599   4.533
  903TIP3    H2 2674   0.397   5.518   4.630
  904TIP3   OH2 2675   3.979   0.411   4.933
  904TIP3    H1 2676   4.039   0.436   4.862
  904TIP3    H2 2677   3.903   0.467   4.921
  905TIP3   OH2 2678   3.425   4.106   1.652
  905TIP3    H1 2679   3.357   4.040   1.664
  905TIP3    H2 2680   3.438   4.111   1.557
  906TIP3   OH2 2681   0.446   0.470   1.671
  906TIP3    H1 2682   0.371   0.457   1.613
  906TIP3    H2 2683   0.410   0.464   1.760
  907TIP3   OH2 2684   2.519   4.175   1.329
  907TIP3    H1 2685   2.445   4.205   1.277
  907TIP3    H2 2686   2.494   4.088   1.360
  908TIP3   OH2 2687   6.472   2.961   3.668
  908TIP3    H1 2688   6.536   2.935   3.735
  908TIP3    H2 2689   6.401   3.002   3.718
  909TIP3   OH2 2690   5.332   3.277   3.397
  909TIP3    H1 2691   5.338   3.182   3.387
  909TIP3    H2 2692   5.423   3.305   3.406
  910TIP3   OH2 2693   5.089   0.686   3.694
  910TIP3    H1 2694   5.072   0.592   3.687
  910TIP3    H2 2695   5.184   0.694   3.685
  911TIP3   OH2 2696   4.870   4.950   4.427
  911TIP3    H1 2697   4.940   4.886   4.419
  911TIP3    H2 2698   4.820   4.922   4.503
  912TIP3   OH2 2699   2.581   0.383   2.403
  912TIP3    H1 2700   2.545   0.360   2.489
  912TIP3    H2 2701   2.582   0.301   2.354
  913TIP3   OH2 2702   4.900   6.213   3.171
  913TIP3    H1 2703   4.903   6.305   3.145
  913TIP3    H2 2704   4.808   6.189   3.164
  914TIP3   OH2 2705   6.788   3.159   2.319
  914TIP3    H1 2706   6.848   3.085   2.330
  914TIP3    H2 2707   6.826   3.210   2.247
  915TIP3   OH2 2708   7.120   1.732   5.613
  915TIP3    H1 2709   7.159   1.803   5.664
  915TIP3    H2 2710   7.084   1.774   5.535
  916TIP3   OH2 2711   1.081   3.450   5.422
  916TIP3    H1 2712   1.000   3.453   5.473
  916TIP3    H2 2713   1.057   3.489   5.338
  917TIP3   OH2 2714   5.235   3.927   3.090
  917TIP3    H1 2715   5.156   3.977   3.070
  917TIP3    H2 2716   5.228   3.849   3.034
  918TIP3   OH2 2717   6.331   3.359   5.697
  918TIP3    H1 2718   6.289   3.442   5.670
  918TIP3    H2 2719   6.280   3.330   5.772
  919TIP3   OH2 2720   2.381   4.010   0.489
  919TIP3    H1 2721   2.395   4.041   0.579
  919TIP3    H2 2722   2.441   4.063   0.437
  920TIP3   OH2 2723   4.554   6.717   5.394
  920TIP3    H1 2724   4.500   6.761   5.327
  920TIP3    H2 2725   4.625   6.779   5.412
  921TIP3   OH2 2726   6.469   2.749   2.636
  921TIP3    H1 2727   6.508   2.707   2.560
  921TIP3    H2 2728   6.428   2.678   2.684
  922TIP3   OH2 2729   3.679   3.392   4.319
  922TIP3    H1 2730   3.585   3.383   4.339
  922TIP3    H2 2731   3.690   3.484   4.295
  923TIP3   OH2 2732   4.826   3.359   1.337
  923TIP3    H1 2733   4.891   3.428   1.347
  923TIP3    H2 2734   4.743   3.400   1.361
  924TIP3   OH2 2735   3.725   3.678   1.161
  924TIP3    H1 2736   3.684   3.686   1.247
  924TIP3    H2 2737   3.819   3.675   1.180
  925TIP3   OH2 2738   0.966   2.356   4.917
  925TIP3    H1 2739   0.941   2.378   5.007
  925TIP3    H2 2740   1.025   2.282   4.926
  926TIP3   OH2 2741   5.911   6.663   2.667
  926TIP3    H1 2742   5.879   6.574   2.682
  926TIP3    H2 2743   5.831   6.714   2.652
  927TIP3   OH2 2744   1.917   6.045   4.275
  927TIP3    H1 2745   1.932   6.063   4.182
  927TIP3    H2 2746   2.003   6.058   4.316
  928TIP3   OH2 2747   6.096   4.377   3.024
  928TIP3    H1 2748   6.001   4.381   3.041
  928TIP3    H2 2749   6.107   4.300   2.969
  929TIP3   OH2 2750   6.350   6.051   4.310
  929TIP3    H1 2751   6.414   6.063   4.380
  929TIP3    H2 2752   6.371   6.119   4.246
  930TIP3   OH2 2753   5.614   5.699   1.205
  930TIP3    H1 2754   5.579   5.621   1.247
  930TIP3    H2 2755   5.701   5.710   1.242
  931TIP3   OH2 2756   6.679   0.087   0.183
  931TIP3    H1 2757   6.696  -0.007   0.188
  931TIP3    H2 2758   6.591   0.097   0.220
  932TIP3   OH2 2759   6.678   6.081   5.916
  932TIP3    H1 2760   6.618   6.066   5.842
  932TIP3    H2 2761   6.712   6.169   5.901
  933TIP3   OH2 2762   2.468   5.795   0.510
  933TIP3    H1 2763   2.443   5.703   0.500
  933TIP3    H2 2764   2.462   5.832   0.422
  934TIP3   OH2 2765   2.442   2.782   0.213
  934TIP3    H1 2766   2.407   2.699   0.245
  934TIP3    H2 2767   2.430   2.777   0.118
  935TIP3   OH2 2768   6.064   5.298   1.185
  935TIP3    H1 2769   5.971   5.275   1.186
  935TIP3    H2 2770   6.100   5.257   1.263
  936TIP3   OH2 2771   1.845   1.644   1.937
  936TIP3    H1 2772   1.836   1.715   1.873
  936TIP3    H2 2773   1.800   1.570   1.897
  937TIP3   OH2 2774   2.096   2.873   3.365
  937TIP3    H1 2775   2.094   2.887   3.460
  937TIP3    H2 2776   2.188   2.887   3.341
  938TIP3   OH2 2777   0.581   0.445   0.753
  938TIP3    H1 2778   0.488   0.454   0.770
  938TIP3    H2 2779   0.610   0.534   0.730
  939TIP3   OH2 2780   3.153   0.231   0.627
  939TIP3    H1 2781   3.163   0.295   0.699
  939TIP3    H2 2782   3.183   0.148   0.665
  940TIP3   OH2 2783   4.971   2.026   4.901
  940TIP3    H1 2784   4.916   2.060   4.971
  940TIP3    H2 2785   5.033   2.097   4.882
  941TIP3   OH2 2786   0.969   3.562   5.177
  941TIP3    H1 2787   0.989   3.655   5.164
  941TIP3    H2 2788   0.953   3.529   5.088
  942TIP3   OH2 2789   1.979   0.119   5.292
  942TIP3    H1 2790   2.049   0.158   5.345
  942TIP3    H2 2791   1.945   0.191   5.239
  943TIP3   OH2 2792   1.266   3.063   4.966
  943TIP3    H1 2793   1.308   3.087   4.884
  943TIP3    H2 2794   1.203   2.995   4.942
  944TIP3   OH2 2795   0.963   2.936   5.798
  944TIP3    H1 2796   1.000   2.943   5.886
  944TIP3    H2 2797   1.029   2.888   5.748
  945TIP3   OH2 2798   5.114   4.650   3.388
  945TIP3    H1 2799   5.181   4.603   3.338
  945TIP3    H2 2800   5.158   4.675   3.469
  946TIP3   OH2 2801   4.094   4.973   3.091
  946TIP3    H1 2802   4.100   5.020   3.174
  946TIP3    H2 2803   4.175   4.922   3.087
  947TIP3   OH2 2804   1.970   2.625   1.495
  947TIP3    H1 2805   2.045   2.673   1.529
  947TIP3    H2 2806   2.001   2.587   1.412
  948TIP3   OH2 2807   2.909   5.226   1.150
  948TIP3    H1 2808   2.933   5.268   1.068
  948TIP3    H2 2809   2.817   5.246   1.162
  949TIP3   OH2 2810   6.900   6.211   2.590
  949TIP3    H1 2811   6.848   6.287   2.614
  949TIP3    H2 2812   6.956   6.241   2.518
  950TIP3   OH2 2813   4.440   2.245   1.678
  950TIP3    H1 2814   4.364   2.231   1.622
  950TIP3    H2 2815   4.402   2.277   1.761
  951TIP3   OH2 2816   1.330   3.562   2.049
  951TIP3    H1 2817   1.382   3.612   1.986
  951TIP3    H2 2818   1.394   3.506   2.093
  952TIP3   OH2 2819   0.666   5.559   0.078
  952TIP3    H1 2820   0.758   5.582   0.091
  952TIP3    H2 2821   0.646   5.586  -0.012
  953TIP3   OH2 2822   0.308   0.155   5.289
  953TIP3    H1 2823   0.308   0.218   5.217
  953TIP3    H2 2824   0.235   0.097   5.270
  954TIP3   OH2 2825   5.850   6.693   4.612
  954TIP3    H1 2826   5.812   6.777   4.587
  954TIP3    H2 2827   5.906   6.714   4.687
  955TIP3   OH2 2828   6.200   6.424   1.112
  955TIP3    H1 2829   6.243   6.480   1.048
  955TIP3    H2 2830   6.166   6.351   1.061
  956TIP3   OH2 2831   0.354   1.589   3.477
  956TIP3    H1 2832   0.309   1.611   3.396
  956TIP3    H2 2833   0.447   1.601   3.457
  957TIP3   OH2 2834   5.251   1.894   4.226
  957TIP3    H1 2835   5.182   1.906   4.292
  957TIP3    H2 2836   5.224   1.817   4.177
  958TIP3   OH2 2837   4.037   0.380   4.536
  958TIP3    H1 2838   4.105   0.409   4.598
  958TIP3    H2 2839   4.037   0.285   4.544
  959TIP3   OH2 2840   1.741   4.800   4.403
  959TIP3    H1 2841   1.712   4.883   4.365
  959TIP3    H2 2842   1.787   4.756   4.332
  960TIP3   OH2 2843   2.262   3.700   2.306
  960TIP3    H1 2844   2.217   3.615   2.298
  960TIP3    H2 2845   2.255   3.723   2.398
  961TIP3   OH2 2846   3.319   4.321   3.744
  961TIP3    H1 2847   3.228   4.310   3.715
  961TIP3    H2 2848   3.316   4.306   3.838
  962TIP3   OH2 2849   6.768   0.653   1.798
  962TIP3    H1 2850   6.677   0.684   1.796
  962TIP3    H2 2851   6.819   0.723   1.758
  963TIP3   OH2 2852   2.250   5.830   0.674
  963TIP3    H1 2853   2.331   5.855   0.630
  963TIP3    H2 2854   2.262   5.858   0.765
  964TIP3   OH2 2855   7.247   5.176   2.196
  964TIP3    H1 2856   7.226   5.170   2.289
  964TIP3    H2 2857   7.184   5.119   2.153
  965TIP3   OH2 2858   6.355   4.486   4.848
  965TIP3    H1 2859   6.368   4.393   4.867
  965TIP3    H2 2860   6.328   4.489   4.756
  966TIP3   OH2 2861   3.288   0.396   2.665
  966TIP3    H1 2862   3.294   0.455   2.590
  966TIP3    H2 2863   3.368   0.344   2.662
  967TIP3   OH2 2864   5.471   0.352   5.409
  967TIP3    H1 2865   5.508   0.293   5.343
  967TIP3    H2 2866   5.377   0.344   5.398
  968TIP3   OH2 2867   1.779   4.838   4.924
  968TIP3    H1 2868   1.777   4.880   5.010
  968TIP3    H2 2869   1.707   4.774   4.928
  969TIP3   OH2 2870   2.576   0.099   2.340
  969TIP3    H1 2871   2.513   0.050   2.393
  969TIP3    H2 2872   2.554   0.078   2.250
  970TIP3   OH2 2873   0.734   0.726   4.528
  970TIP3    H1 2874   0.741   0.636   4.498
  970TIP3    H2 2875   0.789   0.776   4.468
  971TIP3   OH2 2876   0.551   1.588   3.868
  971TIP3    H1 2877   0.598   1.552   3.793
  971TIP3    H2 2878   0.605   1.566   3.944
  972TIP3   OH2 2879   1.850   1.870   2.314
  972TIP3    H1 2880   1.812   1.783   2.309
  972TIP3    H2 2881   1.874   1.891   2.224
  973TIP3   OH2 2882   6.788   5.961   2.255
  973TIP3    H1 2883   6.772   5.994   2.167
  973TIP3    H2 2884   6.708   5.982   2.303
  974TIP3   OH2 2885   3.480   5.336   1.778
  974TIP3    H1 2886   3.485   5.431   1.783
  974TIP3    H2 2887   3.406   5.313   1.834
  975TIP3   OH2 2888   1.378   3.906   0.797
  975TIP3    H1 2889   1.368   3.874   0.887
  975TIP3    H2 2890   1.306   3.969   0.786
  976TIP3   OH2 2891   0.774   6.639   0.167
  976TIP3    H1 2892   0.856   6.690   0.166
  976TIP3    H2 2893   0.706   6.705   0.154
  977TIP3   OH2 2894   2.997   5.922   2.136
  977TIP3    H1 2895   3.023   5.973   2.213
  977TIP3    H2 2896   3.024   5.975   2.061
  978TIP3   OH2 2897   5.013   4.408   1.913
  978TIP3    H1 2898   5.057   4.326   1.936
  978TIP3    H2 2899   4.954   4.383   1.841
  979TIP3   OH2 2900   5.141   5.986   1.579
  979TIP3    H1 2901   5.208   6.049   1.605
  979TIP3    H2 2902   5.076   6.038   1.532
  980TIP3   OH2 2903   5.257   1.278   5.914
  980TIP3    H1 2904   5.187   1.213   5.923
  980TIP3    H2 2905   5.225   1.339   5.847
  981TIP3   OH2 2906   3.519   4.574   4.523
  981TIP3    H1 2907   3.498   4.586   4.431
  981TIP3    H2 2908   3.552   4.484   4.529
  982TIP3   OH2 2909   7.030   0.938   3.786
  982TIP3    H1 2910   7.015   0.949   3.692
  982TIP3    H2 2911   7.050   1.026   3.818
  983TIP3   OH2 2912   2.591   4.889   2.404
  983TIP3    H1 2913   2.593   4.793   2.407
  983TIP3    H2 2914   2.530   4.914   2.473
  984TIP3   OH2 2915   3.517   1.172   3.422
  984TIP3    H1 2916   3.574   1.249   3.416
  984TIP3    H2 2917   3.519   1.148   3.514
  985TIP3   OH2 2918   6.146   0.568   4.598
  985TIP3    H1 2919   6.085   0.537   4.532
  985TIP3    H2 2920   6.140   0.505   4.670
  986TIP3   OH2 2921   1.143   5.791   3.127
  986TIP3    H1 2922   1.219   5.845   3.148
  986TIP3    H2 2923   1.068   5.840   3.160
  987TIP3   OH2 2924   2.554   2.014   4.674
  987TIP3    H1 2925   2.542   2.107   4.653
  987TIP3    H2 2926   2.465   1.982   4.688
  988TIP3   OH2 2927   6.740   4.072   3.734
  988TIP3    H1 2928   6.818   4.055   3.787
  988TIP3    H2 2929   6.713   3.985   3.704
  989TIP3   OH2 2930   5.613   3.173   0.788
  989TIP3    H1 2931   5.660   3.247   0.826
  989TIP3    H2 2932   5.668   3.097   0.807
  990TIP3   OH2 2933   4.347   4.825   5.588
  990TIP3    H1 2934   4.389   4.911   5.589
  990TIP3    H2 2935   4.419   4.763   5.578
  991TIP3   OH2 2936   4.379   0.359   3.004
  991TIP3    H1 2937   4.395   0.265   3.000
  991TIP3    H2 2938   4.423   0.394   2.926
  992TIP3   OH2 2939   1.898   3.309   1.640
  992TIP3    H1 2940   1.931   3.263   1.717
  992TIP3    H2 2941   1.945   3.270   1.567
  993TIP3   OH2 2942   3.193   6.165   3.760
  993TIP3    H1 2943   3.122   6.222   3.729
  993TIP3    H2 2944   3.149   6.092   3.804
  994TIP3   OH2 2945   1.278   5.447   1.738
  994TIP3    H1 2946   1.302   5.424   1.648
  994TIP3    H2 2947   1.277   5.543   1.739
  995TIP3   OH2 2948   5.431   0.332   0.695
  995TIP3    H1 2949   5.494   0.395   0.731
  995TIP3    H2 2950   5.484   0.255   0.673
  996TIP3   OH2 2951   0.688   3.796   3.337
  996TIP3    H1 2952   0.667   3.703   3.330
  996TIP3    H2 2953   0.756   3.800   3.404
  997TIP3   OH2 2954   0.408   6.104  -0.018
  997TIP3    H1 2955   0.365   6.178   0.025
  997TIP3    H2 2956   0.460   6.144  -0.088
  998TIP3   OH2 2957   5.906   3.025   5.249
  998TIP3    H1 2958   5.862   3.035   5.164
  998TIP3    H2 2959   5.842   2.981   5.304
  999TIP3   OH2 2960   4.430   1.190   0.998
  999TIP3    H1 2961   4.436   1.125   1.069
  999TIP3    H2 2962   4.349   1.167   0.952
 1000TIP3   OH2 2963   2.971   0.690   0.836
 1000TIP3    H1 2964   2.942   0.688   0.927
 1000TIP3    H2 2965   3.002   0.601   0.819
 1001TIP3   OH2 2966   4.752   0.314   0.299
 1001TIP3    H1 2967   4.822   0.325   0.235
 1001TIP3    H2 2968   4.687   0.259   0.255
 1002TIP3   OH2 2969   0.656   3.304   3.915
 1002TIP3    H1 2970   0.570   3.269   3.893
 1002TIP3    H2 2971   0.639   3.397   3.934
 1003TIP3   OH2 2972   4.577   3.911   4.244
 1003TIP3    H1 2973   4.596   3.840   4.305
 1003TIP3    H2 2974   4.486   3.897   4.219
 1004TIP3   OH2 2975   4.032   5.759   1.306
 1004TIP3    H1 2976   4.119   5.777   1.270
 1004TIP3    H2 2977   4.046   5.686   1.366
 1005TIP3   OH2 2978   4.015   1.136   4.061
 1005TIP3    H1 2979   4.103   1.129   4.024
 1005TIP3    H2 2980   3.969   1.195   4.000
 1006TIP3   OH2 2981   2.064   6.613   0.663
 1006TIP3    H1 2982   1.982   6.605   0.711
 1006TIP3    H2 2983   2.075   6.530   0.618
 1007TIP3   OH2 2984   2.316   2.471   4.288
 1007TIP3    H1 2985   2.278   2.559   4.287
 1007TIP3    H2 2986   2.253   2.417   4.242
 1008TIP3   OH2 2987   3.925   3.714   0.902
 1008TIP3    H1 2988   3.837   3.728   0.869
 1008TIP3    H2 2989   3.946   3.793   0.952
 1009TIP3   OH2 2990   1.326   4.540   1.900
 1009TIP3    H1 2991   1.319   4.473   1.832
 1009TIP3    H2 2992   1.420   4.545   1.919
 1010TIP3   OH2 2993   5.395   6.017   2.160
 1010TIP3    H1 2994   5.433   6.091   2.114
 1010TIP3    H2 2995   5.396   5.945   2.096
 1011TIP3   OH2 2996   1.764   2.675   2.948
 1011TIP3    H1 2997   1.754   2.744   2.882
 1011TIP3    H2 2998   1.854   2.685   2.980
 1012TIP3   OH2 2999   6.380   1.281   3.872
 1012TIP3    H1 3000   6.299   1.305   3.825
 1012TIP3    H2 3001   6.442   1.260   3.803
 1013TIP3   OH2 3002   2.502   6.725   4.938
 1013TIP3    H1 3003   2.581   6.738   4.990
 1013TIP3    H2 3004   2.508   6.789   4.867
 1014TIP3   OH2 3005   5.099   0.285   1.385
 1014TIP3    H1 3006   5.168   0.339   1.347
 1014TIP3    H2 3007   5.021   0.307   1.334
 1015TIP3   OH2 3008   6.903   3.423   0.146
 1015TIP3    H1 3009   6.960   3.368   0.092
 1015TIP3    H2 3010   6.845   3.466   0.082
 1016TIP3   OH2 3011   1.453   3.011   2.404
 1016TIP3    H1 3012   1.490   2.927   2.431
 1016TIP3    H2 3013   1.456   3.008   2.308
 1017TIP3   OH2 3014   4.677   0.528   2.614
 1017TIP3    H1 3015   4.651   0.481   2.535
 1017TIP3    H2 3016   4.669   0.620   2.590
 1018TIP3   OH2 3017   3.097   4.518   2.031
 1018TIP3    H1 3018   3.023   4.485   2.082
 1018TIP3    H2 3019   3.168   4.529   2.094
 1019TIP3   OH2 3020   3.277   0.032   1.875
 1019TIP3    H1 3021   3.232   0.088   1.813
 1019TIP3    H2 3022   3.235   0.051   1.959
 1020TIP3   OH2 3023   2.993   6.594   1.962
 1020TIP3    H1 3024   3.041   6.522   1.921
 1020TIP3    H2 3025   2.912   6.555   1.993
 1021TIP3   OH2 3026   2.719   5.157   3.203
 1021TIP3    H1 3027   2.728   5.119   3.116
 1021TIP3    H2 3028   2.807   5.187   3.225
 1022TIP3   OH2 3029   3.805   2.397   3.886
 1022TIP3    H1 3030   3.856   2.443   3.818
 1022TIP3    H2 3031   3.716   2.394   3.851
 1023TIP3   OH2 3032   1.103   3.004   0.933
 1023TIP3    H1 3033   1.064   2.975   0.851
 1023TIP3    H2 3034   1.082   2.935   0.996
 1024TIP3   OH2 3035   4.202   0.540   0.381
 1024TIP3    H1 3036   4.279   0.521   0.326
 1024TIP3    H2 3037   4.193   0.462   0.437
 1025TIP3   OH2 3038   3.727   1.766   2.042
 1025TIP3    H1 3039   3.794   1.698   2.052
 1025TIP3    H2 3040   3.757   1.817   1.967
 1026TIP3   OH2 3041   6.013   4.343   1.083
 1026TIP3    H1 3042   6.079   4.335   1.015
 1026TIP3    H2 3043   5.939   4.387   1.040
 1027TIP3   OH2 3044   4.329   3.350   1.868
 1027TIP3    H1 3045   4.331   3.267   1.821
 1027TIP3    H2 3046   4.238   3.358   1.897
 1028TIP3   OH2 3047   3.332   2.408   1.162
 1028TIP3    H1 3048   3.386   2.399   1.084
 1028TIP3    H2 3049   3.377   2.356   1.228
 1029TIP3   OH2 3050   1.396   6.348   5.351
 1029TIP3    H1 3051   1.453   6.295   5.295
 1029TIP3    H2 3052   1.314   6.299   5.355
 1030TIP3   OH2 3053   4.384   5.652   2.241
 1030TIP3    H1 3054   4.331   5.718   2.197
 1030TIP3    H2 3055   4.356   5.569   2.203
 1031TIP3   OH2 3056   7.112   6.077   1.840
 1031TIP3    H1 3057   7.087   6.005   1.782
 1031TIP3    H2 3058   7.169   6.038   1.905
 1032TIP3   OH2 3059   3.648   6.445   5.467
 1032TIP3    H1 3060   3.697   6.378   5.515
 1032TIP3    H2 3061   3.615   6.504   5.535
 1033TIP3   OH2 3062   5.747   6.785   3.220
 1033TIP3    H1 3063   5.772   6.744   3.137
 1033TIP3    H2 3064   5.816   6.850   3.235
 1034TIP3   OH2 3065   0.854   5.426   1.247
 1034TIP3    H1 3066   0.841   5.520   1.236
 1034TIP3    H2 3067   0.773   5.386   1.215
 1035TIP3   OH2 3068   5.444   3.999   0.646
 1035TIP3    H1 3069   5.444   3.911   0.683
 1035TIP3    H2 3070   5.524   4.002   0.592
 1036TIP3   OH2 3071   1.757   4.448   2.168
 1036TIP3    H1 3072   1.841   4.447   2.121
 1036TIP3    H2 3073   1.780   4.476   2.257
 1037TIP3   OH2 3074   3.827   3.160   0.754
 1037TIP3    H1 3075   3.745   3.153   0.706
 1037TIP3    H2 3076   3.844   3.071   0.786
 1038TIP3   OH2 3077   5.288   2.894   0.599
 1038TIP3    H1 3078   5.300   2.864   0.689
 1038TIP3    H2 3079   5.304   2.817   0.545
 1039TIP3   OH2 3080   1.404   3.399   1.222
 1039TIP3    H1 3081   1.409   3.432   1.312
 1039TIP3    H2 3082   1.332   3.448   1.182
 1040TIP3   OH2 3083   1.955   4.154   4.169
 1040TIP3    H1 3084   1.876   4.166   4.116
 1040TIP3    H2 3085   1.968   4.059   4.171
 1041TIP3   OH2 3086   6.451   4.907   1.134
 1041TIP3    H1 3087   6.397   4.895   1.056
 1041TIP3    H2 3088   6.498   4.989   1.117
 1042TIP3   OH2 3089   6.229   4.990   0.679
 1042TIP3    H1 3090   6.203   5.063   0.623
 1042TIP3    H2 3091   6.273   4.929   0.620
 1043TIP3   OH2 3092   5.034   5.377   5.603
 1043TIP3    H1 3093   4.998   5.377   5.514
 1043TIP3    H2 3094   5.117   5.330   5.595
 1044TIP3   OH2 3095   2.114   0.626   1.671
 1044TIP3    H1 3096   2.059   0.688   1.624
 1044TIP3    H2 3097   2.111   0.655   1.762
 1045TIP3   OH2 3098   4.623   0.233   0.053
 1045TIP3    H1 3099   4.550   0.174   0.032
 1045TIP3    H2 3100   4.702   0.182   0.035
 1046TIP3   OH2 3101   2.503   4.690   3.271
 1046TIP3    H1 3102   2.410   4.714   3.264
 1046TIP3    H2 3103   2.550   4.773   3.262
 1047TIP3   OH2 3104   0.005   6.687   3.930
 1047TIP3    H1 3105  -0.010   6.748   3.857
 1047TIP3    H2 3106   0.079   6.724   3.977
 1048TIP3   OH2 3107   6.849   3.368   1.963
 1048TIP3    H1 3108   6.899   3.318   2.028
 1048TIP3    H2 3109   6.829   3.305   1.894
 1049TIP3   OH2 3110   3.267   4.941   5.342
 1049TIP3    H1 3111   3.270   4.929   5.247
 1049TIP3    H2 3112   3.255   5.035   5.354
 1050TIP3   OH2 3113   1.723   3.153   3.363
 1050TIP3    H1 3114   1.675   3.173   3.444
 1050TIP3    H2 3115   1.705   3.060   3.347
 1051TIP3   OH2 3116   3.866   6.651   3.134
 1051TIP3    H1 3117   3.851   6.593   3.209
 1051TIP3    H2 3118   3.782   6.692   3.118
 1052TIP3   OH2 3119   4.044   3.036   3.768
 1052TIP3    H1 3120   3.974   3.054   3.831
 1052TIP3    H2 3121   4.002   2.983   3.700
 1053TIP3   OH2 3122   1.927   1.089   1.076
 1053TIP3    H1 3123   1.977   1.166   1.104
 1053TIP3    H2 3124   1.837   1.109   1.103
 1054TIP3   OH2 3125   2.818   2.034   4.588
 1054TIP3    H1 3126   2.803   1.985   4.508
 1054TIP3    H2 3127   2.730   2.057   4.619
 1055TIP3   OH2 3128   1.592   6.130   5.278
 1055TIP3    H1 3129   1.529   6.058   5.277
 1055TIP3    H2 3130   1.646   6.114   5.356
 1056TIP3   OH2 3131   2.937   5.333   3.259
 1056TIP3    H1 3132   3.018   5.282   3.259
 1056TIP3    H2 3133   2.951   5.400   3.326
 1057TIP3   OH2 3134   4.013   4.364   0.887
 1057TIP3    H1 3135   3.981   4.276   0.867
 1057TIP3    H2 3136   3.979   4.382   0.975
 1058TIP3   OH2 3137   3.538   3.562   2.906
 1058TIP3    H1 3138   3.491   3.641   2.931
 1058TIP3    H2 3139   3.607   3.593   2.848
 1059TIP3   OH2 3140   6.628   5.756   4.892
 1059TIP3    H1 3141   6.711   5.768   4.846
 1059TIP3    H2 3142   6.643   5.796   4.978
 1060TIP3   OH2 3143   5.091   3.106   5.754
 1060TIP3    H1 3144   5.165   3.150   5.796
 1060TIP3    H2 3145   5.123   3.081   5.667
 1061TIP3   OH2 3146   5.668   0.320   4.915
 1061TIP3    H1 3147   5.731   0.336   4.986
 1061TIP3    H2 3148   5.662   0.403   4.869
 1062TIP3   OH2 3149   3.970   6.028   2.074
 1062TIP3    H1 3150   3.891   6.026   2.019
 1062TIP3    H2 3151   3.993   6.121   2.079
 1063TIP3   OH2 3152   4.718   3.289   3.514
 1063TIP3    H1 3153   4.649   3.295   3.448
 1063TIP3    H2 3154   4.770   3.369   3.502
 1064TIP3   OH2 3155   1.175   1.404   1.448
 1064TIP3    H1 3156   1.139   1.453   1.374
 1064TIP3    H2 3157   1.197   1.318   1.413
 1065TIP3   OH2 3158   7.018   5.119   3.171
 1065TIP3    H1 3159   7.108   5.104   3.144
 1065TIP3    H2 3160   6.994   5.203   3.131
 1066TIP3   OH2 3161   7.125   3.130   2.428
 1066TIP3    H1 3162   7.194   3.193   2.405
 1066TIP3    H2 3163   7.172   3.048   2.444
 1067TIP3   OH2 3164   7.044   0.237   4.017
 1067TIP3    H1 3165   6.980   0.182   3.972
 1067TIP3    H2 3166   7.091   0.281   3.946
 1068TIP3   OH2 3167   4.617   0.442   5.148
 1068TIP3    H1 3168   4.616   0.346   5.150
 1068TIP3    H2 3169   4.566   0.468   5.224
 1069TIP3   OH2 3170   2.244   5.270   3.839
 1069TIP3    H1 3171   2.315   5.324   3.875
 1069TIP3    H2 3172   2.267   5.260   3.747
 1070TIP3   OH2 3173   3.353   1.130   5.306
 1070TIP3    H1 3174   3.352   1.185   5.228
 1070TIP3    H2 3175   3.298   1.055   5.284
 1071TIP3   OH2 3176   6.193   5.261   1.639
 1071TIP3    H1 3177   6.133   5.195   1.604
 1071TIP3    H2 3178   6.265   5.210   1.677
 1072TIP3   OH2 3179   4.894   4.738   2.817
 1072TIP3    H1 3180   4.874   4.808   2.755
 1072TIP3    H2 3181   4.816   4.732   2.872
 1073TIP3   OH2 3182   0.315   0.163   4.302
 1073TIP3    H1 3183   0.281   0.074   4.289
 1073TIP3    H2 3184   0.410   0.153   4.292
 1074TIP3   OH2 3185   3.949   6.350   3.951
 1074TIP3    H1 3186   4.022   6.409   3.931
 1074TIP3    H2 3187   3.870   6.402   3.935
 1075TIP3   OH2 3188   3.655   5.054   0.836
 1075TIP3    H1 3189   3.684   5.140   0.865
 1075TIP3    H2 3190   3.629   5.067   0.745
 1076TIP3   OH2 3191   5.210   2.195   3.096
 1076TIP3    H1 3192   5.187   2.244   3.017
 1076TIP3    H2 3193   5.300   2.220   3.114
 1077TIP3   OH2 3194   2.300   5.363   2.193
 1077TIP3    H1 3195   2.205   5.351   2.188
 1077TIP3    H2 3196   2.334   5.276   2.214
 1078TIP3   OH2 3197   5.028   1.725   4.499
 1078TIP3    H1 3198   4.980   1.796   4.456
 1078TIP3    H2 3199   5.014   1.649   4.442
 1079TIP3   OH2 3200   1.442   3.460   2.427
 1079TIP3    H1 3201   1.404   3.379   2.393
 1079TIP3    H2 3202   1.487   3.433   2.508
 1080TIP3   OH2 3203   4.916   2.895   2.277
 1080TIP3    H1 3204   4.866   2.955   2.222
 1080TIP3    H2 3205   4.949   2.828   2.216
 1081TIP3   OH2 3206   1.372   3.548   1.725
 1081TIP3    H1 3207   1.419   3.630   1.738
 1081TIP3    H2 3208   1.403   3.515   1.641
 1082TIP3   OH2 3209   0.522   2.761   0.234
 1082TIP3    H1 3210   0.518   2.809   0.151
 1082TIP3    H2 3211   0.608   2.784   0.270
 1083TIP3   OH2 3212   5.892   4.236   0.120
 1083TIP3    H1 3213   5.803   4.255   0.151
 1083TIP3    H2 3214   5.882   4.227   0.025
 1084TIP3   OH2 3215   0.233   5.279   1.385
 1084TIP3    H1 3216   0.159   5.219   1.400
 1084TIP3    H2 3217   0.240   5.284   1.290
 1085TIP3   OH2 3218   6.676   4.669   2.873
 1085TIP3    H1 3219   6.620   4.715   2.811
 1085TIP3    H2 3220   6.657   4.709   2.958
 1086TIP3   OH2 3221   2.687   1.719   2.366
 1086TIP3    H1 3222   2.608   1.715   2.313
 1086TIP3    H2 3223   2.720   1.808   2.353
 1087TIP3   OH2 3224   6.372   5.171   1.826
 1087TIP3    H1 3225   6.331   5.211   1.902
 1087TIP3    H2 3226   6.442   5.232   1.801
 1088TIP3   OH2 3227   5.925   5.303   4.871
 1088TIP3    H1 3228   5.849   5.290   4.928
 1088TIP3    H2 3229   5.898   5.372   4.810
 1089TIP3   OH2 3230   6.787   2.040   5.351
 1089TIP3    H1 3231   6.858   2.093   5.386
 1089TIP3    H2 3232   6.736   2.014   5.427
 1090TIP3   OH2 3233   4.489   1.465   3.339
 1090TIP3    H1 3234   4.517   1.545   3.295
 1090TIP3    H2 3235   4.453   1.411   3.268
 1091TIP3   OH2 3236   6.636   4.617   4.094
 1091TIP3    H1 3237   6.544   4.629   4.118
 1091TIP3    H2 3238   6.658   4.530   4.126
 1092TIP3   OH2 3239   5.302   4.088   1.842
 1092TIP3    H1 3240   5.284   4.091   1.936
 1092TIP3    H2 3241   5.218   4.110   1.801
 1093TIP3   OH2 3242   4.083   2.960   5.504
 1093TIP3    H1 3243   4.090   2.866   5.487
 1093TIP3    H2 3244   4.174   2.988   5.515
 1094TIP3   OH2 3245   6.067   3.998   3.278
 1094TIP3    H1 3246   6.060   4.073   3.218
 1094TIP3    H2 3247   6.068   3.921   3.221
 1095TIP3   OH2 3248   3.662   4.423   3.684
 1095TIP3    H1 3249   3.615   4.387   3.758
 1095TIP3    H2 3250   3.712   4.348   3.649
 1096TIP3   OH2 3251   3.574   4.820   2.778
 1096TIP3    H1 3252   3.557   4.890   2.841
 1096TIP3    H2 3253   3.640   4.857   2.719
 1097TIP3   OH2 3254   2.216   0.664   0.478
 1097TIP3    H1 3255   2.177   0.583   0.513
 1097TIP3    H2 3256   2.299   0.672   0.524
 1098TIP3   OH2 3257   5.616   4.705   4.954
 1098TIP3    H1 3258   5.657   4.791   4.953
 1098TIP3    H2 3259   5.682   4.645   4.919
 1099TIP3   OH2 3260   1.874   6.313   4.105
 1099TIP3    H1 3261   1.898   6.266   4.025
 1099TIP3    H2 3262   1.958   6.335   4.145
 1100TIP3   OH2 3263   4.604   3.587   2.220
 1100TIP3    H1 3264   4.673   3.604   2.284
 1100TIP3    H2 3265   4.523   3.611   2.266
 1101TIP3   OH2 3266   3.527   0.996   3.216
 1101TIP3    H1 3267   3.512   1.070   3.274
 1101TIP3    H2 3268   3.568   0.929   3.271
 1102TIP3   OH2 3269   2.707   1.149   2.637
 1102TIP3    H1 3270   2.697   1.232   2.684
 1102TIP3    H2 3271   2.634   1.148   2.575
 1103TIP3   OH2 3272   0.303   4.372   4.673
 1103TIP3    H1 3273   0.255   4.394   4.752
 1103TIP3    H2 3274   0.358   4.449   4.656
 1104TIP3   OH2 3275   6.290   5.795   3.493
 1104TIP3    H1 3276   6.291   5.890   3.482
 1104TIP3    H2 3277   6.211   5.766   3.447
 1105TIP3   OH2 3278   1.489   5.845   3.953
 1105TIP3    H1 3279   1.432   5.868   3.880
 1105TIP3    H2 3280   1.578   5.852   3.918
 1106TIP3   OH2 3281   5.079   3.644   4.180
 1106TIP3    H1 3282   5.066   3.609   4.092
 1106TIP3    H2 3283   5.081   3.567   4.237
 1107TIP3   OH2 3284   3.512   1.425   4.810
 1107TIP3    H1 3285   3.453   1.437   4.885
 1107TIP3    H2 3286   3.600   1.440   4.846
 1108TIP3   OH2 3287   2.335   5.478   4.681
 1108TIP3    H1 3288   2.358   5.463   4.589
 1108TIP3    H2 3289   2.239   5.468   4.684
 1109TIP3   OH2 3290   1.124   5.315   2.837
 1109TIP3    H1 3291   1.029   5.304   2.843
 1109TIP3    H2 3292   1.140   5.404   2.867
 1110TIP3   OH2 3293   5.356   4.354   3.740
 1110TIP3    H1 3294   5.438   4.402   3.752
 1110TIP3    H2 3295   5.368   4.273   3.790
 1111TIP3   OH2 3296   4.543   5.445   0.870
 1111TIP3    H1 3297   4.478   5.397   0.819
 1111TIP3    H2 3298   4.609   5.380   0.893
 1112TIP3   OH2 3299   1.461   4.403   2.859
 1112TIP3    H1 3300   1.525   4.343   2.898
 1112TIP3    H2 3301   1.491   4.413   2.768
 1113TIP3   OH2 3302   5.202   2.361   1.099
 1113TIP3    H1 3303   5.181   2.313   1.179
 1113TIP3    H2 3304   5.268   2.425   1.126
 1114TIP3   OH2 3305   4.715   1.212   2.933
 1114TIP3    H1 3306   4.786   1.262   2.894
 1114TIP3    H2 3307   4.658   1.189   2.860
 1115TIP3   OH2 3308   2.068   4.082   3.823
 1115TIP3    H1 3309   2.112   4.147   3.768
 1115TIP3    H2 3310   2.137   4.050   3.881
 1116TIP3   OH2 3311   1.518   3.617   2.853
 1116TIP3    H1 3312   1.569   3.677   2.797
 1116TIP3    H2 3313   1.466   3.675   2.909
 1117TIP3   OH2 3314   2.622   3.420   4.471
 1117TIP3    H1 3315   2.717   3.415   4.483
 1117TIP3    H2 3316   2.608   3.390   4.381
 1118TIP3   OH2 3317   1.625   3.169   1.640
 1118TIP3    H1 3318   1.695   3.218   1.598
 1118TIP3    H2 3319   1.593   3.226   1.709
 1119TIP3   OH2 3320   1.269   1.940   2.415
 1119TIP3    H1 3321   1.295   1.850   2.434
 1119TIP3    H2 3322   1.178   1.946   2.447
 1120TIP3   OH2 3323   6.084   1.921   4.632
 1120TIP3    H1 3324   5.989   1.910   4.628
 1120TIP3    H2 3325   6.097   2.014   4.652
 1121TIP3   OH2 3326   6.978   5.954   0.711
 1121TIP3    H1 3327   6.889   5.951   0.675
 1121TIP3    H2 3328   7.033   5.914   0.643
 1122TIP3   OH2 3329   4.800   6.796   4.499
 1122TIP3    H1 3330   4.825   6.846   4.421
 1122TIP3    H2 3331   4.837   6.709   4.484
 1123TIP3   OH2 3332   2.307   0.599   1.481
 1123TIP3    H1 3333   2.242   0.648   1.431
 1123TIP3    H2 3334   2.274   0.601   1.571
 1124TIP3   OH2 3335   5.481   2.342   3.135
 1124TIP3    H1 3336   5.535   2.408   3.091
 1124TIP3    H2 3337   5.507   2.259   3.095
 1125TIP3   OH2 3338   4.228   1.024   5.616
 1125TIP3    H1 3339   4.185   1.061   5.693
 1125TIP3    H2 3340   4.241   1.099   5.558
 1126TIP3   OH2 3341   5.149   6.704   4.167
 1126TIP3    H1 3342   5.083   6.638   4.190
 1126TIP3    H2 3343   5.147   6.707   4.071
 1127TIP3   OH2 3344   5.918   2.670   0.838
 1127TIP3    H1 3345   5.945   2.754   0.875
 1127TIP3    H2 3346   5.976   2.657   0.764
 1128TIP3   OH2 3347   1.188   6.615   0.184
 1128TIP3    H1 3348   1.241   6.638   0.108
 1128TIP3    H2 3349   1.130   6.691   0.196
 1129TIP3   OH2 3350   3.039   0.963   4.075
 1129TIP3    H1 3351   2.984   1.012   4.013
 1129TIP3    H2 3352   2.987   0.886   4.098
 1130TIP3   OH2 3353   6.294   0.193   3.845
 1130TIP3    H1 3354   6.311   0.103   3.872
 1130TIP3    H2 3355   6.286   0.188   3.750
 1131TIP3   OH2 3356   4.345   1.769   1.167
 1131TIP3    H1 3357   4.307   1.685   1.139
 1131TIP3    H2 3358   4.276   1.808   1.221
 1132TIP3   OH2 3359   5.108   1.526   3.785
 1132TIP3    H1 3360   5.048   1.461   3.748
 1132TIP3    H2 3361   5.116   1.502   3.878
 1133TIP3   OH2 3362   6.981   2.989   0.613
 1133TIP3    H1 3363   6.969   3.082   0.593
 1133TIP3    H2 3364   6.897   2.961   0.649
 1134TIP3   OH2 3365   4.453   5.120   0.019
 1134TIP3    H1 3366   4.376   5.172  -0.005
 1134TIP3    H2 3367   4.463   5.133   0.113
 1135TIP3   OH2 3368   5.580   1.591   2.948
 1135TIP3    H1 3369   5.487   1.570   2.944
 1135TIP3    H2 3370   5.619   1.539   2.878
 1136TIP3   OH2 3371   1.276   6.122   4.096
 1136TIP3    H1 3372   1.293   6.028   4.090
 1136TIP3    H2 3373   1.290   6.143   4.189
 1137TIP3   OH2 3374   2.068   6.017   2.831
 1137TIP3    H1 3375   2.021   6.085   2.880
 1137TIP3    H2 3376   2.065   5.940   2.888
 1138TIP3   OH2 3377   5.697   1.595   1.438
 1138TIP3    H1 3378   5.760   1.531   1.405
 1138TIP3    H2 3379   5.731   1.621   1.524
 1139TIP3   OH2 3380   1.636   2.031   5.700
 1139TIP3    H1 3381   1.681   2.115   5.705
 1139TIP3    H2 3382   1.586   2.026   5.782
 1140TIP3   OH2 3383   2.552   6.116   2.359
 1140TIP3    H1 3384   2.529   6.196   2.312
 1140TIP3    H2 3385   2.514   6.046   2.307
 1141TIP3   OH2 3386   2.663   0.131   5.581
 1141TIP3    H1 3387   2.589   0.187   5.600
 1141TIP3    H2 3388   2.634   0.077   5.507
 1142TIP3   OH2 3389   1.523   0.601   5.559
 1142TIP3    H1 3390   1.458   0.541   5.522
 1142TIP3    H2 3391   1.479   0.686   5.561
 1143TIP3   OH2 3392   0.137   0.128   5.760
 1143TIP3    H1 3393   0.180   0.146   5.676
 1143TIP3    H2 3394   0.203   0.085   5.813
 1144TIP3   OH2 3395   1.460   0.988   2.441
 1144TIP3    H1 3396   1.556   0.994   2.437
 1144TIP3    H2 3397   1.442   0.939   2.521
 1145TIP3   OH2 3398   6.857   1.173   0.069
 1145TIP3    H1 3399   6.870   1.161  -0.025
 1145TIP3    H2 3400   6.826   1.088   0.100
 1146TIP3   OH2 3401   5.878   4.046   4.859
 1146TIP3    H1 3402   5.827   4.066   4.937
 1146TIP3    H2 3403   5.969   4.060   4.885
 1147TIP3   OH2 3404   0.735   3.478   1.197
 1147TIP3    H1 3405   0.726   3.422   1.274
 1147TIP3    H2 3406   0.718   3.567   1.229
 1148TIP3   OH2 3407   1.525   2.629   3.914
 1148TIP3    H1 3408   1.569   2.558   3.960
 1148TIP3    H2 3409   1.449   2.588   3.874
 1149TIP3   OH2 3410   0.731   5.276   4.914
 1149TIP3    H1 3411   0.650   5.280   4.863
 1149TIP3    H2 3412   0.796   5.320   4.858
 1150TIP3   OH2 3413   2.888   3.813   5.159
 1150TIP3    H1 3414   2.979   3.794   5.183
 1150TIP3    H2 3415   2.863   3.739   5.103
 1151TIP3   OH2 3416   3.681   3.304   2.687
 1151TIP3    H1 3417   3.628   3.335   2.760
 1151TIP3    H2 3418   3.770   3.331   2.710
 1152TIP3   OH2 3419   0.886   0.802   3.475
 1152TIP3    H1 3420   0.920   0.715   3.496
 1152TIP3    H2 3421   0.851   0.793   3.387
 1153TIP3   OH2 3422   4.718   1.839   4.475
 1153TIP3    H1 3423   4.748   1.899   4.543
 1153TIP3    H2 3424   4.625   1.825   4.495
 1154TIP3   OH2 3425   4.032   6.382   3.263
 1154TIP3    H1 3426   4.023   6.323   3.188
 1154TIP3    H2 3427   3.952   6.369   3.314
 1155TIP3   OH2 3428   3.176   3.041   3.101
 1155TIP3    H1 3429   3.269   3.036   3.121
 1155TIP3    H2 3430   3.153   2.953   3.071
 1156TIP3   OH2 3431   7.027   0.290   0.586
 1156TIP3    H1 3432   7.081   0.342   0.645
 1156TIP3    H2 3433   7.073   0.207   0.577
 1157TIP3   OH2 3434   1.301   1.286   4.386
 1157TIP3    H1 3435   1.279   1.332   4.466
 1157TIP3    H2 3436   1.362   1.344   4.340
 1158TIP3   OH2 3437   4.939   4.736   3.165
 1158TIP3    H1 3438   4.941   4.830   3.151
 1158TIP3    H2 3439   5.007   4.720   3.231
 1159TIP3   OH2 3440   0.255   5.264   1.667
 1159TIP3    H1 3441   0.280   5.261   1.574
 1159TIP3    H2 3442   0.181   5.204   1.673
 1160TIP3   OH2 3443   1.866   3.049   4.472
 1160TIP3    H1 3444   1.876   2.954   4.480
 1160TIP3    H2 3445   1.938   3.085   4.523
 1161TIP3   OH2 3446   3.705   2.629   1.526
 1161TIP3    H1 3447   3.616   2.617   1.492
 1161TIP3    H2 3448   3.701   2.710   1.576
 1162TIP3   OH2 3449   6.534   5.616   1.071
 1162TIP3    H1 3450   6.618   5.642   1.033
 1162TIP3    H2 3451   6.491   5.698   1.093
 1163TIP3   OH2 3452   1.748   4.854   5.452
 1163TIP3    H1 3453   1.839   4.881   5.451
 1163TIP3    H2 3454   1.733   4.818   5.365
 1164TIP3   OH2 3455   3.184   5.785   4.623
 1164TIP3    H1 3456   3.259   5.786   4.682
 1164TIP3    H2 3457   3.156   5.694   4.622
 1165TIP3   OH2 3458   1.946   3.389   0.318
 1165TIP3    H1 3459   1.966   3.482   0.328
 1165TIP3    H2 3460   1.855   3.381   0.348
 1166TIP3   OH2 3461   6.911   2.404   5.516
 1166TIP3    H1 3462   6.994   2.400   5.565
 1166TIP3    H2 3463   6.844   2.384   5.581
 1167TIP3   OH2 3464   0.081   2.096   0.736
 1167TIP3    H1 3465   0.125   2.012   0.752
 1167TIP3    H2 3466   0.047   2.089   0.647
 1168TIP3   OH2 3467   0.567   2.474   3.524
 1168TIP3    H1 3468   0.547   2.394   3.476
 1168TIP3    H2 3469   0.649   2.455   3.570
 1169TIP3   OH2 3470   5.001   3.193   1.063
 1169TIP3    H1 3471   5.003   3.259   0.994
 1169TIP3    H2 3472   4.939   3.128   1.032
 1170TIP3   OH2 3473   0.676   6.141   1.619
 1170TIP3    H1 3474   0.771   6.134   1.619
 1170TIP3    H2 3475   0.650   6.119   1.708
 1171TIP3   OH2 3476   5.541   0.742   2.942
 1171TIP3    H1 3477   5.600   0.763   3.015
 1171TIP3    H2 3478   5.591   0.682   2.887
 1172TIP3   OH2 3479   4.332   3.960   1.725
 1172TIP3    H1 3480   4.249   3.972   1.772
 1172TIP3    H2 3481   4.384   3.905   1.784
 1173TIP3   OH2 3482   3.265   0.748   0.918
 1173TIP3    H1 3483   3.210   0.709   0.987
 1173TIP3    H2 3484   3.224   0.719   0.837
 1174TIP3   OH2 3485   1.558   0.013   2.083
 1174TIP3    H1 3486   1.548  -0.058   2.146
 1174TIP3    H2 3487   1.588   0.087   2.135
 1175TIP3   OH2 3488   4.933   6.807   3.858
 1175TIP3    H1 3489   5.013   6.754   3.852
 1175TIP3    H2 3490   4.958   6.882   3.911
 1176TIP3   OH2 3491   2.747   5.140   4.028
 1176TIP3    H1 3492   2.722   5.141   3.936
 1176TIP3    H2 3493   2.742   5.048   4.053
 1177TIP3   OH2 3494   1.794   1.357   5.728
 1177TIP3    H1 3495   1.870   1.373   5.673
 1177TIP3    H2 3496   1.729   1.420   5.699
 1178TIP3   OH2 3497   6.900   5.029   3.777
 1178TIP3    H1 3498   6.891   5.039   3.872
 1178TIP3    H2 3499   6.948   5.107   3.750
 1179TIP3   OH2 3500   5.962   4.378   2.411
 1179TIP3    H1 3501   5.972   4.415   2.324
 1179TIP3    H2 3502   5.873   4.342   2.412
 1180TIP3   OH2 3503   0.930   5.834   2.663
 1180TIP3    H1 3504   0.936   5.915   2.714
 1180TIP3    H2 3505   1.015   5.793   2.673
 1181TIP3   OH2 3506   0.335   1.240   0.823
 1181TIP3    H1 3507   0.353   1.294   0.746
 1181TIP3    H2 3508   0.282   1.167   0.790
 1182TIP3   OH2 3509   0.252   1.681   4.578
 1182TIP3    H1 3510   0.210   1.729   4.507
 1182TIP3    H2 3511   0.256   1.591   4.546
 1183TIP3   OH2 3512   6.808   0.038   3.380
 1183TIP3    H1 3513   6.882   0.081   3.422
 1183TIP3    H2 3514   6.731   0.088   3.408
 1184TIP3   OH2 3515   5.410   0.849   0.247
 1184TIP3    H1 3516   5.331   0.863   0.299
 1184TIP3    H2 3517   5.436   0.758   0.267
 1185TIP3   OH2 3518   6.619   4.258   1.996
 1185TIP3    H1 3519   6.588   4.246   1.906
 1185TIP3    H2 3520   6.657   4.174   2.019
 1186TIP3   OH2 3521   2.036   6.292   5.611
 1186TIP3    H1 3522   2.102   6.362   5.616
 1186TIP3    H2 3523   2.049   6.242   5.692
 1187TIP3   OH2 3524   4.990   5.679   2.488
 1187TIP3    H1 3525   4.922   5.736   2.451
 1187TIP3    H2 3526   4.997   5.607   2.426
 1188TIP3   OH2 3527   5.568   2.513   2.294
 1188TIP3    H1 3528   5.621   2.574   2.242
 1188TIP3    H2 3529   5.599   2.426   2.270
 1189TIP3   OH2 3530   4.284   2.618   0.858
 1189TIP3    H1 3531   4.354   2.559   0.828
 1189TIP3    H2 3532   4.249   2.575   0.936
 1190TIP3   OH2 3533   2.006   1.482   0.378
 1190TIP3    H1 3534   2.037   1.521   0.296
 1190TIP3    H2 3535   2.084   1.475   0.433
 1191TIP3   OH2 3536   2.110   2.870   1.987
 1191TIP3    H1 3537   2.102   2.927   2.063
 1191TIP3    H2 3538   2.204   2.850   1.981
 1192TIP3   OH2 3539   6.027   3.575   2.358
 1192TIP3    H1 3540   6.094   3.527   2.405
 1192TIP3    H2 3541   5.949   3.570   2.414
 1193TIP3   OH2 3542   0.220   4.810   4.797
 1193TIP3    H1 3543   0.224   4.786   4.889
 1193TIP3    H2 3544   0.290   4.758   4.756
 1194TIP3   OH2 3545   4.899   1.431   0.040
 1194TIP3    H1 3546   4.986   1.393   0.030
 1194TIP3    H2 3547   4.884   1.478  -0.042
 1195TIP3   OH2 3548   4.885   1.525   2.743
 1195TIP3    H1 3549   4.791   1.518   2.726
 1195TIP3    H2 3550   4.909   1.611   2.710
 1196TIP3   OH2 3551   3.996   0.827   4.012
 1196TIP3    H1 3552   3.949   0.846   4.093
 1196TIP3    H2 3553   4.066   0.767   4.039
 1197TIP3   OH2 3554   2.227   3.073   0.857
 1197TIP3    H1 3555   2.242   3.028   0.773
 1197TIP3    H2 3556   2.315   3.085   0.894
 1198TIP3   OH2 3557   0.669   0.368   3.849
 1198TIP3    H1 3558   0.665   0.321   3.765
 1198TIP3    H2 3559   0.736   0.322   3.899
 1199TIP3   OH2 3560   0.099   4.473   0.420
 1199TIP3    H1 3561   0.178   4.471   0.366
 1199TIP3    H2 3562   0.036   4.419   0.372
 1200TIP3   OH2 3563   1.483   0.158   3.511
 1200TIP3    H1 3564   1.538   0.081   3.497
 1200TIP3    H2 3565   1.539   0.232   3.489
 1201TIP3   OH2 3566   3.809   2.853   3.765
 1201TIP3    H1 3567   3.716   2.876   3.761
 1201TIP3    H2 3568   3.842   2.899   3.842
 1202TIP3   OH2 3569   5.798   1.775   0.427
 1202TIP3    H1 3570   5.794   1.830   0.348
 1202TIP3    H2 3571   5.889   1.781   0.455
 1203TIP3   OH2 3572   3.665   4.083   0.693
 1203TIP3    H1 3573   3.581   4.059   0.732
 1203TIP3    H2 3574   3.654   4.067   0.600
 1204TIP3   OH2 3575   4.660   1.391   2.323
 1204TIP3    H1 3576   4.635   1.312   2.275
 1204TIP3    H2 3577   4.748   1.372   2.355
 1205TIP3   OH2 3578   7.127   4.209   3.589
 1205TIP3    H1 3579   7.076   4.271   3.538
 1205TIP3    H2 3580   7.063   4.145   3.621
 1206TIP3   OH2 3581   5.879   2.502   5.475
 1206TIP3    H1 3582   5.792   2.468   5.495
 1206TIP3    H2 3583   5.875   2.594   5.498
 1207TIP3   OH2 3584   7.082   6.176   0.825
 1207TIP3    H1 3585   7.038   6.247   0.778
 1207TIP3    H2 3586   7.051   6.096   0.783
 1208TIP3   OH2 3587   1.905   3.342   2.911
 1208TIP3    H1 3588   1.829   3.285   2.906
 1208TIP3    H2 3589   1.966   3.305   2.847
 1209TIP3   OH2 3590   7.203   3.270   0.238
 1209TIP3    H1 3591   7.225   3.344   0.182
 1209TIP3    H2 3592   7.259   3.278   0.314
 1210TIP3   OH2 3593   4.351   5.269   2.725
 1210TIP3    H1 3594   4.412   5.227   2.785
 1210TIP3    H2 3595   4.390   5.255   2.638
 1211TIP3   OH2 3596   2.459   2.573   1.955
 1211TIP3    H1 3597   2.410   2.541   1.879
 1211TIP3    H2 3598   2.550   2.551   1.936
 1212TIP3   OH2 3599   4.209   6.499   4.510
 1212TIP3    H1 3600   4.148   6.573   4.516
 1212TIP3    H2 3601   4.285   6.527   4.561
 1213TIP3   OH2 3602   6.825   5.711   4.573
 1213TIP3    H1 3603   6.867   5.755   4.647
 1213TIP3    H2 3604   6.839   5.618   4.590
 1214TIP3   OH2 3605   0.724   5.319   2.225
 1214TIP3    H1 3606   0.665   5.331   2.150
 1214TIP3    H2 3607   0.666   5.317   2.301
 1215TIP3   OH2 3608   5.918   2.882   0.250
 1215TIP3    H1 3609   5.888   2.793   0.235
 1215TIP3    H2 3610   6.013   2.876   0.250
 1216TIP3   OH2 3611   1.792   0.569   5.538
 1216TIP3    H1 3612   1.699   0.589   5.541
 1216TIP3    H2 3613   1.805   0.526   5.453
 1217TIP3   OH2 3614   5.576   0.663   0.526
 1217TIP3    H1 3615   5.561   0.626   0.613
 1217TIP3    H2 3616   5.637   0.736   0.542
 1218TIP3   OH2 3617   3.265   4.592   5.155
 1218TIP3    H1 3618   3.223   4.512   5.126
 1218TIP3    H2 3619   3.272   4.583   5.250
 1219TIP3   OH2 3620   4.769   1.944   4.194
 1219TIP3    H1 3621   4.720   1.927   4.275
 1219TIP3    H2 3622   4.710   1.998   4.142
 1220TIP3   OH2 3623   6.406   5.654   0.534
 1220TIP3    H1 3624   6.469   5.629   0.601
 1220TIP3    H2 3625   6.322   5.658   0.580
 1221TIP3   OH2 3626   3.762   2.872   2.725
 1221TIP3    H1 3627   3.727   2.931   2.658
 1221TIP3    H2 3628   3.714   2.895   2.805
 1222TIP3   OH2 3629   4.676   6.617   3.636
 1222TIP3    H1 3630   4.676   6.583   3.547
 1222TIP3    H2 3631   4.744   6.567   3.681
 1223TIP3   OH2 3632   2.604   6.729   4.613
 1223TIP3    H1 3633   2.649   6.671   4.552
 1223TIP3    H2 3634   2.547   6.671   4.664
 1224TIP3   OH2 3635   5.143   0.727   5.427
 1224TIP3    H1 3636   5.059   0.698   5.392
 1224TIP3    H2 3637   5.195   0.748   5.350
 1225TIP3   OH2 3638   6.487   6.126   3.015
 1225TIP3    H1 3639   6.521   6.037   3.027
 1225TIP3    H2 3640   6.501   6.168   3.100
 1226TIP3   OH2 3641   3.198   0.576   0.162
 1226TIP3    H1 3642   3.188   0.659   0.210
 1226TIP3    H2 3643   3.132   0.518   0.201
 1227TIP3   OH2 3644   1.364   6.181   1.314
 1227TIP3    H1 3645   1.420   6.136   1.250
 1227TIP3    H2 3646   1.422   6.198   1.388
 1228TIP3   OH2 3647   3.951   3.711   4.702
 1228TIP3    H1 3648   4.038   3.685   4.671
 1228TIP3    H2 3649   3.918   3.770   4.634
 1229TIP3   OH2 3650   0.376   1.504   4.893
 1229TIP3    H1 3651   0.296   1.453   4.906
 1229TIP3    H2 3652   0.345   1.594   4.883
 1230TIP3   OH2 3653   6.275   1.539   4.275
 1230TIP3    H1 3654   6.211   1.548   4.204
 1230TIP3    H2 3655   6.360   1.544   4.232
 1231TIP3   OH2 3656   1.649   3.184   0.323
 1231TIP3    H1 3657   1.559   3.173   0.355
 1231TIP3    H2 3658   1.656   3.277   0.301
 1232TIP3   OH2 3659   0.612   2.371   4.331
 1232TIP3    H1 3660   0.667   2.447   4.312
 1232TIP3    H2 3661   0.637   2.345   4.420
 1233TIP3   OH2 3662   6.144   1.008   5.756
 1233TIP3    H1 3663   6.180   1.042   5.838
 1233TIP3    H2 3664   6.127   1.086   5.703
 1234TIP3   OH2 3665   6.013   6.515   4.462
 1234TIP3    H1 3666   6.029   6.461   4.539
 1234TIP3    H2 3667   5.963   6.590   4.495
 1235TIP3   OH2 3668   0.237   0.474   4.889
 1235TIP3    H1 3669   0.283   0.551   4.856
 1235TIP3    H2 3670   0.261   0.403   4.829
 1236TIP3   OH2 3671   5.907   3.628   5.813
 1236TIP3    H1 3672   5.872   3.627   5.724
 1236TIP3    H2 3673   5.830   3.640   5.869
 1237TIP3   OH2 3674   1.901   3.775   4.588
 1237TIP3    H1 3675   1.988   3.737   4.597
 1237TIP3    H2 3676   1.914   3.869   4.600
 1238TIP3   OH2 3677   0.718   6.219   5.776
 1238TIP3    H1 3678   0.648   6.180   5.725
 1238TIP3    H2 3679   0.798   6.182   5.738
 1239TIP3   OH2 3680   5.179   3.554   2.758
 1239TIP3    H1 3681   5.215   3.600   2.682
 1239TIP3    H2 3682   5.181   3.462   2.734
 1240TIP3   OH2 3683   2.325   3.077   3.559
 1240TIP3    H1 3684   2.309   3.132   3.482
 1240TIP3    H2 3685   2.239   3.046   3.585
 1241TIP3   OH2 3686   0.180   3.598   2.618
 1241TIP3    H1 3687   0.223   3.658   2.557
 1241TIP3    H2 3688   0.100   3.570   2.573
 1242TIP3   OH2 3689   4.392   1.261   4.206
 1242TIP3    H1 3690   4.478   1.258   4.248
 1242TIP3    H2 3691   4.340   1.318   4.262
 1243TIP3   OH2 3692   4.706   3.188   3.046
 1243TIP3    H1 3693   4.741   3.229   3.126
 1243TIP3    H2 3694   4.684   3.099   3.073
 1244TIP3   OH2 3695   0.123   1.031   0.258
 1244TIP3    H1 3696   0.123   1.015   0.352
 1244TIP3    H2 3697   0.056   1.099   0.245
 1245TIP3   OH2 3698   5.770   2.373   4.630
 1245TIP3    H1 3699   5.744   2.281   4.632
 1245TIP3    H2 3700   5.807   2.389   4.717
 1246TIP3   OH2 3701   1.144   0.291   5.021
 1246TIP3    H1 3702   1.230   0.256   5.041
 1246TIP3    H2 3703   1.084   0.236   5.072
 1247TIP3   OH2 3704   1.142   2.872   4.361
 1247TIP3    H1 3705   1.084   2.877   4.437
 1247TIP3    H2 3706   1.230   2.867   4.398
 1248TIP3   OH2 3707   0.020   2.485   2.426
 1248TIP3    H1 3708  -0.028   2.451   2.502
 1248TIP3    H2 3709   0.098   2.525   2.463
 1249TIP3   OH2 3710   6.443   4.182   4.634
 1249TIP3    H1 3711   6.529   4.175   4.592
 1249TIP3    H2 3712   6.384   4.134   4.576
 1250TIP3   OH2 3713   3.640   2.545   2.328
 1250TIP3    H1 3714   3.576   2.498   2.276
 1250TIP3    H2 3715   3.589   2.611   2.375
 1251TIP3   OH2 3716   4.496   4.641   1.004
 1251TIP3    H1 3717   4.485   4.553   1.040
 1251TIP3    H2 3718   4.427   4.649   0.938
 1252TIP3   OH2 3719   3.079   3.909   4.825
 1252TIP3    H1 3720   3.164   3.867   4.836
 1252TIP3    H2 3721   3.060   3.948   4.910
 1253TIP3   OH2 3722   3.590   1.706   2.813
 1253TIP3    H1 3723   3.554   1.783   2.769
 1253TIP3    H2 3724   3.522   1.639   2.803
 1254TIP3   OH2 3725   2.028   5.961   3.235
 1254TIP3    H1 3726   1.934   5.953   3.219
 1254TIP3    H2 3727   2.044   5.908   3.313
 1255TIP3   OH2 3728   5.530   3.930   2.166
 1255TIP3    H1 3729   5.525   3.978   2.083
 1255TIP3    H2 3730   5.594   3.861   2.149
 1256TIP3   OH2 3731   1.441   6.208   3.173
 1256TIP3    H1 3732   1.495   6.242   3.244
 1256TIP3    H2 3733   1.381   6.147   3.216
 1257TIP3   OH2 3734   3.320   5.544   4.264
 1257TIP3    H1 3735   3.403   5.576   4.230
 1257TIP3    H2 3736   3.270   5.519   4.186
 1258TIP3   OH2 3737   3.147   1.550   1.705
 1258TIP3    H1 3738   3.103   1.611   1.645
 1258TIP3    H2 3739   3.240   1.568   1.693
 1259TIP3   OH2 3740   1.066   6.132   5.122
 1259TIP3    H1 3741   0.997   6.140   5.056
 1259TIP3    H2 3742   1.080   6.037   5.129
 1260TIP3   OH2 3743   2.599   5.100   1.504
 1260TIP3    H1 3744   2.573   5.078   1.594
 1260TIP3    H2 3745   2.534   5.164   1.476
 1261TIP3   OH2 3746   4.808   5.380   2.652
 1261TIP3    H1 3747   4.867   5.371   2.577
 1261TIP3    H2 3748   4.771   5.468   2.643
 1262TIP3   OH2 3749   4.208   3.038   3.196
 1262TIP3    H1 3750   4.147   2.965   3.210
 1262TIP3    H2 3751   4.199   3.060   3.104
 1263TIP3   OH2 3752   4.735   5.055   0.074
 1263TIP3    H1 3753   4.649   5.036   0.035
 1263TIP3    H2 3754   4.796   5.050   0.000
 1264TIP3   OH2 3755   5.122   5.931   2.563
 1264TIP3    H1 3756   5.077   5.995   2.507
 1264TIP3    H2 3757   5.082   5.847   2.539
 1265TIP3   OH2 3758   2.393   1.262   1.473
 1265TIP3    H1 3759   2.393   1.288   1.565
 1265TIP3    H2 3760   2.470   1.307   1.436
 1266TIP3   OH2 3761   4.522   2.634   0.580
 1266TIP3    H1 3762   4.612   2.613   0.555
 1266TIP3    H2 3763   4.476   2.550   0.579
 1267TIP3   OH2 3764   3.376   2.849   5.442
 1267TIP3    H1 3765   3.327   2.928   5.420
 1267TIP3    H2 3766   3.312   2.792   5.486
 1268TIP3   OH2 3767   4.377   3.970   0.158
 1268TIP3    H1 3768   4.469   3.958   0.137
 1268TIP3    H2 3769   4.355   4.056   0.122
 1269TIP3   OH2 3770   1.611   6.731   3.110
 1269TIP3    H1 3771   1.586   6.792   3.179
 1269TIP3    H2 3772   1.550   6.657   3.121
 1270TIP3   OH2 3773   1.416   5.255   3.071
 1270TIP3    H1 3774   1.480   5.299   3.015
 1270TIP3    H2 3775   1.449   5.269   3.160
 1271TIP3   OH2 3776   5.348   6.395   1.163
 1271TIP3    H1 3777   5.309   6.466   1.111
 1271TIP3    H2 3778   5.316   6.411   1.252
 1272TIP3   OH2 3779   6.318   0.341   1.757
 1272TIP3    H1 3780   6.304   0.367   1.848
 1272TIP3    H2 3781   6.289   0.416   1.706
 1273TIP3   OH2 3782   2.171   6.809   4.936
 1273TIP3    H1 3783   2.114   6.743   4.896
 1273TIP3    H2 3784   2.251   6.805   4.884
 1274TIP3   OH2 3785   6.797   1.609   1.897
 1274TIP3    H1 3786   6.787   1.701   1.873
 1274TIP3    H2 3787   6.724   1.591   1.956
 1275TIP3   OH2 3788   4.973   3.107   4.072
 1275TIP3    H1 3789   5.021   3.065   4.143
 1275TIP3    H2 3790   4.954   3.035   4.011
 1276TIP3   OH2 3791   0.403   3.419   2.428
 1276TIP3    H1 3792   0.443   3.377   2.504
 1276TIP3    H2 3793   0.386   3.509   2.456
 1277TIP3   OH2 3794   6.073   0.083   3.208
 1277TIP3    H1 3795   6.059   0.175   3.189
 1277TIP3    H2 3796   6.006   0.062   3.273
 1278TIP3   OH2 3797   0.867   0.041   2.032
 1278TIP3    H1 3798   0.808  -0.006   2.091
 1278TIP3    H2 3799   0.892   0.119   2.081
 1279TIP3   OH2 3800   3.378   0.711   2.180
 1279TIP3    H1 3801   3.313   0.758   2.127
 1279TIP3    H2 3802   3.335   0.629   2.204
 1280TIP3   OH2 3803   4.007   4.572   3.426
 1280TIP3    H1 3804   3.974   4.482   3.432
 1280TIP3    H2 3805   4.053   4.575   3.342
 1281TIP3   OH2 3806   2.579   6.293   3.607
 1281TIP3    H1 3807   2.528   6.366   3.573
 1281TIP3    H2 3808   2.563   6.222   3.544
 1282TIP3   OH2 3809   6.067   4.144   3.939
 1282TIP3    H1 3810   6.005   4.200   3.894
 1282TIP3    H2 3811   6.151   4.163   3.898
 1283TIP3   OH2 3812   3.921   0.501   3.199
 1283TIP3    H1 3813   4.005   0.477   3.159
 1283TIP3    H2 3814   3.913   0.442   3.274
 1284TIP3   OH2 3815   3.575   4.416   2.839
 1284TIP3    H1 3816   3.654   4.469   2.826
 1284TIP3    H2 3817   3.594   4.364   2.918
 1285TIP3   OH2 3818   7.112   1.449   3.938
 1285TIP3    H1 3819   7.087   1.437   4.029
 1285TIP3    H2 3820   7.175   1.522   3.940
 1286TIP3   OH2 3821   6.678   1.376   4.168
 1286TIP3    H1 3822   6.727   1.393   4.248
 1286TIP3    H2 3823   6.737   1.323   4.114
 1287TIP3   OH2 3824   4.201   0.084   5.245
 1287TIP3    H1 3825   4.185   0.127   5.328
 1287TIP3    H2 3826   4.241   0.000   5.268
 1288TIP3   OH2 3827   1.599   1.611   3.497
 1288TIP3    H1 3828   1.630   1.578   3.581
 1288TIP3    H2 3829   1.559   1.696   3.518
 1289TIP3   OH2 3830   3.895   6.031   2.849
 1289TIP3    H1 3831   3.885   6.106   2.791
 1289TIP3    H2 3832   3.844   5.961   2.807
 1290TIP3   OH2 3833   6.421   2.223   1.072
 1290TIP3    H1 3834   6.398   2.280   1.145
 1290TIP3    H2 3835   6.438   2.283   1.000
 1291TIP3   OH2 3836   0.443   2.068   2.743
 1291TIP3    H1 3837   0.414   2.112   2.823
 1291TIP3    H2 3838   0.366   2.070   2.686
 1292TIP3   OH2 3839   0.477   4.590   1.689
 1292TIP3    H1 3840   0.521   4.516   1.730
 1292TIP3    H2 3841   0.453   4.647   1.762
 1293TIP3   OH2 3842   2.769   2.570   3.129
 1293TIP3    H1 3843   2.692   2.563   3.073
 1293TIP3    H2 3844   2.840   2.530   3.078
 1294TIP3   OH2 3845   5.980   1.778   5.405
 1294TIP3    H1 3846   5.997   1.696   5.359
 1294TIP3    H2 3847   6.022   1.845   5.351
 1295TIP3   OH2 3848   3.648   0.596   1.476
 1295TIP3    H1 3849   3.742   0.614   1.484
 1295TIP3    H2 3850   3.621   0.572   1.565
 1296TIP3   OH2 3851   1.122   5.743   4.556
 1296TIP3    H1 3852   1.177   5.820   4.547
 1296TIP3    H2 3853   1.183   5.670   4.566
 1297TIP3   OH2 3854   5.326   1.243   3.619
 1297TIP3    H1 3855   5.297   1.176   3.680
 1297TIP3    H2 3856   5.249   1.300   3.607
 1298TIP3   OH2 3857   4.260   3.412   3.115
 1298TIP3    H1 3858   4.268   3.365   3.198
 1298TIP3    H2 3859   4.285   3.502   3.135
 1299TIP3   OH2 3860   6.284  -0.019   2.792
 1299TIP3    H1 3861   6.349  -0.012   2.861
 1299TIP3    H2 3862   6.201   0.006   2.834
 1300TIP3   OH2 3863   4.173   2.208   2.595
 1300TIP3    H1 3864   4.098   2.268   2.593
 1300TIP3    H2 3865   4.168   2.161   2.512
 1301TIP3   OH2 3866   3.271   6.069   4.833
 1301TIP3    H1 3867   3.286   6.052   4.740
 1301TIP3    H2 3868   3.357   6.060   4.873
 1302TIP3   OH2 3869   5.917   6.517   3.452
 1302TIP3    H1 3870   5.917   6.427   3.484
 1302TIP3    H2 3871   5.828   6.530   3.418
 1303TIP3   OH2 3872   4.713   3.716   4.085
 1303TIP3    H1 3873   4.650   3.648   4.112
 1303TIP3    H2 3874   4.696   3.789   4.145
 1304TIP3   OH2 3875   5.088   0.146   2.624
 1304TIP3    H1 3876   5.118   0.184   2.706
 1304TIP3    H2 3877   5.047   0.219   2.577
 1305TIP3   OH2 3878   3.594   6.291   4.731
 1305TIP3    H1 3879   3.532   6.227   4.694
 1305TIP3    H2 3880   3.613   6.349   4.657
 1306TIP3   OH2 3881   0.135   6.461   4.390
 1306TIP3    H1 3882   0.154   6.448   4.483
 1306TIP3    H2 3883   0.040   6.447   4.384
 1307TIP3   OH2 3884   0.417   5.244   1.048
 1307TIP3    H1 3885   0.456   5.234   0.961
 1307TIP3    H2 3886   0.480   5.296   1.097
 1308TIP3   OH2 3887   1.056   1.272   2.149
 1308TIP3    H1 3888   1.028   1.181   2.159
 1308TIP3    H2 3889   1.097   1.275   2.062
 1309TIP3   OH2 3890   5.230   2.499   0.680
 1309TIP3    H1 3891   5.280   2.552   0.742
 1309TIP3    H2 3892   5.179   2.440   0.736
 1310TIP3   OH2 3893   5.390   4.078   4.742
 1310TIP3    H1 3894   5.385   4.130   4.662
 1310TIP3    H2 3895   5.391   3.987   4.712
 1311TIP3   OH2 3896   0.033   0.930   1.929
 1311TIP3    H1 3897   0.029   0.994   2.000
 1311TIP3    H2 3898   0.107   0.874   1.951
 1312TIP3   OH2 3899   2.432   5.847   0.244
 1312TIP3    H1 3900   2.480   5.764   0.236
 1312TIP3    H2 3901   2.443   5.889   0.159
 1313TIP3   OH2 3902   1.576   2.231   3.528
 1313TIP3    H1 3903   1.662   2.217   3.487
 1313TIP3    H2 3904   1.546   2.315   3.495
 1314TIP3   OH2 3905   5.851   0.082   2.343
 1314TIP3    H1 3906   5.787   0.127   2.288
 1314TIP3    H2 3907   5.879   0.007   2.291
 1315TIP3   OH2 3908   3.431   3.043   1.034
 1315TIP3    H1 3909   3.410   3.104   0.963
 1315TIP3    H2 3910   3.383   3.076   1.110
 1316TIP3   OH2 3911   1.164   5.384   3.218
 1316TIP3    H1 3912   1.137   5.297   3.250
 1316TIP3    H2 3913   1.231   5.365   3.152
 1317TIP3   OH2 3914   5.108   0.072   1.909
 1317TIP3    H1 3915   5.168   0.030   1.847
 1317TIP3    H2 3916   5.082   0.153   1.866
 1318TIP3   OH2 3917   0.874   1.185   1.148
 1318TIP3    H1 3918   0.826   1.107   1.121
 1318TIP3    H2 3919   0.806   1.250   1.167
 1319TIP3   OH2 3920   6.582   4.473   0.570
 1319TIP3    H1 3921   6.590   4.501   0.478
 1319TIP3    H2 3922   6.603   4.379   0.567
 1320TIP3   OH2 3923   3.365   5.953   5.372
 1320TIP3    H1 3924   3.403   5.914   5.294
 1320TIP3    H2 3925   3.336   6.040   5.344
 1321TIP3   OH2 3926   6.066   6.104   3.187
 1321TIP3    H1 3927   5.990   6.111   3.129
 1321TIP3    H2 3928   6.139   6.136   3.134
 1322TIP3   OH2 3929   5.595   4.590   2.967
 1322TIP3    H1 3930   5.663   4.655   2.986
 1322TIP3    H2 3931   5.597   4.581   2.872
 1323TIP3   OH2 3932   2.317   0.236   0.889
 1323TIP3    H1 3933   2.401   0.251   0.845
 1323TIP3    H2 3934   2.334   0.252   0.982
 1324TIP3   OH2 3935   1.347   4.053   4.290
 1324TIP3    H1 3936   1.417   4.117   4.272
 1324TIP3    H2 3937   1.268   4.107   4.301
 1325TIP3   OH2 3938   2.355   4.849   2.162
 1325TIP3    H1 3939   2.279   4.878   2.111
 1325TIP3    H2 3940   2.317   4.799   2.234
 1326TIP3   OH2 3941   3.426   5.119   5.083
 1326TIP3    H1 3942   3.481   5.041   5.092
 1326TIP3    H2 3943   3.485   5.193   5.096
 1327TIP3   OH2 3944   4.983   0.869   3.050
 1327TIP3    H1 3945   5.065   0.867   3.100
 1327TIP3    H2 3946   4.915   0.855   3.116
 1328TIP3   OH2 3947   1.554   1.923   0.939
 1328TIP3    H1 3948   1.596   1.961   0.862
 1328TIP3    H2 3949   1.460   1.933   0.922
 1329TIP3   OH2 3950   5.657   0.829   3.213
 1329TIP3    H1 3951   5.727   0.834   3.148
 1329TIP3    H2 3952   5.698   0.788   3.289
 1330TIP3   OH2 3953   6.570   4.586   4.655
 1330TIP3    H1 3954   6.617   4.522   4.709
 1330TIP3    H2 3955   6.580   4.669   4.702
 1331TIP3   OH2 3956   1.600   4.877   0.011
 1331TIP3    H1 3957   1.668   4.934   0.048
 1331TIP3    H2 3958   1.647   4.818  -0.047
 1332TIP3   OH2 3959   2.703   2.915   1.207
 1332TIP3    H1 3960   2.747   2.834   1.180
 1332TIP3    H2 3961   2.750   2.942   1.286
 1333TIP3   OH2 3962   0.461   5.971   4.439
 1333TIP3    H1 3963   0.445   5.974   4.344
 1333TIP3    H2 3964   0.391   6.024   4.477
 1334TIP3   OH2 3965   4.875   5.266   3.490
 1334TIP3    H1 3966   4.780   5.258   3.499
 1334TIP3    H2 3967   4.908   5.179   3.508
 1335TIP3   OH2 3968   1.943   0.238   5.058
 1335TIP3    H1 3969   1.956   0.148   5.028
 1335TIP3    H2 3970   1.962   0.292   4.980
 1336TIP3   OH2 3971   4.737   4.787   4.623
 1336TIP3    H1 3972   4.764   4.799   4.714
 1336TIP3    H2 3973   4.699   4.699   4.620
 1337TIP3   OH2 3974   2.922   3.370   1.572
 1337TIP3    H1 3975   2.851   3.412   1.622
 1337TIP3    H2 3976   2.968   3.317   1.637
 1338TIP3   OH2 3977   0.292   3.788   3.053
 1338TIP3    H1 3978   0.330   3.873   3.033
 1338TIP3    H2 3979   0.266   3.795   3.145
 1339TIP3   OH2 3980   6.753   5.089   5.711
 1339TIP3    H1 3981   6.846   5.083   5.690
 1339TIP3    H2 3982   6.719   5.001   5.691
 1340TIP3   OH2 3983   6.340   6.596   3.367
 1340TIP3    H1 3984   6.418   6.650   3.370
 1340TIP3    H2 3985   6.273   6.651   3.327
 1341TIP3   OH2 3986   1.751   0.741   0.677
 1341TIP3    H1 3987   1.789   0.804   0.739
 1341TIP3    H2 3988   1.749   0.788   0.594
 1342TIP3   OH2 3989   4.737   2.643   1.423
 1342TIP3    H1 3990   4.731   2.548   1.434
 1342TIP3    H2 3991   4.797   2.655   1.350
 1343TIP3   OH2 3992   1.979   0.166   4.460
 1343TIP3    H1 3993   2.011   0.223   4.390
 1343TIP3    H2 3994   2.055   0.149   4.514
 1344TIP3   OH2 3995   5.758   5.584   0.044
 1344TIP3    H1 3996   5.788   5.646   0.110
 1344TIP3    H2 3997   5.787   5.621  -0.039
 1345TIP3   OH2 3998   0.584   4.972   5.273
 1345TIP3    H1 3999   0.515   4.983   5.338
 1345TIP3    H2 4000   0.620   5.060   5.261
 1346TIP3   OH2 4001   6.464   0.450   5.343
 1346TIP3    H1 4002   6.435   0.467   5.254
 1346TIP3    H2 4003   6.517   0.526   5.366
 1347TIP3   OH2 4004   0.463   1.120   2.100
 1347TIP3    H1 4005   0.481   1.206   2.062
 1347TIP3    H2 4006   0.506   1.122   2.185
 1348TIP3   OH2 4007   7.247   6.160   0.389
 1348TIP3    H1 4008   7.197   6.162   0.307
 1348TIP3    H2 4009   7.194   6.209   0.451
 1349TIP3   OH2 4010   5.338   3.451   1.248
 1349TIP3    H1 4011   5.393   3.486   1.319
 1349TIP3    H2 4012   5.391   3.380   1.211
 1350TIP3   OH2 4013   5.747   1.933   2.573
 1350TIP3    H1 4014   5.736   1.989   2.650
 1350TIP3    H2 4015   5.841   1.940   2.552
 1351TIP3   OH2 4016   5.425   0.789   2.079
 1351TIP3    H1 4017   5.387   0.863   2.128
 1351TIP3    H2 4018   5.383   0.712   2.117
 1352TIP3   OH2 4019   4.683   4.278   2.086
 1352TIP3    H1 4020   4.723   4.365   2.078
 1352TIP3    H2 4021   4.607   4.281   2.028
 1353TIP3   OH2 4022   0.270   1.685   5.302
 1353TIP3    H1 4023   0.271   1.727   5.216
 1353TIP3    H2 4024   0.347   1.628   5.301
 1354TIP3   OH2 4025   2.780   4.228   5.130
 1354TIP3    H1 4026   2.814   4.306   5.174
 1354TIP3    H2 4027   2.688   4.224   5.155
 1355TIP3   OH2 4028   2.093   3.268   0.722
 1355TIP3    H1 4029   2.143   3.201   0.767
 1355TIP3    H2 4030   2.066   3.227   0.640
 1356TIP3   OH2 4031   6.562   5.832   3.406
 1356TIP3    H1 4032   6.595   5.755   3.360
 1356TIP3    H2 4033   6.473   5.808   3.432
 1357TIP3   OH2 4034   3.012   2.087   2.188
 1357TIP3    H1 4035   3.076   2.045   2.245
 1357TIP3    H2 4036   2.993   2.022   2.120
 1358TIP3   OH2 4037   2.579   4.898   0.546
 1358TIP3    H1 4038   2.598   4.972   0.604
 1358TIP3    H2 4039   2.601   4.930   0.458
 1359TIP3   OH2 4040   2.901   4.573   0.238
 1359TIP3    H1 4041   2.853   4.508   0.289
 1359TIP3    H2 4042   2.977   4.594   0.293
 1360TIP3   OH2 4043   1.755   4.107   0.525
 1360TIP3    H1 4044   1.782   4.168   0.456
 1360TIP3    H2 4045   1.787   4.022   0.495
 1361TIP3   OH2 4046   1.645   3.988   1.207
 1361TIP3    H1 4047   1.638   4.065   1.150
 1361TIP3    H2 4048   1.582   4.004   1.277
 1362TIP3   OH2 4049   4.565   2.467   2.974
 1362TIP3    H1 4050   4.518   2.416   3.040
 1362TIP3    H2 4051   4.583   2.405   2.903
 1363TIP3   OH2 4052   2.757   4.142   2.260
 1363TIP3    H1 4053   2.719   4.106   2.180
 1363TIP3    H2 4054   2.757   4.069   2.322
 1364TIP3   OH2 4055   0.166   1.327   2.463
 1364TIP3    H1 4056   0.232   1.339   2.532
 1364TIP3    H2 4057   0.217   1.322   2.383
 1365TIP3   OH2 4058   2.026   2.662   0.183
 1365TIP3    H1 4059   2.085   2.710   0.124
 1365TIP3    H2 4060   1.994   2.588   0.130
 1366TIP3   OH2 4061   1.022   5.452   1.827
 1366TIP3    H1 4062   0.950   5.392   1.807
 1366TIP3    H2 4063   1.100   5.409   1.793
 1367TIP3   OH2 4064   4.837   0.984   1.908
 1367TIP3    H1 4065   4.865   0.926   1.838
 1367TIP3    H2 4066   4.914   0.993   1.964
 1368TIP3   OH2 4067   1.113   1.285   1.194
 1368TIP3    H1 4068   1.171   1.226   1.146
 1368TIP3    H2 4069   1.026   1.246   1.185
 1369TIP3   OH2 4070   1.721   0.930   1.247
 1369TIP3    H1 4071   1.699   1.007   1.194
 1369TIP3    H2 4072   1.758   0.967   1.328
 1370TIP3   OH2 4073   6.516   5.674   4.562
 1370TIP3    H1 4074   6.445   5.734   4.543
 1370TIP3    H2 4075   6.564   5.715   4.634
 1371TIP3   OH2 4076   2.062   5.420   5.057
 1371TIP3    H1 4077   2.052   5.360   4.983
 1371TIP3    H2 4078   1.979   5.415   5.105
 1372TIP3   OH2 4079   0.274   2.138   4.248
 1372TIP3    H1 4080   0.369   2.143   4.257
 1372TIP3    H2 4081   0.246   2.083   4.322
 1373TIP3   OH2 4082   3.698   3.044   4.266
 1373TIP3    H1 4083   3.773   3.102   4.250
 1373TIP3    H2 4084   3.622   3.095   4.237
 1374TIP3   OH2 4085   3.775   6.468   2.032
 1374TIP3    H1 4086   3.712   6.524   1.987
 1374TIP3    H2 4087   3.825   6.527   2.088
 1375TIP3   OH2 4088   3.852   5.861   4.617
 1375TIP3    H1 4089   3.907   5.935   4.590
 1375TIP3    H2 4090   3.910   5.785   4.611
 1376TIP3   OH2 4091   7.064   2.872   3.083
 1376TIP3    H1 4092   7.042   2.929   3.009
 1376TIP3    H2 4093   6.992   2.884   3.144
 1377TIP3   OH2 4094   4.334   1.896   4.874
 1377TIP3    H1 4095   4.397   1.882   4.945
 1377TIP3    H2 4096   4.249   1.903   4.917
 1378TIP3   OH2 4097   1.361   6.559   1.104
 1378TIP3    H1 4098   1.444   6.532   1.065
 1378TIP3    H2 4099   1.385   6.593   1.191
 1379TIP3   OH2 4100   1.341   2.846   4.735
 1379TIP3    H1 4101   1.358   2.940   4.728
 1379TIP3    H2 4102   1.250   2.836   4.705
 1380TIP3   OH2 4103   2.218   6.760   5.766
 1380TIP3    H1 4104   2.185   6.768   5.676
 1380TIP3    H2 4105   2.292   6.821   5.770
 1381TIP3   OH2 4106   6.591   0.028   3.781
 1381TIP3    H1 4107   6.583   0.118   3.749
 1381TIP3    H2 4108   6.629  -0.020   3.708
 1382TIP3   OH2 4109   4.186   5.569   3.694
 1382TIP3    H1 4110   4.142   5.564   3.779
 1382TIP3    H2 4111   4.248   5.641   3.704
 1383TIP3   OH2 4112   3.475   6.773   5.271
 1383TIP3    H1 4113   3.449   6.746   5.360
 1383TIP3    H2 4114   3.506   6.692   5.230
 1384TIP3   OH2 4115   2.227   2.329   3.305
 1384TIP3    H1 4116   2.269   2.276   3.373
 1384TIP3    H2 4117   2.298   2.377   3.264
 1385TIP3   OH2 4118   0.865   4.331   0.660
 1385TIP3    H1 4119   0.877   4.293   0.746
 1385TIP3    H2 4120   0.869   4.257   0.600
 1386TIP3   OH2 4121   6.792   3.135   1.787
 1386TIP3    H1 4122   6.732   3.060   1.781
 1386TIP3    H2 4123   6.857   3.108   1.852
 1387TIP3   OH2 4124   0.847   4.781   1.238
 1387TIP3    H1 4125   0.776   4.747   1.183
 1387TIP3    H2 4126   0.922   4.785   1.179
 1388TIP3   OH2 4127   4.061   3.450   0.362
 1388TIP3    H1 4128   4.035   3.518   0.424
 1388TIP3    H2 4129   4.039   3.368   0.406
 1389TIP3   OH2 4130   1.808   2.262   5.654
 1389TIP3    H1 4131   1.786   2.306   5.572
 1389TIP3    H2 4132   1.903   2.262   5.657
 1390TIP3   OH2 4133   4.737   3.258   5.380
 1390TIP3    H1 4134   4.770   3.307   5.455
 1390TIP3    H2 4135   4.815   3.217   5.342
 1391TIP3   OH2 4136   6.549   4.809   1.367
 1391TIP3    H1 4137   6.498   4.830   1.289
 1391TIP3    H2 4138   6.549   4.890   1.418
 1392TIP3   OH2 4139   3.408   5.190   0.302
 1392TIP3    H1 4140   3.423   5.244   0.380
 1392TIP3    H2 4141   3.495   5.164   0.274
 1393TIP3   OH2 4142   3.106   3.390   2.079
 1393TIP3    H1 4143   3.025   3.437   2.059
 1393TIP3    H2 4144   3.172   3.459   2.091
 1394TIP3   OH2 4145   3.610   5.934   4.524
 1394TIP3    H1 4146   3.691   5.886   4.540
 1394TIP3    H2 4147   3.570   5.891   4.448
 1395TIP3   OH2 4148   1.456   0.673   1.397
 1395TIP3    H1 4149   1.459   0.643   1.487
 1395TIP3    H2 4150   1.523   0.621   1.352
 1396TIP3   OH2 4151   0.959   0.290   2.160
 1396TIP3    H1 4152   0.980   0.335   2.078
 1396TIP3    H2 4153   1.044   0.266   2.197
 1397TIP3   OH2 4154   1.530   6.679   1.317
 1397TIP3    H1 4155   1.585   6.603   1.335
 1397TIP3    H2 4156   1.508   6.715   1.403
 1398TIP3   OH2 4157   5.212   1.190   0.221
 1398TIP3    H1 4158   5.205   1.106   0.265
 1398TIP3    H2 4159   5.165   1.251   0.278
 1399TIP3   OH2 4160   1.524   0.664   4.061
 1399TIP3    H1 4161   1.567   0.745   4.034
 1399TIP3    H2 4162   1.577   0.595   4.023
 1400TIP3   OH2 4163   6.983   5.979   1.400
 1400TIP3    H1 4164   6.900   5.980   1.353
 1400TIP3    H2 4165   7.029   5.902   1.365
 1401TIP3   OH2 4166   5.306   5.757   4.328
 1401TIP3    H1 4167   5.269   5.815   4.395
 1401TIP3    H2 4168   5.350   5.688   4.378
 1402TIP3   OH2 4169   4.108   1.131   1.395
 1402TIP3    H1 4170   4.122   1.217   1.354
 1402TIP3    H2 4171   4.034   1.094   1.346
 1403TIP3   OH2 4172   4.435   6.677   4.265
 1403TIP3    H1 4173   4.346   6.672   4.231
 1403TIP3    H2 4174   4.455   6.771   4.265
 1404TIP3   OH2 4175   1.833   6.356   5.164
 1404TIP3    H1 4176   1.817   6.325   5.253
 1404TIP3    H2 4177   1.755   6.407   5.142
 1405TIP3   OH2 4178   6.073   2.994   2.906
 1405TIP3    H1 4179   6.107   2.926   2.848
 1405TIP3    H2 4180   6.137   2.999   2.978
 1406TIP3   OH2 4181   6.810   1.069   4.305
 1406TIP3    H1 4182   6.893   1.059   4.259
 1406TIP3    H2 4183   6.776   1.154   4.275
 1407TIP3   OH2 4184   3.719   2.660   0.762
 1407TIP3    H1 4185   3.758   2.627   0.681
 1407TIP3    H2 4186   3.707   2.582   0.816
 1408TIP3   OH2 4187   2.926   3.526   5.300
 1408TIP3    H1 4188   2.830   3.532   5.297
 1408TIP3    H2 4189   2.947   3.452   5.243
 1409TIP3   OH2 4190   5.465   5.021   1.094
 1409TIP3    H1 4191   5.507   4.941   1.125
 1409TIP3    H2 4192   5.481   5.020   0.999
 1410TIP3   OH2 4193   0.789   4.038   5.431
 1410TIP3    H1 4194   0.824   4.126   5.419
 1410TIP3    H2 4195   0.698   4.051   5.457
 1411TIP3   OH2 4196   4.163   5.398   1.841
 1411TIP3    H1 4197   4.146   5.312   1.880
 1411TIP3    H2 4198   4.078   5.427   1.809
 1412TIP3   OH2 4199   2.324   3.222   4.980
 1412TIP3    H1 4200   2.282   3.187   5.059
 1412TIP3    H2 4201   2.380   3.150   4.950
 1413TIP3   OH2 4202   2.970   6.503   4.918
 1413TIP3    H1 4203   2.979   6.485   4.825
 1413TIP3    H2 4204   2.982   6.598   4.926
 1414TIP3   OH2 4205   1.338   1.194   0.407
 1414TIP3    H1 4206   1.318   1.107   0.372
 1414TIP3    H2 4207   1.294   1.255   0.349
 1415TIP3   OH2 4208   0.896   2.130   5.893
 1415TIP3    H1 4209   0.809   2.129   5.851
 1415TIP3    H2 4210   0.957   2.149   5.822
 1416TIP3   OH2 4211   6.679   3.382   4.685
 1416TIP3    H1 4212   6.602   3.399   4.740
 1416TIP3    H2 4213   6.644   3.376   4.596
 1417TIP3   OH2 4214   3.115   3.619   5.115
 1417TIP3    H1 4215   3.187   3.683   5.107
 1417TIP3    H2 4216   3.134   3.553   5.048
 1418TIP3   OH2 4217   4.320   0.002   1.668
 1418TIP3    H1 4218   4.362   0.087   1.661
 1418TIP3    H2 4219   4.379  -0.058   1.622
 1419TIP3   OH2 4220   0.985   2.974   0.689
 1419TIP3    H1 4221   0.960   3.062   0.662
 1419TIP3    H2 4222   0.902   2.929   0.705
 1420TIP3   OH2 4223   0.055   6.499   2.006
 1420TIP3    H1 4224   0.148   6.486   1.988
 1420TIP3    H2 4225   0.034   6.434   2.073
 1421TIP3   OH2 4226   1.391   6.008   2.156
 1421TIP3    H1 4227   1.450   6.060   2.101
 1421TIP3    H2 4228   1.363   6.068   2.225
 1422TIP3   OH2 4229   1.021   1.024   0.370
 1422TIP3    H1 4230   1.116   1.007   0.371
 1422TIP3    H2 4231   0.987   0.962   0.306
 1423TIP3   OH2 4232   5.096   6.344   1.669
 1423TIP3    H1 4233   5.028   6.286   1.702
 1423TIP3    H2 4234   5.178   6.303   1.697
 1424TIP3   OH2 4235   5.715   6.055   0.628
 1424TIP3    H1 4236   5.657   6.025   0.699
 1424TIP3    H2 4237   5.794   6.003   0.638
 1425TIP3   OH2 4238   1.345   5.950   4.426
 1425TIP3    H1 4239   1.392   6.027   4.394
 1425TIP3    H2 4240   1.405   5.877   4.409
 1426TIP3   OH2 4241   2.957   5.466   5.494
 1426TIP3    H1 4242   2.922   5.379   5.514
 1426TIP3    H2 4243   3.020   5.450   5.424
 1427TIP3   OH2 4244   2.656   4.834   4.030
 1427TIP3    H1 4245   2.720   4.814   4.098
 1427TIP3    H2 4246   2.597   4.758   4.029
 1428TIP3   OH2 4247   4.206   1.769   0.418
 1428TIP3    H1 4248   4.257   1.844   0.386
 1428TIP3    H2 4249   4.220   1.701   0.352
 1429TIP3   OH2 4250   1.705   5.987   4.438
 1429TIP3    H1 4251   1.726   5.894   4.446
 1429TIP3    H2 4252   1.768   6.021   4.374
 1430TIP3   OH2 4253   6.065   6.601   3.814
 1430TIP3    H1 4254   6.003   6.563   3.751
 1430TIP3    H2 4255   6.087   6.528   3.872
 1431TIP3   OH2 4256   3.376   1.187   1.582
 1431TIP3    H1 4257   3.344   1.123   1.519
 1431TIP3    H2 4258   3.445   1.141   1.629
 1432TIP3   OH2 4259   0.532   4.722   4.233
 1432TIP3    H1 4260   0.448   4.756   4.205
 1432TIP3    H2 4261   0.590   4.737   4.158
 1433TIP3   OH2 4262   1.311   4.288   2.341
 1433TIP3    H1 4263   1.284   4.371   2.302
 1433TIP3    H2 4264   1.280   4.294   2.432
 1434TIP3   OH2 4265   0.684   6.198   0.002
 1434TIP3    H1 4266   0.691   6.280  -0.046
 1434TIP3    H2 4267   0.662   6.223   0.091
 1435TIP3   OH2 4268   0.379   6.730   5.749
 1435TIP3    H1 4269   0.319   6.787   5.701
 1435TIP3    H2 4270   0.460   6.731   5.697
 1436TIP3   OH2 4271   3.989   0.764   0.731
 1436TIP3    H1 4272   3.908   0.815   0.725
 1436TIP3    H2 4273   3.963   0.684   0.775
 1437TIP3   OH2 4274   2.319   0.799   0.076
 1437TIP3    H1 4275   2.388   0.865   0.077
 1437TIP3    H2 4276   2.362   0.719   0.045
 1438TIP3   OH2 4277   2.180   4.963   1.950
 1438TIP3    H1 4278   2.151   4.967   1.859
 1438TIP3    H2 4279   2.223   5.046   1.965
 1439TIP3   OH2 4280   4.299   1.581   3.502
 1439TIP3    H1 4281   4.275   1.641   3.431
 1439TIP3    H2 4282   4.356   1.516   3.460
 1440TIP3   OH2 4283   4.304   6.137   2.687
 1440TIP3    H1 4284   4.290   6.223   2.646
 1440TIP3    H2 4285   4.321   6.078   2.614
 1441TIP3   OH2 4286   4.602   0.400   2.385
 1441TIP3    H1 4287   4.667   0.455   2.342
 1441TIP3    H2 4288   4.644   0.314   2.392
 1442TIP3   OH2 4289   2.748   2.096   2.616
 1442TIP3    H1 4290   2.772   2.155   2.545
 1442TIP3    H2 4291   2.670   2.050   2.583
 1443TIP3   OH2 4292   5.584   3.514   2.337
 1443TIP3    H1 4293   5.622   3.493   2.252
 1443TIP3    H2 4294   5.530   3.438   2.359
 1444TIP3   OH2 4295   1.790   6.606   4.517
 1444TIP3    H1 4296   1.878   6.593   4.481
 1444TIP3    H2 4297   1.731   6.595   4.442
 1445TIP3   OH2 4298   2.929   6.214   1.686
 1445TIP3    H1 4299   2.909   6.168   1.768
 1445TIP3    H2 4300   2.963   6.299   1.714
 1446TIP3   OH2 4301   5.895   1.541   5.208
 1446TIP3    H1 4302   5.824   1.606   5.205
 1446TIP3    H2 4303   5.850   1.457   5.202
 1447TIP3   OH2 4304   3.703   5.243   4.496
 1447TIP3    H1 4305   3.772   5.264   4.560
 1447TIP3    H2 4306   3.621   5.265   4.541
 1448TIP3   OH2 4307   1.762   1.391   4.882
 1448TIP3    H1 4308   1.855   1.369   4.890
 1448TIP3    H2 4309   1.724   1.319   4.833
 1449TIP3   OH2 4310   4.639   3.947   3.254
 1449TIP3    H1 4311   4.609   3.919   3.167
 1449TIP3    H2 4312   4.574   4.012   3.281
 1450TIP3   OH2 4313   4.792   4.328   2.502
 1450TIP3    H1 4314   4.730   4.323   2.575
 1450TIP3    H2 4315   4.771   4.253   2.447
 1451TIP3   OH2 4316   3.312   3.749   4.808
 1451TIP3    H1 4317   3.263   3.671   4.835
 1451TIP3    H2 4318   3.354   3.723   4.725
 1452TIP3   OH2 4319   4.314   2.323   3.106
 1452TIP3    H1 4320   4.275   2.275   3.033
 1452TIP3    H2 4321   4.275   2.410   3.100
 1453TIP3   OH2 4322   2.965   5.603   4.219
 1453TIP3    H1 4323   2.902   5.542   4.258
 1453TIP3    H2 4324   2.975   5.672   4.284
 1454TIP3   OH2 4325   0.538   5.376   0.360
 1454TIP3    H1 4326   0.451   5.366   0.399
 1454TIP3    H2 4327   0.567   5.463   0.387
 1455TIP3   OH2 4328   3.044   2.437   0.432
 1455TIP3    H1 4329   3.050   2.356   0.483
 1455TIP3    H2 4330   2.971   2.423   0.372
 1456TIP3   OH2 4331   6.391   3.856   5.798
 1456TIP3    H1 4332   6.469   3.890   5.841
 1456TIP3    H2 4333   6.324   3.854   5.867
 1457TIP3   OH2 4334   5.363   0.369   1.244
 1457TIP3    H1 4335   5.345   0.305   1.175
 1457TIP3    H2 4336   5.430   0.427   1.207
 1458TIP3   OH2 4337   6.922   6.677   0.261
 1458TIP3    H1 4338   7.009   6.693   0.299
 1458TIP3    H2 4339   6.940   6.638   0.176
 1459TIP3   OH2 4340   5.448   0.613   5.010
 1459TIP3    H1 4341   5.496   0.691   4.979
 1459TIP3    H2 4342   5.515   0.559   5.052
 1460TIP3   OH2 4343   5.475   1.751   5.630
 1460TIP3    H1 4344   5.566   1.735   5.604
 1460TIP3    H2 4345   5.467   1.846   5.631
 1461TIP3   OH2 4346   2.337   3.591   3.105
 1461TIP3    H1 4347   2.291   3.651   3.164
 1461TIP3    H2 4348   2.413   3.562   3.156
 1462TIP3   OH2 4349   2.323   6.259   5.102
 1462TIP3    H1 4350   2.250   6.297   5.152
 1462TIP3    H2 4351   2.381   6.333   5.084
 1463TIP3   OH2 4352   1.909   2.494   4.798
 1463TIP3    H1 4353   1.820   2.464   4.781
 1463TIP3    H2 4354   1.956   2.414   4.822
 1464TIP3   OH2 4355   3.920   4.997   2.873
 1464TIP3    H1 4356   3.862   5.059   2.918
 1464TIP3    H2 4357   3.988   4.977   2.937
 1465TIP3   OH2 4358   6.131   6.179   4.410
 1465TIP3    H1 4359   6.187   6.116   4.365
 1465TIP3    H2 4360   6.176   6.263   4.400
 1466TIP3   OH2 4361   3.793   1.236   3.557
 1466TIP3    H1 4362   3.723   1.191   3.605
 1466TIP3    H2 4363   3.775   1.329   3.571
 1467TIP3   OH2 4364   3.440   0.480   3.725
 1467TIP3    H1 4365   3.466   0.484   3.633
 1467TIP3    H2 4366   3.480   0.399   3.757
 1468TIP3   OH2 4367   4.227   1.413   4.709
 1468TIP3    H1 4368   4.160   1.476   4.733
 1468TIP3    H2 4369   4.220   1.344   4.775
 1469TIP3   OH2 4370   2.733   3.470   0.047
 1469TIP3    H1 4371   2.788   3.548   0.039
 1469TIP3    H2 4372   2.721   3.459   0.142
 1470TIP3   OH2 4373   3.834   3.562   4.910
 1470TIP3    H1 4374   3.876   3.640   4.874
 1470TIP3    H2 4375   3.748   3.592   4.938
 1471TIP3   OH2 4376   0.968   4.991   2.301
 1471TIP3    H1 4377   1.024   4.990   2.379
 1471TIP3    H2 4378   0.887   4.948   2.329
 1472TIP3   OH2 4379   6.740   3.946   5.474
 1472TIP3    H1 4380   6.806   4.015   5.485
 1472TIP3    H2 4381   6.659   3.994   5.456
 1473TIP3   OH2 4382   3.888   2.164   2.702
 1473TIP3    H1 4383   3.906   2.090   2.644
 1473TIP3    H2 4384   3.913   2.133   2.789
 1474TIP3   OH2 4385   4.804   0.516   2.256
 1474TIP3    H1 4386   4.852   0.593   2.286
 1474TIP3    H2 4387   4.805   0.523   2.161
 1475TIP3   OH2 4388   6.485   4.731   5.929
 1475TIP3    H1 4389   6.393   4.755   5.933
 1475TIP3    H2 4390   6.491   4.671   5.855
 1476TIP3   OH2 4391   2.626   4.649   0.610
 1476TIP3    H1 4392   2.572   4.576   0.579
 1476TIP3    H2 4393   2.577   4.727   0.588
 1477TIP3   OH2 4394   4.257   0.387   0.808
 1477TIP3    H1 4395   4.198   0.442   0.860
 1477TIP3    H2 4396   4.331   0.444   0.787
 1478TIP3   OH2 4397   5.285   3.491   0.070
 1478TIP3    H1 4398   5.279   3.477   0.164
 1478TIP3    H2 4399   5.283   3.403   0.032
 1479TIP3   OH2 4400   0.189   1.232   3.823
 1479TIP3    H1 4401   0.252   1.178   3.871
 1479TIP3    H2 4402   0.226   1.320   3.824
 1480TIP3   OH2 4403   3.649   2.845   2.976
 1480TIP3    H1 4404   3.598   2.913   3.020
 1480TIP3    H2 4405   3.585   2.776   2.956
 1481TIP3   OH2 4406   4.639   3.249   3.800
 1481TIP3    H1 4407   4.696   3.300   3.857
 1481TIP3    H2 4408   4.691   3.234   3.721
 1482TIP3   OH2 4409   1.099   0.672   1.483
 1482TIP3    H1 4410   1.156   0.729   1.432
 1482TIP3    H2 4411   1.109   0.586   1.444
 1483TIP3   OH2 4412   0.075   1.499   0.338
 1483TIP3    H1 4413   0.086   1.406   0.320
 1483TIP3    H2 4414   0.142   1.519   0.404
 1484TIP3   OH2 4415   4.136   4.105   1.310
 1484TIP3    H1 4416   4.044   4.111   1.337
 1484TIP3    H2 4417   4.132   4.077   1.218
 1485TIP3   OH2 4418   6.796   6.344   0.323
 1485TIP3    H1 4419   6.753   6.424   0.292
 1485TIP3    H2 4420   6.724   6.282   0.334
 1486TIP3   OH2 4421   6.919   0.729   0.852
 1486TIP3    H1 4422   6.948   0.743   0.942
 1486TIP3    H2 4423   6.996   0.747   0.799
 1487TIP3   OH2 4424   6.004   2.565   2.628
 1487TIP3    H1 4425   5.950   2.491   2.655
 1487TIP3    H2 4426   6.016   2.616   2.708
 1488TIP3   OH2 4427   5.699   2.230   2.540
 1488TIP3    H1 4428   5.668   2.252   2.452
 1488TIP3    H2 4429   5.794   2.224   2.531
 1489TIP3   OH2 4430   1.038   1.589   2.411
 1489TIP3    H1 4431   1.030   1.681   2.385
 1489TIP3    H2 4432   1.132   1.576   2.426
 1490TIP3   OH2 4433   3.632   0.830   2.243
 1490TIP3    H1 4434   3.554   0.783   2.213
 1490TIP3    H2 4435   3.600   0.885   2.315
 1491TIP3   OH2 4436   3.232   2.257   3.493
 1491TIP3    H1 4437   3.245   2.219   3.581
 1491TIP3    H2 4438   3.140   2.283   3.492
 1492TIP3   OH2 4439   1.759   3.861   4.901
 1492TIP3    H1 4440   1.849   3.827   4.904
 1492TIP3    H2 4441   1.710   3.804   4.959
 1493TIP3   OH2 4442   3.678   5.265   0.566
 1493TIP3    H1 4443   3.663   5.344   0.515
 1493TIP3    H2 4444   3.590   5.232   0.585
 1494TIP3   OH2 4445   3.334   1.607   2.764
 1494TIP3    H1 4446   3.253   1.634   2.808
 1494TIP3    H2 4447   3.309   1.593   2.673
 1495TIP3   OH2 4448   3.836   3.921   4.135
 1495TIP3    H1 4449   3.886   3.930   4.054
 1495TIP3    H2 4450   3.765   3.861   4.113
 1496TIP3   OH2 4451   2.030   4.379   1.757
 1496TIP3    H1 4452   2.108   4.324   1.748
 1496TIP3    H2 4453   2.060   4.467   1.734
 1497TIP3   OH2 4454   5.318   1.312   0.625
 1497TIP3    H1 4455   5.395   1.367   0.607
 1497TIP3    H2 4456   5.249   1.375   0.645
 1498TIP3   OH2 4457   6.535   2.954   3.063
 1498TIP3    H1 4458   6.575   3.036   3.092
 1498TIP3    H2 4459   6.585   2.929   2.985
 1499TIP3   OH2 4460   5.487   0.519   2.251
 1499TIP3    H1 4461   5.445   0.436   2.231
 1499TIP3    H2 4462   5.426   0.564   2.310
 1500TIP3   OH2 4463   4.009   4.089   0.059
 1500TIP3    H1 4464   3.929   4.082   0.111
 1500TIP3    H2 4465   4.080   4.085   0.123
 1501TIP3   OH2 4466   6.576   3.828   0.122
 1501TIP3    H1 4467   6.553   3.878   0.200
 1501TIP3    H2 4468   6.494   3.821   0.073
 1502TIP3   OH2 4469   6.982   3.581   0.358
 1502TIP3    H1 4470   6.982   3.528   0.278
 1502TIP3    H2 4471   7.074   3.585   0.385
 1503TIP3   OH2 4472   4.400   4.288   1.952
 1503TIP3    H1 4473   4.429   4.208   1.996
 1503TIP3    H2 4474   4.318   4.311   1.995
 1504TIP3   OH2 4475   2.709   4.615   2.161
 1504TIP3    H1 4476   2.676   4.705   2.166
 1504TIP3    H2 4477   2.705   4.583   2.251
 1505TIP3   OH2 4478   4.049   6.336   1.316
 1505TIP3    H1 4479   4.050   6.386   1.397
 1505TIP3    H2 4480   3.978   6.273   1.327
 1506TIP3   OH2 4481   4.426   2.838   3.142
 1506TIP3    H1 4482   4.391   2.799   3.062
 1506TIP3    H2 4483   4.381   2.922   3.149
 1507TIP3   OH2 4484   3.555   5.809   5.112
 1507TIP3    H1 4485   3.556   5.871   5.039
 1507TIP3    H2 4486   3.630   5.752   5.096
 1508TIP3   OH2 4487   2.213   4.132   1.131
 1508TIP3    H1 4488   2.159   4.186   1.189
 1508TIP3    H2 4489   2.154   4.109   1.059
 1509TIP3   OH2 4490   1.869   1.634   0.617
 1509TIP3    H1 4491   1.798   1.579   0.651
 1509TIP3    H2 4492   1.908   1.581   0.547
 1510TIP3   OH2 4493   6.331   5.198   1.388
 1510TIP3    H1 4494   6.309   5.255   1.461
 1510TIP3    H2 4495   6.403   5.242   1.343
 1511TIP3   OH2 4496   1.814   5.178   0.907
 1511TIP3    H1 4497   1.891   5.127   0.883
 1511TIP3    H2 4498   1.740   5.119   0.893
 1512TIP3   OH2 4499   2.229   5.632   0.251
 1512TIP3    H1 4500   2.264   5.679   0.327
 1512TIP3    H2 4501   2.304   5.617   0.194
 1513TIP3   OH2 4502   0.834   5.019   4.955
 1513TIP3    H1 4503   0.805   5.100   4.913
 1513TIP3    H2 4504   0.843   5.042   5.047
 1514TIP3   OH2 4505   3.780   4.634   4.418
 1514TIP3    H1 4506   3.823   4.552   4.397
 1514TIP3    H2 4507   3.719   4.613   4.488
 1515TIP3   OH2 4508   6.650   6.801  -0.016
 1515TIP3    H1 4509   6.565   6.795   0.028
 1515TIP3    H2 4510   6.644   6.741  -0.090
 1516TIP3   OH2 4511   1.238   1.626   0.043
 1516TIP3    H1 4512   1.286   1.662  -0.032
 1516TIP3    H2 4513   1.219   1.535   0.018
 1517TIP3   OH2 4514   6.866   5.656   3.556
 1517TIP3    H1 4515   6.933   5.692   3.497
 1517TIP3    H2 4516   6.796   5.626   3.498
 1518TIP3   OH2 4517   2.471   5.398   3.942
 1518TIP3    H1 4518   2.547   5.437   3.898
 1518TIP3    H2 4519   2.501   5.383   4.032
 1519TIP3   OH2 4520   3.463   5.607   1.765
 1519TIP3    H1 4521   3.408   5.623   1.842
 1519TIP3    H2 4522   3.535   5.669   1.774
 1520TIP3   OH2 4523   2.263   4.415   5.798
 1520TIP3    H1 4524   2.300   4.387   5.714
 1520TIP3    H2 4525   2.205   4.343   5.824
 1521TIP3   OH2 4526   1.302   0.189   0.946
 1521TIP3    H1 4527   1.239   0.152   1.008
 1521TIP3    H2 4528   1.387   0.175   0.987
 1522TIP3   OH2 4529   1.959   1.737   3.862
 1522TIP3    H1 4530   1.950   1.655   3.813
 1522TIP3    H2 4531   2.032   1.783   3.818
 1523TIP3   OH2 4532   4.685   0.020   4.538
 1523TIP3    H1 4533   4.736   0.077   4.481
 1523TIP3    H2 4534   4.618   0.077   4.575
 1524TIP3   OH2 4535   4.573   2.685   3.304
 1524TIP3    H1 4536   4.538   2.605   3.342
 1524TIP3    H2 4537   4.505   2.717   3.245
 1525TIP3   OH2 4538   0.411   2.213   1.303
 1525TIP3    H1 4539   0.327   2.206   1.349
 1525TIP3    H2 4540   0.476   2.217   1.372
 1526TIP3   OH2 4541   3.031   2.498   3.891
 1526TIP3    H1 4542   3.081   2.514   3.971
 1526TIP3    H2 4543   3.081   2.542   3.822
 1527TIP3   OH2 4544   6.432   3.292   2.565
 1527TIP3    H1 4545   6.429   3.203   2.529
 1527TIP3    H2 4546   6.475   3.282   2.650
 1528TIP3   OH2 4547   2.301   2.410   2.143
 1528TIP3    H1 4548   2.348   2.440   2.066
 1528TIP3    H2 4549   2.249   2.336   2.111
 1529TIP3   OH2 4550   5.858   4.691   4.396
 1529TIP3    H1 4551   5.770   4.709   4.429
 1529TIP3    H2 4552   5.912   4.687   4.475
 1530TIP3   OH2 4553   3.612   6.756   1.006
 1530TIP3    H1 4554   3.678   6.822   1.026
 1530TIP3    H2 4555   3.647   6.709   0.930
 1531TIP3   OH2 4556   6.765   2.183   3.410
 1531TIP3    H1 4557   6.719   2.102   3.434
 1531TIP3    H2 4558   6.855   2.169   3.439
 1532TIP3   OH2 4559   1.641   4.640   2.589
 1532TIP3    H1 4560   1.604   4.564   2.546
 1532TIP3    H2 4561   1.622   4.713   2.531
 1533TIP3   OH2 4562   6.753   3.729   4.571
 1533TIP3    H1 4563   6.680   3.699   4.625
 1533TIP3    H2 4564   6.829   3.679   4.602
 1534TIP3   OH2 4565   6.882   0.357   4.667
 1534TIP3    H1 4566   6.917   0.270   4.684
 1534TIP3    H2 4567   6.958   0.410   4.643
 1535TIP3   OH2 4568   1.052   2.643   1.789
 1535TIP3    H1 4569   1.059   2.547   1.792
 1535TIP3    H2 4570   1.142   2.672   1.770
 1536TIP3   OH2 4571   6.299   3.641   0.584
 1536TIP3    H1 4572   6.365   3.576   0.609
 1536TIP3    H2 4573   6.281   3.689   0.664
 1537TIP3   OH2 4574   1.958   0.097   3.147
 1537TIP3    H1 4575   2.018   0.051   3.088
 1537TIP3    H2 4576   1.905   0.152   3.089
 1538TIP3   OH2 4577   4.085   6.803   1.324
 1538TIP3    H1 4578   4.084   6.897   1.307
 1538TIP3    H2 4579   4.135   6.794   1.405
 1539TIP3   OH2 4580   0.103   4.179   0.324
 1539TIP3    H1 4581   0.023   4.127   0.332
 1539TIP3    H2 4582   0.115   4.190   0.229
 1540TIP3   OH2 4583   1.138   1.682   1.904
 1540TIP3    H1 4584   1.171   1.602   1.863
 1540TIP3    H2 4585   1.138   1.747   1.834
 1541TIP3   OH2 4586   0.214   0.880   3.761
 1541TIP3    H1 4587   0.295   0.842   3.795
 1541TIP3    H2 4588   0.145   0.829   3.802
 1542TIP3   OH2 4589   2.687   3.419   2.754
 1542TIP3    H1 4590   2.726   3.465   2.679
 1542TIP3    H2 4591   2.638   3.487   2.801
 1543TIP3   OH2 4592   4.237   4.343   2.173
 1543TIP3    H1 4593   4.271   4.307   2.254
 1543TIP3    H2 4594   4.144   4.356   2.190
 1544TIP3   OH2 4595   5.288   0.572   2.860
 1544TIP3    H1 4596   5.277   0.648   2.917
 1544TIP3    H2 4597   5.230   0.588   2.786
 1545TIP3   OH2 4598   0.381   2.378   3.929
 1545TIP3    H1 4599   0.410   2.352   4.017
 1545TIP3    H2 4600   0.460   2.411   3.886
 1546TIP3   OH2 4601   3.268   1.418   4.692
 1546TIP3    H1 4602   3.265   1.429   4.597
 1546TIP3    H2 4603   3.361   1.432   4.713
 1547TIP3   OH2 4604   7.133   2.711   2.785
 1547TIP3    H1 4605   7.187   2.712   2.865
 1547TIP3    H2 4606   7.162   2.788   2.736
 1548TIP3   OH2 4607   0.797   4.747   0.863
 1548TIP3    H1 4608   0.770   4.661   0.832
 1548TIP3    H2 4609   0.889   4.755   0.837
 1549TIP3   OH2 4610   1.135   4.697   4.367
 1549TIP3    H1 4611   1.095   4.767   4.418
 1549TIP3    H2 4612   1.072   4.625   4.372
 1550TIP3   OH2 4613   4.610   5.669   5.243
 1550TIP3    H1 4614   4.527   5.686   5.288
 1550TIP3    H2 4615   4.623   5.746   5.188
 1551TIP3   OH2 4616   5.760   1.274   1.062
 1551TIP3    H1 4617   5.776   1.301   0.972
 1551TIP3    H2 4618   5.837   1.304   1.110
 1552TIP3   OH2 4619   5.196   0.989   5.466
 1552TIP3    H1 4620   5.174   0.896   5.463
 1552TIP3    H2 4621   5.282   0.993   5.507
 1553TIP3   OH2 4622   5.777   6.646   1.042
 1553TIP3    H1 4623   5.704   6.593   1.011
 1553TIP3    H2 4624   5.794   6.614   1.131
 1554TIP3   OH2 4625   4.852   2.120   5.155
 1554TIP3    H1 4626   4.781   2.086   5.209
 1554TIP3    H2 4627   4.883   2.197   5.203
 1555TIP3   OH2 4628   1.214   6.639   3.010
 1555TIP3    H1 4629   1.289   6.588   3.040
 1555TIP3    H2 4630   1.138   6.589   3.038
 1556TIP3   OH2 4631   3.922   5.407   2.641
 1556TIP3    H1 4632   3.931   5.493   2.681
 1556TIP3    H2 4633   3.888   5.424   2.553
 1557TIP3   OH2 4634   3.688   2.004   0.120
 1557TIP3    H1 4635   3.711   2.096   0.133
 1557TIP3    H2 4636   3.621   1.986   0.187
 1558TIP3   OH2 4637   3.218   1.942   2.349
 1558TIP3    H1 4638   3.226   1.869   2.411
 1558TIP3    H2 4639   3.287   1.926   2.285
 1559TIP3   OH2 4640   0.550   3.879   2.006
 1559TIP3    H1 4641   0.632   3.830   2.009
 1559TIP3    H2 4642   0.516   3.863   1.918
 1560TIP3   OH2 4643   6.151   5.344   4.439
 1560TIP3    H1 4644   6.224   5.395   4.402
 1560TIP3    H2 4645   6.150   5.263   4.388
 1561TIP3   OH2 4646   6.485   1.328   0.760
 1561TIP3    H1 4647   6.460   1.414   0.794
 1561TIP3    H2 4648   6.488   1.272   0.838
 1562TIP3   OH2 4649   4.078   6.189   0.768
 1562TIP3    H1 4650   4.044   6.135   0.840
 1562TIP3    H2 4651   3.999   6.221   0.724
 1563TIP3   OH2 4652   3.451   5.047   2.883
 1563TIP3    H1 4653   3.359   5.069   2.869
 1563TIP3    H2 4654   3.473   5.089   2.966
 1564TIP3   OH2 4655   0.507   0.385   2.475
 1564TIP3    H1 4656   0.575   0.450   2.457
 1564TIP3    H2 4657   0.429   0.418   2.430
 1565TIP3   OH2 4658   0.509   2.638   2.944
 1565TIP3    H1 4659   0.553   2.706   2.995
 1565TIP3    H2 4660   0.451   2.686   2.885
 1566TIP3   OH2 4661   6.031   4.850   4.851
 1566TIP3    H1 4662   6.040   4.863   4.945
 1566TIP3    H2 4663   6.002   4.935   4.818
 1567TIP3   OH2 4664   3.228   1.716   3.252
 1567TIP3    H1 4665   3.137   1.689   3.245
 1567TIP3    H2 4666   3.238   1.785   3.186
 1568TIP3   OH2 4667   7.066   4.162   2.754
 1568TIP3    H1 4668   7.025   4.188   2.836
 1568TIP3    H2 4669   7.006   4.192   2.686
 1569TIP3   OH2 4670   2.150   2.440   2.932
 1569TIP3    H1 4671   2.208   2.428   2.857
 1569TIP3    H2 4672   2.188   2.513   2.981
 1570TIP3   OH2 4673   6.003   6.708   2.051
 1570TIP3    H1 4674   5.974   6.794   2.019
 1570TIP3    H2 4675   5.992   6.713   2.146
 1571TIP3   OH2 4676   4.158   6.131   1.143
 1571TIP3    H1 4677   4.069   6.125   1.107
 1571TIP3    H2 4678   4.158   6.212   1.193
 1572TIP3   OH2 4679   2.043   2.378   3.812
 1572TIP3    H1 4680   2.051   2.298   3.760
 1572TIP3    H2 4681   2.111   2.436   3.777
 1573TIP3   OH2 4682   3.783   0.838   5.849
 1573TIP3    H1 4683   3.848   0.788   5.898
 1573TIP3    H2 4684   3.796   0.928   5.879
 1574TIP3   OH2 4685   3.299   4.017   3.492
 1574TIP3    H1 4686   3.205   4.030   3.503
 1574TIP3    H2 4687   3.330   3.995   3.579
 1575TIP3   OH2 4688   1.083   1.688   4.705
 1575TIP3    H1 4689   1.151   1.683   4.639
 1575TIP3    H2 4690   1.089   1.776   4.740
 1576TIP3   OH2 4691   1.579   2.291   2.755
 1576TIP3    H1 4692   1.571   2.357   2.824
 1576TIP3    H2 4693   1.590   2.342   2.675
 1577TIP3   OH2 4694   4.834   6.117   5.449
 1577TIP3    H1 4695   4.929   6.105   5.458
 1577TIP3    H2 4696   4.813   6.188   5.511
 1578TIP3   OH2 4697   6.437   0.519   1.133
 1578TIP3    H1 4698   6.457   0.485   1.045
 1578TIP3    H2 4699   6.516   0.567   1.158
 1579TIP3   OH2 4700   4.184   3.845   3.362
 1579TIP3    H1 4701   4.172   3.769   3.418
 1579TIP3    H2 4702   4.241   3.903   3.413
 1580TIP3   OH2 4703   3.527   4.691   0.383
 1580TIP3    H1 4704   3.568   4.605   0.394
 1580TIP3    H2 4705   3.567   4.727   0.304
 1581TIP3   OH2 4706   6.918   2.280   5.147
 1581TIP3    H1 4707   6.850   2.340   5.177
 1581TIP3    H2 4708   6.870   2.213   5.098
 1582TIP3   OH2 4709   0.958   0.994   2.501
 1582TIP3    H1 4710   0.983   1.084   2.478
 1582TIP3    H2 4711   1.036   0.959   2.545
 1583TIP3   OH2 4712   6.845   1.483   3.457
 1583TIP3    H1 4713   6.785   1.508   3.527
 1583TIP3    H2 4714   6.833   1.551   3.391
 1584TIP3   OH2 4715   6.008   0.403   1.734
 1584TIP3    H1 4716   6.038   0.358   1.655
 1584TIP3    H2 4717   6.051   0.489   1.730
 1585TIP3   OH2 4718   6.115   5.780   0.503
 1585TIP3    H1 4719   6.100   5.852   0.441
 1585TIP3    H2 4720   6.114   5.701   0.448
 1586TIP3   OH2 4721   0.588   2.163   5.023
 1586TIP3    H1 4722   0.555   2.116   4.947
 1586TIP3    H2 4723   0.663   2.112   5.052
 1587TIP3   OH2 4724   0.587   3.521   3.371
 1587TIP3    H1 4725   0.599   3.498   3.463
 1587TIP3    H2 4726   0.495   3.501   3.353
 1588TIP3   OH2 4727   4.641   6.411   0.877
 1588TIP3    H1 4728   4.613   6.503   0.879
 1588TIP3    H2 4729   4.723   6.410   0.925
 1589TIP3   OH2 4730   4.203   4.017   3.889
 1589TIP3    H1 4731   4.288   3.980   3.910
 1589TIP3    H2 4732   4.210   4.110   3.913
 1590TIP3   OH2 4733   3.152   6.651   2.312
 1590TIP3    H1 4734   3.078   6.630   2.369
 1590TIP3    H2 4735   3.223   6.672   2.372
 1591TIP3   OH2 4736   0.935   5.948   3.214
 1591TIP3    H1 4737   0.964   6.037   3.197
 1591TIP3    H2 4738   0.946   5.936   3.308
 1592TIP3   OH2 4739   6.824   1.562   1.610
 1592TIP3    H1 4740   6.891   1.628   1.591
 1592TIP3    H2 4741   6.798   1.580   1.700
 1593TIP3   OH2 4742   5.406   1.524   5.507
 1593TIP3    H1 4743   5.420   1.599   5.564
 1593TIP3    H2 4744   5.398   1.562   5.419
 1594TIP3   OH2 4745   4.124   2.384   4.588
 1594TIP3    H1 4746   4.034   2.369   4.560
 1594TIP3    H2 4747   4.129   2.478   4.606
 1595TIP3   OH2 4748   3.089   5.220   1.685
 1595TIP3    H1 4749   3.010   5.169   1.701
 1595TIP3    H2 4750   3.084   5.243   1.592
 1596TIP3   OH2 4751   5.405   4.241   0.530
 1596TIP3    H1 4752   5.310   4.225   0.533
 1596TIP3    H2 4753   5.441   4.183   0.597
 1597TIP3   OH2 4754   0.269   1.534   0.524
 1597TIP3    H1 4755   0.238   1.499   0.607
 1597TIP3    H2 4756   0.240   1.625   0.523
 1598TIP3   OH2 4757   5.730   6.748   0.770
 1598TIP3    H1 4758   5.775   6.695   0.705
 1598TIP3    H2 4759   5.756   6.710   0.854
 1599TIP3   OH2 4760   1.209   3.240   4.109
 1599TIP3    H1 4761   1.236   3.330   4.088
 1599TIP3    H2 4762   1.290   3.195   4.131
 1600TIP3   OH2 4763   5.484   1.036   5.282
 1600TIP3    H1 4764   5.515   1.067   5.368
 1600TIP3    H2 4765   5.491   0.941   5.287
 1601TIP3   OH2 4766   4.119   4.271   4.750
 1601TIP3    H1 4767   4.211   4.280   4.773
 1601TIP3    H2 4768   4.117   4.200   4.686
 1602TIP3   OH2 4769   3.888   2.294   2.258
 1602TIP3    H1 4770   3.811   2.351   2.254
 1602TIP3    H2 4771   3.852   2.208   2.283
 1603TIP3   OH2 4772   0.572   6.370   4.022
 1603TIP3    H1 4773   0.512   6.364   3.949
 1603TIP3    H2 4774   0.573   6.463   4.045
 1604TIP3   OH2 4775   0.340   1.486   1.287
 1604TIP3    H1 4776   0.422   1.455   1.326
 1604TIP3    H2 4777   0.325   1.428   1.213
 1605TIP3   OH2 4778   6.115   5.844   5.431
 1605TIP3    H1 4779   6.102   5.761   5.477
 1605TIP3    H2 4780   6.133   5.819   5.340
 1606TIP3   OH2 4781   3.452   3.255   5.201
 1606TIP3    H1 4782   3.375   3.300   5.237
 1606TIP3    H2 4783   3.418   3.202   5.129
 1607TIP3   OH2 4784   0.223   6.087   4.527
 1607TIP3    H1 4785   0.217   6.177   4.558
 1607TIP3    H2 4786   0.168   6.037   4.586
 1608TIP3   OH2 4787   2.429   0.896   5.440
 1608TIP3    H1 4788   2.397   0.839   5.370
 1608TIP3    H2 4789   2.516   0.924   5.411
 1609TIP3   OH2 4790   6.259   1.972   2.418
 1609TIP3    H1 4791   6.285   2.048   2.469
 1609TIP3    H2 4792   6.336   1.953   2.363
 1610TIP3   OH2 4793   5.482   4.372   2.510
 1610TIP3    H1 4794   5.463   4.458   2.550
 1610TIP3    H2 4795   5.396   4.330   2.504
 1611TIP3   OH2 4796   2.786   2.210   5.569
 1611TIP3    H1 4797   2.782   2.170   5.656
 1611TIP3    H2 4798   2.716   2.168   5.520
 1612TIP3   OH2 4799   4.224   2.786   3.871
 1612TIP3    H1 4800   4.158   2.847   3.905
 1612TIP3    H2 4801   4.175   2.732   3.808
 1613TIP3   OH2 4802   6.559   3.398   4.441
 1613TIP3    H1 4803   6.505   3.334   4.394
 1613TIP3    H2 4804   6.625   3.425   4.377
 1614TIP3   OH2 4805   6.616   1.615   3.566
 1614TIP3    H1 4806   6.554   1.675   3.524
 1614TIP3    H2 4807   6.562   1.561   3.624
 1615TIP3   OH2 4808   4.932   5.747   1.361
 1615TIP3    H1 4809   4.872   5.815   1.330
 1615TIP3    H2 4810   4.939   5.686   1.288
 1616TIP3   OH2 4811   2.165   2.991   0.338
 1616TIP3    H1 4812   2.106   2.920   0.364
 1616TIP3    H2 4813   2.113   3.045   0.279
 1617TIP3   OH2 4814   6.403   5.699   0.261
 1617TIP3    H1 4815   6.313   5.690   0.230
 1617TIP3    H2 4816   6.398   5.677   0.354
 1618TIP3   OH2 4817   4.954   4.204   0.215
 1618TIP3    H1 4818   4.913   4.193   0.301
 1618TIP3    H2 4819   4.928   4.125   0.166
 1619TIP3   OH2 4820   4.170   4.868   5.260
 1619TIP3    H1 4821   4.192   4.786   5.304
 1619TIP3    H2 4822   4.175   4.934   5.330
 1620TIP3   OH2 4823   6.097   0.585   0.316
 1620TIP3    H1 4824   6.159   0.594   0.388
 1620TIP3    H2 4825   6.065   0.495   0.323
 1621TIP3   OH2 4826   3.771   4.976   1.277
 1621TIP3    H1 4827   3.864   4.986   1.296
 1621TIP3    H2 4828   3.769   4.920   1.199
 1622TIP3   OH2 4829   2.775   6.748   0.527
 1622TIP3    H1 4830   2.733   6.725   0.445
 1622TIP3    H2 4831   2.703   6.757   0.589
 1623TIP3   OH2 4832   5.258   4.583   4.457
 1623TIP3    H1 4833   5.350   4.610   4.452
 1623TIP3    H2 4834   5.252   4.505   4.401
 1624TIP3   OH2 4835   4.559   5.995   1.434
 1624TIP3    H1 4836   4.616   5.973   1.361
 1624TIP3    H2 4837   4.470   5.986   1.399
 1625TIP3   OH2 4838   5.768   0.406   2.386
 1625TIP3    H1 4839   5.839   0.415   2.321
 1625TIP3    H2 4840   5.711   0.339   2.349
 1626TIP3   OH2 4841   2.405   3.430   4.653
 1626TIP3    H1 4842   2.432   3.447   4.743
 1626TIP3    H2 4843   2.487   3.416   4.605
 1627TIP3   OH2 4844   2.257   1.494   1.114
 1627TIP3    H1 4845   2.217   1.572   1.076
 1627TIP3    H2 4846   2.288   1.522   1.200
 1628TIP3   OH2 4847   5.466   6.709   3.199
 1628TIP3    H1 4848   5.399   6.774   3.176
 1628TIP3    H2 4849   5.549   6.754   3.184
 1629TIP3   OH2 4850   4.842   0.075   3.513
 1629TIP3    H1 4851   4.875   0.159   3.480
 1629TIP3    H2 4852   4.747   0.082   3.504
 1630TIP3   OH2 4853   5.215   5.616   4.978
 1630TIP3    H1 4854   5.191   5.540   5.030
 1630TIP3    H2 4855   5.232   5.685   5.042
 1631TIP3   OH2 4856   3.818   6.238   5.872
 1631TIP3    H1 4857   3.740   6.289   5.850
 1631TIP3    H2 4858   3.886   6.270   5.812
 1632TIP3   OH2 4859   6.424   2.069   4.238
 1632TIP3    H1 4860   6.476   2.045   4.161
 1632TIP3    H2 4861   6.343   2.019   4.228
 1633TIP3   OH2 4862   5.363   6.056   0.172
 1633TIP3    H1 4863   5.323   5.997   0.236
 1633TIP3    H2 4864   5.291   6.085   0.116
 1634TIP3   OH2 4865   6.233   1.723   0.098
 1634TIP3    H1 4866   6.320   1.720   0.137
 1634TIP3    H2 4867   6.216   1.817   0.087
 1635TIP3   OH2 4868   1.357   2.671   1.287
 1635TIP3    H1 4869   1.371   2.683   1.381
 1635TIP3    H2 4870   1.262   2.667   1.277
 1636TIP3   OH2 4871   0.724   3.428   5.731
 1636TIP3    H1 4872   0.768   3.483   5.667
 1636TIP3    H2 4873   0.790   3.365   5.760
 1637TIP3   OH2 4874   4.035   2.835   5.153
 1637TIP3    H1 4875   3.955   2.872   5.189
 1637TIP3    H2 4876   4.005   2.771   5.087
 1638TIP3   OH2 4877   1.000   1.788   2.253
 1638TIP3    H1 4878   0.951   1.869   2.236
 1638TIP3    H2 4879   1.090   1.809   2.229
 1639TIP3   OH2 4880   6.133   0.830   2.033
 1639TIP3    H1 4881   6.119   0.764   2.101
 1639TIP3    H2 4882   6.217   0.807   1.993
 1640TIP3   OH2 4883   1.862   5.449   5.246
 1640TIP3    H1 4884   1.803   5.393   5.296
 1640TIP3    H2 4885   1.943   5.449   5.297
 1641TIP3   OH2 4886   3.465   4.180   1.918
 1641TIP3    H1 4887   3.514   4.256   1.887
 1641TIP3    H2 4888   3.435   4.137   1.838
 1642TIP3   OH2 4889   3.140   2.811   1.064
 1642TIP3    H1 4890   3.105   2.888   1.019
 1642TIP3    H2 4891   3.235   2.822   1.061
 1643TIP3   OH2 4892   0.904   3.733   4.599
 1643TIP3    H1 4893   0.925   3.677   4.524
 1643TIP3    H2 4894   0.811   3.753   4.589
 1644TIP3   OH2 4895   2.163   2.622   3.610
 1644TIP3    H1 4896   2.206   2.684   3.551
 1644TIP3    H2 4897   2.070   2.630   3.590
 1645TIP3   OH2 4898   5.417   5.733   3.627
 1645TIP3    H1 4899   5.376   5.775   3.703
 1645TIP3    H2 4900   5.345   5.712   3.568
 1646TIP3   OH2 4901   0.476   3.205   3.281
 1646TIP3    H1 4902   0.426   3.124   3.295
 1646TIP3    H2 4903   0.412   3.275   3.288
 1647TIP3   OH2 4904   6.546   6.718   2.741
 1647TIP3    H1 4905   6.534   6.686   2.651
 1647TIP3    H2 4906   6.586   6.645   2.787
 1648TIP3   OH2 4907   4.846   4.136   3.186
 1648TIP3    H1 4908   4.832   4.201   3.255
 1648TIP3    H2 4909   4.798   4.059   3.215
 1649TIP3   OH2 4910   6.859   4.042   4.675
 1649TIP3    H1 4911   6.872   4.097   4.752
 1649TIP3    H2 4912   6.845   3.954   4.710
 1650TIP3   OH2 4913   4.340   4.775   2.668
 1650TIP3    H1 4914   4.307   4.861   2.694
 1650TIP3    H2 4915   4.290   4.713   2.720
 1651TIP3   OH2 4916   6.989   2.072   3.033
 1651TIP3    H1 4917   7.040   2.080   2.952
 1651TIP3    H2 4918   7.054   2.082   3.103
 1652TIP3   OH2 4919   5.102   0.339   2.156
 1652TIP3    H1 4920   5.085   0.332   2.062
 1652TIP3    H2 4921   5.107   0.248   2.186
 1653TIP3   OH2 4922   1.979   1.461   4.436
 1653TIP3    H1 4923   2.012   1.516   4.507
 1653TIP3    H2 4924   2.038   1.478   4.363
 1654TIP3   OH2 4925   0.359   4.365   5.139
 1654TIP3    H1 4926   0.361   4.335   5.230
 1654TIP3    H2 4927   0.423   4.310   5.095
 1655TIP3   OH2 4928   0.119   6.670   1.592
 1655TIP3    H1 4929   0.026   6.648   1.583
 1655TIP3    H2 4930   0.163   6.620   1.522
 1656TIP3   OH2 4931   5.856   5.856   1.516
 1656TIP3    H1 4932   5.761   5.857   1.503
 1656TIP3    H2 4933   5.890   5.811   1.439
 1657TIP3   OH2 4934   6.297   2.495   2.698
 1657TIP3    H1 4935   6.207   2.498   2.666
 1657TIP3    H2 4936   6.342   2.436   2.637
 1658TIP3   OH2 4937   6.056   5.044   2.440
 1658TIP3    H1 4938   5.977   5.044   2.386
 1658TIP3    H2 4939   6.080   5.137   2.446
 1659TIP3   OH2 4940   3.423   1.145   2.227
 1659TIP3    H1 4941   3.329   1.146   2.246
 1659TIP3    H2 4942   3.429   1.109   2.138
 1660TIP3   OH2 4943   2.951   3.061   3.421
 1660TIP3    H1 4944   2.907   2.998   3.363
 1660TIP3    H2 4945   2.911   3.047   3.507
 1661TIP3   OH2 4946   1.826   5.135   2.053
 1661TIP3    H1 4947   1.788   5.222   2.051
 1661TIP3    H2 4948   1.816   5.106   2.144
 1662TIP3   OH2 4949   3.436   0.515   0.934
 1662TIP3    H1 4950   3.353   0.467   0.939
 1662TIP3    H2 4951   3.410   0.606   0.918
 1663TIP3   OH2 4952   7.091   6.322   4.395
 1663TIP3    H1 4953   7.052   6.301   4.310
 1663TIP3    H2 4954   7.032   6.387   4.433
 1664TIP3   OH2 4955   0.259   6.732   0.601
 1664TIP3    H1 4956   0.325   6.744   0.533
 1664TIP3    H2 4957   0.184   6.784   0.572
 1665TIP3   OH2 4958   4.971   2.014   1.374
 1665TIP3    H1 4959   4.880   2.009   1.346
 1665TIP3    H2 4960   5.012   1.936   1.336
 1666TIP3   OH2 4961   4.298   5.570   5.134
 1666TIP3    H1 4962   4.263   5.656   5.109
 1666TIP3    H2 4963   4.308   5.524   5.051
 1667TIP3   OH2 4964   0.828   2.006   0.543
 1667TIP3    H1 4965   0.824   2.100   0.563
 1667TIP3    H2 4966   0.849   2.003   0.450
 1668TIP3   OH2 4967   3.708   0.298   2.625
 1668TIP3    H1 4968   3.662   0.364   2.573
 1668TIP3    H2 4969   3.793   0.338   2.644
 1669TIP3   OH2 4970   2.993   5.380   2.753
 1669TIP3    H1 4971   2.908   5.343   2.728
 1669TIP3    H2 4972   3.053   5.350   2.684
 1670TIP3   OH2 4973   5.268   0.817   0.660
 1670TIP3    H1 4974   5.256   0.911   0.670
 1670TIP3    H2 4975   5.340   0.796   0.720
 1671TIP3   OH2 4976   3.371   5.702   3.482
 1671TIP3    H1 4977   3.327   5.770   3.431
 1671TIP3    H2 4978   3.396   5.636   3.418
 1672TIP3   OH2 4979   2.041   2.248   4.942
 1672TIP3    H1 4980   2.102   2.190   4.987
 1672TIP3    H2 4981   1.958   2.236   4.989
 1673TIP3   OH2 4982   4.377   6.065   3.987
 1673TIP3    H1 4983   4.343   6.060   3.898
 1673TIP3    H2 4984   4.382   6.159   4.006
 1674TIP3   OH2 4985   4.815   1.430   3.683
 1674TIP3    H1 4986   4.731   1.414   3.641
 1674TIP3    H2 4987   4.803   1.401   3.773
 1675TIP3   OH2 4988   1.603   6.805   1.037
 1675TIP3    H1 4989   1.618   6.718   1.000
 1675TIP3    H2 4990   1.565   6.789   1.123
 1676TIP3   OH2 4991   6.246   4.338   5.512
 1676TIP3    H1 4992   6.315   4.286   5.471
 1676TIP3    H2 4993   6.270   4.429   5.493
 1677TIP3   OH2 4994   2.040   3.169   5.151
 1677TIP3    H1 4995   2.017   3.081   5.120
 1677TIP3    H2 4996   1.994   3.228   5.091
 1678TIP3   OH2 4997   4.742   0.802   3.189
 1678TIP3    H1 4998   4.687   0.864   3.237
 1678TIP3    H2 4999   4.680   0.738   3.154
 1679TIP3   OH2 5000   2.541   0.155   0.517
 1679TIP3    H1 5001   2.482   0.230   0.525
 1679TIP3    H2 5002   2.611   0.185   0.459
 1680TIP3   OH2 5003   5.907   2.083   1.168
 1680TIP3    H1 5004   5.846   2.129   1.110
 1680TIP3    H2 5005   5.974   2.147   1.189
 1681TIP3   OH2 5006   3.432   1.594   1.796
 1681TIP3    H1 5007   3.408   1.519   1.849
 1681TIP3    H2 5008   3.518   1.573   1.761
 1682TIP3   OH2 5009   2.168   2.676   1.692
 1682TIP3    H1 5010   2.152   2.659   1.785
 1682TIP3    H2 5011   2.263   2.666   1.681
 1683TIP3   OH2 5012   2.410   4.423   2.119
 1683TIP3    H1 5013   2.440   4.387   2.202
 1683TIP3    H2 5014   2.488   4.465   2.081
 1684TIP3   OH2 5015   1.917   4.388   1.474
 1684TIP3    H1 5016   1.886   4.297   1.476
 1684TIP3    H2 5017   1.953   4.403   1.561
 1685TIP3   OH2 5018   0.036   3.097   5.519
 1685TIP3    H1 5019   0.068   3.048   5.594
 1685TIP3    H2 5020  -0.030   3.041   5.479
 1686TIP3   OH2 5021   2.710   5.119   2.319
 1686TIP3    H1 5022   2.805   5.118   2.303
 1686TIP3    H2 5023   2.693   5.037   2.366
 1687TIP3   OH2 5024   2.550   6.250   0.120
 1687TIP3    H1 5025   2.523   6.279   0.207
 1687TIP3    H2 5026   2.641   6.278   0.113
 1688TIP3   OH2 5027   0.199   0.995   0.802
 1688TIP3    H1 5028   0.204   0.920   0.861
 1688TIP3    H2 5029   0.199   0.957   0.714
 1689TIP3   OH2 5030  -0.008   6.447   5.686
 1689TIP3    H1 5031  -0.073   6.442   5.757
 1689TIP3    H2 5032   0.069   6.484   5.728
 1690TIP3   OH2 5033   5.388   3.651   1.061
 1690TIP3    H1 5034   5.320   3.715   1.081
 1690TIP3    H2 5035   5.373   3.580   1.124
 1691TIP3   OH2 5036   4.978   5.263   2.406
 1691TIP3    H1 5037   4.975   5.296   2.316
 1691TIP3    H2 5038   4.959   5.169   2.398
 1692TIP3   OH2 5039   5.127   6.423   3.480
 1692TIP3    H1 5040   5.191   6.419   3.409
 1692TIP3    H2 5041   5.175   6.396   3.558
 1693TIP3   OH2 5042   6.926   5.498   4.716
 1693TIP3    H1 5043   6.924   5.408   4.684
 1693TIP3    H2 5044   7.011   5.532   4.689
 1694TIP3   OH2 5045   4.252   0.600   3.719
 1694TIP3    H1 5046   4.204   0.673   3.757
 1694TIP3    H2 5047   4.314   0.574   3.787
 1695TIP3   OH2 5048   0.483   3.607   4.755
 1695TIP3    H1 5049   0.559   3.587   4.809
 1695TIP3    H2 5050   0.455   3.694   4.784
 1696TIP3   OH2 5051   5.689   5.013   3.335
 1696TIP3    H1 5052   5.763   4.954   3.322
 1696TIP3    H2 5053   5.718   5.096   3.298
 1697TIP3   OH2 5054   5.127   2.024   2.317
 1697TIP3    H1 5055   5.129   2.111   2.276
 1697TIP3    H2 5056   5.067   1.973   2.263
 1698TIP3   OH2 5057   5.488   4.985   2.936
 1698TIP3    H1 5058   5.403   4.952   2.967
 1698TIP3    H2 5059   5.466   5.062   2.883
 1699TIP3   OH2 5060   3.960   2.868   4.674
 1699TIP3    H1 5061   3.928   2.896   4.588
 1699TIP3    H2 5062   4.036   2.813   4.655
 1700TIP3   OH2 5063   6.049   3.683   4.024
 1700TIP3    H1 5064   5.974   3.743   4.027
 1700TIP3    H2 5065   6.125   3.741   4.026
 1701TIP3   OH2 5066   0.145   5.428   0.722
 1701TIP3    H1 5067   0.089   5.368   0.771
 1701TIP3    H2 5068   0.086   5.467   0.657
 1702TIP3   OH2 5069   3.846   1.287   3.895
 1702TIP3    H1 5070   3.846   1.223   3.823
 1702TIP3    H2 5071   3.753   1.306   3.908
 1703TIP3   OH2 5072   1.590   4.707   1.021
 1703TIP3    H1 5073   1.647   4.754   0.960
 1703TIP3    H2 5074   1.594   4.758   1.101
 1704TIP3   OH2 5075   5.738   3.607   4.517
 1704TIP3    H1 5076   5.706   3.643   4.435
 1704TIP3    H2 5077   5.806   3.667   4.545
 1705TIP3   OH2 5078   1.690   0.495   1.914
 1705TIP3    H1 5079   1.595   0.486   1.909
 1705TIP3    H2 5080   1.715   0.528   1.828
 1706TIP3   OH2 5081   3.887   2.448   0.987
 1706TIP3    H1 5082   3.887   2.410   0.899
 1706TIP3    H2 5083   3.979   2.468   1.004
 1707TIP3   OH2 5084   5.063   5.551   0.360
 1707TIP3    H1 5085   5.105   5.470   0.331
 1707TIP3    H2 5086   4.969   5.533   0.351
 1708TIP3   OH2 5087   1.001   6.243   1.490
 1708TIP3    H1 5088   0.919   6.204   1.459
 1708TIP3    H2 5089   0.998   6.333   1.456
 1709TIP3   OH2 5090   0.212   4.947   0.779
 1709TIP3    H1 5091   0.170   4.887   0.841
 1709TIP3    H2 5092   0.242   5.020   0.834
 1710TIP3   OH2 5093   3.526   2.482   4.940
 1710TIP3    H1 5094   3.567   2.534   4.871
 1710TIP3    H2 5095   3.445   2.449   4.900
 1711TIP3   OH2 5096   6.638   0.070   4.063
 1711TIP3    H1 5097   6.587   0.027   3.994
 1711TIP3    H2 5098   6.720   0.094   4.020
 1712TIP3   OH2 5099   6.798   0.128   5.550
 1712TIP3    H1 5100   6.866   0.152   5.613
 1712TIP3    H2 5101   6.811   0.189   5.477
 1713TIP3   OH2 5102   3.079   1.243   3.690
 1713TIP3    H1 5103   3.127   1.274   3.614
 1713TIP3    H2 5104   3.057   1.152   3.669
 1714TIP3   OH2 5105   7.062   1.073   0.726
 1714TIP3    H1 5106   6.997   1.100   0.661
 1714TIP3    H2 5107   7.073   0.979   0.711
 1715TIP3   OH2 5108   6.411   1.212   3.272
 1715TIP3    H1 5109   6.465   1.141   3.236
 1715TIP3    H2 5110   6.462   1.291   3.258
 1716TIP3   OH2 5111   2.124   5.988   0.076
 1716TIP3    H1 5112   2.101   5.912   0.129
 1716TIP3    H2 5113   2.069   6.059   0.111
 1717TIP3   OH2 5114   2.493   6.502   5.091
 1717TIP3    H1 5115   2.582   6.474   5.073
 1717TIP3    H2 5116   2.488   6.590   5.054
 1718TIP3   OH2 5117   4.948  -0.032   4.333
 1718TIP3    H1 5118   4.958  -0.014   4.426
 1718TIP3    H2 5119   5.025   0.008   4.292
 1719TIP3   OH2 5120   6.143   5.620   0.223
 1719TIP3    H1 5121   6.136   5.528   0.196
 1719TIP3    H2 5122   6.059   5.659   0.197
 1720TIP3   OH2 5123   3.247   2.642   5.120
 1720TIP3    H1 5124   3.162   2.678   5.094
 1720TIP3    H2 5125   3.248   2.652   5.215
 1721TIP3   OH2 5126   0.412   6.354   3.788
 1721TIP3    H1 5127   0.381   6.431   3.739
 1721TIP3    H2 5128   0.452   6.298   3.722
 1722TIP3   OH2 5129   3.867   4.064   1.339
 1722TIP3    H1 5130   3.804   4.043   1.270
 1722TIP3    H2 5131   3.877   3.982   1.388
 1723TIP3   OH2 5132   3.679   0.873   2.802
 1723TIP3    H1 5133   3.717   0.798   2.849
 1723TIP3    H2 5134   3.755   0.925   2.775
 1724TIP3   OH2 5135   3.728   1.966   2.921
 1724TIP3    H1 5136   3.671   2.037   2.950
 1724TIP3    H2 5137   3.683   1.928   2.845
 1725TIP3   OH2 5138   1.566   4.299   1.565
 1725TIP3    H1 5139   1.602   4.210   1.557
 1725TIP3    H2 5140   1.606   4.334   1.644
 1726TIP3   OH2 5141   2.287   6.161   5.680
 1726TIP3    H1 5142   2.354   6.204   5.627
 1726TIP3    H2 5143   2.310   6.068   5.677
 1727TIP3   OH2 5144   3.666   3.429   5.518
 1727TIP3    H1 5145   3.666   3.367   5.591
 1727TIP3    H2 5146   3.577   3.425   5.482
 1728TIP3   OH2 5147   3.771   0.588   1.973
 1728TIP3    H1 5148   3.749   0.680   1.982
 1728TIP3    H2 5149   3.856   0.579   2.015
 1729TIP3   OH2 5150   2.725   5.069   4.991
 1729TIP3    H1 5151   2.813   5.044   4.962
 1729TIP3    H2 5152   2.669   5.045   4.918
 1730TIP3   OH2 5153   1.490   1.450   0.986
 1730TIP3    H1 5154   1.470   1.380   0.923
 1730TIP3    H2 5155   1.584   1.462   0.979
 1731TIP3   OH2 5156   2.380   0.133   1.498
 1731TIP3    H1 5157   2.362   0.151   1.590
 1731TIP3    H2 5158   2.463   0.086   1.498
 1732TIP3   OH2 5159   0.005   6.027   4.296
 1732TIP3    H1 5160   0.058   6.045   4.373
 1732TIP3    H2 5161  -0.067   5.973   4.328
 1733TIP3   OH2 5162   0.954   0.793   4.250
 1733TIP3    H1 5163   0.914   0.866   4.297
 1733TIP3    H2 5164   1.044   0.789   4.284
 1734TIP3   OH2 5165   1.972   2.443   0.380
 1734TIP3    H1 5166   1.935   2.370   0.330
 1734TIP3    H2 5167   1.979   2.514   0.317
 1735TIP3   OH2 5168   0.071   0.193   3.069
 1735TIP3    H1 5169   0.014   0.252   3.118
 1735TIP3    H2 5170   0.016   0.161   2.997
 1736TIP3   OH2 5171   2.655   1.499   0.477
 1736TIP3    H1 5172   2.660   1.572   0.415
 1736TIP3    H2 5173   2.569   1.508   0.517
 1737TIP3   OH2 5174   2.150   1.402   5.843
 1737TIP3    H1 5175   2.223   1.353   5.805
 1737TIP3    H2 5176   2.092   1.420   5.769
 1738TIP3   OH2 5177   6.510   4.154   2.408
 1738TIP3    H1 5178   6.482   4.101   2.333
 1738TIP3    H2 5179   6.587   4.201   2.377
 1739TIP3   OH2 5180   7.015   3.902   3.327
 1739TIP3    H1 5181   7.026   3.982   3.274
 1739TIP3    H2 5182   6.927   3.871   3.306
 1740TIP3   OH2 5183   6.853   1.752   0.380
 1740TIP3    H1 5184   6.909   1.683   0.343
 1740TIP3    H2 5185   6.813   1.711   0.456
 1741TIP3   OH2 5186   3.518   4.672   0.867
 1741TIP3    H1 5187   3.473   4.588   0.876
 1741TIP3    H2 5188   3.475   4.715   0.793
 1742TIP3   OH2 5189   4.246   1.963   3.452
 1742TIP3    H1 5190   4.256   1.909   3.373
 1742TIP3    H2 5191   4.151   1.964   3.469
 1743TIP3   OH2 5192   5.485   3.977   3.161
 1743TIP3    H1 5193   5.503   4.069   3.181
 1743TIP3    H2 5194   5.403   3.980   3.111
 1744TIP3   OH2 5195   1.966   4.132   0.045
 1744TIP3    H1 5196   1.965   4.129  -0.051
 1744TIP3    H2 5197   2.059   4.135   0.068
 1745TIP3   OH2 5198   2.776   4.494   4.157
 1745TIP3    H1 5199   2.864   4.458   4.153
 1745TIP3    H2 5200   2.789   4.589   4.151
 1746TIP3   OH2 5201   2.009   2.159   0.618
 1746TIP3    H1 5202   1.983   2.093   0.682
 1746TIP3    H2 5203   1.972   2.241   0.650
 1747TIP3   OH2 5204   6.398   0.867   0.910
 1747TIP3    H1 5205   6.429   0.946   0.955
 1747TIP3    H2 5206   6.468   0.803   0.921
 1748TIP3   OH2 5207   4.369   3.353   0.453
 1748TIP3    H1 5208   4.274   3.345   0.461
 1748TIP3    H2 5209   4.384   3.445   0.432
 1749TIP3   OH2 5210   5.525   4.721   1.794
 1749TIP3    H1 5211   5.596   4.710   1.858
 1749TIP3    H2 5212   5.537   4.648   1.733
 1750TIP3   OH2 5213   2.316   1.828   4.151
 1750TIP3    H1 5214   2.402   1.790   4.133
 1750TIP3    H2 5215   2.286   1.860   4.066
 1751TIP3   OH2 5216   2.364   6.112   0.333
 1751TIP3    H1 5217   2.292   6.065   0.375
 1751TIP3    H2 5218   2.402   6.048   0.273
 1752TIP3   OH2 5219   2.554   5.008   0.027
 1752TIP3    H1 5220   2.629   4.958  -0.004
 1752TIP3    H2 5221   2.570   5.097  -0.004
 1753TIP3   OH2 5222   2.397   6.676   2.800
 1753TIP3    H1 5223   2.361   6.678   2.711
 1753TIP3    H2 5224   2.491   6.685   2.789
 1754TIP3   OH2 5225   2.260   5.604   5.637
 1754TIP3    H1 5226   2.352   5.630   5.646
 1754TIP3    H2 5227   2.221   5.620   5.723
 1755TIP3   OH2 5228   7.196   5.355   1.985
 1755TIP3    H1 5229   7.229   5.292   2.049
 1755TIP3    H2 5230   7.148   5.419   2.037
 1756TIP3   OH2 5231   2.253   4.317   5.111
 1756TIP3    H1 5232   2.280   4.283   5.026
 1756TIP3    H2 5233   2.202   4.246   5.150
 1757TIP3   OH2 5234   3.480   3.599   2.526
 1757TIP3    H1 5235   3.568   3.604   2.563
 1757TIP3    H2 5236   3.448   3.690   2.529
 1758TIP3   OH2 5237   3.888   6.636   1.185
 1758TIP3    H1 5238   3.856   6.726   1.189
 1758TIP3    H2 5239   3.965   6.635   1.241
 1759TIP3   OH2 5240   4.878   5.075   3.912
 1759TIP3    H1 5241   4.890   5.029   3.830
 1759TIP3    H2 5242   4.868   5.006   3.978
 1760TIP3   OH2 5243   3.064   2.749   1.627
 1760TIP3    H1 5244   2.985   2.696   1.610
 1760TIP3    H2 5245   3.137   2.690   1.606
 1761TIP3   OH2 5246   6.921   1.484   0.983
 1761TIP3    H1 5247   6.875   1.556   1.027
 1761TIP3    H2 5248   6.860   1.411   0.986
 1762TIP3   OH2 5249   2.860   0.075   5.256
 1762TIP3    H1 5250   2.835   0.157   5.298
 1762TIP3    H2 5251   2.937   0.096   5.204
 1763TIP3   OH2 5252   5.640   4.456   4.308
 1763TIP3    H1 5253   5.645   4.477   4.401
 1763TIP3    H2 5254   5.618   4.539   4.266
 1764TIP3   OH2 5255   6.829   1.679   3.261
 1764TIP3    H1 5256   6.805   1.760   3.216
 1764TIP3    H2 5257   6.924   1.685   3.272
 1765TIP3   OH2 5258   3.820   1.384   0.512
 1765TIP3    H1 5259   3.729   1.409   0.499
 1765TIP3    H2 5260   3.821   1.289   0.498
 1766TIP3   OH2 5261   1.662   5.325   3.682
 1766TIP3    H1 5262   1.686   5.294   3.770
 1766TIP3    H2 5263   1.702   5.412   3.675
 1767TIP3   OH2 5264   3.232   3.919   1.690
 1767TIP3    H1 5265   3.189   3.861   1.628
 1767TIP3    H2 5266   3.299   3.864   1.732
 1768TIP3   OH2 5267   4.195   5.864   0.314
 1768TIP3    H1 5268   4.159   5.778   0.334
 1768TIP3    H2 5269   4.184   5.913   0.396
 1769TIP3   OH2 5270   3.843   3.832   0.524
 1769TIP3    H1 5271   3.779   3.776   0.568
 1769TIP3    H2 5272   3.804   3.851   0.439
 1770TIP3   OH2 5273   4.870   2.890   3.892
 1770TIP3    H1 5274   4.842   2.947   3.821
 1770TIP3    H2 5275   4.802   2.898   3.959
 1771TIP3   OH2 5276   6.981   3.810   1.660
 1771TIP3    H1 5277   7.026   3.875   1.607
 1771TIP3    H2 5278   6.888   3.833   1.652
 1772TIP3   OH2 5279   0.212   3.922   5.382
 1772TIP3    H1 5280   0.167   3.942   5.299
 1772TIP3    H2 5281   0.169   3.977   5.446
 1773TIP3   OH2 5282   0.868   0.901   5.822
 1773TIP3    H1 5283   0.813   0.898   5.901
 1773TIP3    H2 5284   0.887   0.994   5.809
 1774TIP3   OH2 5285   5.046   3.038   0.467
 1774TIP3    H1 5286   5.017   3.065   0.554
 1774TIP3    H2 5287   5.128   2.991   0.482
 1775TIP3   OH2 5288   5.470   4.521   4.046
 1775TIP3    H1 5289   5.461   4.614   4.024
 1775TIP3    H2 5290   5.536   4.488   3.986
 1776TIP3   OH2 5291   1.789   2.178   4.499
 1776TIP3    H1 5292   1.826   2.140   4.419
 1776TIP3    H2 5293   1.859   2.174   4.563
 1777TIP3   OH2 5294   6.205   6.428   2.700
 1777TIP3    H1 5295   6.114   6.403   2.682
 1777TIP3    H2 5296   6.199   6.519   2.729
 1778TIP3   OH2 5297   5.370   1.153   1.866
 1778TIP3    H1 5298   5.293   1.174   1.813
 1778TIP3    H2 5299   5.339   1.087   1.928
 1779TIP3   OH2 5300   3.368   5.346   2.061
 1779TIP3    H1 5301   3.285   5.393   2.063
 1779TIP3    H2 5302   3.349   5.265   2.014
 1780TIP3   OH2 5303   4.773   0.529   5.680
 1780TIP3    H1 5304   4.801   0.454   5.732
 1780TIP3    H2 5305   4.831   0.527   5.603
 1781TIP3   OH2 5306   1.260   6.105   5.864
 1781TIP3    H1 5307   1.212   6.037   5.817
 1781TIP3    H2 5308   1.250   6.183   5.810
 1782TIP3   OH2 5309   1.513   6.127   1.526
 1782TIP3    H1 5310   1.589   6.184   1.525
 1782TIP3    H2 5311   1.523   6.075   1.606
 1783TIP3   OH2 5312   2.025   4.981   1.465
 1783TIP3    H1 5313   2.033   4.893   1.429
 1783TIP3    H2 5314   2.000   5.035   1.390
 1784TIP3   OH2 5315   0.247   1.725   4.857
 1784TIP3    H1 5316   0.189   1.793   4.890
 1784TIP3    H2 5317   0.216   1.710   4.767
 1785TIP3   OH2 5318   2.892   6.053   1.454
 1785TIP3    H1 5319   2.917   6.105   1.530
 1785TIP3    H2 5320   2.970   6.051   1.398
 1786TIP3   OH2 5321   3.327   6.458   3.611
 1786TIP3    H1 5322   3.328   6.485   3.703
 1786TIP3    H2 5323   3.233   6.451   3.589
 1787TIP3   OH2 5324   2.526   2.179   5.481
 1787TIP3    H1 5325   2.546   2.135   5.399
 1787TIP3    H2 5326   2.451   2.131   5.517
 1788TIP3   OH2 5327   7.195   3.057   4.716
 1788TIP3    H1 5328   7.279   3.017   4.693
 1788TIP3    H2 5329   7.189   3.134   4.660
 1789TIP3   OH2 5330   2.242   5.574   3.623
 1789TIP3    H1 5331   2.311   5.622   3.578
 1789TIP3    H2 5332   2.288   5.504   3.669
 1790TIP3   OH2 5333   4.266   2.941   2.781
 1790TIP3    H1 5334   4.234   2.899   2.861
 1790TIP3    H2 5335   4.349   2.898   2.764
 1791TIP3   OH2 5336   2.240   6.246   1.655
 1791TIP3    H1 5337   2.174   6.237   1.587
 1791TIP3    H2 5338   2.268   6.156   1.673
 1792TIP3   OH2 5339   2.699   1.283   5.609
 1792TIP3    H1 5340   2.727   1.309   5.521
 1792TIP3    H2 5341   2.605   1.299   5.610
 1793TIP3   OH2 5342   5.457   1.229   3.161
 1793TIP3    H1 5343   5.407   1.187   3.231
 1793TIP3    H2 5344   5.437   1.178   3.083
 1794TIP3   OH2 5345   6.832   0.819   3.077
 1794TIP3    H1 5346   6.859   0.838   2.988
 1794TIP3    H2 5347   6.871   0.889   3.129
 1795TIP3   OH2 5348   6.653   5.720   4.321
 1795TIP3    H1 5349   6.624   5.713   4.412
 1795TIP3    H2 5350   6.724   5.784   4.323
 1796TIP3   OH2 5351   5.707   4.283   0.851
 1796TIP3    H1 5352   5.691   4.314   0.762
 1796TIP3    H2 5353   5.625   4.302   0.897
 1797TIP3   OH2 5354   1.081   4.705   0.452
 1797TIP3    H1 5355   1.175   4.684   0.457
 1797TIP3    H2 5356   1.038   4.621   0.437
 1798TIP3   OH2 5357   4.435   2.865   2.515
 1798TIP3    H1 5358   4.355   2.869   2.463
 1798TIP3    H2 5359   4.494   2.929   2.474
 1799TIP3   OH2 5360   1.956   2.703   5.497
 1799TIP3    H1 5361   1.867   2.692   5.532
 1799TIP3    H2 5362   1.955   2.791   5.459
 1800TIP3   OH2 5363   3.950   4.584   0.398
 1800TIP3    H1 5364   4.022   4.567   0.459
 1800TIP3    H2 5365   3.971   4.530   0.321
 1801TIP3   OH2 5366   5.299   4.774   0.877
 1801TIP3    H1 5367   5.366   4.841   0.862
 1801TIP3    H2 5368   5.321   4.737   0.962
 1802TIP3   OH2 5369   0.257   3.513   1.785
 1802TIP3    H1 5370   0.250   3.608   1.772
 1802TIP3    H2 5371   0.172   3.487   1.820
 1803TIP3   OH2 5372   7.195   0.882   1.474
 1803TIP3    H1 5373   7.103   0.858   1.486
 1803TIP3    H2 5374   7.205   0.894   1.380
 1804TIP3   OH2 5375   3.358   5.789   0.110
 1804TIP3    H1 5376   3.313   5.705   0.116
 1804TIP3    H2 5377   3.289   5.852   0.089
 1805TIP3   OH2 5378   6.218   6.214   1.287
 1805TIP3    H1 5379   6.199   6.163   1.209
 1805TIP3    H2 5380   6.211   6.305   1.259
 1806TIP3   OH2 5381   7.221   5.121   1.376
 1806TIP3    H1 5382   7.240   5.033   1.343
 1806TIP3    H2 5383   7.140   5.111   1.425
 1807TIP3   OH2 5384   3.054   0.987   4.982
 1807TIP3    H1 5385   3.125   1.009   4.921
 1807TIP3    H2 5386   2.998   0.927   4.933
 1808TIP3   OH2 5387   5.955   0.902   0.369
 1808TIP3    H1 5388   5.913   0.842   0.307
 1808TIP3    H2 5389   6.001   0.965   0.314
 1809TIP3   OH2 5390   1.502   3.187   2.099
 1809TIP3    H1 5391   1.582   3.218   2.142
 1809TIP3    H2 5392   1.528   3.170   2.009
 1810TIP3   OH2 5393   5.112   4.370   1.604
 1810TIP3    H1 5394   5.174   4.406   1.668
 1810TIP3    H2 5395   5.053   4.443   1.584
 1811TIP3   OH2 5396   4.722   6.629   5.756
 1811TIP3    H1 5397   4.741   6.548   5.804
 1811TIP3    H2 5398   4.805   6.653   5.715
 1812TIP3   OH2 5399   3.590   5.501   5.275
 1812TIP3    H1 5400   3.609   5.444   5.201
 1812TIP3    H2 5401   3.591   5.590   5.239
 1813TIP3   OH2 5402   3.409   2.657   4.233
 1813TIP3    H1 5403   3.399   2.568   4.269
 1813TIP3    H2 5404   3.480   2.695   4.286
 1814TIP3   OH2 5405   5.655   0.156   5.274
 1814TIP3    H1 5406   5.708   0.233   5.295
 1814TIP3    H2 5407   5.713   0.082   5.289
 1815TIP3   OH2 5408   4.428   4.887   5.142
 1815TIP3    H1 5409   4.349   4.919   5.184
 1815TIP3    H2 5410   4.480   4.965   5.126
 1816TIP3   OH2 5411   0.379   2.541   0.181
 1816TIP3    H1 5412   0.453   2.487   0.207
 1816TIP3    H2 5413   0.409   2.631   0.191
 1817TIP3   OH2 5414   2.324   4.843   2.582
 1817TIP3    H1 5415   2.251   4.850   2.644
 1817TIP3    H2 5416   2.291   4.787   2.512
 1818TIP3   OH2 5417   0.816   5.576   0.567
 1818TIP3    H1 5418   0.904   5.574   0.530
 1818TIP3    H2 5419   0.781   5.489   0.548
 1819TIP3   OH2 5420   1.611   6.184   0.148
 1819TIP3    H1 5421   1.695   6.181   0.102
 1819TIP3    H2 5422   1.632   6.214   0.236
 1820TIP3   OH2 5423   2.811   6.771   0.020
 1820TIP3    H1 5424   2.736   6.831   0.024
 1820TIP3    H2 5425   2.888   6.828   0.028
 1821TIP3   OH2 5426   0.185   5.729   2.032
 1821TIP3    H1 5427   0.247   5.723   1.959
 1821TIP3    H2 5428   0.215   5.663   2.094
 1822TIP3   OH2 5429   2.445   5.482   1.231
 1822TIP3    H1 5430   2.390   5.404   1.230
 1822TIP3    H2 5431   2.383   5.555   1.234
 1823TIP3   OH2 5432   5.056   5.366   4.150
 1823TIP3    H1 5433   5.058   5.460   4.162
 1823TIP3    H2 5434   4.967   5.340   4.176
 1824TIP3   OH2 5435   3.101   3.531   4.838
 1824TIP3    H1 5436   3.016   3.522   4.881
 1824TIP3    H2 5437   3.124   3.442   4.812
 1825TIP3   OH2 5438   2.341   0.576   0.996
 1825TIP3    H1 5439   2.311   0.663   0.969
 1825TIP3    H2 5440   2.293   0.515   0.940
 1826TIP3   OH2 5441   2.068   1.558   5.370
 1826TIP3    H1 5442   1.974   1.541   5.374
 1826TIP3    H2 5443   2.087   1.611   5.448
 1827TIP3   OH2 5444   0.343   5.811   3.307
 1827TIP3    H1 5445   0.354   5.731   3.255
 1827TIP3    H2 5446   0.251   5.835   3.295
 1828TIP3   OH2 5447   2.737   2.808   1.742
 1828TIP3    H1 5448   2.659   2.805   1.798
 1828TIP3    H2 5449   2.756   2.901   1.732
 1829TIP3   OH2 5450   4.648   5.889   0.932
 1829TIP3    H1 5451   4.687   5.929   0.855
 1829TIP3    H2 5452   4.704   5.814   0.951
 1830TIP3   OH2 5453   0.774   0.743   4.046
 1830TIP3    H1 5454   0.848   0.759   4.103
 1830TIP3    H2 5455   0.755   0.828   4.007
 1831TIP3   OH2 5456   0.111   3.691   4.919
 1831TIP3    H1 5457   0.065   3.748   4.857
 1831TIP3    H2 5458   0.195   3.735   4.933
 1832TIP3   OH2 5459   6.518   5.330   2.284
 1832TIP3    H1 5460   6.501   5.421   2.307
 1832TIP3    H2 5461   6.437   5.284   2.308
 1833TIP3   OH2 5462   3.896   0.654   2.648
 1833TIP3    H1 5463   3.809   0.664   2.608
 1833TIP3    H2 5464   3.898   0.564   2.679
 1834TIP3   OH2 5465   3.357   3.963   2.432
 1834TIP3    H1 5466   3.338   4.046   2.476
 1834TIP3    H2 5467   3.416   3.986   2.361
 1835TIP3   OH2 5468   2.755   2.795   4.677
 1835TIP3    H1 5469   2.721   2.875   4.715
 1835TIP3    H2 5470   2.837   2.821   4.635
 1836TIP3   OH2 5471   6.296   1.620   2.381
 1836TIP3    H1 5472   6.321   1.529   2.364
 1836TIP3    H2 5473   6.374   1.659   2.421
 1837TIP3   OH2 5474   2.513   5.141   5.804
 1837TIP3    H1 5475   2.604   5.156   5.830
 1837TIP3    H2 5476   2.494   5.051   5.830
 1838TIP3   OH2 5477   0.410   0.523   3.058
 1838TIP3    H1 5478   0.415   0.430   3.081
 1838TIP3    H2 5479   0.361   0.562   3.130
 1839TIP3   OH2 5480   0.683  -0.051   4.656
 1839TIP3    H1 5481   0.738  -0.005   4.593
 1839TIP3    H2 5482   0.622   0.016   4.688
 1840TIP3   OH2 5483   2.462   5.901   3.837
 1840TIP3    H1 5484   2.534   5.964   3.836
 1840TIP3    H2 5485   2.443   5.888   3.930
 1841TIP3   OH2 5486   4.566   6.767   0.306
 1841TIP3    H1 5487   4.658   6.793   0.315
 1841TIP3    H2 5488   4.567   6.697   0.241
 1842TIP3   OH2 5489   1.442   4.337   4.204
 1842TIP3    H1 5490   1.444   4.433   4.200
 1842TIP3    H2 5491   1.458   4.309   4.114
 1843TIP3   OH2 5492   1.222   2.556   4.388
 1843TIP3    H1 5493   1.248   2.556   4.295
 1843TIP3    H2 5494   1.139   2.603   4.389
 1844TIP3   OH2 5495   1.664   3.413   4.359
 1844TIP3    H1 5496   1.581   3.383   4.322
 1844TIP3    H2 5497   1.694   3.340   4.413
 1845TIP3   OH2 5498   2.586   4.677   5.528
 1845TIP3    H1 5499   2.624   4.763   5.544
 1845TIP3    H2 5500   2.541   4.686   5.444
 1846TIP3   OH2 5501   5.085   2.530   0.251
 1846TIP3    H1 5502   5.041   2.615   0.257
 1846TIP3    H2 5503   5.174   2.548   0.282
 1847TIP3   OH2 5504   1.364   3.998   2.506
 1847TIP3    H1 5505   1.442   4.033   2.462
 1847TIP3    H2 5506   1.368   3.903   2.490
 1848TIP3   OH2 5507   2.416   2.031   1.471
 1848TIP3    H1 5508   2.391   2.045   1.562
 1848TIP3    H2 5509   2.409   2.117   1.430
 1849TIP3   OH2 5510   4.168   0.826   2.845
 1849TIP3    H1 5511   4.197   0.912   2.875
 1849TIP3    H2 5512   4.177   0.770   2.923
 1850TIP3   OH2 5513   1.098   2.487   1.504
 1850TIP3    H1 5514   1.094   2.581   1.483
 1850TIP3    H2 5515   1.072   2.443   1.423
 1851TIP3   OH2 5516   6.795   3.925   4.390
 1851TIP3    H1 5517   6.760   3.861   4.453
 1851TIP3    H2 5518   6.889   3.926   4.406
 1852TIP3   OH2 5519   1.228   2.002   4.173
 1852TIP3    H1 5520   1.291   2.030   4.239
 1852TIP3    H2 5521   1.152   2.059   4.185
 1853TIP3   OH2 5522   7.109   4.357   4.408
 1853TIP3    H1 5523   7.025   4.387   4.373
 1853TIP3    H2 5524   7.153   4.437   4.436
 1854TIP3   OH2 5525   7.143   5.083   4.965
 1854TIP3    H1 5526   7.152   5.084   5.060
 1854TIP3    H2 5527   7.140   4.990   4.942
 1855TIP3   OH2 5528   0.340   6.584   5.021
 1855TIP3    H1 5529   0.391   6.583   5.102
 1855TIP3    H2 5530   0.291   6.667   5.025
 1856TIP3   OH2 5531   6.014   4.708   4.623
 1856TIP3    H1 5532   6.106   4.686   4.610
 1856TIP3    H2 5533   6.015   4.777   4.689
 1857TIP3   OH2 5534   4.811   0.754   0.404
 1857TIP3    H1 5535   4.866   0.686   0.364
 1857TIP3    H2 5536   4.861   0.835   0.392
 1858TIP3   OH2 5537   2.960   5.702   0.925
 1858TIP3    H1 5538   2.906   5.668   0.996
 1858TIP3    H2 5539   2.985   5.790   0.954
 1859TIP3   OH2 5540   0.279   1.720   2.482
 1859TIP3    H1 5541   0.220   1.793   2.462
 1859TIP3    H2 5542   0.247   1.685   2.565
 1860TIP3   OH2 5543   4.240   3.949   0.879
 1860TIP3    H1 5544   4.280   4.030   0.910
 1860TIP3    H2 5545   4.222   3.965   0.786
 1861TIP3   OH2 5546   2.740   4.874   1.667
 1861TIP3    H1 5547   2.676   4.810   1.638
 1861TIP3    H2 5548   2.808   4.873   1.599
 1862TIP3   OH2 5549   0.544   6.648   3.797
 1862TIP3    H1 5550   0.487   6.724   3.784
 1862TIP3    H2 5551   0.559   6.614   3.709
 1863TIP3   OH2 5552   4.664   2.039   5.365
 1863TIP3    H1 5553   4.681   1.965   5.422
 1863TIP3    H2 5554   4.677   2.116   5.421
 1864TIP3   OH2 5555   0.260   1.980   0.152
 1864TIP3    H1 5556   0.328   1.913   0.163
 1864TIP3    H2 5557   0.181   1.931   0.131
 1865TIP3   OH2 5558   2.904   5.220   4.430
 1865TIP3    H1 5559   2.968   5.291   4.421
 1865TIP3    H2 5560   2.828   5.261   4.472
 1866TIP3   OH2 5561   6.921   1.931   3.783
 1866TIP3    H1 5562   6.852   1.864   3.781
 1866TIP3    H2 5563   6.990   1.896   3.727
 1867TIP3   OH2 5564   7.280   1.657   2.112
 1867TIP3    H1 5565   7.239   1.590   2.058
 1867TIP3    H2 5566   7.221   1.667   2.187
 1868TIP3   OH2 5567   1.529   4.963   3.840
 1868TIP3    H1 5568   1.511   4.870   3.856
 1868TIP3    H2 5569   1.623   4.965   3.822
 1869TIP3   OH2 5570   2.736   0.101   1.965
 1869TIP3    H1 5571   2.790   0.042   1.912
 1869TIP3    H2 5572   2.648   0.094   1.926
 1870TIP3   OH2 5573   2.274   5.962   1.660
 1870TIP3    H1 5574   2.182   5.954   1.637
 1870TIP3    H2 5575   2.317   5.986   1.578
 1871TIP3   OH2 5576   4.003   4.446   2.756
 1871TIP3    H1 5577   3.931   4.470   2.814
 1871TIP3    H2 5578   3.972   4.468   2.668
 1872TIP3   OH2 5579   6.085   1.108   0.230
 1872TIP3    H1 5580   6.042   1.188   0.200
 1872TIP3    H2 5581   6.136   1.136   0.306
 1873TIP3   OH2 5582   4.106   2.686   5.514
 1873TIP3    H1 5583   4.158   2.656   5.439
 1873TIP3    H2 5584   4.027   2.633   5.510
 1874TIP3   OH2 5585   1.719   5.358   1.942
 1874TIP3    H1 5586   1.734   5.441   1.898
 1874TIP3    H2 5587   1.624   5.347   1.942
 1875TIP3   OH2 5588   1.625   6.677   4.069
 1875TIP3    H1 5589   1.651   6.766   4.090
 1875TIP3    H2 5590   1.584   6.683   3.983
 1876TIP3   OH2 5591   4.598   2.223   2.019
 1876TIP3    H1 5592   4.570   2.132   2.033
 1876TIP3    H2 5593   4.668   2.217   1.954
 1877TIP3   OH2 5594   5.500   2.080   3.068
 1877TIP3    H1 5595   5.572   2.031   3.028
 1877TIP3    H2 5596   5.428   2.017   3.072
 1878TIP3   OH2 5597   6.393   3.257   0.843
 1878TIP3    H1 5598   6.379   3.163   0.830
 1878TIP3    H2 5599   6.357   3.275   0.930
 1879TIP3   OH2 5600   1.681   6.270   4.820
 1879TIP3    H1 5601   1.604   6.313   4.857
 1879TIP3    H2 5602   1.755   6.323   4.850
 1880TIP3   OH2 5603   2.647   1.786   4.769
 1880TIP3    H1 5604   2.688   1.769   4.685
 1880TIP3    H2 5605   2.618   1.877   4.764
 1881TIP3   OH2 5606   6.803   6.783   1.239
 1881TIP3    H1 5607   6.894   6.779   1.210
 1881TIP3    H2 5608   6.795   6.711   1.302
 1882TIP3   OH2 5609   2.396   0.464   5.447
 1882TIP3    H1 5610   2.418   0.406   5.374
 1882TIP3    H2 5611   2.461   0.443   5.514
 1883TIP3   OH2 5612   4.529   3.335   2.882
 1883TIP3    H1 5613   4.602   3.292   2.927
 1883TIP3    H2 5614   4.487   3.264   2.832
 1884TIP3   OH2 5615   5.226   4.999   1.407
 1884TIP3    H1 5616   5.173   4.975   1.483
 1884TIP3    H2 5617   5.190   4.946   1.336
 1885TIP3   OH2 5618   3.037   3.310   1.051
 1885TIP3    H1 5619   3.023   3.316   1.145
 1885TIP3    H2 5620   3.108   3.372   1.033
 1886TIP3   OH2 5621   6.765   1.409   0.202
 1886TIP3    H1 5622   6.841   1.441   0.250
 1886TIP3    H2 5623   6.798   1.335   0.151
 1887TIP3   OH2 5624   1.235   4.317   4.430
 1887TIP3    H1 5625   1.161   4.360   4.387
 1887TIP3    H2 5626   1.303   4.314   4.363
 1888TIP3   OH2 5627   3.783   0.554   5.767
 1888TIP3    H1 5628   3.760   0.595   5.683
 1888TIP3    H2 5629   3.793   0.627   5.827
 1889TIP3   OH2 5630   0.118   2.931   1.292
 1889TIP3    H1 5631   0.150   2.992   1.358
 1889TIP3    H2 5632   0.166   2.850   1.309
 1890TIP3   OH2 5633   5.089   2.703   4.481
 1890TIP3    H1 5634   5.026   2.648   4.434
 1890TIP3    H2 5635   5.040   2.735   4.557
 1891TIP3   OH2 5636   4.300   1.193   2.253
 1891TIP3    H1 5637   4.367   1.195   2.185
 1891TIP3    H2 5638   4.236   1.259   2.225
 1892TIP3   OH2 5639   2.277   1.291   3.550
 1892TIP3    H1 5640   2.352   1.308   3.493
 1892TIP3    H2 5641   2.224   1.371   3.546
 1893TIP3   OH2 5642   5.925   4.639   2.903
 1893TIP3    H1 5643   5.961   4.633   2.991
 1893TIP3    H2 5644   5.982   4.583   2.850
 1894TIP3   OH2 5645   0.123   1.921   5.390
 1894TIP3    H1 5646   0.159   1.838   5.419
 1894TIP3    H2 5647   0.029   1.914   5.409
 1895TIP3   OH2 5648   0.851   2.464   0.840
 1895TIP3    H1 5649   0.904   2.434   0.915
 1895TIP3    H2 5650   0.768   2.418   0.850
 1896TIP3   OH2 5651   0.871   3.475   2.389
 1896TIP3    H1 5652   0.929   3.551   2.381
 1896TIP3    H2 5653   0.809   3.499   2.458
 1897TIP3   OH2 5654   4.799   4.861   4.131
 1897TIP3    H1 5655   4.883   4.815   4.143
 1897TIP3    H2 5656   4.761   4.864   4.219
 1898TIP3   OH2 5657   6.370   1.143   3.549
 1898TIP3    H1 5658   6.339   1.053   3.549
 1898TIP3    H2 5659   6.361   1.172   3.458
 1899TIP3   OH2 5660   4.439   1.713   1.504
 1899TIP3    H1 5661   4.481   1.788   1.463
 1899TIP3    H2 5662   4.475   1.637   1.459
 1900TIP3   OH2 5663   1.939   2.615   3.946
 1900TIP3    H1 5664   1.935   2.681   3.877
 1900TIP3    H2 5665   1.948   2.532   3.899
 1901TIP3   OH2 5666   4.445   2.013   3.194
 1901TIP3    H1 5667   4.451   1.918   3.196
 1901TIP3    H2 5668   4.502   2.043   3.264
 1902TIP3   OH2 5669   6.292   0.004   0.046
 1902TIP3    H1 5670   6.380  -0.031   0.037
 1902TIP3    H2 5671   6.300   0.073   0.113
 1903TIP3   OH2 5672   0.463   6.188   4.212
 1903TIP3    H1 5673   0.504   6.247   4.148
 1903TIP3    H2 5674   0.369   6.200   4.198
 1904TIP3   OH2 5675   2.437   1.333   2.454
 1904TIP3    H1 5676   2.475   1.248   2.430
 1904TIP3    H2 5677   2.513   1.389   2.470
 1905TIP3   OH2 5678   1.087   1.993   3.255
 1905TIP3    H1 5679   1.178   1.997   3.286
 1905TIP3    H2 5680   1.089   1.930   3.183
 1906TIP3   OH2 5681   5.312   4.255   0.840
 1906TIP3    H1 5682   5.277   4.302   0.764
 1906TIP3    H2 5683   5.359   4.322   0.890
 1907TIP3   OH2 5684   3.648   2.595   1.800
 1907TIP3    H1 5685   3.669   2.542   1.723
 1907TIP3    H2 5686   3.730   2.641   1.820
 1908TIP3   OH2 5687   6.332   4.633   5.066
 1908TIP3    H1 5688   6.295   4.578   4.997
 1908TIP3    H2 5689   6.293   4.600   5.147
 1909TIP3   OH2 5690   3.890   2.730   1.858
 1909TIP3    H1 5691   3.971   2.730   1.806
 1909TIP3    H2 5692   3.919   2.743   1.948
 1910TIP3   OH2 5693   5.200   4.463   2.815
 1910TIP3    H1 5694   5.185   4.524   2.742
 1910TIP3    H2 5695   5.145   4.496   2.886
 1911TIP3   OH2 5696   7.029   2.161   5.377
 1911TIP3    H1 5697   7.019   2.239   5.432
 1911TIP3    H2 5698   6.990   2.187   5.293
 1912TIP3   OH2 5699   4.397   0.122   4.039
 1912TIP3    H1 5700   4.334   0.193   4.052
 1912TIP3    H2 5701   4.359   0.047   4.084
 1913TIP3   OH2 5702   4.598   4.165   0.250
 1913TIP3    H1 5703   4.505   4.176   0.231
 1913TIP3    H2 5704   4.633   4.254   0.257
 1914TIP3   OH2 5705   2.982   3.761   5.462
 1914TIP3    H1 5706   2.965   3.707   5.385
 1914TIP3    H2 5707   2.896   3.782   5.497
 1915TIP3   OH2 5708   4.086   2.126   0.612
 1915TIP3    H1 5709   4.167   2.152   0.570
 1915TIP3    H2 5710   4.101   2.035   0.640
 1916TIP3   OH2 5711   0.969   1.756   0.750
 1916TIP3    H1 5712   0.901   1.714   0.698
 1916TIP3    H2 5713   0.924   1.824   0.800
 1917TIP3   OH2 5714   4.830   5.763   1.962
 1917TIP3    H1 5715   4.736   5.745   1.961
 1917TIP3    H2 5716   4.869   5.690   1.913
 1918TIP3   OH2 5717   0.146   2.225   1.392
 1918TIP3    H1 5718   0.158   2.309   1.349
 1918TIP3    H2 5719   0.069   2.236   1.448
 1919TIP3   OH2 5720   4.933   6.212   4.058
 1919TIP3    H1 5721   4.840   6.231   4.072
 1919TIP3    H2 5722   4.943   6.211   3.963
 1920TIP3   OH2 5723   4.258   6.361   5.525
 1920TIP3    H1 5724   4.259   6.375   5.430
 1920TIP3    H2 5725   4.344   6.394   5.554
 1921TIP3   OH2 5726   2.090   3.459   5.002
 1921TIP3    H1 5727   2.162   3.444   5.063
 1921TIP3    H2 5728   2.125   3.433   4.916
 1922TIP3   OH2 5729   6.547   1.390   5.446
 1922TIP3    H1 5730   6.502   1.324   5.394
 1922TIP3    H2 5731   6.624   1.413   5.394
 1923TIP3   OH2 5732   0.185   5.451   2.471
 1923TIP3    H1 5733   0.226   5.381   2.523
 1923TIP3    H2 5734   0.164   5.519   2.536
 1924TIP3   OH2 5735   2.489   2.268   4.863
 1924TIP3    H1 5736   2.573   2.286   4.820
 1924TIP3    H2 5737   2.435   2.344   4.841
 1925TIP3   OH2 5738   2.484   4.062   5.502
 1925TIP3    H1 5739   2.542   4.104   5.564
 1925TIP3    H2 5740   2.397   4.069   5.541
 1926TIP3   OH2 5741   4.772   3.121   1.449
 1926TIP3    H1 5742   4.791   3.209   1.415
 1926TIP3    H2 5743   4.823   3.115   1.530
 1927TIP3   OH2 5744   2.455   1.865   5.389
 1927TIP3    H1 5745   2.480   1.780   5.425
 1927TIP3    H2 5746   2.514   1.879   5.315
 1928TIP3   OH2 5747   2.425   3.308   5.290
 1928TIP3    H1 5748   2.344   3.262   5.311
 1928TIP3    H2 5749   2.398   3.397   5.270
 1929TIP3   OH2 5750   4.922   5.350   3.192
 1929TIP3    H1 5751   4.895   5.300   3.269
 1929TIP3    H2 5752   4.865   5.426   3.191
 1930TIP3   OH2 5753   0.610   0.925   0.035
 1930TIP3    H1 5754   0.644   0.973  -0.041
 1930TIP3    H2 5755   0.534   0.977   0.063
 1931TIP3   OH2 5756   1.764   2.765   3.760
 1931TIP3    H1 5757   1.738   2.848   3.719
 1931TIP3    H2 5758   1.697   2.749   3.826
 1932TIP3   OH2 5759   3.377   0.007   0.219
 1932TIP3    H1 5760   3.402   0.013   0.311
 1932TIP3    H2 5761   3.332   0.090   0.201
 1933TIP3   OH2 5762   6.801   0.958   2.070
 1933TIP3    H1 5763   6.770   0.906   2.144
 1933TIP3    H2 5764   6.841   1.035   2.110
 1934TIP3   OH2 5765   3.228   0.299   3.458
 1934TIP3    H1 5766   3.298   0.281   3.395
 1934TIP3    H2 5767   3.191   0.382   3.430
 1935TIP3   OH2 5768   5.027   2.489   4.959
 1935TIP3    H1 5769   5.005   2.578   4.931
 1935TIP3    H2 5770   5.057   2.445   4.879
 1936TIP3   OH2 5771   6.984   3.580   4.722
 1936TIP3    H1 5772   7.002   3.618   4.809
 1936TIP3    H2 5773   6.966   3.488   4.739
 1937TIP3   OH2 5774   3.792   4.502   4.159
 1937TIP3    H1 5775   3.777   4.465   4.072
 1937TIP3    H2 5776   3.780   4.596   4.149
 1938TIP3   OH2 5777   3.130   4.137   0.886
 1938TIP3    H1 5778   3.079   4.137   0.805
 1938TIP3    H2 5779   3.191   4.210   0.876
 1939TIP3   OH2 5780   3.650   4.749   4.908
 1939TIP3    H1 5781   3.649   4.838   4.943
 1939TIP3    H2 5782   3.738   4.738   4.871
 1940TIP3   OH2 5783   0.875   3.790   4.873
 1940TIP3    H1 5784   0.824   3.712   4.892
 1940TIP3    H2 5785   0.925   3.767   4.794
 1941TIP3   OH2 5786   0.219   0.490   0.919
 1941TIP3    H1 5787   0.135   0.464   0.958
 1941TIP3    H2 5788   0.253   0.410   0.880
 1942TIP3   OH2 5789   3.962   3.435   1.081
 1942TIP3    H1 5790   3.934   3.522   1.107
 1942TIP3    H2 5791   4.005   3.399   1.158
 1943TIP3   OH2 5792   3.934   6.469   0.970
 1943TIP3    H1 5793   3.906   6.542   1.024
 1943TIP3    H2 5794   3.903   6.391   1.015
 1944TIP3   OH2 5795   1.637   0.583   3.242
 1944TIP3    H1 5796   1.718   0.633   3.232
 1944TIP3    H2 5797   1.640   0.519   3.171
 1945TIP3   OH2 5798   4.458   1.225   4.904
 1945TIP3    H1 5799   4.511   1.292   4.948
 1945TIP3    H2 5800   4.370   1.237   4.940
 1946TIP3   OH2 5801   2.872   3.709   1.136
 1946TIP3    H1 5802   2.834   3.638   1.084
 1946TIP3    H2 5803   2.799   3.743   1.187
 1947TIP3   OH2 5804   5.810   3.893   5.655
 1947TIP3    H1 5805   5.868   3.958   5.694
 1947TIP3    H2 5806   5.849   3.875   5.569
 1948TIP3   OH2 5807   0.935   5.482   5.219
 1948TIP3    H1 5808   0.999   5.411   5.209
 1948TIP3    H2 5809   0.989   5.560   5.233
 1949TIP3   OH2 5810   3.405   3.505   5.458
 1949TIP3    H1 5811   3.372   3.593   5.476
 1949TIP3    H2 5812   3.327   3.453   5.437
 1950TIP3   OH2 5813   0.685   2.599   4.198
 1950TIP3    H1 5814   0.695   2.680   4.247
 1950TIP3    H2 5815   0.591   2.590   4.184
 1951TIP3   OH2 5816   0.852   1.470   1.334
 1951TIP3    H1 5817   0.846   1.455   1.240
 1951TIP3    H2 5818   0.778   1.527   1.354
 1952TIP3   OH2 5819   5.961   2.175   2.528
 1952TIP3    H1 5820   5.965   2.219   2.613
 1952TIP3    H2 5821   5.992   2.086   2.545
 1953TIP3   OH2 5822   3.719   4.439   4.802
 1953TIP3    H1 5823   3.640   4.419   4.852
 1953TIP3    H2 5824   3.787   4.384   4.841
 1954TIP3   OH2 5825   2.681   1.039   3.179
 1954TIP3    H1 5826   2.606   1.074   3.131
 1954TIP3    H2 5827   2.734   0.994   3.112
 1955TIP3   OH2 5828   2.615   3.129   3.070
 1955TIP3    H1 5829   2.591   3.215   3.105
 1955TIP3    H2 5830   2.658   3.085   3.143
 1956TIP3   OH2 5831   7.171   3.360   3.695
 1956TIP3    H1 5832   7.175   3.378   3.789
 1956TIP3    H2 5833   7.149   3.444   3.656
 1957TIP3   OH2 5834   5.171   0.381   5.364
 1957TIP3    H1 5835   5.199   0.338   5.284
 1957TIP3    H2 5836   5.130   0.462   5.335
 1958TIP3   OH2 5837   4.452   0.474   5.364
 1958TIP3    H1 5838   4.496   0.530   5.427
 1958TIP3    H2 5839   4.373   0.522   5.340
 1959TIP3   OH2 5840   2.061   0.361   1.767
 1959TIP3    H1 5841   2.044   0.437   1.712
 1959TIP3    H2 5842   2.036   0.286   1.713
 1960TIP3   OH2 5843   6.492   2.347   2.103
 1960TIP3    H1 5844   6.432   2.322   2.173
 1960TIP3    H2 5845   6.437   2.389   2.037
 1961TIP3   OH2 5846   3.397   5.298   3.095
 1961TIP3    H1 5847   3.306   5.298   3.064
 1961TIP3    H2 5848   3.449   5.315   3.016
 1962TIP3   OH2 5849   1.274   1.346   3.734
 1962TIP3    H1 5850   1.219   1.277   3.697
 1962TIP3    H2 5851   1.278   1.413   3.666
 1963TIP3   OH2 5852   3.019   3.990   2.391
 1963TIP3    H1 5853   3.035   3.951   2.477
 1963TIP3    H2 5854   2.931   3.960   2.367
 1964TIP3   OH2 5855   0.251   4.891   2.345
 1964TIP3    H1 5856   0.250   4.795   2.345
 1964TIP3    H2 5857   0.187   4.916   2.411
 1965TIP3   OH2 5858   4.978   0.585   3.264
 1965TIP3    H1 5859   4.970   0.668   3.217
 1965TIP3    H2 5860   4.927   0.598   3.344
 1966TIP3   OH2 5861   5.403   2.235   0.240
 1966TIP3    H1 5862   5.448   2.319   0.229
 1966TIP3    H2 5863   5.347   2.227   0.163
 1967TIP3   OH2 5864   3.772   2.129   1.383
 1967TIP3    H1 5865   3.781   2.174   1.299
 1967TIP3    H2 5866   3.825   2.050   1.374
 1968TIP3   OH2 5867   0.825   3.592   5.506
 1968TIP3    H1 5868   0.894   3.648   5.542
 1968TIP3    H2 5869   0.813   3.624   5.417
 1969TIP3   OH2 5870   2.372   6.677   3.963
 1969TIP3    H1 5871   2.349   6.671   3.870
 1969TIP3    H2 5872   2.466   6.656   3.965
 1970TIP3   OH2 5873   5.179   6.208   1.937
 1970TIP3    H1 5874   5.147   6.225   2.025
 1970TIP3    H2 5875   5.121   6.141   1.902
 1971TIP3   OH2 5876   1.844   6.440   3.128
 1971TIP3    H1 5877   1.851   6.422   3.222
 1971TIP3    H2 5878   1.812   6.531   3.124
 1972TIP3   OH2 5879   1.432   3.738   1.400
 1972TIP3    H1 5880   1.354   3.711   1.449
 1972TIP3    H2 5881   1.464   3.816   1.446
 1973TIP3   OH2 5882   2.012   0.167   1.542
 1973TIP3    H1 5883   1.952   0.095   1.527
 1973TIP3    H2 5884   2.096   0.136   1.509
 1974TIP3   OH2 5885   3.756   5.033   4.883
 1974TIP3    H1 5886   3.793   5.097   4.943
 1974TIP3    H2 5887   3.807   5.043   4.802
 1975TIP3   OH2 5888   2.896   4.577   1.542
 1975TIP3    H1 5889   2.916   4.640   1.611
 1975TIP3    H2 5890   2.925   4.493   1.577
 1976TIP3   OH2 5891   3.365   0.956   2.660
 1976TIP3    H1 5892   3.457   0.953   2.684
 1976TIP3    H2 5893   3.353   1.042   2.621
 1977TIP3   OH2 5894   6.261   1.361   4.996
 1977TIP3    H1 5895   6.311   1.324   4.923
 1977TIP3    H2 5896   6.316   1.433   5.028
 1978TIP3   OH2 5897   3.088   5.250   2.138
 1978TIP3    H1 5898   3.022   5.235   2.206
 1978TIP3    H2 5899   3.095   5.166   2.093
 1979TIP3   OH2 5900   2.371   4.963   3.243
 1979TIP3    H1 5901   2.401   4.955   3.152
 1979TIP3    H2 5902   2.311   5.038   3.242
 1980TIP3   OH2 5903   7.102   1.689   3.299
 1980TIP3    H1 5904   7.159   1.745   3.246
 1980TIP3    H2 5905   7.141   1.602   3.293
 1981TIP3   OH2 5906   2.283   2.409   2.689
 1981TIP3    H1 5907   2.274   2.419   2.595
 1981TIP3    H2 5908   2.365   2.360   2.701
 1982TIP3   OH2 5909   3.482   2.165   1.915
 1982TIP3    H1 5910   3.410   2.111   1.884
 1982TIP3    H2 5911   3.522   2.201   1.836
 1983TIP3   OH2 5912   1.181   6.654   4.973
 1983TIP3    H1 5913   1.246   6.598   5.017
 1983TIP3    H2 5914   1.147   6.710   5.043
 1984TIP3   OH2 5915   5.836   3.931   1.249
 1984TIP3    H1 5916   5.901   3.913   1.316
 1984TIP3    H2 5917   5.824   3.847   1.204
 1985TIP3   OH2 5918   6.908   3.162   3.466
 1985TIP3    H1 5919   6.967   3.131   3.535
 1985TIP3    H2 5920   6.828   3.111   3.478
 1986TIP3   OH2 5921   1.238   0.573   5.420
 1986TIP3    H1 5922   1.313   0.618   5.380
 1986TIP3    H2 5923   1.232   0.490   5.372
 1987TIP3   OH2 5924   4.520   6.572   3.336
 1987TIP3    H1 5925   4.470   6.524   3.270
 1987TIP3    H2 5926   4.468   6.650   3.353
 1988TIP3   OH2 5927   5.719   5.955   2.414
 1988TIP3    H1 5928   5.713   5.990   2.325
 1988TIP3    H2 5929   5.628   5.936   2.438
 1989TIP3   OH2 5930   3.823   5.260   2.866
 1989TIP3    H1 5931   3.854   5.306   2.944
 1989TIP3    H2 5932   3.870   5.301   2.794
 1990TIP3   OH2 5933   4.594   3.542   1.452
 1990TIP3    H1 5934   4.564   3.595   1.525
 1990TIP3    H2 5935   4.552   3.457   1.465
 1991TIP3   OH2 5936   5.699   2.526   0.775
 1991TIP3    H1 5937   5.744   2.443   0.793
 1991TIP3    H2 5938   5.766   2.582   0.736
 1992TIP3   OH2 5939   1.876   1.856   1.768
 1992TIP3    H1 5940   1.839   1.814   1.690
 1992TIP3    H2 5941   1.823   1.934   1.781
 1993TIP3   OH2 5942   4.978   2.384   3.042
 1993TIP3    H1 5943   5.003   2.338   3.122
 1993TIP3    H2 5944   5.055   2.379   2.985
 1994TIP3   OH2 5945   4.768   6.706   3.344
 1994TIP3    H1 5946   4.680   6.670   3.337
 1994TIP3    H2 5947   4.808   6.691   3.259
 1995TIP3   OH2 5948   5.268   4.424   4.209
 1995TIP3    H1 5949   5.303   4.336   4.194
 1995TIP3    H2 5950   5.335   4.482   4.172
 1996TIP3   OH2 5951   0.698   5.584   4.437
 1996TIP3    H1 5952   0.782   5.581   4.482
 1996TIP3    H2 5953   0.671   5.493   4.429
 1997TIP3   OH2 5954   0.743   0.792   1.363
 1997TIP3    H1 5955   0.660   0.775   1.408
 1997TIP3    H2 5956   0.798   0.833   1.429
 1998TIP3   OH2 5957   3.511   0.002   3.354
 1998TIP3    H1 5958   3.493  -0.017   3.446
 1998TIP3    H2 5959   3.428  -0.016   3.309
 1999TIP3   OH2 5960   4.364   1.973   0.274
 1999TIP3    H1 5961   4.356   1.927   0.190
 1999TIP3    H2 5962   4.306   2.049   0.265
 2000TIP3   OH2 5963   0.379   5.951   2.063
 2000TIP3    H1 5964   0.425   6.011   2.121
 2000TIP3    H2 5965   0.385   5.866   2.106
 2001TIP3   OH2 5966   2.232   3.181   2.889
 2001TIP3    H1 5967   2.326   3.188   2.872
 2001TIP3    H2 5968   2.216   3.243   2.960
 2002TIP3   OH2 5969   4.773   1.494   1.039
 2002TIP3    H1 5970   4.677   1.494   1.034
 2002TIP3    H2 5971   4.794   1.412   1.083
 2003TIP3   OH2 5972   4.303   0.272   4.495
 2003TIP3    H1 5973   4.219   0.226   4.497
 2003TIP3    H2 5974   4.363   0.212   4.540
 2004TIP3   OH2 5975   3.641   2.093   1.620
 2004TIP3    H1 5976   3.577   2.021   1.618
 2004TIP3    H2 5977   3.668   2.103   1.529
 2005TIP3   OH2 5978   1.387   0.729   3.301
 2005TIP3    H1 5979   1.379   0.680   3.382
 2005TIP3    H2 5980   1.465   0.693   3.258
 2006TIP3   OH2 5981   0.095   6.003   2.019
 2006TIP3    H1 5982   0.131   5.920   2.052
 2006TIP3    H2 5983   0.169   6.063   2.021
 2007TIP3   OH2 5984   0.523   1.816   5.080
 2007TIP3    H1 5985   0.434   1.795   5.053
 2007TIP3    H2 5986   0.567   1.844   5.000
 2008TIP3   OH2 5987   6.931   4.309   4.681
 2008TIP3    H1 5988   6.908   4.221   4.649
 2008TIP3    H2 5989   6.942   4.361   4.601
 2009TIP3   OH2 5990   5.183   5.409   3.075
 2009TIP3    H1 5991   5.166   5.489   3.124
 2009TIP3    H2 5992   5.104   5.356   3.086
 2010TIP3   OH2 5993   4.084   0.081   4.863
 2010TIP3    H1 5994   4.030   0.097   4.940
 2010TIP3    H2 5995   4.088  -0.015   4.856
 2011TIP3   OH2 5996   3.598   5.594   4.206
 2011TIP3    H1 5997   3.618   5.556   4.121
 2011TIP3    H2 5998   3.679   5.585   4.257
 2012TIP3   OH2 5999   5.175   6.449   5.266
 2012TIP3    H1 6000   5.208   6.514   5.204
 2012TIP3    H2 6001   5.212   6.366   5.236
 2013TIP3   OH2 6002   3.971   6.847   5.382
 2013TIP3    H1 6003   4.047   6.807   5.425
 2013TIP3    H2 6004   3.914   6.773   5.361
 2014TIP3   OH2 6005   0.491   6.702   1.846
 2014TIP3    H1 6006   0.564   6.686   1.906
 2014TIP3    H2 6007   0.523   6.672   1.761
 2015TIP3   OH2 6008   2.521   0.298   1.128
 2015TIP3    H1 6009   2.582   0.350   1.075
 2015TIP3    H2 6010   2.467   0.362   1.173
 2016TIP3   OH2 6011   4.022   1.700   2.896
 2016TIP3    H1 6012   4.108   1.694   2.938
 2016TIP3    H2 6013   3.992   1.788   2.916
 2017TIP3   OH2 6014   6.373   0.965   2.214
 2017TIP3    H1 6015   6.285   0.991   2.242
 2017TIP3    H2 6016   6.359   0.882   2.168
 2018TIP3   OH2 6017   1.529   4.422   1.310
 2018TIP3    H1 6018   1.519   4.360   1.382
 2018TIP3    H2 6019   1.577   4.496   1.349
 2019TIP3   OH2 6020   2.550   5.606   0.231
 2019TIP3    H1 6021   2.538   5.556   0.312
 2019TIP3    H2 6022   2.628   5.568   0.191
 2020TIP3   OH2 6023   1.784   4.066   3.231
 2020TIP3    H1 6024   1.803   3.981   3.192
 2020TIP3    H2 6025   1.692   4.082   3.210
 2021TIP3   OH2 6026   6.438   3.503   1.500
 2021TIP3    H1 6027   6.419   3.587   1.542
 2021TIP3    H2 6028   6.352   3.470   1.472
 2022TIP3   OH2 6029   3.209   3.066   1.237
 2022TIP3    H1 6030   3.151   3.036   1.168
 2022TIP3    H2 6031   3.182   3.017   1.315
 2023TIP3   OH2 6032   5.988   0.357   1.236
 2023TIP3    H1 6033   5.967   0.443   1.271
 2023TIP3    H2 6034   5.906   0.326   1.197
 2024TIP3   OH2 6035   2.879   4.921   1.273
 2024TIP3    H1 6036   2.923   5.003   1.251
 2024TIP3    H2 6037   2.950   4.858   1.286
 2025TIP3   OH2 6038   3.544   5.472   0.918
 2025TIP3    H1 6039   3.477   5.452   0.984
 2025TIP3    H2 6040   3.500   5.530   0.856
 2026TIP3   OH2 6041   3.817   5.956   3.102
 2026TIP3    H1 6042   3.849   5.973   3.013
 2026TIP3    H2 6043   3.728   5.991   3.103
 2027TIP3   OH2 6044   1.924   3.649   1.885
 2027TIP3    H1 6045   1.936   3.737   1.848
 2027TIP3    H2 6046   1.849   3.614   1.837
 2028TIP3   OH2 6047   6.910   5.818   4.814
 2028TIP3    H1 6048   6.998   5.856   4.817
 2028TIP3    H2 6049   6.915   5.744   4.875
 2029TIP3   OH2 6050   2.723   1.771   5.557
 2029TIP3    H1 6051   2.745   1.760   5.464
 2029TIP3    H2 6052   2.747   1.687   5.597
 2030TIP3   OH2 6053   5.849   4.070   5.160
 2030TIP3    H1 6054   5.937   4.033   5.154
 2030TIP3    H2 6055   5.862   4.160   5.189
 2031TIP3   OH2 6056   6.399   1.815   3.242
 2031TIP3    H1 6057   6.352   1.797   3.160
 2031TIP3    H2 6058   6.449   1.895   3.224
 2032TIP3   OH2 6059   5.843   2.968   0.537
 2032TIP3    H1 6060   5.754   2.945   0.511
 2032TIP3    H2 6061   5.899   2.911   0.484
 2033TIP3   OH2 6062   0.427   2.061   2.407
 2033TIP3    H1 6063   0.350   2.077   2.462
 2033TIP3    H2 6064   0.458   1.975   2.433
 2034TIP3   OH2 6065   1.974   3.459   4.410
 2034TIP3    H1 6066   1.942   3.423   4.492
 2034TIP3    H2 6067   2.069   3.459   4.419
 2035TIP3   OH2 6068   7.014   1.702   4.727
 2035TIP3    H1 6069   7.090   1.759   4.717
 2035TIP3    H2 6070   7.031   1.653   4.807
 2036TIP3   OH2 6071   1.637   0.030   3.131
 2036TIP3    H1 6072   1.660   0.099   3.069
 2036TIP3    H2 6073   1.704  -0.037   3.119
 2037TIP3   OH2 6074   1.736   2.627   5.740
 2037TIP3    H1 6075   1.678   2.648   5.667
 2037TIP3    H2 6076   1.758   2.712   5.778
 2038TIP3   OH2 6077   5.689   0.520   5.185
 2038TIP3    H1 6078   5.743   0.472   5.247
 2038TIP3    H2 6079   5.752   0.562   5.126
 2039TIP3   OH2 6080   2.997   4.182   0.218
 2039TIP3    H1 6081   3.051   4.251   0.180
 2039TIP3    H2 6082   2.948   4.227   0.288
 2040TIP3   OH2 6083   6.850   1.242   0.852
 2040TIP3    H1 6084   6.932   1.196   0.835
 2040TIP3    H2 6085   6.813   1.199   0.928
 2041TIP3   OH2 6086   6.987   3.317   5.616
 2041TIP3    H1 6087   6.941   3.401   5.624
 2041TIP3    H2 6088   6.951   3.263   5.687
 2042TIP3   OH2 6089   3.440   0.223   2.202
 2042TIP3    H1 6090   3.466   0.176   2.281
 2042TIP3    H2 6091   3.508   0.290   2.190
 2043TIP3   OH2 6092   0.153   2.600   3.827
 2043TIP3    H1 6093   0.230   2.552   3.857
 2043TIP3    H2 6094   0.137   2.567   3.739
 2044TIP3   OH2 6095   2.818   0.685   2.212
 2044TIP3    H1 6096   2.797   0.745   2.283
 2044TIP3    H2 6097   2.745   0.693   2.151
 2045TIP3   OH2 6098   1.097   3.821   0.863
 2045TIP3    H1 6099   1.033   3.804   0.932
 2045TIP3    H2 6100   1.109   3.916   0.864
 2046TIP3   OH2 6101   4.712   6.294   0.012
 2046TIP3    H1 6102   4.780   6.235   0.045
 2046TIP3    H2 6103   4.635   6.272   0.065
 2047TIP3   OH2 6104   0.150   6.136   3.304
 2047TIP3    H1 6105   0.102   6.091   3.374
 2047TIP3    H2 6106   0.241   6.133   3.332
 2048TIP3   OH2 6107   1.824   0.959   4.200
 2048TIP3    H1 6108   1.872   0.914   4.131
 2048TIP3    H2 6109   1.891   0.990   4.260
 2049TIP3   OH2 6110   1.286   5.204   5.427
 2049TIP3    H1 6111   1.363   5.147   5.438
 2049TIP3    H2 6112   1.216   5.160   5.476
 2050TIP3   OH2 6113   4.940   0.231   0.908
 2050TIP3    H1 6114   4.946   0.324   0.884
 2050TIP3    H2 6115   4.848   0.210   0.898
 2051TIP3   OH2 6116   5.685   6.754   2.823
 2051TIP3    H1 6117   5.644   6.743   2.737
 2051TIP3    H2 6118   5.713   6.845   2.825
 2052TIP3   OH2 6119   4.535   6.617   4.011
 2052TIP3    H1 6120   4.533   6.709   3.985
 2052TIP3    H2 6121   4.528   6.618   4.106
 2053TIP3   OH2 6122   6.668   6.801   2.281
 2053TIP3    H1 6123   6.639   6.734   2.343
 2053TIP3    H2 6124   6.615   6.877   2.302
 2054TIP3   OH2 6125   4.245   0.850   3.889
 2054TIP3    H1 6126   4.149   0.857   3.883
 2054TIP3    H2 6127   4.269   0.913   3.957
 2055TIP3   OH2 6128   7.209   0.754   3.870
 2055TIP3    H1 6129   7.172   0.724   3.953
 2055TIP3    H2 6130   7.149   0.823   3.840
 2056TIP3   OH2 6131   2.722   5.461   3.873
 2056TIP3    H1 6132   2.807   5.485   3.837
 2056TIP3    H2 6133   2.691   5.390   3.816
 2057TIP3   OH2 6134   5.844   6.329   1.019
 2057TIP3    H1 6135   5.849   6.344   1.113
 2057TIP3    H2 6136   5.751   6.332   0.998
 2058TIP3   OH2 6137   3.093   3.388   0.007
 2058TIP3    H1 6138   3.052   3.302   0.009
 2058TIP3    H2 6139   3.185   3.371   0.030
 2059TIP3   OH2 6140   3.612   0.899   4.280
 2059TIP3    H1 6141   3.622   0.983   4.233
 2059TIP3    H2 6142   3.526   0.905   4.322
 2060TIP3   OH2 6143   2.856   4.310   3.416
 2060TIP3    H1 6144   2.913   4.329   3.342
 2060TIP3    H2 6145   2.768   4.303   3.377
 2061TIP3   OH2 6146   0.503   6.569   0.283
 2061TIP3    H1 6147   0.533   6.656   0.310
 2061TIP3    H2 6148   0.510   6.516   0.363
 2062TIP3   OH2 6149   2.137   5.051   1.700
 2062TIP3    H1 6150   2.096   5.027   1.616
 2062TIP3    H2 6151   2.096   5.134   1.724
 2063TIP3   OH2 6152   7.105   3.812   5.628
 2063TIP3    H1 6153   7.015   3.813   5.663
 2063TIP3    H2 6154   7.139   3.899   5.647
 2064TIP3   OH2 6155   4.534   3.323   3.328
 2064TIP3    H1 6156   4.446   3.296   3.303
 2064TIP3    H2 6157   4.529   3.418   3.334
 2065TIP3   OH2 6158   7.105   0.950   5.429
 2065TIP3    H1 6159   7.120   0.910   5.344
 2065TIP3    H2 6160   7.037   1.017   5.413
 2066TIP3   OH2 6161   4.181   3.281   4.853
 2066TIP3    H1 6162   4.208   3.361   4.898
 2066TIP3    H2 6163   4.185   3.213   4.920
 2067TIP3   OH2 6164   6.091   1.517   2.534
 2067TIP3    H1 6165   6.122   1.544   2.447
 2067TIP3    H2 6166   6.095   1.596   2.587
 2068TIP3   OH2 6167   1.478   4.057   1.830
 2068TIP3    H1 6168   1.397   4.010   1.846
 2068TIP3    H2 6169   1.547   3.992   1.845
 2069TIP3   OH2 6170   1.317   1.658   2.387
 2069TIP3    H1 6171   1.385   1.602   2.424
 2069TIP3    H2 6172   1.300   1.620   2.301
 2070TIP3   OH2 6173   1.487   2.861   0.582
 2070TIP3    H1 6174   1.403   2.901   0.605
 2070TIP3    H2 6175   1.494   2.872   0.487
 2071TIP3   OH2 6176   6.411   3.123   1.762
 2071TIP3    H1 6177   6.325   3.136   1.722
 2071TIP3    H2 6178   6.404   3.165   1.848
 2072TIP3   OH2 6179   6.507   5.165   1.081
 2072TIP3    H1 6180   6.528   5.243   1.132
 2072TIP3    H2 6181   6.420   5.182   1.046
 2073TIP3   OH2 6182   5.821   1.718   3.732
 2073TIP3    H1 6183   5.900   1.745   3.779
 2073TIP3    H2 6184   5.766   1.796   3.730
 2074TIP3   OH2 6185   2.143   1.167   4.060
 2074TIP3    H1 6186   2.134   1.092   4.001
 2074TIP3    H2 6187   2.099   1.140   4.140
 2075TIP3   OH2 6188   1.164   4.125   1.528
 2075TIP3    H1 6189   1.092   4.069   1.556
 2075TIP3    H2 6190   1.188   4.175   1.606
 2076TIP3   OH2 6191   0.648   2.772   5.141
 2076TIP3    H1 6192   0.673   2.686   5.173
 2076TIP3    H2 6193   0.642   2.827   5.219
 2077TIP3   OH2 6194   6.272   5.049   2.842
 2077TIP3    H1 6195   6.217   4.987   2.890
 2077TIP3    H2 6196   6.213   5.091   2.781
 2078TIP3   OH2 6197   6.410   3.325   4.814
 2078TIP3    H1 6198   6.319   3.355   4.811
 2078TIP3    H2 6199   6.435   3.334   4.906
 2079TIP3   OH2 6200   3.268   1.822   0.489
 2079TIP3    H1 6201   3.211   1.757   0.449
 2079TIP3    H2 6202   3.349   1.819   0.436
 2080TIP3   OH2 6203   2.123   1.075   5.846
 2080TIP3    H1 6204   2.149   1.098   5.757
 2080TIP3    H2 6205   2.206   1.054   5.890
 2081TIP3   OH2 6206   6.928   4.422   5.336
 2081TIP3    H1 6207   6.950   4.489   5.401
 2081TIP3    H2 6208   7.011   4.402   5.293
 2082TIP3   OH2 6209   6.277   6.637   4.516
 2082TIP3    H1 6210   6.188   6.602   4.507
 2082TIP3    H2 6211   6.311   6.637   4.426
 2083TIP3   OH2 6212   1.237   6.413   4.448
 2083TIP3    H1 6213   1.150   6.384   4.474
 2083TIP3    H2 6214   1.255   6.489   4.502
 2084TIP3   OH2 6215   4.278   2.547   2.864
 2084TIP3    H1 6216   4.319   2.568   2.948
 2084TIP3    H2 6217   4.335   2.480   2.825
 2085TIP3   OH2 6218   4.163   2.491   0.179
 2085TIP3    H1 6219   4.214   2.476   0.258
 2085TIP3    H2 6220   4.215   2.552   0.127
 2086TIP3   OH2 6221   5.288   3.127   0.024
 2086TIP3    H1 6222   5.375   3.164   0.035
 2086TIP3    H2 6223   5.245   3.185  -0.038
 2087TIP3   OH2 6224   6.285   5.894   3.058
 2087TIP3    H1 6225   6.381   5.891   3.049
 2087TIP3    H2 6226   6.268   5.982   3.093
 2088TIP3   OH2 6227   4.571   5.644   0.639
 2088TIP3    H1 6228   4.579   5.553   0.669
 2088TIP3    H2 6229   4.479   5.652   0.612
 2089TIP3   OH2 6230   5.061   5.713   0.972
 2089TIP3    H1 6231   4.972   5.750   0.972
 2089TIP3    H2 6232   5.086   5.712   0.880
 2090TIP3   OH2 6233   0.274   0.855   5.201
 2090TIP3    H1 6234   0.254   0.762   5.204
 2090TIP3    H2 6235   0.275   0.877   5.108
 2091TIP3   OH2 6236   5.875   4.191   1.311
 2091TIP3    H1 6237   5.872   4.098   1.289
 2091TIP3    H2 6238   5.957   4.222   1.271
 2092TIP3   OH2 6239   5.388   1.479   1.495
 2092TIP3    H1 6240   5.322   1.541   1.525
 2092TIP3    H2 6241   5.344   1.426   1.428
 2093TIP3   OH2 6242   0.302   4.830   4.096
 2093TIP3    H1 6243   0.220   4.878   4.082
 2093TIP3    H2 6244   0.321   4.791   4.011
 2094TIP3   OH2 6245   5.474   4.435   1.000
 2094TIP3    H1 6246   5.432   4.516   1.028
 2094TIP3    H2 6247   5.546   4.423   1.062
 2095TIP3   OH2 6248   1.445   0.218   5.573
 2095TIP3    H1 6249   1.537   0.221   5.548
 2095TIP3    H2 6250   1.445   0.235   5.668
 2096TIP3   OH2 6251   3.331   5.594   4.795
 2096TIP3    H1 6252   3.277   5.515   4.804
 2096TIP3    H2 6253   3.366   5.589   4.707
 2097TIP3   OH2 6254   4.284   5.818   3.751
 2097TIP3    H1 6255   4.324   5.836   3.836
 2097TIP3    H2 6256   4.195   5.853   3.759
 2098TIP3   OH2 6257   2.899   0.046   4.533
 2098TIP3    H1 6258   2.956   0.018   4.605
 2098TIP3    H2 6259   2.952   0.109   4.484
 2099TIP3   OH2 6260   3.502   2.113   3.409
 2099TIP3    H1 6261   3.573   2.144   3.352
 2099TIP3    H2 6262   3.451   2.192   3.427
 2100TIP3   OH2 6263   3.877   6.634   5.201
 2100TIP3    H1 6264   3.895   6.561   5.261
 2100TIP3    H2 6265   3.783   6.628   5.185
 2101TIP3   OH2 6266   4.025   4.041   0.542
 2101TIP3    H1 6267   3.945   3.997   0.571
 2101TIP3    H2 6268   4.096   3.988   0.578
 2102TIP3   OH2 6269   6.221   3.352   3.260
 2102TIP3    H1 6270   6.159   3.368   3.331
 2102TIP3    H2 6271   6.166   3.323   3.187
 2103TIP3   OH2 6272   4.674   4.949   0.320
 2103TIP3    H1 6273   4.698   4.999   0.242
 2103TIP3    H2 6274   4.705   5.002   0.393
 2104TIP3   OH2 6275   4.758   6.415   1.946
 2104TIP3    H1 6276   4.677   6.453   1.911
 2104TIP3    H2 6277   4.787   6.354   1.879
 2105TIP3   OH2 6278   5.876   3.605   5.388
 2105TIP3    H1 6279   5.939   3.675   5.371
 2105TIP3    H2 6280   5.844   3.581   5.301
 2106TIP3   OH2 6281   1.195   2.474   5.903
 2106TIP3    H1 6282   1.250   2.398   5.925
 2106TIP3    H2 6283   1.106   2.447   5.927
 2107TIP3   OH2 6284   5.668   0.593   2.035
 2107TIP3    H1 6285   5.658   0.576   2.129
 2107TIP3    H2 6286   5.585   0.566   1.997
 2108TIP3   OH2 6287   1.871   2.183   1.775
 2108TIP3    H1 6288   1.899   2.263   1.730
 2108TIP3    H2 6289   1.790   2.158   1.730
 2109TIP3   OH2 6290   2.097   0.043   4.823
 2109TIP3    H1 6291   2.139  -0.019   4.762
 2109TIP3    H2 6292   2.123   0.129   4.791
 2110TIP3   OH2 6293   1.708   5.572   4.370
 2110TIP3    H1 6294   1.727   5.629   4.444
 2110TIP3    H2 6295   1.726   5.625   4.293
 2111TIP3   OH2 6296   1.061   6.710   0.763
 2111TIP3    H1 6297   1.115   6.703   0.842
 2111TIP3    H2 6298   0.985   6.760   0.791
 2112TIP3   OH2 6299   0.592   4.915   4.445
 2112TIP3    H1 6300   0.523   4.908   4.378
 2112TIP3    H2 6301   0.653   4.979   4.409
 2113TIP3   OH2 6302   1.913   2.271   0.908
 2113TIP3    H1 6303   1.883   2.205   0.845
 2113TIP3    H2 6304   1.854   2.346   0.894
 2114TIP3   OH2 6305   4.938   1.476   2.459
 2114TIP3    H1 6306   4.943   1.451   2.551
 2114TIP3    H2 6307   5.024   1.457   2.424
 2115TIP3   OH2 6308   6.017   5.403   5.169
 2115TIP3    H1 6309   6.072   5.468   5.213
 2115TIP3    H2 6310   6.068   5.377   5.092
 2116TIP3   OH2 6311   1.799   4.225   2.422
 2116TIP3    H1 6312   1.805   4.318   2.443
 2116TIP3    H2 6313   1.868   4.210   2.358
 2117TIP3   OH2 6314   3.347   6.807   1.006
 2117TIP3    H1 6315   3.443   6.800   1.006
 2117TIP3    H2 6316   3.317   6.725   0.966
 2118TIP3   OH2 6317   2.714   0.297   5.115
 2118TIP3    H1 6318   2.699   0.358   5.042
 2118TIP3    H2 6319   2.746   0.217   5.073
 2119TIP3   OH2 6320   2.843   1.755   0.335
 2119TIP3    H1 6321   2.770   1.696   0.316
 2119TIP3    H2 6322   2.808   1.820   0.395
 2120TIP3   OH2 6323   0.900   5.206   3.810
 2120TIP3    H1 6324   0.887   5.140   3.742
 2120TIP3    H2 6325   0.830   5.269   3.795
 2121TIP3   OH2 6326   0.636   4.965   1.846
 2121TIP3    H1 6327   0.546   4.932   1.838
 2121TIP3    H2 6328   0.662   4.940   1.935
 2122TIP3   OH2 6329   4.393   4.031   2.034
 2122TIP3    H1 6330   4.428   3.954   1.988
 2122TIP3    H2 6331   4.304   4.040   2.000
 2123TIP3   OH2 6332   2.935   5.317   4.723
 2123TIP3    H1 6333   2.904   5.360   4.803
 2123TIP3    H2 6334   2.859   5.317   4.664
 2124TIP3   OH2 6335   1.290   5.846   4.859
 2124TIP3    H1 6336   1.207   5.893   4.855
 2124TIP3    H2 6337   1.353   5.910   4.893
 2125TIP3   OH2 6338   3.371   2.749   2.233
 2125TIP3    H1 6339   3.441   2.771   2.295
 2125TIP3    H2 6340   3.367   2.823   2.173
 2126TIP3   OH2 6341   4.721   5.134   4.316
 2126TIP3    H1 6342   4.671   5.159   4.394
 2126TIP3    H2 6343   4.777   5.062   4.344
 2127TIP3   OH2 6344   0.805   3.006   5.581
 2127TIP3    H1 6345   0.743   2.933   5.582
 2127TIP3    H2 6346   0.862   2.991   5.657
 2128TIP3   OH2 6347   2.506   1.336   3.459
 2128TIP3    H1 6348   2.586   1.287   3.442
 2128TIP3    H2 6349   2.502   1.400   3.387
 2129TIP3   OH2 6350   5.191   4.639   0.618
 2129TIP3    H1 6351   5.221   4.687   0.696
 2129TIP3    H2 6352   5.127   4.696   0.577
 2130TIP3   OH2 6353   6.518   3.284   5.065
 2130TIP3    H1 6354   6.603   3.285   5.109
 2130TIP3    H2 6355   6.465   3.223   5.116
 2131TIP3   OH2 6356   4.879   0.808   2.339
 2131TIP3    H1 6357   4.895   0.849   2.424
 2131TIP3    H2 6358   4.958   0.827   2.289
 2132TIP3   OH2 6359   2.815   5.883   2.454
 2132TIP3    H1 6360   2.733   5.847   2.488
 2132TIP3    H2 6361   2.837   5.827   2.380
 2133TIP3   OH2 6362   6.610   5.532   0.170
 2133TIP3    H1 6363   6.533   5.540   0.228
 2133TIP3    H2 6364   6.588   5.584   0.094
 2134TIP3   OH2 6365   3.451   2.922   0.371
 2134TIP3    H1 6366   3.363   2.958   0.380
 2134TIP3    H2 6367   3.461   2.864   0.447
 2135TIP3   OH2 6368   2.306   0.256   1.721
 2135TIP3    H1 6369   2.354   0.312   1.782
 2135TIP3    H2 6370   2.215   0.283   1.730
 2136TIP3   OH2 6371   4.057   1.842   3.940
 2136TIP3    H1 6372   3.989   1.790   3.983
 2136TIP3    H2 6373   4.010   1.914   3.898
 2137TIP3   OH2 6374   4.225   3.660   3.747
 2137TIP3    H1 6375   4.233   3.633   3.655
 2137TIP3    H2 6376   4.132   3.678   3.758
 2138TIP3   OH2 6377   5.644   2.577   1.924
 2138TIP3    H1 6378   5.723   2.555   1.973
 2138TIP3    H2 6379   5.583   2.506   1.945
 2139TIP3   OH2 6380   4.818   3.753   1.940
 2139TIP3    H1 6381   4.793   3.749   2.033
 2139TIP3    H2 6382   4.914   3.752   1.941
 2140TIP3   OH2 6383   6.839   0.456   1.619
 2140TIP3    H1 6384   6.934   0.455   1.622
 2140TIP3    H2 6385   6.814   0.525   1.681
 2141TIP3   OH2 6386   4.445   3.837   1.206
 2141TIP3    H1 6387   4.499   3.911   1.180
 2141TIP3    H2 6388   4.425   3.792   1.123
 2142TIP3   OH2 6389   2.291   3.784   0.955
 2142TIP3    H1 6390   2.379   3.759   0.981
 2142TIP3    H2 6391   2.244   3.796   1.037
 2143TIP3   OH2 6392   4.851   4.190   3.625
 2143TIP3    H1 6393   4.877   4.134   3.697
 2143TIP3    H2 6394   4.934   4.225   3.590
 2144TIP3   OH2 6395   0.891   4.216   2.582
 2144TIP3    H1 6396   0.878   4.176   2.496
 2144TIP3    H2 6397   0.826   4.287   2.584
 2145TIP3   OH2 6398   0.242   5.429   2.761
 2145TIP3    H1 6399   0.330   5.447   2.793
 2145TIP3    H2 6400   0.228   5.336   2.780
 2146TIP3   OH2 6401   3.764   2.242   1.140
 2146TIP3    H1 6402   3.767   2.336   1.122
 2146TIP3    H2 6403   3.797   2.201   1.061
 2147TIP3   OH2 6404   3.203   2.141   0.274
 2147TIP3    H1 6405   3.232   2.071   0.216
 2147TIP3    H2 6406   3.123   2.175   0.232
 2148TIP3   OH2 6407   5.568   6.091   4.029
 2148TIP3    H1 6408   5.558   5.999   4.002
 2148TIP3    H2 6409   5.514   6.098   4.108
 2149TIP3   OH2 6410   6.836   2.526   4.012
 2149TIP3    H1 6411   6.817   2.525   4.105
 2149TIP3    H2 6412   6.929   2.548   4.007
 2150TIP3   OH2 6413   1.120   4.376   5.151
 2150TIP3    H1 6414   1.099   4.443   5.086
 2150TIP3    H2 6415   1.064   4.302   5.127
 2151TIP3   OH2 6416   4.204   4.268   3.347
 2151TIP3    H1 6417   4.137   4.242   3.410
 2151TIP3    H2 6418   4.255   4.335   3.393
 2152TIP3   OH2 6419   4.451   0.792   0.743
 2152TIP3    H1 6420   4.444   0.887   0.733
 2152TIP3    H2 6421   4.381   0.757   0.688
 2153TIP3   OH2 6422   1.485   1.820   0.351
 2153TIP3    H1 6423   1.485   1.729   0.320
 2153TIP3    H2 6424   1.564   1.858   0.313
 2154TIP3   OH2 6425   4.601   3.881   3.556
 2154TIP3    H1 6426   4.626   3.788   3.559
 2154TIP3    H2 6427   4.621   3.907   3.466
 2155TIP3   OH2 6428   5.821   5.444   3.891
 2155TIP3    H1 6429   5.823   5.467   3.799
 2155TIP3    H2 6430   5.891   5.378   3.901
 2156TIP3   OH2 6431   3.106   6.777   4.604
 2156TIP3    H1 6432   3.178   6.817   4.653
 2156TIP3    H2 6433   3.028   6.823   4.634
 2157TIP3   OH2 6434   1.653   1.239   0.527
 2157TIP3    H1 6435   1.562   1.260   0.548
 2157TIP3    H2 6436   1.700   1.251   0.610
 2158TIP3   OH2 6437   1.349   0.582   3.549
 2158TIP3    H1 6438   1.445   0.585   3.549
 2158TIP3    H2 6439   1.327   0.489   3.552
 2159TIP3   OH2 6440   3.611   0.452   2.894
 2159TIP3    H1 6441   3.552   0.521   2.863
 2159TIP3    H2 6442   3.610   0.387   2.824
 2160TIP3   OH2 6443   1.574   1.486   5.570
 2160TIP3    H1 6444   1.545   1.422   5.505
 2160TIP3    H2 6445   1.506   1.554   5.568
 2161TIP3   OH2 6446   2.371   1.451   1.987
 2161TIP3    H1 6447   2.459   1.427   2.017
 2161TIP3    H2 6448   2.335   1.502   2.059
 2162TIP3   OH2 6449   3.120   3.093   5.324
 2162TIP3    H1 6450   3.194   3.145   5.355
 2162TIP3    H2 6451   3.053   3.104   5.391
 2163TIP3   OH2 6452   4.073   6.098   0.173
 2163TIP3    H1 6453   4.121   6.160   0.228
 2163TIP3    H2 6454   4.119   6.014   0.186
 2164TIP3   OH2 6455   5.393   6.381   0.729
 2164TIP3    H1 6456   5.412   6.466   0.769
 2164TIP3    H2 6457   5.330   6.400   0.660
 2165TIP3   OH2 6458   5.302   3.820   3.353
 2165TIP3    H1 6459   5.289   3.863   3.268
 2165TIP3    H2 6460   5.376   3.866   3.391
 2166TIP3   OH2 6461   2.823   2.897   1.470
 2166TIP3    H1 6462   2.815   2.810   1.510
 2166TIP3    H2 6463   2.766   2.953   1.522
 2167TIP3   OH2 6464   5.611   3.491   0.175
 2167TIP3    H1 6465   5.592   3.543   0.097
 2167TIP3    H2 6466   5.657   3.552   0.233
 2168TIP3   OH2 6467   5.297   1.059   1.494
 2168TIP3    H1 6468   5.361   0.988   1.500
 2168TIP3    H2 6469   5.316   1.101   1.410
 2169TIP3   OH2 6470   3.402   4.039   0.753
 2169TIP3    H1 6471   3.375   4.125   0.786
 2169TIP3    H2 6472   3.324   4.002   0.713
 2170TIP3   OH2 6473   0.470   3.476   1.607
 2170TIP3    H1 6474   0.406   3.513   1.547
 2170TIP3    H2 6475   0.419   3.453   1.685
 2171TIP3   OH2 6476   3.093   1.550   5.116
 2171TIP3    H1 6477   3.074   1.643   5.114
 2171TIP3    H2 6478   3.079   1.525   5.208
 2172TIP3   OH2 6479   4.039   2.051   3.191
 2172TIP3    H1 6480   4.006   2.067   3.279
 2172TIP3    H2 6481   4.134   2.063   3.198
 2173TIP3   OH2 6482   0.900   5.200   5.342
 2173TIP3    H1 6483   0.943   5.118   5.317
 2173TIP3    H2 6484   0.818   5.200   5.292
 2174TIP3   OH2 6485   1.305   4.780   0.937
 2174TIP3    H1 6486   1.388   4.752   0.975
 2174TIP3    H2 6487   1.292   4.868   0.972
 2175TIP3   OH2 6488   0.981   1.675   3.190
 2175TIP3    H1 6489   1.075   1.658   3.197
 2175TIP3    H2 6490   0.974   1.750   3.132
 2176TIP3   OH2 6491   1.843   0.847   5.630
 2176TIP3    H1 6492   1.821   0.755   5.617
 2176TIP3    H2 6493   1.926   0.846   5.677
 2177TIP3   OH2 6494   6.366   1.553   0.892
 2177TIP3    H1 6495   6.360   1.647   0.908
 2177TIP3    H2 6496   6.369   1.514   0.979
 2178TIP3   OH2 6497   3.125   6.072   2.905
 2178TIP3    H1 6498   3.109   6.048   2.813
 2178TIP3    H2 6499   3.063   6.019   2.955
 2179TIP3   OH2 6500   3.924   2.646   4.991
 2179TIP3    H1 6501   3.977   2.588   4.936
 2179TIP3    H2 6502   3.866   2.587   5.039
 2180TIP3   OH2 6503   3.452   0.722   4.086
 2180TIP3    H1 6504   3.370   0.770   4.095
 2180TIP3    H2 6505   3.450   0.657   4.155
 2181TIP3   OH2 6506   2.917   6.546   2.770
 2181TIP3    H1 6507   2.977   6.475   2.792
 2181TIP3    H2 6508   2.919   6.604   2.846
 2182TIP3   OH2 6509   5.594   1.243   4.249
 2182TIP3    H1 6510   5.570   1.335   4.260
 2182TIP3    H2 6511   5.536   1.196   4.310
 2183TIP3   OH2 6512   3.159   0.902   3.403
 2183TIP3    H1 6513   3.198   0.904   3.491
 2183TIP3    H2 6514   3.230   0.930   3.345
 2184TIP3   OH2 6515   1.460   3.499   3.330
 2184TIP3    H1 6516   1.505   3.468   3.409
 2184TIP3    H2 6517   1.483   3.436   3.262
 2185TIP3   OH2 6518   1.045   1.195   4.692
 2185TIP3    H1 6519   0.996   1.275   4.674
 2185TIP3    H2 6520   0.982   1.139   4.737
 2186TIP3   OH2 6521   6.134   3.859   3.037
 2186TIP3    H1 6522   6.217   3.812   3.042
 2186TIP3    H2 6523   6.078   3.804   2.983
 2187TIP3   OH2 6524   2.987   1.632   2.324
 2187TIP3    H1 6525   2.959   1.713   2.367
 2187TIP3    H2 6526   2.921   1.615   2.257
 2188TIP3   OH2 6527   2.459   6.089   4.873
 2188TIP3    H1 6528   2.399   6.075   4.946
 2188TIP3    H2 6529   2.546   6.079   4.912
 2189TIP3   OH2 6530   3.246   4.626   0.337
 2189TIP3    H1 6531   3.225   4.720   0.338
 2189TIP3    H2 6532   3.342   4.623   0.343
 2190TIP3   OH2 6533   6.796   4.122   3.264
 2190TIP3    H1 6534   6.724   4.130   3.202
 2190TIP3    H2 6535   6.768   4.052   3.324
 2191TIP3   OH2 6536   3.819   0.296   4.263
 2191TIP3    H1 6537   3.768   0.345   4.327
 2191TIP3    H2 6538   3.775   0.311   4.180
 2192TIP3   OH2 6539   5.016   5.482   3.560
 2192TIP3    H1 6540   4.967   5.513   3.636
 2192TIP3    H2 6541   4.981   5.395   3.543
 2193TIP3   OH2 6542   5.403   2.135   0.634
 2193TIP3    H1 6543   5.482   2.094   0.600
 2193TIP3    H2 6544   5.429   2.173   0.717
 2194TIP3   OH2 6545   4.840   0.501   5.402
 2194TIP3    H1 6546   4.890   0.524   5.325
 2194TIP3    H2 6547   4.805   0.413   5.383
 2195TIP3   OH2 6548   5.990   1.889   5.725
 2195TIP3    H1 6549   5.945   1.806   5.745
 2195TIP3    H2 6550   6.083   1.867   5.730
 2196TIP3   OH2 6551   0.165   2.234   3.997
 2196TIP3    H1 6552   0.202   2.198   4.078
 2196TIP3    H2 6553   0.238   2.281   3.956
 2197TIP3   OH2 6554   3.325   2.196   2.702
 2197TIP3    H1 6555   3.243   2.230   2.665
 2197TIP3    H2 6556   3.300   2.161   2.787
 2198TIP3   OH2 6557   6.294   3.849   0.758
 2198TIP3    H1 6558   6.230   3.920   0.748
 2198TIP3    H2 6559   6.341   3.869   0.838
 2199TIP3   OH2 6560   0.871   0.296   3.606
 2199TIP3    H1 6561   0.915   0.345   3.677
 2199TIP3    H2 6562   0.912   0.210   3.609
 2200TIP3   OH2 6563   0.410   3.359   5.556
 2200TIP3    H1 6564   0.477   3.324   5.615
 2200TIP3    H2 6565   0.382   3.283   5.504
 2201TIP3   OH2 6566   0.668   4.161   2.420
 2201TIP3    H1 6567   0.678   4.111   2.338
 2201TIP3    H2 6568   0.591   4.215   2.405
 2202TIP3   OH2 6569   2.423   1.004   4.779
 2202TIP3    H1 6570   2.507   0.992   4.734
 2202TIP3    H2 6571   2.435   1.083   4.832
 2203TIP3   OH2 6572   4.112   5.618   2.970
 2203TIP3    H1 6573   4.151   5.532   2.957
 2203TIP3    H2 6574   4.021   5.599   2.995
 2204TIP3   OH2 6575   5.718   0.784   2.528
 2204TIP3    H1 6576   5.777   0.808   2.600
 2204TIP3    H2 6577   5.631   0.783   2.568
 2205TIP3   OH2 6578   2.975   2.224   0.586
 2205TIP3    H1 6579   2.992   2.246   0.678
 2205TIP3    H2 6580   3.033   2.150   0.568
 2206TIP3   OH2 6581   5.557   1.440   1.175
 2206TIP3    H1 6582   5.578   1.475   1.262
 2206TIP3    H2 6583   5.632   1.387   1.151
 2207TIP3   OH2 6584   5.514   6.379   2.745
 2207TIP3    H1 6585   5.597   6.353   2.786
 2207TIP3    H2 6586   5.488   6.459   2.791
 2208TIP3   OH2 6587   4.682   5.553   3.227
 2208TIP3    H1 6588   4.668   5.496   3.152
 2208TIP3    H2 6589   4.611   5.618   3.222
 2209TIP3   OH2 6590   6.098   2.821   3.647
 2209TIP3    H1 6591   6.015   2.773   3.645
 2209TIP3    H2 6592   6.073   2.911   3.627
 2210TIP3   OH2 6593   6.208   3.896   4.101
 2210TIP3    H1 6594   6.291   3.910   4.055
 2210TIP3    H2 6595   6.147   3.956   4.059
 2211TIP3   OH2 6596   5.009   6.254   4.764
 2211TIP3    H1 6597   5.005   6.162   4.738
 2211TIP3    H2 6598   4.950   6.299   4.704
 2212TIP3   OH2 6599   2.188   3.700   4.645
 2212TIP3    H1 6600   2.251   3.680   4.714
 2212TIP3    H2 6601   2.193   3.794   4.633
 2213TIP3   OH2 6602   5.672   0.886   4.214
 2213TIP3    H1 6603   5.654   0.797   4.244
 2213TIP3    H2 6604   5.586   0.926   4.205
 2214TIP3   OH2 6605   2.377   0.861   3.288
 2214TIP3    H1 6606   2.393   0.899   3.202
 2214TIP3    H2 6607   2.316   0.921   3.330
 2215TIP3   OH2 6608   6.082   2.586   3.950
 2215TIP3    H1 6609   6.167   2.557   3.916
 2215TIP3    H2 6610   6.103   2.651   4.017
 2216TIP3   OH2 6611   1.209   1.060   4.511
 2216TIP3    H1 6612   1.255   1.133   4.469
 2216TIP3    H2 6613   1.136   1.101   4.556
 2217TIP3   OH2 6614   0.559   6.197   0.639
 2217TIP3    H1 6615   0.624   6.170   0.704
 2217TIP3    H2 6616   0.504   6.119   0.627
 2218TIP3   OH2 6617   5.295   3.570   3.859
 2218TIP3    H1 6618   5.289   3.476   3.876
 2218TIP3    H2 6619   5.219   3.588   3.803
 2219TIP3   OH2 6620   1.702   1.877   3.228
 2219TIP3    H1 6621   1.762   1.951   3.232
 2219TIP3    H2 6622   1.628   1.909   3.176
 2220TIP3   OH2 6623   3.846   1.607   0.200
 2220TIP3    H1 6624   3.837   1.514   0.221
 2220TIP3    H2 6625   3.787   1.620   0.125
 2221TIP3   OH2 6626   4.092   3.268   2.143
 2221TIP3    H1 6627   4.117   3.181   2.113
 2221TIP3    H2 6628   4.011   3.254   2.193
 2222TIP3   OH2 6629   1.064   6.234   3.933
 2222TIP3    H1 6630   1.146   6.187   3.947
 2222TIP3    H2 6631   1.048   6.279   4.016
 2223TIP3   OH2 6632   4.683   4.449   3.761
 2223TIP3    H1 6633   4.721   4.519   3.815
 2223TIP3    H2 6634   4.661   4.492   3.679
 2224TIP3   OH2 6635   3.960   1.134   0.591
 2224TIP3    H1 6636   3.903   1.124   0.515
 2224TIP3    H2 6637   4.046   1.156   0.555
 2225TIP3   OH2 6638   0.314   3.428   3.268
 2225TIP3    H1 6639   0.272   3.380   3.340
 2225TIP3    H2 6640   0.243   3.446   3.207
 2226TIP3   OH2 6641   6.499   6.132   1.849
 2226TIP3    H1 6642   6.571   6.161   1.794
 2226TIP3    H2 6643   6.466   6.212   1.890
 2227TIP3   OH2 6644   3.836   5.667   3.787
 2227TIP3    H1 6645   3.905   5.726   3.759
 2227TIP3    H2 6646   3.755   5.706   3.754
 2228TIP3   OH2 6647   4.842   5.977   3.284
 2228TIP3    H1 6648   4.850   6.043   3.353
 2228TIP3    H2 6649   4.758   5.995   3.242
 2229TIP3   OH2 6650   4.235   5.395   2.483
 2229TIP3    H1 6651   4.181   5.475   2.479
 2229TIP3    H2 6652   4.277   5.399   2.569
 2230TIP3   OH2 6653   1.217   5.588   3.917
 2230TIP3    H1 6654   1.292   5.595   3.858
 2230TIP3    H2 6655   1.140   5.601   3.860
 2231TIP3   OH2 6656   5.717   3.730   2.093
 2231TIP3    H1 6657   5.805   3.703   2.121
 2231TIP3    H2 6658   5.728   3.756   2.001
 2232TIP3   OH2 6659   5.314   6.670   2.796
 2232TIP3    H1 6660   5.395   6.721   2.799
 2232TIP3    H2 6661   5.299   6.654   2.702
 2233TIP3   OH2 6662   1.725   1.910   0.225
 2233TIP3    H1 6663   1.804   1.871   0.264
 2233TIP3    H2 6664   1.742   1.909   0.131
 2234TIP3   OH2 6665   5.419   2.781   0.246
 2234TIP3    H1 6666   5.425   2.870   0.280
 2234TIP3    H2 6667   5.379   2.731   0.317
 2235TIP3   OH2 6668   1.653   2.981   1.401
 2235TIP3    H1 6669   1.666   3.033   1.481
 2235TIP3    H2 6670   1.592   3.032   1.348
 2236TIP3   OH2 6671   6.326   1.619   3.783
 2236TIP3    H1 6672   6.245   1.572   3.763
 2236TIP3    H2 6673   6.392   1.577   3.727
 2237TIP3   OH2 6674   2.209   2.147   2.686
 2237TIP3    H1 6675   2.217   2.240   2.663
 2237TIP3    H2 6676   2.115   2.132   2.694
 2238TIP3   OH2 6677   1.243   3.337   5.112
 2238TIP3    H1 6678   1.277   3.307   5.027
 2238TIP3    H2 6679   1.182   3.269   5.138
 2239TIP3   OH2 6680   2.636   6.591   0.312
 2239TIP3    H1 6681   2.584   6.520   0.350
 2239TIP3    H2 6682   2.585   6.619   0.235
 2240TIP3   OH2 6683   6.537   5.101   4.483
 2240TIP3    H1 6684   6.458   5.102   4.537
 2240TIP3    H2 6685   6.559   5.009   4.473
 2241TIP3   OH2 6686   0.005   5.710   0.663
 2241TIP3    H1 6687   0.027   5.741   0.575
 2241TIP3    H2 6688   0.051   5.770   0.721
 2242TIP3   OH2 6689   2.595   3.567   0.701
 2242TIP3    H1 6690   2.551   3.650   0.681
 2242TIP3    H2 6691   2.524   3.503   0.705
 2243TIP3   OH2 6692   6.042   5.085   4.746
 2243TIP3    H1 6693   6.018   5.066   4.656
 2243TIP3    H2 6694   6.006   5.173   4.762
 2244TIP3   OH2 6695   5.951   2.013   3.187
 2244TIP3    H1 6696   5.895   2.054   3.253
 2244TIP3    H2 6697   6.039   2.045   3.207
 2245TIP3   OH2 6698   4.973   5.496   0.794
 2245TIP3    H1 6699   5.029   5.518   0.720
 2245TIP3    H2 6700   5.021   5.430   0.843
 2246TIP3   OH2 6701   2.813   6.162   2.563
 2246TIP3    H1 6702   2.752   6.200   2.500
 2246TIP3    H2 6703   2.816   6.069   2.542
 2247TIP3   OH2 6704   2.965   4.375   4.522
 2247TIP3    H1 6705   2.988   4.327   4.601
 2247TIP3    H2 6706   2.965   4.467   4.549
 2248TIP3   OH2 6707   3.920   2.089   5.017
 2248TIP3    H1 6708   4.012   2.068   5.034
 2248TIP3    H2 6709   3.871   2.028   5.072
 2249TIP3   OH2 6710   1.576   1.725   5.382
 2249TIP3    H1 6711   1.513   1.790   5.412
 2249TIP3    H2 6712   1.527   1.672   5.319
 2250TIP3   OH2 6713   3.865   3.236   2.284
 2250TIP3    H1 6714   3.840   3.178   2.212
 2250TIP3    H2 6715   3.817   3.317   2.268
 2251TIP3   OH2 6716   1.388   2.313   2.431
 2251TIP3    H1 6717   1.352   2.343   2.514
 2251TIP3    H2 6718   1.336   2.358   2.365
 2252TIP3   OH2 6719   6.083   1.296   5.207
 2252TIP3    H1 6720   6.155   1.332   5.156
 2252TIP3    H2 6721   6.078   1.353   5.284
 2253TIP3   OH2 6722   3.074   2.987   1.463
 2253TIP3    H1 6723   3.071   2.933   1.542
 2253TIP3    H2 6724   2.984   2.989   1.430
 2254TIP3   OH2 6725   2.438   2.365   3.910
 2254TIP3    H1 6726   2.504   2.391   3.845
 2254TIP3    H2 6727   2.489   2.347   3.989
 2255TIP3   OH2 6728   6.651   1.920   4.124
 2255TIP3    H1 6729   6.745   1.911   4.108
 2255TIP3    H2 6730   6.611   1.845   4.078
 2256TIP3   OH2 6731   4.012   3.932   3.166
 2256TIP3    H1 6732   4.063   3.901   3.091
 2256TIP3    H2 6733   4.057   3.897   3.242
 2257TIP3   OH2 6734   2.477   3.903   1.438
 2257TIP3    H1 6735   2.515   3.969   1.495
 2257TIP3    H2 6736   2.420   3.851   1.496
 2258TIP3   OH2 6737   5.976   2.349   1.316
 2258TIP3    H1 6738   6.024   2.343   1.398
 2258TIP3    H2 6739   6.043   2.342   1.248
 2259TIP3   OH2 6740   3.244   3.780   2.585
 2259TIP3    H1 6741   3.152   3.799   2.607
 2259TIP3    H2 6742   3.270   3.854   2.529
 2260TIP3   OH2 6743   2.743   1.403   4.481
 2260TIP3    H1 6744   2.676   1.349   4.438
 2260TIP3    H2 6745   2.775   1.348   4.553
 2261TIP3   OH2 6746   0.721   4.360   2.856
 2261TIP3    H1 6747   0.712   4.272   2.820
 2261TIP3    H2 6748   0.688   4.418   2.788
 2262TIP3   OH2 6749   3.769   1.321   0.125
 2262TIP3    H1 6750   3.749   1.326   0.032
 2262TIP3    H2 6751   3.683   1.317   0.167
 2263TIP3   OH2 6752   0.807   3.667   1.700
 2263TIP3    H1 6753   0.899   3.639   1.697
 2263TIP3    H2 6754   0.760   3.600   1.650
 2264TIP3   OH2 6755   4.799   5.161   5.538
 2264TIP3    H1 6756   4.807   5.250   5.573
 2264TIP3    H2 6757   4.758   5.173   5.452
 2265TIP3   OH2 6758   3.936   2.088   3.450
 2265TIP3    H1 6759   3.984   2.152   3.502
 2265TIP3    H2 6760   3.851   2.080   3.494
 2266TIP3   OH2 6761   2.242   3.186   1.132
 2266TIP3    H1 6762   2.289   3.113   1.171
 2266TIP3    H2 6763   2.266   3.184   1.039
 2267TIP3   OH2 6764   4.679   3.897   0.140
 2267TIP3    H1 6765   4.769   3.865   0.133
 2267TIP3    H2 6766   4.684   3.970   0.202
 2268TIP3   OH2 6767   2.590   0.658   2.483
 2268TIP3    H1 6768   2.518   0.597   2.500
 2268TIP3    H2 6769   2.643   0.614   2.417
 2269TIP3   OH2 6770   1.178   0.186   5.482
 2269TIP3    H1 6771   1.166   0.180   5.576
 2269TIP3    H2 6772   1.271   0.208   5.471
 2270TIP3   OH2 6773   2.883   2.989   4.983
 2270TIP3    H1 6774   2.847   3.018   5.067
 2270TIP3    H2 6775   2.807   2.981   4.926
 2271TIP3   OH2 6776   3.449   1.259   0.901
 2271TIP3    H1 6777   3.455   1.179   0.953
 2271TIP3    H2 6778   3.360   1.290   0.915
 2272TIP3   OH2 6779   5.328   5.511   5.830
 2272TIP3    H1 6780   5.315   5.560   5.748
 2272TIP3    H2 6781   5.359   5.576   5.892
 2273TIP3   OH2 6782   5.888   6.081   0.173
 2273TIP3    H1 6783   5.833   6.142   0.222
 2273TIP3    H2 6784   5.975   6.091   0.211
 2274TIP3   OH2 6785   0.397   2.514   1.409
 2274TIP3    H1 6786   0.430   2.470   1.488
 2274TIP3    H2 6787   0.454   2.591   1.400
 2275TIP3   OH2 6788   1.034   1.028   0.662
 2275TIP3    H1 6789   1.097   0.972   0.617
 2275TIP3    H2 6790   0.961   1.038   0.601
 2276TIP3   OH2 6791   3.717   4.605   3.243
 2276TIP3    H1 6792   3.627   4.580   3.264
 2276TIP3    H2 6793   3.750   4.646   3.323
 2277TIP3   OH2 6794   5.812   0.364   5.365
 2277TIP3    H1 6795   5.885   0.305   5.388
 2277TIP3    H2 6796   5.832   0.446   5.410
 2278TIP3   OH2 6797   5.109   6.415   4.480
 2278TIP3    H1 6798   5.170   6.445   4.413
 2278TIP3    H2 6799   5.134   6.463   4.559
 2279TIP3   OH2 6800   2.375   5.881   3.574
 2279TIP3    H1 6801   2.431   5.807   3.552
 2279TIP3    H2 6802   2.401   5.906   3.662
 2280TIP3   OH2 6803   0.500   0.645   0.210
 2280TIP3    H1 6804   0.489   0.717   0.272
 2280TIP3    H2 6805   0.431   0.659   0.145
 2281TIP3   OH2 6806   1.949   1.182   1.669
 2281TIP3    H1 6807   2.036   1.175   1.628
 2281TIP3    H2 6808   1.953   1.122   1.744
 2282TIP3   OH2 6809   7.057   0.628   2.603
 2282TIP3    H1 6810   7.083   0.537   2.590
 2282TIP3    H2 6811   7.016   0.653   2.520
 2283TIP3   OH2 6812   5.269   5.919   5.778
 2283TIP3    H1 6813   5.329   5.915   5.703
 2283TIP3    H2 6814   5.300   5.850   5.837
 2284TIP3   OH2 6815   3.401   6.124   0.607
 2284TIP3    H1 6816   3.315   6.144   0.644
 2284TIP3    H2 6817   3.432   6.050   0.659
 2285TIP3   OH2 6818   0.534   3.173   5.770
 2285TIP3    H1 6819   0.615   3.147   5.812
 2285TIP3    H2 6820   0.499   3.243   5.825
 2286TIP3   OH2 6821   6.593   3.258   1.591
 2286TIP3    H1 6822   6.541   3.331   1.558
 2286TIP3    H2 6823   6.528   3.198   1.628
 2287TIP3   OH2 6824   5.301   4.469   2.253
 2287TIP3    H1 6825   5.387   4.450   2.215
 2287TIP3    H2 6826   5.250   4.390   2.236
 2288TIP3   OH2 6827   1.122   6.743   3.612
 2288TIP3    H1 6828   1.079   6.701   3.686
 2288TIP3    H2 6829   1.192   6.794   3.651
 2289TIP3   OH2 6830   6.645   3.856   2.694
 2289TIP3    H1 6831   6.622   3.943   2.662
 2289TIP3    H2 6832   6.736   3.844   2.666
 2290TIP3   OH2 6833   2.829   0.762   1.071
 2290TIP3    H1 6834   2.751   0.742   1.122
 2290TIP3    H2 6835   2.815   0.851   1.039
 2291TIP3   OH2 6836   2.434   2.439   3.617
 2291TIP3    H1 6837   2.471   2.496   3.684
 2291TIP3    H2 6838   2.421   2.496   3.541
 2292TIP3   OH2 6839   2.237   1.879   3.860
 2292TIP3    H1 6840   2.242   1.850   3.769
 2292TIP3    H2 6841   2.235   1.975   3.855
 2293TIP3   OH2 6842   4.434   0.832   5.725
 2293TIP3    H1 6843   4.363   0.896   5.732
 2293TIP3    H2 6844   4.503   0.867   5.783
 2294TIP3   OH2 6845   6.719   5.882   3.660
 2294TIP3    H1 6846   6.775   5.804   3.663
 2294TIP3    H2 6847   6.694   5.890   3.568
 2295TIP3   OH2 6848   3.920   3.042   4.899
 2295TIP3    H1 6849   3.924   2.971   4.836
 2295TIP3    H2 6850   3.828   3.069   4.900
 2296TIP3   OH2 6851   7.130   6.465   1.555
 2296TIP3    H1 6852   7.080   6.389   1.586
 2296TIP3    H2 6853   7.138   6.451   1.461
 2297TIP3   OH2 6854   6.196   0.600   1.504
 2297TIP3    H1 6855   6.136   0.632   1.571
 2297TIP3    H2 6856   6.152   0.524   1.466
 2298TIP3   OH2 6857   5.782   0.678   4.554
 2298TIP3    H1 6858   5.865   0.723   4.539
 2298TIP3    H2 6859   5.716   0.747   4.553
 2299TIP3   OH2 6860   5.149   5.105   3.963
 2299TIP3    H1 6861   5.085   5.147   4.020
 2299TIP3    H2 6862   5.100   5.080   3.885
 2300TIP3   OH2 6863   3.309   4.883   1.154
 2300TIP3    H1 6864   3.388   4.927   1.121
 2300TIP3    H2 6865   3.239   4.945   1.136
 2301TIP3   OH2 6866   0.515   2.762   3.827
 2301TIP3    H1 6867   0.604   2.796   3.817
 2301TIP3    H2 6868   0.459   2.839   3.823
 2302TIP3   OH2 6869   2.247   0.318   3.956
 2302TIP3    H1 6870   2.217   0.253   3.892
 2302TIP3    H2 6871   2.264   0.397   3.904
 2303TIP3   OH2 6872   6.644   3.197   3.097
 2303TIP3    H1 6873   6.615   3.265   3.158
 2303TIP3    H2 6874   6.740   3.205   3.095
 2304TIP3   OH2 6875   6.009   2.786   4.432
 2304TIP3    H1 6876   5.980   2.876   4.443
 2304TIP3    H2 6877   5.965   2.737   4.501
 2305TIP3   OH2 6878   4.876   5.564   3.966
 2305TIP3    H1 6879   4.805   5.602   3.915
 2305TIP3    H2 6880   4.835   5.496   4.019
 2306TIP3   OH2 6881   0.246   2.868   2.541
 2306TIP3    H1 6882   0.259   2.774   2.534
 2306TIP3    H2 6883   0.212   2.894   2.455
 2307TIP3   OH2 6884   0.880   4.294   5.321
 2307TIP3    H1 6885   0.858   4.378   5.280
 2307TIP3    H2 6886   0.948   4.316   5.385
 2308TIP3   OH2 6887   0.989   5.395   4.026
 2308TIP3    H1 6888   0.958   5.335   3.958
 2308TIP3    H2 6889   1.050   5.453   3.980
 2309TIP3   OH2 6890   5.549   4.128   4.942
 2309TIP3    H1 6891   5.479   4.110   4.880
 2309TIP3    H2 6892   5.567   4.043   4.983
 2310TIP3   OH2 6893   1.522   1.510   4.371
 2310TIP3    H1 6894   1.453   1.534   4.310
 2310TIP3    H2 6895   1.602   1.513   4.319
 2311TIP3   OH2 6896   3.699   6.290   2.329
 2311TIP3    H1 6897   3.783   6.326   2.299
 2311TIP3    H2 6898   3.719   6.199   2.353
 2312TIP3   OH2 6899   0.850   6.277   1.834
 2312TIP3    H1 6900   0.765   6.240   1.859
 2312TIP3    H2 6901   0.900   6.279   1.916
 2313TIP3   OH2 6902   1.926   5.256   5.639
 2313TIP3    H1 6903   2.021   5.271   5.639
 2313TIP3    H2 6904   1.907   5.222   5.552
 2314TIP3   OH2 6905   2.506   6.447   2.982
 2314TIP3    H1 6906   2.426   6.431   2.933
 2314TIP3    H2 6907   2.561   6.499   2.922
 2315TIP3   OH2 6908   3.803   3.163   3.584
 2315TIP3    H1 6909   3.815   3.153   3.679
 2315TIP3    H2 6910   3.822   3.076   3.549
 2316TIP3   OH2 6911   2.487   5.187   2.544
 2316TIP3    H1 6912   2.529   5.157   2.463
 2316TIP3    H2 6913   2.393   5.177   2.527
 2317TIP3   OH2 6914   3.639   3.615   0.295
 2317TIP3    H1 6915   3.640   3.608   0.390
 2317TIP3    H2 6916   3.547   3.606   0.272
 2318TIP3   OH2 6917   3.893   4.738   1.906
 2318TIP3    H1 6918   3.830   4.757   1.974
 2318TIP3    H2 6919   3.841   4.726   1.827
 2319TIP3   OH2 6920   4.375   1.778   1.767
 2319TIP3    H1 6921   4.284   1.748   1.764
 2319TIP3    H2 6922   4.403   1.782   1.676
 2320TIP3   OH2 6923   1.920   4.471   4.400
 2320TIP3    H1 6924   1.859   4.408   4.438
 2320TIP3    H2 6925   2.007   4.436   4.422
 2321TIP3   OH2 6926   1.572   4.081   2.907
 2321TIP3    H1 6927   1.648   4.132   2.935
 2321TIP3    H2 6928   1.518   4.073   2.985
 2322TIP3   OH2 6929   2.295   5.748   4.675
 2322TIP3    H1 6930   2.293   5.658   4.707
 2322TIP3    H2 6931   2.388   5.770   4.670
 2323TIP3   OH2 6932   0.574   4.939   5.589
 2323TIP3    H1 6933   0.612   5.020   5.622
 2323TIP3    H2 6934   0.486   4.936   5.627
 2324TIP3   OH2 6935   3.835   3.854   1.540
 2324TIP3    H1 6936   3.920   3.897   1.538
 2324TIP3    H2 6937   3.842   3.789   1.609
 2325TIP3   OH2 6938   3.026   2.965   1.798
 2325TIP3    H1 6939   3.004   2.967   1.891
 2325TIP3    H2 6940   3.066   2.879   1.785
 2326TIP3   OH2 6941   1.536   2.830   3.046
 2326TIP3    H1 6942   1.574   2.916   3.029
 2326TIP3    H2 6943   1.606   2.768   3.025
 2327TIP3   OH2 6944   6.883   6.508   4.664
 2327TIP3    H1 6945   6.852   6.588   4.620
 2327TIP3    H2 6946   6.838   6.509   4.748
 2328TIP3   OH2 6947   6.933   0.840   1.566
 2328TIP3    H1 6948   6.955   0.868   1.655
 2328TIP3    H2 6949   6.837   0.842   1.564
 2329TIP3   OH2 6950   6.827   1.438   4.392
 2329TIP3    H1 6951   6.861   1.391   4.468
 2329TIP3    H2 6952   6.832   1.530   4.416
 2330TIP3   OH2 6953   0.116   2.677   2.977
 2330TIP3    H1 6954   0.155   2.602   2.932
 2330TIP3    H2 6955   0.058   2.637   3.042
 2331TIP3   OH2 6956   0.547   6.293   0.233
 2331TIP3    H1 6957   0.582   6.382   0.231
 2331TIP3    H2 6958   0.454   6.304   0.249
 2332TIP3   OH2 6959   3.849   0.113   2.235
 2332TIP3    H1 6960   3.799   0.194   2.238
 2332TIP3    H2 6961   3.940   0.141   2.234
 2333TIP3   OH2 6962   4.531   0.693   0.475
 2333TIP3    H1 6963   4.484   0.713   0.556
 2333TIP3    H2 6964   4.610   0.747   0.480
 2334TIP3   OH2 6965   6.138   5.596   2.257
 2334TIP3    H1 6966   6.126   5.545   2.177
 2334TIP3    H2 6967   6.049   5.612   2.289
 2335TIP3   OH2 6968   4.826   5.514   1.498
 2335TIP3    H1 6969   4.759   5.537   1.434
 2335TIP3    H2 6970   4.886   5.589   1.498
 2336TIP3   OH2 6971   0.872   1.814   1.981
 2336TIP3    H1 6972   0.923   1.890   2.010
 2336TIP3    H2 6973   0.935   1.760   1.932
 2337TIP3   OH2 6974   2.909   0.861   1.579
 2337TIP3    H1 6975   2.838   0.923   1.562
 2337TIP3    H2 6976   2.974   0.881   1.512
 2338TIP3   OH2 6977   0.029   3.379   5.563
 2338TIP3    H1 6978  -0.066   3.371   5.572
 2338TIP3    H2 6979   0.060   3.289   5.552
 2339TIP3   OH2 6980   5.577   2.510   0.478
 2339TIP3    H1 6981   5.622   2.431   0.505
 2339TIP3    H2 6982   5.526   2.484   0.401
 2340TIP3   OH2 6983   1.889   5.584   2.400
 2340TIP3    H1 6984   1.857   5.668   2.432
 2340TIP3    H2 6985   1.958   5.608   2.338
 2341TIP3   OH2 6986   2.059   0.508   5.286
 2341TIP3    H1 6987   2.077   0.591   5.330
 2341TIP3    H2 6988   2.082   0.441   5.351
 2342TIP3   OH2 6989   2.223   3.962   2.780
 2342TIP3    H1 6990   2.314   3.933   2.787
 2342TIP3    H2 6991   2.230   4.053   2.751
 2343TIP3   OH2 6992   4.057   3.964   1.056
 2343TIP3    H1 6993   3.991   4.027   1.028
 2343TIP3    H2 6994   4.128   3.973   0.992
 2344TIP3   OH2 6995   0.315   0.009   4.685
 2344TIP3    H1 6996   0.323   0.087   4.739
 2344TIP3    H2 6997   0.230   0.018   4.642
 2345TIP3   OH2 6998   6.380   6.668   5.440
 2345TIP3    H1 6999   6.429   6.725   5.499
 2345TIP3    H2 7000   6.367   6.587   5.490
 2346TIP3   OH2 7001   2.529   6.195   1.174
 2346TIP3    H1 7002   2.577   6.128   1.223
 2346TIP3    H2 7003   2.595   6.236   1.118
 2347TIP3   OH2 7004   2.834   2.569   4.809
 2347TIP3    H1 7005   2.802   2.648   4.765
 2347TIP3    H2 7006   2.812   2.582   4.901
 2348TIP3   OH2 7007   5.579   5.462   4.044
 2348TIP3    H1 7008   5.616   5.499   4.124
 2348TIP3    H2 7009   5.654   5.454   3.985
 2349TIP3   OH2 7010   0.906   6.678   4.877
 2349TIP3    H1 7011   0.998   6.686   4.902
 2349TIP3    H2 7012   0.857   6.697   4.957
 2350TIP3   OH2 7013   4.066   2.086   5.427
 2350TIP3    H1 7014   4.159   2.105   5.428
 2350TIP3    H2 7015   4.027   2.156   5.375
 2351TIP3   OH2 7016   2.757   2.304   4.777
 2351TIP3    H1 7017   2.833   2.254   4.806
 2351TIP3    H2 7018   2.781   2.396   4.793
 2352TIP3   OH2 7019   5.796   6.606   3.005
 2352TIP3    H1 7020   5.763   6.651   2.927
 2352TIP3    H2 7021   5.888   6.590   2.986
 2353TIP3   OH2 7022   0.491   3.819   2.267
 2353TIP3    H1 7023   0.551   3.746   2.251
 2353TIP3    H2 7024   0.512   3.883   2.199
 2354TIP3   OH2 7025   5.777   2.885   3.409
 2354TIP3    H1 7026   5.859   2.933   3.403
 2354TIP3    H2 7027   5.716   2.947   3.449
 2355TIP3   OH2 7028   3.456   2.403   3.529
 2355TIP3    H1 7029   3.430   2.495   3.520
 2355TIP3    H2 7030   3.375   2.355   3.515
 2356TIP3   OH2 7031   5.379   1.513   3.144
 2356TIP3    H1 7032   5.366   1.438   3.087
 2356TIP3    H2 7033   5.459   1.493   3.193
 2357TIP3   OH2 7034   1.281   1.344   5.670
 2357TIP3    H1 7035   1.319   1.368   5.585
 2357TIP3    H2 7036   1.332   1.268   5.699
 2358TIP3   OH2 7037   4.710   3.666   0.398
 2358TIP3    H1 7038   4.689   3.635   0.310
 2358TIP3    H2 7039   4.785   3.724   0.386
 2359TIP3   OH2 7040   4.712   0.084   4.166
 2359TIP3    H1 7041   4.691   0.022   4.096
 2359TIP3    H2 7042   4.771   0.036   4.223
 2360TIP3   OH2 7043   7.119   3.991   1.061
 2360TIP3    H1 7044   7.085   4.078   1.081
 2360TIP3    H2 7045   7.041   3.937   1.046
 2361TIP3   OH2 7046   4.773   1.736   1.245
 2361TIP3    H1 7047   4.735   1.810   1.292
 2361TIP3    H2 7048   4.715   1.663   1.264
 2362TIP3   OH2 7049   2.186   3.267   0.397
 2362TIP3    H1 7050   2.117   3.299   0.339
 2362TIP3    H2 7051   2.177   3.172   0.396
 2363TIP3   OH2 7052   6.762   2.785   2.509
 2363TIP3    H1 7053   6.789   2.719   2.573
 2363TIP3    H2 7054   6.748   2.864   2.560
 2364TIP3   OH2 7055   1.301   3.481   0.100
 2364TIP3    H1 7056   1.259   3.477   0.014
 2364TIP3    H2 7057   1.356   3.558   0.096
 2365TIP3   OH2 7058   3.992   3.700   1.236
 2365TIP3    H1 7059   4.062   3.723   1.296
 2365TIP3    H2 7060   4.003   3.760   1.162
 2366TIP3   OH2 7061   3.375   2.650   3.465
 2366TIP3    H1 7062   3.342   2.735   3.494
 2366TIP3    H2 7063   3.395   2.662   3.373
 2367TIP3   OH2 7064   2.733   3.740   4.899
 2367TIP3    H1 7065   2.818   3.778   4.877
 2367TIP3    H2 7066   2.673   3.778   4.834
 2368TIP3   OH2 7067   3.058   4.855   1.692
 2368TIP3    H1 7068   3.006   4.798   1.748
 2368TIP3    H2 7069   3.104   4.913   1.753
 2369TIP3   OH2 7070   0.225   6.006   1.665
 2369TIP3    H1 7071   0.170   5.928   1.656
 2369TIP3    H2 7072   0.191   6.067   1.599
 2370TIP3   OH2 7073   1.427   2.922   0.324
 2370TIP3    H1 7074   1.390   3.011   0.325
 2370TIP3    H2 7075   1.398   2.886   0.240
 2371TIP3   OH2 7076   2.877   3.492   2.187
 2371TIP3    H1 7077   2.926   3.426   2.235
 2371TIP3    H2 7078   2.831   3.541   2.255
 2372TIP3   OH2 7079   6.897   3.014   3.224
 2372TIP3    H1 7080   6.918   3.071   3.298
 2372TIP3    H2 7081   6.888   3.075   3.150
 2373TIP3   OH2 7082   6.427   1.774   5.288
 2373TIP3    H1 7083   6.377   1.804   5.364
 2373TIP3    H2 7084   6.479   1.850   5.262
 2374TIP3   OH2 7085   6.671   3.757   0.975
 2374TIP3    H1 7086   6.678   3.730   0.884
 2374TIP3    H2 7087   6.658   3.676   1.024
 2375TIP3   OH2 7088   0.739   3.300   1.394
 2375TIP3    H1 7089   0.690   3.253   1.462
 2375TIP3    H2 7090   0.827   3.262   1.398
 2376TIP3   OH2 7091   4.119   3.387   4.175
 2376TIP3    H1 7092   4.172   3.380   4.255
 2376TIP3    H2 7093   4.178   3.361   4.104
 2377TIP3   OH2 7094   5.673   0.664   3.531
 2377TIP3    H1 7095   5.613   0.614   3.586
 2377TIP3    H2 7096   5.691   0.608   3.456
 2378TIP3   OH2 7097   4.819   6.675   2.834
 2378TIP3    H1 7098   4.832   6.688   2.741
 2378TIP3    H2 7099   4.743   6.617   2.840
 2379TIP3   OH2 7100   2.118   3.639   3.851
 2379TIP3    H1 7101   2.171   3.610   3.777
 2379TIP3    H2 7102   2.115   3.734   3.843
 2380TIP3   OH2 7103   6.427   5.669   5.401
 2380TIP3    H1 7104   6.470   5.602   5.454
 2380TIP3    H2 7105   6.465   5.751   5.431
 2381TIP3   OH2 7106   4.843   0.612   1.995
 2381TIP3    H1 7107   4.751   0.593   1.982
 2381TIP3    H2 7108   4.861   0.687   1.938
 2382TIP3   OH2 7109   6.419   0.422   4.264
 2382TIP3    H1 7110   6.476   0.497   4.251
 2382TIP3    H2 7111   6.379   0.436   4.350
 2383TIP3   OH2 7112   6.039   0.229   4.305
 2383TIP3    H1 7113   6.023   0.298   4.370
 2383TIP3    H2 7114   5.972   0.163   4.323
 2384TIP3   OH2 7115   0.775   2.078   2.603
 2384TIP3    H1 7116   0.714   2.011   2.572
 2384TIP3    H2 7117   0.720   2.154   2.619
 2385TIP3   OH2 7118   6.199   3.537   4.214
 2385TIP3    H1 7119   6.146   3.462   4.240
 2385TIP3    H2 7120   6.140   3.592   4.162
 2386TIP3   OH2 7121   0.572   5.104   0.426
 2386TIP3    H1 7122   0.496   5.162   0.423
 2386TIP3    H2 7123   0.575   5.075   0.517
 2387TIP3   OH2 7124   1.476   4.089   0.405
 2387TIP3    H1 7125   1.548   4.067   0.464
 2387TIP3    H2 7126   1.509   4.165   0.356
 2388TIP3   OH2 7127   3.144   2.022   0.600
 2388TIP3    H1 7128   3.207   2.091   0.622
 2388TIP3    H2 7129   3.193   1.962   0.544
 2389TIP3   OH2 7130   0.954   2.816   3.354
 2389TIP3    H1 7131   0.969   2.722   3.349
 2389TIP3    H2 7132   0.931   2.841   3.264
 2390TIP3   OH2 7133   6.174   2.862   2.001
 2390TIP3    H1 7134   6.164   2.939   2.057
 2390TIP3    H2 7135   6.258   2.824   2.026
 2391TIP3   OH2 7136   4.444   0.077   4.642
 2391TIP3    H1 7137   4.426  -0.007   4.683
 2391TIP3    H2 7138   4.434   0.141   4.712
 2392TIP3   OH2 7139   6.168   3.451   4.805
 2392TIP3    H1 7140   6.181   3.459   4.710
 2392TIP3    H2 7141   6.073   3.445   4.815
 2393TIP3   OH2 7142   2.989   2.040   3.208
 2393TIP3    H1 7143   2.948   2.082   3.132
 2393TIP3    H2 7144   3.056   1.983   3.171
 2394TIP3   OH2 7145   6.599   1.185   2.831
 2394TIP3    H1 7146   6.548   1.107   2.853
 2394TIP3    H2 7147   6.562   1.216   2.749
 2395TIP3   OH2 7148   2.028   1.004   5.025
 2395TIP3    H1 7149   2.045   0.919   5.065
 2395TIP3    H2 7150   2.115   1.040   5.008
 2396TIP3   OH2 7151   2.037   0.336   4.708
 2396TIP3    H1 7152   1.977   0.390   4.658
 2396TIP3    H2 7153   2.100   0.398   4.745
 2397TIP3   OH2 7154   4.364   2.596   4.763
 2397TIP3    H1 7155   4.392   2.586   4.854
 2397TIP3    H2 7156   4.367   2.507   4.727
 2398TIP3   OH2 7157   0.354   0.011   1.705
 2398TIP3    H1 7158   0.325   0.039   1.792
 2398TIP3    H2 7159   0.450   0.005   1.712
 2399TIP3   OH2 7160   0.729   3.121   1.152
 2399TIP3    H1 7161   0.700   3.180   1.221
 2399TIP3    H2 7162   0.781   3.054   1.197
 2400TIP3   OH2 7163   3.518   3.621   0.003
 2400TIP3    H1 7164   3.482   3.619   0.092
 2400TIP3    H2 7165   3.538   3.529  -0.016
 2401TIP3   OH2 7166   1.673   0.520   4.363
 2401TIP3    H1 7167   1.638   0.436   4.395
 2401TIP3    H2 7168   1.604   0.583   4.383
 2402TIP3   OH2 7169   2.488   5.966   2.035
 2402TIP3    H1 7170   2.421   6.033   2.048
 2402TIP3    H2 7171   2.490   5.917   2.117
 2403TIP3   OH2 7172   6.332   4.734   0.407
 2403TIP3    H1 7173   6.371   4.822   0.405
 2403TIP3    H2 7174   6.396   4.679   0.363
 2404TIP3   OH2 7175   4.557   1.764   3.248
 2404TIP3    H1 7176   4.571   1.740   3.156
 2404TIP3    H2 7177   4.644   1.787   3.280
 2405TIP3   OH2 7178   5.946   3.950   0.162
 2405TIP3    H1 7179   5.854   3.945   0.133
 2405TIP3    H2 7180   5.971   4.041   0.148
 2406TIP3   OH2 7181   4.084   0.208   2.678
 2406TIP3    H1 7182   4.092   0.151   2.601
 2406TIP3    H2 7183   4.080   0.147   2.752
 2407TIP3   OH2 7184   2.519   3.507   1.485
 2407TIP3    H1 7185   2.444   3.496   1.543
 2407TIP3    H2 7186   2.594   3.516   1.543
 2408TIP3   OH2 7187   1.568   0.595   0.853
 2408TIP3    H1 7188   1.621   0.637   0.921
 2408TIP3    H2 7189   1.611   0.619   0.771
 2409TIP3   OH2 7190   3.979   1.211   5.168
 2409TIP3    H1 7191   3.977   1.127   5.123
 2409TIP3    H2 7192   4.070   1.222   5.194
 2410TIP3   OH2 7193   3.153   3.927   0.258
 2410TIP3    H1 7194   3.058   3.938   0.263
 2410TIP3    H2 7195   3.187   4.016   0.247
 2411TIP3   OH2 7196   5.498   1.358   0.340
 2411TIP3    H1 7197   5.467   1.274   0.374
 2411TIP3    H2 7198   5.588   1.366   0.371
 2412TIP3   OH2 7199   6.895   6.326   5.448
 2412TIP3    H1 7200   6.932   6.315   5.360
 2412TIP3    H2 7201   6.947   6.267   5.503
 2413TIP3   OH2 7202   7.054   4.628   2.848
 2413TIP3    H1 7203   7.096   4.659   2.928
 2413TIP3    H2 7204   7.126   4.619   2.786
 2414TIP3   OH2 7205   3.857   3.619   5.511
 2414TIP3    H1 7206   3.909   3.616   5.592
 2414TIP3    H2 7207   3.785   3.559   5.526
 2415TIP3   OH2 7208   4.950   0.934   3.396
 2415TIP3    H1 7209   4.970   0.942   3.489
 2415TIP3    H2 7210   4.884   1.001   3.380
 2416TIP3   OH2 7211   2.187   5.364   1.654
 2416TIP3    H1 7212   2.120   5.378   1.587
 2416TIP3    H2 7213   2.138   5.365   1.737
 2417TIP3   OH2 7214   2.077   4.646   1.698
 2417TIP3    H1 7215   2.068   4.676   1.608
 2417TIP3    H2 7216   2.009   4.694   1.746
 2418TIP3   OH2 7217   6.322   1.563   5.154
 2418TIP3    H1 7218   6.250   1.550   5.216
 2418TIP3    H2 7219   6.377   1.630   5.194
 2419TIP3   OH2 7220   2.299   5.555   2.879
 2419TIP3    H1 7221   2.290   5.547   2.784
 2419TIP3    H2 7222   2.356   5.631   2.891
 2420TIP3   OH2 7223   5.108   3.706  -0.030
 2420TIP3    H1 7224   5.102   3.700   0.066
 2420TIP3    H2 7225   5.176   3.642  -0.053
 2421TIP3   OH2 7226   2.851   2.937   4.081
 2421TIP3    H1 7227   2.886   3.008   4.027
 2421TIP3    H2 7228   2.795   2.980   4.145
 2422TIP3   OH2 7229   1.371   5.087   4.842
 2422TIP3    H1 7230   1.434   5.099   4.913
 2422TIP3    H2 7231   1.384   4.997   4.814
 2423TIP3   OH2 7232   4.308   0.367   1.334
 2423TIP3    H1 7233   4.251   0.307   1.286
 2423TIP3    H2 7234   4.374   0.393   1.271
 2424TIP3   OH2 7235   1.725   3.369   2.504
 2424TIP3    H1 7236   1.658   3.352   2.570
 2424TIP3    H2 7237   1.744   3.462   2.512
 2425TIP3   OH2 7238   5.726   4.822   0.693
 2425TIP3    H1 7239   5.807   4.838   0.742
 2425TIP3    H2 7240   5.730   4.882   0.619
 2426TIP3   OH2 7241   1.373   5.078   0.549
 2426TIP3    H1 7242   1.318   5.039   0.617
 2426TIP3    H2 7243   1.373   5.014   0.478
 2427TIP3   OH2 7244   4.420   6.486   2.596
 2427TIP3    H1 7245   4.493   6.490   2.658
 2427TIP3    H2 7246   4.382   6.574   2.599
 2428TIP3   OH2 7247   3.843   3.117   5.519
 2428TIP3    H1 7248   3.920   3.062   5.505
 2428TIP3    H2 7249   3.875   3.189   5.574
 2429TIP3   OH2 7250   7.022   1.477   4.198
 2429TIP3    H1 7251   6.946   1.457   4.253
 2429TIP3    H2 7252   7.082   1.524   4.257
 2430TIP3   OH2 7253   3.862   1.204   4.270
 2430TIP3    H1 7254   3.877   1.290   4.309
 2430TIP3    H2 7255   3.939   1.188   4.215
 2431TIP3   OH2 7256   1.918   5.736   5.445
 2431TIP3    H1 7257   1.999   5.694   5.473
 2431TIP3    H2 7258   1.932   5.829   5.463
 2432TIP3   OH2 7259   1.411   6.624   2.280
 2432TIP3    H1 7260   1.422   6.718   2.267
 2432TIP3    H2 7261   1.349   6.617   2.352
 2433TIP3   OH2 7262   6.198   4.130   2.137
 2433TIP3    H1 7263   6.212   4.195   2.068
 2433TIP3    H2 7264   6.181   4.182   2.216
 2434TIP3   OH2 7265   2.740   2.745   3.913
 2434TIP3    H1 7266   2.774   2.812   3.973
 2434TIP3    H2 7267   2.657   2.719   3.951
 2435TIP3   OH2 7268   0.390   0.316   3.856
 2435TIP3    H1 7269   0.383   0.255   3.783
 2435TIP3    H2 7270   0.463   0.283   3.908
 2436TIP3   OH2 7271   6.295   1.673   0.458
 2436TIP3    H1 7272   6.349   1.642   0.385
 2436TIP3    H2 7273   6.357   1.678   0.532
 2437TIP3   OH2 7274   1.998   5.344   1.062
 2437TIP3    H1 7275   1.986   5.429   1.020
 2437TIP3    H2 7276   1.935   5.286   1.018
 2438TIP3   OH2 7277   5.196   1.818   5.573
 2438TIP3    H1 7278   5.246   1.746   5.613
 2438TIP3    H2 7279   5.157   1.864   5.647
 2439TIP3   OH2 7280   1.275   4.778   2.035
 2439TIP3    H1 7281   1.287   4.698   1.984
 2439TIP3    H2 7282   1.181   4.791   2.038
 2440TIP3   OH2 7283   2.539   4.927   4.816
 2440TIP3    H1 7284   2.458   4.883   4.839
 2440TIP3    H2 7285   2.518   4.974   4.735
 2441TIP3   OH2 7286   2.563   5.817   4.626
 2441TIP3    H1 7287   2.650   5.842   4.656
 2441TIP3    H2 7288   2.539   5.885   4.562
 2442TIP3   OH2 7289   1.140   2.130   5.283
 2442TIP3    H1 7290   1.212   2.068   5.298
 2442TIP3    H2 7291   1.061   2.078   5.296
 2443TIP3   OH2 7292   4.818   4.829   4.881
 2443TIP3    H1 7293   4.763   4.892   4.929
 2443TIP3    H2 7294   4.863   4.780   4.950
 2444TIP3   OH2 7295   5.073   4.835   1.251
 2444TIP3    H1 7296   4.987   4.831   1.292
 2444TIP3    H2 7297   5.073   4.764   1.187
 2445TIP3   OH2 7298   2.234   3.962   4.595
 2445TIP3    H1 7299   2.281   4.027   4.647
 2445TIP3    H2 7300   2.278   3.962   4.510
 2446TIP3   OH2 7301   6.876   4.633   0.966
 2446TIP3    H1 7302   6.923   4.616   0.884
 2446TIP3    H2 7303   6.876   4.548   1.010
 2447TIP3   OH2 7304   2.108   0.066   0.858
 2447TIP3    H1 7305   2.136   0.025   0.776
 2447TIP3    H2 7306   2.169   0.139   0.871
 2448TIP3   OH2 7307   5.132   3.444   2.244
 2448TIP3    H1 7308   5.185   3.457   2.165
 2448TIP3    H2 7309   5.174   3.370   2.289
 2449TIP3   OH2 7310   3.675   1.830   3.506
 2449TIP3    H1 7311   3.714   1.808   3.422
 2449TIP3    H2 7312   3.581   1.833   3.488
 2450TIP3   OH2 7313   0.237   1.174   3.199
 2450TIP3    H1 7314   0.278   1.221   3.272
 2450TIP3    H2 7315   0.262   1.224   3.122
 2451TIP3   OH2 7316   3.618   5.135   2.689
 2451TIP3    H1 7317   3.549   5.103   2.746
 2451TIP3    H2 7318   3.696   5.137   2.745
 2452TIP3   OH2 7319   2.330   5.379   3.380
 2452TIP3    H1 7320   2.320   5.320   3.305
 2452TIP3    H2 7321   2.326   5.467   3.341
 2453TIP3   OH2 7322   5.589   2.996   3.160
 2453TIP3    H1 7323   5.684   2.997   3.152
 2453TIP3    H2 7324   5.558   2.959   3.078
 2454TIP3   OH2 7325   2.495   3.269   2.862
 2454TIP3    H1 7326   2.570   3.310   2.818
 2454TIP3    H2 7327   2.535   3.205   2.921
 2455TIP3   OH2 7328   3.770   2.504   0.522
 2455TIP3    H1 7329   3.695   2.465   0.477
 2455TIP3    H2 7330   3.818   2.549   0.453
 2456TIP3   OH2 7331   5.710   6.210   5.058
 2456TIP3    H1 7332   5.790   6.252   5.025
 2456TIP3    H2 7333   5.735   6.118   5.070
 2457TIP3   OH2 7334   1.080   6.555   1.049
 2457TIP3    H1 7335   1.171   6.533   1.030
 2457TIP3    H2 7336   1.084   6.618   1.121
 2458TIP3   OH2 7337   0.702   3.563   4.908
 2458TIP3    H1 7338   0.756   3.485   4.901
 2458TIP3    H2 7339   0.667   3.560   4.997
 2459TIP3   OH2 7340   1.193   2.279   1.920
 2459TIP3    H1 7341   1.109   2.321   1.905
 2459TIP3    H2 7342   1.223   2.252   1.833
 2460TIP3   OH2 7343   4.293   0.135   5.865
 2460TIP3    H1 7344   4.298   0.220   5.823
 2460TIP3    H2 7345   4.199   0.115   5.868
 2461TIP3   OH2 7346   2.076   1.041   1.853
 2461TIP3    H1 7347   2.092   1.084   1.937
 2461TIP3    H2 7348   2.163   1.031   1.814
 2462TIP3   OH2 7349   6.934   0.380   2.714
 2462TIP3    H1 7350   6.906   0.407   2.801
 2462TIP3    H2 7351   6.855   0.388   2.660
 2463TIP3   OH2 7352   5.249   5.445   0.813
 2463TIP3    H1 7353   5.280   5.428   0.902
 2463TIP3    H2 7354   5.249   5.358   0.772
 2464TIP3   OH2 7355   0.755   4.071   4.835
 2464TIP3    H1 7356   0.745   3.976   4.841
 2464TIP3    H2 7357   0.784   4.098   4.922
 2465TIP3   OH2 7358   5.710   3.687   3.742
 2465TIP3    H1 7359   5.630   3.670   3.693
 2465TIP3    H2 7360   5.706   3.627   3.817
 2466TIP3   OH2 7361   3.752   0.658   4.214
 2466TIP3    H1 7362   3.674   0.713   4.224
 2466TIP3    H2 7363   3.733   0.603   4.138
 2467TIP3   OH2 7364   5.119   5.181   4.560
 2467TIP3    H1 7365   5.058   5.144   4.624
 2467TIP3    H2 7366   5.126   5.114   4.492
 2468TIP3   OH2 7367   6.859   3.400   3.681
 2468TIP3    H1 7368   6.895   3.488   3.685
 2468TIP3    H2 7369   6.766   3.413   3.661
 2469TIP3   OH2 7370   0.780   6.229   4.134
 2469TIP3    H1 7371   0.839   6.301   4.161
 2469TIP3    H2 7372   0.698   6.273   4.113
 2470TIP3   OH2 7373   4.240   4.589   5.756
 2470TIP3    H1 7374   4.235   4.525   5.827
 2470TIP3    H2 7375   4.153   4.626   5.751
 2471TIP3   OH2 7376   6.850   5.619   5.223
 2471TIP3    H1 7377   6.871   5.591   5.133
 2471TIP3    H2 7378   6.872   5.543   5.277
 2472TIP3   OH2 7379   5.790   6.064   2.167
 2472TIP3    H1 7380   5.783   5.999   2.097
 2472TIP3    H2 7381   5.729   6.133   2.142
 2473TIP3   OH2 7382   6.132   3.277   2.297
 2473TIP3    H1 7383   6.095   3.291   2.209
 2473TIP3    H2 7384   6.171   3.190   2.292
 2474TIP3   OH2 7385   4.620   5.794   0.263
 2474TIP3    H1 7386   4.714   5.815   0.265
 2474TIP3    H2 7387   4.580   5.860   0.320
 2475TIP3   OH2 7388   3.000   0.038   0.286
 2475TIP3    H1 7389   3.086   0.077   0.305
 2475TIP3    H2 7390   2.955   0.105   0.234
 2476TIP3   OH2 7391   0.046   4.464   1.965
 2476TIP3    H1 7392   0.129   4.446   2.009
 2476TIP3    H2 7393  -0.012   4.495   2.034
 2477TIP3   OH2 7394   1.792   0.927   0.872
 2477TIP3    H1 7395   1.838   0.981   0.937
 2477TIP3    H2 7396   1.700   0.935   0.895
 2478TIP3   OH2 7397   7.153   6.455   4.683
 2478TIP3    H1 7398   7.060   6.469   4.701
 2478TIP3    H2 7399   7.198   6.521   4.736
 2479TIP3   OH2 7400   0.920   1.450   4.665
 2479TIP3    H1 7401   0.994   1.508   4.687
 2479TIP3    H2 7402   0.852   1.509   4.633
 2480TIP3   OH2 7403   6.775   4.208   1.228
 2480TIP3    H1 7404   6.735   4.244   1.307
 2480TIP3    H2 7405   6.791   4.116   1.250
 2481TIP3   OH2 7406   5.149   6.493   2.938
 2481TIP3    H1 7407   5.094   6.542   3.000
 2481TIP3    H2 7408   5.202   6.559   2.895
 2482TIP3   OH2 7409   0.385   1.739   0.001
 2482TIP3    H1 7410   0.381   1.683   0.078
 2482TIP3    H2 7411   0.478   1.762  -0.008
 2483TIP3   OH2 7412   0.688   4.452   5.092
 2483TIP3    H1 7413   0.691   4.485   5.002
 2483TIP3    H2 7414   0.723   4.524   5.144
 2484TIP3   OH2 7415   1.878   0.948   3.881
 2484TIP3    H1 7416   1.942   0.891   3.925
 2484TIP3    H2 7417   1.800   0.894   3.872
 2485TIP3   OH2 7418   6.391   6.102   0.731
 2485TIP3    H1 7419   6.301   6.126   0.707
 2485TIP3    H2 7420   6.425   6.056   0.655
 2486TIP3   OH2 7421   3.238   0.224   0.362
 2486TIP3    H1 7422   3.236   0.240   0.456
 2486TIP3    H2 7423   3.195   0.301   0.324
 2487TIP3   OH2 7424   5.558   1.729   2.265
 2487TIP3    H1 7425   5.612   1.684   2.200
 2487TIP3    H2 7426   5.468   1.718   2.234
 2488TIP3   OH2 7427   0.991   0.024   5.073
 2488TIP3    H1 7428   1.010  -0.069   5.064
 2488TIP3    H2 7429   0.937   0.031   5.152
 2489TIP3   OH2 7430   4.278   4.203   2.429
 2489TIP3    H1 7431   4.354   4.199   2.486
 2489TIP3    H2 7432   4.207   4.235   2.485
 2490TIP3   OH2 7433   5.698   2.890   3.800
 2490TIP3    H1 7434   5.756   2.832   3.749
 2490TIP3    H2 7435   5.749   2.970   3.811
 2491TIP3   OH2 7436   4.500   0.321   3.593
 2491TIP3    H1 7437   4.527   0.412   3.595
 2491TIP3    H2 7438   4.539   0.282   3.671
 2492TIP3   OH2 7439   4.202   6.627   4.896
 2492TIP3    H1 7440   4.200   6.670   4.981
 2492TIP3    H2 7441   4.113   6.592   4.885
 2493TIP3   OH2 7442   7.208   0.198   4.901
 2493TIP3    H1 7443   7.161   0.163   4.825
 2493TIP3    H2 7444   7.191   0.292   4.898
 2494TIP3   OH2 7445   5.335   3.208   0.768
 2494TIP3    H1 7446   5.305   3.133   0.716
 2494TIP3    H2 7447   5.430   3.201   0.767
 2495TIP3   OH2 7448   0.146   6.303   3.935
 2495TIP3    H1 7449   0.223   6.361   3.931
 2495TIP3    H2 7450   0.151   6.263   4.021
 2496TIP3   OH2 7451   2.910   5.595   3.355
 2496TIP3    H1 7452   2.935   5.645   3.278
 2496TIP3    H2 7453   2.983   5.604   3.415
 2497TIP3   OH2 7454   5.145   5.545   3.905
 2497TIP3    H1 7455   5.202   5.471   3.924
 2497TIP3    H2 7456   5.057   5.514   3.927
 2498TIP3   OH2 7457   3.977   4.338   2.262
 2498TIP3    H1 7458   3.902   4.386   2.226
 2498TIP3    H2 7459   3.975   4.253   2.218
 2499TIP3   OH2 7460   6.541   4.190   1.747
 2499TIP3    H1 7461   6.614   4.242   1.715
 2499TIP3    H2 7462   6.467   4.213   1.691
 2500TIP3   OH2 7463   0.146   6.237   5.580
 2500TIP3    H1 7464   0.134   6.224   5.486
 2500TIP3    H2 7465   0.063   6.277   5.608
 2501TIP3   OH2 7466   4.918   4.594   0.470
 2501TIP3    H1 7467   4.949   4.567   0.383
 2501TIP3    H2 7468   4.945   4.686   0.477
 2502TIP3   OH2 7469   6.150   1.072   2.313
 2502TIP3    H1 7470   6.072   1.063   2.368
 2502TIP3    H2 7471   6.122   1.130   2.242
 2503TIP3   OH2 7472   5.533   2.187   3.386
 2503TIP3    H1 7473   5.454   2.196   3.334
 2503TIP3    H2 7474   5.595   2.249   3.347
 2504TIP3   OH2 7475   5.133   6.224   1.037
 2504TIP3    H1 7476   5.208   6.186   0.992
 2504TIP3    H2 7477   5.170   6.291   1.093
 2505TIP3   OH2 7478   5.465   2.264   3.667
 2505TIP3    H1 7479   5.471   2.205   3.591
 2505TIP3    H2 7480   5.527   2.228   3.730
 2506TIP3   OH2 7481   5.429   3.838   1.494
 2506TIP3    H1 7482   5.409   3.831   1.587
 2506TIP3    H2 7483   5.506   3.894   1.490
 2507TIP3   OH2 7484   3.891   4.307   3.496
 2507TIP3    H1 7485   3.914   4.219   3.468
 2507TIP3    H2 7486   3.909   4.307   3.590
 2508TIP3   OH2 7487   2.382   3.566   3.737
 2508TIP3    H1 7488   2.411   3.582   3.826
 2508TIP3    H2 7489   2.463   3.560   3.686
 2509TIP3   OH2 7490   1.326   6.225   2.863
 2509TIP3    H1 7491   1.311   6.193   2.775
 2509TIP3    H2 7492   1.397   6.289   2.854
 2510TIP3   OH2 7493   0.852   4.414   0.203
 2510TIP3    H1 7494   0.772   4.378   0.164
 2510TIP3    H2 7495   0.904   4.442   0.127
 2511TIP3   OH2 7496   3.502   0.730   1.294
 2511TIP3    H1 7497   3.433   0.782   1.336
 2511TIP3    H2 7498   3.547   0.688   1.367
 2512TIP3   OH2 7499   4.838   6.430   3.456
 2512TIP3    H1 7500   4.931   6.432   3.482
 2512TIP3    H2 7501   4.838   6.465   3.366
 2513TIP3   OH2 7502   3.295   2.350   4.684
 2513TIP3    H1 7503   3.239   2.405   4.739
 2513TIP3    H2 7504   3.239   2.277   4.659
 2514TIP3   OH2 7505   0.814   1.924   3.332
 2514TIP3    H1 7506   0.781   1.915   3.243
 2514TIP3    H2 7507   0.903   1.957   3.322
 2515TIP3   OH2 7508   2.763   1.249   4.718
 2515TIP3    H1 7509   2.827   1.252   4.789
 2515TIP3    H2 7510   2.742   1.156   4.709
 2516TIP3   OH2 7511   5.702   2.264   2.267
 2516TIP3    H1 7512   5.796   2.251   2.257
 2516TIP3    H2 7513   5.663   2.185   2.228
 2517TIP3   OH2 7514   5.503   5.517   3.241
 2517TIP3    H1 7515   5.558   5.499   3.317
 2517TIP3    H2 7516   5.415   5.529   3.276
 2518TIP3   OH2 7517   4.477   5.667   2.907
 2518TIP3    H1 7518   4.412   5.690   2.974
 2518TIP3    H2 7519   4.497   5.575   2.925
 2519TIP3   OH2 7520   3.986   3.543   3.264
 2519TIP3    H1 7521   3.945   3.462   3.235
 2519TIP3    H2 7522   3.923   3.580   3.327
 2520TIP3   OH2 7523   1.937   3.864   2.483
 2520TIP3    H1 7524   2.025   3.891   2.457
 2520TIP3    H2 7525   1.944   3.770   2.498
 2521TIP3   OH2 7526   4.264   0.138   5.527
 2521TIP3    H1 7527   4.212   0.062   5.555
 2521TIP3    H2 7528   4.232   0.210   5.581
 2522TIP3   OH2 7529   4.291   3.820   4.265
 2522TIP3    H1 7530   4.246   3.827   4.181
 2522TIP3    H2 7531   4.256   3.892   4.318
 2523TIP3   OH2 7532   6.232   0.137   0.541
 2523TIP3    H1 7533   6.235   0.199   0.613
 2523TIP3    H2 7534   6.145   0.097   0.546
 2524TIP3   OH2 7535   6.286   5.051   4.573
 2524TIP3    H1 7536   6.231   5.092   4.506
 2524TIP3    H2 7537   6.237   5.060   4.654
 2525TIP3   OH2 7538   4.322   3.697   3.130
 2525TIP3    H1 7539   4.293   3.739   3.211
 2525TIP3    H2 7540   4.333   3.769   3.068
 2526TIP3   OH2 7541   4.376   0.218   0.387
 2526TIP3    H1 7542   4.442   0.232   0.454
 2526TIP3    H2 7543   4.337   0.133   0.408
 2527TIP3   OH2 7544   3.925   4.890   0.239
 2527TIP3    H1 7545   3.843   4.843   0.251
 2527TIP3    H2 7546   3.967   4.887   0.325
 2528TIP3   OH2 7547   1.033   4.975   0.369
 2528TIP3    H1 7548   1.064   4.888   0.392
 2528TIP3    H2 7549   0.969   4.997   0.437
 2529TIP3   OH2 7550   6.537   3.156   1.195
 2529TIP3    H1 7551   6.476   3.183   1.126
 2529TIP3    H2 7552   6.551   3.236   1.247
 2530TIP3   OH2 7553   6.520   4.105   2.676
 2530TIP3    H1 7554   6.556   4.186   2.714
 2530TIP3    H2 7555   6.526   4.118   2.581
 2531TIP3   OH2 7556   2.024   3.462   3.484
 2531TIP3    H1 7557   2.029   3.455   3.389
 2531TIP3    H2 7558   1.934   3.490   3.501
 2532TIP3   OH2 7559   5.293   3.569   3.468
 2532TIP3    H1 7560   5.253   3.504   3.410
 2532TIP3    H2 7561   5.309   3.645   3.411
 2533TIP3   OH2 7562   5.421   5.655   5.373
 2533TIP3    H1 7563   5.455   5.605   5.300
 2533TIP3    H2 7564   5.491   5.654   5.438
 2534TIP3   OH2 7565   0.246   1.968   1.874
 2534TIP3    H1 7566   0.179   1.987   1.809
 2534TIP3    H2 7567   0.201   1.920   1.942
 2535TIP3   OH2 7568   5.348   3.976   5.185
 2535TIP3    H1 7569   5.280   3.939   5.129
 2535TIP3    H2 7570   5.429   3.936   5.154
 2536TIP3   OH2 7571   4.261   1.040   0.742
 2536TIP3    H1 7572   4.187   0.992   0.780
 2536TIP3    H2 7573   4.226   1.076   0.661
 2537TIP3   OH2 7574   6.787   4.448   3.122
 2537TIP3    H1 7575   6.764   4.502   3.197
 2537TIP3    H2 7576   6.715   4.461   3.060
 2538TIP3   OH2 7577   3.749   4.195   1.589
 2538TIP3    H1 7578   3.792   4.153   1.514
 2538TIP3    H2 7579   3.751   4.129   1.658
 2539TIP3   OH2 7580   3.711   4.562   5.099
 2539TIP3    H1 7581   3.702   4.467   5.092
 2539TIP3    H2 7582   3.648   4.597   5.035
 2540TIP3   OH2 7583   5.451   6.630   4.922
 2540TIP3    H1 7584   5.444   6.664   4.833
 2540TIP3    H2 7585   5.387   6.679   4.973
 2541TIP3   OH2 7586   4.554   2.186   4.495
 2541TIP3    H1 7587   4.534   2.093   4.510
 2541TIP3    H2 7588   4.517   2.230   4.571
 2542TIP3   OH2 7589   2.167   2.778   2.645
 2542TIP3    H1 7590   2.245   2.739   2.685
 2542TIP3    H2 7591   2.180   2.768   2.551
 2543TIP3   OH2 7592   1.575   0.846   4.326
 2543TIP3    H1 7593   1.588   0.863   4.419
 2543TIP3    H2 7594   1.662   0.853   4.288
 2544TIP3   OH2 7595   5.082   4.077   5.833
 2544TIP3    H1 7596   5.116   4.109   5.749
 2544TIP3    H2 7597   5.121   4.136   5.898
 2545TIP3   OH2 7598   6.640   1.933   5.168
 2545TIP3    H1 7599   6.670   1.967   5.252
 2545TIP3    H2 7600   6.718   1.895   5.127
 2546TIP3   OH2 7601   1.705   1.661   2.899
 2546TIP3    H1 7602   1.621   1.700   2.923
 2546TIP3    H2 7603   1.683   1.574   2.865
 2547TIP3   OH2 7604   1.444   6.444   4.867
 2547TIP3    H1 7605   1.379   6.399   4.921
 2547TIP3    H2 7606   1.396   6.471   4.789
 2548TIP3   OH2 7607   4.203   4.633   0.564
 2548TIP3    H1 7608   4.232   4.651   0.475
 2548TIP3    H2 7609   4.204   4.718   0.608
 2549TIP3   OH2 7610   4.034   2.046   1.115
 2549TIP3    H1 7611   3.982   1.975   1.153
 2549TIP3    H2 7612   4.115   2.046   1.166
 2550TIP3   OH2 7613   5.327   2.684   3.584
 2550TIP3    H1 7614   5.349   2.774   3.604
 2550TIP3    H2 7615   5.411   2.642   3.565
 2551TIP3   OH2 7616   1.134   2.842   0.238
 2551TIP3    H1 7617   1.140   2.861   0.145
 2551TIP3    H2 7618   1.100   2.752   0.242
 2552TIP3   OH2 7619   1.424   4.812   1.779
 2552TIP3    H1 7620   1.338   4.770   1.771
 2552TIP3    H2 7621   1.429   4.837   1.872
 2553TIP3   OH2 7622   4.328   4.570   0.326
 2553TIP3    H1 7623   4.398   4.599   0.384
 2553TIP3    H2 7624   4.355   4.598   0.239
 2554TIP3   OH2 7625   6.827   0.540   3.539
 2554TIP3    H1 7626   6.823   0.531   3.444
 2554TIP3    H2 7627   6.760   0.605   3.560
 2555TIP3   OH2 7628   5.745   6.177   1.823
 2555TIP3    H1 7629   5.828   6.132   1.837
 2555TIP3    H2 7630   5.742   6.245   1.890
 2556TIP3   OH2 7631   0.421   2.729   0.912
 2556TIP3    H1 7632   0.424   2.637   0.885
 2556TIP3    H2 7633   0.330   2.744   0.936
 2557TIP3   OH2 7634   6.137   0.431   5.264
 2557TIP3    H1 7635   6.099   0.360   5.316
 2557TIP3    H2 7636   6.148   0.503   5.327
 2558TIP3   OH2 7637   0.018   2.100   3.745
 2558TIP3    H1 7638   0.056   2.173   3.795
 2558TIP3    H2 7639  -0.062   2.078   3.792
 2559TIP3   OH2 7640   2.591   4.817   2.010
 2559TIP3    H1 7641   2.508   4.854   2.041
 2559TIP3    H2 7642   2.586   4.826   1.915
 2560TIP3   OH2 7643   3.246   2.751   1.930
 2560TIP3    H1 7644   3.296   2.735   1.851
 2560TIP3    H2 7645   3.278   2.834   1.963
 2561TIP3   OH2 7646   7.169   3.767   5.345
 2561TIP3    H1 7647   7.157   3.798   5.434
 2561TIP3    H2 7648   7.245   3.710   5.349
 2562TIP3   OH2 7649   4.864   0.768   5.410
 2562TIP3    H1 7650   4.846   0.763   5.316
 2562TIP3    H2 7651   4.823   0.690   5.446
 2563TIP3   OH2 7652   0.128   1.926   2.303
 2563TIP3    H1 7653   0.150   1.857   2.240
 2563TIP3    H2 7654   0.167   2.005   2.266
 2564TIP3   OH2 7655   4.057   6.778   2.978
 2564TIP3    H1 7656   4.133   6.786   3.036
 2564TIP3    H2 7657   3.987   6.745   3.035
 2565TIP3   OH2 7658   5.494   4.749   0.464
 2565TIP3    H1 7659   5.489   4.680   0.529
 2565TIP3    H2 7660   5.586   4.749   0.435
 2566TIP3   OH2 7661   0.895   4.271   5.640
 2566TIP3    H1 7662   0.973   4.235   5.598
 2566TIP3    H2 7663   0.882   4.216   5.718
 2567TIP3   OH2 7664   1.694   2.601   0.560
 2567TIP3    H1 7665   1.744   2.524   0.588
 2567TIP3    H2 7666   1.733   2.674   0.609
 2568TIP3   OH2 7667   1.755   4.291   1.219
 2568TIP3    H1 7668   1.674   4.341   1.233
 2568TIP3    H2 7669   1.769   4.244   1.301
 2569TIP3   OH2 7670   7.184   0.119   0.805
 2569TIP3    H1 7671   7.150   0.035   0.775
 2569TIP3    H2 7672   7.269   0.127   0.761
 2570TIP3   OH2 7673   4.732   1.545   4.390
 2570TIP3    H1 7674   4.646   1.587   4.380
 2570TIP3    H2 7675   4.793   1.617   4.405
 2571TIP3   OH2 7676   1.014   0.599   3.573
 2571TIP3    H1 7677   1.025   0.565   3.661
 2571TIP3    H2 7678   1.101   0.629   3.547
 2572TIP3   OH2 7679   4.442   6.109   4.725
 2572TIP3    H1 7680   4.479   6.191   4.759
 2572TIP3    H2 7681   4.403   6.133   4.641
 2573TIP3   OH2 7682   6.339   5.457   1.939
 2573TIP3    H1 7683   6.250   5.454   1.974
 2573TIP3    H2 7684   6.349   5.545   1.903
 2574TIP3   OH2 7685   2.958   1.592   1.452
 2574TIP3    H1 7686   2.926   1.628   1.369
 2574TIP3    H2 7687   3.000   1.509   1.428
 2575TIP3   OH2 7688   2.560   2.948   3.540
 2575TIP3    H1 7689   2.475   2.991   3.549
 2575TIP3    H2 7690   2.553   2.869   3.595
 2576TIP3   OH2 7691   6.103   1.650   3.550
 2576TIP3    H1 7692   6.032   1.617   3.604
 2576TIP3    H2 7693   6.065   1.657   3.462
 2577TIP3   OH2 7694   0.086   3.656   2.029
 2577TIP3    H1 7695   0.144   3.731   2.041
 2577TIP3    H2 7696   0.017   3.688   1.971
 2578TIP3   OH2 7697   4.982   5.320   1.392
 2578TIP3    H1 7698   4.947   5.393   1.443
 2578TIP3    H2 7699   4.918   5.309   1.321
 2579TIP3   OH2 7700   0.916   4.968   3.649
 2579TIP3    H1 7701   0.999   4.922   3.639
 2579TIP3    H2 7702   0.884   4.980   3.559
 2580TIP3   OH2 7703   0.350   4.659   1.926
 2580TIP3    H1 7704   0.382   4.602   1.996
 2580TIP3    H2 7705   0.260   4.681   1.952
 2581TIP3   OH2 7706   4.811   4.411   4.964
 2581TIP3    H1 7707   4.729   4.459   4.957
 2581TIP3    H2 7708   4.784   4.320   4.979
 2582TIP3   OH2 7709   6.313   5.274   0.301
 2582TIP3    H1 7710   6.356   5.318   0.374
 2582TIP3    H2 7711   6.373   5.283   0.228
 2583TIP3   OH2 7712   4.191   2.580   3.123
 2583TIP3    H1 7713   4.165   2.648   3.061
 2583TIP3    H2 7714   4.195   2.624   3.208
 2584TIP3   OH2 7715   2.034   0.888  -0.036
 2584TIP3    H1 7716   2.125   0.883  -0.008
 2584TIP3    H2 7717   1.987   0.920   0.041
 2585TIP3   OH2 7718   0.464   5.702   0.199
 2585TIP3    H1 7719   0.533   5.640   0.175
 2585TIP3    H2 7720   0.500   5.788   0.176
 2586TIP3   OH2 7721   0.769   1.489   4.336
 2586TIP3    H1 7722   0.704   1.439   4.385
 2586TIP3    H2 7723   0.759   1.579   4.367
 2587TIP3   OH2 7724   7.176   5.163   3.578
 2587TIP3    H1 7725   7.144   5.076   3.556
 2587TIP3    H2 7726   7.167   5.213   3.497
 2588TIP3   OH2 7727   5.939   2.103   5.562
 2588TIP3    H1 7728   5.953   2.016   5.601
 2588TIP3    H2 7729   5.845   2.107   5.545
 2589TIP3   OH2 7730   2.795   4.470   5.293
 2589TIP3    H1 7731   2.728   4.459   5.361
 2589TIP3    H2 7732   2.791   4.563   5.270
 2590TIP3   OH2 7733   6.785   4.908   0.947
 2590TIP3    H1 7734   6.700   4.871   0.967
 2590TIP3    H2 7735   6.841   4.832   0.931
 2591TIP3   OH2 7736   7.164   6.372   2.492
 2591TIP3    H1 7737   7.120   6.335   2.415
 2591TIP3    H2 7738   7.218   6.300   2.525
 2592TIP3   OH2 7739   6.696   0.359   3.217
 2592TIP3    H1 7740   6.685   0.454   3.210
 2592TIP3    H2 7741   6.786   0.348   3.248
 2593TIP3   OH2 7742   2.734   5.325   2.614
 2593TIP3    H1 7743   2.658   5.347   2.560
 2593TIP3    H2 7744   2.697   5.296   2.697
 2594TIP3   OH2 7745   2.731   4.261   2.619
 2594TIP3    H1 7746   2.681   4.182   2.636
 2594TIP3    H2 7747   2.681   4.331   2.661
 2595TIP3   OH2 7748   3.173   4.352   5.652
 2595TIP3    H1 7749   3.174   4.382   5.561
 2595TIP3    H2 7750   3.219   4.421   5.701
 2596TIP3   OH2 7751   5.935   3.493   1.150
 2596TIP3    H1 7752   5.858   3.449   1.116
 2596TIP3    H2 7753   5.974   3.537   1.074
 2597TIP3   OH2 7754   0.792   0.772   2.906
 2597TIP3    H1 7755   0.855   0.843   2.916
 2597TIP3    H2 7756   0.845   0.697   2.878
 2598TIP3   OH2 7757   1.160   2.360   0.069
 2598TIP3    H1 7758   1.194   2.418   0.002
 2598TIP3    H2 7759   1.173   2.407   0.151
 2599TIP3   OH2 7760   3.950   4.998  -0.037
 2599TIP3    H1 7761   3.948   4.972   0.055
 2599TIP3    H2 7762   3.969   4.918  -0.084
 2600TIP3   OH2 7763   3.303   6.202   1.529
 2600TIP3    H1 7764   3.234   6.162   1.581
 2600TIP3    H2 7765   3.265   6.285   1.498
 2601TIP3   OH2 7766   4.741   5.231   0.912
 2601TIP3    H1 7767   4.747   5.136   0.926
 2601TIP3    H2 7768   4.827   5.256   0.878
 2602TIP3   OH2 7769   4.903   1.061   3.656
 2602TIP3    H1 7770   4.965   1.132   3.671
 2602TIP3    H2 7771   4.906   1.009   3.736
 2603TIP3   OH2 7772   6.382   6.180   4.726
 2603TIP3    H1 7773   6.433   6.252   4.764
 2603TIP3    H2 7774   6.448   6.115   4.703
 2604TIP3   OH2 7775   0.023   0.786   0.926
 2604TIP3    H1 7776   0.070   0.702   0.923
 2604TIP3    H2 7777  -0.022   0.791   0.842
 2605TIP3   OH2 7778   0.635   1.849   2.484
 2605TIP3    H1 7779   0.726   1.819   2.491
 2605TIP3    H2 7780   0.592   1.783   2.429
 2606TIP3   OH2 7781   4.715   6.235   2.463
 2606TIP3    H1 7782   4.653   6.271   2.400
 2606TIP3    H2 7783   4.726   6.304   2.528
 2607TIP3   OH2 7784   1.314   2.211   1.263
 2607TIP3    H1 7785   1.343   2.277   1.326
 2607TIP3    H2 7786   1.338   2.248   1.178
 2608TIP3   OH2 7787   5.780   4.560   4.808
 2608TIP3    H1 7788   5.750   4.602   4.727
 2608TIP3    H2 7789   5.875   4.554   4.799
 2609TIP3   OH2 7790   0.862   3.540   0.595
 2609TIP3    H1 7791   0.867   3.613   0.534
 2609TIP3    H2 7792   0.814   3.574   0.670
 2610TIP3   OH2 7793   5.035   2.310   3.701
 2610TIP3    H1 7794   4.979   2.260   3.642
 2610TIP3    H2 7795   5.090   2.363   3.643
 2611TIP3   OH2 7796   1.819   4.311   3.342
 2611TIP3    H1 7797   1.834   4.231   3.293
 2611TIP3    H2 7798   1.858   4.295   3.428
 2612TIP3   OH2 7799   1.867   5.785   2.814
 2612TIP3    H1 7800   1.899   5.831   2.737
 2612TIP3    H2 7801   1.933   5.718   2.832
 2613TIP3   OH2 7802   5.775   2.811   3.015
 2613TIP3    H1 7803   5.796   2.905   3.009
 2613TIP3    H2 7804   5.859   2.769   3.034
 2614TIP3   OH2 7805   3.189   5.994   1.683
 2614TIP3    H1 7806   3.279   6.025   1.680
 2614TIP3    H2 7807   3.181   5.937   1.606
 2615TIP3   OH2 7808   5.067   1.817   0.523
 2615TIP3    H1 7809   5.076   1.815   0.428
 2615TIP3    H2 7810   5.157   1.814   0.556
 2616TIP3   OH2 7811   2.453   6.549   2.041
 2616TIP3    H1 7812   2.456   6.641   2.068
 2616TIP3    H2 7813   2.539   6.533   2.002
 2617TIP3   OH2 7814   0.611   5.820   3.358
 2617TIP3    H1 7815   0.517   5.810   3.347
 2617TIP3    H2 7816   0.647   5.805   3.271
 2618TIP3   OH2 7817   3.527   1.656   5.693
 2618TIP3    H1 7818   3.509   1.740   5.736
 2618TIP3    H2 7819   3.591   1.614   5.750
 2619TIP3   OH2 7820   2.703   1.018   1.541
 2619TIP3    H1 7821   2.633   0.958   1.514
 2619TIP3    H2 7822   2.676   1.104   1.510
 2620TIP3   OH2 7823   2.967   3.017   0.629
 2620TIP3    H1 7824   2.892   2.988   0.577
 2620TIP3    H2 7825   2.936   3.096   0.673
 2621TIP3   OH2 7826   4.682   3.580   0.137
 2621TIP3    H1 7827   4.708   3.521   0.067
 2621TIP3    H2 7828   4.610   3.535   0.181
 2622TIP3   OH2 7829   6.574   2.379   3.106
 2622TIP3    H1 7830   6.540   2.417   3.187
 2622TIP3    H2 7831   6.651   2.328   3.134
 2623TIP3   OH2 7832   5.502   5.256   1.234
 2623TIP3    H1 7833   5.443   5.244   1.309
 2623TIP3    H2 7834   5.498   5.174   1.187
 2624TIP3   OH2 7835   4.753   5.528   0.428
 2624TIP3    H1 7836   4.763   5.473   0.505
 2624TIP3    H2 7837   4.735   5.615   0.462
 2625TIP3   OH2 7838   0.647   1.737   4.415
 2625TIP3    H1 7839   0.575   1.756   4.476
 2625TIP3    H2 7840   0.721   1.787   4.449
 2626TIP3   OH2 7841   0.313   3.350   4.040
 2626TIP3    H1 7842   0.254   3.292   3.993
 2626TIP3    H2 7843   0.331   3.305   4.122
 2627TIP3   OH2 7844   4.157   0.423   3.145
 2627TIP3    H1 7845   4.183   0.398   3.234
 2627TIP3    H2 7846   4.237   0.412   3.093
 2628TIP3   OH2 7847   2.641   4.088   4.926
 2628TIP3    H1 7848   2.690   4.135   4.994
 2628TIP3    H2 7849   2.703   4.081   4.853
 2629TIP3   OH2 7850   5.745   0.889   0.536
 2629TIP3    H1 7851   5.799   0.926   0.466
 2629TIP3    H2 7852   5.666   0.943   0.537
 2630TIP3   OH2 7853   5.304   1.814   2.163
 2630TIP3    H1 7854   5.308   1.896   2.113
 2630TIP3    H2 7855   5.280   1.842   2.252
 2631TIP3   OH2 7856   5.248   1.697   5.875
 2631TIP3    H1 7857   5.286   1.622   5.921
 2631TIP3    H2 7858   5.305   1.770   5.899
 2632TIP3   OH2 7859   7.141   6.552   5.441
 2632TIP3    H1 7860   7.104   6.479   5.391
 2632TIP3    H2 7861   7.184   6.511   5.516
 2633TIP3   OH2 7862   0.361   3.518   0.134
 2633TIP3    H1 7863   0.392   3.428   0.133
 2633TIP3    H2 7864   0.279   3.515   0.184
 2634TIP3   OH2 7865   5.733   0.493   3.005
 2634TIP3    H1 7866   5.760   0.540   2.926
 2634TIP3    H2 7867   5.703   0.408   2.974
 2635TIP3   OH2 7868   1.922   1.127   3.358
 2635TIP3    H1 7869   1.857   1.176   3.407
 2635TIP3    H2 7870   1.872   1.063   3.308
 2636TIP3   OH2 7871   3.929   3.274   5.776
 2636TIP3    H1 7872   3.835   3.264   5.789
 2636TIP3    H2 7873   3.965   3.187   5.793
 2637TIP3   OH2 7874   3.566   2.266   4.265
 2637TIP3    H1 7875   3.644   2.284   4.318
 2637TIP3    H2 7876   3.601   2.230   4.183
 2638TIP3   OH2 7877   1.754   6.449   5.814
 2638TIP3    H1 7878   1.726   6.364   5.849
 2638TIP3    H2 7879   1.723   6.448   5.723
 2639TIP3   OH2 7880   5.785   2.337   3.495
 2639TIP3    H1 7881   5.802   2.244   3.482
 2639TIP3    H2 7882   5.849   2.364   3.562
 2640TIP3   OH2 7883   1.831   6.540   0.761
 2640TIP3    H1 7884   1.860   6.538   0.852
 2640TIP3    H2 7885   1.738   6.565   0.765
 2641TIP3   OH2 7886   6.186   0.825   2.618
 2641TIP3    H1 7887   6.251   0.780   2.564
 2641TIP3    H2 7888   6.101   0.801   2.579
 2642TIP3   OH2 7889   4.867   6.083   5.155
 2642TIP3    H1 7890   4.846   6.068   5.247
 2642TIP3    H2 7891   4.868   6.178   5.146
 2643TIP3   OH2 7892   6.593   1.552   0.436
 2643TIP3    H1 7893   6.573   1.557   0.530
 2643TIP3    H2 7894   6.662   1.486   0.430
 2644TIP3   OH2 7895   6.093   2.488   3.366
 2644TIP3    H1 7896   6.094   2.441   3.450
 2644TIP3    H2 7897   6.158   2.557   3.376
 2645TIP3   OH2 7898   5.915   3.178   0.213
 2645TIP3    H1 7899   5.882   3.089   0.203
 2645TIP3    H2 7900   5.980   3.187   0.143
 2646TIP3   OH2 7901   4.095   4.221   5.221
 2646TIP3    H1 7902   4.108   4.217   5.316
 2646TIP3    H2 7903   4.065   4.311   5.205
 2647TIP3   OH2 7904   6.922   3.846   0.984
 2647TIP3    H1 7905   6.830   3.826   0.964
 2647TIP3    H2 7906   6.972   3.783   0.932
 2648TIP3   OH2 7907   3.361   0.572   4.295
 2648TIP3    H1 7908   3.405   0.535   4.372
 2648TIP3    H2 7909   3.306   0.641   4.330
 2649TIP3   OH2 7910   2.972   2.767   3.718
 2649TIP3    H1 7911   2.936   2.847   3.679
 2649TIP3    H2 7912   2.911   2.746   3.789
 2650TIP3   OH2 7913   5.178   3.630   5.647
 2650TIP3    H1 7914   5.135   3.564   5.701
 2650TIP3    H2 7915   5.264   3.642   5.688
 2651TIP3   OH2 7916   5.493   0.276   0.282
 2651TIP3    H1 7917   5.476   0.245   0.193
 2651TIP3    H2 7918   5.411   0.257   0.329
 2652TIP3   OH2 7919   3.044   2.807   3.030
 2652TIP3    H1 7920   3.014   2.718   3.014
 2652TIP3    H2 7921   3.000   2.833   3.111
 2653TIP3   OH2 7922   1.965   1.045   3.062
 2653TIP3    H1 7923   1.880   1.071   3.096
 2653TIP3    H2 7924   2.028   1.096   3.112
 2654TIP3   OH2 7925   2.039   1.708   1.314
 2654TIP3    H1 7926   2.116   1.761   1.335
 2654TIP3    H2 7927   2.040   1.700   1.219
 2655TIP3   OH2 7928   6.580   4.547   1.016
 2655TIP3    H1 7929   6.663   4.551   1.062
 2655TIP3    H2 7930   6.517   4.587   1.076
 2656TIP3   OH2 7931   6.567   2.356   4.618
 2656TIP3    H1 7932   6.651   2.358   4.573
 2656TIP3    H2 7933   6.589   2.363   4.711
 2657TIP3   OH2 7934   1.379   6.376   2.486
 2657TIP3    H1 7935   1.335   6.455   2.455
 2657TIP3    H2 7936   1.308   6.313   2.500
 2658TIP3   OH2 7937   2.588   5.548   1.499
 2658TIP3    H1 7938   2.493   5.540   1.504
 2658TIP3    H2 7939   2.622   5.473   1.547
 2659TIP3   OH2 7940   7.022   3.209   5.286
 2659TIP3    H1 7941   7.058   3.215   5.375
 2659TIP3    H2 7942   7.087   3.252   5.231
 2660TIP3   OH2 7943   4.074   4.380   0.216
 2660TIP3    H1 7944   4.127   4.318   0.267
 2660TIP3    H2 7945   4.138   4.435   0.171
 2661TIP3   OH2 7946   3.825   0.146   0.239
 2661TIP3    H1 7947   3.796   0.218   0.182
 2661TIP3    H2 7948   3.915   0.169   0.262
 2662TIP3   OH2 7949   3.763   4.017   1.826
 2662TIP3    H1 7950   3.678   3.977   1.843
 2662TIP3    H2 7951   3.774   4.080   1.897
 2663TIP3   OH2 7952   5.440   4.145   3.888
 2663TIP3    H1 7953   5.376   4.137   3.959
 2663TIP3    H2 7954   5.494   4.067   3.895
 2664TIP3   OH2 7955   0.919   5.242   2.395
 2664TIP3    H1 7956   0.954   5.154   2.381
 2664TIP3    H2 7957   0.855   5.254   2.325
 2665TIP3   OH2 7958   3.583   0.765   5.066
 2665TIP3    H1 7959   3.667   0.737   5.029
 2665TIP3    H2 7960   3.606   0.815   5.144
 2666TIP3   OH2 7961   1.758   4.856   0.808
 2666TIP3    H1 7962   1.734   4.922   0.743
 2666TIP3    H2 7963   1.778   4.778   0.756
 2667TIP3   OH2 7964   4.366   0.351   1.847
 2667TIP3    H1 7965   4.313   0.404   1.906
 2667TIP3    H2 7966   4.412   0.290   1.904
 2668TIP3   OH2 7967   1.551   1.025   2.874
 2668TIP3    H1 7968   1.542   1.067   2.959
 2668TIP3    H2 7969   1.639   1.050   2.844
 2669TIP3   OH2 7970   0.232   3.588   1.482
 2669TIP3    H1 7971   0.240   3.682   1.466
 2669TIP3    H2 7972   0.151   3.579   1.531
 2670TIP3   OH2 7973   0.989   6.474   1.312
 2670TIP3    H1 7974   0.960   6.565   1.310
 2670TIP3    H2 7975   0.985   6.445   1.221
 2671TIP3   OH2 7976   6.681   2.405   3.817
 2671TIP3    H1 7977   6.723   2.320   3.831
 2671TIP3    H2 7978   6.718   2.461   3.885
 2672TIP3   OH2 7979   7.137   1.775   5.136
 2672TIP3    H1 7980   7.215   1.814   5.096
 2672TIP3    H2 7981   7.153   1.780   5.230
 2673TIP3   OH2 7982   1.033   3.826   0.601
 2673TIP3    H1 7983   1.103   3.888   0.579
 2673TIP3    H2 7984   1.061   3.787   0.683
 2674TIP3   OH2 7985   6.127   3.670   0.129
 2674TIP3    H1 7986   6.210   3.696   0.091
 2674TIP3    H2 7987   6.149   3.641   0.217
 2675TIP3   OH2 7988   0.066   1.646   3.961
 2675TIP3    H1 7989   0.086   1.660   3.868
 2675TIP3    H2 7990   0.098   1.725   4.005
 2676TIP3   OH2 7991   0.276   6.313   0.303
 2676TIP3    H1 7992   0.304   6.361   0.381
 2676TIP3    H2 7993   0.204   6.258   0.333
 2677TIP3   OH2 7994   3.127   2.498   5.420
 2677TIP3    H1 7995   3.145   2.408   5.448
 2677TIP3    H2 7996   3.067   2.489   5.347
 2678TIP3   OH2 7997   6.142   6.755   0.772
 2678TIP3    H1 7998   6.139   6.841   0.814
 2678TIP3    H2 7999   6.092   6.698   0.831
 2679TIP3   OH2 8000   3.155   6.561   0.055
 2679TIP3    H1 8001   3.233   6.533   0.102
 2679TIP3    H2 8002   3.115   6.626   0.113
 2680TIP3   OH2 8003   0.834   5.008   0.578
 2680TIP3    H1 8004   0.818   5.025   0.670
 2680TIP3    H2 8005   0.781   4.930   0.558
 2681TIP3   OH2 8006   3.413   2.715   1.714
 2681TIP3    H1 8007   3.505   2.701   1.734
 2681TIP3    H2 8008   3.372   2.629   1.726
 2682TIP3   OH2 8009   6.794   2.200   0.281
 2682TIP3    H1 8010   6.752   2.228   0.200
 2682TIP3    H2 8011   6.775   2.269   0.344
 2683TIP3   OH2 8012   3.719   4.881   1.038
 2683TIP3    H1 8013   3.722   4.788   1.019
 2683TIP3    H2 8014   3.697   4.923   0.955
 2684TIP3   OH2 8015   3.978   6.209   3.073
 2684TIP3    H1 8016   3.918   6.135   3.065
 2684TIP3    H2 8017   4.030   6.207   2.993
 2685TIP3   OH2 8018   6.952   0.552   0.413
 2685TIP3    H1 8019   7.043   0.568   0.437
 2685TIP3    H2 8020   6.944   0.457   0.409
 2686TIP3   OH2 8021   7.187   2.596   5.411
 2686TIP3    H1 8022   7.093   2.577   5.410
 2686TIP3    H2 8023   7.201   2.649   5.332
 2687TIP3   OH2 8024   5.778   4.028   2.931
 2687TIP3    H1 8025   5.761   3.976   3.010
 2687TIP3    H2 8026   5.870   4.052   2.938
 2688TIP3   OH2 8027   1.941   0.468   1.406
 2688TIP3    H1 8028   1.990   0.546   1.378
 2688TIP3    H2 8029   1.965   0.401   1.342
 2689TIP3   OH2 8030   5.432   5.203   5.083
 2689TIP3    H1 8031   5.383   5.177   5.005
 2689TIP3    H2 8032   5.467   5.122   5.118
 2690TIP3   OH2 8033   3.192   5.311   2.549
 2690TIP3    H1 8034   3.227   5.396   2.576
 2690TIP3    H2 8035   3.257   5.275   2.489
 2691TIP3   OH2 8036   2.289   1.788   0.854
 2691TIP3    H1 8037   2.302   1.883   0.857
 2691TIP3    H2 8038   2.253   1.772   0.766
 2692TIP3   OH2 8039   1.737   0.190   1.699
 2692TIP3    H1 8040   1.749   0.204   1.793
 2692TIP3    H2 8041   1.825   0.172   1.666
 2693TIP3   OH2 8042   6.509   2.289   1.726
 2693TIP3    H1 8043   6.568   2.232   1.775
 2693TIP3    H2 8044   6.432   2.235   1.708
 2694TIP3   OH2 8045   3.824   4.139   2.851
 2694TIP3    H1 8046   3.764   4.099   2.789
 2694TIP3    H2 8047   3.810   4.090   2.933
 2695TIP3   OH2 8048   0.278   1.437   2.069
 2695TIP3    H1 8049   0.253   1.383   1.995
 2695TIP3    H2 8050   0.254   1.526   2.043
 2696TIP3   OH2 8051   6.785   6.555   4.934
 2696TIP3    H1 8052   6.712   6.614   4.917
 2696TIP3    H2 8053   6.759   6.507   5.013
 2697TIP3   OH2 8054   5.466   1.391   3.977
 2697TIP3    H1 8055   5.477   1.450   3.903
 2697TIP3    H2 8056   5.373   1.367   3.974
 2698TIP3   OH2 8057   2.933   4.632   1.823
 2698TIP3    H1 8058   3.005   4.592   1.872
 2698TIP3    H2 8059   2.867   4.563   1.817
 2699TIP3   OH2 8060   1.944   3.893   1.755
 2699TIP3    H1 8061   1.870   3.946   1.785
 2699TIP3    H2 8062   2.022   3.942   1.781
 2700TIP3   OH2 8063   4.286   6.637   0.287
 2700TIP3    H1 8064   4.287   6.698   0.360
 2700TIP3    H2 8065   4.345   6.567   0.313
 2701TIP3   OH2 8066   7.180   0.277   1.536
 2701TIP3    H1 8067   7.147   0.347   1.592
 2701TIP3    H2 8068   7.266   0.308   1.507
 2702TIP3   OH2 8069   6.117   3.266   3.950
 2702TIP3    H1 8070   6.030   3.305   3.946
 2702TIP3    H2 8071   6.149   3.287   4.038
 2703TIP3   OH2 8072   2.005   5.395   3.948
 2703TIP3    H1 8073   2.051   5.465   3.900
 2703TIP3    H2 8074   2.044   5.314   3.915
 2704TIP3   OH2 8075   6.850   0.549   4.414
 2704TIP3    H1 8076   6.790   0.616   4.448
 2704TIP3    H2 8077   6.926   0.598   4.382
 2705TIP3   OH2 8078   3.328   0.958   4.622
 2705TIP3    H1 8079   3.375   1.005   4.553
 2705TIP3    H2 8080   3.357   0.867   4.614
 2706TIP3   OH2 8081   4.336   5.653   0.837
 2706TIP3    H1 8082   4.272   5.581   0.834
 2706TIP3    H2 8083   4.406   5.620   0.894
 2707TIP3   OH2 8084   6.298   2.544   1.501
 2707TIP3    H1 8085   6.248   2.625   1.492
 2707TIP3    H2 8086   6.296   2.525   1.595
 2708TIP3   OH2 8087   1.064   3.723   3.718
 2708TIP3    H1 8088   1.111   3.655   3.670
 2708TIP3    H2 8089   1.117   3.802   3.707
 2709TIP3   OH2 8090   4.687   5.051   2.317
 2709TIP3    H1 8091   4.645   5.058   2.231
 2709TIP3    H2 8092   4.703   5.142   2.343
 2710TIP3   OH2 8093   0.123   2.876   4.071
 2710TIP3    H1 8094   0.199   2.865   4.013
 2710TIP3    H2 8095   0.138   2.816   4.143
 2711TIP3   OH2 8096   6.501   3.469   0.651
 2711TIP3    H1 8097   6.581   3.418   0.658
 2711TIP3    H2 8098   6.440   3.413   0.604
 2712TIP3   OH2 8099   2.113   6.506   3.067
 2712TIP3    H1 8100   2.137   6.581   3.014
 2712TIP3    H2 8101   2.021   6.521   3.090
 2713TIP3   OH2 8102   3.337   4.130   5.426
 2713TIP3    H1 8103   3.381   4.168   5.350
 2713TIP3    H2 8104   3.255   4.095   5.392
 2714TIP3   OH2 8105   3.433   3.079   3.645
 2714TIP3    H1 8106   3.413   2.995   3.603
 2714TIP3    H2 8107   3.366   3.088   3.713
 2715TIP3   OH2 8108   4.067   1.499   0.584
 2715TIP3    H1 8109   3.982   1.477   0.545
 2715TIP3    H2 8110   4.102   1.567   0.527
 2716TIP3   OH2 8111   7.094   4.531   5.055
 2716TIP3    H1 8112   7.029   4.589   5.017
 2716TIP3    H2 8113   7.116   4.571   5.139
 2717TIP3   OH2 8114   0.877   4.273   4.723
 2717TIP3    H1 8115   0.971   4.264   4.709
 2717TIP3    H2 8116   0.858   4.213   4.795
 2718TIP3   OH2 8117   5.175   6.709   0.001
 2718TIP3    H1 8118   5.202   6.622   0.028
 2718TIP3    H2 8119   5.250   6.765   0.022
 2719TIP3   OH2 8120   3.000   4.935   2.517
 2719TIP3    H1 8121   2.956   4.851   2.530
 2719TIP3    H2 8122   3.087   4.912   2.485
 2720TIP3   OH2 8123  -0.018   0.479   0.681
 2720TIP3    H1 8124  -0.076   0.555   0.673
 2720TIP3    H2 8125   0.063   0.507   0.640
 2721TIP3   OH2 8126   6.230   0.381   2.837
 2721TIP3    H1 8127   6.158   0.329   2.800
 2721TIP3    H2 8128   6.223   0.367   2.931
 2722TIP3   OH2 8129   3.179   3.768   3.651
 2722TIP3    H1 8130   3.151   3.685   3.688
 2722TIP3    H2 8131   3.169   3.757   3.556
 2723TIP3   OH2 8132   5.720   0.359   1.683
 2723TIP3    H1 8133   5.700   0.451   1.663
 2723TIP3    H2 8134   5.807   0.361   1.723
 2724TIP3   OH2 8135   1.400   3.468   0.371
 2724TIP3    H1 8136   1.385   3.465   0.277
 2724TIP3    H2 8137   1.332   3.528   0.404
 2725TIP3   OH2 8138   6.140   6.365   4.662
 2725TIP3    H1 8139   6.164   6.416   4.739
 2725TIP3    H2 8140   6.218   6.312   4.643
 2726TIP3   OH2 8141   4.846   6.093   0.129
 2726TIP3    H1 8142   4.869   6.024   0.191
 2726TIP3    H2 8143   4.839   6.048   0.045
 2727TIP3   OH2 8144   1.357   5.368   1.472
 2727TIP3    H1 8145   1.274   5.412   1.455
 2727TIP3    H2 8146   1.361   5.298   1.406
 2728TIP3   OH2 8147   0.085   5.553   0.420
 2728TIP3    H1 8148   0.078   5.457   0.425
 2728TIP3    H2 8149  -0.004   5.582   0.401
 2729TIP3   OH2 8150   1.697   2.390   3.285
 2729TIP3    H1 8151   1.784   2.365   3.254
 2729TIP3    H2 8152   1.713   2.440   3.365
 2730TIP3   OH2 8153   4.085   5.234   3.840
 2730TIP3    H1 8154   3.992   5.227   3.860
 2730TIP3    H2 8155   4.124   5.154   3.877
 2731TIP3   OH2 8156   5.147   5.100   1.741
 2731TIP3    H1 8157   5.177   5.077   1.829
 2731TIP3    H2 8158   5.205   5.170   1.713
 2732TIP3   OH2 8159   6.020   1.681   3.277
 2732TIP3    H1 8160   6.049   1.772   3.286
 2732TIP3    H2 8161   5.936   1.686   3.231
 2733TIP3   OH2 8162   5.542   1.491   0.731
 2733TIP3    H1 8163   5.591   1.410   0.716
 2733TIP3    H2 8164   5.580   1.527   0.811
 2734TIP3   OH2 8165   4.793   1.879   3.296
 2734TIP3    H1 8166   4.843   1.844   3.370
 2734TIP3    H2 8167   4.773   1.969   3.321
 2735TIP3   OH2 8168   0.627   6.118   2.744
 2735TIP3    H1 8169   0.555   6.057   2.759
 2735TIP3    H2 8170   0.703   6.078   2.787
 2736TIP3   OH2 8171   4.168   4.843   2.012
 2736TIP3    H1 8172   4.133   4.808   1.930
 2736TIP3    H2 8173   4.222   4.773   2.047
 2737TIP3   OH2 8174   0.904   6.021   2.862
 2737TIP3    H1 8175   0.872   6.103   2.898
 2737TIP3    H2 8176   0.959   5.984   2.931
 2738TIP3   OH2 8177   4.445   4.799   4.795
 2738TIP3    H1 8178   4.487   4.719   4.764
 2738TIP3    H2 8179   4.352   4.781   4.790
 2739TIP3   OH2 8180   1.938   1.926   2.063
 2739TIP3    H1 8181   1.923   2.015   2.030
 2739TIP3    H2 8182   2.010   1.893   2.010
 2740TIP3   OH2 8183   2.940   0.071   3.392
 2740TIP3    H1 8184   3.000   0.085   3.319
 2740TIP3    H2 8185   2.918   0.159   3.422
 2741TIP3   OH2 8186   1.520   3.760   2.019
 2741TIP3    H1 8187   1.541   3.853   2.031
 2741TIP3    H2 8188   1.568   3.715   2.089
 2742TIP3   OH2 8189   2.919   4.091   1.424
 2742TIP3    H1 8190   2.982   4.034   1.467
 2742TIP3    H2 8191   2.904   4.051   1.338
 2743TIP3   OH2 8192  -0.008   1.476   2.615
 2743TIP3    H1 8193   0.050   1.418   2.566
 2743TIP3    H2 8194  -0.028   1.547   2.554
 2744TIP3   OH2 8195   6.163   5.821   1.572
 2744TIP3    H1 8196   6.074   5.849   1.592
 2744TIP3    H2 8197   6.166   5.729   1.597
 2745TIP3   OH2 8198   4.719   2.134   3.102
 2745TIP3    H1 8199   4.628   2.159   3.084
 2745TIP3    H2 8200   4.760   2.133   3.016
 2746TIP3   OH2 8201   6.273   3.640   1.858
 2746TIP3    H1 8202   6.357   3.597   1.871
 2746TIP3    H2 8203   6.251   3.677   1.943
 2747TIP3   OH2 8204   5.301   3.853   4.242
 2747TIP3    H1 8205   5.230   3.841   4.180
 2747TIP3    H2 8206   5.342   3.767   4.250
 2748TIP3   OH2 8207   2.140   2.157   1.816
 2748TIP3    H1 8208   2.169   2.198   1.735
 2748TIP3    H2 8209   2.045   2.150   1.807
 2749TIP3   OH2 8210   0.241   1.437   4.495
 2749TIP3    H1 8211   0.263   1.347   4.518
 2749TIP3    H2 8212   0.200   1.431   4.408
 2750TIP3   OH2 8213   7.016   4.529   2.102
 2750TIP3    H1 8214   6.932   4.515   2.058
 2750TIP3    H2 8215   7.001   4.605   2.159
 2751TIP3   OH2 8216   4.514   1.425   1.081
 2751TIP3    H1 8217   4.427   1.464   1.084
 2751TIP3    H2 8218   4.500   1.335   1.051
 2752TIP3   OH2 8219   1.370   0.315   2.099
 2752TIP3    H1 8220   1.446   0.298   2.156
 2752TIP3    H2 8221   1.299   0.335   2.160
 2753TIP3   OH2 8222   7.005   5.779   5.810
 2753TIP3    H1 8223   7.032   5.869   5.793
 2753TIP3    H2 8224   6.934   5.763   5.748
 2754TIP3   OH2 8225   6.327   0.715   5.269
 2754TIP3    H1 8226   6.251   0.708   5.327
 2754TIP3    H2 8227   6.402   0.714   5.328
 2755TIP3   OH2 8228   5.796   3.605   5.119
 2755TIP3    H1 8229   5.781   3.573   5.030
 2755TIP3    H2 8230   5.865   3.671   5.109
 2756TIP3   OH2 8231   5.942   3.483   3.842
 2756TIP3    H1 8232   6.002   3.519   3.777
 2756TIP3    H2 8233   5.969   3.524   3.925
 2757TIP3   OH2 8234   4.451   0.503   3.872
 2757TIP3    H1 8235   4.501   0.584   3.866
 2757TIP3    H2 8236   4.498   0.451   3.938
 2758TIP3   OH2 8237   1.628   0.290   3.327
 2758TIP3    H1 8238   1.634   0.200   3.297
 2758TIP3    H2 8239   1.588   0.338   3.255
 2759TIP3   OH2 8240   2.935   3.240   2.738
 2759TIP3    H1 8241   2.862   3.301   2.731
 2759TIP3    H2 8242   2.980   3.266   2.819
 2760TIP3   OH2 8243   2.770   2.574   2.091
 2760TIP3    H1 8244   2.810   2.500   2.045
 2760TIP3    H2 8245   2.808   2.570   2.179
 2761TIP3   OH2 8246   3.444   2.358   2.465
 2761TIP3    H1 8247   3.502   2.431   2.486
 2761TIP3    H2 8248   3.425   2.317   2.550
 2762TIP3   OH2 8249   4.840   6.653   0.339
 2762TIP3    H1 8250   4.910   6.609   0.388
 2762TIP3    H2 8251   4.881   6.677   0.255
 2763TIP3   OH2 8252   3.186   5.789   1.870
 2763TIP3    H1 8253   3.228   5.859   1.819
 2763TIP3    H2 8254   3.259   5.736   1.902
 2764TIP3   OH2 8255   4.868   4.585   5.778
 2764TIP3    H1 8256   4.956   4.549   5.790
 2764TIP3    H2 8257   4.838   4.606   5.867
 2765TIP3   OH2 8258   2.366   4.096   0.756
 2765TIP3    H1 8259   2.280   4.107   0.795
 2765TIP3    H2 8260   2.418   4.051   0.823
 2766TIP3   OH2 8261   3.008   6.029   5.663
 2766TIP3    H1 8262   2.964   5.970   5.723
 2766TIP3    H2 8263   3.075   5.975   5.621
 2767TIP3   OH2 8264   4.133   5.891   2.243
 2767TIP3    H1 8265   4.206   5.951   2.228
 2767TIP3    H2 8266   4.066   5.919   2.181
 2768TIP3   OH2 8267   1.527   3.307   0.966
 2768TIP3    H1 8268   1.451   3.318   1.024
 2768TIP3    H2 8269   1.543   3.394   0.932
 2769TIP3   OH2 8270   6.600   4.632   5.006
 2769TIP3    H1 8271   6.613   4.573   4.932
 2769TIP3    H2 8272   6.526   4.593   5.054
 2770TIP3   OH2 8273   2.544   3.024   0.729
 2770TIP3    H1 8274   2.494   2.971   0.667
 2770TIP3    H2 8275   2.597   3.082   0.675
 2771TIP3   OH2 8276   6.490   6.080   1.131
 2771TIP3    H1 8277   6.448   6.123   1.056
 2771TIP3    H2 8278   6.468   6.135   1.206
 2772TIP3   OH2 8279   2.901   5.468   4.955
 2772TIP3    H1 8280   2.946   5.550   4.976
 2772TIP3    H2 8281   2.808   5.493   4.952
 2773TIP3   OH2 8282   1.503   4.034   3.195
 2773TIP3    H1 8283   1.495   3.939   3.202
 2773TIP3    H2 8284   1.461   4.068   3.274
 2774TIP3   OH2 8285   4.733   1.684   1.728
 2774TIP3    H1 8286   4.789   1.606   1.725
 2774TIP3    H2 8287   4.787   1.753   1.690
 2775TIP3   OH2 8288   2.805   1.416   3.039
 2775TIP3    H1 8289   2.753   1.408   2.959
 2775TIP3    H2 8290   2.857   1.336   3.042
 2776TIP3   OH2 8291   5.560   1.398   3.540
 2776TIP3    H1 8292   5.481   1.345   3.552
 2776TIP3    H2 8293   5.603   1.396   3.625
 2777TIP3   OH2 8294   5.081   3.361   0.845
 2777TIP3    H1 8295   5.019   3.352   0.773
 2777TIP3    H2 8296   5.164   3.329   0.810
 2778TIP3   OH2 8297   5.282   1.066   2.199
 2778TIP3    H1 8298   5.345   1.130   2.168
 2778TIP3    H2 8299   5.298   1.059   2.293
 2779TIP3   OH2 8300   2.184   6.767   2.966
 2779TIP3    H1 8301   2.122   6.809   2.905
 2779TIP3    H2 8302   2.250   6.728   2.909
 2780TIP3   OH2 8303   0.101   4.193   2.220
 2780TIP3    H1 8304   0.160   4.256   2.176
 2780TIP3    H2 8305   0.021   4.243   2.236
 2781TIP3   OH2 8306   0.087   6.174   2.647
 2781TIP3    H1 8307   0.125   6.087   2.641
 2781TIP3    H2 8308   0.157   6.233   2.618
 2782TIP3   OH2 8309   3.369   1.386   3.790
 2782TIP3    H1 8310   3.319   1.368   3.870
 2782TIP3    H2 8311   3.307   1.372   3.719
 2783TIP3   OH2 8312   4.526   2.750   4.603
 2783TIP3    H1 8313   4.493   2.741   4.514
 2783TIP3    H2 8314   4.477   2.686   4.654
 2784TIP3   OH2 8315   2.529   2.670   5.252
 2784TIP3    H1 8316   2.534   2.579   5.282
 2784TIP3    H2 8317   2.520   2.721   5.332
 2785TIP3   OH2 8318   4.675   5.975   5.638
 2785TIP3    H1 8319   4.734   6.023   5.580
 2785TIP3    H2 8320   4.590   5.981   5.594
 2786TIP3   OH2 8321   1.201   3.660   2.579
 2786TIP3    H1 8322   1.230   3.581   2.624
 2786TIP3    H2 8323   1.166   3.716   2.649
 2787TIP3   OH2 8324   1.190   1.722   3.496
 2787TIP3    H1 8325   1.214   1.772   3.574
 2787TIP3    H2 8326   1.134   1.781   3.446
 2788TIP3   OH2 8327   1.270   3.287   2.227
 2788TIP3    H1 8328   1.349   3.257   2.183
 2788TIP3    H2 8329   1.206   3.217   2.213
 2789TIP3   OH2 8330   3.696   5.882   0.860
 2789TIP3    H1 8331   3.691   5.965   0.812
 2789TIP3    H2 8332   3.735   5.906   0.944
 2790TIP3   OH2 8333   4.297   5.776   1.989
 2790TIP3    H1 8334   4.374   5.719   1.987
 2790TIP3    H2 8335   4.315   5.842   1.922
 2791TIP3   OH2 8336   2.207   1.840   2.008
 2791TIP3    H1 8337   2.179   1.798   2.090
 2791TIP3    H2 8338   2.296   1.871   2.026
 2792TIP3   OH2 8339   6.842   4.388   4.337
 2792TIP3    H1 8340   6.761   4.365   4.292
 2792TIP3    H2 8341   6.834   4.482   4.355
 2793TIP3   OH2 8342   2.458   5.775   2.929
 2793TIP3    H1 8343   2.521   5.845   2.913
 2793TIP3    H2 8344   2.395   5.814   2.990
 2794TIP3   OH2 8345   0.163   6.198   0.807
 2794TIP3    H1 8346   0.069   6.210   0.789
 2794TIP3    H2 8347   0.203   6.280   0.779
 2795TIP3   OH2 8348   6.051   5.198   0.628
 2795TIP3    H1 8349   6.095   5.191   0.713
 2795TIP3    H2 8350   5.987   5.267   0.640
 2796TIP3   OH2 8351   5.197   2.914   1.573
 2796TIP3    H1 8352   5.182   2.987   1.513
 2796TIP3    H2 8353   5.196   2.837   1.517
 2797TIP3   OH2 8354   6.314   3.995   4.484
 2797TIP3    H1 8355   6.361   3.953   4.412
 2797TIP3    H2 8356   6.223   3.999   4.455
 2798TIP3   OH2 8357   6.371   2.152   5.816
 2798TIP3    H1 8358   6.379   2.115   5.728
 2798TIP3    H2 8359   6.321   2.086   5.865
 2799TIP3   OH2 8360   3.783   1.656   4.773
 2799TIP3    H1 8361   3.779   1.560   4.770
 2799TIP3    H2 8362   3.800   1.682   4.683
 2800TIP3   OH2 8363   4.144   0.343   5.694
 2800TIP3    H1 8364   4.084   0.353   5.620
 2800TIP3    H2 8365   4.182   0.429   5.706
 2801TIP3   OH2 8366   0.704   0.250   0.227
 2801TIP3    H1 8367   0.757   0.294   0.161
 2801TIP3    H2 8368   0.661   0.321   0.275
 2802TIP3   OH2 8369   4.777   0.520   2.949
 2802TIP3    H1 8370   4.686   0.541   2.928
 2802TIP3    H2 8371   4.771   0.461   3.024
 2803TIP3   OH2 8372   3.257   1.172   3.183
 2803TIP3    H1 8373   3.311   1.248   3.160
 2803TIP3    H2 8374   3.253   1.121   3.103
 2804TIP3   OH2 8375   0.619   2.257   3.337
 2804TIP3    H1 8376   0.705   2.220   3.318
 2804TIP3    H2 8377   0.599   2.313   3.262
 2805TIP3   OH2 8378   5.825   1.021   4.559
 2805TIP3    H1 8379   5.843   1.033   4.466
 2805TIP3    H2 8380   5.883   0.950   4.586
 2806TIP3   OH2 8381   0.679   5.766   1.681
 2806TIP3    H1 8382   0.641   5.849   1.707
 2806TIP3    H2 8383   0.728   5.737   1.758
 2807TIP3   OH2 8384   6.277   3.798   2.652
 2807TIP3    H1 8385   6.310   3.802   2.742
 2807TIP3    H2 8386   6.259   3.889   2.629
 2808TIP3   OH2 8387   4.301   1.361   4.431
 2808TIP3    H1 8388   4.264   1.401   4.509
 2808TIP3    H2 8389   4.296   1.267   4.448
 2809TIP3   OH2 8390   4.307   1.646   4.588
 2809TIP3    H1 8391   4.233   1.701   4.617
 2809TIP3    H2 8392   4.293   1.563   4.634
 2810TIP3   OH2 8393   6.794   3.565   3.454
 2810TIP3    H1 8394   6.733   3.513   3.507
 2810TIP3    H2 8395   6.793   3.652   3.494
 2811TIP3   OH2 8396   0.429   2.460   5.017
 2811TIP3    H1 8397   0.511   2.455   5.066
 2811TIP3    H2 8398   0.452   2.429   4.929
 2812TIP3   OH2 8399   1.205   1.054   1.076
 2812TIP3    H1 8400   1.136   1.024   1.017
 2812TIP3    H2 8401   1.254   0.975   1.098
 2813TIP3   OH2 8402   3.835   0.266   1.194
 2813TIP3    H1 8403   3.782   0.344   1.182
 2813TIP3    H2 8404   3.799   0.224   1.272
 2814TIP3   OH2 8405   1.575   0.190   0.991
 2814TIP3    H1 8406   1.638   0.200   0.919
 2814TIP3    H2 8407   1.630   0.176   1.069
 2815TIP3   OH2 8408   2.079   1.290   1.171
 2815TIP3    H1 8409   2.143   1.357   1.148
 2815TIP3    H2 8410   2.023   1.332   1.236
 2816TIP3   OH2 8411   3.067   4.188   3.755
 2816TIP3    H1 8412   3.041   4.136   3.679
 2816TIP3    H2 8413   3.136   4.135   3.797
 2817TIP3   OH2 8414   0.551   2.663   2.628
 2817TIP3    H1 8415   0.470   2.613   2.621
 2817TIP3    H2 8416   0.598   2.622   2.701
 2818TIP3   OH2 8417   7.146   6.765   5.815
 2818TIP3    H1 8418   7.218   6.710   5.845
 2818TIP3    H2 8419   7.070   6.707   5.811
 2819TIP3   OH2 8420   6.681   6.286   3.515
 2819TIP3    H1 8421   6.686   6.191   3.503
 2819TIP3    H2 8422   6.664   6.298   3.608
 2820TIP3   OH2 8423   0.942   5.952   1.558
 2820TIP3    H1 8424   0.886   5.927   1.485
 2820TIP3    H2 8425   1.025   5.976   1.517
 2821TIP3   OH2 8426   1.687   5.267   4.350
 2821TIP3    H1 8427   1.718   5.330   4.415
 2821TIP3    H2 8428   1.634   5.320   4.290
 2822TIP3   OH2 8429   1.911   5.110   3.633
 2822TIP3    H1 8430   1.934   5.195   3.671
 2822TIP3    H2 8431   1.942   5.046   3.696
 2823TIP3   OH2 8432   1.128   6.114   3.023
 2823TIP3    H1 8433   1.191   6.161   2.968
 2823TIP3    H2 8434   1.112   6.172   3.097
 2824TIP3   OH2 8435   0.955   3.898   2.027
 2824TIP3    H1 8436   1.036   3.866   2.067
 2824TIP3    H2 8437   0.891   3.828   2.044
 2825TIP3   OH2 8438   3.658   6.555   0.273
 2825TIP3    H1 8439   3.617   6.493   0.333
 2825TIP3    H2 8440   3.631   6.641   0.304
 2826TIP3   OH2 8441   4.626   1.286   4.351
 2826TIP3    H1 8442   4.614   1.261   4.443
 2826TIP3    H2 8443   4.657   1.377   4.355
 2827TIP3   OH2 8444   3.404   3.766   0.864
 2827TIP3    H1 8445   3.336   3.794   0.926
 2827TIP3    H2 8446   3.391   3.823   0.787
 2828TIP3   OH2 8447   0.797   2.452   2.698
 2828TIP3    H1 8448   0.714   2.405   2.702
 2828TIP3    H2 8449   0.861   2.385   2.671
 2829TIP3   OH2 8450   0.687   1.079   5.553
 2829TIP3    H1 8451   0.747   1.051   5.484
 2829TIP3    H2 8452   0.677   1.174   5.539
 2830TIP3   OH2 8453   4.246   4.896   0.359
 2830TIP3    H1 8454   4.252   4.895   0.263
 2830TIP3    H2 8455   4.164   4.942   0.377
 2831TIP3   OH2 8456   7.163   0.464   4.891
 2831TIP3    H1 8457   7.145   0.461   4.797
 2831TIP3    H2 8458   7.255   0.489   4.897
 2832TIP3   OH2 8459   1.259   2.434   2.664
 2832TIP3    H1 8460   1.278   2.527   2.655
 2832TIP3    H2 8461   1.199   2.428   2.738
 2833TIP3   OH2 8462   5.533   6.704   2.242
 2833TIP3    H1 8463   5.601   6.694   2.308
 2833TIP3    H2 8464   5.493   6.617   2.235
 2834TIP3   OH2 8465   1.912   4.737   2.210
 2834TIP3    H1 8466   1.841   4.769   2.266
 2834TIP3    H2 8467   1.867   4.711   2.129
 2835TIP3   OH2 8468   0.249   0.165   2.836
 2835TIP3    H1 8469   0.193   0.205   2.770
 2835TIP3    H2 8470   0.199   0.172   2.917
 2836TIP3   OH2 8471   0.567   1.926   4.828
 2836TIP3    H1 8472   0.527   1.916   4.741
 2836TIP3    H2 8473   0.661   1.930   4.810
 2837TIP3   OH2 8474   3.602   5.114   2.179
 2837TIP3    H1 8475   3.530   5.053   2.161
 2837TIP3    H2 8476   3.610   5.166   2.100
 2838TIP3   OH2 8477   0.006   3.909   4.466
 2838TIP3    H1 8478   0.050   3.918   4.550
 2838TIP3    H2 8479   0.019   3.994   4.424
 2839TIP3   OH2 8480   3.400   4.739   0.631
 2839TIP3    H1 8481   3.435   4.704   0.549
 2839TIP3    H2 8482   3.307   4.718   0.629
 2840TIP3   OH2 8483   3.431   3.060   2.341
 2840TIP3    H1 8484   3.451   3.123   2.272
 2840TIP3    H2 8485   3.336   3.057   2.345
 2841TIP3   OH2 8486   5.775   1.660   4.353
 2841TIP3    H1 8487   5.785   1.579   4.304
 2841TIP3    H2 8488   5.681   1.665   4.374
 2842TIP3   OH2 8489   0.840   5.867   0.179
 2842TIP3    H1 8490   0.860   5.792   0.123
 2842TIP3    H2 8491   0.747   5.856   0.200
 2843TIP3   OH2 8492   2.549   4.136   0.328
 2843TIP3    H1 8493   2.549   4.074   0.254
 2843TIP3    H2 8494   2.637   4.173   0.328
 2844TIP3   OH2 8495   0.390   3.602   5.724
 2844TIP3    H1 8496   0.303   3.635   5.701
 2844TIP3    H2 8497   0.399   3.522   5.672
 2845TIP3   OH2 8498   3.321   6.180   3.148
 2845TIP3    H1 8499   3.292   6.124   3.076
 2845TIP3    H2 8500   3.245   6.235   3.167
 2846TIP3   OH2 8501   3.311   3.343   2.695
 2846TIP3    H1 8502   3.261   3.424   2.683
 2846TIP3    H2 8503   3.370   3.339   2.620
 2847TIP3   OH2 8504   1.115   0.407   3.343
 2847TIP3    H1 8505   1.131   0.487   3.292
 2847TIP3    H2 8506   1.048   0.432   3.406
 2848TIP3   OH2 8507   7.048   3.898   4.186
 2848TIP3    H1 8508   7.132   3.874   4.148
 2848TIP3    H2 8509   7.037   3.991   4.163
 2849TIP3   OH2 8510   1.655   3.518   4.027
 2849TIP3    H1 8511   1.599   3.443   4.049
 2849TIP3    H2 8512   1.594   3.591   4.015
 2850TIP3   OH2 8513   1.735   4.562   3.056
 2850TIP3    H1 8514   1.805   4.584   3.118
 2850TIP3    H2 8515   1.773   4.583   2.970
 2851TIP3   OH2 8516   0.645   6.456   5.436
 2851TIP3    H1 8517   0.606   6.370   5.449
 2851TIP3    H2 8518   0.655   6.492   5.524
 2852TIP3   OH2 8519   1.951   5.581   0.940
 2852TIP3    H1 8520   2.018   5.614   0.999
 2852TIP3    H2 8521   1.868   5.602   0.985
 2853TIP3   OH2 8522   0.672   0.289   1.681
 2853TIP3    H1 8523   0.588   0.334   1.679
 2853TIP3    H2 8524   0.697   0.281   1.589
 2854TIP3   OH2 8525   6.042   0.684   5.739
 2854TIP3    H1 8526   6.021   0.610   5.795
 2854TIP3    H2 8527   6.105   0.736   5.789
 2855TIP3   OH2 8528   4.665   3.695   4.384
 2855TIP3    H1 8529   4.698   3.608   4.363
 2855TIP3    H2 8530   4.654   3.694   4.479
 2856TIP3   OH2 8531   1.221   2.274   5.655
 2856TIP3    H1 8532   1.174   2.354   5.679
 2856TIP3    H2 8533   1.167   2.233   5.588
 2857TIP3   OH2 8534   2.000   0.605   2.281
 2857TIP3    H1 8535   1.985   0.610   2.375
 2857TIP3    H2 8536   1.976   0.691   2.248
 2858TIP3   OH2 8537   2.408   5.773   5.103
 2858TIP3    H1 8538   2.383   5.787   5.195
 2858TIP3    H2 8539   2.492   5.817   5.094
 2859TIP3   OH2 8540   0.045   1.719   0.642
 2859TIP3    H1 8541   0.083   1.718   0.554
 2859TIP3    H2 8542   0.118   1.744   0.699
 2860TIP3   OH2 8543   6.544   0.879   0.578
 2860TIP3    H1 8544   6.578   0.929   0.503
 2860TIP3    H2 8545   6.619   0.828   0.609
 2861TIP3   OH2 8546   2.870   0.431   3.265
 2861TIP3    H1 8547   2.898   0.379   3.190
 2861TIP3    H2 8548   2.895   0.520   3.243
 2862TIP3   OH2 8549   3.043   3.538   3.237
 2862TIP3    H1 8550   3.082   3.451   3.245
 2862TIP3    H2 8551   2.949   3.521   3.229
 2863TIP3   OH2 8552   7.109   0.488   5.609
 2863TIP3    H1 8553   7.172   0.434   5.561
 2863TIP3    H2 8554   7.092   0.438   5.689
 2864TIP3   OH2 8555   2.257   3.440   4.395
 2864TIP3    H1 8556   2.298   3.469   4.476
 2864TIP3    H2 8557   2.318   3.467   4.326
 2865TIP3   OH2 8558   4.522   4.985   2.670
 2865TIP3    H1 8559   4.482   4.905   2.635
 2865TIP3    H2 8560   4.500   5.053   2.606
 2866TIP3   OH2 8561   0.952   5.945   0.805
 2866TIP3    H1 8562   0.929   5.909   0.891
 2866TIP3    H2 8563   0.991   5.872   0.757
 2867TIP3   OH2 8564   1.412   5.956   3.690
 2867TIP3    H1 8565   1.323   5.989   3.675
 2867TIP3    H2 8566   1.466   6.007   3.629
 2868TIP3   OH2 8567   5.130   4.836   2.175
 2868TIP3    H1 8568   5.044   4.846   2.133
 2868TIP3    H2 8569   5.178   4.778   2.117
 2869TIP3   OH2 8570   6.500   6.334   1.445
 2869TIP3    H1 8571   6.443   6.257   1.446
 2869TIP3    H2 8572   6.507   6.357   1.353
 2870TIP3   OH2 8573   7.133   2.877   1.492
 2870TIP3    H1 8574   7.091   2.791   1.505
 2870TIP3    H2 8575   7.168   2.873   1.403
 2871TIP3   OH2 8576   5.240   3.037   4.274
 2871TIP3    H1 8577   5.239   3.099   4.201
 2871TIP3    H2 8578   5.317   3.063   4.326
 2872TIP3   OH2 8579   7.028   3.114   2.898
 2872TIP3    H1 8580   7.097   3.063   2.855
 2872TIP3    H2 8581   7.015   3.190   2.840
 2873TIP3   OH2 8582   5.475   0.701   4.332
 2873TIP3    H1 8583   5.416   0.718   4.405
 2873TIP3    H2 8584   5.501   0.610   4.343
 2874TIP3   OH2 8585   4.110   1.248   4.905
 2874TIP3    H1 8586   4.051   1.241   4.980
 2874TIP3    H2 8587   4.093   1.168   4.854
 2875TIP3   OH2 8588   1.852   0.290   0.574
 2875TIP3    H1 8589   1.842   0.385   0.580
 2875TIP3    H2 8590   1.836   0.258   0.662
 2876TIP3   OH2 8591   1.859   3.335   5.004
 2876TIP3    H1 8592   1.803   3.386   4.946
 2876TIP3    H2 8593   1.933   3.392   5.022
 2877TIP3   OH2 8594   5.417   5.404   2.905
 2877TIP3    H1 8595   5.358   5.425   2.977
 2877TIP3    H2 8596   5.363   5.412   2.827
 2878TIP3   OH2 8597   4.300   4.792   3.058
 2878TIP3    H1 8598   4.281   4.735   2.984
 2878TIP3    H2 8599   4.392   4.816   3.048
 2879TIP3   OH2 8600   2.333   0.417   4.894
 2879TIP3    H1 8601   2.388   0.454   4.825
 2879TIP3    H2 8602   2.257   0.475   4.897
 2880TIP3   OH2 8603   5.825   3.297   4.578
 2880TIP3    H1 8604   5.730   3.293   4.575
 2880TIP3    H2 8605   5.844   3.358   4.649
 2881TIP3   OH2 8606   2.390   2.393   0.585
 2881TIP3    H1 8607   2.317   2.379   0.524
 2881TIP3    H2 8608   2.452   2.447   0.537
 2882TIP3   OH2 8609   4.236   0.718   0.592
 2882TIP3    H1 8610   4.161   0.752   0.641
 2882TIP3    H2 8611   4.198   0.658   0.528
 2883TIP3   OH2 8612   2.174   4.190   5.394
 2883TIP3    H1 8613   2.101   4.251   5.394
 2883TIP3    H2 8614   2.136   4.106   5.369
 2884TIP3   OH2 8615   2.169   3.442   0.009
 2884TIP3    H1 8616   2.224   3.459   0.086
 2884TIP3    H2 8617   2.210   3.366  -0.032
 2885TIP3   OH2 8618   4.388   5.111   0.488
 2885TIP3    H1 8619   4.303   5.154   0.483
 2885TIP3    H2 8620   4.374   5.025   0.450
 2886TIP3   OH2 8621   3.504   6.593   3.053
 2886TIP3    H1 8622   3.448   6.606   3.130
 2886TIP3    H2 8623   3.454   6.535   2.996
 2887TIP3   OH2 8624   6.839   3.795   0.303
 2887TIP3    H1 8625   6.836   3.841   0.387
 2887TIP3    H2 8626   6.897   3.720   0.319
 2888TIP3   OH2 8627   3.525   0.973   3.915
 2888TIP3    H1 8628   3.608   0.937   3.945
 2888TIP3    H2 8629   3.475   0.898   3.884
 2889TIP3   OH2 8630   5.501   0.155   3.274
 2889TIP3    H1 8631   5.462   0.238   3.302
 2889TIP3    H2 8632   5.494   0.155   3.179
 2890TIP3   OH2 8633   7.025   6.302   1.988
 2890TIP3    H1 8634   7.005   6.371   1.926
 2890TIP3    H2 8635   7.068   6.234   1.936
 2891TIP3   OH2 8636   5.754   4.625   2.424
 2891TIP3    H1 8637   5.837   4.591   2.389
 2891TIP3    H2 8638   5.743   4.579   2.508
 2892TIP3   OH2 8639   1.435   4.183   5.339
 2892TIP3    H1 8640   1.450   4.204   5.247
 2892TIP3    H2 8641   1.514   4.137   5.367
 2893TIP3   OH2 8642   3.705   2.114   3.610
 2893TIP3    H1 8643   3.631   2.131   3.668
 2893TIP3    H2 8644   3.670   2.055   3.543
 2894TIP3   OH2 8645   6.116   2.323   2.349
 2894TIP3    H1 8646   6.209   2.307   2.365
 2894TIP3    H2 8647   6.071   2.260   2.405
 2895TIP3   OH2 8648   4.652   0.114   2.368
 2895TIP3    H1 8649   4.604   0.047   2.319
 2895TIP3    H2 8650   4.649   0.084   2.459
 2896TIP3   OH2 8651   1.976   6.399   1.516
 2896TIP3    H1 8652   2.011   6.488   1.517
 2896TIP3    H2 8653   2.037   6.350   1.460
 2897TIP3   OH2 8654   3.308   2.507   0.703
 2897TIP3    H1 8655   3.325   2.585   0.756
 2897TIP3    H2 8656   3.240   2.533   0.642
 2898TIP3   OH2 8657   5.955   2.793   4.776
 2898TIP3    H1 8658   5.938   2.872   4.724
 2898TIP3    H2 8659   5.947   2.821   4.867
 2899TIP3   OH2 8660   2.701   3.478   3.514
 2899TIP3    H1 8661   2.723   3.545   3.579
 2899TIP3    H2 8662   2.785   3.439   3.490
 2900TIP3   OH2 8663   1.751   4.550   4.192
 2900TIP3    H1 8664   1.818   4.536   4.125
 2900TIP3    H2 8665   1.792   4.523   4.273
 2901TIP3   OH2 8666   3.353   6.256   2.545
 2901TIP3    H1 8667   3.383   6.165   2.534
 2901TIP3    H2 8668   3.258   6.249   2.552
 2902TIP3   OH2 8669   3.711   2.973   1.077
 2902TIP3    H1 8670   3.627   3.017   1.069
 2902TIP3    H2 8671   3.768   3.021   1.016
 2903TIP3   OH2 8672   0.173   4.535   1.739
 2903TIP3    H1 8673   0.255   4.563   1.780
 2903TIP3    H2 8674   0.113   4.521   1.812
 2904TIP3   OH2 8675   3.558   1.354   2.325
 2904TIP3    H1 8676   3.631   1.347   2.264
 2904TIP3    H2 8677   3.487   1.304   2.285
 2905TIP3   OH2 8678   3.431   0.206   4.903
 2905TIP3    H1 8679   3.502   0.221   4.840
 2905TIP3    H2 8680   3.351   0.214   4.850
 2906TIP3   OH2 8681   2.653   0.150   2.949
 2906TIP3    H1 8682   2.725   0.198   2.990
 2906TIP3    H2 8683   2.684   0.131   2.861
 2907TIP3   OH2 8684   0.248   3.871   2.108
 2907TIP3    H1 8685   0.269   3.892   2.199
 2907TIP3    H2 8686   0.291   3.939   2.057
 2908TIP3   OH2 8687   7.181   4.286   4.990
 2908TIP3    H1 8688   7.112   4.219   4.988
 2908TIP3    H2 8689   7.134   4.368   5.005
 2909TIP3   OH2 8690   1.594   5.712   0.430
 2909TIP3    H1 8691   1.589   5.781   0.364
 2909TIP3    H2 8692   1.688   5.695   0.440
 2910TIP3   OH2 8693   6.402   4.484   5.763
 2910TIP3    H1 8694   6.435   4.492   5.674
 2910TIP3    H2 8695   6.479   4.459   5.815
 2911TIP3   OH2 8696   2.585   2.129   2.965
 2911TIP3    H1 8697   2.600   2.065   3.034
 2911TIP3    H2 8698   2.512   2.093   2.915
 2912TIP3   OH2 8699   1.478   3.718   4.113
 2912TIP3    H1 8700   1.400   3.743   4.063
 2912TIP3    H2 8701   1.442   3.674   4.191
 2913TIP3   OH2 8702   3.864   5.856   5.295
 2913TIP3    H1 8703   3.883   5.812   5.378
 2913TIP3    H2 8704   3.781   5.901   5.311
 2914TIP3   OH2 8705   3.009   0.601   2.604
 2914TIP3    H1 8706   3.085   0.554   2.638
 2914TIP3    H2 8707   3.019   0.598   2.509
 2915TIP3   OH2 8708   0.092   2.277   5.291
 2915TIP3    H1 8709   0.028   2.216   5.255
 2915TIP3    H2 8710   0.175   2.249   5.252
 2916TIP3   OH2 8711   0.921   1.426   1.889
 2916TIP3    H1 8712   0.928   1.510   1.846
 2916TIP3    H2 8713   0.962   1.364   1.829
 2917TIP3   OH2 8714   4.533   4.583   4.643
 2917TIP3    H1 8715   4.562   4.503   4.599
 2917TIP3    H2 8716   4.453   4.609   4.597
 2918TIP3   OH2 8717   5.342   1.583   0.315
 2918TIP3    H1 8718   5.402   1.635   0.369
 2918TIP3    H2 8719   5.381   1.496   0.313
 2919TIP3   OH2 8720   5.225   5.822   1.178
 2919TIP3    H1 8721   5.282   5.884   1.131
 2919TIP3    H2 8722   5.174   5.779   1.109
 2920TIP3   OH2 8723   2.076   2.068   4.000
 2920TIP3    H1 8724   2.030   2.055   3.917
 2920TIP3    H2 8725   2.065   1.984   4.046
 2921TIP3   OH2 8726   2.303   1.677   5.213
 2921TIP3    H1 8727   2.214   1.677   5.248
 2921TIP3    H2 8728   2.359   1.670   5.290
 2922TIP3   OH2 8729   1.348   6.600   5.476
 2922TIP3    H1 8730   1.253   6.589   5.466
 2922TIP3    H2 8731   1.386   6.526   5.428
 2923TIP3   OH2 8732   1.616   0.522   3.533
 2923TIP3    H1 8733   1.707   0.549   3.547
 2923TIP3    H2 8734   1.610   0.509   3.439
 2924TIP3   OH2 8735   1.188   3.567   1.137
 2924TIP3    H1 8736   1.114   3.509   1.156
 2924TIP3    H2 8737   1.154   3.655   1.155
 2925TIP3   OH2 8738   4.262   3.271   3.332
 2925TIP3    H1 8739   4.228   3.195   3.285
 2925TIP3    H2 8740   4.285   3.237   3.419
 2926TIP3   OH2 8741   6.647   6.439   5.658
 2926TIP3    H1 8742   6.690   6.376   5.716
 2926TIP3    H2 8743   6.718   6.476   5.605
 2927TIP3   OH2 8744   6.993   1.406   2.197
 2927TIP3    H1 8745   7.013   1.441   2.110
 2927TIP3    H2 8746   6.923   1.462   2.230
 2928TIP3   OH2 8747   4.647   1.051   3.587
 2928TIP3    H1 8748   4.741   1.049   3.605
 2928TIP3    H2 8749   4.639   1.106   3.509
 2929TIP3   OH2 8750   6.873   0.475   0.811
 2929TIP3    H1 8751   6.817   0.461   0.734
 2929TIP3    H2 8752   6.889   0.569   0.813
 2930TIP3   OH2 8753   2.555   1.104   0.845
 2930TIP3    H1 8754   2.477   1.151   0.875
 2930TIP3    H2 8755   2.523   1.016   0.825
 2931TIP3   OH2 8756   4.075   2.185   3.726
 2931TIP3    H1 8757   4.068   2.090   3.735
 2931TIP3    H2 8758   4.097   2.216   3.814
 2932TIP3   OH2 8759   3.636   4.809   1.464
 2932TIP3    H1 8760   3.684   4.871   1.408
 2932TIP3    H2 8761   3.628   4.730   1.410
 2933TIP3   OH2 8762   3.421   2.363   1.550
 2933TIP3    H1 8763   3.376   2.337   1.630
 2933TIP3    H2 8764   3.514   2.353   1.570
 2934TIP3   OH2 8765   3.661   0.561   0.593
 2934TIP3    H1 8766   3.713   0.487   0.563
 2934TIP3    H2 8767   3.595   0.522   0.651
 2935TIP3   OH2 8768   6.385   5.267   5.921
 2935TIP3    H1 8769   6.406   5.357   5.896
 2935TIP3    H2 8770   6.293   5.269   5.945
 2936TIP3   OH2 8771   4.789   5.841   4.674
 2936TIP3    H1 8772   4.697   5.866   4.678
 2936TIP3    H2 8773   4.824   5.866   4.759
 2937TIP3   OH2 8774   6.778   1.654   2.256
 2937TIP3    H1 8775   6.763   1.737   2.211
 2937TIP3    H2 8776   6.714   1.594   2.219
 2938TIP3   OH2 8777   5.763   4.058   0.640
 2938TIP3    H1 8778   5.762   4.046   0.545
 2938TIP3    H2 8779   5.785   4.150   0.652
 2939TIP3   OH2 8780   2.172   5.415   0.663
 2939TIP3    H1 8781   2.077   5.418   0.672
 2939TIP3    H2 8782   2.202   5.365   0.740
 2940TIP3   OH2 8783   0.227   5.822   4.768
 2940TIP3    H1 8784   0.272   5.741   4.743
 2940TIP3    H2 8785   0.160   5.834   4.701
 2941TIP3   OH2 8786   2.190   3.341   4.774
 2941TIP3    H1 8787   2.258   3.377   4.717
 2941TIP3    H2 8788   2.239   3.302   4.847
 2942TIP3   OH2 8789   0.340   5.285   3.488
 2942TIP3    H1 8790   0.393   5.262   3.565
 2942TIP3    H2 8791   0.324   5.379   3.498
 2943TIP3   OH2 8792   1.128   2.133   4.993
 2943TIP3    H1 8793   1.112   2.133   5.088
 2943TIP3    H2 8794   1.136   2.040   4.971
 2944TIP3   OH2 8795   7.205   3.129   0.005
 2944TIP3    H1 8796   7.212   3.189   0.079
 2944TIP3    H2 8797   7.117   3.145  -0.030
 2945TIP3   OH2 8798   6.186   6.421   3.133
 2945TIP3    H1 8799   6.162   6.499   3.084
 2945TIP3    H2 8800   6.122   6.416   3.204
 2946TIP3   OH2 8801   4.510   3.537   1.975
 2946TIP3    H1 8802   4.432   3.483   1.959
 2946TIP3    H2 8803   4.515   3.544   2.070
 2947TIP3   OH2 8804   3.079   0.401   4.242
 2947TIP3    H1 8805   3.131   0.452   4.179
 2947TIP3    H2 8806   3.024   0.465   4.285
 2948TIP3   OH2 8807   0.504   0.698   1.481
 2948TIP3    H1 8808   0.523   0.639   1.555
 2948TIP3    H2 8809   0.423   0.742   1.506
 2949TIP3   OH2 8810   5.283   2.359   3.842
 2949TIP3    H1 8811   5.212   2.297   3.827
 2949TIP3    H2 8812   5.357   2.324   3.794
 2950TIP3   OH2 8813   3.321   6.295   4.373
 2950TIP3    H1 8814   3.331   6.246   4.291
 2950TIP3    H2 8815   3.289   6.381   4.345
 2951TIP3   OH2 8816   4.003   4.845   1.657
 2951TIP3    H1 8817   3.931   4.830   1.719
 2951TIP3    H2 8818   4.019   4.939   1.660
 2952TIP3   OH2 8819   5.009   0.896   3.860
 2952TIP3    H1 8820   5.035   0.822   3.804
 2952TIP3    H2 8821   5.037   0.870   3.948
 2953TIP3   OH2 8822   5.912   4.114   0.941
 2953TIP3    H1 8823   5.936   4.174   1.012
 2953TIP3    H2 8824   5.835   4.153   0.901
 2954TIP3   OH2 8825   3.716   4.820   2.111
 2954TIP3    H1 8826   3.633   4.859   2.086
 2954TIP3    H2 8827   3.783   4.880   2.078
 2955TIP3   OH2 8828   5.532   6.549   5.179
 2955TIP3    H1 8829   5.496   6.587   5.099
 2955TIP3    H2 8830   5.547   6.624   5.236
 2956TIP3   OH2 8831   2.913   6.721   3.862
 2956TIP3    H1 8832   2.901   6.726   3.768
 2956TIP3    H2 8833   2.853   6.787   3.897
 2957TIP3   OH2 8834   0.819   3.468   2.099
 2957TIP3    H1 8835   0.891   3.429   2.149
 2957TIP3    H2 8836   0.761   3.505   2.165
 2958TIP3   OH2 8837   0.364   3.667   1.038
 2958TIP3    H1 8838   0.364   3.750   0.989
 2958TIP3    H2 8839   0.282   3.624   1.011
 2959TIP3   OH2 8840   4.982   1.241   4.147
 2959TIP3    H1 8841   4.903   1.196   4.118
 2959TIP3    H2 8842   4.995   1.212   4.237
 2960TIP3   OH2 8843   4.978   2.473   3.344
 2960TIP3    H1 8844   4.886   2.481   3.320
 2960TIP3    H2 8845   4.986   2.384   3.380
 2961TIP3   OH2 8846   5.240   3.399   1.633
 2961TIP3    H1 8847   5.325   3.391   1.677
 2961TIP3    H2 8848   5.261   3.396   1.540
 2962TIP3   OH2 8849   0.528   4.708   2.408
 2962TIP3    H1 8850   0.538   4.750   2.493
 2962TIP3    H2 8851   0.435   4.685   2.403
 2963TIP3   OH2 8852   3.562   2.334   3.792
 2963TIP3    H1 8853   3.475   2.352   3.829
 2963TIP3    H2 8854   3.552   2.354   3.699
 2964TIP3   OH2 8855   5.833   3.651   0.200
 2964TIP3    H1 8856   5.812   3.744   0.190
 2964TIP3    H2 8857   5.924   3.644   0.170
 2965TIP3   OH2 8858   5.197   5.212   5.431
 2965TIP3    H1 8859   5.234   5.182   5.349
 2965TIP3    H2 8860   5.196   5.135   5.487
 2966TIP3   OH2 8861   2.997   1.318   3.940
 2966TIP3    H1 8862   3.029   1.263   3.869
 2966TIP3    H2 8863   2.902   1.314   3.933
 2967TIP3   OH2 8864   1.879   5.830   2.543
 2967TIP3    H1 8865   1.836   5.911   2.516
 2967TIP3    H2 8866   1.966   5.836   2.505
 2968TIP3   OH2 8867   6.426   0.398   4.963
 2968TIP3    H1 8868   6.501   0.439   5.006
 2968TIP3    H2 8869   6.356   0.403   5.028
 2969TIP3   OH2 8870   1.406   2.098   2.643
 2969TIP3    H1 8871   1.375   2.106   2.553
 2969TIP3    H2 8872   1.473   2.165   2.652
 2970TIP3   OH2 8873   5.489   5.622   4.488
 2970TIP3    H1 8874   5.570   5.670   4.508
 2970TIP3    H2 8875   5.447   5.608   4.572
 2971TIP3   OH2 8876   2.344   6.493   1.650
 2971TIP3    H1 8877   2.333   6.411   1.602
 2971TIP3    H2 8878   2.274   6.492   1.715
 2972TIP3   OH2 8879   5.129   0.675   5.691
 2972TIP3    H1 8880   5.188   0.600   5.697
 2972TIP3    H2 8881   5.126   0.696   5.598
 2973TIP3   OH2 8882   4.288   4.042   5.808
 2973TIP3    H1 8883   4.244   4.106   5.863
 2973TIP3    H2 8884   4.365   4.088   5.775
 2974TIP3   OH2 8885   6.281   1.357   2.248
 2974TIP3    H1 8886   6.334   1.280   2.270
 2974TIP3    H2 8887   6.309   1.380   2.159
 2975TIP3   OH2 8888   7.148   2.473   1.019
 2975TIP3    H1 8889   7.195   2.520   0.950
 2975TIP3    H2 8890   7.205   2.400   1.041
 2976TIP3   OH2 8891   0.057   1.798   3.118
 2976TIP3    H1 8892   0.117   1.725   3.131
 2976TIP3    H2 8893   0.053   1.809   3.022
 2977TIP3   OH2 8894   4.013   3.639   0.547
 2977TIP3    H1 8895   4.071   3.655   0.621
 2977TIP3    H2 8896   3.947   3.708   0.553
 2978TIP3   OH2 8897   6.649   0.532   5.694
 2978TIP3    H1 8898   6.633   0.438   5.686
 2978TIP3    H2 8899   6.599   0.558   5.771
 2979TIP3   OH2 8900   0.166   0.271   3.447
 2979TIP3    H1 8901   0.233   0.286   3.514
 2979TIP3    H2 8902   0.121   0.354   3.438
 2980TIP3   OH2 8903   4.382   2.885   4.984
 2980TIP3    H1 8904   4.363   2.840   5.067
 2980TIP3    H2 8905   4.312   2.950   4.976
 2981TIP3   OH2 8906   4.627   4.039   1.179
 2981TIP3    H1 8907   4.698   4.096   1.149
 2981TIP3    H2 8908   4.618   4.059   1.272
 2982TIP3   OH2 8909   4.437   2.389   0.793
 2982TIP3    H1 8910   4.488   2.347   0.724
 2982TIP3    H2 8911   4.388   2.317   0.834
 2983TIP3   OH2 8912   1.775   3.595   3.516
 2983TIP3    H1 8913   1.699   3.539   3.533
 2983TIP3    H2 8914   1.766   3.667   3.578
 2984TIP3   OH2 8915   1.232   5.869   1.211
 2984TIP3    H1 8916   1.170   5.830   1.273
 2984TIP3    H2 8917   1.181   5.938   1.168
 2985TIP3   OH2 8918   5.093   2.708   1.109
 2985TIP3    H1 8919   5.144   2.701   1.190
 2985TIP3    H2 8920   5.002   2.714   1.138
 2986TIP3   OH2 8921   3.051   5.927   0.336
 2986TIP3    H1 8922   3.002   5.984   0.277
 2986TIP3    H2 8923   3.017   5.946   0.423
 2987TIP3   OH2 8924   3.766   4.600   2.869
 2987TIP3    H1 8925   3.792   4.635   2.954
 2987TIP3    H2 8926   3.733   4.677   2.821
 2988TIP3   OH2 8927   1.420   4.393   0.854
 2988TIP3    H1 8928   1.418   4.474   0.803
 2988TIP3    H2 8929   1.402   4.324   0.790
 2989TIP3   OH2 8930   6.955   0.288   2.249
 2989TIP3    H1 8931   6.999   0.341   2.183
 2989TIP3    H2 8932   7.001   0.204   2.248
 2990TIP3   OH2 8933   6.742   3.356   0.710
 2990TIP3    H1 8934   6.724   3.312   0.794
 2990TIP3    H2 8935   6.789   3.290   0.658
 2991TIP3   OH2 8936   2.113   3.947   1.455
 2991TIP3    H1 8937   2.178   3.940   1.385
 2991TIP3    H2 8938   2.140   4.024   1.505
 2992TIP3   OH2 8939   4.532   4.538   1.526
 2992TIP3    H1 8940   4.535   4.524   1.431
 2992TIP3    H2 8941   4.494   4.626   1.535
 2993TIP3   OH2 8942   5.963   0.624   1.273
 2993TIP3    H1 8943   6.016   0.690   1.318
 2993TIP3    H2 8944   5.892   0.674   1.233
 2994TIP3   OH2 8945   0.607   2.248   1.516
 2994TIP3    H1 8946   0.680   2.197   1.480
 2994TIP3    H2 8947   0.623   2.250   1.610
 2995TIP3   OH2 8948   4.536   2.273   3.899
 2995TIP3    H1 8949   4.606   2.293   3.837
 2995TIP3    H2 8950   4.481   2.351   3.898
 2996TIP3   OH2 8951   4.134   6.326   2.099
 2996TIP3    H1 8952   4.148   6.250   2.042
 2996TIP3    H2 8953   4.222   6.362   2.113
 2997TIP3   OH2 8954   1.494   2.716   2.708
 2997TIP3    H1 8955   1.404   2.722   2.675
 2997TIP3    H2 8956   1.549   2.734   2.631
 2998TIP3   OH2 8957   2.576   5.801   1.591
 2998TIP3    H1 8958   2.590   5.720   1.542
 2998TIP3    H2 8959   2.661   5.845   1.589
 2999TIP3   OH2 8960   0.595   3.574   2.254
 2999TIP3    H1 8961   0.516   3.521   2.255
 2999TIP3    H2 8962   0.625   3.575   2.345
 3000TIP3   OH2 8963   3.503   1.648   4.310
 3000TIP3    H1 8964   3.556   1.602   4.245
 3000TIP3    H2 8965   3.425   1.676   4.263
 3001TIP3   OH2 8966   4.327   1.834   4.066
 3001TIP3    H1 8967   4.240   1.846   4.026
 3001TIP3    H2 8968   4.316   1.866   4.155
 3002TIP3   OH2 8969   6.642   2.151   2.330
 3002TIP3    H1 8970   6.554   2.177   2.357
 3002TIP3    H2 8971   6.679   2.109   2.407
 3003TIP3   OH2 8972   6.926   6.542   2.406
 3003TIP3    H1 8973   6.963   6.469   2.357
 3003TIP3    H2 8974   6.902   6.503   2.491
 3004TIP3   OH2 8975   1.707   2.078   0.467
 3004TIP3    H1 8976   1.701   2.034   0.382
 3004TIP3    H2 8977   1.750   2.162   0.448
 3005TIP3   OH2 8978   2.374   0.183   3.710
 3005TIP3    H1 8979   2.312   0.256   3.716
 3005TIP3    H2 8980   2.320   0.110   3.679
 3006TIP3   OH2 8981   0.747   0.605   5.760
 3006TIP3    H1 8982   0.792   0.689   5.773
 3006TIP3    H2 8983   0.689   0.597   5.835
 3007TIP3   OH2 8984   3.499   6.543   4.629
 3007TIP3    H1 8985   3.505   6.561   4.535
 3007TIP3    H2 8986   3.420   6.490   4.638
 3008TIP3   OH2 8987   3.245   5.242   0.066
 3008TIP3    H1 8988   3.278   5.203   0.148
 3008TIP3    H2 8989   3.283   5.330   0.065
 3009TIP3   OH2 8990   6.602   6.159   0.407
 3009TIP3    H1 8991   6.659   6.101   0.458
 3009TIP3    H2 8992   6.566   6.104   0.338
 3010TIP3   OH2 8993   0.722   3.218   4.807
 3010TIP3    H1 8994   0.752   3.197   4.896
 3010TIP3    H2 8995   0.631   3.247   4.819
 3011TIP3   OH2 8996   4.748   5.415   5.668
 3011TIP3    H1 8997   4.724   5.472   5.596
 3011TIP3    H2 8998   4.839   5.437   5.688
 3012TIP3   OH2 8999   6.670   0.040   0.464
 3012TIP3    H1 9000   6.636  -0.002   0.543
 3012TIP3    H2 9001   6.611   0.114   0.448
 3013TIP3   OH2 9002   3.735   4.955   3.581
 3013TIP3    H1 9003   3.647   4.963   3.542
 3013TIP3    H2 9004   3.744   4.861   3.600
 3014TIP3   OH2 9005   0.715   5.830   3.860
 3014TIP3    H1 9006   0.708   5.925   3.864
 3014TIP3    H2 9007   0.729   5.803   3.951
 3015TIP3   OH2 9008   0.864   2.486   5.136
 3015TIP3    H1 9009   0.798   2.437   5.185
 3015TIP3    H2 9010   0.942   2.484   5.192
 3016TIP3   OH2 9011   3.541   6.736   3.483
 3016TIP3    H1 9012   3.464   6.765   3.434
 3016TIP3    H2 9013   3.549   6.643   3.463
 3017TIP3   OH2 9014   4.044   1.920   2.537
 3017TIP3    H1 9015   4.047   1.853   2.605
 3017TIP3    H2 9016   3.961   1.906   2.491
 3018TIP3   OH2 9017   5.823   0.902   2.738
 3018TIP3    H1 9018   5.905   0.945   2.762
 3018TIP3    H2 9019   5.755   0.960   2.772
 3019TIP3   OH2 9020   5.321   5.854   5.092
 3019TIP3    H1 9021   5.303   5.940   5.055
 3019TIP3    H2 9022   5.417   5.849   5.095
 3020TIP3   OH2 9023   5.622   5.871   2.767
 3020TIP3    H1 9024   5.694   5.819   2.733
 3020TIP3    H2 9025   5.625   5.953   2.717
 3021TIP3   OH2 9026   4.021   5.812   0.655
 3021TIP3    H1 9027   3.961   5.867   0.606
 3021TIP3    H2 9028   3.967   5.741   0.689
 3022TIP3   OH2 9029   5.707   3.765   1.048
 3022TIP3    H1 9030   5.725   3.777   0.954
 3022TIP3    H2 9031   5.617   3.796   1.060
 3023TIP3   OH2 9032   4.390   4.279   4.804
 3023TIP3    H1 9033   4.444   4.334   4.748
 3023TIP3    H2 9034   4.399   4.316   4.891
 3024TIP3   OH2 9035   3.388   6.002   1.354
 3024TIP3    H1 9036   3.473   5.968   1.379
 3024TIP3    H2 9037   3.379   6.083   1.405
 3025TIP3   OH2 9038   7.043   0.404   0.173
 3025TIP3    H1 9039   6.973   0.364   0.225
 3025TIP3    H2 9040   7.096   0.330   0.143
 3026TIP3   OH2 9041   2.067   6.029   0.989
 3026TIP3    H1 9042   1.983   5.997   0.957
 3026TIP3    H2 9043   2.112   6.062   0.911
 3027TIP3   OH2 9044   5.614   5.695   0.322
 3027TIP3    H1 9045   5.608   5.778   0.275
 3027TIP3    H2 9046   5.667   5.715   0.400
 3028TIP3   OH2 9047   4.582   3.906   5.466
 3028TIP3    H1 9048   4.676   3.900   5.447
 3028TIP3    H2 9049   4.565   3.999   5.479
 3029TIP3   OH2 9050   7.214   2.818   5.646
 3029TIP3    H1 9051   7.154   2.837   5.574
 3029TIP3    H2 9052   7.197   2.727   5.668
 3030TIP3   OH2 9053   3.009   3.224   4.203
 3030TIP3    H1 9054   2.951   3.202   4.276
 3030TIP3    H2 9055   3.094   3.190   4.229
 3031TIP3   OH2 9056   4.427   6.503   1.417
 3031TIP3    H1 9057   4.421   6.410   1.439
 3031TIP3    H2 9058   4.516   6.527   1.441
 3032TIP3   OH2 9059   5.343   0.127   0.890
 3032TIP3    H1 9060   5.330   0.212   0.848
 3032TIP3    H2 9061   5.414   0.141   0.952
 3033TIP3   OH2 9062   3.091   3.825   1.233
 3033TIP3    H1 9063   3.153   3.752   1.236
 3033TIP3    H2 9064   3.012   3.787   1.193
 3034TIP3   OH2 9065   7.008   2.219   1.918
 3034TIP3    H1 9066   7.061   2.157   1.867
 3034TIP3    H2 9067   6.983   2.169   1.996
 3035TIP3   OH2 9068   0.474   6.172   1.420
 3035TIP3    H1 9069   0.465   6.079   1.401
 3035TIP3    H2 9070   0.532   6.176   1.496
 3036TIP3   OH2 9071   0.663   0.216   1.344
 3036TIP3    H1 9072   0.602   0.162   1.394
 3036TIP3    H2 9073   0.613   0.295   1.322
 3037TIP3   OH2 9074   2.314   2.702   5.574
 3037TIP3    H1 9075   2.406   2.725   5.557
 3037TIP3    H2 9076   2.269   2.786   5.579
 3038TIP3   OH2 9077   2.282   0.273   2.321
 3038TIP3    H1 9078   2.199   0.229   2.305
 3038TIP3    H2 9079   2.327   0.217   2.385
 3039TIP3   OH2 9080   1.964   2.436   1.721
 3039TIP3    H1 9081   2.018   2.462   1.646
 3039TIP3    H2 9082   1.984   2.502   1.788
 3040TIP3   OH2 9083   1.464   1.470   0.349
 3040TIP3    H1 9084   1.416   1.426   0.280
 3040TIP3    H2 9085   1.455   1.413   0.425
 3041TIP3   OH2 9086   5.051   6.511   0.434
 3041TIP3    H1 9087   5.139   6.547   0.428
 3041TIP3    H2 9088   5.029   6.518   0.527
 3042TIP3   OH2 9089   4.630   0.936   4.047
 3042TIP3    H1 9090   4.639   0.995   3.972
 3042TIP3    H2 9091   4.688   0.973   4.114
 3043TIP3   OH2 9092   2.814   0.283   3.499
 3043TIP3    H1 9093   2.779   0.348   3.560
 3043TIP3    H2 9094   2.832   0.332   3.419
 3044TIP3   OH2 9095   1.037   1.679   5.805
 3044TIP3    H1 9096   0.962   1.692   5.864
 3044TIP3    H2 9097   1.017   1.598   5.759
 3045TIP3   OH2 9098   2.455   3.169   0.934
 3045TIP3    H1 9099   2.498   3.096   0.890
 3045TIP3    H2 9100   2.524   3.209   0.986
 3046TIP3   OH2 9101   6.310   2.144   4.664
 3046TIP3    H1 9102   6.328   2.057   4.629
 3046TIP3    H2 9103   6.395   2.188   4.666
 3047TIP3   OH2 9104   5.676   2.092   1.352
 3047TIP3    H1 9105   5.686   2.064   1.443
 3047TIP3    H2 9106   5.745   2.046   1.305
 3048TIP3   OH2 9107   2.608   0.285   1.656
 3048TIP3    H1 9108   2.547   0.349   1.691
 3048TIP3    H2 9109   2.633   0.231   1.732
 3049TIP3   OH2 9110   2.556   1.924   3.135
 3049TIP3    H1 9111   2.474   1.919   3.184
 3049TIP3    H2 9112   2.606   1.849   3.164
 3050TIP3   OH2 9113   5.037   0.039   1.081
 3050TIP3    H1 9114   5.028   0.113   1.021
 3050TIP3    H2 9115   5.123   0.052   1.121
 3051TIP3   OH2 9116   4.668   1.928   0.099
 3051TIP3    H1 9117   4.726   2.004   0.098
 3051TIP3    H2 9118   4.718   1.860   0.144
 3052TIP3   OH2 9119   0.687   2.309   1.888
 3052TIP3    H1 9120   0.697   2.314   1.983
 3052TIP3    H2 9121   0.646   2.224   1.873
 3053TIP3   OH2 9122   5.139   4.382   0.686
 3053TIP3    H1 9123   5.139   4.465   0.638
 3053TIP3    H2 9124   5.057   4.382   0.735
 3054TIP3   OH2 9125   6.204   5.134   5.656
 3054TIP3    H1 9126   6.296   5.122   5.634
 3054TIP3    H2 9127   6.199   5.223   5.691
 3055TIP3   OH2 9128   2.661   6.369   4.782
 3055TIP3    H1 9129   2.570   6.338   4.781
 3055TIP3    H2 9130   2.655   6.464   4.774
 3056TIP3   OH2 9131   0.224   2.250   2.229
 3056TIP3    H1 9132   0.192   2.340   2.218
 3056TIP3    H2 9133   0.278   2.234   2.152
 3057TIP3   OH2 9134   2.976   4.056   5.021
 3057TIP3    H1 9135   2.936   4.134   5.059
 3057TIP3    H2 9136   2.916   3.985   5.043
 3058TIP3   OH2 9137   0.766   1.062   3.365
 3058TIP3    H1 9138   0.763   1.107   3.281
 3058TIP3    H2 9139   0.859   1.047   3.381
 3059TIP3   OH2 9140   1.883   2.251   3.500
 3059TIP3    H1 9141   1.978   2.240   3.508
 3059TIP3    H2 9142   1.865   2.334   3.544
 3060TIP3   OH2 9143   0.388   1.175   2.560
 3060TIP3    H1 9144   0.319   1.126   2.515
 3060TIP3    H2 9145   0.364   1.170   2.653
 3061TIP3   OH2 9146   1.912   5.025   2.515
 3061TIP3    H1 9147   1.838   5.066   2.560
 3061TIP3    H2 9148   1.923   5.076   2.435
 3062TIP3   OH2 9149   1.219   3.434   0.679
 3062TIP3    H1 9150   1.195   3.463   0.591
 3062TIP3    H2 9151   1.253   3.512   0.722
 3063TIP3   OH2 9152   2.722   1.448   2.366
 3063TIP3    H1 9153   2.686   1.536   2.378
 3063TIP3    H2 9154   2.790   1.441   2.434
 3064TIP3   OH2 9155   1.134   5.152   4.383
 3064TIP3    H1 9156   1.156   5.124   4.472
 3064TIP3    H2 9157   1.122   5.246   4.390
 3065TIP3   OH2 9158   1.467   2.145   0.250
 3065TIP3    H1 9159   1.483   2.050   0.244
 3065TIP3    H2 9160   1.501   2.180   0.167
 3066TIP3   OH2 9161   6.263   5.670   5.718
 3066TIP3    H1 9162   6.279   5.764   5.728
 3066TIP3    H2 9163   6.181   5.654   5.764
 3067TIP3   OH2 9164   0.723   0.467   3.442
 3067TIP3    H1 9165   0.750   0.464   3.350
 3067TIP3    H2 9166   0.783   0.408   3.487
 3068TIP3   OH2 9167   1.794   4.071   2.644
 3068TIP3    H1 9168   1.785   4.130   2.569
 3068TIP3    H2 9169   1.824   3.989   2.606
 3069TIP3   OH2 9170   1.074   6.176   2.690
 3069TIP3    H1 9171   1.021   6.119   2.745
 3069TIP3    H2 9172   1.064   6.140   2.602
 3070TIP3   OH2 9173   3.525   4.176   5.617
 3070TIP3    H1 9174   3.466   4.186   5.542
 3070TIP3    H2 9175   3.609   4.210   5.586
 3071TIP3   OH2 9176   1.413   1.889   5.573
 3071TIP3    H1 9177   1.453   1.953   5.632
 3071TIP3    H2 9178   1.408   1.934   5.488
 3072TIP3   OH2 9179   4.953   0.314   3.410
 3072TIP3    H1 9180   5.017   0.378   3.378
 3072TIP3    H2 9181   4.868   0.351   3.385
 3073TIP3   OH2 9182   5.413   3.574   5.797
 3073TIP3    H1 9183   5.362   3.588   5.876
 3073TIP3    H2 9184   5.432   3.480   5.796
 3074TIP3   OH2 9185   3.024   3.442   4.050
 3074TIP3    H1 9186   3.037   3.368   4.109
 3074TIP3    H2 9187   3.105   3.493   4.058
 3075TIP3   OH2 9188   6.590   2.067   1.234
 3075TIP3    H1 9189   6.537   2.116   1.171
 3075TIP3    H2 9190   6.674   2.112   1.235
 3076TIP3   OH2 9191   0.580   4.554   3.570
 3076TIP3    H1 9192   0.505   4.594   3.526
 3076TIP3    H2 9193   0.649   4.555   3.504
 3077TIP3   OH2 9194   0.985   4.803   1.488
 3077TIP3    H1 9195   0.935   4.797   1.407
 3077TIP3    H2 9196   1.000   4.897   1.500
 3078TIP3   OH2 9197   0.620   6.746   4.737
 3078TIP3    H1 9198   0.618   6.754   4.832
 3078TIP3    H2 9199   0.562   6.673   4.717
 3079TIP3   OH2 9200   2.817   3.115   2.004
 3079TIP3    H1 9201   2.863   3.033   2.023
 3079TIP3    H2 9202   2.772   3.136   2.085
 3080TIP3   OH2 9203   7.004   0.021   1.499
 3080TIP3    H1 9204   7.057  -0.044   1.544
 3080TIP3    H2 9205   7.066   0.090   1.476
 3081TIP3   OH2 9206   3.320   6.511   4.893
 3081TIP3    H1 9207   3.304   6.604   4.882
 3081TIP3    H2 9208   3.303   6.473   4.807
 3082TIP3   OH2 9209   5.104   2.835   3.403
 3082TIP3    H1 9210   5.135   2.915   3.447
 3082TIP3    H2 9211   5.010   2.833   3.421
 3083TIP3   OH2 9212   3.584   6.544  -0.014
 3083TIP3    H1 9213   3.608   6.554   0.079
 3083TIP3    H2 9214   3.501   6.591  -0.023
 3084TIP3   OH2 9215   1.990   5.311   2.515
 3084TIP3    H1 9216   1.992   5.316   2.611
 3084TIP3    H2 9217   1.940   5.388   2.489
 3085TIP3   OH2 9218   1.303   2.976   1.987
 3085TIP3    H1 9219   1.298   3.053   1.930
 3085TIP3    H2 9220   1.215   2.967   2.023
 3086TIP3   OH2 9221   7.070   4.636   0.074
 3086TIP3    H1 9222   7.004   4.663   0.010
 3086TIP3    H2 9223   7.068   4.705   0.140
 3087TIP3   OH2 9224   6.028   6.446   5.276
 3087TIP3    H1 9225   5.996   6.361   5.247
 3087TIP3    H2 9226   5.989   6.509   5.216
 3088TIP3   OH2 9227   4.858   3.263   2.549
 3088TIP3    H1 9228   4.825   3.330   2.489
 3088TIP3    H2 9229   4.888   3.312   2.625
 3089TIP3   OH2 9230   5.179   0.702   0.359
 3089TIP3    H1 9231   5.229   0.630   0.321
 3089TIP3    H2 9232   5.127   0.662   0.429
 3090TIP3   OH2 9233   3.072   1.826   0.811
 3090TIP3    H1 9234   3.066   1.878   0.891
 3090TIP3    H2 9235   3.100   1.889   0.744
 3091TIP3   OH2 9236   5.801   2.039   4.521
 3091TIP3    H1 9237   5.857   2.097   4.470
 3091TIP3    H2 9238   5.828   2.053   4.611
 3092TIP3   OH2 9239   5.311   5.993   2.756
 3092TIP3    H1 9240   5.242   5.932   2.784
 3092TIP3    H2 9241   5.283   6.022   2.670
 3093TIP3   OH2 9242   1.608   3.728   0.331
 3093TIP3    H1 9243   1.685   3.774   0.364
 3093TIP3    H2 9244   1.542   3.740   0.399
 3094TIP3   OH2 9245   6.890   1.136   5.064
 3094TIP3    H1 9246   6.955   1.113   4.997
 3094TIP3    H2 9247   6.869   1.228   5.047
 3095TIP3   OH2 9248   5.619   5.445   0.468
 3095TIP3    H1 9249   5.632   5.477   0.379
 3095TIP3    H2 9250   5.528   5.468   0.488
 3096TIP3   OH2 9251   4.197   2.420   5.101
 3096TIP3    H1 9252   4.163   2.346   5.152
 3096TIP3    H2 9253   4.275   2.448   5.148
 3097TIP3   OH2 9254   2.513   1.872   0.202
 3097TIP3    H1 9255   2.592   1.926   0.204
 3097TIP3    H2 9256   2.543   1.785   0.174
 3098TIP3   OH2 9257   1.665   1.037   0.272
 3098TIP3    H1 9258   1.630   1.078   0.193
 3098TIP3    H2 9259   1.626   1.086   0.344
 3099TIP3   OH2 9260   6.744   1.906   2.120
 3099TIP3    H1 9261   6.817   1.962   2.094
 3099TIP3    H2 9262   6.706   1.877   2.037
 3100TIP3   OH2 9263   0.843   4.569   5.398
 3100TIP3    H1 9264   0.881   4.631   5.460
 3100TIP3    H2 9265   0.856   4.609   5.312
 3101TIP3   OH2 9266   2.272   1.340   0.405
 3101TIP3    H1 9267   2.276   1.352   0.310
 3101TIP3    H2 9268   2.229   1.255   0.416
 3102TIP3   OH2 9269   3.585   0.702   0.162
 3102TIP3    H1 9270   3.590   0.629   0.224
 3102TIP3    H2 9271   3.523   0.763   0.201
 3103TIP3   OH2 9272   1.182   1.637   0.309
 3103TIP3    H1 9273   1.209   1.626   0.218
 3103TIP3    H2 9274   1.256   1.682   0.350
 3104TIP3   OH2 9275   2.779   6.279   0.506
 3104TIP3    H1 9276   2.772   6.361   0.555
 3104TIP3    H2 9277   2.707   6.282   0.444
 3105TIP3   OH2 9278   6.914   4.849   1.824
 3105TIP3    H1 9279   6.872   4.798   1.755
 3105TIP3    H2 9280   7.007   4.847   1.802
 3106TIP3   OH2 9281   0.475   5.901   1.505
 3106TIP3    H1 9282   0.513   5.939   1.584
 3106TIP3    H2 9283   0.380   5.907   1.519
 3107TIP3   OH2 9284   6.373   1.940   0.462
 3107TIP3    H1 9285   6.333   1.854   0.450
 3107TIP3    H2 9286   6.389   1.947   0.556
 3108TIP3   OH2 9287   4.540   5.015   5.420
 3108TIP3    H1 9288   4.509   4.948   5.360
 3108TIP3    H2 9289   4.630   5.032   5.394
 3109TIP3   OH2 9290   3.119   5.308   0.666
 3109TIP3    H1 9291   3.138   5.215   0.656
 3109TIP3    H2 9292   3.023   5.312   0.673
 3110TIP3   OH2 9293   2.424   4.695   0.846
 3110TIP3    H1 9294   2.423   4.606   0.882
 3110TIP3    H2 9295   2.495   4.694   0.782
 3111TIP3   OH2 9296   3.480   0.195   2.711
 3111TIP3    H1 9297   3.501   0.154   2.794
 3111TIP3    H2 9298   3.564   0.218   2.673
 3112TIP3   OH2 9299   2.773   2.642   2.462
 3112TIP3    H1 9300   2.704   2.583   2.433
 3112TIP3    H2 9301   2.772   2.636   2.557
 3113TIP3   OH2 9302   3.610   4.323   2.344
 3113TIP3    H1 9303   3.535   4.363   2.388
 3113TIP3    H2 9304   3.680   4.387   2.354
 3114TIP3   OH2 9305   1.821   0.416   0.045
 3114TIP3    H1 9306   1.862   0.478  -0.015
 3114TIP3    H2 9307   1.894   0.381   0.097
 3115TIP3   OH2 9308   0.995   3.316   2.859
 3115TIP3    H1 9309   0.918   3.373   2.869
 3115TIP3    H2 9310   0.999   3.298   2.766
 3116TIP3   OH2 9311   0.227   5.949   2.526
 3116TIP3    H1 9312   0.230   5.998   2.443
 3116TIP3    H2 9313   0.190   5.865   2.502
 3117TIP3   OH2 9314   1.832   2.735   0.762
 3117TIP3    H1 9315   1.926   2.734   0.745
 3117TIP3    H2 9316   1.808   2.828   0.757
 3118TIP3   OH2 9317   3.320   6.468   1.251
 3118TIP3    H1 9318   3.409   6.440   1.233
 3118TIP3    H2 9319   3.330   6.555   1.290
 3119TIP3   OH2 9320   5.495   2.271   1.949
 3119TIP3    H1 9321   5.428   2.281   2.017
 3119TIP3    H2 9322   5.554   2.204   1.983
 3120TIP3   OH2 9323   3.373   0.158   3.928
 3120TIP3    H1 9324   3.280   0.161   3.905
 3120TIP3    H2 9325   3.384   0.227   3.993
 3121TIP3   OH2 9326   5.901   4.612   3.511
 3121TIP3    H1 9327   5.870   4.522   3.521
 3121TIP3    H2 9328   5.869   4.639   3.425
 3122TIP3   OH2 9329   1.532   3.599   5.705
 3122TIP3    H1 9330   1.572   3.516   5.730
 3122TIP3    H2 9331   1.466   3.575   5.640
 3123TIP3   OH2 9332   3.497   5.017   1.901
 3123TIP3    H1 9333   3.436   5.088   1.881
 3123TIP3    H2 9334   3.507   4.970   1.819
 3124TIP3   OH2 9335   6.848   6.669   2.993
 3124TIP3    H1 9336   6.759   6.669   3.029
 3124TIP3    H2 9337   6.836   6.649   2.900
 3125TIP3   OH2 9338   2.614   0.752   2.736
 3125TIP3    H1 9339   2.606   0.733   2.643
 3125TIP3    H2 9340   2.676   0.687   2.769
 3126TIP3   OH2 9341   5.392   5.774   2.918
 3126TIP3    H1 9342   5.411   5.851   2.865
 3126TIP3    H2 9343   5.477   5.731   2.930
 3127TIP3   OH2 9344   5.397   0.402   2.661
 3127TIP3    H1 9345   5.354   0.460   2.725
 3127TIP3    H2 9346   5.357   0.426   2.578
 3128TIP3   OH2 9347   6.360   2.195   1.387
 3128TIP3    H1 9348   6.321   2.109   1.373
 3128TIP3    H2 9349   6.454   2.182   1.375
 3129TIP3   OH2 9350   4.933   6.736   0.096
 3129TIP3    H1 9351   4.886   6.698   0.022
 3129TIP3    H2 9352   5.025   6.729   0.070
 3130TIP3   OH2 9353   2.208   1.778   5.522
 3130TIP3    H1 9354   2.139   1.834   5.557
 3130TIP3    H2 9355   2.267   1.837   5.476
 3131TIP3   OH2 9356   6.581   3.915   4.897
 3131TIP3    H1 9357   6.558   3.863   4.974
 3131TIP3    H2 9358   6.516   3.889   4.831
 3132TIP3   OH2 9359   3.915   2.665   2.809
 3132TIP3    H1 9360   3.870   2.743   2.779
 3132TIP3    H2 9361   3.970   2.639   2.735
 3133TIP3   OH2 9362   2.877   6.275   4.631
 3133TIP3    H1 9363   2.947   6.254   4.693
 3133TIP3    H2 9364   2.829   6.347   4.672
 3134TIP3   OH2 9365   6.358   4.069   0.074
 3134TIP3    H1 9366   6.296   4.017   0.125
 3134TIP3    H2 9367   6.428   4.090   0.135
 3135TIP3   OH2 9368   6.655   2.353   4.888
 3135TIP3    H1 9369   6.701   2.275   4.919
 3135TIP3    H2 9370   6.633   2.402   4.968
 3136TIP3   OH2 9371   5.576   6.341   0.053
 3136TIP3    H1 9372   5.532   6.352  -0.032
 3136TIP3    H2 9373   5.506   6.345   0.117
 3137TIP3   OH2 9374   3.628   5.469   0.381
 3137TIP3    H1 9375   3.553   5.437   0.330
 3137TIP3    H2 9376   3.600   5.555   0.412
 3138TIP3   OH2 9377   5.213   4.598   5.449
 3138TIP3    H1 9378   5.137   4.656   5.438
 3138TIP3    H2 9379   5.183   4.513   5.416
 3139TIP3   OH2 9380   3.854   1.030   0.175
 3139TIP3    H1 9381   3.895   0.994   0.097
 3139TIP3    H2 9382   3.820   1.115   0.147
 3140TIP3   OH2 9383   4.181   6.076   2.915
 3140TIP3    H1 9384   4.104   6.026   2.886
 3140TIP3    H2 9385   4.218   6.111   2.834
 3141TIP3   OH2 9386   3.627   6.541   5.224
 3141TIP3    H1 9387   3.589   6.474   5.167
 3141TIP3    H2 9388   3.627   6.502   5.311
 3142TIP3   OH2 9389   3.855   4.110   0.899
 3142TIP3    H1 9390   3.795   4.084   0.828
 3142TIP3    H2 9391   3.798   4.149   0.965
 3143TIP3   OH2 9392   5.398   5.950   5.530
 3143TIP3    H1 9393   5.367   5.960   5.440
 3143TIP3    H2 9394   5.488   5.919   5.521
 3144TIP3   OH2 9395   4.568   3.607   2.500
 3144TIP3    H1 9396   4.541   3.515   2.490
 3144TIP3    H2 9397   4.546   3.628   2.591
 3145TIP3   OH2 9398   4.513   2.172   5.134
 3145TIP3    H1 9399   4.594   2.223   5.140
 3145TIP3    H2 9400   4.539   2.083   5.158
 3146TIP3   OH2 9401   5.283   2.851   4.755
 3146TIP3    H1 9402   5.356   2.795   4.730
 3146TIP3    H2 9403   5.206   2.793   4.750
 3147TIP3   OH2 9404   0.119   4.195   2.937
 3147TIP3    H1 9405   0.160   4.281   2.926
 3147TIP3    H2 9406   0.062   4.186   2.861
 3148TIP3   OH2 9407   1.706   2.818   4.739
 3148TIP3    H1 9408   1.757   2.780   4.668
 3148TIP3    H2 9409   1.692   2.909   4.713
 3149TIP3   OH2 9410   3.181   3.106   2.665
 3149TIP3    H1 9411   3.200   3.198   2.648
 3149TIP3    H2 9412   3.086   3.099   2.658
 3150TIP3   OH2 9413   3.804   1.954   4.457
 3150TIP3    H1 9414   3.725   1.942   4.511
 3150TIP3    H2 9415   3.771   1.967   4.369
 3151TIP3   OH2 9416   0.466   3.777   0.163
 3151TIP3    H1 9417   0.470   3.682   0.175
 3151TIP3    H2 9418   0.372   3.798   0.169
 3152TIP3   OH2 9419   0.472   4.225   4.250
 3152TIP3    H1 9420   0.397   4.261   4.298
 3152TIP3    H2 9421   0.549   4.256   4.299
 3153TIP3   OH2 9422   6.678  -0.017   3.132
 3153TIP3    H1 9423   6.751  -0.032   3.071
 3153TIP3    H2 9424   6.717   0.034   3.203
 3154TIP3   OH2 9425   6.323   2.986   0.758
 3154TIP3    H1 9426   6.311   2.981   0.663
 3154TIP3    H2 9427   6.234   2.983   0.793
 3155TIP3   OH2 9428   5.898   5.455   3.269
 3155TIP3    H1 9429   5.868   5.527   3.213
 3155TIP3    H2 9430   5.833   5.452   3.340
 3156TIP3   OH2 9431   5.975   5.490   3.651
 3156TIP3    H1 9432   5.961   5.582   3.629
 3156TIP3    H2 9433   5.935   5.441   3.579
 3157TIP3   OH2 9434   2.834   0.885   3.003
 3157TIP3    H1 9435   2.907   0.919   3.056
 3157TIP3    H2 9436   2.870   0.874   2.916
 3158TIP3   OH2 9437   0.744   3.025   0.569
 3158TIP3    H1 9438   0.667   2.991   0.615
 3158TIP3    H2 9439   0.714   3.107   0.530
 3159TIP3   OH2 9440   6.126   1.988   2.184
 3159TIP3    H1 9441   6.172   1.907   2.163
 3159TIP3    H2 9442   6.152   2.007   2.274
 3160TIP3   OH2 9443   1.167   0.213   4.713
 3160TIP3    H1 9444   1.183   0.130   4.757
 3160TIP3    H2 9445   1.159   0.277   4.784
 3161TIP3   OH2 9446   2.784   3.083   1.734
 3161TIP3    H1 9447   2.877   3.095   1.714
 3161TIP3    H2 9448   2.779   3.091   1.829
 3162TIP3   OH2 9449   1.963   0.838   1.599
 3162TIP3    H1 9450   2.007   0.918   1.570
 3162TIP3    H2 9451   1.901   0.867   1.666
 3163TIP3   OH2 9452   6.474   4.530   5.496
 3163TIP3    H1 9453   6.537   4.476   5.449
 3163TIP3    H2 9454   6.486   4.618   5.460
 3164TIP3   OH2 9455   3.108   6.077   1.302
 3164TIP3    H1 9456   3.192   6.031   1.306
 3164TIP3    H2 9457   3.127   6.164   1.337
 3165TIP3   OH2 9458   5.837   3.555   0.473
 3165TIP3    H1 9459   5.827   3.599   0.388
 3165TIP3    H2 9460   5.924   3.583   0.504
 3166TIP3   OH2 9461   4.064   2.462   4.876
 3166TIP3    H1 9462   4.059   2.373   4.842
 3166TIP3    H2 9463   4.110   2.453   4.959
 3167TIP3   OH2 9464   1.996   6.418   3.746
 3167TIP3    H1 9465   2.042   6.421   3.662
 3167TIP3    H2 9466   2.062   6.386   3.808
 3168TIP3   OH2 9467   3.892   0.045   5.519
 3168TIP3    H1 9468   3.962   0.026   5.582
 3168TIP3    H2 9469   3.858  -0.042   5.495
 3169TIP3   OH2 9470   0.677   3.034   0.888
 3169TIP3    H1 9471   0.586   3.049   0.861
 3169TIP3    H2 9472   0.681   3.067   0.977
 3170TIP3   OH2 9473   5.649   1.231   0.605
 3170TIP3    H1 9474   5.566   1.213   0.561
 3170TIP3    H2 9475   5.712   1.240   0.533
 3171TIP3   OH2 9476   1.878   6.231   0.493
 3171TIP3    H1 9477   1.876   6.139   0.470
 3171TIP3    H2 9478   1.966   6.260   0.469
 3172TIP3   OH2 9479   2.353   1.852   3.329
 3172TIP3    H1 9480   2.260   1.874   3.337
 3172TIP3    H2 9481   2.358   1.760   3.353
 3173TIP3   OH2 9482   2.969   4.013   1.755
 3173TIP3    H1 9483   2.948   3.975   1.840
 3173TIP3    H2 9484   3.061   3.987   1.740
 3174TIP3   OH2 9485   2.913   5.699   5.638
 3174TIP3    H1 9486   2.931   5.613   5.602
 3174TIP3    H2 9487   2.947   5.760   5.572
 3175TIP3   OH2 9488   2.650   4.323   4.625
 3175TIP3    H1 9489   2.629   4.396   4.567
 3175TIP3    H2 9490   2.678   4.364   4.707
 3176TIP3   OH2 9491   5.126   1.706   4.069
 3176TIP3    H1 9492   5.189   1.690   3.999
 3176TIP3    H2 9493   5.063   1.634   4.063
 3177TIP3   OH2 9494   2.959   4.578   3.920
 3177TIP3    H1 9495   2.893   4.643   3.896
 3177TIP3    H2 9496   2.947   4.507   3.857
 3178TIP3   OH2 9497   5.496   1.207   2.144
 3178TIP3    H1 9498   5.494   1.269   2.070
 3178TIP3    H2 9499   5.588   1.199   2.166
 3179TIP3   OH2 9500   5.848   0.099   0.771
 3179TIP3    H1 9501   5.849   0.193   0.751
 3179TIP3    H2 9502   5.785   0.091   0.843
 3180TIP3   OH2 9503   3.390   3.004   5.723
 3180TIP3    H1 9504   3.308   2.998   5.772
 3180TIP3    H2 9505   3.413   2.914   5.702
 3181TIP3   OH2 9506   5.988   3.921   2.075
 3181TIP3    H1 9507   5.917   3.952   2.132
 3181TIP3    H2 9508   6.053   3.991   2.079
 3182TIP3   OH2 9509   6.310   4.723   3.192
 3182TIP3    H1 9510   6.326   4.673   3.271
 3182TIP3    H2 9511   6.219   4.750   3.198
 3183TIP3   OH2 9512   1.238   2.738   0.929
 3183TIP3    H1 9513   1.155   2.764   0.971
 3183TIP3    H2 9514   1.276   2.821   0.900
 3184TIP3   OH2 9515   0.797   5.689   2.481
 3184TIP3    H1 9516   0.844   5.706   2.400
 3184TIP3    H2 9517   0.841   5.743   2.547
 3185TIP3   OH2 9518   6.953   4.093   0.066
 3185TIP3    H1 9519   6.942   4.002   0.039
 3185TIP3    H2 9520   6.872   4.115   0.111
 3186TIP3   OH2 9521   6.123   4.315   4.904
 3186TIP3    H1 9522   6.101   4.282   4.817
 3186TIP3    H2 9523   6.105   4.409   4.899
 3187TIP3   OH2 9524   0.971   3.422   4.170
 3187TIP3    H1 9525   1.011   3.446   4.087
 3187TIP3    H2 9526   0.903   3.359   4.147
 3188TIP3   OH2 9527   1.479   2.399   1.498
 3188TIP3    H1 9528   1.552   2.404   1.435
 3188TIP3    H2 9529   1.515   2.436   1.579
 3189TIP3   OH2 9530   4.881   3.801   2.226
 3189TIP3    H1 9531   4.932   3.841   2.156
 3189TIP3    H2 9532   4.873   3.871   2.292
 3190TIP3   OH2 9533   4.718   3.441   5.148
 3190TIP3    H1 9534   4.669   3.448   5.230
 3190TIP3    H2 9535   4.674   3.371   5.099
 3191TIP3   OH2 9536   5.234   2.421   3.549
 3191TIP3    H1 9537   5.238   2.336   3.505
 3191TIP3    H2 9538   5.307   2.421   3.610
 3192TIP3   OH2 9539   0.380   2.344   2.445
 3192TIP3    H1 9540   0.321   2.337   2.519
 3192TIP3    H2 9541   0.351   2.275   2.385
 3193TIP3   OH2 9542   6.033   4.445   2.139
 3193TIP3    H1 9543   6.069   4.399   2.063
 3193TIP3    H2 9544   6.087   4.524   2.147
 3194TIP3   OH2 9545   2.754   4.232   4.377
 3194TIP3    H1 9546   2.832   4.270   4.417
 3194TIP3    H2 9547   2.683   4.291   4.402
 3195TIP3   OH2 9548   3.666   6.040   5.361
 3195TIP3    H1 9549   3.687   6.106   5.427
 3195TIP3    H2 9550   3.573   6.024   5.370
 3196TIP3   OH2 9551   0.049   3.498   0.054
 3196TIP3    H1 9552   0.096   3.470  -0.025
 3196TIP3    H2 9553   0.060   3.593   0.056
 3197TIP3   OH2 9554   1.839   2.490   2.347
 3197TIP3    H1 9555   1.845   2.577   2.307
 3197TIP3    H2 9556   1.901   2.493   2.420
 3198TIP3   OH2 9557   2.791   2.568   1.539
 3198TIP3    H1 9558   2.767   2.586   1.630
 3198TIP3    H2 9559   2.708   2.568   1.492
 3199TIP3   OH2 9560   4.986  -0.004   0.722
 3199TIP3    H1 9561   4.915   0.056   0.697
 3199TIP3    H2 9562   5.022   0.035   0.802
 3200TIP3   OH2 9563   0.475   0.359   1.051
 3200TIP3    H1 9564   0.520   0.421   0.994
 3200TIP3    H2 9565   0.513   0.375   1.138
 3201TIP3   OH2 9566   5.632   3.898   5.070
 3201TIP3    H1 9567   5.681   3.843   5.009
 3201TIP3    H2 9568   5.699   3.941   5.123
 3202TIP3   OH2 9569   4.047   2.808   0.489
 3202TIP3    H1 9570   3.968   2.833   0.537
 3202TIP3    H2 9571   4.106   2.883   0.501
 3203TIP3   OH2 9572   3.125   5.398   4.062
 3203TIP3    H1 9573   3.113   5.307   4.089
 3203TIP3    H2 9574   3.079   5.450   4.128
 3204TIP3   OH2 9575   0.213   3.443   0.346
 3204TIP3    H1 9576   0.225   3.362   0.395
 3204TIP3    H2 9577   0.292   3.495   0.366
 3205TIP3   OH2 9578   2.245   4.668   2.348
 3205TIP3    H1 9579   2.168   4.615   2.370
 3205TIP3    H2 9580   2.314   4.605   2.332
 3206TIP3   OH2 9581   3.702   4.365   3.082
 3206TIP3    H1 9582   3.724   4.448   3.124
 3206TIP3    H2 9583   3.776   4.347   3.024
 3207TIP3   OH2 9584   4.477   4.779   0.440
 3207TIP3    H1 9585   4.393   4.813   0.409
 3207TIP3    H2 9586   4.543   4.830   0.393
 3208TIP3   OH2 9587   3.328   4.242   2.846
 3208TIP3    H1 9588   3.388   4.167   2.843
 3208TIP3    H2 9589   3.362   4.298   2.915
 3209TIP3   OH2 9590   0.872   6.745   3.199
 3209TIP3    H1 9591   0.897   6.693   3.123
 3209TIP3    H2 9592   0.817   6.815   3.164
 3210TIP3   OH2 9593   2.716   3.168   1.073
 3210TIP3    H1 9594   2.746   3.210   1.154
 3210TIP3    H2 9595   2.721   3.074   1.091
 3211TIP3   OH2 9596   0.909   0.348   1.832
 3211TIP3    H1 9597   0.819   0.349   1.798
 3211TIP3    H2 9598   0.938   0.257   1.819
 3212TIP3   OH2 9599   4.746   0.361   1.826
 3212TIP3    H1 9600   4.689   0.371   1.902
 3212TIP3    H2 9601   4.757   0.267   1.816
 3213TIP3   OH2 9602   6.931   4.029   3.937
 3213TIP3    H1 9603   6.931   4.093   4.008
 3213TIP3    H2 9604   7.023   4.007   3.925
 3214TIP3   OH2 9605   3.719   0.425   4.514
 3214TIP3    H1 9606   3.729   0.358   4.582
 3214TIP3    H2 9607   3.624   0.442   4.511
 3215TIP3   OH2 9608   0.032   3.264   5.123
 3215TIP3    H1 9609   0.061   3.174   5.138
 3215TIP3    H2 9610   0.070   3.289   5.039
 3216TIP3   OH2 9611   1.626   0.112   0.546
 3216TIP3    H1 9612   1.661   0.026   0.568
 3216TIP3    H2 9613   1.701   0.172   0.552
 3217TIP3   OH2 9614   4.676   4.609   3.349
 3217TIP3    H1 9615   4.623   4.645   3.420
 3217TIP3    H2 9616   4.613   4.593   3.278
 3218TIP3   OH2 9617   1.883   1.878   2.927
 3218TIP3    H1 9618   1.819   1.809   2.907
 3218TIP3    H2 9619   1.835   1.960   2.914
 3219TIP3   OH2 9620   1.674   0.175   5.435
 3219TIP3    H1 9621   1.740   0.116   5.472
 3219TIP3    H2 9622   1.724   0.250   5.403
 3220TIP3   OH2 9623   7.155   0.790   5.212
 3220TIP3    H1 9624   7.211   0.811   5.136
 3220TIP3    H2 9625   7.153   0.695   5.215
 3221TIP3   OH2 9626   0.943   2.638   2.481
 3221TIP3    H1 9627   0.968   2.548   2.462
 3221TIP3    H2 9628   0.916   2.637   2.573
 3222TIP3   OH2 9629   3.851   5.426   3.078
 3222TIP3    H1 9630   3.832   5.505   3.128
 3222TIP3    H2 9631   3.907   5.374   3.136
 3223TIP3   OH2 9632   3.313   2.737   1.316
 3223TIP3    H1 9633   3.298   2.831   1.306
 3223TIP3    H2 9634   3.407   2.726   1.302
 3224TIP3   OH2 9635   5.638   6.291   2.201
 3224TIP3    H1 9636   5.554   6.260   2.233
 3224TIP3    H2 9637   5.616   6.358   2.137
 3225TIP3   OH2 9638   5.290   5.041   1.970
 3225TIP3    H1 9639   5.330   5.125   1.994
 3225TIP3    H2 9640   5.249   5.009   2.050
 3226TIP3   OH2 9641   6.567   3.318   2.278
 3226TIP3    H1 9642   6.529   3.371   2.348
 3226TIP3    H2 9643   6.625   3.256   2.323
 3227TIP3   OH2 9644   5.738   3.179   4.184
 3227TIP3    H1 9645   5.649   3.213   4.197
 3227TIP3    H2 9646   5.790   3.255   4.159
 3228TIP3   OH2 9647   4.521   6.159   0.837
 3228TIP3    H1 9648   4.574   6.125   0.765
 3228TIP3    H2 9649   4.563   6.242   0.860
 3229TIP3   OH2 9650   3.151   5.537   3.502
 3229TIP3    H1 9651   3.201   5.612   3.536
 3229TIP3    H2 9652   3.207   5.500   3.435
 3230TIP3   OH2 9653   0.101   1.292   2.851
 3230TIP3    H1 9654   0.146   1.352   2.793
 3230TIP3    H2 9655   0.141   1.207   2.834
 3231TIP3   OH2 9656   0.849   1.988   4.824
 3231TIP3    H1 9657   0.839   1.893   4.829
 3231TIP3    H2 9658   0.934   2.001   4.783
 3232TIP3   OH2 9659   2.085   4.595   0.507
 3232TIP3    H1 9660   2.145   4.595   0.433
 3232TIP3    H2 9661   2.129   4.544   0.574
 3233TIP3   OH2 9662   1.849   1.362   0.136
 3233TIP3    H1 9663   1.836   1.385   0.228
 3233TIP3    H2 9664   1.793   1.285   0.122
 3234TIP3   OH2 9665   6.694   1.011   3.920
 3234TIP3    H1 9666   6.621   1.001   3.981
 3234TIP3    H2 9667   6.725   0.921   3.906
 3235TIP3   OH2 9668   5.686  -0.008   3.414
 3235TIP3    H1 9669   5.623   0.041   3.360
 3235TIP3    H2 9670   5.665   0.019   3.503
 3236TIP3   OH2 9671   5.186   5.894   4.528
 3236TIP3    H1 9672   5.151   5.981   4.506
 3236TIP3    H2 9673   5.267   5.912   4.575
 3237TIP3   OH2 9674   1.957   2.354   3.203
 3237TIP3    H1 9675   2.042   2.345   3.246
 3237TIP3    H2 9676   1.963   2.437   3.155
 3238TIP3   OH2 9677   2.299   5.001   0.185
 3238TIP3    H1 9678   2.238   5.061   0.141
 3238TIP3    H2 9679   2.379   5.006   0.132
 3239TIP3   OH2 9680   0.196   3.341   2.707
 3239TIP3    H1 9681   0.199   3.434   2.684
 3239TIP3    H2 9682   0.214   3.296   2.624
 3240TIP3   OH2 9683   5.900   4.110   4.181
 3240TIP3    H1 9684   5.961   4.106   4.108
 3240TIP3    H2 9685   5.850   4.190   4.166
 3241TIP3   OH2 9686   4.619   2.739   5.166
 3241TIP3    H1 9687   4.631   2.820   5.216
 3241TIP3    H2 9688   4.682   2.746   5.094
 3242TIP3   OH2 9689   4.567   2.803   1.567
 3242TIP3    H1 9690   4.610   2.794   1.653
 3242TIP3    H2 9691   4.621   2.751   1.508
 3243TIP3   OH2 9692   4.839   2.925   5.402
 3243TIP3    H1 9693   4.846   2.953   5.493
 3243TIP3    H2 9694   4.752   2.956   5.374
 3244TIP3   OH2 9695   5.027   0.989   1.615
 3244TIP3    H1 9696   5.119   0.990   1.588
 3244TIP3    H2 9697   4.981   1.033   1.543
 3245TIP3   OH2 9698   1.775   3.623   3.095
 3245TIP3    H1 9699   1.724   3.544   3.111
 3245TIP3    H2 9700   1.710   3.686   3.063
 3246TIP3   OH2 9701   2.732   5.517   3.102
 3246TIP3    H1 9702   2.712   5.424   3.112
 3246TIP3    H2 9703   2.822   5.526   3.131
 3247TIP3   OH2 9704   3.732   0.011   4.804
 3247TIP3    H1 9705   3.827   0.010   4.816
 3247TIP3    H2 9706   3.697  -0.016   4.889
 3248TIP3   OH2 9707   4.402   3.972   5.274
 3248TIP3    H1 9708   4.462   3.947   5.344
 3248TIP3    H2 9709   4.318   3.984   5.319
 3249TIP3   OH2 9710   5.353   1.238   1.275
 3249TIP3    H1 9711   5.289   1.215   1.208
 3249TIP3    H2 9712   5.426   1.277   1.225
 3250TIP3   OH2 9713   1.484   4.969   2.146
 3250TIP3    H1 9714   1.419   4.907   2.112
 3250TIP3    H2 9715   1.486   5.039   2.081
 3251TIP3   OH2 9716   0.235   3.811   0.536
 3251TIP3    H1 9717   0.215   3.851   0.621
 3251TIP3    H2 9718   0.331   3.812   0.531
 3252TIP3   OH2 9719   5.303   3.984   2.373
 3252TIP3    H1 9720   5.387   4.005   2.331
 3252TIP3    H2 9721   5.279   4.064   2.419
 3253TIP3   OH2 9722   3.048   2.947   5.686
 3253TIP3    H1 9723   3.093   2.877   5.640
 3253TIP3    H2 9724   2.990   2.986   5.621
 3254TIP3   OH2 9725   2.448   0.559   0.021
 3254TIP3    H1 9726   2.448   0.549   0.116
 3254TIP3    H2 9727   2.539   0.578  -0.001
 3255TIP3   OH2 9728   5.185   0.881   3.257
 3255TIP3    H1 9729   5.229   0.966   3.267
 3255TIP3    H2 9730   5.117   0.882   3.324
 3256TIP3   OH2 9731   0.882   0.878   1.570
 3256TIP3    H1 9732   0.849   0.861   1.659
 3256TIP3    H2 9733   0.962   0.827   1.563
 3257TIP3   OH2 9734   3.055   4.453   0.820
 3257TIP3    H1 9735   3.080   4.442   0.728
 3257TIP3    H2 9736   3.139   4.449   0.867
 3258TIP3   OH2 9737   5.183   4.657   4.967
 3258TIP3    H1 9738   5.263   4.607   4.982
 3258TIP3    H2 9739   5.182   4.675   4.873
 3259TIP3   OH2 9740   0.756   6.761   5.093
 3259TIP3    H1 9741   0.682   6.708   5.124
 3259TIP3    H2 9742   0.742   6.847   5.131
 3260TIP3   OH2 9743   7.169   6.116   3.508
 3260TIP3    H1 9744   7.087   6.160   3.485
 3260TIP3    H2 9745   7.158   6.026   3.478
 3261TIP3   OH2 9746   6.518   3.514   1.904
 3261TIP3    H1 9747   6.480   3.426   1.910
 3261TIP3    H2 9748   6.564   3.526   1.987
 3262TIP3   OH2 9749   3.569   3.018   1.935
 3262TIP3    H1 9750   3.503   3.007   1.867
 3262TIP3    H2 9751   3.558   2.941   1.991
 3263TIP3   OH2 9752   5.224   6.162   5.647
 3263TIP3    H1 9753   5.244   6.072   5.672
 3263TIP3    H2 9754   5.310   6.204   5.640
 3264TIP3   OH2 9755   6.894   1.131   1.684
 3264TIP3    H1 9756   6.902   1.190   1.609
 3264TIP3    H2 9757   6.981   1.091   1.693
 3265TIP3   OH2 9758   1.287   6.652   2.745
 3265TIP3    H1 9759   1.378   6.670   2.768
 3265TIP3    H2 9760   1.243   6.638   2.829
 3266TIP3   OH2 9761   0.803   3.607   3.596
 3266TIP3    H1 9762   0.713   3.636   3.610
 3266TIP3    H2 9763   0.857   3.684   3.619
 3267TIP3   OH2 9764   4.121   2.420   2.363
 3267TIP3    H1 9765   4.197   2.435   2.306
 3267TIP3    H2 9766   4.052   2.390   2.304
 3268TIP3   OH2 9767   1.073   2.791   4.619
 3268TIP3    H1 9768   1.056   2.799   4.713
 3268TIP3    H2 9769   1.083   2.697   4.604
 3269TIP3   OH2 9770   5.203   1.070   5.072
 3269TIP3    H1 9771   5.205   1.144   5.132
 3269TIP3    H2 9772   5.165   1.105   4.991
 3270TIP3   OH2 9773   4.169   3.951   4.829
 3270TIP3    H1 9774   4.156   3.890   4.902
 3270TIP3    H2 9775   4.204   4.030   4.871
 3271TIP3   OH2 9776   0.999   2.613   0.223
 3271TIP3    H1 9777   0.973   2.546   0.286
 3271TIP3    H2 9778   0.941   2.600   0.148
 3272TIP3   OH2 9779   5.536   5.339   3.734
 3272TIP3    H1 9780   5.456   5.331   3.786
 3272TIP3    H2 9781   5.566   5.429   3.751
 3273TIP3   OH2 9782   2.831   3.203   0.012
 3273TIP3    H1 9783   2.868   3.166   0.092
 3273TIP3    H2 9784   2.795   3.288   0.039
 3274TIP3   OH2 9785   4.379   4.447   5.575
 3274TIP3    H1 9786   4.473   4.466   5.575
 3274TIP3    H2 9787   4.340   4.517   5.627
 3275TIP3   OH2 9788   6.398   5.409   3.543
 3275TIP3    H1 9789   6.355   5.431   3.626
 3275TIP3    H2 9790   6.426   5.318   3.554
 3276TIP3   OH2 9791   3.990   3.098   0.275
 3276TIP3    H1 9792   3.985   3.002   0.281
 3276TIP3    H2 9793   4.031   3.125   0.357
 3277TIP3   OH2 9794   5.085   0.885   2.167
 3277TIP3    H1 9795   5.072   0.872   2.073
 3277TIP3    H2 9796   5.150   0.954   2.173
 3278TIP3   OH2 9797   2.102   2.318   4.132
 3278TIP3    H1 9798   2.078   2.227   4.150
 3278TIP3    H2 9799   2.092   2.327   4.037
 3279TIP3   OH2 9800   6.754   2.781   4.490
 3279TIP3    H1 9801   6.796   2.818   4.412
 3279TIP3    H2 9802   6.667   2.820   4.491
 3280TIP3   OH2 9803   1.272   1.730   1.462
 3280TIP3    H1 9804   1.227   1.699   1.541
 3280TIP3    H2 9805   1.315   1.811   1.489
 3281TIP3   OH2 9806   4.914   3.398   5.575
 3281TIP3    H1 9807   4.878   3.486   5.560
 3281TIP3    H2 9808   4.954   3.403   5.662
 3282TIP3   OH2 9809   3.347   6.102   0.916
 3282TIP3    H1 9810   3.301   6.081   0.835
 3282TIP3    H2 9811   3.332   6.027   0.973
 3283TIP3   OH2 9812   6.584   6.086   5.045
 3283TIP3    H1 9813   6.570   6.174   5.079
 3283TIP3    H2 9814   6.657   6.052   5.097
 3284TIP3   OH2 9815   1.464   6.716   4.471
 3284TIP3    H1 9816   1.380   6.697   4.430
 3284TIP3    H2 9817   1.463   6.667   4.553
 3285TIP3   OH2 9818   4.958   0.653   0.161
 3285TIP3    H1 9819   5.006   0.623   0.238
 3285TIP3    H2 9820   4.987   0.743   0.148
 3286TIP3   OH2 9821   2.010   0.856   0.558
 3286TIP3    H1 9822   1.938   0.846   0.496
 3286TIP3    H2 9823   2.061   0.776   0.549
 3287TIP3   OH2 9824   3.534   3.577   5.796
 3287TIP3    H1 9825   3.514   3.632   5.720
 3287TIP3    H2 9826   3.629   3.583   5.807
 3288TIP3   OH2 9827   4.862   5.504   4.683
 3288TIP3    H1 9828   4.939   5.449   4.691
 3288TIP3    H2 9829   4.887   5.572   4.620
 3289TIP3   OH2 9830   4.290   0.920   3.622
 3289TIP3    H1 9831   4.269   0.962   3.706
 3289TIP3    H2 9832   4.359   0.858   3.644
 3290TIP3   OH2 9833   6.560   2.882   1.754
 3290TIP3    H1 9834   6.472   2.917   1.743
 3290TIP3    H2 9835   6.577   2.889   1.848
 3291TIP3   OH2 9836   6.915   5.745   3.272
 3291TIP3    H1 9837   6.899   5.815   3.209
 3291TIP3    H2 9838   6.869   5.669   3.236
 3292TIP3   OH2 9839   3.335   4.975   5.735
 3292TIP3    H1 9840   3.296   4.946   5.653
 3292TIP3    H2 9841   3.334   5.070   5.730
 3293TIP3   OH2 9842   6.046   5.777   4.199
 3293TIP3    H1 9843   5.954   5.796   4.215
 3293TIP3    H2 9844   6.047   5.685   4.172
 3294TIP3   OH2 9845   4.366   6.371   5.803
 3294TIP3    H1 9846   4.300   6.320   5.758
 3294TIP3    H2 9847   4.362   6.458   5.762
 3295TIP3   OH2 9848   3.917   2.125   0.897
 3295TIP3    H1 9849   3.987   2.166   0.846
 3295TIP3    H2 9850   3.961   2.091   0.975
 3296TIP3   OH2 9851   5.537   4.425   0.114
 3296TIP3    H1 9852   5.577   4.441   0.200
 3296TIP3    H2 9853   5.542   4.330   0.104
 3297TIP3   OH2 9854   5.883   5.795   0.172
 3297TIP3    H1 9855   5.824   5.855   0.218
 3297TIP3    H2 9856   5.953   5.852   0.139
 3298TIP3   OH2 9857   0.954   4.675   3.439
 3298TIP3    H1 9858   0.906   4.598   3.408
 3298TIP3    H2 9859   0.908   4.750   3.400
 3299TIP3   OH2 9860   1.557   5.741   2.452
 3299TIP3    H1 9861   1.651   5.759   2.460
 3299TIP3    H2 9862   1.543   5.726   2.359
 3300TIP3   OH2 9863   1.111   6.438   3.459
 3300TIP3    H1 9864   1.075   6.399   3.539
 3300TIP3    H2 9865   1.126   6.530   3.482
 3301TIP3   OH2 9866   1.719   4.645   5.634
 3301TIP3    H1 9867   1.735   4.694   5.553
 3301TIP3    H2 9868   1.804   4.611   5.660
 3302TIP3   OH2 9869   6.224   6.201   2.977
 3302TIP3    H1 9870   6.230   6.265   3.048
 3302TIP3    H2 9871   6.307   6.209   2.930
 3303TIP3   OH2 9872   2.813   5.742   5.196
 3303TIP3    H1 9873   2.747   5.805   5.167
 3303TIP3    H2 9874   2.858   5.715   5.116
 3304TIP3   OH2 9875   0.120   2.786   1.687
 3304TIP3    H1 9876   0.066   2.800   1.609
 3304TIP3    H2 9877   0.094   2.701   1.719
 3305TIP3   OH2 9878   3.193   1.478   2.201
 3305TIP3    H1 9879   3.248   1.547   2.163
 3305TIP3    H2 9880   3.111   1.521   2.223
 3306TIP3   OH2 9881   4.916   3.194   4.341
 3306TIP3    H1 9882   4.900   3.120   4.282
 3306TIP3    H2 9883   4.953   3.154   4.420
 3307TIP3   OH2 9884   5.526   5.330   1.559
 3307TIP3    H1 9885   5.500   5.243   1.530
 3307TIP3    H2 9886   5.521   5.384   1.481
 3308TIP3   OH2 9887   6.001   1.361   4.474
 3308TIP3    H1 9888   5.936   1.303   4.513
 3308TIP3    H2 9889   5.967   1.380   4.387
 3309TIP3   OH2 9890   4.109   4.789   1.049
 3309TIP3    H1 9891   4.084   4.800   0.957
 3309TIP3    H2 9892   4.039   4.833   1.098
 3310TIP3   OH2 9893   0.376   4.532   3.042
 3310TIP3    H1 9894   0.428   4.454   3.023
 3310TIP3    H2 9895   0.290   4.514   3.004
 3311TIP3   OH2 9896   2.583   0.033   3.683
 3311TIP3    H1 9897   2.499   0.079   3.683
 3311TIP3    H2 9898   2.565  -0.050   3.639
 3312TIP3   OH2 9899   0.249   3.172   2.520
 3312TIP3    H1 9900   0.335   3.168   2.478
 3312TIP3    H2 9901   0.215   3.083   2.514
 3313TIP3   OH2 9902   5.180   1.901   5.142
 3313TIP3    H1 9903   5.174   1.952   5.062
 3313TIP3    H2 9904   5.169   1.965   5.213
 3314TIP3   OH2 9905   6.834   4.461   2.821
 3314TIP3    H1 9906   6.919   4.504   2.828
 3314TIP3    H2 9907   6.770   4.532   2.824
 3315TIP3   OH2 9908   5.810   5.189   1.217
 3315TIP3    H1 9909   5.780   5.112   1.169
 3315TIP3    H2 9910   5.730   5.232   1.245
 3316TIP3   OH2 9911   6.634   2.068   3.797
 3316TIP3    H1 9912   6.722   2.105   3.786
 3316TIP3    H2 9913   6.650   1.977   3.821
 3317TIP3   OH2 9914   2.403   0.162   5.638
 3317TIP3    H1 9915   2.409   0.099   5.710
 3317TIP3    H2 9916   2.353   0.235   5.675
 3318TIP3   OH2 9917   4.419   5.984   1.697
 3318TIP3    H1 9918   4.412   5.913   1.633
 3318TIP3    H2 9919   4.331   6.022   1.701
 3319TIP3   OH2 9920   4.317   0.582   1.520
 3319TIP3    H1 9921   4.307   0.526   1.443
 3319TIP3    H2 9922   4.362   0.527   1.584
 3320TIP3   OH2 9923   4.875   3.736   3.021
 3320TIP3    H1 9924   4.811   3.668   3.001
 3320TIP3    H2 9925   4.871   3.796   2.946
 3321TIP3   OH2 9926   1.422   4.221   0.652
 3321TIP3    H1 9927   1.494   4.164   0.675
 3321TIP3    H2 9928   1.418   4.219   0.556
 3322TIP3   OH2 9929   3.777   0.602   4.975
 3322TIP3    H1 9930   3.712   0.593   4.906
 3322TIP3    H2 9931   3.746   0.543   5.044
 3323TIP3   OH2 9932   0.382   0.682   5.496
 3323TIP3    H1 9933   0.463   0.726   5.472
 3323TIP3    H2 9934   0.315   0.750   5.493
 3324TIP3   OH2 9935   1.990   1.578   5.671
 3324TIP3    H1 9936   2.063   1.622   5.715
 3324TIP3    H2 9937   1.912   1.603   5.721
 3325TIP3   OH2 9938   3.949   1.362   4.610
 3325TIP3    H1 9939   4.028   1.408   4.584
 3325TIP3    H2 9940   3.885   1.384   4.543
 3326TIP3   OH2 9941   6.474   0.528   3.765
 3326TIP3    H1 9942   6.379   0.521   3.757
 3326TIP3    H2 9943   6.494   0.618   3.737
 3327TIP3   OH2 9944   2.930   1.488   0.578
 3327TIP3    H1 9945   2.910   1.450   0.493
 3327TIP3    H2 9946   2.848   1.529   0.606
 3328TIP3   OH2 9947   2.310   2.624   4.598
 3328TIP3    H1 9948   2.308   2.718   4.614
 3328TIP3    H2 9949   2.240   2.610   4.534
 3329TIP3   OH2 9950   6.980   3.172   3.748
 3329TIP3    H1 9951   7.071   3.201   3.736
 3329TIP3    H2 9952   6.928   3.247   3.720
 3330TIP3   OH2 9953   4.200   5.660   4.756
 3330TIP3    H1 9954   4.131   5.714   4.796
 3330TIP3    H2 9955   4.203   5.688   4.665
 3331TIP3   OH2 9956   3.821   1.075   4.531
 3331TIP3    H1 9957   3.742   1.120   4.561
 3331TIP3    H2 9958   3.843   1.119   4.448
 3332TIP3   OH2 9959   1.531   2.024   3.074
 3332TIP3    H1 9960   1.582   2.044   2.995
 3332TIP3    H2 9961   1.521   2.109   3.118
 3333TIP3   OH2 9962   6.888   0.048   2.658
 3333TIP3    H1 9963   6.956  -0.006   2.617
 3333TIP3    H2 9964   6.930   0.082   2.737
 3334TIP3   OH2 9965   3.113   1.414   2.812
 3334TIP3    H1 9966   3.095   1.463   2.892
 3334TIP3    H2 9967   3.088   1.473   2.741
 3335TIP3   OH2 9968   6.333   6.403   3.598
 3335TIP3    H1 9969   6.240   6.405   3.617
 3335TIP3    H2 9970   6.342   6.447   3.514
 3336TIP3   OH2 9971   0.494   2.964   1.701
 3336TIP3    H1 9972   0.541   2.901   1.756
 3336TIP3    H2 9973   0.428   2.911   1.655
 3337TIP3   OH2 9974   7.122   5.789   4.122
 3337TIP3    H1 9975   7.175   5.849   4.174
 3337TIP3    H2 9976   7.031   5.814   4.141
 3338TIP3   OH2 9977   2.262   1.130   1.291
 3338TIP3    H1 9978   2.309   1.177   1.360
 3338TIP3    H2 9979   2.197   1.193   1.259
 3339TIP3   OH2 9980   5.047   1.300   3.561
 3339TIP3    H1 9981   5.070   1.292   3.469
 3339TIP3    H2 9982   4.984   1.371   3.564
 3340TIP3   OH2 9983   6.452   5.451   4.421
 3340TIP3    H1 9984   6.480   5.535   4.457
 3340TIP3    H2 9985   6.438   5.395   4.497
 3341TIP3   OH2 9986   0.298   5.275   5.523
 3341TIP3    H1 9987   0.356   5.347   5.548
 3341TIP3    H2 9988   0.252   5.253   5.604
 3342TIP3   OH2 9989   1.906   3.683   2.138
 3342TIP3    H1 9990   1.946   3.768   2.161
 3342TIP3    H2 9991   1.912   3.680   2.043
 3343TIP3   OH2 9992   2.556   2.211   1.008
 3343TIP3    H1 9993   2.528   2.272   0.939
 3343TIP3    H2 9994   2.636   2.172   0.974
 3344TIP3   OH2 9995   4.529   0.193   1.988
 3344TIP3    H1 9996   4.565   0.110   1.957
 3344TIP3    H2 9997   4.600   0.232   2.039
 3345TIP3   OH2 9998   3.526   2.258   5.422
 3345TIP3    H1 9999   3.491   2.298   5.343
 3345TIP3    H210000   3.514   2.323   5.491
 3346TIP3   OH210001   3.612   4.286   3.420
 3346TIP3    H110002   3.599   4.204   3.371
 3346TIP3    H210003   3.707   4.293   3.429
 3347TIP3   OH210004   5.127   1.299   1.476
 3347TIP3    H110005   5.138   1.350   1.556
 3347TIP3    H210006   5.188   1.226   1.485
 3348TIP3   OH210007   3.677   5.499   3.967
 3348TIP3    H110008   3.756   5.551   3.956
 3348TIP3    H210009   3.670   5.448   3.886
 3349TIP3   OH210010   3.089   2.342   1.598
 3349TIP3    H110011   3.116   2.433   1.602
 3349TIP3    H210012   3.028   2.337   1.525
 3350TIP3   OH210013   4.480   6.649   0.886
 3350TIP3    H110014   4.489   6.687   0.799
 3350TIP3    H210015   4.392   6.612   0.887
 3351TIP3   OH210016   0.965   6.336   4.440
 3351TIP3    H110017   0.889   6.382   4.477
 3351TIP3    H210018   0.945   6.243   4.452
 3352TIP3   OH210019   4.173   5.069   1.600
 3352TIP3    H110020   4.131   5.107   1.677
 3352TIP3    H210021   4.232   5.002   1.635
 3353TIP3   OH210022   1.021   3.281   2.578
 3353TIP3    H110023   1.113   3.272   2.553
 3353TIP3    H210024   0.977   3.312   2.499
 3354TIP3   OH210025   1.703   3.999   3.606
 3354TIP3    H110026   1.686   3.927   3.666
 3354TIP3    H210027   1.796   3.990   3.583
 3355TIP3   OH210028   3.141   3.040   0.894
 3355TIP3    H110029   3.206   3.110   0.894
 3355TIP3    H210030   3.121   3.025   0.802
 3356TIP3   OH210031   0.368   1.024   5.404
 3356TIP3    H110032   0.307   0.978   5.347
 3356TIP3    H210033   0.449   1.031   5.354
 3357TIP3   OH210034   5.897   0.789   4.023
 3357TIP3    H110035   5.809   0.822   4.041
 3357TIP3    H210036   5.955   0.861   4.044
 3358TIP3   OH210037   5.480   3.314   1.544
 3358TIP3    H110038   5.439   3.255   1.482
 3358TIP3    H210039   5.493   3.396   1.496
 3359TIP3   OH210040   0.445   3.560   0.458
 3359TIP3    H110041   0.520   3.513   0.419
 3359TIP3    H210042   0.482   3.643   0.487
 3360TIP3   OH210043   3.316   3.268   2.962
 3360TIP3    H110044   3.256   3.195   2.979
 3360TIP3    H210045   3.327   3.268   2.867
 3361TIP3   OH210046   0.980   3.233   1.701
 3361TIP3    H110047   1.051   3.188   1.746
 3361TIP3    H210048   0.917   3.254   1.770
 3362TIP3   OH210049   2.175   5.958   1.247
 3362TIP3    H110050   2.249   5.924   1.297
 3362TIP3    H210051   2.205   5.960   1.156
 3363TIP3   OH210052   0.338   0.843   1.635
 3363TIP3    H110053   0.306   0.930   1.612
 3363TIP3    H210054   0.367   0.852   1.726
 3364TIP3   OH210055   7.200   1.920   5.791
 3364TIP3    H110056   7.195   2.013   5.769
 3364TIP3    H210057   7.180   1.917   5.885
 3365TIP3   OH210058   0.872   5.842   4.652
 3365TIP3    H110059   0.816   5.848   4.575
 3365TIP3    H210060   0.958   5.820   4.616
 3366TIP3   OH210061   1.440   4.209   5.070
 3366TIP3    H110062   1.350   4.183   5.052
 3366TIP3    H210063   1.452   4.289   5.019
 3367TIP3   OH210064   6.734   4.705   5.423
 3367TIP3    H110065   6.812   4.745   5.462
 3367TIP3    H210066   6.768   4.640   5.362
 3368TIP3   OH210067   1.865   3.813   1.489
 3368TIP3    H110068   1.895   3.823   1.580
 3368TIP3    H210069   1.943   3.833   1.436
 3369TIP3   OH210070   2.486   5.291   4.822
 3369TIP3    H110071   2.435   5.372   4.814
 3369TIP3    H210072   2.536   5.302   4.903
 3370TIP3   OH210073   0.678   6.091   5.501
 3370TIP3    H110074   0.616   6.063   5.568
 3370TIP3    H210075   0.639   6.171   5.464
 3371TIP3   OH210076   5.302   1.632   0.039
 3371TIP3    H110077   5.385   1.585   0.030
 3371TIP3    H210078   5.292   1.647   0.133
 3372TIP3   OH210079   3.137   4.185   1.900
 3372TIP3    H110080   3.090   4.124   1.843
 3372TIP3    H210081   3.117   4.155   1.988
 3373TIP3   OH210082   5.948   1.983   0.308
 3373TIP3    H110083   5.931   2.055   0.248
 3373TIP3    H210084   5.972   2.025   0.390
 3374TIP3   OH210085   0.500   4.041   4.664
 3374TIP3    H110086   0.542   3.973   4.611
 3374TIP3    H210087   0.435   4.080   4.606
 3375TIP3   OH210088   0.734   3.536   2.613
 3375TIP3    H110089   0.667   3.469   2.630
 3375TIP3    H210090   0.772   3.553   2.699
 3376TIP3   OH210091   5.668   6.656   1.846
 3376TIP3    H110092   5.651   6.706   1.926
 3376TIP3    H210093   5.741   6.598   1.870
 3377TIP3   OH210094   2.138   5.177   5.429
 3377TIP3    H110095   2.137   5.246   5.363
 3377TIP3    H210096   2.227   5.176   5.462
 3378TIP3   OH210097   5.080   2.352   2.521
 3378TIP3    H110098   5.080   2.412   2.446
 3378TIP3    H210099   5.172   2.329   2.533
 3379TIP3   OH210100   5.576   6.432   1.002
 3379TIP3    H110101   5.520   6.401   1.073
 3379TIP3    H210102   5.515   6.475   0.941
 3380TIP3   OH210103   0.600   4.102   3.498
 3380TIP3    H110104   0.643   4.017   3.489
 3380TIP3    H210105   0.566   4.103   3.587
 3381TIP3   OH210106   3.604   6.837   2.903
 3381TIP3    H110107   3.599   6.831   2.998
 3381TIP3    H210108   3.542   6.771   2.871
 3382TIP3   OH210109   5.575   0.093   0.646
 3382TIP3    H110110   5.651   0.039   0.666
 3382TIP3    H210111   5.500   0.039   0.670
 3383TIP3   OH210112   6.225   4.634   4.336
 3383TIP3    H110113   6.240   4.681   4.418
 3383TIP3    H210114   6.156   4.685   4.293
 3384TIP3   OH210115   2.785   4.060   0.834
 3384TIP3    H110116   2.767   4.154   0.834
 3384TIP3    H210117   2.868   4.052   0.788
 3385TIP3   OH210118   2.789   3.958   5.742
 3385TIP3    H110119   2.872   4.005   5.748
 3385TIP3    H210120   2.771   3.931   5.832
 3386TIP3   OH210121   2.453   2.346   3.131
 3386TIP3    H110122   2.480   2.269   3.080
 3386TIP3    H210123   2.476   2.421   3.075
 3387TIP3   OH210124   0.219   0.750   2.035
 3387TIP3    H110125   0.218   0.663   1.995
 3387TIP3    H210126   0.186   0.736   2.124
 3388TIP3   OH210127   6.971   5.286   5.223
 3388TIP3    H110128   6.956   5.299   5.129
 3388TIP3    H210129   7.066   5.299   5.234
 3389TIP3   OH210130   2.117   6.212   2.648
 3389TIP3    H110131   2.079   6.151   2.711
 3389TIP3    H210132   2.050   6.279   2.637
 3390TIP3   OH210133   4.195   0.722   3.088
 3390TIP3    H110134   4.161   0.640   3.125
 3390TIP3    H210135   4.271   0.742   3.141
 3391TIP3   OH210136   5.050   3.867   3.475
 3391TIP3    H110137   5.133   3.823   3.456
 3391TIP3    H210138   4.991   3.836   3.407
 3392TIP3   OH210139   5.397   4.277   5.586
 3392TIP3    H110140   5.474   4.227   5.615
 3392TIP3    H210141   5.402   4.277   5.491
 3393TIP3   OH210142   2.015   1.934   4.962
 3393TIP3    H110143   2.065   1.946   5.043
 3393TIP3    H210144   2.043   1.849   4.929
 3394TIP3   OH210145   1.247   0.493   0.378
 3394TIP3    H110146   1.309   0.441   0.429
 3394TIP3    H210147   1.232   0.442   0.299
 3395TIP3   OH210148   1.644   3.347   5.594
 3395TIP3    H110149   1.583   3.313   5.659
 3395TIP3    H210150   1.593   3.347   5.512
 3396TIP3   OH210151   1.038   0.096   0.414
 3396TIP3    H110152   1.131   0.086   0.435
 3396TIP3    H210153   1.038   0.155   0.338
 3397TIP3   OH210154   5.143   3.273   3.091
 3397TIP3    H110155   5.075   3.267   3.023
 3397TIP3    H210156   5.211   3.212   3.062
 3398TIP3   OH210157   1.452   2.896   4.449
 3398TIP3    H110158   1.483   2.813   4.412
 3398TIP3    H210159   1.428   2.875   4.539
 3399TIP3   OH210160   6.598   5.309   0.859
 3399TIP3    H110161   6.594   5.255   0.938
 3399TIP3    H210162   6.573   5.249   0.788
 3400TIP3   OH210163   6.662   4.222   4.476
 3400TIP3    H110164   6.689   4.136   4.445
 3400TIP3    H210165   6.740   4.276   4.468
 3401TIP3   OH210166   1.543   2.187   4.751
 3401TIP3    H110167   1.548   2.156   4.660
 3401TIP3    H210168   1.623   2.154   4.791
 3402TIP3   OH210169   0.892   5.479   5.818
 3402TIP3    H110170   0.910   5.424   5.742
 3402TIP3    H210171   0.837   5.549   5.784
 3403TIP3   OH210172   3.304   5.561   2.582
 3403TIP3    H110173   3.261   5.621   2.643
 3403TIP3    H210174   3.389   5.543   2.623
 3404TIP3   OH210175   6.373   2.501   1.248
 3404TIP3    H110176   6.336   2.536   1.329
 3404TIP3    H210177   6.312   2.527   1.180
 3405TIP3   OH210178   7.138   4.058   1.567
 3405TIP3    H110179   7.224   4.074   1.528
 3405TIP3    H210180   7.148   4.085   1.659
 3406TIP3   OH210181   7.124   6.510   2.731
 3406TIP3    H110182   7.141   6.447   2.661
 3406TIP3    H210183   7.029   6.520   2.731
 3407TIP3   OH210184   1.453   4.903   0.330
 3407TIP3    H110185   1.401   4.871   0.257
 3407TIP3    H210186   1.521   4.957   0.290
 3408TIP3   OH210187   2.065   6.376   4.510
 3408TIP3    H110188   2.079   6.320   4.434
 3408TIP3    H210189   2.113   6.456   4.490
 3409TIP3   OH210190   4.656   0.542   3.500
 3409TIP3    H110191   4.743   0.581   3.507
 3409TIP3    H210192   4.627   0.562   3.411
 3410TIP3   OH210193   0.438   1.910   3.576
 3410TIP3    H110194   0.512   1.969   3.561
 3410TIP3    H210195   0.456   1.834   3.520
 3411TIP3   OH210196   4.322   4.895   3.978
 3411TIP3    H110197   4.306   4.965   4.042
 3411TIP3    H210198   4.319   4.815   4.030
 3412TIP3   OH210199   4.521   0.762   3.620
 3412TIP3    H110200   4.557   0.688   3.572
 3412TIP3    H210201   4.573   0.837   3.593
 3413TIP3   OH210202   4.602   5.268   2.820
 3413TIP3    H110203   4.632   5.312   2.740
 3413TIP3    H210204   4.679   5.222   2.853
 3414TIP3   OH210205   0.388   6.591   2.079
 3414TIP3    H110206   0.412   6.643   2.002
 3414TIP3    H210207   0.470   6.552   2.108
 3415TIP3   OH210208   0.803   3.493   3.226
 3415TIP3    H110209   0.720   3.519   3.267
 3415TIP3    H210210   0.824   3.409   3.266
 3416TIP3   OH210211   0.146   6.731   5.442
 3416TIP3    H110212   0.214   6.679   5.399
 3416TIP3    H210213   0.069   6.675   5.442
 3417TIP3   OH210214   5.688   2.097   5.479
 3417TIP3    H110215   5.600   2.124   5.455
 3417TIP3    H210216   5.682   2.003   5.495
 3418TIP3   OH210217   4.385   2.758   0.369
 3418TIP3    H110218   4.386   2.730   0.460
 3418TIP3    H210219   4.468   2.726   0.333
 3419TIP3   OH210220   0.013   4.287   5.266
 3419TIP3    H110221   0.032   4.352   5.198
 3419TIP3    H210222   0.014   4.203   5.220
 3420TIP3   OH210223   3.433   2.374   0.902
 3420TIP3    H110224   3.377   2.399   0.828
 3420TIP3    H210225   3.503   2.322   0.862
 3421TIP3   OH210226   3.303   0.183   1.053
 3421TIP3    H110227   3.249   0.193   0.974
 3421TIP3    H210228   3.258   0.237   1.119
 3422TIP3   OH210229   2.473   5.846   2.284
 3422TIP3    H110230   2.508   5.759   2.299
 3422TIP3    H210231   2.397   5.852   2.342
 3423TIP3   OH210232   4.771   0.920   0.717
 3423TIP3    H110233   4.685   0.962   0.710
 3423TIP3    H210234   4.752   0.829   0.737
 3424TIP3   OH210235   4.242   5.792   4.493
 3424TIP3    H110236   4.192   5.845   4.430
 3424TIP3    H210237   4.333   5.803   4.466
 3425TIP3   OH210238   1.594   0.987   4.899
 3425TIP3    H110239   1.539   1.010   4.825
 3425TIP3    H210240   1.681   1.017   4.875
 3426TIP3   OH210241   4.692   2.917   3.378
 3426TIP3    H110242   4.771   2.927   3.325
 3426TIP3    H210243   4.657   2.831   3.353
 3427TIP3   OH210244   6.275   1.776   2.997
 3427TIP3    H110245   6.197   1.829   2.981
 3427TIP3    H210246   6.252   1.689   2.963
 3428TIP3   OH210247   6.720   1.119   0.447
 3428TIP3    H110248   6.800   1.165   0.475
 3428TIP3    H210249   6.745   1.073   0.367
 3429TIP3   OH210250   0.751   5.004   2.505
 3429TIP3    H110251   0.680   5.050   2.461
 3429TIP3    H210252   0.779   5.063   2.575
 3430TIP3   OH210253   4.885   4.007   0.915
 3430TIP3    H110254   4.939   3.991   0.993
 3430TIP3    H210255   4.883   4.102   0.906
 3431TIP3   OH210256   5.311   5.323   0.264
 3431TIP3    H110257   5.321   5.292   0.174
 3431TIP3    H210258   5.296   5.417   0.255
 3432TIP3   OH210259   6.528   4.770   2.147
 3432TIP3    H110260   6.500   4.833   2.213
 3432TIP3    H210261   6.517   4.815   2.064
 3433TIP3   OH210262   4.258   2.082   1.312
 3433TIP3    H110263   4.238   2.007   1.368
 3433TIP3    H210264   4.236   2.159   1.365
 3434TIP3   OH210265   1.589   1.683   3.994
 3434TIP3    H110266   1.560   1.767   3.959
 3434TIP3    H210267   1.539   1.672   4.076
 3435TIP3   OH210268   2.212   5.853   3.059
 3435TIP3    H110269   2.134   5.802   3.038
 3435TIP3    H210270   2.184   5.913   3.128
 3436TIP3   OH210271   6.463   1.774   3.964
 3436TIP3    H110272   6.466   1.691   4.012
 3436TIP3    H210273   6.436   1.750   3.876
 3437TIP3   OH210274   1.862   6.719   1.947
 3437TIP3    H110275   1.885   6.746   1.858
 3437TIP3    H210276   1.932   6.660   1.973
 3438TIP3   OH210277   5.463   3.696   1.985
 3438TIP3    H110278   5.533   3.675   2.046
 3438TIP3    H210279   5.395   3.737   2.039
 3439TIP3   OH210280   3.929   5.572   4.766
 3439TIP3    H110281   3.842   5.555   4.730
 3439TIP3    H210282   3.929   5.667   4.783
 3440TIP3   OH210283   3.954   3.929   5.581
 3440TIP3    H110284   4.040   3.948   5.618
 3440TIP3    H210285   3.953   3.834   5.570
 3441TIP3   OH210286   7.074   4.422   1.183
 3441TIP3    H110287   7.084   4.435   1.089
 3441TIP3    H210288   6.983   4.395   1.194
 3442TIP3   OH210289   6.032   1.203   4.925
 3442TIP3    H110290   6.001   1.187   5.014
 3442TIP3    H210291   6.106   1.263   4.937
 3443TIP3   OH210292   2.900   4.907   2.047
 3443TIP3    H110293   2.814   4.948   2.053
 3443TIP3    H210294   2.881   4.814   2.034
 3444TIP3   OH210295   1.100   5.751   0.615
 3444TIP3    H110296   1.145   5.680   0.569
 3444TIP3    H210297   1.043   5.790   0.550
 3445TIP3   OH210298   4.206   2.075   2.329
 3445TIP3    H110299   4.140   2.035   2.385
 3445TIP3    H210300   4.244   2.001   2.281
 3446TIP3   OH210301   2.661   3.118   2.234
 3446TIP3    H110302   2.692   3.185   2.294
 3446TIP3    H210303   2.640   3.043   2.291
 3447TIP3   OH210304   2.318   2.106   2.417
 3447TIP3    H110305   2.341   2.080   2.327
 3447TIP3    H210306   2.231   2.067   2.431
 3448TIP3   OH210307   4.423   0.981   4.781
 3448TIP3    H110308   4.428   1.059   4.835
 3448TIP3    H210309   4.394   1.012   4.695
 3449TIP3   OH210310   5.356   3.812   1.778
 3449TIP3    H110311   5.418   3.772   1.839
 3449TIP3    H210312   5.356   3.905   1.801
 3450TIP3   OH210313   6.162   0.397   4.807
 3450TIP3    H110314   6.213   0.363   4.881
 3450TIP3    H210315   6.142   0.319   4.754
 3451TIP3   OH210316   2.638   1.660   1.460
 3451TIP3    H110317   2.654   1.751   1.433
 3451TIP3    H210318   2.666   1.657   1.552
 3452TIP3   OH210319   7.004   0.674   1.105
 3452TIP3    H110320   6.940   0.604   1.091
 3452TIP3    H210321   6.962   0.733   1.168
 3453TIP3   OH210322   6.063   3.676   3.343
 3453TIP3    H110323   6.132   3.645   3.402
 3453TIP3    H210324   6.009   3.733   3.398
 3454TIP3   OH210325   3.262   3.747   0.420
 3454TIP3    H110326   3.274   3.684   0.349
 3454TIP3    H210327   3.232   3.826   0.377
 3455TIP3   OH210328   6.918   0.814   3.377
 3455TIP3    H110329   6.833   0.780   3.405
 3455TIP3    H210330   6.920   0.904   3.409
 3456TIP3   OH210331   2.751   1.029   0.171
 3456TIP3    H110332   2.833   1.027   0.220
 3456TIP3    H210333   2.705   1.106   0.204
 3457TIP3   OH210334   6.497   0.422   0.865
 3457TIP3    H110335   6.490   0.489   0.797
 3457TIP3    H210336   6.566   0.364   0.834
 3458TIP3   OH210337   3.242   2.556   2.738
 3458TIP3    H110338   3.333   2.532   2.756
 3458TIP3    H210339   3.196   2.540   2.820
 3459TIP3   OH210340   1.635   3.036   4.311
 3459TIP3    H110341   1.723   3.040   4.347
 3459TIP3    H210342   1.588   2.974   4.367
 3460TIP3   OH210343   3.681   4.992   4.362
 3460TIP3    H110344   3.641   5.053   4.300
 3460TIP3    H210345   3.696   5.044   4.440
 3461TIP3   OH210346   2.827   5.778   3.793
 3461TIP3    H110347   2.769   5.756   3.866
 3461TIP3    H210348   2.885   5.702   3.786
 3462TIP3   OH210349   6.028   4.842   2.622
 3462TIP3    H110350   6.052   4.931   2.594
 3462TIP3    H210351   6.003   4.797   2.541
 3463TIP3   OH210352   0.286   1.830   0.752
 3463TIP3    H110353   0.331   1.776   0.817
 3463TIP3    H210354   0.356   1.866   0.698
 3464TIP3   OH210355   4.591   3.017   4.570
 3464TIP3    H110356   4.574   2.923   4.565
 3464TIP3    H210357   4.574   3.049   4.481
 3465TIP3   OH210358   6.657   0.623   3.180
 3465TIP3    H110359   6.725   0.679   3.143
 3465TIP3    H210360   6.576   0.674   3.173
 3466TIP3   OH210361   1.218   5.196   4.021
 3466TIP3    H110362   1.166   5.276   4.018
 3466TIP3    H210363   1.269   5.197   3.940
 3467TIP3   OH210364   0.336   0.609   1.183
 3467TIP3    H110365   0.417   0.576   1.222
 3467TIP3    H210366   0.320   0.551   1.108
 3468TIP3   OH210367   3.256   3.679   4.035
 3468TIP3    H110368   3.197   3.749   4.063
 3468TIP3    H210369   3.272   3.628   4.114
 3469TIP3   OH210370   0.143   5.743   4.332
 3469TIP3    H110371   0.106   5.804   4.268
 3469TIP3    H210372   0.237   5.742   4.312
 3470TIP3   OH210373   1.753   2.121   2.904
 3470TIP3    H110374   1.681   2.158   2.853
 3470TIP3    H210375   1.832   2.151   2.859
 3471TIP3   OH210376   1.332   1.350   2.817
 3471TIP3    H110377   1.403   1.414   2.805
 3471TIP3    H210378   1.358   1.301   2.895
 3472TIP3   OH210379   0.202   5.713   1.117
 3472TIP3    H110380   0.182   5.754   1.032
 3472TIP3    H210381   0.162   5.626   1.111
 3473TIP3   OH210382   4.821   6.496   3.166
 3473TIP3    H110383   4.737   6.521   3.128
 3473TIP3    H210384   4.886   6.550   3.120
 3474TIP3   OH210385   4.582   6.440   4.448
 3474TIP3    H110386   4.517   6.488   4.500
 3474TIP3    H210387   4.579   6.481   4.362
 3475TIP3   OH210388   2.285   4.114   0.075
 3475TIP3    H110389   2.298   4.184   0.139
 3475TIP3    H210390   2.261   4.160  -0.006
 3476TIP3   OH210391   6.224   1.222   0.953
 3476TIP3    H110392   6.260   1.136   0.975
 3476TIP3    H210393   6.266   1.281   1.016
 3477TIP3   OH210394   5.773   1.639   0.927
 3477TIP3    H110395   5.780   1.554   0.884
 3477TIP3    H210396   5.694   1.632   0.980
 3478TIP3   OH210397   4.673   5.014   3.537
 3478TIP3    H110398   4.651   4.921   3.527
 3478TIP3    H210399   4.752   5.014   3.591
 3479TIP3   OH210400   4.345   5.171   5.257
 3479TIP3    H110401   4.425   5.216   5.286
 3479TIP3    H210402   4.330   5.204   5.169
 3480TIP3   OH210403   4.734   3.602   4.668
 3480TIP3    H110404   4.720   3.508   4.653
 3480TIP3    H210405   4.828   3.615   4.654
 3481TIP3   OH210406   6.940   5.427   0.574
 3481TIP3    H110407   6.968   5.340   0.544
 3481TIP3    H210408   6.954   5.484   0.499
 3482TIP3   OH210409   2.243   0.189   2.835
 3482TIP3    H110410   2.210   0.112   2.788
 3482TIP3    H210411   2.283   0.152   2.915
 3483TIP3   OH210412   4.021   4.817   4.968
 3483TIP3    H110413   4.077   4.760   5.020
 3483TIP3    H210414   3.972   4.757   4.912
 3484TIP3   OH210415   5.580   2.205   4.831
 3484TIP3    H110416   5.532   2.193   4.749
 3484TIP3    H210417   5.668   2.171   4.813
 3485TIP3   OH210418   4.140   0.660   1.708
 3485TIP3    H110419   4.194   0.625   1.779
 3485TIP3    H210420   4.167   0.610   1.630
 3486TIP3   OH210421   3.864   4.311   1.194
 3486TIP3    H110422   3.879   4.243   1.260
 3486TIP3    H210423   3.779   4.290   1.156
 3487TIP3   OH210424   5.870   4.320   0.562
 3487TIP3    H110425   5.955   4.364   0.566
 3487TIP3    H210426   5.807   4.391   0.549
 3488TIP3   OH210427   2.857   0.124   2.205
 3488TIP3    H110428   2.772   0.123   2.250
 3488TIP3    H210429   2.836   0.100   2.114
 3489TIP3   OH210430   3.287   6.649   0.332
 3489TIP3    H110431   3.227   6.616   0.399
 3489TIP3    H210432   3.330   6.570   0.298
 3490TIP3   OH210433   2.605   6.349   2.672
 3490TIP3    H110434   2.654   6.397   2.605
 3490TIP3    H210435   2.514   6.370   2.654
 3491TIP3   OH210436   2.807   1.661   1.660
 3491TIP3    H110437   2.851   1.633   1.579
 3491TIP3    H210438   2.873   1.712   1.707
 3492TIP3   OH210439   0.228   3.008   0.235
 3492TIP3    H110440   0.254   3.025   0.144
 3492TIP3    H210441   0.150   2.952   0.227
 3493TIP3   OH210442   1.606   6.356   2.845
 3493TIP3    H110443   1.649   6.306   2.776
 3493TIP3    H210444   1.678   6.398   2.893
 3494TIP3   OH210445   3.640   2.633   3.235
 3494TIP3    H110446   3.708   2.641   3.168
 3494TIP3    H210447   3.558   2.632   3.186
 3495TIP3   OH210448   6.459   6.107   5.711
 3495TIP3    H110449   6.536   6.123   5.657
 3495TIP3    H210450   6.398   6.176   5.686
 3496TIP3   OH210451   3.805   2.929   1.366
 3496TIP3    H110452   3.726   2.919   1.420
 3496TIP3    H210453   3.773   2.956   1.280
 3497TIP3   OH210454   5.340   1.798   3.099
 3497TIP3    H110455   5.386   1.732   3.151
 3497TIP3    H210456   5.281   1.840   3.161
 3498TIP3   OH210457   4.685   4.278   0.664
 3498TIP3    H110458   4.751   4.344   0.685
 3498TIP3    H210459   4.602   4.326   0.663
 3499TIP3   OH210460   0.779   1.258   2.287
 3499TIP3    H110461   0.847   1.236   2.351
 3499TIP3    H210462   0.703   1.208   2.316
 3500TIP3   OH210463   1.415   4.343   3.468
 3500TIP3    H110464   1.336   4.289   3.466
 3500TIP3    H210465   1.403   4.406   3.397
 3501TIP3   OH210466   6.281   5.782   3.779
 3501TIP3    H110467   6.278   5.790   3.684
 3501TIP3    H210468   6.374   5.774   3.800
 3502TIP3   OH210469   2.488   0.298   2.638
 3502TIP3    H110470   2.543   0.335   2.708
 3502TIP3    H210471   2.427   0.241   2.684
 3503TIP3   OH210472   3.315   4.301   4.078
 3503TIP3    H110473   3.352   4.317   4.165
 3503TIP3    H210474   3.232   4.257   4.096
 3504TIP3   OH210475   4.279   5.530   0.143
 3504TIP3    H110476   4.341   5.540   0.215
 3504TIP3    H210477   4.267   5.618   0.109
 3505TIP3   OH210478   4.501   0.199   5.391
 3505TIP3    H110479   4.419   0.164   5.425
 3505TIP3    H210480   4.486   0.293   5.385
 3506TIP3   OH210481   7.082   1.623   4.420
 3506TIP3    H110482   7.004   1.670   4.450
 3506TIP3    H210483   7.114   1.577   4.497
 3507TIP3   OH210484   0.739   6.504   5.686
 3507TIP3    H110485   0.759   6.544   5.770
 3507TIP3    H210486   0.717   6.413   5.707
 3508TIP3   OH210487   4.197   4.383   4.428
 3508TIP3    H110488   4.209   4.355   4.337
 3508TIP3    H210489   4.209   4.303   4.479
 3509TIP3   OH210490   1.631   2.297   5.408
 3509TIP3    H110491   1.618   2.350   5.329
 3509TIP3    H210492   1.710   2.246   5.390
 3510TIP3   OH210493   4.633   2.478   4.717
 3510TIP3    H110494   4.567   2.410   4.703
 3510TIP3    H210495   4.668   2.460   4.804
 3511TIP3   OH210496   6.294   0.168   4.198
 3511TIP3    H110497   6.256   0.082   4.180
 3511TIP3    H210498   6.228   0.213   4.252
 3512TIP3   OH210499   6.095   3.653   2.069
 3512TIP3    H110500   6.094   3.638   2.164
 3512TIP3    H210501   6.066   3.744   2.059
 3513TIP3   OH210502   4.135   4.093   0.304
 3513TIP3    H110503   4.111   4.105   0.396
 3513TIP3    H210504   4.230   4.082   0.306
 3514TIP3   OH210505   0.454   0.465   5.663
 3514TIP3    H110506   0.535   0.512   5.681
 3514TIP3    H210507   0.411   0.515   5.594
 3515TIP3   OH210508   4.532   0.385   4.367
 3515TIP3    H110509   4.457   0.356   4.419
 3515TIP3    H210510   4.601   0.401   4.432
 3516TIP3   OH210511   3.414   5.248   5.800
 3516TIP3    H110512   3.444   5.336   5.825
 3516TIP3    H210513   3.458   5.189   5.862
 3517TIP3   OH210514   6.884   4.644   4.895
 3517TIP3    H110515   6.827   4.568   4.887
 3517TIP3    H210516   6.825   4.719   4.896
 3518TIP3   OH210517   0.535   2.865   0.679
 3518TIP3    H110518   0.469   2.826   0.622
 3518TIP3    H210519   0.500   2.852   0.768
 3519TIP3   OH210520   1.283   5.762   2.095
 3519TIP3    H110521   1.242   5.743   2.180
 3519TIP3    H210522   1.307   5.855   2.100
 3520TIP3   OH210523   6.169   6.285   2.310
 3520TIP3    H110524   6.192   6.246   2.394
 3520TIP3    H210525   6.131   6.214   2.260
 3521TIP3   OH210526   0.817   1.624   2.575
 3521TIP3    H110527   0.864   1.619   2.658
 3521TIP3    H210528   0.885   1.610   2.508
 3522TIP3   OH210529   7.018   1.032   3.523
 3522TIP3    H110530   7.113   1.032   3.539
 3522TIP3    H210531   7.004   1.108   3.467
 3523TIP3   OH210532   1.482   2.631   4.482
 3523TIP3    H110533   1.392   2.601   4.491
 3523TIP3    H210534   1.535   2.555   4.506
 3524TIP3   OH210535   4.613   3.006   5.256
 3524TIP3    H110536   4.669   3.081   5.276
 3524TIP3    H210537   4.560   3.034   5.181
 3525TIP3   OH210538   4.099   6.467   0.592
 3525TIP3    H110539   4.187   6.463   0.629
 3525TIP3    H210540   4.064   6.551   0.622
 3526TIP3   OH210541   3.048   5.672   5.083
 3526TIP3    H110542   3.136   5.636   5.093
 3526TIP3    H210543   3.062   5.755   5.037
 3527TIP3   OH210544   5.107   3.478   4.577
 3527TIP3    H110545   5.062   3.416   4.634
 3527TIP3    H210546   5.086   3.564   4.614
 3528TIP3   OH210547   2.998   0.285   2.672
 3528TIP3    H110548   3.083   0.321   2.695
 3528TIP3    H210549   2.949   0.284   2.754
 3529TIP3   OH210550   1.252   0.505   1.927
 3529TIP3    H110551   1.259   0.414   1.957
 3529TIP3    H210552   1.237   0.497   1.832
 3530TIP3   OH210553   4.420   1.318   3.942
 3530TIP3    H110554   4.389   1.310   4.032
 3530TIP3    H210555   4.378   1.398   3.909
 3531TIP3   OH210556   1.175   1.835   4.965
 3531TIP3    H110557   1.117   1.761   4.983
 3531TIP3    H210558   1.262   1.794   4.953
 3532TIP3   OH210559   1.589   6.595   0.301
 3532TIP3    H110560   1.653   6.544   0.350
 3532TIP3    H210561   1.504   6.572   0.339
 3533TIP3   OH210562   1.783   0.093   4.679
 3533TIP3    H110563   1.849   0.144   4.631
 3533TIP3    H210564   1.832   0.018   4.713
 3534TIP3   OH210565   5.703   3.368   4.936
 3534TIP3    H110566   5.767   3.297   4.937
 3534TIP3    H210567   5.651   3.354   5.015
 3535TIP3   OH210568   2.600   1.231   1.260
 3535TIP3    H110569   2.569   1.294   1.195
 3535TIP3    H210570   2.608   1.148   1.211
 3536TIP3   OH210571   5.016   4.362   4.147
 3536TIP3    H110572   5.102   4.362   4.189
 3536TIP3    H210573   5.035   4.367   4.053
 3537TIP3   OH210574   5.731   1.029   1.572
 3537TIP3    H110575   5.663   0.978   1.615
 3537TIP3    H210576   5.715   1.119   1.600
 3538TIP3   OH210577   5.611   1.753   5.866
 3538TIP3    H110578   5.552   1.770   5.939
 3538TIP3    H210579   5.554   1.739   5.791
 3539TIP3   OH210580   3.012   4.532   2.964
 3539TIP3    H110581   3.068   4.583   2.906
 3539TIP3    H210582   3.040   4.555   3.052
 3540TIP3   OH210583   4.976   5.994   1.980
 3540TIP3    H110584   4.926   5.912   1.982
 3540TIP3    H210585   5.025   5.995   2.062
 3541TIP3   OH210586   6.012   5.074   1.493
 3541TIP3    H110587   6.007   5.080   1.397
 3541TIP3    H210588   6.066   4.997   1.510
 3542TIP3   OH210589   3.543   5.134   4.182
 3542TIP3    H110590   3.573   5.187   4.108
 3542TIP3    H210591   3.467   5.087   4.149
 3543TIP3   OH210592   0.701   5.623   4.783
 3543TIP3    H110593   0.626   5.597   4.729
 3543TIP3    H210594   0.775   5.624   4.722
 3544TIP3   OH210595   0.519   2.196   4.148
 3544TIP3    H110596   0.556   2.234   4.068
 3544TIP3    H210597   0.567   2.239   4.219
 3545TIP3   OH210598   3.231   0.504   1.974
 3545TIP3    H110599   3.277   0.445   1.915
 3545TIP3    H210600   3.153   0.455   2.002
 3546TIP3   OH210601   0.828   6.634   3.792
 3546TIP3    H110602   0.743   6.598   3.764
 3546TIP3    H210603   0.831   6.721   3.753
 3547TIP3   OH210604   6.101   2.419   0.381
 3547TIP3    H110605   6.177   2.368   0.352
 3547TIP3    H210606   6.027   2.381   0.334
 3548TIP3   OH210607   3.923   3.169   4.173
 3548TIP3    H110608   3.970   3.249   4.195
 3548TIP3    H210609   3.991   3.106   4.150
 3549TIP3   OH210610   1.209   4.057   5.770
 3549TIP3    H110611   1.182   4.115   5.699
 3549TIP3    H210612   1.232   3.975   5.726
 3550TIP3   OH210613   0.192   6.179   1.105
 3550TIP3    H110614   0.178   6.151   1.015
 3550TIP3    H210615   0.239   6.263   1.097
 3551TIP3   OH210616   1.498   0.096   5.207
 3551TIP3    H110617   1.460   0.119   5.292
 3551TIP3    H210618   1.573   0.040   5.228
 3552TIP3   OH210619   5.826   3.166   2.210
 3552TIP3    H110620   5.820   3.198   2.300
 3552TIP3    H210621   5.759   3.215   2.163
 3553TIP3   OH210622   6.010   3.567   3.098
 3553TIP3    H110623   6.030   3.616   3.177
 3553TIP3    H210624   6.018   3.630   3.027
 3554TIP3   OH210625   6.447   1.717   0.678
 3554TIP3    H110626   6.398   1.690   0.756
 3554TIP3    H210627   6.525   1.759   0.713
 3555TIP3   OH210628   2.820   3.509   4.715
 3555TIP3    H110629   2.815   3.428   4.764
 3555TIP3    H210630   2.737   3.554   4.733
 3556TIP3   OH210631   5.386   4.970   0.577
 3556TIP3    H110632   5.418   5.029   0.508
 3556TIP3    H210633   5.411   4.883   0.547
 3557TIP3   OH210634   6.450   0.645   3.419
 3557TIP3    H110635   6.405   0.571   3.377
 3557TIP3    H210636   6.395   0.667   3.494
 3558TIP3   OH210637   0.428   2.659   4.071
 3558TIP3    H110638   0.468   2.697   3.993
 3558TIP3    H210639   0.422   2.733   4.132
 3559TIP3   OH210640   6.952   4.437   1.616
 3559TIP3    H110641   7.029   4.493   1.606
 3559TIP3    H210642   6.959   4.401   1.705
 3560TIP3   OH210643   3.160   4.786   5.543
 3560TIP3    H110644   3.089   4.734   5.504
 3560TIP3    H210645   3.187   4.846   5.474
 3561TIP3   OH210646   4.511   6.125   5.793
 3561TIP3    H110647   4.483   6.216   5.800
 3561TIP3    H210648   4.558   6.120   5.710
 3562TIP3   OH210649   3.170   3.211   4.797
 3562TIP3    H110650   3.179   3.169   4.882
 3562TIP3    H210651   3.257   3.247   4.779
 3563TIP3   OH210652   1.529   4.245   4.698
 3563TIP3    H110653   1.488   4.172   4.651
 3563TIP3    H210654   1.597   4.204   4.751
 3564TIP3   OH210655   2.409   1.492   5.046
 3564TIP3    H110656   2.385   1.569   5.098
 3564TIP3    H210657   2.423   1.526   4.958
 3565TIP3   OH210658   3.495   3.633   3.867
 3565TIP3    H110659   3.420   3.628   3.808
 3565TIP3    H210660   3.458   3.657   3.952
 3566TIP3   OH210661   4.487   3.297   1.456
 3566TIP3    H110662   4.450   3.236   1.393
 3566TIP3    H210663   4.526   3.242   1.524
 3567TIP3   OH210664   4.388   6.578   4.706
 3567TIP3    H110665   4.476   6.581   4.743
 3567TIP3    H210666   4.329   6.578   4.781
 3568TIP3   OH210667   3.957   3.689   3.790
 3568TIP3    H110668   3.881   3.644   3.753
 3568TIP3    H210669   3.959   3.661   3.881
 3569TIP3   OH210670   1.264   2.972   3.825
 3569TIP3    H110671   1.195   2.956   3.760
 3569TIP3    H210672   1.234   2.927   3.903
 3570TIP3   OH210673   7.074   0.685   4.347
 3570TIP3    H110674   7.066   0.764   4.401
 3570TIP3    H210675   7.162   0.691   4.310
 3571TIP3   OH210676   2.016   4.209   2.783
 3571TIP3    H110677   1.953   4.167   2.724
 3571TIP3    H210678   2.096   4.215   2.731
 3572TIP3   OH210679   2.317   5.509   2.566
 3572TIP3    H110680   2.294   5.417   2.550
 3572TIP3    H210681   2.412   5.509   2.571
 3573TIP3   OH210682   6.504   2.368   5.423
 3573TIP3    H110683   6.484   2.438   5.485
 3573TIP3    H210684   6.599   2.373   5.411
 3574TIP3   OH210685   2.193   4.746   3.203
 3574TIP3    H110686   2.196   4.748   3.298
 3574TIP3    H210687   2.159   4.832   3.178
 3575TIP3   OH210688   1.690   6.589   2.102
 3575TIP3    H110689   1.755   6.619   2.039
 3575TIP3    H210690   1.607   6.596   2.054
 3576TIP3   OH210691   5.360   0.580   1.479
 3576TIP3    H110692   5.361   0.497   1.526
 3576TIP3    H210693   5.340   0.556   1.388
 3577TIP3   OH210694   0.819   3.031   1.974
 3577TIP3    H110695   0.786   3.113   1.937
 3577TIP3    H210696   0.914   3.036   1.961
 3578TIP3   OH210697   6.623   6.038   4.477
 3578TIP3    H110698   6.601   6.023   4.568
 3578TIP3    H210699   6.652   6.129   4.473
 3579TIP3   OH210700   1.371   3.190   0.401
 3579TIP3    H110701   1.393   3.282   0.393
 3579TIP3    H210702   1.284   3.189   0.441
 3580TIP3   OH210703   2.644   2.824   2.112
 3580TIP3    H110704   2.700   2.747   2.101
 3580TIP3    H210705   2.643   2.840   2.207
 3581TIP3   OH210706   1.675   5.145   0.583
 3581TIP3    H110707   1.687   5.210   0.514
 3581TIP3    H210708   1.739   5.077   0.563
 3582TIP3   OH210709   4.815   3.039   0.947
 3582TIP3    H110710   4.752   3.002   0.885
 3582TIP3    H210711   4.781   3.014   1.033
 3583TIP3   OH210712   6.236   5.477   3.732
 3583TIP3    H110713   6.145   5.488   3.760
 3583TIP3    H210714   6.281   5.555   3.765
 3584TIP3   OH210715   0.283   4.078   1.933
 3584TIP3    H110716   0.250   4.104   1.847
 3584TIP3    H210717   0.366   4.126   1.942
 3585TIP3   OH210718   6.125   4.032   5.178
 3585TIP3    H110719   6.122   4.119   5.218
 3585TIP3    H210720   6.187   3.983   5.233
 3586TIP3   OH210721   3.720   2.160   4.019
 3586TIP3    H110722   3.726   2.242   3.971
 3586TIP3    H210723   3.682   2.098   3.957
 3587TIP3   OH210724   4.403   2.346   2.718
 3587TIP3    H110725   4.372   2.306   2.637
 3587TIP3    H210726   4.498   2.334   2.717
 3588TIP3   OH210727   2.340   5.563   4.975
 3588TIP3    H110728   2.244   5.555   4.979
 3588TIP3    H210729   2.360   5.633   5.037
 3589TIP3   OH210730   3.293   2.101   3.732
 3589TIP3    H110731   3.258   2.128   3.817
 3589TIP3    H210732   3.325   2.012   3.747
 3590TIP3   OH210733   5.011   6.520   0.700
 3590TIP3    H110734   4.987   6.485   0.785
 3590TIP3    H210735   5.020   6.615   0.714
 3591TIP3   OH210736   0.942   2.616   3.728
 3591TIP3    H110737   0.919   2.557   3.656
 3591TIP3    H210738   0.979   2.559   3.795
 3592TIP3   OH210739   0.975   2.181   4.203
 3592TIP3    H110740   0.953   2.101   4.154
 3592TIP3    H210741   0.965   2.251   4.139
 3593TIP3   OH210742   2.750   5.461   4.311
 3593TIP3    H110743   2.717   5.479   4.399
 3593TIP3    H210744   2.684   5.402   4.272
 3594TIP3   OH210745   0.474   3.287   4.894
 3594TIP3    H110746   0.383   3.318   4.892
 3594TIP3    H210747   0.509   3.321   4.976
 3595TIP3   OH210748   2.057   0.791   4.758
 3595TIP3    H110749   1.985   0.807   4.819
 3595TIP3    H210750   2.031   0.838   4.678
 3596TIP3   OH210751   4.003   5.913   3.716
 3596TIP3    H110752   4.027   6.005   3.715
 3596TIP3    H210753   3.988   5.891   3.624
 3597TIP3   OH210754   6.360   1.009   4.585
 3597TIP3    H110755   6.299   1.068   4.628
 3597TIP3    H210756   6.446   1.033   4.619
 3598TIP3   OH210757   5.352   4.816   5.369
 3598TIP3    H110758   5.313   4.729   5.371
 3598TIP3    H210759   5.387   4.829   5.458
 3599TIP3   OH210760   3.173   1.074   2.923
 3599TIP3    H110761   3.215   0.990   2.901
 3599TIP3    H210762   3.177   1.124   2.841
 3600TIP3   OH210763   5.288   1.093   0.808
 3600TIP3    H110764   5.196   1.066   0.804
 3600TIP3    H210765   5.294   1.168   0.749
 3601TIP3   OH210766   1.508   1.824   2.679
 3601TIP3    H110767   1.472   1.912   2.670
 3601TIP3    H210768   1.596   1.831   2.642
 3602TIP3   OH210769   0.540   6.372   2.741
 3602TIP3    H110770   0.604   6.418   2.687
 3602TIP3    H210771   0.559   6.279   2.728
 3603TIP3   OH210772   2.492   3.220   0.159
 3603TIP3    H110773   2.528   3.160   0.224
 3603TIP3    H210774   2.564   3.236   0.098
 3604TIP3   OH210775   2.282   1.172   0.942
 3604TIP3    H110776   2.232   1.112   0.886
 3604TIP3    H210777   2.223   1.191   1.014
 3605TIP3   OH210778   7.093   3.533   2.222
 3605TIP3    H110779   7.057   3.466   2.164
 3605TIP3    H210780   7.170   3.566   2.175
 3606TIP3   OH210781   3.817   1.496   3.633
 3606TIP3    H110782   3.906   1.480   3.666
 3606TIP3    H210783   3.787   1.572   3.683
 3607TIP3   OH210784   5.561   4.768   1.468
 3607TIP3    H110785   5.474   4.731   1.456
 3607TIP3    H210786   5.585   4.744   1.557
 3608TIP3   OH210787   3.855   6.298   2.737
 3608TIP3    H110788   3.933   6.318   2.687
 3608TIP3    H210789   3.818   6.383   2.760
 3609TIP3   OH210790   0.777   6.666   1.020
 3609TIP3    H110791   0.747   6.732   1.082
 3609TIP3    H210792   0.866   6.644   1.050
 3610TIP3   OH210793   0.410   2.156   3.000
 3610TIP3    H110794   0.414   2.068   3.037
 3610TIP3    H210795   0.473   2.206   3.050
 3611TIP3   OH210796   0.062   5.826   3.166
 3611TIP3    H110797   0.028   5.794   3.082
 3611TIP3    H210798   0.044   5.920   3.164
 3612TIP3   OH210799   4.996   2.546   1.754
 3612TIP3    H110800   5.022   2.561   1.663
 3612TIP3    H210801   4.914   2.498   1.748
 3613TIP3   OH210802   2.304   0.605   5.661
 3613TIP3    H110803   2.283   0.540   5.729
 3613TIP3    H210804   2.332   0.552   5.586
 3614TIP3   OH210805   4.582   0.153   3.804
 3614TIP3    H110806   4.583   0.058   3.793
 3614TIP3    H210807   4.516   0.169   3.872
 3615TIP3   OH210808   4.164   3.362   1.590
 3615TIP3    H110809   4.159   3.364   1.685
 3615TIP3    H210810   4.193   3.449   1.565
 3616TIP3   OH210811   4.338   2.263   3.389
 3616TIP3    H110812   4.343   2.272   3.293
 3616TIP3    H210813   4.353   2.169   3.404
 3617TIP3   OH210814   5.027   0.199   4.894
 3617TIP3    H110815   5.095   0.254   4.855
 3617TIP3    H210816   5.036   0.213   4.989
 3618TIP3   OH210817   0.646   1.393   1.135
 3618TIP3    H110818   0.605   1.352   1.059
 3618TIP3    H210819   0.647   1.487   1.114
 3619TIP3   OH210820   0.231   3.418   2.099
 3619TIP3    H110821   0.167   3.480   2.063
 3619TIP3    H210822   0.316   3.452   2.070
 3620TIP3   OH210823   2.131   6.546   4.033
 3620TIP3    H110824   2.156   6.455   4.051
 3620TIP3    H210825   2.213   6.595   4.041
 3621TIP3   OH210826   0.913   4.675   5.155
 3621TIP3    H110827   0.952   4.629   5.081
 3621TIP3    H210828   0.836   4.720   5.118
 3622TIP3   OH210829   2.924   0.772   0.066
 3622TIP3    H110830   2.972   0.708   0.014
 3622TIP3    H210831   2.946   0.856   0.025
 3623TIP3   OH210832   4.342   2.737   2.257
 3623TIP3    H110833   4.322   2.749   2.164
 3623TIP3    H210834   4.371   2.646   2.264
 3624TIP3   OH210835   5.873   1.649   5.829
 3624TIP3    H110836   5.791   1.672   5.873
 3624TIP3    H210837   5.938   1.646   5.899
 3625TIP3   OH210838   5.358   0.761   4.051
 3625TIP3    H110839   5.417   0.733   4.120
 3625TIP3    H210840   5.272   0.727   4.077
 3626TIP3   OH210841   6.710   6.608   4.473
 3626TIP3    H110842   6.668   6.691   4.450
 3626TIP3    H210843   6.754   6.580   4.393
 3627TIP3   OH210844   5.296   2.215   5.017
 3627TIP3    H110845   5.325   2.251   5.100
 3627TIP3    H210846   5.375   2.179   4.977
 3628TIP3   OH210847   1.769   5.801   2.086
 3628TIP3    H110848   1.785   5.892   2.112
 3628TIP3    H210849   1.706   5.769   2.150
 3629TIP3   OH210850   5.080   2.828   1.825
 3629TIP3    H110851   5.119   2.857   1.742
 3629TIP3    H210852   5.102   2.735   1.830
 3630TIP3   OH210853   0.090   4.990   4.089
 3630TIP3    H110854   0.078   5.032   4.174
 3630TIP3    H210855   0.038   5.043   4.028
 3631TIP3   OH210856   3.906   5.668   2.707
 3631TIP3    H110857   3.823   5.691   2.749
 3631TIP3    H210858   3.970   5.669   2.778
 3632TIP3   OH210859   0.504   4.519   3.987
 3632TIP3    H110860   0.454   4.514   4.069
 3632TIP3    H210861   0.447   4.479   3.922
 3633TIP3   OH210862   4.683   6.068   4.955
 3633TIP3    H110863   4.752   6.062   5.021
 3633TIP3    H210864   4.689   6.157   4.921
 3634TIP3   OH210865   3.592   0.043   1.626
 3634TIP3    H110866   3.589   0.109   1.696
 3634TIP3    H210867   3.644   0.084   1.557
 3635TIP3   OH210868   6.715   3.280   0.289
 3635TIP3    H110869   6.689   3.372   0.290
 3635TIP3    H210870   6.773   3.272   0.214
 3636TIP3   OH210871   4.634   2.381   1.443
 3636TIP3    H110872   4.550   2.377   1.488
 3636TIP3    H210873   4.614   2.355   1.353
 3637TIP3   OH210874   2.509   6.751   1.643
 3637TIP3    H110875   2.591   6.758   1.594
 3637TIP3    H210876   2.517   6.669   1.692
 3638TIP3   OH210877   7.054   5.147   0.522
 3638TIP3    H110878   7.003   5.099   0.456
 3638TIP3    H210879   7.069   5.083   0.592
 3639TIP3   OH210880   5.874   4.351   5.131
 3639TIP3    H110881   5.920   4.365   5.048
 3639TIP3    H210882   5.888   4.432   5.180
 3640TIP3   OH210883   2.735   2.042   0.170
 3640TIP3    H110884   2.735   2.105   0.242
 3640TIP3    H210885   2.727   2.096   0.091
 3641TIP3   OH210886   2.483   2.694   4.027
 3641TIP3    H110887   2.506   2.610   4.066
 3641TIP3    H210888   2.479   2.754   4.102
 3642TIP3   OH210889   1.423   4.182   0.046
 3642TIP3    H110890   1.353   4.183   0.112
 3642TIP3    H210891   1.479   4.256   0.070
 3643TIP3   OH210892   3.383   3.215   0.068
 3643TIP3    H110893   3.362   3.235  -0.023
 3643TIP3    H210894   3.312   3.158   0.097
 3644TIP3   OH210895   1.354   2.955   5.737
 3644TIP3    H110896   1.290   2.903   5.688
 3644TIP3    H210897   1.303   2.998   5.806
 3645TIP3   OH210898   1.822   0.150   0.811
 3645TIP3    H110899   1.759   0.081   0.789
 3645TIP3    H210900   1.901   0.103   0.838
 3646TIP3   OH210901   2.174   0.645   4.522
 3646TIP3    H110902   2.159   0.722   4.578
 3646TIP3    H210903   2.251   0.668   4.471
 3647TIP3   OH210904   6.704   0.400   0.531
 3647TIP3    H110905   6.761   0.349   0.473
 3647TIP3    H210906   6.695   0.345   0.609
 3648TIP3   OH210907   6.088   5.632   4.644
 3648TIP3    H110908   6.119   5.712   4.602
 3648TIP3    H210909   6.032   5.591   4.578
 3649TIP3   OH210910   1.652   5.419   1.048
 3649TIP3    H110911   1.683   5.415   0.957
 3649TIP3    H210912   1.695   5.496   1.084
 3650TIP3   OH210913   5.603   2.483   5.664
 3650TIP3    H110914   5.627   2.515   5.750
 3650TIP3    H210915   5.562   2.398   5.680
 3651TIP3   OH210916   5.118   6.036   0.715
 3651TIP3    H110917   5.196   6.063   0.763
 3651TIP3    H210918   5.094   6.112   0.662
 3652TIP3   OH210919   3.124   5.410   4.383
 3652TIP3    H110920   3.197   5.348   4.379
 3652TIP3    H210921   3.147   5.478   4.320
 3653TIP3   OH210922   0.414   3.013   1.050
 3653TIP3    H110923   0.434   2.920   1.058
 3653TIP3    H210924   0.388   3.025   0.959
 3654TIP3   OH210925   1.386   6.464   2.036
 3654TIP3    H110926   1.365   6.516   1.958
 3654TIP3    H210927   1.366   6.522   2.109
 3655TIP3   OH210928   5.692   2.040   2.813
 3655TIP3    H110929   5.704   2.119   2.867
 3655TIP3    H210930   5.701   1.967   2.874
 3656TIP3   OH210931   2.740   1.047   5.711
 3656TIP3    H110932   2.740   1.063   5.805
 3656TIP3    H210933   2.764   1.130   5.671
 3657TIP3   OH210934   0.498   1.858   1.549
 3657TIP3    H110935   0.425   1.809   1.587
 3657TIP3    H210936   0.553   1.881   1.624
 3658TIP3   OH210937   5.510   3.303   0.334
 3658TIP3    H110938   5.547   3.375   0.285
 3658TIP3    H210939   5.579   3.277   0.396
 3659TIP3   OH210940   3.630   4.042   3.297
 3659TIP3    H110941   3.624   3.982   3.371
 3659TIP3    H210942   3.539   4.062   3.276
 3660TIP3   OH210943   2.465   4.653   4.050
 3660TIP3    H110944   2.423   4.604   4.120
 3660TIP3    H210945   2.452   4.600   3.971
 3661TIP3   OH210946   0.913   4.005   3.220
 3661TIP3    H110947   0.902   3.961   3.305
 3661TIP3    H210948   0.846   3.964   3.164
 3662TIP3   OH210949   6.458   0.487   1.465
 3662TIP3    H110950   6.485   0.536   1.387
 3662TIP3    H210951   6.372   0.522   1.487
 3663TIP3   OH210952   7.136   2.770   4.827
 3663TIP3    H110953   7.138   2.820   4.909
 3663TIP3    H210954   7.228   2.763   4.801
 3664TIP3   OH210955   1.072   3.045   0.425
 3664TIP3    H110956   1.039   3.012   0.509
 3664TIP3    H210957   1.104   2.966   0.380
 3665TIP3   OH210958   4.217   4.465   1.433
 3665TIP3    H110959   4.208   4.454   1.338
 3665TIP3    H210960   4.286   4.403   1.457
 3666TIP3   OH210961   5.589   2.390   4.344
 3666TIP3    H110962   5.529   2.456   4.309
 3666TIP3    H210963   5.608   2.333   4.269
 3667TIP3   OH210964   6.219   2.845   1.486
 3667TIP3    H110965   6.151   2.811   1.427
 3667TIP3    H210966   6.299   2.843   1.434
 3668TIP3   OH210967   2.612   4.857   1.379
 3668TIP3    H110968   2.606   4.944   1.419
 3668TIP3    H210969   2.703   4.851   1.348
 3669TIP3   OH210970   5.807   2.989   0.868
 3669TIP3    H110971   5.867   2.985   0.943
 3669TIP3    H210972   5.861   2.964   0.793
 3670TIP3   OH210973   6.701   2.744   5.728
 3670TIP3    H110974   6.746   2.737   5.644
 3670TIP3    H210975   6.629   2.804   5.712
 3671TIP3   OH210976   0.224   3.786   1.755
 3671TIP3    H110977   0.231   3.816   1.665
 3671TIP3    H210978   0.311   3.803   1.792
 3672TIP3   OH210979   0.633   1.150   4.165
 3672TIP3    H110980   0.677   1.093   4.102
 3672TIP3    H210981   0.643   1.106   4.249
 3673TIP3   OH210982   6.417   3.191   4.260
 3673TIP3    H110983   6.430   3.097   4.269
 3673TIP3    H210984   6.327   3.200   4.230
 3674TIP3   OH210985   4.845   6.768   1.026
 3674TIP3    H110986   4.759   6.738   1.056
 3674TIP3    H210987   4.826   6.846   0.973
 3675TIP3   OH210988   6.597   5.405   2.009
 3675TIP3    H110989   6.502   5.409   1.997
 3675TIP3    H210990   6.609   5.354   2.090
 3676TIP3   OH210991   2.419   4.183   4.637
 3676TIP3    H110992   2.503   4.227   4.636
 3676TIP3    H210993   2.407   4.152   4.548
 3677TIP3   OH210994   5.864   0.636   2.821
 3677TIP3    H110995   5.959   0.637   2.837
 3677TIP3    H210996   5.843   0.726   2.796
 3678TIP3   OH210997   4.270   3.939   2.282
 3678TIP3    H110998   4.258   4.028   2.315
 3678TIP3    H210999   4.292   3.950   2.190
 3679TIP3   OH211000   1.512   5.044   5.438
 3679TIP3    H111001   1.583   4.985   5.462
 3679TIP3    H211002   1.471   5.003   5.362
 3680TIP3   OH211003   4.065   0.048   0.206
 3680TIP3    H111004   4.009  -0.026   0.231
 3680TIP3    H211005   4.070   0.043   0.111
 3681TIP3   OH211006   2.009   2.800   4.139
 3681TIP3    H111007   2.011   2.728   4.076
 3681TIP3    H211008   1.938   2.856   4.108
 3682TIP3   OH211009   3.237   0.599   0.676
 3682TIP3    H111010   3.205   0.537   0.741
 3682TIP3    H211011   3.331   0.579   0.667
 3683TIP3   OH211012   3.902   4.736   3.077
 3683TIP3    H111013   3.872   4.699   3.160
 3683TIP3    H211014   3.972   4.797   3.101
 3684TIP3   OH211015   7.051   2.916   1.090
 3684TIP3    H111016   7.138   2.902   1.129
 3684TIP3    H211017   7.015   2.828   1.081
 3685TIP3   OH211018   0.141   3.551   0.898
 3685TIP3    H111019   0.057   3.586   0.868
 3685TIP3    H211020   0.180   3.514   0.818
 3686TIP3   OH211021   5.132   0.266   0.210
 3686TIP3    H111022   5.199   0.334   0.219
 3686TIP3    H211023   5.065   0.306   0.154
 3687TIP3   OH211024   0.616   1.566   4.724
 3687TIP3    H111025   0.570   1.510   4.786
 3687TIP3    H211026   0.579   1.542   4.639
 3688TIP3   OH211027   6.862   5.477   1.984
 3688TIP3    H111028   6.779   5.433   2.006
 3688TIP3    H211029   6.902   5.420   1.918
 3689TIP3   OH211030   2.778   6.577   1.198
 3689TIP3    H111031   2.738   6.625   1.271
 3689TIP3    H211032   2.872   6.580   1.216
 3690TIP3   OH211033   4.252   2.310   0.475
 3690TIP3    H111034   4.209   2.395   0.489
 3690TIP3    H211035   4.338   2.332   0.441
 3691TIP3   OH211036   2.858   3.954   0.213
 3691TIP3    H111037   2.903   4.038   0.208
 3691TIP3    H211038   2.773   3.969   0.170
 3692TIP3   OH211039   3.373   2.632   5.821
 3692TIP3    H111040   3.291   2.601   5.860
 3692TIP3    H211041   3.420   2.675   5.892
 3693TIP3   OH211042   6.031   3.036   3.483
 3693TIP3    H111043   6.109   3.007   3.436
 3693TIP3    H211044   6.056   3.121   3.520
 3694TIP3   OH211045   1.054   5.082   5.586
 3694TIP3    H111046   0.976   5.101   5.533
 3694TIP3    H211047   1.019   5.059   5.672
 3695TIP3   OH211048   4.062   1.187   3.166
 3695TIP3    H111049   4.011   1.247   3.221
 3695TIP3    H211050   4.016   1.103   3.174
 3696TIP3   OH211051   5.276   0.324   4.315
 3696TIP3    H111052   5.284   0.356   4.405
 3696TIP3    H211053   5.200   0.371   4.279
 3697TIP3   OH211054   5.837   4.596   1.685
 3697TIP3    H111055   5.868   4.634   1.603
 3697TIP3    H211056   5.887   4.515   1.694
 3698TIP3   OH211057   4.205   1.207   0.527
 3698TIP3    H111058   4.194   1.301   0.542
 3698TIP3    H211059   4.230   1.200   0.435
 3699TIP3   OH211060   3.145   5.363   0.384
 3699TIP3    H111061   3.137   5.349   0.479
 3699TIP3    H211062   3.240   5.362   0.368
 3700TIP3   OH211063   1.706  -0.009   3.502
 3700TIP3    H111064   1.767  -0.083   3.506
 3700TIP3    H211065   1.760   0.066   3.477
 3701TIP3   OH211066   1.989   6.709   2.440
 3701TIP3    H111067   1.955   6.792   2.474
 3701TIP3    H211068   1.965   6.710   2.347
 3702TIP3   OH211069   1.490   3.359   2.717
 3702TIP3    H111070   1.521   3.290   2.775
 3702TIP3    H211071   1.492   3.438   2.771
 3703TIP3   OH211072   5.345   1.072   3.391
 3703TIP3    H111073   5.332   1.147   3.450
 3703TIP3    H211074   5.340   0.995   3.448
 3704TIP3   OH211075   4.743   5.184   1.248
 3704TIP3    H111076   4.804   5.134   1.194
 3704TIP3    H211077   4.660   5.180   1.201
 3705TIP3   OH211078   1.644   5.364   4.623
 3705TIP3    H111079   1.664   5.400   4.709
 3705TIP3    H211080   1.553   5.334   4.631
 3706TIP3   OH211081   0.846   3.922   2.500
 3706TIP3    H111082   0.863   3.828   2.498
 3706TIP3    H211083   0.916   3.961   2.448
 3707TIP3   OH211084   2.352   3.436   1.124
 3707TIP3    H111085   2.378   3.503   1.187
 3707TIP3    H211086   2.317   3.364   1.177
 3708TIP3   OH211087   6.907   0.428   5.052
 3708TIP3    H111088   6.980   0.439   4.991
 3708TIP3    H211089   6.912   0.336   5.079
 3709TIP3   OH211090   2.893   1.095   1.197
 3709TIP3    H111091   2.927   1.142   1.121
 3709TIP3    H211092   2.801   1.079   1.176
 3710TIP3   OH211093   6.189   2.278   0.008
 3710TIP3    H111094   6.217   2.341   0.074
 3710TIP3    H211095   6.271   2.250  -0.034
 3711TIP3   OH211096   0.408   2.364   5.548
 3711TIP3    H111097   0.371   2.401   5.468
 3711TIP3    H211098   0.349   2.292   5.570
 3712TIP3   OH211099   1.861   0.018   4.091
 3712TIP3    H111100   1.949   0.032   4.127
 3712TIP3    H211101   1.802   0.037   4.164
 3713TIP3   OH211102   0.203   2.063   2.614
 3713TIP3    H111103   0.117   2.026   2.634
 3713TIP3    H211104   0.193   2.157   2.627
 3714TIP3   OH211105   3.383   1.336   2.997
 3714TIP3    H111106   3.318   1.393   2.954
 3714TIP3    H211107   3.422   1.286   2.926
 3715TIP3   OH211108   4.116   2.603   2.581
 3715TIP3    H111109   4.139   2.548   2.506
 3715TIP3    H211110   4.195   2.605   2.635
 3716TIP3   OH211111   4.190   0.580   0.058
 3716TIP3    H111112   4.174   0.672   0.079
 3716TIP3    H211113   4.252   0.550   0.124
 3717TIP3   OH211114   3.393   3.346   4.789
 3717TIP3    H111115   3.437   3.422   4.827
 3717TIP3    H211116   3.464   3.289   4.760
 3718TIP3   OH211117   7.093   6.777   3.043
 3718TIP3    H111118   7.085   6.816   3.130
 3718TIP3    H211119   7.014   6.725   3.032
 3719TIP3   OH211120   6.153   4.033   4.912
 3719TIP3    H111121   6.201   4.115   4.902
 3719TIP3    H211122   6.142   4.023   5.007
 3720TIP3   OH211123   3.115   6.214   0.399
 3720TIP3    H111124   3.041   6.159   0.422
 3720TIP3    H211125   3.092   6.301   0.432
 3721TIP3   OH211126   5.573   3.122   2.668
 3721TIP3    H111127   5.651   3.110   2.722
 3721TIP3    H211128   5.552   3.215   2.675
 3722TIP3   OH211129   6.711   6.665   2.030
 3722TIP3    H111130   6.802   6.667   2.059
 3722TIP3    H211131   6.663   6.711   2.098
 3723TIP3   OH211132   0.683   0.123   0.755
 3723TIP3    H111133   0.728   0.043   0.726
 3723TIP3    H211134   0.603   0.125   0.703
 3724TIP3   OH211135   6.896   0.153   1.140
 3724TIP3    H111136   6.891   0.179   1.048
 3724TIP3    H211137   6.843   0.218   1.186
 3725TIP3   OH211138   0.137   3.873   1.171
 3725TIP3    H111139   0.050   3.910   1.156
 3725TIP3    H211140   0.193   3.918   1.109
 3726TIP3   OH211141   2.881   4.720   2.652
 3726TIP3    H111142   2.937   4.659   2.701
 3726TIP3    H211143   2.836   4.770   2.720
 3727TIP3   OH211144   0.257   0.802   2.345
 3727TIP3    H111145   0.262   0.739   2.417
 3727TIP3    H211146   0.163   0.812   2.328
 3728TIP3   OH211147   6.562   2.920   5.182
 3728TIP3    H111148   6.469   2.912   5.158
 3728TIP3    H211149   6.561   2.973   5.262
 3729TIP3   OH211150   4.218   2.281   1.507
 3729TIP3    H111151   4.227   2.375   1.493
 3729TIP3    H211152   4.132   2.271   1.548
 3730TIP3   OH211153   7.042   2.832   3.511
 3730TIP3    H111154   7.087   2.837   3.595
 3730TIP3    H211155   7.111   2.848   3.446
 3731TIP3   OH211156   4.186   6.550   4.209
 3731TIP3    H111157   4.204   6.461   4.239
 3731TIP3    H211158   4.093   6.564   4.229
 3732TIP3   OH211159   5.686   5.083   5.421
 3732TIP3    H111160   5.630   5.053   5.350
 3732TIP3    H211161   5.744   5.147   5.379
 3733TIP3   OH211162   3.250   2.890   3.466
 3733TIP3    H111163   3.165   2.851   3.447
 3733TIP3    H211164   3.282   2.920   3.381
 3734TIP3   OH211165   3.008   6.247   5.864
 3734TIP3    H111166   3.093   6.247   5.909
 3734TIP3    H211167   3.011   6.170   5.807
 3735TIP3   OH211168   2.959   3.614   2.773
 3735TIP3    H111169   2.996   3.702   2.762
 3735TIP3    H211170   2.920   3.594   2.688
 3736TIP3   OH211171   5.786   3.665   1.572
 3736TIP3    H111172   5.795   3.696   1.483
 3736TIP3    H211173   5.792   3.569   1.565
 3737TIP3   OH211174   4.093   2.772   0.959
 3737TIP3    H111175   4.155   2.703   0.936
 3737TIP3    H211176   4.078   2.762   1.053
 3738TIP3   OH211177   0.598   0.797   4.787
 3738TIP3    H111178   0.658   0.739   4.835
 3738TIP3    H211179   0.649   0.826   4.711
 3739TIP3   OH211180   6.807   3.787   4.975
 3739TIP3    H111181   6.769   3.704   5.000
 3739TIP3    H211182   6.733   3.840   4.945
 3740TIP3   OH211183   6.457   4.095   1.468
 3740TIP3    H111184   6.392   4.109   1.537
 3740TIP3    H211185   6.518   4.031   1.504
 3741TIP3   OH211186   6.482   5.754   1.564
 3741TIP3    H111187   6.557   5.795   1.608
 3741TIP3    H211188   6.413   5.820   1.568
 3742TIP3   OH211189   5.740   3.666   1.296
 3742TIP3    H111190   5.722   3.691   1.206
 3742TIP3    H211191   5.810   3.601   1.290
 3743TIP3   OH211192   6.214   2.507   5.308
 3743TIP3    H111193   6.256   2.475   5.388
 3743TIP3    H211194   6.137   2.554   5.338
 3744TIP3   OH211195   4.284   2.830   5.287
 3744TIP3    H111196   4.299   2.910   5.337
 3744TIP3    H211197   4.197   2.842   5.248
 3745TIP3   OH211198   1.181   3.896   2.210
 3745TIP3    H111199   1.214   3.824   2.264
 3745TIP3    H211200   1.132   3.951   2.270
 3746TIP3   OH211201   4.563   5.541   4.242
 3746TIP3    H111202   4.533   5.620   4.287
 3746TIP3    H211203   4.491   5.479   4.252
 3747TIP3   OH211204   2.016   3.199   2.181
 3747TIP3    H111205   2.053   3.233   2.263
 3747TIP3    H211206   1.922   3.191   2.199
 3748TIP3   OH211207   1.767   6.087   2.489
 3748TIP3    H111208   1.759   6.121   2.579
 3748TIP3    H211209   1.731   6.157   2.434
 3749TIP3   OH211210   2.699   4.352   1.073
 3749TIP3    H111211   2.613   4.324   1.041
 3749TIP3    H211212   2.688   4.363   1.167
 3750TIP3   OH211213   4.841   0.641   4.113
 3750TIP3    H111214   4.773   0.636   4.180
 3750TIP3    H211215   4.799   0.687   4.040
 3751TIP3   OH211216   5.905   0.377   0.644
 3751TIP3    H111217   5.841   0.358   0.575
 3751TIP3    H211218   5.940   0.463   0.622
 3752TIP3   OH211219   2.385   3.211   1.826
 3752TIP3    H111220   2.370   3.136   1.769
 3752TIP3    H211221   2.430   3.175   1.903
 3753TIP3   OH211222   3.758   1.834   0.562
 3753TIP3    H111223   3.805   1.827   0.479
 3753TIP3    H211224   3.785   1.758   0.612
 3754TIP3   OH211225   1.338   2.557   5.561
 3754TIP3    H111226   1.382   2.528   5.641
 3754TIP3    H211227   1.364   2.493   5.495
 3755TIP3   OH211228   4.230   1.134   3.829
 3755TIP3    H111229   4.188   1.190   3.764
 3755TIP3    H211230   4.300   1.187   3.865
 3756TIP3   OH211231   2.175   2.828   1.231
 3756TIP3    H111232   2.133   2.893   1.287
 3756TIP3    H211233   2.103   2.788   1.181
 3757TIP3   OH211234   2.571   2.787   5.490
 3757TIP3    H111235   2.573   2.870   5.536
 3757TIP3    H211236   2.652   2.743   5.515
 3758TIP3   OH211237   2.360   3.657   4.922
 3758TIP3    H111238   2.393   3.747   4.930
 3758TIP3    H211239   2.437   3.605   4.902
 3759TIP3   OH211240   4.976   4.494   3.004
 3759TIP3    H111241   4.887   4.467   2.980
 3759TIP3    H211242   4.966   4.585   3.032
 3760TIP3   OH211243   1.085   6.704   5.438
 3760TIP3    H111244   1.126   6.778   5.481
 3760TIP3    H211245   1.112   6.710   5.347
 3761TIP3   OH211246   2.102   4.199   0.420
 3761TIP3    H111247   2.091   4.107   0.397
 3761TIP3    H211248   2.019   4.240   0.395
 3762TIP3   OH211249   0.530   5.026   4.803
 3762TIP3    H111250   0.454   5.074   4.836
 3762TIP3    H211251   0.589   5.020   4.878
 3763TIP3   OH211252   5.951   0.732   0.137
 3763TIP3    H111253   6.004   0.686   0.202
 3763TIP3    H211254   5.970   0.686   0.055
 3764TIP3   OH211255   6.672   6.460   0.786
 3764TIP3    H111256   6.753   6.429   0.745
 3764TIP3    H211257   6.679   6.432   0.877
 3765TIP3   OH211258   4.359   5.968   1.031
 3765TIP3    H111259   4.308   6.029   1.084
 3765TIP3    H211260   4.441   6.015   1.012
 3766TIP3   OH211261   1.296   6.126   2.371
 3766TIP3    H111262   1.215   6.075   2.379
 3766TIP3    H211263   1.274   6.196   2.311
 3767TIP3   OH211264   1.117   2.507   4.630
 3767TIP3    H111265   1.167   2.489   4.551
 3767TIP3    H211266   1.132   2.432   4.687
 3768TIP3   OH211267   4.163   5.260   4.804
 3768TIP3    H111268   4.241   5.244   4.751
 3768TIP3    H211269   4.120   5.174   4.810
 3769TIP3   OH211270   3.002   2.932   2.077
 3769TIP3    H111271   3.065   2.980   2.131
 3769TIP3    H211272   3.040   2.844   2.070
 3770TIP3   OH211273   3.482   1.292   5.102
 3770TIP3    H111274   3.552   1.270   5.040
 3770TIP3    H211275   3.528   1.317   5.182
 3771TIP3   OH211276   2.409   3.195   2.545
 3771TIP3    H111277   2.322   3.170   2.577
 3771TIP3    H211278   2.392   3.244   2.465
 3772TIP3   OH211279   7.164   1.488   5.760
 3772TIP3    H111280   7.126   1.570   5.729
 3772TIP3    H211281   7.246   1.514   5.803
 3773TIP3   OH211282   3.311   4.434   1.194
 3773TIP3    H111283   3.336   4.414   1.103
 3773TIP3    H211284   3.235   4.377   1.210
 3774TIP3   OH211285   2.424   4.527   0.455
 3774TIP3    H111286   2.379   4.602   0.416
 3774TIP3    H211287   2.493   4.505   0.392
 3775TIP3   OH211288   4.023   3.622   2.097
 3775TIP3    H111289   4.067   3.653   2.017
 3775TIP3    H211290   3.979   3.541   2.070
 3776TIP3   OH211291   6.026   1.047   5.325
 3776TIP3    H111292   6.030   1.133   5.282
 3776TIP3    H211293   5.954   1.055   5.387
 3777TIP3   OH211294   3.123   3.117   0.122
 3777TIP3    H111295   3.138   3.023   0.134
 3777TIP3    H211296   3.088   3.147   0.206
 3778TIP3   OH211297   4.647   3.965   2.674
 3778TIP3    H111298   4.592   3.887   2.683
 3778TIP3    H211299   4.651   3.981   2.580
 3779TIP3   OH211300   3.440   1.842   5.353
 3779TIP3    H111301   3.507   1.890   5.402
 3779TIP3    H211302   3.455   1.867   5.262
 3780TIP3   OH211303   6.470   0.973   4.078
 3780TIP3    H111304   6.415   1.050   4.092
 3780TIP3    H211305   6.407   0.902   4.059
 3781TIP3   OH211306  -0.016   1.083   1.669
 3781TIP3    H111307  -0.015   1.014   1.602
 3781TIP3    H211308   0.002   1.037   1.751
 3782TIP3   OH211309   5.098   4.193   0.496
 3782TIP3    H111310   5.074   4.271   0.546
 3782TIP3    H211311   5.087   4.121   0.558
 3783TIP3   OH211312   7.078   2.636   3.956
 3783TIP3    H111313   7.159   2.623   4.005
 3783TIP3    H211314   7.099   2.704   3.893
 3784TIP3   OH211315   7.176   5.435   2.815
 3784TIP3    H111316   7.168   5.342   2.797
 3784TIP3    H211317   7.252   5.464   2.765
 3785TIP3   OH211318   6.337   5.991   1.436
 3785TIP3    H111319   6.281   5.942   1.496
 3785TIP3    H211320   6.280   6.061   1.403
 3786TIP3   OH211321   4.814   5.812   0.571
 3786TIP3    H111322   4.795   5.901   0.602
 3786TIP3    H211323   4.755   5.756   0.622
 3787TIP3   OH211324   5.056   5.788   5.501
 3787TIP3    H111325   5.100   5.849   5.560
 3787TIP3    H211326   5.057   5.832   5.416
 3788TIP3   OH211327   4.796   2.018   4.687
 3788TIP3    H111328   4.855   2.025   4.762
 3788TIP3    H211329   4.821   2.091   4.630
 3789TIP3   OH211330   2.035   6.591   0.317
 3789TIP3    H111331   1.962   6.570   0.375
 3789TIP3    H211332   1.994   6.604   0.231
 3790TIP3   OH211333   0.503   5.451   2.862
 3790TIP3    H111334   0.513   5.423   2.953
 3790TIP3    H211335   0.539   5.378   2.810
 3791TIP3   OH211336   3.826   5.609   4.363
 3791TIP3    H111337   3.840   5.686   4.308
 3791TIP3    H211338   3.887   5.544   4.329
 3792TIP3   OH211339   3.562   1.019   4.977
 3792TIP3    H111340   3.474   1.055   4.973
 3792TIP3    H211341   3.549   0.925   4.985
 3793TIP3   OH211342   5.363   0.008   1.776
 3793TIP3    H111343   5.384  -0.063   1.837
 3793TIP3    H211344   5.417   0.081   1.806
 3794TIP3   OH211345   2.058   4.518   5.329
 3794TIP3    H111346   2.107   4.512   5.247
 3794TIP3    H211347   2.072   4.609   5.358
 3795TIP3   OH211348   1.960   6.356   4.896
 3795TIP3    H111349   2.004   6.271   4.900
 3795TIP3    H211350   1.937   6.375   4.987
 3796TIP3   OH211351   3.143   2.517   4.133
 3796TIP3    H111352   3.235   2.539   4.121
 3796TIP3    H211353   3.098   2.601   4.135
 3797TIP3   OH211354   5.737   2.282   2.976
 3797TIP3    H111355   5.758   2.284   3.070
 3797TIP3    H211356   5.693   2.365   2.959
 3798TIP3   OH211357   2.511   6.308   0.407
 3798TIP3    H111358   2.428   6.356   0.414
 3798TIP3    H211359   2.485   6.216   0.397
 3799TIP3   OH211360   3.236   1.432   4.039
 3799TIP3    H111361   3.256   1.398   4.126
 3799TIP3    H211362   3.152   1.392   4.016
 3800TIP3   OH211363   3.859   6.165   0.339
 3800TIP3    H111364   3.783   6.169   0.280
 3800TIP3    H211365   3.934   6.156   0.280
 3801TIP3   OH211366   4.322   3.610   0.391
 3801TIP3    H111367   4.267   3.679   0.353
 3801TIP3    H211368   4.401   3.656   0.420
 3802TIP3   OH211369   6.617   3.960   2.094
 3802TIP3    H111370   6.531   3.934   2.061
 3802TIP3    H211371   6.623   3.919   2.180
 3803TIP3   OH211372   2.858   5.198   0.720
 3803TIP3    H111373   2.777   5.166   0.680
 3803TIP3    H211374   2.899   5.119   0.756
 3804TIP3   OH211375   4.062   2.239   0.165
 3804TIP3    H111376   4.087   2.328   0.190
 3804TIP3    H211377   3.998   2.213   0.231
 3805TIP3   OH211378   3.079   2.285   1.123
 3805TIP3    H111379   3.002   2.296   1.179
 3805TIP3    H211380   3.148   2.336   1.166
 3806TIP3   OH211381   0.822   3.008   2.416
 3806TIP3    H111382   0.897   2.963   2.453
 3806TIP3    H211383   0.754   3.001   2.482
 3807TIP3   OH211384   1.702   2.671   3.225
 3807TIP3    H111385   1.793   2.667   3.194
 3807TIP3    H211386   1.675   2.579   3.230
 3808TIP3   OH211387   4.331   3.104   1.065
 3808TIP3    H111388   4.380   3.165   1.009
 3808TIP3    H211389   4.269   3.061   1.006
 3809TIP3   OH211390   0.531   5.361   1.702
 3809TIP3    H111391   0.445   5.328   1.673
 3809TIP3    H211392   0.549   5.434   1.642
 3810TIP3   OH211393   6.058   6.314   3.657
 3810TIP3    H111394   6.103   6.229   3.652
 3810TIP3    H211395   5.985   6.299   3.717
 3811TIP3   OH211396   0.860   4.734   3.818
 3811TIP3    H111397   0.845   4.765   3.907
 3811TIP3    H211398   0.847   4.812   3.763
 3812TIP3   OH211399   6.324   6.605   2.274
 3812TIP3    H111400   6.242   6.572   2.238
 3812TIP3    H211401   6.385   6.531   2.266
 3813TIP3   OH211402   5.059   2.824   5.299
 3813TIP3    H111403   5.016   2.898   5.344
 3813TIP3    H211404   5.033   2.834   5.208
 3814TIP3   OH211405   5.258   2.838   0.032
 3814TIP3    H111406   5.266   2.933   0.032
 3814TIP3    H211407   5.308   2.810   0.109
 3815TIP3   OH211408   4.517   1.885   3.886
 3815TIP3    H111409   4.486   1.913   3.800
 3815TIP3    H211410   4.437   1.868   3.936
 3816TIP3   OH211411   3.322   5.667   5.066
 3816TIP3    H111412   3.342   5.636   4.978
 3816TIP3    H211413   3.396   5.723   5.089
 3817TIP3   OH211414   1.633   2.750   5.506
 3817TIP3    H111415   1.684   2.810   5.452
 3817TIP3    H211416   1.593   2.690   5.443
 3818TIP3   OH211417   1.344   6.201   3.533
 3818TIP3    H111418   1.391   6.280   3.560
 3818TIP3    H211419   1.277   6.188   3.600
 3819TIP3   OH211420   6.133   0.119   1.194
 3819TIP3    H111421   6.138   0.091   1.285
 3819TIP3    H211422   6.093   0.205   1.197
 3820TIP3   OH211423   4.052   0.960   0.957
 3820TIP3    H111424   4.140   0.963   0.994
 3820TIP3    H211425   4.024   0.869   0.969
 3821TIP3   OH211426   6.435   5.105   3.794
 3821TIP3    H111427   6.451   5.182   3.848
 3821TIP3    H211428   6.398   5.040   3.855
 3822TIP3   OH211429   0.156   5.438   1.136
 3822TIP3    H111430   0.092   5.367   1.144
 3822TIP3    H211431   0.191   5.429   1.047
 3823TIP3   OH211432   2.595   2.369   0.124
 3823TIP3    H111433   2.580   2.303   0.057
 3823TIP3    H211434   2.531   2.438   0.105
 3824TIP3   OH211435   3.031   5.043   3.161
 3824TIP3    H111436   3.047   5.025   3.254
 3824TIP3    H211437   2.989   4.963   3.128
 3825TIP3   OH211438   5.224   2.449   4.699
 3825TIP3    H111439   5.304   2.471   4.650
 3825TIP3    H211440   5.154   2.492   4.651
 3826TIP3   OH211441   4.905   2.784   0.013
 3826TIP3    H111442   4.971   2.746  -0.044
 3826TIP3    H211443   4.948   2.792   0.098
 3827TIP3   OH211444   3.642   5.662   1.333
 3827TIP3    H111445   3.693   5.581   1.340
 3827TIP3    H211446   3.552   5.636   1.350
 3828TIP3   OH211447   1.470   4.692   5.064
 3828TIP3    H111448   1.510   4.624   5.010
 3828TIP3    H211449   1.434   4.646   5.139
 3829TIP3   OH211450   3.445   4.732   4.746
 3829TIP3    H111451   3.515   4.744   4.810
 3829TIP3    H211452   3.487   4.687   4.673
 3830TIP3   OH211453   7.054   3.467   4.979
 3830TIP3    H111454   7.135   3.458   4.930
 3830TIP3    H211455   6.997   3.399   4.945
 3831TIP3   OH211456   0.088   1.231   5.707
 3831TIP3    H111457   0.067   1.322   5.687
 3831TIP3    H211458   0.035   1.211   5.785
 3832TIP3   OH211459   1.332   2.731   5.356
 3832TIP3    H111460   1.413   2.735   5.305
 3832TIP3    H211461   1.355   2.681   5.435
 3833TIP3   OH211462   0.464   1.163   5.127
 3833TIP3    H111463   0.541   1.107   5.117
 3833TIP3    H211464   0.395   1.116   5.080
 3834TIP3   OH211465   3.285   5.554   1.037
 3834TIP3    H111466   3.196   5.583   1.015
 3834TIP3    H211467   3.341   5.626   1.007
 3835TIP3   OH211468   7.032   0.897   0.342
 3835TIP3    H111469   7.045   0.991   0.358
 3835TIP3    H211470   7.062   0.855   0.423
 3836TIP3   OH211471   4.854   4.966   5.898
 3836TIP3    H111472   4.875   4.938   5.809
 3836TIP3    H211473   4.796   5.040   5.887
 3837TIP3   OH211474   5.183   3.358   4.944
 3837TIP3    H111475   5.137   3.393   5.021
 3837TIP3    H211476   5.114   3.346   4.878
 3838TIP3   OH211477   4.346   5.983   4.965
 3838TIP3    H111478   4.369   6.043   4.894
 3838TIP3    H211479   4.427   5.938   4.986
 3839TIP3   OH211480   6.699   1.002   1.817
 3839TIP3    H111481   6.726   0.994   1.909
 3839TIP3    H211482   6.770   1.052   1.776
 3840TIP3   OH211483   6.007   6.473   0.313
 3840TIP3    H111484   5.917   6.503   0.329
 3840TIP3    H211485   6.042   6.455   0.400
 3841TIP3   OH211486   4.066   3.295   0.057
 3841TIP3    H111487   4.094   3.370   0.109
 3841TIP3    H211488   4.053   3.225   0.121
 3842TIP3   OH211489   4.645   1.542   2.584
 3842TIP3    H111490   4.570   1.583   2.540
 3842TIP3    H211491   4.705   1.520   2.513
 3843TIP3   OH211492   3.658   2.002   0.788
 3843TIP3    H111493   3.654   1.935   0.720
 3843TIP3    H211494   3.751   2.010   0.809
 3844TIP3   OH211495   0.058   5.283   0.422
 3844TIP3    H111496  -0.023   5.238   0.446
 3844TIP3    H211497   0.093   5.232   0.348
 3845TIP3   OH211498   4.902   3.552   2.340
 3845TIP3    H111499   4.882   3.635   2.296
 3845TIP3    H211500   4.979   3.519   2.295
 3846TIP3   OH211501   4.222   3.186   2.966
 3846TIP3    H111502   4.283   3.182   2.892
 3846TIP3    H211503   4.248   3.264   3.015
 3847TIP3   OH211504   5.839   6.667   5.383
 3847TIP3    H111505   5.856   6.575   5.400
 3847TIP3    H211506   5.916   6.698   5.335
 3848TIP3   OH211507   3.633   0.808   1.695
 3848TIP3    H111508   3.709   0.778   1.645
 3848TIP3    H211509   3.663   0.807   1.786
 3849TIP3   OH211510   0.626   1.216   3.774
 3849TIP3    H111511   0.607   1.287   3.712
 3849TIP3    H211512   0.712   1.237   3.809
 3850TIP3   OH211513   5.231   6.443   1.419
 3850TIP3    H111514   5.242   6.373   1.483
 3850TIP3    H211515   5.276   6.518   1.458
 3851TIP3   OH211516   6.733   1.134   2.518
 3851TIP3    H111517   6.675   1.170   2.584
 3851TIP3    H211518   6.800   1.201   2.505
 3852TIP3   OH211519   6.502   5.110   2.493
 3852TIP3    H111520   6.415   5.130   2.458
 3852TIP3    H211521   6.543   5.196   2.506
 3853TIP3   OH211522   0.807   4.723   2.365
 3853TIP3    H111523   0.808   4.632   2.336
 3853TIP3    H211524   0.721   4.756   2.339
 3854TIP3   OH211525   7.052   2.015   1.762
 3854TIP3    H111526   7.069   1.930   1.802
 3854TIP3    H211527   6.987   1.997   1.694
 3855TIP3   OH211528   2.059   6.288   0.815
 3855TIP3    H111529   1.990   6.223   0.822
 3855TIP3    H211530   2.029   6.362   0.868
 3856TIP3   OH211531   0.319   3.084   4.735
 3856TIP3    H111532   0.361   3.150   4.790
 3856TIP3    H211533   0.300   3.129   4.653
 3857TIP3   OH211534   0.193   1.300   4.894
 3857TIP3    H111535   0.199   1.205   4.889
 3857TIP3    H211536   0.100   1.318   4.904
 3858TIP3   OH211537   2.149   1.913   2.914
 3858TIP3    H111538   2.054   1.909   2.908
 3858TIP3    H211539   2.168   2.002   2.945
 3859TIP3   OH211540   4.333   6.394   5.243
 3859TIP3    H111541   4.384   6.463   5.200
 3859TIP3    H211542   4.248   6.396   5.200
 3860TIP3   OH211543   6.188   4.291   5.178
 3860TIP3    H111544   6.152   4.363   5.230
 3860TIP3    H211545   6.181   4.321   5.088
 3861TIP3   OH211546   6.035   5.768   3.904
 3861TIP3    H111547   6.060   5.804   3.989
 3861TIP3    H211548   6.118   5.745   3.862
 3862TIP3   OH211549   0.802   1.738   4.877
 3862TIP3    H111550   0.801   1.703   4.966
 3862TIP3    H211551   0.751   1.675   4.826
 3863TIP3   OH211552   0.021   3.996   3.135
 3863TIP3    H111553   0.057   4.060   3.074
 3863TIP3    H211554   0.075   4.003   3.213
 3864TIP3   OH211555   3.856   6.166   3.587
 3864TIP3    H111556   3.891   6.123   3.509
 3864TIP3    H211557   3.929   6.169   3.648
 3865TIP3   OH211558   3.972   6.331   1.839
 3865TIP3    H111559   3.948   6.370   1.923
 3865TIP3    H211560   3.901   6.271   1.820
 3866TIP3   OH211561   1.876   4.125   1.453
 3866TIP3    H111562   1.951   4.066   1.446
 3866TIP3    H211563   1.802   4.067   1.472
 3867TIP3   OH211564   0.218   1.287   5.388
 3867TIP3    H111565   0.271   1.208   5.400
 3867TIP3    H211566   0.219   1.330   5.474
 3868TIP3   OH211567   7.032   5.232   4.300
 3868TIP3    H111568   6.965   5.300   4.310
 3868TIP3    H211569   7.035   5.217   4.205
 3869TIP3   OH211570   2.530   2.281   5.744
 3869TIP3    H111571   2.527   2.190   5.774
 3869TIP3    H211572   2.540   2.274   5.649
 3870TIP3   OH211573   1.985   5.739   0.199
 3870TIP3    H111574   1.943   5.682   0.135
 3870TIP3    H211575   2.064   5.692   0.226
 3871TIP3   OH211576   4.975   3.275   4.790
 3871TIP3    H111577   4.971   3.183   4.766
 3871TIP3    H211578   4.908   3.286   4.858
 3872TIP3   OH211579   1.804   3.947   5.778
 3872TIP3    H111580   1.868   3.929   5.710
 3872TIP3    H211581   1.832   3.894   5.853
 3873TIP3   OH211582   5.250   3.758   2.502
 3873TIP3    H111583   5.188   3.791   2.567
 3873TIP3    H211584   5.263   3.831   2.441
 3874TIP3   OH211585   7.008   6.313   2.286
 3874TIP3    H111586   7.015   6.219   2.269
 3874TIP3    H211587   7.020   6.354   2.200
 3875TIP3   OH211588   2.034   4.415   2.969
 3875TIP3    H111589   2.094   4.382   2.902
 3875TIP3    H211590   2.043   4.353   3.042
 3876TIP3   OH211591   6.404   2.380   0.187
 3876TIP3    H111592   6.402   2.344   0.276
 3876TIP3    H211593   6.373   2.470   0.197
 3877TIP3   OH211594   0.378   4.793   0.974
 3877TIP3    H111595   0.350   4.728   1.038
 3877TIP3    H211596   0.351   4.877   1.011
 3878TIP3   OH211597   1.064   6.067   1.066
 3878TIP3    H111598   1.096   6.156   1.082
 3878TIP3    H211599   1.020   6.072   0.981
 3879TIP3   OH211600   1.719   4.129   4.820
 3879TIP3    H111601   1.705   4.036   4.835
 3879TIP3    H211602   1.770   4.158   4.896
 3880TIP3   OH211603   6.864   6.140   1.713
 3880TIP3    H111604   6.802   6.213   1.714
 3880TIP3    H211605   6.940   6.173   1.664
 3881TIP3   OH211606   1.573   5.496   5.350
 3881TIP3    H111607   1.570   5.402   5.368
 3881TIP3    H211608   1.620   5.533   5.425
 3882TIP3   OH211609   1.551   2.555   1.104
 3882TIP3    H111610   1.605   2.564   1.183
 3882TIP3    H211611   1.464   2.585   1.131
 3883TIP3   OH211612   0.612   1.816   2.782
 3883TIP3    H111613   0.548   1.870   2.737
 3883TIP3    H211614   0.694   1.865   2.775
 3884TIP3   OH211615   5.331   2.166   4.135
 3884TIP3    H111616   5.296   2.077   4.130
 3884TIP3    H211617   5.312   2.204   4.049
 3885TIP3   OH211618   6.168   0.691   0.878
 3885TIP3    H111619   6.194   0.742   0.955
 3885TIP3    H211620   6.248   0.685   0.825
 3886TIP3   OH211621   5.882   0.696   0.913
 3886TIP3    H111622   5.844   0.777   0.879
 3886TIP3    H211623   5.976   0.703   0.894
 3887TIP3   OH211624   3.652   2.156   2.375
 3887TIP3    H111625   3.577   2.174   2.432
 3887TIP3    H211626   3.626   2.191   2.290
 3888TIP3   OH211627   3.721   5.808   2.505
 3888TIP3    H111628   3.678   5.735   2.460
 3888TIP3    H211629   3.785   5.766   2.563
 3889TIP3   OH211630   2.320   6.625   3.705
 3889TIP3    H111631   2.398   6.618   3.651
 3889TIP3    H211632   2.249   6.641   3.643
 3890TIP3   OH211633   6.037   0.176   4.732
 3890TIP3    H111634   5.943   0.189   4.717
 3890TIP3    H211635   6.043   0.136   4.818
 3891TIP3   OH211636   3.597   6.212   2.081
 3891TIP3    H111637   3.648   6.254   2.150
 3891TIP3    H211638   3.662   6.176   2.021
 3892TIP3   OH211639   1.418   6.669   3.885
 3892TIP3    H111640   1.376   6.591   3.919
 3892TIP3    H211641   1.375   6.741   3.931
 3893TIP3   OH211642   5.820   6.330   3.112
 3893TIP3    H111643   5.788   6.409   3.069
 3893TIP3    H211644   5.818   6.263   3.044
 3894TIP3   OH211645   0.622   3.774   1.158
 3894TIP3    H111646   0.541   3.786   1.109
 3894TIP3    H211647   0.608   3.821   1.241
 3895TIP3   OH211648   3.086   6.259   4.813
 3895TIP3    H111649   3.145   6.186   4.830
 3895TIP3    H211650   3.046   6.278   4.899
 3896TIP3   OH211651   2.577   1.010   5.093
 3896TIP3    H111652   2.593   1.099   5.062
 3896TIP3    H211653   2.484   0.996   5.079
 3897TIP3   OH211654   3.582   2.735   1.235
 3897TIP3    H111655   3.659   2.762   1.186
 3897TIP3    H211656   3.557   2.650   1.198
 3898TIP3   OH211657   4.001   4.342   3.792
 3898TIP3    H111658   4.059   4.300   3.729
 3898TIP3    H211659   4.054   4.410   3.833
 3899TIP3   OH211660   0.354   4.615   5.346
 3899TIP3    H111661   0.384   4.562   5.272
 3899TIP3    H211662   0.427   4.614   5.408
 3900TIP3   OH211663   0.780   1.745   5.205
 3900TIP3    H111664   0.780   1.726   5.299
 3900TIP3    H211665   0.687   1.746   5.181
 3901TIP3   OH211666   2.805   0.132   1.157
 3901TIP3    H111667   2.742   0.060   1.155
 3901TIP3    H211668   2.782   0.181   1.236
 3902TIP3   OH211669   1.769   5.235   3.919
 3902TIP3    H111670   1.845   5.292   3.908
 3902TIP3    H211671   1.795   5.174   3.988
 3903TIP3   OH211672   3.972   0.279   3.006
 3903TIP3    H111673   4.035   0.317   3.067
 3903TIP3    H211674   3.962   0.188   3.035
 3904TIP3   OH211675   2.555   2.581   2.910
 3904TIP3    H111676   2.498   2.657   2.906
 3904TIP3    H211677   2.616   2.592   2.836
 3905TIP3   OH211678   7.071   6.787   5.289
 3905TIP3    H111679   7.077   6.756   5.198
 3905TIP3    H211680   7.008   6.727   5.330
 3906TIP3   OH211681   3.965   6.740   3.897
 3906TIP3    H111682   4.035   6.756   3.834
 3906TIP3    H211683   3.928   6.656   3.871
 3907TIP3   OH211684   1.059   1.670   5.413
 3907TIP3    H111685   1.006   1.591   5.405
 3907TIP3    H211686   1.136   1.642   5.464
 3908TIP3   OH211687   1.777   3.378   1.972
 3908TIP3    H111688   1.780   3.370   2.068
 3908TIP3    H211689   1.796   3.470   1.955
 3909TIP3   OH211690   5.689   5.881   1.993
 3909TIP3    H111691   5.639   5.812   2.037
 3909TIP3    H211692   5.708   5.845   1.906
 3910TIP3   OH211693   1.395   5.909   5.216
 3910TIP3    H111694   1.321   5.921   5.275
 3910TIP3    H211695   1.392   5.816   5.191
 3911TIP3   OH211696   1.387   6.543   0.488
 3911TIP3    H111697   1.323   6.519   0.421
 3911TIP3    H211698   1.337   6.550   0.568
 3912TIP3   OH211699   2.942   1.318   2.512
 3912TIP3    H111700   2.869   1.267   2.477
 3912TIP3    H211701   2.996   1.254   2.558
 3913TIP3   OH211702   2.104   4.720   5.128
 3913TIP3    H111703   2.103   4.706   5.034
 3913TIP3    H211704   2.016   4.749   5.150
 3914TIP3   OH211705   6.309   4.161   5.752
 3914TIP3    H111706   6.231   4.173   5.698
 3914TIP3    H211707   6.378   4.207   5.705
 3915TIP3   OH211708   6.541  -0.024   1.886
 3915TIP3    H111709   6.529   0.035   1.960
 3915TIP3    H211710   6.460  -0.018   1.836
 3916TIP3   OH211711   1.874   2.163   5.381
 3916TIP3    H111712   1.898   2.084   5.333
 3916TIP3    H211713   1.918   2.154   5.466
 3917TIP3   OH211714   6.236   6.055   3.418
 3917TIP3    H111715   6.155   6.042   3.369
 3917TIP3    H211716   6.267   6.142   3.391
 3918TIP3   OH211717   1.803   6.317   5.441
 3918TIP3    H111718   1.737   6.283   5.502
 3918TIP3    H211719   1.886   6.302   5.485
 3919TIP3   OH211720   2.192   1.237   2.032
 3919TIP3    H111721   2.103   1.271   2.025
 3919TIP3    H211722   2.248   1.315   2.031
 3920TIP3   OH211723   3.068   6.147   2.290
 3920TIP3    H111724   3.120   6.228   2.291
 3920TIP3    H211725   3.048   6.131   2.382
 3921TIP3   OH211726   1.671   1.689   1.596
 3921TIP3    H111727   1.614   1.658   1.525
 3921TIP3    H211728   1.629   1.658   1.676
 3922TIP3   OH211729   0.031   5.133   1.779
 3922TIP3    H111730   0.108   5.133   1.836
 3922TIP3    H211731  -0.032   5.190   1.823
 3923TIP3   OH211732   1.918   3.028   0.204
 3923TIP3    H111733   1.858   2.974   0.256
 3923TIP3    H211734   1.885   3.023   0.115
 3924TIP3   OH211735   1.458   1.335   1.250
 3924TIP3    H111736   1.472   1.415   1.301
 3924TIP3    H211737   1.457   1.366   1.159
 3925TIP3   OH211738   1.303   0.739   0.873
 3925TIP3    H111739   1.317   0.655   0.830
 3925TIP3    H211740   1.322   0.723   0.965
 3926TIP3   OH211741   1.687   2.914   0.337
 3926TIP3    H111742   1.593   2.895   0.341
 3926TIP3    H211743   1.692   3.009   0.323
 3927TIP3   OH211744   3.631   4.114   2.564
 3927TIP3    H111745   3.596   4.198   2.535
 3927TIP3    H211746   3.579   4.091   2.641
 3928TIP3   OH211747   0.980   4.731   2.608
 3928TIP3    H111748   0.930   4.735   2.526
 3928TIP3    H211749   1.038   4.807   2.604
 3929TIP3   OH211750   3.200   3.888   0.644
 3929TIP3    H111751   3.118   3.859   0.682
 3929TIP3    H211752   3.220   3.823   0.577
 3930TIP3   OH211753   5.010   1.643   1.972
 3930TIP3    H111754   4.946   1.604   2.031
 3930TIP3    H211755   4.993   1.604   1.887
 3931TIP3   OH211756   4.083   1.569   3.692
 3931TIP3    H111757   4.084   1.660   3.722
 3931TIP3    H211758   4.154   1.564   3.628
 3932TIP3   OH211759   6.824   0.500   2.950
 3932TIP3    H111760   6.738   0.506   2.992
 3932TIP3    H211761   6.840   0.588   2.915
 3933TIP3   OH211762   2.657   5.988   3.582
 3933TIP3    H111763   2.742   6.019   3.550
 3933TIP3    H211764   2.664   5.995   3.678
 3934TIP3   OH211765   3.465   3.220   4.191
 3934TIP3    H111766   3.398   3.193   4.254
 3934TIP3    H211767   3.418   3.273   4.127
 3935TIP3   OH211768   2.030   0.819   2.678
 3935TIP3    H111769   2.037   0.725   2.660
 3935TIP3    H211770   2.087   0.833   2.753
 3936TIP3   OH211771   3.070   2.788   4.046
 3936TIP3    H111772   3.019   2.811   3.968
 3936TIP3    H211773   3.030   2.839   4.117
 3937TIP3   OH211774   3.216   0.817   2.927
 3937TIP3    H111775   3.136   0.779   2.891
 3937TIP3    H211776   3.236   0.762   3.003
 3938TIP3   OH211777   4.412   3.630   5.242
 3938TIP3    H111778   4.349   3.613   5.311
 3938TIP3    H211779   4.498   3.621   5.284
 3939TIP3   OH211780   3.046   1.060   2.589
 3939TIP3    H111781   3.019   1.046   2.498
 3939TIP3    H211782   3.124   1.006   2.599
 3940TIP3   OH211783   2.199   3.746   4.359
 3940TIP3    H111784   2.207   3.696   4.440
 3940TIP3    H211785   2.275   3.720   4.307
 3941TIP3   OH211786   6.676   6.697   1.531
 3941TIP3    H111787   6.666   6.668   1.622
 3941TIP3    H211788   6.756   6.653   1.501
 3942TIP3   OH211789   0.430   1.143   3.944
 3942TIP3    H111790   0.482   1.163   3.867
 3942TIP3    H211791   0.493   1.108   4.007
 3943TIP3   OH211792   4.359   4.964   4.345
 3943TIP3    H111793   4.301   4.989   4.274
 3943TIP3    H211794   4.302   4.921   4.409
 3944TIP3   OH211795   5.880   4.852   0.182
 3944TIP3    H111796   5.827   4.928   0.158
 3944TIP3    H211797   5.970   4.886   0.188
 3945TIP3   OH211798   1.209   4.152   2.075
 3945TIP3    H111799   1.262   4.090   2.125
 3945TIP3    H211800   1.242   4.238   2.100
 3946TIP3   OH211801   4.045   1.242   2.113
 3946TIP3    H111802   3.995   1.202   2.042
 3946TIP3    H211803   4.063   1.331   2.082
 3947TIP3   OH211804   2.924   1.893   2.935
 3947TIP3    H111805   2.925   1.985   2.960
 3947TIP3    H211806   2.833   1.874   2.914
 3948TIP3   OH211807   0.933   1.049   2.813
 3948TIP3    H111808   0.850   1.069   2.770
 3948TIP3    H211809   0.966   0.972   2.767
 3949TIP3   OH211810   6.970   4.840   1.522
 3949TIP3    H111811   6.884   4.801   1.533
 3949TIP3    H211812   7.022   4.772   1.478
 3950TIP3   OH211813   7.038   6.061   2.232
 3950TIP3    H111814   7.049   6.008   2.152
 3950TIP3    H211815   6.952   6.036   2.265
 3951TIP3   OH211816   4.803   4.040   5.627
 3951TIP3    H111817   4.819   4.016   5.718
 3951TIP3    H211818   4.869   3.992   5.577
 3952TIP3   OH211819   6.225   4.594   2.912
 3952TIP3    H111820   6.282   4.615   2.986
 3952TIP3    H211821   6.177   4.516   2.939
 3953TIP3   OH211822   0.286   2.603   2.444
 3953TIP3    H111823   0.297   2.511   2.420
 3953TIP3    H211824   0.313   2.652   2.366
 3954TIP3   OH211825   5.531   2.749   4.677
 3954TIP3    H111826   5.511   2.657   4.662
 3954TIP3    H211827   5.543   2.756   4.772
 3955TIP3   OH211828   4.327   4.909   1.203
 3955TIP3    H111829   4.405   4.890   1.150
 3955TIP3    H211830   4.254   4.892   1.143
 3956TIP3   OH211831   2.012   5.487   4.729
 3956TIP3    H111832   1.950   5.465   4.798
 3956TIP3    H211833   1.990   5.428   4.657
 3957TIP3   OH211834   0.995   0.211   0.767
 3957TIP3    H111835   0.983   0.116   0.768
 3957TIP3    H211836   1.085   0.224   0.738
 3958TIP3   OH211837   1.287   6.269   0.408
 3958TIP3    H111838   1.200   6.295   0.379
 3958TIP3    H211839   1.281   6.173   0.418
 3959TIP3   OH211840   5.631   2.954   0.152
 3959TIP3    H111841   5.721   2.923   0.164
 3959TIP3    H211842   5.588   2.884   0.103
 3960TIP3   OH211843   5.799   5.358   0.658
 3960TIP3    H111844   5.762   5.396   0.579
 3960TIP3    H211845   5.724   5.347   0.717
 3961TIP3   OH211846   0.587   2.305   2.656
 3961TIP3    H111847   0.548   2.237   2.711
 3961TIP3    H211848   0.520   2.326   2.592
 3962TIP3   OH211849   3.994   0.565   3.896
 3962TIP3    H111850   3.961   0.613   3.820
 3962TIP3    H211851   4.016   0.478   3.862
 3963TIP3   OH211852   0.784   1.721   0.546
 3963TIP3    H111853   0.806   1.814   0.538
 3963TIP3    H211854   0.818   1.681   0.466
 3964TIP3   OH211855   4.293   0.767   5.343
 3964TIP3    H111856   4.262   0.845   5.296
 3964TIP3    H211857   4.385   0.759   5.317
 3965TIP3   OH211858   6.203   5.498   4.844
 3965TIP3    H111859   6.233   5.570   4.899
 3965TIP3    H211860   6.168   5.540   4.766
 3966TIP3   OH211861   6.967   6.246   4.134
 3966TIP3    H111862   6.898   6.181   4.132
 3966TIP3    H211863   7.001   6.248   4.045
 3967TIP3   OH211864   0.363   6.542   3.306
 3967TIP3    H111865   0.321   6.464   3.271
 3967TIP3    H211866   0.326   6.614   3.254
 3968TIP3   OH211867   5.549   5.772   5.751
 3968TIP3    H111868   5.518   5.732   5.669
 3968TIP3    H211869   5.629   5.819   5.726
 3969TIP3   OH211870   5.753   5.473   4.684
 3969TIP3    H111871   5.743   5.557   4.728
 3969TIP3    H211872   5.808   5.492   4.608
 3970TIP3   OH211873   1.782   3.322   0.798
 3970TIP3    H111874   1.711   3.315   0.735
 3970TIP3    H211875   1.740   3.315   0.883
 3971TIP3   OH211876   3.674   5.558   4.609
 3971TIP3    H111877   3.587   5.596   4.595
 3971TIP3    H211878   3.718   5.567   4.525
 3972TIP3   OH211879   2.412   1.074   5.891
 3972TIP3    H111880   2.448   1.020   5.822
 3972TIP3    H211881   2.455   1.044   5.971
 3973TIP3   OH211882   5.484   5.677   1.621
 3973TIP3    H111883   5.415   5.707   1.562
 3973TIP3    H211884   5.437   5.641   1.696
 3974TIP3   OH211885   3.652   5.945   4.827
 3974TIP3    H111886   3.627   5.970   4.738
 3974TIP3    H211887   3.719   5.877   4.815
 3975TIP3   OH211888   6.503   1.310   2.610
 3975TIP3    H111889   6.471   1.302   2.520
 3975TIP3    H211890   6.459   1.388   2.644
 3976TIP3   OH211891   4.642   2.509   0.938
 3976TIP3    H111892   4.574   2.476   0.878
 3976TIP3    H211893   4.642   2.604   0.923
 3977TIP3   OH211894   3.812   4.602   3.860
 3977TIP3    H111895   3.798   4.512   3.830
 3977TIP3    H211896   3.882   4.635   3.804
 3978TIP3   OH211897  -0.042   2.030   4.209
 3978TIP3    H111898  -0.055   1.950   4.260
 3978TIP3    H211899  -0.034   2.099   4.275
 3979TIP3   OH211900   2.903   6.038   0.521
 3979TIP3    H111901   2.856   6.122   0.523
 3979TIP3    H211902   2.858   5.984   0.586
 3980TIP3   OH211903   4.812   2.585   0.520
 3980TIP3    H111904   4.880   2.520   0.505
 3980TIP3    H211905   4.831   2.619   0.608
 3981TIP3   OH211906   3.377   0.889   0.567
 3981TIP3    H111907   3.418   0.974   0.586
 3981TIP3    H211908   3.285   0.902   0.588
 3982TIP3   OH211909   0.070   5.495   3.605
 3982TIP3    H111910   0.093   5.521   3.694
 3982TIP3    H211911   0.146   5.520   3.553
 3983TIP3   OH211912   3.557   1.752   4.916
 3983TIP3    H111913   3.564   1.721   5.006
 3983TIP3    H211914   3.630   1.710   4.870
 3984TIP3   OH211915   2.161   4.022   2.391
 3984TIP3    H111916   2.256   4.021   2.395
 3984TIP3    H211917   2.139   4.114   2.377
 3985TIP3   OH211918   4.146   3.588   4.532
 3985TIP3    H111919   4.220   3.530   4.550
 3985TIP3    H211920   4.077   3.530   4.500
 3986TIP3   OH211921   0.161   6.239   1.870
 3986TIP3    H111922   0.177   6.194   1.786
 3986TIP3    H211923   0.066   6.234   1.881
 3987TIP3   OH211924   5.307   0.331   3.925
 3987TIP3    H111925   5.213   0.343   3.908
 3987TIP3    H211926   5.350   0.360   3.845
 3988TIP3   OH211927   4.950   3.890   4.084
 3988TIP3    H111928   4.860   3.859   4.075
 3988TIP3    H211929   4.996   3.817   4.125
 3989TIP3   OH211930   5.891   0.992   2.262
 3989TIP3    H111931   5.840   1.063   2.302
 3989TIP3    H211932   5.840   0.967   2.185
 3990TIP3   OH211933   1.628   2.396   2.523
 3990TIP3    H111934   1.688   2.432   2.457
 3990TIP3    H211935   1.551   2.369   2.473
 3991TIP3   OH211936   0.436   6.123   3.367
 3991TIP3    H111937   0.517   6.172   3.383
 3991TIP3    H211938   0.451   6.077   3.285
 3992TIP3   OH211939   4.805   4.278   1.219
 3992TIP3    H111940   4.785   4.282   1.313
 3992TIP3    H211941   4.812   4.369   1.192
 3993TIP3   OH211942   0.731   4.504   3.319
 3993TIP3    H111943   0.638   4.482   3.308
 3993TIP3    H211944   0.777   4.445   3.259
 3994TIP3   OH211945   6.047   0.896   4.991
 3994TIP3    H111946   6.011   0.984   4.993
 3994TIP3    H211947   6.042   0.866   5.082
 3995TIP3   OH211948   1.164   5.842   5.800
 3995TIP3    H111949   1.251   5.805   5.813
 3995TIP3    H211950   1.134   5.805   5.717
 3996TIP3   OH211951   0.509   3.334   2.670
 3996TIP3    H111952   0.434   3.325   2.728
 3996TIP3    H211953   0.571   3.268   2.700
 3997TIP3   OH211954   5.694   0.753   0.044
 3997TIP3    H111955   5.686   0.661   0.017
 3997TIP3    H211956   5.782   0.760   0.081
 3998TIP3   OH211957   1.015   4.824   2.063
 3998TIP3    H111958   0.978   4.852   2.147
 3998TIP3    H211959   0.952   4.762   2.029
 3999TIP3   OH211960   2.772   2.064   1.607
 3999TIP3    H111961   2.830   2.004   1.561
 3999TIP3    H211962   2.706   2.008   1.647
 4000TIP3   OH211963   1.039   3.688   2.371
 4000TIP3    H111964   1.099   3.669   2.299
 4000TIP3    H211965   1.092   3.679   2.450
 4001TIP3   OH211966   5.854   4.615   5.352
 4001TIP3    H111967   5.863   4.707   5.376
 4001TIP3    H211968   5.806   4.576   5.425
 4002TIP3   OH211969   4.689   1.491   5.542
 4002TIP3    H111970   4.727   1.414   5.583
 4002TIP3    H211971   4.596   1.485   5.562
 4003TIP3   OH211972   4.657   1.827   5.548
 4003TIP3    H111973   4.710   1.749   5.563
 4003TIP3    H211974   4.570   1.803   5.578
 4004TIP3   OH211975   0.993   0.807   5.109
 4004TIP3    H111976   1.007   0.756   5.029
 4004TIP3    H211977   1.053   0.768   5.173
 4005TIP3   OH211978   2.058   2.486   1.985
 4005TIP3    H111979   1.978   2.444   2.015
 4005TIP3    H211980   2.096   2.527   2.063
 4006TIP3   OH211981   5.490   3.574   5.455
 4006TIP3    H111982   5.567   3.586   5.509
 4006TIP3    H211983   5.438   3.654   5.469
 4007TIP3   OH211984   5.560   1.573   3.778
 4007TIP3    H111985   5.655   1.574   3.794
 4007TIP3    H211986   5.549   1.622   3.697
 4008TIP3   OH211987   2.729   4.339   0.778
 4008TIP3    H111988   2.643   4.381   0.784
 4008TIP3    H211989   2.750   4.339   0.685
 4009TIP3   OH211990   2.409   5.019   1.729
 4009TIP3    H111991   2.320   5.047   1.706
 4009TIP3    H211992   2.442   5.088   1.787
 4010TIP3   OH211993   1.193   4.854   4.598
 4010TIP3    H111994   1.117   4.842   4.654
 4010TIP3    H211995   1.266   4.818   4.649
 4011TIP3   OH211996   3.850   3.781   0.210
 4011TIP3    H111997   3.935   3.753   0.245
 4011TIP3    H211998   3.787   3.720   0.247
 4012TIP3   OH211999   5.435   0.990   4.308
 4012TIP3    H112000   5.368   1.052   4.338
 4012TIP3    H212001   5.397   0.904   4.323
 4013TIP3   OH212002   1.446   3.904   3.446
 4013TIP3    H112003   1.370   3.953   3.477
 4013TIP3    H212004   1.517   3.928   3.507
 4014TIP3   OH212005   2.492   1.077   2.480
 4014TIP3    H112006   2.519   1.071   2.388
 4014TIP3    H212007   2.430   1.004   2.491
 4015TIP3   OH212008   3.441   0.407   4.501
 4015TIP3    H112009   3.433   0.317   4.534
 4015TIP3    H212010   3.365   0.453   4.537
 4016TIP3   OH212011   5.798   0.247   3.249
 4016TIP3    H112012   5.715   0.200   3.249
 4016TIP3    H212013   5.775   0.337   3.272
 4017TIP3   OH212014   6.056   5.011   4.024
 4017TIP3    H112015   5.983   5.043   4.077
 4017TIP3    H212016   6.042   5.048   3.938
 4018TIP3   OH212017   6.141   3.264   0.344
 4018TIP3    H112018   6.055   3.237   0.310
 4018TIP3    H212019   6.203   3.234   0.278
 4019TIP3   OH212020   6.437   2.415   5.816
 4019TIP3    H112021   6.358   2.455   5.780
 4019TIP3    H212022   6.414   2.323   5.828
 4020TIP3   OH212023   3.446   0.371   0.685
 4020TIP3    H112024   3.448   0.398   0.777
 4020TIP3    H212025   3.395   0.290   0.684
 4021TIP3   OH212026   3.351   2.391   4.378
 4021TIP3    H112027   3.384   2.387   4.468
 4021TIP3    H212028   3.422   2.358   4.324
 4022TIP3   OH212029   6.357   3.958   3.268
 4022TIP3    H112030   6.270   3.997   3.270
 4022TIP3    H212031   6.341   3.864   3.271
 4023TIP3   OH212032   3.658   3.473   5.143
 4023TIP3    H112033   3.631   3.510   5.059
 4023TIP3    H212034   3.612   3.389   5.148
 4024TIP3   OH212035   6.293   5.052   5.090
 4024TIP3    H112036   6.344   5.116   5.039
 4024TIP3    H212037   6.202   5.072   5.069
 4025TIP3   OH212038   6.855   2.683   5.505
 4025TIP3    H112039   6.884   2.592   5.499
 4025TIP3    H212040   6.823   2.704   5.417
 4026TIP3   OH212041   4.403   4.065   2.860
 4026TIP3    H112042   4.475   4.058   2.797
 4026TIP3    H212043   4.428   4.138   2.917
 4027TIP3   OH212044   2.798   2.683   0.120
 4027TIP3    H112045   2.815   2.665   0.027
 4027TIP3    H212046   2.739   2.758   0.120
 4028TIP3   OH212047   4.224   0.649   2.325
 4028TIP3    H112048   4.231   0.698   2.407
 4028TIP3    H212049   4.141   0.679   2.287
 4029TIP3   OH212050   0.237   2.332   0.762
 4029TIP3    H112051   0.194   2.416   0.776
 4029TIP3    H212052   0.165   2.273   0.738
 4030TIP3   OH212053   1.487   0.637   5.238
 4030TIP3    H112054   1.473   0.648   5.144
 4030TIP3    H212055   1.490   0.543   5.251
 4031TIP3   OH212056   6.246   1.904   4.116
 4031TIP3    H112057   6.313   1.887   4.049
 4031TIP3    H212058   6.187   1.966   4.075
 4032TIP3   OH212059   4.626   0.426   1.181
 4032TIP3    H112060   4.617   0.505   1.127
 4032TIP3    H212061   4.579   0.358   1.133
 4033TIP3   OH212062   1.896   4.187   1.007
 4033TIP3    H112063   1.853   4.244   1.070
 4033TIP3    H212064   1.922   4.246   0.936
 4034TIP3   OH212065   2.840   2.800   3.275
 4034TIP3    H112066   2.785   2.727   3.249
 4034TIP3    H212067   2.905   2.761   3.334
 4035TIP3   OH212068   6.157   4.592   1.854
 4035TIP3    H112069   6.245   4.630   1.843
 4035TIP3    H212070   6.120   4.591   1.767
 4036TIP3   OH212071   6.587   3.480   3.652
 4036TIP3    H112072   6.532   3.402   3.649
 4036TIP3    H212073   6.530   3.549   3.687
 4037TIP3   OH212074   1.661   6.577   5.388
 4037TIP3    H112075   1.697   6.488   5.399
 4037TIP3    H212076   1.602   6.569   5.313
 4038TIP3   OH212077   4.819   3.663   5.605
 4038TIP3    H112078   4.758   3.723   5.561
 4038TIP3    H212079   4.897   3.716   5.622
 4039TIP3   OH212080   7.188   5.281   0.874
 4039TIP3    H112081   7.185   5.266   0.969
 4039TIP3    H212082   7.096   5.296   0.849
 4040TIP3   OH212083   3.012   2.242   3.812
 4040TIP3    H112084   3.013   2.327   3.855
 4040TIP3    H212085   3.005   2.263   3.719
 4041TIP3   OH212086   7.200   3.423   1.858
 4041TIP3    H112087   7.148   3.482   1.913
 4041TIP3    H212088   7.138   3.386   1.796
 4042TIP3   OH212089   5.929   2.058   2.029
 4042TIP3    H112090   5.986   2.038   2.103
 4042TIP3    H212091   5.922   2.154   2.030
 4043TIP3   OH212092   6.050   0.293   1.990
 4043TIP3    H112093   6.060   0.323   1.899
 4043TIP3    H212094   5.983   0.225   1.985
 4044TIP3   OH212095   2.290   6.526   0.940
 4044TIP3    H112096   2.261   6.563   0.856
 4044TIP3    H212097   2.385   6.521   0.931
 4045TIP3   OH212098   6.326   2.956   3.424
 4045TIP3    H112099   6.346   3.047   3.405
 4045TIP3    H212100   6.376   2.936   3.503
 4046TIP3   OH212101   5.027   1.931   5.756
 4046TIP3    H112102   5.062   1.921   5.844
 4046TIP3    H212103   4.943   1.884   5.758
 4047TIP3   OH212104   1.196   2.167   2.820
 4047TIP3    H112105   1.272   2.176   2.762
 4047TIP3    H212106   1.210   2.232   2.888
 4048TIP3   OH212107   2.636   2.543   3.374
 4048TIP3    H112108   2.703   2.488   3.332
 4048TIP3    H212109   2.658   2.540   3.467
 4049TIP3   OH212110   5.673   3.370   2.715
 4049TIP3    H112111   5.751   3.335   2.757
 4049TIP3    H212112   5.646   3.443   2.771
 4050TIP3   OH212113   5.858   4.209   3.286
 4050TIP3    H112114   5.785   4.152   3.261
 4050TIP3    H212115   5.840   4.291   3.241
 4051TIP3   OH212116   3.360   5.512   3.293
 4051TIP3    H112117   3.339   5.475   3.208
 4051TIP3    H212118   3.414   5.445   3.336
 4052TIP3   OH212119   3.810   0.576   2.310
 4052TIP3    H112120   3.759   0.657   2.317
 4052TIP3    H212121   3.747   0.506   2.326
 4053TIP3   OH212122   7.013   3.250   2.152
 4053TIP3    H112123   7.024   3.169   2.102
 4053TIP3    H212124   7.096   3.261   2.198
 4054TIP3   OH212125   0.207   0.655   0.563
 4054TIP3    H112126   0.124   0.696   0.538
 4054TIP3    H212127   0.273   0.704   0.514
 4055TIP3   OH212128   2.373   1.559   3.820
 4055TIP3    H112129   2.417   1.477   3.839
 4055TIP3    H212130   2.280   1.541   3.837
 4056TIP3   OH212131   6.908   1.171   2.840
 4056TIP3    H112132   6.856   1.249   2.823
 4056TIP3    H212133   6.972   1.198   2.907
 4057TIP3   OH212134   6.896   2.665   4.751
 4057TIP3    H112135   6.968   2.727   4.764
 4057TIP3    H212136   6.817   2.717   4.765
 4058TIP3   OH212137   1.734   5.823   3.829
 4058TIP3    H112138   1.786   5.896   3.863
 4058TIP3    H212139   1.748   5.825   3.735
 4059TIP3   OH212140   6.599   6.746   5.606
 4059TIP3    H112141   6.665   6.799   5.652
 4059TIP3    H212142   6.586   6.669   5.662
 4060TIP3   OH212143   0.320   5.289   0.530
 4060TIP3    H112144   0.292   5.330   0.612
 4060TIP3    H212145   0.240   5.284   0.477
 4061TIP3   OH212146   3.258   0.976   3.643
 4061TIP3    H112147   3.344   0.934   3.639
 4061TIP3    H212148   3.241   0.987   3.736
 4062TIP3   OH212149   5.613   1.913   3.653
 4062TIP3    H112150   5.549   1.846   3.675
 4062TIP3    H212151   5.624   1.905   3.558
 4063TIP3   OH212152   4.567   4.461   1.815
 4063TIP3    H112153   4.492   4.418   1.857
 4063TIP3    H212154   4.530   4.508   1.742
 4064TIP3   OH212155   2.412   1.197   3.758
 4064TIP3    H112156   2.485   1.250   3.789
 4064TIP3    H212157   2.369   1.252   3.691
 4065TIP3   OH212158   2.527   5.696   5.608
 4065TIP3    H112159   2.579   5.676   5.531
 4065TIP3    H212160   2.573   5.770   5.649
 4066TIP3   OH212161   6.975   6.630   1.005
 4066TIP3    H112162   6.940   6.712   0.969
 4066TIP3    H212163   7.028   6.659   1.080
 4067TIP3   OH212164   0.266   5.384   4.651
 4067TIP3    H112165   0.309   5.318   4.597
 4067TIP3    H212166   0.210   5.334   4.710
 4068TIP3   OH212167   2.560   4.603   1.231
 4068TIP3    H112168   2.600   4.685   1.259
 4068TIP3    H212169   2.590   4.538   1.294
 4069TIP3   OH212170   5.207   4.642   2.012
 4069TIP3    H112171   5.143   4.593   1.961
 4069TIP3    H212172   5.262   4.574   2.053
 4070TIP3   OH212173   2.515   2.267   2.718
 4070TIP3    H112174   2.567   2.251   2.797
 4070TIP3    H212175   2.489   2.180   2.688
 4071TIP3   OH212176   0.991   3.297   0.683
 4071TIP3    H112177   1.069   3.354   0.681
 4071TIP3    H212178   0.918   3.358   0.670
 4072TIP3   OH212179   3.401   2.936   2.636
 4072TIP3    H112180   3.486   2.976   2.619
 4072TIP3    H212181   3.338   3.004   2.611
 4073TIP3   OH212182   4.524   5.154   1.805
 4073TIP3    H112183   4.460   5.084   1.793
 4073TIP3    H212184   4.550   5.179   1.716
 4074TIP3   OH212185   3.297   4.751   2.172
 4074TIP3    H112186   3.336   4.796   2.247
 4074TIP3    H212187   3.288   4.660   2.200
 4075TIP3   OH212188   6.765   0.930   0.217
 4075TIP3    H112189   6.720   0.846   0.213
 4075TIP3    H212190   6.854   0.909   0.242
 4076TIP3   OH212191   5.447   2.936   2.000
 4076TIP3    H112192   5.427   2.864   1.941
 4076TIP3    H212193   5.478   3.007   1.943
 4077TIP3   OH212194   2.328   3.331   2.308
 4077TIP3    H112195   2.256   3.381   2.347
 4077TIP3    H212196   2.372   3.395   2.251
 4078TIP3   OH212197   6.401   1.430   3.565
 4078TIP3    H112198   6.433   1.472   3.485
 4078TIP3    H212199   6.410   1.336   3.549
 4079TIP3   OH212200   0.084   3.943   4.767
 4079TIP3    H112201   0.052   4.022   4.725
 4079TIP3    H212202   0.139   3.974   4.839
 4080TIP3   OH212203   4.550   1.077   0.689
 4080TIP3    H112204   4.593   1.123   0.761
 4080TIP3    H212205   4.463   1.117   0.684
 4081TIP3   OH212206   5.883   2.341   1.753
 4081TIP3    H112207   5.830   2.345   1.673
 4081TIP3    H212208   5.937   2.419   1.750
 4082TIP3   OH212209   4.440   4.241   5.230
 4082TIP3    H112210   4.444   4.284   5.315
 4082TIP3    H212211   4.434   4.148   5.250
 4083TIP3   OH212212   4.560   3.897   2.357
 4083TIP3    H112213   4.470   3.897   2.327
 4083TIP3    H212214   4.573   3.811   2.397
 4084TIP3   OH212215   1.395   6.214   4.339
 4084TIP3    H112216   1.358   6.286   4.390
 4084TIP3    H212217   1.467   6.254   4.290
 4085TIP3   OH212218   4.507   1.971   0.516
 4085TIP3    H112219   4.454   1.978   0.437
 4085TIP3    H212220   4.448   1.993   0.587
 4086TIP3   OH212221   1.083   4.767   0.003
 4086TIP3    H112222   1.047   4.845  -0.038
 4086TIP3    H212223   1.174   4.788   0.021
 4087TIP3   OH212224   4.794   1.812   2.425
 4087TIP3    H112225   4.839   1.778   2.502
 4087TIP3    H212226   4.810   1.907   2.428
 4088TIP3   OH212227   0.190   5.069   1.983
 4088TIP3    H112228   0.139   5.107   2.055
 4088TIP3    H212229   0.277   5.054   2.021
 4089TIP3   OH212230   6.278   4.747   2.677
 4089TIP3    H112231   6.186   4.763   2.658
 4089TIP3    H212232   6.279   4.712   2.767
 4090TIP3   OH212233   3.826   0.351   0.541
 4090TIP3    H112234   3.914   0.330   0.573
 4090TIP3    H212235   3.841   0.407   0.465
 4091TIP3   OH212236   1.155   5.310   5.763
 4091TIP3    H112237   1.079   5.294   5.707
 4091TIP3    H212238   1.126   5.284   5.850
 4092TIP3   OH212239   3.200   2.633   3.693
 4092TIP3    H112240   3.251   2.644   3.613
 4092TIP3    H212241   3.127   2.694   3.684
 4093TIP3   OH212242   7.180   4.851   1.759
 4093TIP3    H112243   7.238   4.797   1.705
 4093TIP3    H212244   7.203   4.941   1.736
 4094TIP3   OH212245   0.605   2.491   2.363
 4094TIP3    H112246   0.520   2.447   2.363
 4094TIP3    H212247   0.584   2.583   2.375
 4095TIP3   OH212248   2.080   3.259   1.324
 4095TIP3    H112249   2.055   3.172   1.356
 4095TIP3    H212250   2.115   3.242   1.236
 4096TIP3   OH212251   6.918   1.977   4.787
 4096TIP3    H112252   6.975   2.025   4.727
 4096TIP3    H212253   6.934   1.885   4.767
 4097TIP3   OH212254   3.445   4.730   1.894
 4097TIP3    H112255   3.362   4.710   1.937
 4097TIP3    H212256   3.456   4.824   1.907
 4098TIP3   OH212257   2.467   6.501   3.475
 4098TIP3    H112258   2.388   6.506   3.423
 4098TIP3    H212259   2.528   6.561   3.433
 4099TIP3   OH212260   0.535   0.732   0.711
 4099TIP3    H112261   0.445   0.742   0.741
 4099TIP3    H212262   0.579   0.813   0.738
 4100TIP3   OH212263   5.243   1.039   3.837
 4100TIP3    H112264   5.165   0.990   3.862
 4100TIP3    H212265   5.314   1.001   3.888
 4101TIP3   OH212266   2.368   6.561   2.551
 4101TIP3    H112267   2.306   6.535   2.484
 4101TIP3    H212268   2.430   6.619   2.506
 4102TIP3   OH212269   3.248   4.455   3.266
 4102TIP3    H112270   3.305   4.413   3.201
 4102TIP3    H212271   3.290   4.436   3.350
 4103TIP3   OH212272   6.453   4.310   0.996
 4103TIP3    H112273   6.495   4.392   0.970
 4103TIP3    H212274   6.472   4.249   0.925
 4104TIP3   OH212275   3.699   2.582   5.278
 4104TIP3    H112276   3.693   2.511   5.214
 4104TIP3    H212277   3.710   2.661   5.226
 4105TIP3   OH212278   4.324   4.668   4.154
 4105TIP3    H112279   4.393   4.687   4.218
 4105TIP3    H212280   4.363   4.602   4.096
 4106TIP3   OH212281   2.361   1.928   4.406
 4106TIP3    H112282   2.354   1.856   4.344
 4106TIP3    H212283   2.406   1.891   4.482
 4107TIP3   OH212284   5.078   3.514   1.821
 4107TIP3    H112285   5.153   3.476   1.776
 4107TIP3    H212286   5.098   3.504   1.914
 4108TIP3   OH212287   0.926   3.375   4.947
 4108TIP3    H112288   0.919   3.326   5.029
 4108TIP3    H212289   0.956   3.311   4.883
 4109TIP3   OH212290   3.772   5.690   3.181
 4109TIP3    H112291   3.808   5.775   3.156
 4109TIP3    H212292   3.761   5.696   3.276
 4110TIP3   OH212293   4.860   2.973   5.661
 4110TIP3    H112294   4.926   3.036   5.692
 4110TIP3    H212295   4.892   2.888   5.693
 4111TIP3   OH212296   2.654   6.726   3.434
 4111TIP3    H112297   2.583   6.790   3.442
 4111TIP3    H212298   2.685   6.737   3.344
 4112TIP3   OH212299   0.385   1.089   2.847
 4112TIP3    H112300   0.379   1.147   2.922
 4112TIP3    H212301   0.325   1.017   2.867
 4113TIP3   OH212302   1.936   5.365   1.496
 4113TIP3    H112303   1.918   5.449   1.453
 4113TIP3    H212304   1.918   5.300   1.429
 4114TIP3   OH212305   5.776   3.778   4.860
 4114TIP3    H112306   5.871   3.780   4.854
 4114TIP3    H212307   5.748   3.856   4.812
 4115TIP3   OH212308   1.489   3.506   3.648
 4115TIP3    H112309   1.512   3.419   3.681
 4115TIP3    H212310   1.395   3.502   3.633
 4116TIP3   OH212311   5.944   6.166   2.928
 4116TIP3    H112312   5.950   6.090   2.870
 4116TIP3    H212313   6.035   6.188   2.948
 4117TIP3   OH212314   2.642   0.804   0.327
 4117TIP3    H112315   2.620   0.855   0.405
 4117TIP3    H212316   2.631   0.864   0.254
 4118TIP3   OH212317   6.148   2.716   4.198
 4118TIP3    H112318   6.174   2.629   4.228
 4118TIP3    H212319   6.076   2.741   4.255
 4119TIP3   OH212320   6.064   5.572   2.625
 4119TIP3    H112321   6.084   5.632   2.553
 4119TIP3    H212322   6.138   5.580   2.684
 4120TIP3   OH212323   5.479   0.369   4.584
 4120TIP3    H112324   5.526   0.436   4.634
 4120TIP3    H212325   5.387   0.384   4.604
 4121TIP3   OH212326   5.553   0.107   3.637
 4121TIP3    H112327   5.460   0.090   3.618
 4121TIP3    H212328   5.558   0.202   3.647
 4122TIP3   OH212329   5.123   5.058   0.036
 4122TIP3    H112330   5.199   5.117   0.032
 4122TIP3    H212331   5.134   5.000  -0.039
 4123TIP3   OH212332   5.384   6.052   4.226
 4123TIP3    H112333   5.384   6.080   4.318
 4123TIP3    H212334   5.298   6.011   4.214
 4124TIP3   OH212335   6.019   3.056   2.574
 4124TIP3    H112336   6.007   3.128   2.511
 4124TIP3    H212337   6.101   3.014   2.547
 4125TIP3   OH212338   3.222   5.419   5.659
 4125TIP3    H112339   3.295   5.459   5.613
 4125TIP3    H212340   3.263   5.354   5.717
 4126TIP3   OH212341   1.233   6.265   2.142
 4126TIP3    H112342   1.223   6.210   2.064
 4126TIP3    H212343   1.254   6.352   2.107
 4127TIP3   OH212344   1.596   1.497   2.395
 4127TIP3    H112345   1.632   1.560   2.333
 4127TIP3    H212346   1.672   1.452   2.431
 4128TIP3   OH212347   2.690   3.507   1.978
 4128TIP3    H112348   2.704   3.506   1.883
 4128TIP3    H212349   2.777   3.522   2.015
 4129TIP3   OH212350   4.945   5.586   5.168
 4129TIP3    H112351   5.035   5.553   5.174
 4129TIP3    H212352   4.949   5.673   5.208
 4130TIP3   OH212353   0.998   6.392   4.155
 4130TIP3    H112354   1.032   6.429   4.237
 4130TIP3    H212355   0.942   6.461   4.119
 4131TIP3   OH212356   6.859   3.830   0.031
 4131TIP3    H112357   6.784   3.860  -0.019
 4131TIP3    H212358   6.826   3.816   0.120
 4132TIP3   OH212359   6.559   4.938   4.739
 4132TIP3    H112360   6.574   5.016   4.793
 4132TIP3    H212361   6.487   4.892   4.783
 4133TIP3   OH212362   2.392   4.686   5.755
 4133TIP3    H112363   2.332   4.611   5.751
 4133TIP3    H212364   2.449   4.676   5.678
 4134TIP3   OH212365   0.333   0.752   0.893
 4134TIP3    H112366   0.368   0.760   0.982
 4134TIP3    H212367   0.311   0.660   0.884
 4135TIP3   OH212368   4.717   6.254   1.255
 4135TIP3    H112369   4.639   6.258   1.200
 4135TIP3    H212370   4.719   6.338   1.300
 4136TIP3   OH212371   1.198   1.845   3.925
 4136TIP3    H112372   1.273   1.904   3.932
 4136TIP3    H212373   1.132   1.883   3.983
 4137TIP3   OH212374   5.560   3.590   3.976
 4137TIP3    H112375   5.541   3.498   3.994
 4137TIP3    H212376   5.485   3.620   3.924
 4138TIP3   OH212377  -0.008   5.023   5.436
 4138TIP3    H112378   0.039   4.943   5.410
 4138TIP3    H212379   0.001   5.026   5.532
 4139TIP3   OH212380   4.231   2.548   1.983
 4139TIP3    H112381   4.188   2.467   1.956
 4139TIP3    H212382   4.317   2.521   2.015
 4140TIP3   OH212383   3.770   1.687   4.492
 4140TIP3    H112384   3.685   1.698   4.450
 4140TIP3    H212385   3.829   1.747   4.445
 4141TIP3   OH212386   0.931   2.999   3.721
 4141TIP3    H112387   0.895   2.917   3.754
 4141TIP3    H212388   0.951   3.050   3.799
 4142TIP3   OH212389   0.721  -0.001   2.602
 4142TIP3    H112390   0.738   0.091   2.581
 4142TIP3    H212391   0.763  -0.050   2.532
 4143TIP3   OH212392   4.189   3.078   1.687
 4143TIP3    H112393   4.183   3.008   1.622
 4143TIP3    H212394   4.190   3.158   1.635
 4144TIP3   OH212395   5.648   0.249   5.622
 4144TIP3    H112396   5.580   0.286   5.677
 4144TIP3    H212397   5.638   0.291   5.537
 4145TIP3   OH212398   0.353   4.857   0.334
 4145TIP3    H112399   0.350   4.841   0.428
 4145TIP3    H212400   0.442   4.832   0.309
 4146TIP3   OH212401   6.663   4.494   5.873
 4146TIP3    H112402   6.700   4.406   5.883
 4146TIP3    H212403   6.738   4.548   5.850
 4147TIP3   OH212404   6.533   4.529   2.251
 4147TIP3    H112405   6.458   4.545   2.309
 4147TIP3    H212406   6.534   4.605   2.193
 4148TIP3   OH212407   1.288   3.920   0.480
 4148TIP3    H112408   1.350   3.984   0.444
 4148TIP3    H212409   1.340   3.869   0.542
 4149TIP3   OH212410   7.154   3.050   1.714
 4149TIP3    H112411   7.191   2.993   1.781
 4149TIP3    H212412   7.112   2.990   1.652
 4150TIP3   OH212413   5.725   6.003   3.793
 4150TIP3    H112414   5.725   5.930   3.855
 4150TIP3    H212415   5.690   5.965   3.712
 4151TIP3   OH212416   6.630   5.703   2.622
 4151TIP3    H112417   6.622   5.647   2.700
 4151TIP3    H212418   6.588   5.785   2.648
 4152TIP3   OH212419   5.536   1.947   0.108
 4152TIP3    H112420   5.559   2.026   0.060
 4152TIP3    H212421   5.605   1.885   0.086
 4153TIP3   OH212422   2.801   3.579   2.986
 4153TIP3    H112423   2.854   3.585   2.907
 4153TIP3    H212424   2.724   3.632   2.967
 4154TIP3   OH212425   3.252   2.231   2.312
 4154TIP3    H112426   3.322   2.251   2.375
 4154TIP3    H212427   3.202   2.161   2.354
 4155TIP3   OH212428   3.304   0.285   3.059
 4155TIP3    H112429   3.387   0.259   3.020
 4155TIP3    H212430   3.267   0.349   2.998
 4156TIP3   OH212431   0.481   1.924   0.598
 4156TIP3    H112432   0.566   1.933   0.640
 4156TIP3    H212433   0.455   2.014   0.578
 4157TIP3   OH212434   1.046   2.540   2.831
 4157TIP3    H112435   0.955   2.558   2.851
 4157TIP3    H212436   1.097   2.593   2.892
 4158TIP3   OH212437   6.308   0.227   0.949
 4158TIP3    H112438   6.386   0.280   0.931
 4158TIP3    H212439   6.238   0.291   0.959
 4159TIP3   OH212440   4.217   1.728   3.280
 4159TIP3    H112441   4.243   1.684   3.199
 4159TIP3    H212442   4.121   1.721   3.281
 4160TIP3   OH212443   3.597   4.887   5.146
 4160TIP3    H112444   3.661   4.951   5.178
 4160TIP3    H212445   3.650   4.819   5.103
 4161TIP3   OH212446   6.075   6.011   2.268
 4161TIP3    H112447   6.086   5.982   2.359
 4161TIP3    H212448   5.980   6.019   2.258
 4162TIP3   OH212449   3.073   5.586   1.705
 4162TIP3    H112450   3.046   5.514   1.763
 4162TIP3    H212451   3.069   5.664   1.761
 4163TIP3   OH212452   0.388   6.010   0.584
 4163TIP3    H112453   0.295   5.990   0.595
 4163TIP3    H212454   0.404   5.997   0.490
 4164TIP3   OH212455   7.169   2.317   5.037
 4164TIP3    H112456   7.225   2.394   5.046
 4164TIP3    H212457   7.093   2.336   5.091
 4165TIP3   OH212458   1.646   5.891   0.229
 4165TIP3    H112459   1.614   5.980   0.214
 4165TIP3    H212460   1.674   5.860   0.143
 4166TIP3   OH212461   1.578   6.472   1.755
 4166TIP3    H112462   1.504   6.411   1.756
 4166TIP3    H212463   1.583   6.504   1.845
 4167TIP3   OH212464   1.694   6.256   4.275
 4167TIP3    H112465   1.735   6.274   4.360
 4167TIP3    H212466   1.764   6.272   4.211
 4168TIP3   OH212467   6.654   2.899   3.875
 4168TIP3    H112468   6.640   2.837   3.947
 4168TIP3    H212469   6.747   2.922   3.882
 4169TIP3   OH212470   1.812   3.142   2.648
 4169TIP3    H112471   1.735   3.131   2.704
 4169TIP3    H212472   1.805   3.231   2.615
 4170TIP3   OH212473   5.461   2.641   2.762
 4170TIP3    H112474   5.436   2.734   2.769
 4170TIP3    H212475   5.431   2.615   2.676
 4171TIP3   OH212476   3.707   5.634   3.446
 4171TIP3    H112477   3.659   5.665   3.522
 4171TIP3    H212478   3.655   5.561   3.412
 4172TIP3   OH212479   1.439   4.819   5.625
 4172TIP3    H112480   1.451   4.879   5.552
 4172TIP3    H212481   1.390   4.870   5.690
 4173TIP3   OH212482   2.184   2.308   0.871
 4173TIP3    H112483   2.185   2.394   0.914
 4173TIP3    H212484   2.092   2.281   0.873
 4174TIP3   OH212485   2.337   5.478   4.410
 4174TIP3    H112486   2.328   5.401   4.353
 4174TIP3    H212487   2.265   5.535   4.383
 4175TIP3   OH212488   0.932   4.526   5.697
 4175TIP3    H112489   0.903   4.437   5.676
 4175TIP3    H212490   1.011   4.514   5.748
 4176TIP3   OH212491   6.898   3.264   3.109
 4176TIP3    H112492   6.953   3.292   3.182
 4176TIP3    H212493   6.958   3.264   3.034
 4177TIP3   OH212494   6.201   4.477   4.609
 4177TIP3    H112495   6.225   4.545   4.546
 4177TIP3    H212496   6.181   4.401   4.555
 4178TIP3   OH212497   1.199   0.674   1.146
 4178TIP3    H112498   1.139   0.663   1.072
 4178TIP3    H212499   1.240   0.588   1.156
 4179TIP3   OH212500   6.940   1.415   4.656
 4179TIP3    H112501   6.863   1.471   4.663
 4179TIP3    H212502   7.014   1.475   4.654
 4180TIP3   OH212503   5.167   0.273   1.643
 4180TIP3    H112504   5.249   0.225   1.657
 4180TIP3    H212505   5.159   0.279   1.548
 4181TIP3   OH212506   3.153   4.614   4.094
 4181TIP3    H112507   3.176   4.528   4.128
 4181TIP3    H212508   3.084   4.597   4.030
 4182TIP3   OH212509   6.754   2.812   4.987
 4182TIP3    H112510   6.801   2.893   4.969
 4182TIP3    H212511   6.674   2.839   5.033
 4183TIP3   OH212512   5.550   3.258   0.040
 4183TIP3    H112513   5.607   3.213   0.102
 4183TIP3    H212514   5.523   3.338   0.086
 4184TIP3   OH212515   4.327   4.617   2.092
 4184TIP3    H112516   4.310   4.524   2.078
 4184TIP3    H212517   4.361   4.621   2.182
 4185TIP3   OH212518   5.395   5.241   2.388
 4185TIP3    H112519   5.471   5.211   2.438
 4185TIP3    H212520   5.343   5.161   2.375
 4186TIP3   OH212521   1.494   0.000   4.726
 4186TIP3    H112522   1.586   0.026   4.722
 4186TIP3    H212523   1.482  -0.059   4.652
 4187TIP3   OH212524   3.656   1.531   1.029
 4187TIP3    H112525   3.686   1.518   0.938
 4187TIP3    H212526   3.566   1.500   1.029
 4188TIP3   OH212527   6.771   6.666   3.703
 4188TIP3    H112528   6.766   6.587   3.757
 4188TIP3    H212529   6.771   6.633   3.613
 4189TIP3   OH212530   4.939   4.732   0.849
 4189TIP3    H112531   4.887   4.698   0.776
 4189TIP3    H212532   4.998   4.661   0.872
 4190TIP3   OH212533   4.137   0.308   1.573
 4190TIP3    H112534   4.191   0.323   1.496
 4190TIP3    H212535   4.181   0.237   1.621
 4191TIP3   OH212536   4.637   4.683   0.190
 4191TIP3    H112537   4.582   4.759   0.209
 4191TIP3    H212538   4.656   4.691   0.096
 4192TIP3   OH212539   4.744   2.357   5.846
 4192TIP3    H112540   4.802   2.306   5.902
 4192TIP3    H212541   4.659   2.356   5.891
 4193TIP3   OH212542   2.031   1.920   4.632
 4193TIP3    H112543   2.067   1.973   4.561
 4193TIP3    H212544   1.993   1.984   4.693
 4194TIP3   OH212545   3.847   3.877   4.481
 4194TIP3    H112546   3.824   3.955   4.530
 4194TIP3    H212547   3.928   3.899   4.436
 4195TIP3   OH212548   1.417   2.767   3.531
 4195TIP3    H112549   1.364   2.761   3.610
 4195TIP3    H212550   1.364   2.819   3.470
 4196TIP3   OH212551   4.634   0.765   2.495
 4196TIP3    H112552   4.682   0.761   2.413
 4196TIP3    H212553   4.552   0.811   2.473
 4197TIP3   OH212554   0.183   3.149   1.992
 4197TIP3    H112555   0.266   3.114   2.023
 4197TIP3    H212556   0.189   3.243   2.009
 4198TIP3   OH212557   3.995   3.250   0.530
 4198TIP3    H112558   4.034   3.163   0.538
 4198TIP3    H212559   3.971   3.274   0.620
 4199TIP3   OH212560   5.635   1.548   2.084
 4199TIP3    H112561   5.696   1.492   2.134
 4199TIP3    H212562   5.609   1.494   2.010
 4200TIP3   OH212563   4.201   6.033   0.540
 4200TIP3    H112564   4.277   6.009   0.593
 4200TIP3    H212565   4.144   6.081   0.600
 4201TIP3   OH212566   2.834   5.777   4.762
 4201TIP3    H112567   2.860   5.687   4.743
 4201TIP3    H212568   2.905   5.811   4.816
 4202TIP3   OH212569   7.046   4.940   3.482
 4202TIP3    H112570   6.995   4.872   3.437
 4202TIP3    H212571   7.069   4.901   3.566
 4203TIP3   OH212572   4.151   4.107   4.540
 4203TIP3    H112573   4.141   4.116   4.445
 4203TIP3    H212574   4.189   4.020   4.552
 4204TIP3   OH212575   0.862   0.475   5.100
 4204TIP3    H112576   0.952   0.507   5.089
 4204TIP3    H212577   0.864   0.428   5.183
 4205TIP3   OH212578   4.500   2.443   1.912
 4205TIP3    H112579   4.525   2.372   1.970
 4205TIP3    H212580   4.577   2.457   1.856
 4206TIP3   OH212581   6.782   5.391   4.013
 4206TIP3    H112582   6.737   5.400   3.929
 4206TIP3    H212583   6.769   5.299   4.036
 4207TIP3   OH212584   5.394   6.120   4.492
 4207TIP3    H112585   5.354   6.194   4.537
 4207TIP3    H212586   5.488   6.132   4.506
 4208TIP3   OH212587   5.443   5.529   1.351
 4208TIP3    H112588   5.370   5.473   1.326
 4208TIP3    H212589   5.403   5.604   1.395
 4209TIP3   OH212590   2.469   1.583   0.827
 4209TIP3    H112591   2.449   1.538   0.745
 4209TIP3    H212592   2.434   1.672   0.814
 4210TIP3   OH212593   1.237   0.932   5.160
 4210TIP3    H112594   1.324   0.973   5.153
 4210TIP3    H212595   1.196   0.948   5.075
 4211TIP3   OH212596   2.644   0.896   3.401
 4211TIP3    H112597   2.686   0.933   3.323
 4211TIP3    H212598   2.558   0.868   3.371
 4212TIP3   OH212599   0.608   3.234   3.023
 4212TIP3    H112600   0.611   3.211   3.116
 4212TIP3    H212601   0.515   3.225   2.999
 4213TIP3   OH212602   3.391   2.893   3.200
 4213TIP3    H112603   3.470   2.924   3.157
 4213TIP3    H212604   3.378   2.804   3.166
 4214TIP3   OH212605   5.948   2.094   3.764
 4214TIP3    H112606   5.960   2.027   3.832
 4214TIP3    H212607   6.030   2.094   3.715
 4215TIP3   OH212608   7.132   3.933   0.525
 4215TIP3    H112609   7.139   3.868   0.455
 4215TIP3    H212610   7.202   3.911   0.586
 4216TIP3   OH212611   3.231   0.780   1.930
 4216TIP3    H112612   3.229   0.685   1.940
 4216TIP3    H212613   3.153   0.800   1.879
 4217TIP3   OH212614   3.880   4.042   5.182
 4217TIP3    H112615   3.902   3.951   5.160
 4217TIP3    H212616   3.965   4.083   5.197
 4218TIP3   OH212617   0.815   6.639   0.557
 4218TIP3    H112618   0.887   6.698   0.532
 4218TIP3    H212619   0.859   6.557   0.579
 4219TIP3   OH212620   3.250   3.529   4.261
 4219TIP3    H112621   3.184   3.579   4.309
 4219TIP3    H212622   3.303   3.487   4.330
 4220TIP3   OH212623   3.092   5.012   1.079
 4220TIP3    H112624   3.046   4.979   1.002
 4220TIP3    H212625   3.031   5.072   1.120
 4221TIP3   OH212626   3.905   6.084   4.095
 4221TIP3    H112627   3.936   6.172   4.072
 4221TIP3    H212628   3.817   6.080   4.058
 4222TIP3   OH212629   6.801   4.661   3.877
 4222TIP3    H112630   6.752   4.645   3.958
 4222TIP3    H212631   6.742   4.715   3.824
 4223TIP3   OH212632   3.445   0.595   3.405
 4223TIP3    H112633   3.352   0.613   3.419
 4223TIP3    H212634   3.449   0.548   3.321
 4224TIP3   OH212635   0.839   0.212   3.996
 4224TIP3    H112636   0.809   0.139   4.049
 4224TIP3    H212637   0.928   0.229   4.026
 4225TIP3   OH212638   1.815   1.496   5.388
 4225TIP3    H112639   1.778   1.551   5.458
 4225TIP3    H212640   1.759   1.513   5.312
 4226TIP3   OH212641   2.698   3.419   5.649
 4226TIP3    H112642   2.619   3.382   5.610
 4226TIP3    H212643   2.709   3.371   5.731
 4227TIP3   OH212644   2.526   1.411   1.037
 4227TIP3    H112645   2.549   1.473   0.968
 4227TIP3    H212646   2.441   1.442   1.070
 4228TIP3   OH212647   5.537   3.901   3.973
 4228TIP3    H112648   5.547   3.917   4.066
 4228TIP3    H212649   5.602   3.833   3.953
 4229TIP3   OH212650   4.314   0.214   4.835
 4229TIP3    H112651   4.315   0.228   4.930
 4229TIP3    H212652   4.232   0.167   4.819
 4230TIP3   OH212653   0.180   6.242   4.197
 4230TIP3    H112654   0.155   6.307   4.262
 4230TIP3    H212655   0.127   6.165   4.220
 4231TIP3   OH212656   2.664   1.899   1.346
 4231TIP3    H112657   2.593   1.924   1.405
 4231TIP3    H212658   2.683   1.978   1.296
 4232TIP3   OH212659   4.168   4.271   5.493
 4232TIP3    H112660   4.232   4.342   5.500
 4232TIP3    H212661   4.109   4.286   5.567
 4233TIP3   OH212662   7.060   3.858   5.070
 4233TIP3    H112663   7.098   3.809   5.143
 4233TIP3    H212664   7.002   3.795   5.026
 4234TIP3   OH212665   5.690   6.219   1.553
 4234TIP3    H112666   5.700   6.228   1.648
 4234TIP3    H212667   5.682   6.125   1.539
 4235TIP3   OH212668   0.584   2.283   5.760
 4235TIP3    H112669   0.597   2.365   5.711
 4235TIP3    H212670   0.505   2.298   5.810
 4236TIP3   OH212671   0.918   6.036  -0.012
 4236TIP3    H112672   0.840   6.092  -0.019
 4236TIP3    H212673   0.907   5.990   0.071
 4237TIP3   OH212674   5.620   6.776   1.303
 4237TIP3    H112675   5.595   6.791   1.212
 4237TIP3    H212676   5.581   6.849   1.351
 4238TIP3   OH212677   1.675   3.070   0.051
 4238TIP3    H112678   1.667   3.102   0.140
 4238TIP3    H212679   1.658   3.146  -0.004
 4239TIP3   OH212680   4.456   6.307   1.127
 4239TIP3    H112681   4.384   6.370   1.120
 4239TIP3    H212682   4.492   6.303   1.039
 4240TIP3   OH212683   6.278   3.552   3.001
 4240TIP3    H112684   6.280   3.466   2.958
 4240TIP3    H212685   6.190   3.559   3.036
 4241TIP3   OH212686   6.748   6.119   5.286
 4241TIP3    H112687   6.692   6.191   5.315
 4241TIP3    H212688   6.825   6.162   5.248
 4242TIP3   OH212689   4.821   4.382   1.730
 4242TIP3    H112690   4.749   4.416   1.783
 4242TIP3    H212691   4.779   4.330   1.662
 4243TIP3   OH212692   0.778   6.407   5.021
 4243TIP3    H112693   0.694   6.447   4.999
 4243TIP3    H212694   0.811   6.459   5.094
 4244TIP3   OH212695   0.350   2.835   1.506
 4244TIP3    H112696   0.276   2.774   1.500
 4244TIP3    H212697   0.416   2.797   1.448
 4245TIP3   OH212698   5.229   4.184   0.127
 4245TIP3    H112699   5.243   4.108   0.184
 4245TIP3    H212700   5.143   4.217   0.150
 4246TIP3   OH212701   5.178   0.601   1.982
 4246TIP3    H112702   5.129   0.680   1.960
 4246TIP3    H212703   5.111   0.535   2.002
 4247TIP3   OH212704   1.890   0.391   2.405
 4247TIP3    H112705   1.896   0.459   2.338
 4247TIP3    H212706   1.803   0.352   2.391
 4248TIP3   OH212707   6.031   2.377   3.121
 4248TIP3    H112708   6.023   2.402   3.213
 4248TIP3    H212709   5.940   2.363   3.093
 4249TIP3   OH212710   1.047   6.260   5.342
 4249TIP3    H112711   0.963   6.304   5.324
 4249TIP3    H212712   1.068   6.215   5.261
 4250TIP3   OH212713   5.287   3.176   2.004
 4250TIP3    H112714   5.210   3.120   2.012
 4250TIP3    H212715   5.341   3.134   1.937
 4251TIP3   OH212716   2.506   2.685   3.191
 4251TIP3    H112717   2.581   2.719   3.143
 4251TIP3    H212718   2.544   2.638   3.265
 4252TIP3   OH212719   1.610   0.088   1.408
 4252TIP3    H112720   1.581   0.090   1.500
 4252TIP3    H212721   1.598  -0.003   1.381
 4253TIP3   OH212722   0.328   2.405   4.316
 4253TIP3    H112723   0.298   2.320   4.284
 4253TIP3    H212724   0.422   2.404   4.302
 4254TIP3   OH212725   6.099   4.099   5.463
 4254TIP3    H112726   6.092   4.038   5.537
 4254TIP3    H212727   6.145   4.175   5.500
 4255TIP3   OH212728   6.807   0.039   5.214
 4255TIP3    H112729   6.740   0.107   5.218
 4255TIP3    H212730   6.816   0.020   5.121
 4256TIP3   OH212731   2.697   5.855   0.665
 4256TIP3    H112732   2.607   5.856   0.632
 4256TIP3    H212733   2.733   5.771   0.636
 4257TIP3   OH212734   6.384   2.973   4.904
 4257TIP3    H112735   6.375   2.953   4.997
 4257TIP3    H212736   6.403   2.889   4.863
 4258TIP3   OH212737   1.612   6.074   3.545
 4258TIP3    H112738   1.620   6.137   3.472
 4258TIP3    H212739   1.653   6.118   3.619
 4259TIP3   OH212740   5.697   4.329   5.846
 4259TIP3    H112741   5.769   4.357   5.902
 4259TIP3    H212742   5.625   4.310   5.906
 4260TIP3   OH212743   0.789   3.476   0.065
 4260TIP3    H112744   0.764   3.386   0.083
 4260TIP3    H212745   0.743   3.499  -0.016
 4261TIP3   OH212746   4.972   2.721   5.680
 4261TIP3    H112747   5.056   2.767   5.686
 4261TIP3    H212748   4.976   2.656   5.750
 4262TIP3   OH212749   4.797   0.822   1.471
 4262TIP3    H112750   4.752   0.763   1.531
 4262TIP3    H212751   4.775   0.910   1.503
 4263TIP3   OH212752   0.004   5.791   2.349
 4263TIP3    H112753   0.019   5.742   2.269
 4263TIP3    H212754  -0.082   5.832   2.336
 4264TIP3   OH212755   5.778   2.667   5.274
 4264TIP3    H112756   5.747   2.626   5.193
 4264TIP3    H212757   5.859   2.620   5.294
 4265TIP3   OH212758   5.676   4.869   2.317
 4265TIP3    H112759   5.696   4.784   2.355
 4265TIP3    H212760   5.600   4.853   2.261
 4266TIP3   OH212761   5.791   2.020   4.057
 4266TIP3    H112762   5.721   2.077   4.091
 4266TIP3    H212763   5.798   1.949   4.121
 4267TIP3   OH212764   5.418   5.020   3.353
 4267TIP3    H112765   5.399   4.927   3.359
 4267TIP3    H212766   5.510   5.025   3.326
 4268TIP3   OH212767   3.725   0.859   1.949
 4268TIP3    H112768   3.649   0.881   2.003
 4268TIP3    H212769   3.797   0.905   1.991
 4269TIP3   OH212770   6.470   1.503   3.306
 4269TIP3    H112771   6.538   1.482   3.242
 4269TIP3    H212772   6.451   1.596   3.291
 4270TIP3   OH212773   4.080   2.788   0.210
 4270TIP3    H112774   4.130   2.737   0.146
 4270TIP3    H212775   4.113   2.759   0.295
 4271TIP3   OH212776   0.171   5.729   5.069
 4271TIP3    H112777   0.173   5.639   5.038
 4271TIP3    H212778   0.213   5.779   5.000
 4272TIP3   OH212779   4.105   0.287   1.164
 4272TIP3    H112780   4.015   0.258   1.151
 4272TIP3    H212781   4.159   0.213   1.136
 4273TIP3   OH212782   0.319   2.960   3.855
 4273TIP3    H112783   0.264   3.035   3.878
 4273TIP3    H212784   0.328   2.965   3.760
 4274TIP3   OH212785   0.670   0.978   3.658
 4274TIP3    H112786   0.668   1.055   3.716
 4274TIP3    H212787   0.722   0.913   3.706
 4275TIP3   OH212788   4.188   2.263   1.034
 4275TIP3    H112789   4.120   2.216   1.082
 4275TIP3    H212790   4.264   2.205   1.038
 4276TIP3   OH212791   5.445   4.555   5.623
 4276TIP3    H112792   5.436   4.460   5.616
 4276TIP3    H212793   5.389   4.589   5.553
 4277TIP3   OH212794   6.994   5.106   1.526
 4277TIP3    H112795   6.990   5.146   1.613
 4277TIP3    H212796   6.971   5.015   1.540
 4278TIP3   OH212797   2.247   5.404   0.936
 4278TIP3    H112798   2.194   5.361   1.003
 4278TIP3    H212799   2.247   5.497   0.962
 4279TIP3   OH212800   3.016   5.171   4.173
 4279TIP3    H112801   2.945   5.180   4.109
 4279TIP3    H212802   2.973   5.185   4.258
 4280TIP3   OH212803   2.229   4.283   2.404
 4280TIP3    H112804   2.238   4.238   2.488
 4280TIP3    H212805   2.316   4.277   2.364
 4281TIP3   OH212806   2.156   3.294   5.396
 4281TIP3    H112807   2.135   3.387   5.392
 4281TIP3    H212808   2.071   3.251   5.410
 4282TIP3   OH212809   6.837   3.633   3.855
 4282TIP3    H112810   6.754   3.593   3.881
 4282TIP3    H212811   6.812   3.705   3.797
 4283TIP3   OH212812   0.221   0.224   4.043
 4283TIP3    H112813   0.269   0.216   4.125
 4283TIP3    H212814   0.285   0.254   3.980
 4284TIP3   OH212815   0.970   5.229   1.380
 4284TIP3    H112816   0.881   5.196   1.368
 4284TIP3    H212817   0.964   5.321   1.353
 4285TIP3   OH212818   0.246   5.950   3.808
 4285TIP3    H112819   0.307   5.984   3.743
 4285TIP3    H212820   0.162   5.945   3.763
 4286TIP3   OH212821   1.357   0.449   0.792
 4286TIP3    H112822   1.339   0.386   0.862
 4286TIP3    H212823   1.431   0.500   0.824
 4287TIP3   OH212824   3.166   4.970   2.037
 4287TIP3    H112825   3.074   4.946   2.045
 4287TIP3    H212826   3.213   4.895   2.074
 4288TIP3   OH212827   0.383   0.832   4.326
 4288TIP3    H112828   0.357   0.790   4.244
 4288TIP3    H212829   0.359   0.769   4.394
 4289TIP3   OH212830   3.905   2.129   0.420
 4289TIP3    H112831   3.864   2.043   0.409
 4289TIP3    H212832   3.971   2.115   0.488
 4290TIP3   OH212833   0.870   5.045   1.659
 4290TIP3    H112834   0.793   5.017   1.709
 4290TIP3    H212835   0.853   5.014   1.570
 4291TIP3   OH212836   3.610   1.116   1.728
 4291TIP3    H112837   3.624   1.032   1.772
 4291TIP3    H212838   3.693   1.134   1.685
 4292TIP3   OH212839   3.536   3.912   5.913
 4292TIP3    H112840   3.488   3.925   5.831
 4292TIP3    H212841   3.627   3.929   5.890
 4293TIP3   OH212842   4.628   6.566   4.905
 4293TIP3    H112843   4.577   6.536   4.981
 4293TIP3    H212844   4.703   6.611   4.943
 4294TIP3   OH212845   3.070   6.490   0.465
 4294TIP3    H112846   3.011   6.485   0.390
 4294TIP3    H212847   3.014   6.521   0.537
 4295TIP3   OH212848   0.471   6.061   5.717
 4295TIP3    H112849   0.493   6.110   5.797
 4295TIP3    H212850   0.413   5.991   5.747
 4296TIP3   OH212851   2.475   6.524   4.216
 4296TIP3    H112852   2.558   6.490   4.181
 4296TIP3    H212853   2.500   6.603   4.264
 4297TIP3   OH212854   0.198   5.076   1.005
 4297TIP3    H112855   0.177   5.039   1.090
 4297TIP3    H212856   0.271   5.136   1.021
 4298TIP3   OH212857   2.060   1.092   4.351
 4298TIP3    H112858   2.103   1.031   4.412
 4298TIP3    H212859   1.994   1.137   4.404
 4299TIP3   OH212860   7.117   4.694   3.267
 4299TIP3    H112861   7.130   4.630   3.196
 4299TIP3    H212862   7.035   4.668   3.308
 4300TIP3   OH212863   4.714   2.775   0.361
 4300TIP3    H112864   4.742   2.713   0.429
 4300TIP3    H212865   4.660   2.723   0.301
 4301TIP3   OH212866   5.475   1.683   1.732
 4301TIP3    H112867   5.467   1.588   1.722
 4301TIP3    H212868   5.499   1.714   1.644
 4302TIP3   OH212869   2.558   0.698   5.012
 4302TIP3    H112870   2.613   0.634   4.968
 4302TIP3    H212871   2.485   0.714   4.952
 4303TIP3   OH212872   3.737   5.122   5.681
 4303TIP3    H112873   3.705   5.194   5.628
 4303TIP3    H212874   3.751   5.050   5.619
 4304TIP3   OH212875   3.631   2.250   2.953
 4304TIP3    H112876   3.686   2.294   2.889
 4304TIP3    H212877   3.578   2.320   2.992
 4305TIP3   OH212878   3.142   1.792   1.205
 4305TIP3    H112879   3.048   1.801   1.215
 4305TIP3    H212880   3.168   1.864   1.149
 4306TIP3   OH212881   5.532   1.446   0.055
 4306TIP3    H112882   5.587   1.469   0.130
 4306TIP3    H212883   5.499   1.359   0.075
 4307TIP3   OH212884   6.185   4.658   5.757
 4307TIP3    H112885   6.226   4.571   5.764
 4307TIP3    H212886   6.209   4.687   5.669
 4308TIP3   OH212887   5.473   6.178   2.405
 4308TIP3    H112888   5.392   6.229   2.396
 4308TIP3    H212889   5.454   6.094   2.364
 4309TIP3   OH212890   3.384   3.332   3.932
 4309TIP3    H112891   3.475   3.359   3.921
 4309TIP3    H212892   3.382   3.241   3.904
 4310TIP3   OH212893   0.643   3.043   3.735
 4310TIP3    H112894   0.723   3.017   3.690
 4310TIP3    H212895   0.665   3.127   3.777
 4311TIP3   OH212896   1.691   1.103   3.122
 4311TIP3    H112897   1.709   1.197   3.120
 4311TIP3    H212898   1.616   1.094   3.181
 4312TIP3   OH212899   1.353   5.391   4.279
 4312TIP3    H112900   1.448   5.398   4.265
 4312TIP3    H212901   1.321   5.480   4.268
 4313TIP3   OH212902   1.162   1.955   3.668
 4313TIP3    H112903   1.240   2.004   3.644
 4313TIP3    H212904   1.176   1.930   3.759
 4314TIP3   OH212905   2.578   4.896   5.841
 4314TIP3    H112906   2.527   4.819   5.815
 4314TIP3    H212907   2.650   4.860   5.893
 4315TIP3   OH212908   1.043   1.178   1.819
 4315TIP3    H112909   1.076   1.117   1.752
 4315TIP3    H212910   1.121   1.208   1.865
 4316TIP3   OH212911   1.687   6.632   3.584
 4316TIP3    H112912   1.726   6.625   3.671
 4316TIP3    H212913   1.701   6.723   3.559
 4317TIP3   OH212914   5.320   2.145   1.567
 4317TIP3    H112915   5.348   2.097   1.645
 4317TIP3    H212916   5.341   2.237   1.587
 4318TIP3   OH212917   6.116   6.772   5.358
 4318TIP3    H112918   6.071   6.820   5.427
 4318TIP3    H212919   6.196   6.740   5.400
 4319TIP3   OH212920   0.610   4.045   0.272
 4319TIP3    H112921   0.549   4.113   0.299
 4319TIP3    H212922   0.559   3.964   0.273
 4320TIP3   OH212923   3.463   2.417   5.199
 4320TIP3    H112924   3.511   2.456   5.126
 4320TIP3    H212925   3.386   2.473   5.210
 4321TIP3   OH212926   2.652   1.815   2.824
 4321TIP3    H112927   2.583   1.839   2.762
 4321TIP3    H212928   2.605   1.772   2.896
 4322TIP3   OH212929   4.917   3.986   2.446
 4322TIP3    H112930   4.861   4.053   2.406
 4322TIP3    H212931   4.991   4.035   2.482
 4323TIP3   OH212932   1.079   0.507   4.358
 4323TIP3    H112933   1.106   0.558   4.434
 4323TIP3    H212934   1.155   0.509   4.299
 4324TIP3   OH212935   5.255   6.768   0.295
 4324TIP3    H112936   5.313   6.695   0.275
 4324TIP3    H212937   5.277   6.835   0.230
 4325TIP3   OH212938   5.399   6.457   2.174
 4325TIP3    H112939   5.389   6.379   2.119
 4325TIP3    H212940   5.311   6.475   2.206
 4326TIP3   OH212941   1.067   1.081   1.542
 4326TIP3    H112942   1.125   1.090   1.467
 4326TIP3    H212943   1.001   1.017   1.514
 4327TIP3   OH212944   0.224   5.548   3.825
 4327TIP3    H112945   0.269   5.618   3.873
 4327TIP3    H212946   0.294   5.493   3.790
 4328TIP3   OH212947   1.470   4.672   3.855
 4328TIP3    H112948   1.540   4.607   3.850
 4328TIP3    H212949   1.397   4.632   3.807
 4329TIP3   OH212950   6.655   1.540   5.222
 4329TIP3    H112951   6.640   1.491   5.141
 4329TIP3    H212952   6.569   1.574   5.246
 4330TIP3   OH212953   1.574   4.244   2.157
 4330TIP3    H112954   1.613   4.328   2.180
 4330TIP3    H212955   1.527   4.218   2.236
 4331TIP3   OH212956   0.726   6.754   4.234
 4331TIP3    H112957   0.682   6.825   4.188
 4331TIP3    H212958   0.656   6.708   4.281
 4332TIP3   OH212959   5.070   3.644   3.735
 4332TIP3    H112960   5.092   3.656   3.643
 4332TIP3    H212961   4.980   3.675   3.743
 4333TIP3   OH212962   2.417   1.618   4.528
 4333TIP3    H112963   2.483   1.617   4.459
 4333TIP3    H212964   2.450   1.555   4.593
 4334TIP3   OH212965   2.752   5.995   4.172
 4334TIP3    H112966   2.743   5.996   4.267
 4334TIP3    H212967   2.679   5.942   4.141
 4335TIP3   OH212968   0.712   3.905   3.657
 4335TIP3    H112969   0.748   3.976   3.710
 4335TIP3    H212970   0.710   3.830   3.717
 4336TIP3   OH212971   5.383   5.676   0.754
 4336TIP3    H112972   5.311   5.615   0.773
 4336TIP3    H212973   5.462   5.629   0.780
 4337TIP3   OH212974   4.092   1.508   5.415
 4337TIP3    H112975   4.132   1.568   5.352
 4337TIP3    H212976   4.030   1.562   5.464
 4338TIP3   OH212977   1.735   5.319   0.205
 4338TIP3    H112978   1.646   5.295   0.230
 4338TIP3    H212979   1.774   5.352   0.286
 4339TIP3   OH212980   4.283   4.506   0.830
 4339TIP3    H112981   4.213   4.446   0.854
 4339TIP3    H212982   4.252   4.550   0.751
 4340TIP3   OH212983   2.279   4.840   4.798
 4340TIP3    H112984   2.202   4.797   4.835
 4340TIP3    H212985   2.274   4.822   4.704
 4341TIP3   OH212986   4.673   2.730   1.809
 4341TIP3    H112987   4.748   2.673   1.828
 4341TIP3    H212988   4.647   2.765   1.894
 4342TIP3   OH212989   6.130   6.074   4.850
 4342TIP3    H112990   6.186   6.108   4.920
 4342TIP3    H212991   6.186   6.074   4.772
 4343TIP3   OH212992   0.925   1.251   0.470
 4343TIP3    H112993   0.995   1.316   0.471
 4343TIP3    H212994   0.965   1.174   0.428
 4344TIP3   OH212995   4.042   6.043   5.206
 4344TIP3    H112996   3.990   5.991   5.268
 4344TIP3    H212997   4.123   6.062   5.254
 4345TIP3   OH212998   6.891   5.114   1.910
 4345TIP3    H112999   6.876   5.180   1.842
 4345TIP3    H213000   6.891   5.030   1.863
 4346TIP3   OH213001   2.738   1.331   5.347
 4346TIP3    H113002   2.683   1.354   5.273
 4346TIP3    H213003   2.804   1.272   5.310
 4347TIP3   OH213004   0.038   2.221   4.452
 4347TIP3    H113005  -0.030   2.282   4.424
 4347TIP3    H213006   0.109   2.276   4.484
 4348TIP3   OH213007   5.286   3.754   2.179
 4348TIP3    H113008   5.230   3.715   2.246
 4348TIP3    H213009   5.350   3.806   2.228
 4349TIP3   OH213010   5.846   2.083   3.454
 4349TIP3    H113011   5.800   2.070   3.537
 4349TIP3    H213012   5.936   2.056   3.472
 4350TIP3   OH213013   0.375   5.992   2.754
 4350TIP3    H113014   0.307   5.932   2.786
 4350TIP3    H213015   0.360   5.997   2.660
 4351TIP3   OH213016   3.627   2.612   4.003
 4351TIP3    H113017   3.647   2.548   4.071
 4351TIP3    H213018   3.646   2.697   4.044
 4352TIP3   OH213019   2.712   0.070   0.875
 4352TIP3    H113020   2.670   0.054   0.791
 4352TIP3    H213021   2.803   0.044   0.862
 4353TIP3   OH213022   2.406   1.658   4.812
 4353TIP3    H113023   2.368   1.669   4.725
 4353TIP3    H213024   2.484   1.714   4.812
 4354TIP3   OH213025   5.033   1.898   2.078
 4354TIP3    H113026   5.087   1.828   2.041
 4354TIP3    H213027   4.944   1.874   2.054
 4355TIP3   OH213028   0.056   2.924   1.936
 4355TIP3    H113029   0.108   3.004   1.949
 4355TIP3    H213030   0.120   2.857   1.912
 4356TIP3   OH213031   4.564   3.062   2.380
 4356TIP3    H113032   4.613   3.123   2.435
 4356TIP3    H213033   4.519   3.118   2.317
 4357TIP3   OH213034   4.896   1.658   4.888
 4357TIP3    H113035   4.886   1.583   4.829
 4357TIP3    H213036   4.827   1.719   4.862
 4358TIP3   OH213037   2.983   4.337   1.315
 4358TIP3    H113038   2.994   4.326   1.221
 4358TIP3    H213039   2.966   4.249   1.348
 4359TIP3   OH213040   2.269   4.505   4.191
 4359TIP3    H113041   2.236   4.483   4.104
 4359TIP3    H213042   2.201   4.476   4.252
 4360TIP3   OH213043   2.893   4.639   0.522
 4360TIP3    H113044   2.800   4.653   0.541
 4360TIP3    H213045   2.911   4.552   0.556
 4361TIP3   OH213046   5.134   1.284  -0.050
 4361TIP3    H113047   5.126   1.238   0.034
 4361TIP3    H213048   5.188   1.225  -0.104
 4362TIP3   OH213049   4.573   0.451   1.470
 4362TIP3    H113050   4.513   0.378   1.480
 4362TIP3    H213051   4.619   0.433   1.388
 4363TIP3   OH213052   6.774   1.726   0.700
 4363TIP3    H113053   6.743   1.722   0.791
 4363TIP3    H213054   6.788   1.635   0.676
 4364TIP3   OH213055   3.098   2.852   0.124
 4364TIP3    H113056   3.166   2.789   0.149
 4364TIP3    H213057   3.017   2.815   0.159
 4365TIP3   OH213058   4.844   4.392   5.365
 4365TIP3    H113059   4.915   4.453   5.345
 4365TIP3    H213060   4.813   4.419   5.452
 4366TIP3   OH213061   1.041   1.162   5.494
 4366TIP3    H113062   1.126   1.119   5.497
 4366TIP3    H213063   1.002   1.145   5.580
 4367TIP3   OH213064   2.282   4.507   1.120
 4367TIP3    H113065   2.232   4.471   1.193
 4367TIP3    H213066   2.374   4.497   1.146
 4368TIP3   OH213067   6.901   4.633   5.817
 4368TIP3    H113068   6.959   4.620   5.892
 4368TIP3    H213069   6.847   4.708   5.841
 4369TIP3   OH213070   2.605   4.535   1.921
 4369TIP3    H113071   2.656   4.570   1.993
 4369TIP3    H213072   2.565   4.612   1.880
 4370TIP3   OH213073   5.969   5.889   4.965
 4370TIP3    H113074   5.999   5.815   4.914
 4370TIP3    H213075   6.007   5.965   4.922
 4371TIP3   OH213076   4.611   2.804   4.879
 4371TIP3    H113077   4.534   2.834   4.927
 4371TIP3    H213078   4.582   2.800   4.788
 4372TIP3   OH213079   6.980   5.373   2.541
 4372TIP3    H113080   7.033   5.388   2.463
 4372TIP3    H213081   6.912   5.312   2.512
 4373TIP3   OH213082   4.273   5.721   1.151
 4373TIP3    H113083   4.239   5.664   1.082
 4373TIP3    H213084   4.305   5.799   1.105
 4374TIP3   OH213085   3.739   1.714   3.773
 4374TIP3    H113086   3.682   1.764   3.715
 4374TIP3    H213087   3.816   1.770   3.786
 4375TIP3   OH213088   1.584   4.851   3.389
 4375TIP3    H113089   1.587   4.930   3.442
 4375TIP3    H213090   1.492   4.823   3.394
 4376TIP3   OH213091   6.017   1.384   3.547
 4376TIP3    H113092   5.990   1.292   3.546
 4376TIP3    H213093   6.049   1.400   3.458
 4377TIP3   OH213094   3.148   4.085   4.062
 4377TIP3    H113095   3.166   4.061   3.971
 4377TIP3    H213096   3.096   4.012   4.096
 4378TIP3   OH213097   4.001   3.968   2.703
 4378TIP3    H113098   3.932   3.939   2.643
 4378TIP3    H213099   3.985   4.062   2.714
 4379TIP3   OH213100   3.805   2.253   4.426
 4379TIP3    H113101   3.816   2.170   4.473
 4379TIP3    H213102   3.794   2.318   4.496
 4380TIP3   OH213103   7.150   4.821   3.751
 4380TIP3    H113104   7.229   4.776   3.781
 4380TIP3    H213105   7.082   4.796   3.813
 4381TIP3   OH213106   4.358   3.179   2.691
 4381TIP3    H113107   4.309   3.180   2.609
 4381TIP3    H213108   4.345   3.090   2.726
 4382TIP3   OH213109   4.720   3.707   5.874
 4382TIP3    H113110   4.749   3.797   5.861
 4382TIP3    H213111   4.753   3.660   5.797
 4383TIP3   OH213112   2.596   5.154   0.636
 4383TIP3    H113113   2.550   5.182   0.557
 4383TIP3    H213114   2.544   5.189   0.709
 4384TIP3   OH213115   3.326   0.923   1.458
 4384TIP3    H113116   3.245   0.900   1.413
 4384TIP3    H213117   3.317   0.885   1.545
 4385TIP3   OH213118   2.261   6.388   4.776
 4385TIP3    H113119   2.262   6.294   4.759
 4385TIP3    H213120   2.173   6.406   4.809
 4386TIP3   OH213121   5.098   2.255   4.833
 4386TIP3    H113122   5.152   2.302   4.769
 4386TIP3    H213123   5.151   2.254   4.913
 4387TIP3   OH213124   0.274   5.340   0.150
 4387TIP3    H113125   0.261   5.251   0.183
 4387TIP3    H213126   0.369   5.353   0.152
 4388TIP3   OH213127   6.947   6.271   3.453
 4388TIP3    H113128   6.957   6.359   3.488
 4388TIP3    H213129   6.852   6.258   3.449
 4389TIP3   OH213130   1.453   5.660   4.403
 4389TIP3    H113131   1.533   5.607   4.401
 4389TIP3    H213132   1.437   5.675   4.497
 4390TIP3   OH213133   4.020   2.559   1.309
 4390TIP3    H113134   3.927   2.581   1.302
 4390TIP3    H213135   4.031   2.532   1.400
 4391TIP3   OH213136   4.903   4.919   5.591
 4391TIP3    H113137   4.869   5.004   5.564
 4391TIP3    H213138   4.996   4.922   5.568
 4392TIP3   OH213139   4.272   1.616   5.205
 4392TIP3    H113140   4.208   1.605   5.135
 4392TIP3    H213141   4.357   1.597   5.163
 4393TIP3   OH213142   3.159   3.135   2.232
 4393TIP3    H113143   3.147   3.218   2.185
 4393TIP3    H213144   3.086   3.131   2.293
 4394TIP3   OH213145   5.814   5.018   4.153
 4394TIP3    H113146   5.780   5.073   4.223
 4394TIP3    H213147   5.740   5.009   4.092
 4395TIP3   OH213148   2.190   5.164   4.311
 4395TIP3    H113149   2.168   5.169   4.404
 4395TIP3    H213150   2.105   5.162   4.267
 4396TIP3   OH213151   2.727   5.158   2.012
 4396TIP3    H113152   2.634   5.149   2.034
 4396TIP3    H213153   2.754   5.239   2.054
 4397TIP3   OH213154   5.958   0.582   5.104
 4397TIP3    H113155   5.955   0.672   5.135
 4397TIP3    H213156   6.015   0.537   5.166
 4398TIP3   OH213157   0.209   5.227   5.799
 4398TIP3    H113158   0.262   5.204   5.875
 4398TIP3    H213159   0.222   5.321   5.787
 4399TIP3   OH213160   0.749   2.973   4.083
 4399TIP3    H113161   0.771   2.925   4.163
 4399TIP3    H213162   0.814   2.943   4.019
 4400TIP3   OH213163   2.230   0.967   4.581
 4400TIP3    H113164   2.300   1.006   4.529
 4400TIP3    H213165   2.250   0.992   4.671
 4401TIP3   OH213166   6.431   2.836   2.200
 4401TIP3    H113167   6.406   2.747   2.227
 4401TIP3    H213168   6.513   2.824   2.152
 4402TIP3   OH213169   1.608   6.605   2.690
 4402TIP3    H113170   1.624   6.591   2.596
 4402TIP3    H213171   1.560   6.527   2.718
 4403TIP3   OH213172   0.867   4.807   5.699
 4403TIP3    H113173   0.798   4.841   5.757
 4403TIP3    H213174   0.866   4.713   5.714
 4404TIP3   OH213175   5.034   0.546   5.182
 4404TIP3    H113176   4.981   0.519   5.108
 4404TIP3    H213177   5.101   0.603   5.144
 4405TIP3   OH213178   1.416   1.522   1.996
 4405TIP3    H113179   1.396   1.571   2.076
 4405TIP3    H213180   1.334   1.477   1.974
 4406TIP3   OH213181   0.866   1.240   1.486
 4406TIP3    H113182   0.885   1.326   1.449
 4406TIP3    H213183   0.952   1.202   1.504
 4407TIP3   OH213184   6.196   2.108   3.218
 4407TIP3    H113185   6.183   2.199   3.190
 4407TIP3    H213186   6.291   2.101   3.232
 4408TIP3   OH213187   0.004   0.392   4.361
 4408TIP3    H113188  -0.041   0.460   4.311
 4408TIP3    H213189   0.001   0.314   4.305
 4409TIP3   OH213190   3.444   4.087   1.090
 4409TIP3    H113191   3.413   4.158   1.034
 4409TIP3    H213192   3.408   4.008   1.050
 4410TIP3   OH213193   5.225   0.223   3.603
 4410TIP3    H113194   5.309   0.270   3.604
 4410TIP3    H213195   5.159   0.292   3.599
 4411TIP3   OH213196   0.423   6.296   2.007
 4411TIP3    H113197   0.456   6.362   1.945
 4411TIP3    H213198   0.332   6.283   1.982
 4412TIP3   OH213199   6.564   4.209   5.607
 4412TIP3    H113200   6.528   4.143   5.548
 4412TIP3    H213201   6.615   4.266   5.549
 4413TIP3   OH213202   6.997   3.406   3.369
 4413TIP3    H113203   6.928   3.472   3.382
 4413TIP3    H213204   6.973   3.334   3.427
 4414TIP3   OH213205   6.189   2.864   0.303
 4414TIP3    H113206   6.245   2.895   0.374
 4414TIP3    H213207   6.232   2.896   0.223
 4415TIP3   OH213208   1.695   1.948   3.830
 4415TIP3    H113209   1.775   1.901   3.856
 4415TIP3    H213210   1.723   2.038   3.816
 4416TIP3   OH213211   2.171   5.188   3.129
 4416TIP3    H113212   2.113   5.239   3.185
 4416TIP3    H213213   2.127   5.103   3.120
 4417TIP3   OH213214   7.133   2.780   2.367
 4417TIP3    H113215   7.167   2.707   2.418
 4417TIP3    H213216   7.141   2.752   2.276
 4418TIP3   OH213217   2.008   3.186   2.458
 4418TIP3    H113218   2.070   3.180   2.531
 4418TIP3    H213219   1.924   3.161   2.496
 4419TIP3   OH213220   0.609   4.254   4.025
 4419TIP3    H113221   0.585   4.235   4.115
 4419TIP3    H213222   0.593   4.349   4.016
 4420TIP3   OH213223   2.531   3.690   4.487
 4420TIP3    H113224   2.502   3.743   4.414
 4420TIP3    H213225   2.539   3.602   4.451
 4421TIP3   OH213226   0.371   4.133   3.781
 4421TIP3    H113227   0.323   4.162   3.704
 4421TIP3    H213228   0.417   4.212   3.811
 4422TIP3   OH213229   1.664   2.873   1.019
 4422TIP3    H113230   1.599   2.900   0.954
 4422TIP3    H213231   1.730   2.825   0.969
 4423TIP3   OH213232   2.828   3.254   1.328
 4423TIP3    H113233   2.876   3.285   1.405
 4423TIP3    H213234   2.738   3.282   1.342
 4424TIP3   OH213235   3.285   3.739   5.476
 4424TIP3    H113236   3.197   3.728   5.510
 4424TIP3    H213237   3.293   3.833   5.460
 4425TIP3   OH213238   2.991   3.578   3.546
 4425TIP3    H113239   2.922   3.644   3.553
 4425TIP3    H213240   3.041   3.604   3.469
 4426TIP3   OH213241   1.270   3.844   1.920
 4426TIP3    H113242   1.336   3.807   1.980
 4426TIP3    H213243   1.205   3.883   1.978
 4427TIP3   OH213244   1.125   2.431   0.973
 4427TIP3    H113245   1.206   2.398   1.011
 4427TIP3    H213246   1.152   2.509   0.924
 4428TIP3   OH213247   1.447   1.724   4.990
 4428TIP3    H113248   1.475   1.815   4.996
 4428TIP3    H213249   1.523   1.678   4.953
 4429TIP3   OH213250   0.102   2.613   0.049
 4429TIP3    H113251   0.043   2.678   0.088
 4429TIP3    H213252   0.054   2.581  -0.028
 4430TIP3   OH213253   6.987   2.192   0.930
 4430TIP3    H113254   6.988   2.204   0.835
 4430TIP3    H213255   7.079   2.190   0.956
 4431TIP3   OH213256   5.838   5.434   5.768
 4431TIP3    H113257   5.860   5.528   5.768
 4431TIP3    H213258   5.920   5.390   5.790
 4432TIP3   OH213259   2.512   5.642   3.520
 4432TIP3    H113260   2.562   5.563   3.539
 4432TIP3    H213261   2.541   5.668   3.432
 4433TIP3   OH213262   1.235   5.606   3.447
 4433TIP3    H113263   1.256   5.524   3.492
 4433TIP3    H213264   1.268   5.594   3.358
 4434TIP3   OH213265   3.238   4.919   0.322
 4434TIP3    H113266   3.157   4.965   0.341
 4434TIP3    H213267   3.305   4.987   0.322
 4435TIP3   OH213268   0.794   0.205   4.946
 4435TIP3    H113269   0.833   0.279   4.993
 4435TIP3    H213270   0.842   0.129   4.977
 4436TIP3   OH213271   4.179   1.215   0.264
 4436TIP3    H113272   4.141   1.220   0.177
 4436TIP3    H213273   4.210   1.124   0.271
 4437TIP3   OH213274   3.916   3.411   4.475
 4437TIP3    H113275   3.905   3.335   4.532
 4437TIP3    H213276   3.847   3.402   4.410
 4438TIP3   OH213277   6.677   3.535   5.037
 4438TIP3    H113278   6.592   3.490   5.038
 4438TIP3    H213279   6.734   3.481   5.091
 4439TIP3   OH213280   6.996   1.470   0.370
 4439TIP3    H113281   7.000   1.500   0.460
 4439TIP3    H213282   7.084   1.484   0.335
 4440TIP3   OH213283   2.770   2.038   0.643
 4440TIP3    H113284   2.699   2.002   0.590
 4440TIP3    H213285   2.837   2.063   0.579
 4441TIP3   OH213286   5.331   2.642   0.473
 4441TIP3    H113287   5.423   2.616   0.480
 4441TIP3    H213288   5.285   2.585   0.536
 4442TIP3   OH213289   6.374   6.649   4.254
 4442TIP3    H113290   6.461   6.682   4.276
 4442TIP3    H213291   6.383   6.609   4.168
 4443TIP3   OH213292   3.272   3.043   3.860
 4443TIP3    H113293   3.177   3.051   3.866
 4443TIP3    H213294   3.295   2.977   3.925
 4444TIP3   OH213295   6.543   5.064   2.905
 4444TIP3    H113296   6.448   5.076   2.910
 4444TIP3    H213297   6.555   5.000   2.835
 4445TIP3   OH213298   5.374   4.453   3.037
 4445TIP3    H113299   5.456   4.501   3.023
 4445TIP3    H213300   5.338   4.443   2.949
 4446TIP3   OH213301   5.504   3.689   2.587
 4446TIP3    H113302   5.554   3.641   2.521
 4446TIP3    H213303   5.416   3.698   2.549
 4447TIP3   OH213304   6.997   1.162   2.095
 4447TIP3    H113305   6.993   1.255   2.115
 4447TIP3    H213306   7.091   1.143   2.088
 4448TIP3   OH213307   1.592   3.769   1.753
 4448TIP3    H113308   1.652   3.696   1.734
 4448TIP3    H213309   1.588   3.772   1.849
 4449TIP3   OH213310   0.167   2.537   4.962
 4449TIP3    H113311   0.193   2.603   4.898
 4449TIP3    H213312   0.245   2.521   5.015
 4450TIP3   OH213313   0.421   5.517   2.317
 4450TIP3    H113314   0.479   5.520   2.393
 4450TIP3    H213315   0.333   5.513   2.354
 4451TIP3   OH213316   2.542   3.282   3.587
 4451TIP3    H113317   2.593   3.354   3.551
 4451TIP3    H213318   2.452   3.299   3.558
 4452TIP3   OH213319   0.486   0.868   2.214
 4452TIP3    H113320   0.403   0.849   2.258
 4452TIP3    H213321   0.467   0.942   2.156
 4453TIP3   OH213322   3.933   3.118   2.548
 4453TIP3    H113323   3.905   3.132   2.458
 4453TIP3    H213324   3.930   3.023   2.560
 4454TIP3   OH213325   5.077   4.822   1.721
 4454TIP3    H113326   4.983   4.802   1.715
 4454TIP3    H213327   5.080   4.916   1.738
 4455TIP3   OH213328   4.799   2.171   0.160
 4455TIP3    H113329   4.831   2.236   0.098
 4455TIP3    H213330   4.878   2.127   0.191
 4456TIP3   OH213331   3.812   5.051   5.173
 4456TIP3    H113332   3.896   5.068   5.131
 4456TIP3    H213333   3.833   5.033   5.264
 4457TIP3   OH213334   6.937   0.710   4.106
 4457TIP3    H113335   6.917   0.633   4.053
 4457TIP3    H213336   6.985   0.675   4.181
 4458TIP3   OH213337   7.103   0.534   1.676
 4458TIP3    H113338   7.184   0.569   1.640
 4458TIP3    H213339   7.107   0.557   1.769
 4459TIP3   OH213340   1.266   1.185   0.668
 4459TIP3    H113341   1.180   1.147   0.684
 4459TIP3    H213342   1.262   1.217   0.578
 4460TIP3   OH213343   2.937   5.692   0.218
 4460TIP3    H113344   2.993   5.768   0.236
 4460TIP3    H213345   2.874   5.691   0.289
 4461TIP3   OH213346   6.495   1.886   2.288
 4461TIP3    H113347   6.559   1.951   2.259
 4461TIP3    H213348   6.548   1.818   2.330
 4462TIP3   OH213349   0.037   5.127   4.446
 4462TIP3    H113350  -0.046   5.173   4.435
 4462TIP3    H213351   0.103   5.188   4.411
 4463TIP3   OH213352   7.158   5.253   1.151
 4463TIP3    H113353   7.071   5.213   1.143
 4463TIP3    H213354   7.194   5.216   1.232
 4464TIP3   OH213355   6.378   2.834   4.567
 4464TIP3    H113356   6.437   2.874   4.631
 4464TIP3    H213357   6.296   2.882   4.577
 4465TIP3   OH213358   0.532   5.857   0.809
 4465TIP3    H113359   0.495   5.777   0.771
 4465TIP3    H213360   0.467   5.925   0.789
 4466TIP3   OH213361   6.295   3.277   1.107
 4466TIP3    H113362   6.309   3.370   1.124
 4466TIP3    H213363   6.269   3.241   1.191
 4467TIP3   OH213364   5.406   6.728   3.748
 4467TIP3    H113365   5.497   6.720   3.720
 4467TIP3    H213366   5.355   6.716   3.668
 4468TIP3   OH213367   5.103   3.409   4.310
 4468TIP3    H113368   5.079   3.436   4.399
 4468TIP3    H213369   5.039   3.342   4.288
 4469TIP3   OH213370   1.858   4.261   4.621
 4469TIP3    H113371   1.913   4.198   4.574
 4469TIP3    H213372   1.820   4.210   4.693
 4470TIP3   OH213373   5.755   5.724   0.586
 4470TIP3    H113374   5.821   5.792   0.600
 4470TIP3    H213375   5.719   5.706   0.673
 4471TIP3   OH213376   0.873   0.321   2.680
 4471TIP3    H113377   0.826   0.340   2.598
 4471TIP3    H213378   0.804   0.303   2.744
 4472TIP3   OH213379   5.201   2.391   2.895
 4472TIP3    H113380   5.229   2.344   2.816
 4472TIP3    H213381   5.231   2.481   2.882
 4473TIP3   OH213382   1.460   1.555   0.706
 4473TIP3    H113383   1.365   1.546   0.695
 4473TIP3    H213384   1.476   1.648   0.691
 4474TIP3   OH213385   3.998   2.051   2.918
 4474TIP3    H113386   3.913   2.006   2.921
 4474TIP3    H213387   4.016   2.072   3.009
 4475TIP3   OH213388   3.061   1.661   2.957
 4475TIP3    H113389   3.003   1.736   2.948
 4475TIP3    H213390   3.048   1.631   3.047
 4476TIP3   OH213391   6.638   0.647   1.270
 4476TIP3    H113392   6.729   0.630   1.293
 4476TIP3    H213393   6.623   0.737   1.298
 4477TIP3   OH213394   5.189   5.473   5.235
 4477TIP3    H113395   5.173   5.444   5.325
 4477TIP3    H213396   5.284   5.480   5.229
 4478TIP3   OH213397   6.058   2.630   2.885
 4478TIP3    H113398   6.153   2.637   2.895
 4478TIP3    H213399   6.024   2.634   2.974
 4479TIP3   OH213400   1.581   5.364   4.097
 4479TIP3    H113401   1.618   5.330   4.016
 4479TIP3    H213402   1.579   5.459   4.085
 4480TIP3   OH213403   5.073   1.618   5.087
 4480TIP3    H113404   5.000   1.619   5.025
 4480TIP3    H213405   5.070   1.704   5.129
 4481TIP3   OH213406   2.765   6.438   5.096
 4481TIP3    H113407   2.807   6.453   5.012
 4481TIP3    H213408   2.836   6.411   5.154
 4482TIP3   OH213409   6.128   1.426   3.300
 4482TIP3    H113410   6.219   1.422   3.328
 4482TIP3    H213411   6.116   1.517   3.273
 4483TIP3   OH213412   0.985   4.435   0.446
 4483TIP3    H113413   0.937   4.422   0.364
 4483TIP3    H213414   0.918   4.429   0.514
 4484TIP3   OH213415   0.238   3.866   1.421
 4484TIP3    H113416   0.189   3.882   1.340
 4484TIP3    H213417   0.241   3.952   1.465
 4485TIP3   OH213418   4.793   3.186   4.974
 4485TIP3    H113419   4.704   3.163   5.000
 4485TIP3    H213420   4.845   3.174   5.053
 4486TIP3   OH213421   0.399   2.405   1.698
 4486TIP3    H113422   0.380   2.313   1.717
 4486TIP3    H213423   0.336   2.453   1.752
 4487TIP3   OH213424   6.447   6.604   1.427
 4487TIP3    H113425   6.460   6.510   1.414
 4487TIP3    H213426   6.527   6.633   1.471
 4488TIP3   OH213427   1.837   3.295   4.161
 4488TIP3    H113428   1.792   3.230   4.214
 4488TIP3    H213429   1.846   3.255   4.075
 4489TIP3   OH213430   3.330   4.680   1.324
 4489TIP3    H113431   3.273   4.614   1.283
 4489TIP3    H213432   3.323   4.756   1.266
 4490TIP3   OH213433   0.108   2.045   1.632
 4490TIP3    H113434   0.123   2.138   1.617
 4490TIP3    H213435   0.013   2.036   1.635
 4491TIP3   OH213436   2.570   4.778   4.466
 4491TIP3    H113437   2.477   4.802   4.469
 4491TIP3    H213438   2.615   4.860   4.445
 4492TIP3   OH213439   1.231   6.355   5.700
 4492TIP3    H113440   1.224   6.290   5.631
 4492TIP3    H213441   1.162   6.419   5.680
 4493TIP3   OH213442   4.199   4.169   3.103
 4493TIP3    H113443   4.176   4.196   3.192
 4493TIP3    H213444   4.193   4.073   3.105
 4494TIP3   OH213445   2.359   4.865   4.196
 4494TIP3    H113446   2.289   4.897   4.139
 4494TIP3    H213447   2.402   4.796   4.145
 4495TIP3   OH213448   0.437   6.011   3.624
 4495TIP3    H113449   0.503   6.080   3.631
 4495TIP3    H213450   0.417   6.006   3.531
 4496TIP3   OH213451   3.621   5.900   1.489
 4496TIP3    H113452   3.699   5.938   1.532
 4496TIP3    H213453   3.654   5.823   1.444
 4497TIP3   OH213454   4.510   3.093   4.320
 4497TIP3    H113455   4.541   3.112   4.231
 4497TIP3    H213456   4.456   3.014   4.310
 4498TIP3   OH213457   0.299   2.792   5.347
 4498TIP3    H113458   0.238   2.727   5.312
 4498TIP3    H213459   0.334   2.835   5.269
 4499TIP3   OH213460   6.498   2.778   0.795
 4499TIP3    H113461   6.500   2.777   0.891
 4499TIP3    H213462   6.425   2.835   0.773
 4500TIP3   OH213463   4.721   2.939   4.154
 4500TIP3    H113464   4.665   2.889   4.213
 4500TIP3    H213465   4.810   2.914   4.179
 4501TIP3   OH213466   4.467   4.863   3.378
 4501TIP3    H113467   4.530   4.935   3.383
 4501TIP3    H213468   4.389   4.902   3.337
 4502TIP3   OH213469   2.894   4.398   2.183
 4502TIP3    H113470   2.831   4.468   2.166
 4502TIP3    H213471   2.840   4.323   2.209
 4503TIP3   OH213472   7.037   1.818   0.803
 4503TIP3    H113473   6.951   1.780   0.784
 4503TIP3    H213474   7.099   1.759   0.760
 4504TIP3   OH213475   5.756   4.705   3.795
 4504TIP3    H113476   5.824   4.736   3.736
 4504TIP3    H213477   5.724   4.784   3.840
 4505TIP3   OH213478   1.046   3.573   4.385
 4505TIP3    H113479   1.121   3.632   4.374
 4505TIP3    H213480   1.027   3.542   4.297
 4506TIP3   OH213481   2.386   2.716   0.602
 4506TIP3    H113482   2.458   2.680   0.550
 4506TIP3    H213483   2.374   2.653   0.673
 4507TIP3   OH213484   4.748   5.918   1.202
 4507TIP3    H113485   4.799   5.988   1.162
 4507TIP3    H213486   4.683   5.894   1.136
 4508TIP3   OH213487   5.430   0.669   3.319
 4508TIP3    H113488   5.510   0.718   3.299
 4508TIP3    H213489   5.378   0.729   3.373
 4509TIP3   OH213490   1.043   5.720   5.579
 4509TIP3    H113491   0.950   5.734   5.595
 4509TIP3    H213492   1.049   5.630   5.547
 4510TIP3   OH213493   0.419   0.166   3.649
 4510TIP3    H113494   0.467   0.129   3.722
 4510TIP3    H213495   0.427   0.101   3.579
 4511TIP3   OH213496   1.265   2.987   1.600
 4511TIP3    H113497   1.355   2.956   1.611
 4511TIP3    H213498   1.253   3.051   1.670
 4512TIP3   OH213499   5.299   2.787   4.344
 4512TIP3    H113500   5.220   2.750   4.385
 4512TIP3    H213501   5.278   2.879   4.330
 4513TIP3   OH213502   1.411   3.856   5.720
 4513TIP3    H113503   1.457   3.773   5.723
 4513TIP3    H213504   1.457   3.912   5.783
 4514TIP3   OH213505   0.529   5.965   2.299
 4514TIP3    H113506   0.520   5.934   2.389
 4514TIP3    H213507   0.617   5.939   2.273
 4515TIP3   OH213508   2.661   4.521   4.408
 4515TIP3    H113509   2.678   4.523   4.314
 4515TIP3    H213510   2.661   4.613   4.435
 4516TIP3   OH213511   7.061   1.875   5.389
 4516TIP3    H113512   7.048   1.970   5.383
 4516TIP3    H213513   7.003   1.839   5.322
 4517TIP3   OH213514   0.338   3.409   5.143
 4517TIP3    H113515   0.400   3.457   5.197
 4517TIP3    H213516   0.256   3.459   5.150
 4518TIP3   OH213517   1.514   2.105   1.785
 4518TIP3    H113518   1.569   2.082   1.710
 4518TIP3    H213519   1.500   2.199   1.777
 4519TIP3   OH213520   2.366   4.058   4.392
 4519TIP3    H113521   2.319   4.125   4.342
 4519TIP3    H213522   2.437   4.029   4.334
 4520TIP3   OH213523   2.995   4.963   0.463
 4520TIP3    H113524   2.927   5.014   0.418
 4520TIP3    H213525   2.950   4.885   0.494
 4521TIP3   OH213526   6.923   0.216   0.864
 4521TIP3    H113527   6.925   0.311   0.851
 4521TIP3    H213528   7.008   0.186   0.831
 4522TIP3   OH213529   5.148   5.537   3.345
 4522TIP3    H113530   5.110   5.483   3.414
 4522TIP3    H213531   5.080   5.602   3.326
 4523TIP3   OH213532   0.775   6.241   2.995
 4523TIP3    H113533   0.721   6.171   3.030
 4523TIP3    H213534   0.730   6.321   3.020
 4524TIP3   OH213535   1.236   1.070   4.219
 4524TIP3    H113536   1.192   1.084   4.135
 4524TIP3    H213537   1.225   1.153   4.266
 4525TIP3   OH213538   3.525   0.119   2.973
 4525TIP3    H113539   3.567   0.157   3.050
 4525TIP3    H213540   3.550   0.027   2.974
 4526TIP3   OH213541   1.742   4.836   1.941
 4526TIP3    H113542   1.785   4.822   1.857
 4526TIP3    H213543   1.752   4.929   1.958
 4527TIP3   OH213544   5.597   0.824   5.699
 4527TIP3    H113545   5.562   0.757   5.640
 4527TIP3    H213546   5.688   0.834   5.674
 4528TIP3   OH213547   4.080   0.890   5.014
 4528TIP3    H113548   4.156   0.935   5.049
 4528TIP3    H213549   4.041   0.846   5.090
 4529TIP3   OH213550   1.374   5.039   2.378
 4529TIP3    H113551   1.406   5.022   2.289
 4529TIP3    H213552   1.318   5.115   2.369
 4530TIP3   OH213553   5.598   6.108   4.758
 4530TIP3    H113554   5.686   6.107   4.720
 4530TIP3    H213555   5.597   6.186   4.813
 4531TIP3   OH213556   3.899   6.280   0.583
 4531TIP3    H113557   3.971   6.343   0.581
 4531TIP3    H213558   3.899   6.241   0.496
 4532TIP3   OH213559   5.452   0.285   1.495
 4532TIP3    H113560   5.547   0.274   1.502
 4532TIP3    H213561   5.433   0.268   1.403
 4533TIP3   OH213562   5.389   2.574   4.513
 4533TIP3    H113563   5.347   2.659   4.525
 4533TIP3    H213564   5.391   2.562   4.418
 4534TIP3   OH213565   0.880   1.797   1.520
 4534TIP3    H113566   0.961   1.787   1.470
 4534TIP3    H213567   0.817   1.743   1.473
 4535TIP3   OH213568   1.063   5.146   3.293
 4535TIP3    H113569   1.105   5.144   3.379
 4535TIP3    H213570   0.973   5.172   3.311
 4536TIP3   OH213571   7.060   1.214   1.207
 4536TIP3    H113572   7.070   1.203   1.112
 4536TIP3    H213573   7.095   1.134   1.244
 4537TIP3   OH213574   0.257   6.425   0.552
 4537TIP3    H113575   0.220   6.510   0.527
 4537TIP3    H213576   0.291   6.439   0.640
 4538TIP3   OH213577   5.020   5.291   0.948
 4538TIP3    H113578   4.991   5.349   1.019
 4538TIP3    H213579   5.060   5.216   0.993
 4539TIP3   OH213580   0.509   4.300   2.995
 4539TIP3    H113581   0.596   4.316   2.957
 4539TIP3    H213582   0.528   4.253   3.077
 4540TIP3   OH213583   5.677   4.416   0.344
 4540TIP3    H113584   5.735   4.492   0.349
 4540TIP3    H213585   5.604   4.437   0.403
 4541TIP3   OH213586   4.554   1.528   2.845
 4541TIP3    H113587   4.554   1.618   2.876
 4541TIP3    H213588   4.593   1.533   2.758
 4542TIP3   OH213589   6.858   4.494   0.327
 4542TIP3    H113590   6.763   4.506   0.325
 4542TIP3    H213591   6.894   4.582   0.319
 4543TIP3   OH213592   5.476   1.994   1.163
 4543TIP3    H113593   5.535   2.051   1.212
 4543TIP3    H213594   5.429   1.945   1.231
 4544TIP3   OH213595   2.126   5.861   4.979
 4544TIP3    H113596   2.210   5.824   5.004
 4544TIP3    H213597   2.067   5.838   5.051
 4545TIP3   OH213598   6.423   6.426   0.639
 4545TIP3    H113599   6.435   6.382   0.555
 4545TIP3    H213600   6.512   6.441   0.671
 4546TIP3   OH213601   3.224   3.371   5.248
 4546TIP3    H113602   3.207   3.465   5.254
 4546TIP3    H213603   3.142   3.334   5.215
 4547TIP3   OH213604   3.393   1.607   0.937
 4547TIP3    H113605   3.317   1.571   0.983
 4547TIP3    H213606   3.401   1.553   0.859
 4548TIP3   OH213607   1.491   1.033   4.096
 4548TIP3    H113608   1.554   1.019   4.166
 4548TIP3    H213609   1.406   1.022   4.139
 4549TIP3   OH213610   3.596   6.533   1.209
 4549TIP3    H113611   3.610   6.628   1.203
 4549TIP3    H213612   3.654   6.496   1.143
 4550TIP3   OH213613   5.749   3.147   1.192
 4550TIP3    H113614   5.709   3.133   1.278
 4550TIP3    H213615   5.676   3.162   1.133
 4551TIP3   OH213616   2.901   0.767   4.220
 4551TIP3    H113617   2.927   0.687   4.264
 4551TIP3    H213618   2.808   0.755   4.200
 4552TIP3   OH213619   6.754   5.708   0.937
 4552TIP3    H113620   6.834   5.680   0.893
 4552TIP3    H213621   6.759   5.804   0.935
 4553TIP3   OH213622   3.955   2.465   3.354
 4553TIP3    H113623   3.979   2.402   3.286
 4553TIP3    H213624   3.859   2.464   3.354
 4554TIP3   OH213625   6.315   6.808   2.452
 4554TIP3    H113626   6.313   6.733   2.392
 4554TIP3    H213627   6.345   6.881   2.399
 4555TIP3   OH213628   4.571   4.017   4.823
 4555TIP3    H113629   4.482   4.052   4.822
 4555TIP3    H213630   4.560   3.923   4.829
 4556TIP3   OH213631   4.963   0.376   5.807
 4556TIP3    H113632   4.973   0.458   5.855
 4556TIP3    H213633   5.052   0.347   5.788
 4557TIP3   OH213634   4.217   0.891   4.335
 4557TIP3    H113635   4.268   0.897   4.254
 4557TIP3    H213636   4.128   0.912   4.309
 4558TIP3   OH213637   6.201   4.964   2.206
 4558TIP3    H113638   6.171   5.049   2.174
 4558TIP3    H213639   6.208   4.974   2.301
 4559TIP3   OH213640   0.824   1.063   4.814
 4559TIP3    H113641   0.750   1.121   4.801
 4559TIP3    H213642   0.812   1.026   4.901
 4560TIP3   OH213643   5.475   5.460   5.185
 4560TIP3    H113644   5.557   5.484   5.141
 4560TIP3    H213645   5.447   5.380   5.141
 4561TIP3   OH213646   0.847   4.739   0.197
 4561TIP3    H113647   0.884   4.776   0.277
 4561TIP3    H213648   0.922   4.717   0.143
 4562TIP3   OH213649   4.296   5.552   2.697
 4562TIP3    H113650   4.323   5.617   2.761
 4562TIP3    H213651   4.282   5.472   2.748
 4563TIP3   OH213652   1.942   4.739   2.755
 4563TIP3    H113653   1.946   4.721   2.849
 4563TIP3    H213654   1.883   4.672   2.721
 4564TIP3   OH213655   0.372   6.538   2.858
 4564TIP3    H113656   0.432   6.472   2.822
 4564TIP3    H213657   0.419   6.621   2.847
 4565TIP3   OH213658   2.093   4.044   0.877
 4565TIP3    H113659   2.046   4.106   0.821
 4565TIP3    H213660   2.037   3.966   0.878
 4566TIP3   OH213661   2.973   1.126   0.317
 4566TIP3    H113662   2.946   1.101   0.405
 4566TIP3    H213663   2.969   1.222   0.317
 4567TIP3   OH213664   1.709   5.010   3.058
 4567TIP3    H113665   1.669   4.950   2.996
 4567TIP3    H213666   1.732   4.955   3.133
 4568TIP3   OH213667   3.105   4.203   4.734
 4568TIP3    H113668   3.066   4.143   4.798
 4568TIP3    H213669   3.135   4.146   4.663
 4569TIP3   OH213670   5.009   2.397   0.481
 4569TIP3    H113671   5.094   2.384   0.522
 4569TIP3    H213672   5.028   2.437   0.397
 4570TIP3   OH213673   4.071   2.758   2.087
 4570TIP3    H113674   4.027   2.703   2.153
 4570TIP3    H213675   4.115   2.695   2.030
 4571TIP3   OH213676   5.464   6.572   1.561
 4571TIP3    H113677   5.523   6.581   1.486
 4571TIP3    H213678   5.476   6.653   1.610
 4572TIP3   OH213679   0.826   1.464   3.127
 4572TIP3    H113680   0.832   1.491   3.036
 4572TIP3    H213681   0.870   1.534   3.176
 4573TIP3   OH213682   1.617   6.415   3.852
 4573TIP3    H113683   1.663   6.491   3.885
 4573TIP3    H213684   1.552   6.395   3.920
 4574TIP3   OH213685   2.629   5.575   4.871
 4574TIP3    H113686   2.538   5.588   4.898
 4574TIP3    H213687   2.643   5.642   4.803
 4575TIP3   OH213688   5.111   4.756   4.027
 4575TIP3    H113689   5.152   4.671   4.045
 4575TIP3    H213690   5.183   4.818   4.025
 4576TIP3   OH213691   6.065   1.444   0.722
 4576TIP3    H113692   6.078   1.349   0.719
 4576TIP3    H213693   6.135   1.476   0.779
 4577TIP3   OH213694   4.030   0.745   1.336
 4577TIP3    H113695   4.016   0.729   1.242
 4577TIP3    H213696   4.125   0.744   1.346
 4578TIP3   OH213697   5.038   6.704   5.376
 4578TIP3    H113698   5.090   6.638   5.330
 4578TIP3    H213699   5.090   6.725   5.454
 4579TIP3   OH213700   1.929   4.802   1.206
 4579TIP3    H113701   1.838   4.801   1.236
 4579TIP3    H213702   1.934   4.733   1.140
 4580TIP3   OH213703   6.284   1.732   2.122
 4580TIP3    H113704   6.362   1.784   2.143
 4580TIP3    H213705   6.262   1.688   2.204
 4581TIP3   OH213706   2.147   2.093   4.432
 4581TIP3    H113707   2.221   2.036   4.408
 4581TIP3    H213708   2.188   2.173   4.465
 4582TIP3   OH213709   2.046   3.008   1.440
 4582TIP3    H113710   2.102   3.006   1.517
 4582TIP3    H213711   1.984   2.936   1.454
 4583TIP3   OH213712   2.560   3.040   5.198
 4583TIP3    H113713   2.542   3.031   5.105
 4583TIP3    H213714   2.481   3.077   5.236
 4584TIP3   OH213715   5.563   2.880   0.948
 4584TIP3    H113716   5.529   2.805   0.898
 4584TIP3    H213717   5.650   2.896   0.911
 4585TIP3   OH213718   1.758   3.029   2.205
 4585TIP3    H113719   1.790   2.958   2.260
 4585TIP3    H213720   1.709   2.986   2.135
 4586TIP3   OH213721   3.655   4.809   0.147
 4586TIP3    H113722   3.581   4.867   0.129
 4586TIP3    H213723   3.702   4.804   0.064
 4587TIP3   OH213724   4.541   1.256   4.612
 4587TIP3    H113725   4.448   1.260   4.631
 4587TIP3    H213726   4.583   1.244   4.697
 4588TIP3   OH213727   6.900   5.322   0.827
 4588TIP3    H113728   6.923   5.352   0.739
 4588TIP3    H213729   6.804   5.311   0.824
 4589TIP3   OH213730   6.674   2.795   2.861
 4589TIP3    H113731   6.737   2.860   2.830
 4589TIP3    H213732   6.636   2.759   2.781
 4590TIP3   OH213733   4.733   4.794   1.095
 4590TIP3    H113734   4.649   4.789   1.049
 4590TIP3    H213735   4.764   4.883   1.080
 4591TIP3   OH213736   1.866   6.238   0.104
 4591TIP3    H113737   1.892   6.219   0.014
 4591TIP3    H213738   1.948   6.261   0.148
 4592TIP3   OH213739   3.070   6.587   1.205
 4592TIP3    H113740   3.090   6.593   1.112
 4592TIP3    H213741   3.144   6.630   1.249
 4593TIP3   OH213742   6.030   2.979   4.152
 4593TIP3    H113743   6.098   2.938   4.099
 4593TIP3    H213744   5.970   2.908   4.173
 4594TIP3   OH213745   5.247   2.329   2.221
 4594TIP3    H113746   5.223   2.336   2.128
 4594TIP3    H213747   5.199   2.401   2.263
 4595TIP3   OH213748   0.297   3.784   4.506
 4595TIP3    H113749   0.314   3.761   4.597
 4595TIP3    H213750   0.314   3.878   4.501
 4596TIP3   OH213751   6.201   1.045   3.748
 4596TIP3    H113752   6.147   1.094   3.810
 4596TIP3    H213753   6.239   1.111   3.691
 4597TIP3   OH213754   2.266   2.003   0.196
 4597TIP3    H113755   2.206   1.988   0.269
 4597TIP3    H213756   2.342   1.949   0.216
 4598TIP3   OH213757   4.742   3.222   0.323
 4598TIP3    H113758   4.659   3.257   0.288
 4598TIP3    H213759   4.807   3.289   0.300
 4599TIP3   OH213760   1.511   6.034   4.952
 4599TIP3    H113761   1.585   6.088   4.922
 4599TIP3    H213762   1.540   5.998   5.035
 4600TIP3   OH213763   0.799   6.088   5.081
 4600TIP3    H113764   0.767   6.174   5.054
 4600TIP3    H213765   0.778   6.030   5.007
 4601TIP3   OH213766   6.314   2.470   4.858
 4601TIP3    H113767   6.326   2.537   4.791
 4601TIP3    H213768   6.397   2.472   4.907
 4602TIP3   OH213769   5.646   6.668   3.518
 4602TIP3    H113770   5.687   6.741   3.565
 4602TIP3    H213771   5.643   6.697   3.427
 4603TIP3   OH213772   1.195   0.036   1.381
 4603TIP3    H113773   1.211  -0.059   1.384
 4603TIP3    H213774   1.219   0.067   1.468
 4604TIP3   OH213775   1.826   4.867   4.142
 4604TIP3    H113776   1.775   4.840   4.065
 4604TIP3    H213777   1.913   4.830   4.127
 4605TIP3   OH213778   5.090   3.056   0.199
 4605TIP3    H113779   5.182   3.069   0.176
 4605TIP3    H213780   5.083   3.083   0.290
 4606TIP3   OH213781   5.876   2.321   2.021
 4606TIP3    H113782   5.843   2.342   1.934
 4606TIP3    H213783   5.856   2.399   2.073
 4607TIP3   OH213784   4.108   3.505   5.023
 4607TIP3    H113785   4.058   3.498   5.105
 4607TIP3    H213786   4.042   3.512   4.955
 4608TIP3   OH213787   2.615   6.258   1.570
 4608TIP3    H113788   2.700   6.231   1.535
 4608TIP3    H213789   2.619   6.236   1.663
 4609TIP3   OH213790   3.547   1.477   0.496
 4609TIP3    H113791   3.470   1.518   0.537
 4609TIP3    H213792   3.515   1.444   0.413
 4610TIP3   OH213793   5.690   3.121   5.561
 4610TIP3    H113794   5.684   3.045   5.504
 4610TIP3    H213795   5.634   3.187   5.519
 4611TIP3   OH213796   2.803   0.555   1.815
 4611TIP3    H113797   2.875   0.497   1.791
 4611TIP3    H213798   2.740   0.497   1.858
 4612TIP3   OH213799   1.765   5.752   4.583
 4612TIP3    H113800   1.847   5.766   4.630
 4612TIP3    H213801   1.698   5.751   4.652
 4613TIP3   OH213802   6.078   5.594   5.527
 4613TIP3    H113803   6.156   5.588   5.582
 4613TIP3    H213804   6.101   5.548   5.447
 4614TIP3   OH213805   3.461   2.738   0.573
 4614TIP3    H113806   3.367   2.758   0.575
 4614TIP3    H213807   3.482   2.713   0.663
 4615TIP3   OH213808   4.419   0.909   1.967
 4615TIP3    H113809   4.433   0.864   2.050
 4615TIP3    H213810   4.348   0.971   1.984
 4616TIP3   OH213811   5.686   2.202   3.813
 4616TIP3    H113812   5.737   2.265   3.863
 4616TIP3    H213813   5.751   2.140   3.779
 4617TIP3   OH213814   1.455   3.951   4.961
 4617TIP3    H113815   1.430   4.000   4.882
 4617TIP3    H213816   1.476   4.019   5.025
 4618TIP3   OH213817   6.017   5.414   0.794
 4618TIP3    H113818   5.925   5.399   0.773
 4618TIP3    H213819   6.016   5.472   0.870
 4619TIP3   OH213820   0.734   0.770   3.256
 4619TIP3    H113821   0.769   0.684   3.235
 4619TIP3    H213822   0.721   0.812   3.171
 4620TIP3   OH213823   1.888   4.404   5.779
 4620TIP3    H113824   1.799   4.369   5.791
 4620TIP3    H213825   1.889   4.435   5.688
 4621TIP3   OH213826   5.703   4.105   0.384
 4621TIP3    H113827   5.700   4.190   0.427
 4621TIP3    H213828   5.680   4.123   0.293
 4622TIP3   OH213829   7.036   4.209   5.678
 4622TIP3    H113830   7.089   4.288   5.685
 4622TIP3    H213831   7.067   4.153   5.750
 4623TIP3   OH213832   6.266   2.928   3.101
 4623TIP3    H113833   6.358   2.931   3.075
 4623TIP3    H213834   6.268   2.922   3.196
 4624TIP3   OH213835   1.020   3.593   0.226
 4624TIP3    H113836   0.975   3.558   0.150
 4624TIP3    H213837   1.052   3.679   0.198
 4625TIP3   OH213838   0.201   4.128   1.521
 4625TIP3    H113839   0.248   4.185   1.582
 4625TIP3    H213840   0.230   4.156   1.434
 4626TIP3   OH213841   2.776   5.553   1.084
 4626TIP3    H113842   2.746   5.512   1.002
 4626TIP3    H213843   2.803   5.479   1.139
 4627TIP3   OH213844   0.492   5.165   3.255
 4627TIP3    H113845   0.456   5.180   3.342
 4627TIP3    H213846   0.460   5.239   3.203
 4628TIP3   OH213847   1.672   5.765   0.744
 4628TIP3    H113848   1.729   5.716   0.802
 4628TIP3    H213849   1.596   5.708   0.731
 4629TIP3   OH213850   3.817   1.833   3.264
 4629TIP3    H113851   3.780   1.791   3.187
 4629TIP3    H213852   3.853   1.916   3.232
 4630TIP3   OH213853   0.320   3.262   0.511
 4630TIP3    H113854   0.412   3.244   0.493
 4630TIP3    H213855   0.277   3.176   0.508
 4631TIP3   OH213856   4.714   1.861   2.119
 4631TIP3    H113857   4.728   1.883   2.211
 4631TIP3    H213858   4.649   1.790   2.120
 4632TIP3   OH213859   2.327   2.913   3.268
 4632TIP3    H113860   2.369   2.994   3.237
 4632TIP3    H213861   2.390   2.844   3.247
 4633TIP3   OH213862   7.160   1.211   4.299
 4633TIP3    H113863   7.106   1.290   4.293
 4633TIP3    H213864   7.182   1.190   4.208
 4634TIP3   OH213865   2.356   5.898   5.721
 4634TIP3    H113866   2.417   5.898   5.647
 4634TIP3    H213867   2.317   5.810   5.720
 4635TIP3   OH213868   3.934   0.887   4.282
 4635TIP3    H113869   3.856   0.833   4.272
 4635TIP3    H213870   3.903   0.977   4.277
 4636TIP3   OH213871   2.260   4.399   0.644
 4636TIP3    H113872   2.238   4.314   0.607
 4636TIP3    H213873   2.339   4.426   0.597
 4637TIP3   OH213874   0.913   5.653   0.007
 4637TIP3    H113875   0.976   5.694  -0.053
 4637TIP3    H213876   0.923   5.559  -0.009
 4638TIP3   OH213877   1.264   1.433   4.611
 4638TIP3    H113878   1.227   1.521   4.604
 4638TIP3    H213879   1.348   1.446   4.655
 4639TIP3   OH213880   2.041   1.611   2.118
 4639TIP3    H113881   1.961   1.636   2.072
 4639TIP3    H213882   2.047   1.516   2.108
 4640TIP3   OH213883   5.333   1.852   1.382
 4640TIP3    H113884   5.403   1.824   1.440
 4640TIP3    H213885   5.313   1.942   1.409
 4641TIP3   OH213886   1.831   0.495   4.132
 4641TIP3    H113887   1.772   0.517   4.204
 4641TIP3    H213888   1.778   0.511   4.053
 4642TIP3   OH213889   0.573   6.702   2.340
 4642TIP3    H113890   0.529   6.757   2.276
 4642TIP3    H213891   0.599   6.624   2.291
 4643TIP3   OH213892   3.906   0.272   3.675
 4643TIP3    H113893   3.862   0.188   3.688
 4643TIP3    H213894   3.985   0.267   3.729
 4644TIP3   OH213895   3.249   5.887   5.620
 4644TIP3    H113896   3.279   5.892   5.529
 4644TIP3    H213897   3.278   5.800   5.649
 4645TIP3   OH213898   2.965   6.164   5.070
 4645TIP3    H113899   2.940   6.143   5.160
 4645TIP3    H213900   3.031   6.233   5.079
 4646TIP3   OH213901   0.408   1.765   1.814
 4646TIP3    H113902   0.352   1.833   1.851
 4646TIP3    H213903   0.347   1.705   1.771
 4647TIP3   OH213904   1.226   5.396   1.160
 4647TIP3    H113905   1.177   5.441   1.229
 4647TIP3    H213906   1.244   5.464   1.095
 4648TIP3   OH213907   0.394   3.586   4.367
 4648TIP3    H113908   0.369   3.672   4.398
 4648TIP3    H213909   0.480   3.570   4.406
 4649TIP3   OH213910   6.267   0.455   2.013
 4649TIP3    H113911   6.182   0.413   1.997
 4649TIP3    H213912   6.251   0.513   2.087
 4650TIP3   OH213913   5.562   4.018   1.857
 4650TIP3    H113914   5.479   4.046   1.817
 4650TIP3    H213915   5.574   4.077   1.931
 4651TIP3   OH213916   5.672   0.210   2.175
 4651TIP3    H113917   5.589   0.173   2.146
 4651TIP3    H213918   5.677   0.296   2.134
 4652TIP3   OH213919   3.832   6.161   1.344
 4652TIP3    H113920   3.848   6.069   1.364
 4652TIP3    H213921   3.777   6.192   1.415
 4653TIP3   OH213922   6.638   5.398   4.767
 4653TIP3    H113923   6.695   5.377   4.693
 4653TIP3    H213924   6.549   5.389   4.733
 4654TIP3   OH213925   4.199   1.547   4.232
 4654TIP3    H113926   4.173   1.488   4.161
 4654TIP3    H213927   4.228   1.488   4.302
 4655TIP3   OH213928   0.463   6.404   1.758
 4655TIP3    H113929   0.539   6.378   1.706
 4655TIP3    H213930   0.388   6.395   1.698
 4656TIP3   OH213931   3.022   0.415   0.327
 4656TIP3    H113932   2.999   0.367   0.407
 4656TIP3    H213933   2.943   0.465   0.306
 4657TIP3   OH213934   0.118   4.875   4.544
 4657TIP3    H113935   0.097   4.967   4.530
 4657TIP3    H213936   0.143   4.870   4.636
 4658TIP3   OH213937   1.192   3.223   5.557
 4658TIP3    H113938   1.269   3.227   5.615
 4658TIP3    H213939   1.194   3.306   5.509
 4659TIP3   OH213940   3.304   0.484   2.299
 4659TIP3    H113941   3.311   0.412   2.237
 4659TIP3    H213942   3.210   0.504   2.302
 4660TIP3   OH213943   2.157   5.620   5.227
 4660TIP3    H113944   2.091   5.682   5.196
 4660TIP3    H213945   2.140   5.540   5.178
 4661TIP3   OH213946   1.955   6.429   2.563
 4661TIP3    H113947   1.961   6.524   2.576
 4661TIP3    H213948   1.925   6.419   2.473
 4662TIP3   OH213949   6.728   5.511   1.532
 4662TIP3    H113950   6.691   5.592   1.498
 4662TIP3    H213951   6.659   5.473   1.585
 4663TIP3   OH213952   6.007   0.647   0.632
 4663TIP3    H113953   6.069   0.691   0.690
 4663TIP3    H213954   6.013   0.696   0.550
 4664TIP3   OH213955   3.725   5.278   0.985
 4664TIP3    H113956   3.793   5.318   1.040
 4664TIP3    H213957   3.667   5.351   0.962
 4665TIP3   OH213958   4.993   3.477   3.940
 4665TIP3    H113959   5.044   3.452   3.864
 4665TIP3    H213960   4.926   3.536   3.906
 4666TIP3   OH213961   6.371   4.218   4.163
 4666TIP3    H113962   6.350   4.148   4.225
 4666TIP3    H213963   6.371   4.175   4.078
 4667TIP3   OH213964   6.400   0.722   0.261
 4667TIP3    H113965   6.356   0.767   0.333
 4667TIP3    H213966   6.416   0.790   0.196
 4668TIP3   OH213967   5.961   1.653   2.011
 4668TIP3    H113968   5.957   1.600   1.931
 4668TIP3    H213969   5.978   1.741   1.980
 4669TIP3   OH213970   3.079   5.666   5.844
 4669TIP3    H113971   3.100   5.572   5.849
 4669TIP3    H213972   3.019   5.673   5.770
 4670TIP3   OH213973   5.793   3.814   0.785
 4670TIP3    H113974   5.767   3.823   0.693
 4670TIP3    H213975   5.834   3.897   0.807
 4671TIP3   OH213976   3.217   3.911   0.988
 4671TIP3    H113977   3.152   3.911   1.059
 4671TIP3    H213978   3.189   3.981   0.929
 4672TIP3   OH213979   0.794   2.618   2.952
 4672TIP3    H113980   0.699   2.604   2.947
 4672TIP3    H213981   0.805   2.682   3.022
 4673TIP3   OH213982   6.283   0.209   3.571
 4673TIP3    H113983   6.332   0.191   3.491
 4673TIP3    H213984   6.196   0.235   3.541
 4674TIP3   OH213985   1.313   2.559   3.777
 4674TIP3    H113986   1.281   2.493   3.715
 4674TIP3    H213987   1.285   2.642   3.740
 4675TIP3   OH213988   4.595   3.487   0.851
 4675TIP3    H113989   4.646   3.492   0.932
 4675TIP3    H213990   4.638   3.550   0.792
 4676TIP3   OH213991   2.682   1.225   0.575
 4676TIP3    H113992   2.656   1.245   0.665
 4676TIP3    H213993   2.709   1.309   0.538
 4677TIP3   OH213994   5.420   0.173   4.126
 4677TIP3    H113995   5.395   0.222   4.048
 4677TIP3    H213996   5.365   0.209   4.196
 4678TIP3   OH213997   2.810   5.877   5.804
 4678TIP3    H113998   2.788   5.872   5.897
 4678TIP3    H213999   2.853   5.793   5.785
 4679TIP3   OH214000   3.524   1.305   0.220
 4679TIP3    H114001   3.473   1.224   0.221
 4679TIP3    H214002   3.465   1.371   0.183
 4680TIP3   OH214003   0.632   0.157   5.688
 4680TIP3    H114004   0.704   0.218   5.702
 4680TIP3    H214005   0.635   0.098   5.763
 4681TIP3   OH214006   2.009   6.553   5.294
 4681TIP3    H114007   2.001   6.532   5.201
 4681TIP3    H214008   2.026   6.469   5.336
 4682TIP3   OH214009   2.906   3.418   4.398
 4682TIP3    H114010   2.943   3.383   4.317
 4682TIP3    H214011   2.951   3.502   4.411
 4683TIP3   OH214012   2.928   3.133   5.507
 4683TIP3    H114013   2.837   3.119   5.482
 4683TIP3    H214014   2.941   3.228   5.500
 4684TIP3   OH214015   7.033   2.127   3.496
 4684TIP3    H114016   7.063   2.105   3.408
 4684TIP3    H214017   7.112   2.130   3.549
 4685TIP3   OH214018   5.166   4.985   5.635
 4685TIP3    H114019   5.215   5.058   5.673
 4685TIP3    H214020   5.224   4.910   5.646
 4686TIP3   OH214021   2.907   5.101   2.709
 4686TIP3    H114022   2.848   5.152   2.652
 4686TIP3    H214023   2.943   5.034   2.651
 4687TIP3   OH214024   5.225   2.211   3.391
 4687TIP3    H114025   5.205   2.125   3.428
 4687TIP3    H214026   5.173   2.215   3.311
 4688TIP3   OH214027   1.131   2.195   2.178
 4688TIP3    H114028   1.145   2.223   2.088
 4688TIP3    H214029   1.146   2.274   2.230
 4689TIP3   OH214030   7.071   6.451   1.281
 4689TIP3    H114031   7.126   6.517   1.239
 4689TIP3    H214032   7.071   6.377   1.220
 4690TIP3   OH214033   4.892   3.353   0.617
 4690TIP3    H114034   4.849   3.438   0.608
 4690TIP3    H214035   4.822   3.289   0.600
 4691TIP3   OH214036   0.326   0.648   4.519
 4691TIP3    H114037   0.399   0.617   4.573
 4691TIP3    H214038   0.284   0.568   4.486
 4692TIP3   OH214039   0.995   5.781   4.314
 4692TIP3    H114040   1.043   5.701   4.293
 4692TIP3    H214041   0.986   5.779   4.410
 4693TIP3   OH214042   2.793   2.079   5.817
 4693TIP3    H114043   2.835   2.007   5.771
 4693TIP3    H214044   2.854   2.102   5.887
 4694TIP3   OH214045   3.428   1.850   1.684
 4694TIP3    H114046   3.428   1.771   1.739
 4694TIP3    H214047   3.373   1.826   1.609
 4695TIP3   OH214048   1.690   5.248   2.932
 4695TIP3    H114049   1.672   5.222   2.842
 4695TIP3    H214050   1.674   5.169   2.983
 4696TIP3   OH214051   0.654   3.579   0.877
 4696TIP3    H114052   0.686   3.562   0.965
 4696TIP3    H214053   0.598   3.656   0.886
 4697TIP3   OH214054   3.227   3.100   4.321
 4697TIP3    H114055   3.259   3.015   4.353
 4697TIP3    H214056   3.183   3.138   4.397
 4698TIP3   OH214057   5.604   4.019   5.375
 4698TIP3    H114058   5.686   4.019   5.327
 4698TIP3    H214059   5.607   4.099   5.428
 4699TIP3   OH214060   0.341   0.354   5.108
 4699TIP3    H114061   0.347   0.414   5.183
 4699TIP3    H214062   0.300   0.407   5.039
 4700TIP3   OH214063   1.189   4.201   0.175
 4700TIP3    H114064   1.143   4.207   0.092
 4700TIP3    H214065   1.189   4.108   0.197
 4701TIP3   OH214066   0.478   4.135   5.225
 4701TIP3    H114067   0.564   4.104   5.197
 4701TIP3    H214068   0.416   4.071   5.190
 4702TIP3   OH214069   6.355   5.345   4.678
 4702TIP3    H114070   6.276   5.339   4.625
 4702TIP3    H214071   6.326   5.383   4.761
 4703TIP3   OH214072   2.309   1.494   2.265
 4703TIP3    H114073   2.349   1.448   2.340
 4703TIP3    H214074   2.283   1.579   2.300
 4704TIP3   OH214075   6.172   0.050   1.458
 4704TIP3    H114076   6.251   0.062   1.512
 4704TIP3    H214077   6.132  -0.029   1.493
 4705TIP3   OH214078   6.954   6.690   2.180
 4705TIP3    H114079   6.961   6.641   2.262
 4705TIP3    H214080   7.042   6.726   2.167
 4706TIP3   OH214081   6.750   4.069   0.262
 4706TIP3    H114082   6.804   4.060   0.341
 4706TIP3    H214083   6.744   3.980   0.227
 4707TIP3   OH214084   1.163   2.804   5.624
 4707TIP3    H114085   1.179   2.795   5.530
 4707TIP3    H214086   1.178   2.717   5.660
 4708TIP3   OH214087   6.928   2.939   3.890
 4708TIP3    H114088   6.927   3.008   3.824
 4708TIP3    H214089   7.001   2.962   3.948
 4709TIP3   OH214090   2.925   6.276   0.869
 4709TIP3    H114091   2.928   6.183   0.849
 4709TIP3    H214092   3.006   6.293   0.917
 4710TIP3   OH214093   4.888   5.739   4.925
 4710TIP3    H114094   4.887   5.655   4.880
 4710TIP3    H214095   4.932   5.721   5.008
 4711TIP3   OH214096   1.084   5.574   4.853
 4711TIP3    H114097   1.110   5.666   4.853
 4711TIP3    H214098   1.153   5.529   4.902
 4712TIP3   OH214099   4.962   0.432   3.678
 4712TIP3    H114100   4.933   0.365   3.617
 4712TIP3    H214101   4.893   0.436   3.744
 4713TIP3   OH214102   2.971  -0.007   2.706
 4713TIP3    H114103   2.886  -0.022   2.666
 4713TIP3    H214104   2.993   0.083   2.682
 4714TIP3   OH214105   6.037   4.780   3.679
 4714TIP3    H114106   5.985   4.724   3.621
 4714TIP3    H214107   6.061   4.855   3.625
 4715TIP3   OH214108   3.737   6.539   2.882
 4715TIP3    H114109   3.670   6.575   2.940
 4715TIP3    H214110   3.810   6.516   2.941
 4716TIP3   OH214111   4.562   2.476   5.547
 4716TIP3    H114112   4.645   2.524   5.547
 4716TIP3    H214113   4.513   2.514   5.473
 4717TIP3   OH214114   3.144   4.831   3.655
 4717TIP3    H114115   3.120   4.872   3.738
 4717TIP3    H214116   3.207   4.763   3.679
 4718TIP3   OH214117   4.300   0.309   5.099
 4718TIP3    H114118   4.248   0.386   5.121
 4718TIP3    H214119   4.253   0.236   5.140
 4719TIP3   OH214120   1.453   5.055   4.111
 4719TIP3    H114121   1.481   5.036   4.022
 4719TIP3    H214122   1.486   5.144   4.128
 4720TIP3   OH214123   1.284   5.819   0.815
 4720TIP3    H114124   1.367   5.805   0.770
 4720TIP3    H214125   1.217   5.791   0.753
 4721TIP3   OH214126   3.102   6.356   2.826
 4721TIP3    H114127   3.094   6.277   2.879
 4721TIP3    H214128   3.195   6.376   2.826
 4722TIP3   OH214129   2.304   0.939   1.698
 4722TIP3    H114130   2.304   0.854   1.743
 4722TIP3    H214131   2.393   0.946   1.662
 4723TIP3   OH214132   3.909   1.172   1.892
 4723TIP3    H114133   3.879   1.109   1.826
 4723TIP3    H214134   3.924   1.253   1.843
 4724TIP3   OH214135   4.931   3.928   3.742
 4724TIP3    H114136   4.977   3.912   3.659
 4724TIP3    H214137   4.997   3.912   3.809
 4725TIP3   OH214138   2.969   4.236   1.065
 4725TIP3    H114139   3.022   4.172   1.018
 4725TIP3    H214140   2.887   4.190   1.084
 4726TIP3   OH214141   2.376   5.267   1.483
 4726TIP3    H114142   2.316   5.305   1.546
 4726TIP3    H214143   2.322   5.253   1.405
 4727TIP3   OH214144   3.616   0.679   2.578
 4727TIP3    H114145   3.574   0.685   2.663
 4727TIP3    H214146   3.621   0.769   2.546
 4728TIP3   OH214147   4.630   4.604   2.644
 4728TIP3    H114148   4.556   4.659   2.620
 4728TIP3    H214149   4.704   4.640   2.596
 4729TIP3   OH214150   2.316   0.221   2.039
 4729TIP3    H114151   2.364   0.302   2.057
 4729TIP3    H214152   2.360   0.155   2.092
 4730TIP3   OH214153   5.376   1.700   5.001
 4730TIP3    H114154   5.372   1.793   5.023
 4730TIP3    H214155   5.298   1.684   4.948
 4731TIP3   OH214156   5.127   6.773   2.199
 4731TIP3    H114157   5.118   6.692   2.249
 4731TIP3    H214158   5.188   6.826   2.250
 4732TIP3   OH214159   6.538   5.852   1.902
 4732TIP3    H114160   6.620   5.844   1.854
 4732TIP3    H214161   6.512   5.943   1.889
 4733TIP3   OH214162   5.931   6.735   4.109
 4733TIP3    H114163   5.924   6.770   4.197
 4733TIP3    H214164   5.957   6.644   4.121
 4734TIP3   OH214165   6.916   2.546   0.280
 4734TIP3    H114166   6.840   2.489   0.289
 4734TIP3    H214167   6.990   2.486   0.273
 4735TIP3   OH214168   6.545   6.710   4.902
 4735TIP3    H114169   6.531   6.678   4.991
 4735TIP3    H214170   6.468   6.763   4.883
 4736TIP3   OH214171   2.754   4.999   0.316
 4736TIP3    H114172   2.731   4.919   0.267
 4736TIP3    H214173   2.786   5.059   0.249
 4737TIP3   OH214174   0.261   3.442   4.729
 4737TIP3    H114175   0.318   3.516   4.753
 4737TIP3    H214176   0.312   3.393   4.664
 4738TIP3   OH214177   0.549   5.595   3.963
 4738TIP3    H114178   0.597   5.627   4.039
 4738TIP3    H214179   0.472   5.651   3.957
 4739TIP3   OH214180   5.736   5.221   2.772
 4739TIP3    H114181   5.644   5.215   2.746
 4739TIP3    H214182   5.754   5.315   2.774
 4740TIP3   OH214183   0.196   4.126   3.560
 4740TIP3    H114184   0.102   4.131   3.578
 4740TIP3    H214185   0.204   4.150   3.468
 4741TIP3   OH214186   4.268   0.066   1.092
 4741TIP3    H114187   4.293   0.003   1.160
 4741TIP3    H214188   4.212   0.017   1.032
 4742TIP3   OH214189   5.319   5.518   0.485
 4742TIP3    H114190   5.251   5.585   0.489
 4742TIP3    H214191   5.295   5.456   0.554
 4743TIP3   OH214192   6.589   1.026   3.158
 4743TIP3    H114193   6.624   0.937   3.155
 4743TIP3    H214194   6.666   1.082   3.150
 4744TIP3   OH214195   4.420   4.126   1.004
 4744TIP3    H114196   4.453   4.100   0.918
 4744TIP3    H214197   4.494   4.112   1.063
 4745TIP3   OH214198   3.621   5.811   3.676
 4745TIP3    H114199   3.587   5.879   3.619
 4745TIP3    H214200   3.544   5.779   3.724
 4746TIP3   OH214201   5.726   3.840   3.117
 4746TIP3    H114202   5.773   3.830   3.200
 4746TIP3    H214203   5.638   3.868   3.142
 4747TIP3   OH214204   6.952   2.199   2.472
 4747TIP3    H114205   6.929   2.287   2.442
 4747TIP3    H214206   7.024   2.172   2.415
 4748TIP3   OH214207   4.994   6.694   3.066
 4748TIP3    H114208   5.030   6.781   3.084
 4748TIP3    H214209   4.955   6.701   2.979
 4749TIP3   OH214210   6.010   4.236   1.590
 4749TIP3    H114211   5.936   4.177   1.577
 4749TIP3    H214212   6.030   4.269   1.502
 4750TIP3   OH214213   6.020   1.779   3.919
 4750TIP3    H114214   5.953   1.808   3.981
 4750TIP3    H214215   6.101   1.779   3.971
 4751TIP3   OH214216   4.565   0.774   5.268
 4751TIP3    H114217   4.620   0.724   5.208
 4751TIP3    H214218   4.586   0.739   5.355
 4752TIP3   OH214219   6.366   5.545   2.411
 4752TIP3    H114220   6.439   5.607   2.408
 4752TIP3    H214221   6.299   5.583   2.354
 4753TIP3   OH214222   5.826   1.270   4.697
 4753TIP3    H114223   5.798   1.183   4.666
 4753TIP3    H214224   5.760   1.295   4.761
 4754TIP3   OH214225   2.188   2.530   5.400
 4754TIP3    H114226   2.114   2.590   5.402
 4754TIP3    H214227   2.250   2.566   5.464
 4755TIP3   OH214228   2.642   3.220   0.543
 4755TIP3    H114229   2.695   3.281   0.594
 4755TIP3    H214230   2.567   3.272   0.514
 4756TIP3   OH214231   1.947   6.211   2.980
 4756TIP3    H114232   1.889   6.179   3.049
 4756TIP3    H214233   1.962   6.303   3.001
 4757TIP3   OH214234   3.007   0.372   1.739
 4757TIP3    H114235   3.033   0.288   1.702
 4757TIP3    H214236   3.054   0.438   1.688
 4758TIP3   OH214237   7.198   2.873   0.487
 4758TIP3    H114238   7.162   2.813   0.422
 4758TIP3    H214239   7.121   2.913   0.528
 4759TIP3   OH214240   1.950   1.305   2.097
 4759TIP3    H114241   1.857   1.325   2.091
 4759TIP3    H214242   1.967   1.298   2.190
 4760TIP3   OH214243   4.921   5.007   1.022
 4760TIP3    H114244   4.975   5.009   0.943
 4760TIP3    H214245   4.978   4.971   1.089
 4761TIP3   OH214246   5.189   3.039   5.503
 4761TIP3    H114247   5.207   3.009   5.414
 4761TIP3    H214248   5.203   3.134   5.500
 4762TIP3   OH214249   6.959   1.555   3.037
 4762TIP3    H114250   6.893   1.574   3.104
 4762TIP3    H214251   7.030   1.512   3.085
 4763TIP3   OH214252   4.232   3.863   0.566
 4763TIP3    H114253   4.314   3.866   0.516
 4763TIP3    H214254   4.229   3.774   0.602
 4764TIP3   OH214255   6.395   5.874   2.361
 4764TIP3    H114256   6.428   5.963   2.344
 4764TIP3    H214257   6.425   5.823   2.286
 4765TIP3   OH214258   6.228   1.812   4.373
 4765TIP3    H114259   6.241   1.863   4.293
 4765TIP3    H214260   6.225   1.721   4.344
 4766TIP3   OH214261   2.398   1.318   5.778
 4766TIP3    H114262   2.422   1.229   5.804
 4766TIP3    H214263   2.443   1.375   5.840
 4767TIP3   OH214264   4.445   5.360   5.715
 4767TIP3    H114265   4.404   5.419   5.779
 4767TIP3    H214266   4.539   5.368   5.733
 4768TIP3   OH214267   2.707   6.507   2.472
 4768TIP3    H114268   2.791   6.553   2.475
 4768TIP3    H214269   2.642   6.575   2.494
 4769TIP3   OH214270   0.921   1.176   5.782
 4769TIP3    H114271   0.953   1.266   5.788
 4769TIP3    H214272   0.826   1.184   5.779
 4770TIP3   OH214273   7.061   4.813   1.103
 4770TIP3    H114274   6.980   4.765   1.088
 4770TIP3    H214275   7.036   4.905   1.094
 4771TIP3   OH214276   6.395   1.862   4.685
 4771TIP3    H114277   6.477   1.866   4.636
 4771TIP3    H214278   6.410   1.915   4.763
 4772TIP3   OH214279   2.896   6.770   3.593
 4772TIP3    H114280   2.852   6.742   3.513
 4772TIP3    H214281   2.874   6.863   3.602
 4773TIP3   OH214282   3.697   1.862   1.799
 4773TIP3    H114283   3.610   1.899   1.788
 4773TIP3    H214284   3.692   1.775   1.761
 4774TIP3   OH214285   5.737   6.296   1.285
 4774TIP3    H114286   5.747   6.390   1.298
 4774TIP3    H214287   5.720   6.262   1.373
 4775TIP3   OH214288   3.185   4.088   4.501
 4775TIP3    H114289   3.108   4.050   4.459
 4775TIP3    H214290   3.255   4.078   4.436
 4776TIP3   OH214291   4.383   2.021   1.951
 4776TIP3    H114292   4.288   2.029   1.950
 4776TIP3    H214293   4.401   1.939   1.905
 4777TIP3   OH214294   2.109   2.693   0.625
 4777TIP3    H114295   2.066   2.706   0.541
 4777TIP3    H214296   2.202   2.702   0.606
 4778TIP3   OH214297   4.814   2.169   1.832
 4778TIP3    H114298   4.895   2.148   1.786
 4778TIP3    H214299   4.761   2.090   1.824
 4779TIP3   OH214300   2.723   4.905   5.588
 4779TIP3    H114301   2.819   4.912   5.583
 4779TIP3    H214302   2.701   4.947   5.671
 4780TIP3   OH214303   2.735   6.483   4.115
 4780TIP3    H114304   2.768   6.465   4.027
 4780TIP3    H214305   2.791   6.432   4.173
 4781TIP3   OH214306   5.966   1.335   0.130
 4781TIP3    H114307   5.962   1.423   0.168
 4781TIP3    H214308   5.961   1.350   0.036
 4782TIP3   OH214309   6.547   4.844   3.081
 4782TIP3    H114310   6.561   4.926   3.033
 4782TIP3    H214311   6.453   4.831   3.080
 4783TIP3   OH214312   3.957   4.955   2.381
 4783TIP3    H114313   4.003   4.872   2.397
 4783TIP3    H214314   3.997   5.016   2.443
 4784TIP3   OH214315   3.571   2.147   5.134
 4784TIP3    H114316   3.556   2.241   5.144
 4784TIP3    H214317   3.616   2.120   5.214
 4785TIP3   OH214318   5.815   1.451   3.727
 4785TIP3    H114319   5.820   1.546   3.720
 4785TIP3    H214320   5.871   1.419   3.656
 4786TIP3   OH214321   1.734   5.222   5.370
 4786TIP3    H114322   1.674   5.166   5.419
 4786TIP3    H214323   1.744   5.179   5.285
 4787TIP3   OH214324   5.423   2.611   0.821
 4787TIP3    H114325   5.503   2.578   0.782
 4787TIP3    H214326   5.414   2.562   0.903
 4788TIP3   OH214327   6.023   2.349   5.645
 4788TIP3    H114328   5.994   2.269   5.602
 4788TIP3    H214329   5.992   2.420   5.590
 4789TIP3   OH214330   6.525   6.453   4.628
 4789TIP3    H114331   6.581   6.518   4.587
 4789TIP3    H214332   6.457   6.435   4.563
 4790TIP3   OH214333   3.634   3.981   5.298
 4790TIP3    H114334   3.636   3.885   5.305
 4790TIP3    H214335   3.723   4.005   5.274
 4791TIP3   OH214336   4.301   1.386   3.119
 4791TIP3    H114337   4.363   1.316   3.101
 4791TIP3    H214338   4.220   1.341   3.142
 4792TIP3   OH214339   2.622   2.288   1.523
 4792TIP3    H114340   2.560   2.266   1.454
 4792TIP3    H214341   2.697   2.232   1.506
 4793TIP3   OH214342   5.154   2.350   1.940
 4793TIP3    H114343   5.107   2.431   1.920
 4793TIP3    H214344   5.220   2.343   1.872
 4794TIP3   OH214345   0.333   2.765   4.398
 4794TIP3    H114346   0.372   2.763   4.484
 4794TIP3    H214347   0.268   2.695   4.399
 4795TIP3   OH214348   4.652   4.518   5.622
 4795TIP3    H114349   4.692   4.491   5.705
 4795TIP3    H214350   4.659   4.613   5.621
 4796TIP3   OH214351   3.678   6.248   3.067
 4796TIP3    H114352   3.756   6.215   3.022
 4796TIP3    H214353   3.610   6.247   2.999
 4797TIP3   OH214354   4.638   2.099   3.432
 4797TIP3    H114355   4.585   2.107   3.511
 4797TIP3    H214356   4.656   2.189   3.406
 4798TIP3   OH214357   6.773   3.042   1.114
 4798TIP3    H114358   6.695   3.090   1.139
 4798TIP3    H214359   6.820   3.101   1.055
 4799TIP3   OH214360   5.778   1.379   3.979
 4799TIP3    H114361   5.696   1.330   3.981
 4799TIP3    H214362   5.791   1.402   3.887
 4800TIP3   OH214363   1.115   3.495   2.203
 4800TIP3    H114364   1.180   3.545   2.152
 4800TIP3    H214365   1.164   3.420   2.236
 4801TIP3   OH214366   2.458   6.551   4.737
 4801TIP3    H114367   2.454   6.608   4.814
 4801TIP3    H214368   2.378   6.499   4.742
 4802TIP3   OH214369   6.022   2.493   4.503
 4802TIP3    H114370   6.046   2.426   4.566
 4802TIP3    H214371   6.105   2.530   4.473
 4803TIP3   OH214372   6.052   3.924   1.425
 4803TIP3    H114373   6.020   3.906   1.513
 4803TIP3    H214374   6.133   3.974   1.438
 4804TIP3   OH214375   3.764   6.534   3.823
 4804TIP3    H114376   3.704   6.608   3.818
 4804TIP3    H214377   3.763   6.496   3.735
 4805TIP3   OH214378   1.241   4.008   1.140
 4805TIP3    H114379   1.186   4.086   1.134
 4805TIP3    H214380   1.195   3.950   1.200
 4806TIP3   OH214381   5.247   4.832   3.026
 4806TIP3    H114382   5.289   4.789   3.101
 4806TIP3    H214383   5.181   4.888   3.065
 4807TIP3   OH214384   3.110   2.718   4.359
 4807TIP3    H114385   3.105   2.635   4.405
 4807TIP3    H214386   3.200   2.723   4.327
 4808TIP3   OH214387   1.373   5.351   0.699
 4808TIP3    H114388   1.280   5.371   0.693
 4808TIP3    H214389   1.385   5.275   0.642
 4809TIP3   OH214390   4.462   2.414   0.306
 4809TIP3    H114391   4.487   2.331   0.266
 4809TIP3    H214392   4.506   2.480   0.252
 4810TIP3   OH214393   5.558   2.761   4.946
 4810TIP3    H114394   5.504   2.696   4.992
 4810TIP3    H214395   5.580   2.826   5.013
 4811TIP3   OH214396   4.685   1.088   2.209
 4811TIP3    H114397   4.768   1.128   2.237
 4811TIP3    H214398   4.709   0.998   2.187
 4812TIP3   OH214399   1.508   0.390   3.082
 4812TIP3    H114400   1.440   0.374   3.016
 4812TIP3    H214401   1.583   0.339   3.050
 4813TIP3   OH214402   5.720   3.776   1.828
 4813TIP3    H114403   5.749   3.736   1.745
 4813TIP3    H214404   5.649   3.835   1.802
 4814TIP3   OH214405   6.123   5.199   3.266
 4814TIP3    H114406   6.058   5.265   3.241
 4814TIP3    H214407   6.089   5.117   3.230
 4815TIP3   OH214408   1.209   3.236   1.027
 4815TIP3    H114409   1.167   3.157   0.991
 4815TIP3    H214410   1.137   3.286   1.065
 4816TIP3   OH214411   3.001   6.646   0.692
 4816TIP3    H114412   2.939   6.643   0.764
 4816TIP3    H214413   2.947   6.661   0.614
 4817TIP3   OH214414   2.964   2.030   3.975
 4817TIP3    H114415   2.997   2.094   3.911
 4817TIP3    H214416   2.894   2.076   4.021
 4818TIP3   OH214417   3.614   1.739   2.291
 4818TIP3    H114418   3.610   1.643   2.287
 4818TIP3    H214419   3.651   1.765   2.206
 4819TIP3   OH214420   3.755   0.928   5.248
 4819TIP3    H114421   3.800   0.911   5.331
 4819TIP3    H214422   3.702   1.006   5.265
 4820TIP3   OH214423   7.027   0.973   2.429
 4820TIP3    H114424   7.010   1.067   2.427
 4820TIP3    H214425   7.079   0.961   2.509
 4821TIP3   OH214426   1.841   2.767   4.483
 4821TIP3    H114427   1.892   2.687   4.496
 4821TIP3    H214428   1.793   2.752   4.402
 4822TIP3   OH214429   1.069   4.557   1.977
 4822TIP3    H114430   1.159   4.529   1.958
 4822TIP3    H214431   1.015   4.500   1.922
 4823TIP3   OH214432   6.262   5.247   5.337
 4823TIP3    H114433   6.267   5.205   5.251
 4823TIP3    H214434   6.305   5.185   5.397
 4824TIP3   OH214435   7.119   0.265   1.257
 4824TIP3    H114436   7.034   0.229   1.230
 4824TIP3    H214437   7.117   0.260   1.353
 4825TIP3   OH214438   4.731   1.112   1.548
 4825TIP3    H114439   4.716   1.070   1.633
 4825TIP3    H214440   4.646   1.110   1.505
 4826TIP3   OH214441   1.311   3.791   2.964
 4826TIP3    H114442   1.235   3.770   3.018
 4826TIP3    H214443   1.286   3.871   2.918
 4827TIP3   OH214444   1.731   5.694   1.050
 4827TIP3    H114445   1.653   5.738   1.015
 4827TIP3    H214446   1.776   5.762   1.101
 4828TIP3   OH214447   4.443   5.495   3.993
 4828TIP3    H114448   4.490   5.529   4.069
 4828TIP3    H214449   4.361   5.461   4.028
 4829TIP3   OH214450   6.588   2.764   4.100
 4829TIP3    H114451   6.654   2.737   4.163
 4829TIP3    H214452   6.520   2.806   4.153
 4830TIP3   OH214453   2.675   0.727   4.052
 4830TIP3    H114454   2.665   0.658   3.986
 4830TIP3    H214455   2.585   0.750   4.075
 4831TIP3   OH214456   6.572   4.818   3.365
 4831TIP3    H114457   6.594   4.906   3.396
 4831TIP3    H214458   6.559   4.829   3.271
 4832TIP3   OH214459   1.364   5.311   4.645
 4832TIP3    H114460   1.391   5.349   4.728
 4832TIP3    H214461   1.294   5.250   4.667
 4833TIP3   OH214462   1.735   1.208   3.538
 4833TIP3    H114463   1.639   1.213   3.538
 4833TIP3    H214464   1.761   1.237   3.625
 4834TIP3   OH214465   1.154   4.077   0.804
 4834TIP3    H114466   1.131   4.120   0.721
 4834TIP3    H214467   1.147   4.147   0.869
 4835TIP3   OH214468   2.780   5.867   2.750
 4835TIP3    H114469   2.711   5.907   2.696
 4835TIP3    H214470   2.753   5.776   2.761
 4836TIP3   OH214471   0.196   3.139   5.791
 4836TIP3    H114472   0.238   3.217   5.755
 4836TIP3    H214473   0.267   3.090   5.833
 4837TIP3   OH214474   2.449   6.287   4.412
 4837TIP3    H114475   2.391   6.335   4.471
 4837TIP3    H214476   2.471   6.349   4.343
 4838TIP3   OH214477   2.013   1.264   4.623
 4838TIP3    H114478   1.971   1.333   4.572
 4838TIP3    H214479   2.095   1.303   4.654
 4839TIP3   OH214480   6.412   3.742   3.465
 4839TIP3    H114481   6.331   3.701   3.494
 4839TIP3    H214482   6.428   3.706   3.378
 4840TIP3   OH214483   6.324   6.739   5.719
 4840TIP3    H114484   6.403   6.720   5.770
 4840TIP3    H214485   6.303   6.830   5.741
 4841TIP3   OH214486   6.490   5.528   5.679
 4841TIP3    H114487   6.546   5.563   5.748
 4841TIP3    H214488   6.404   5.567   5.694
 4842TIP3   OH214489   0.370   0.059   2.585
 4842TIP3    H114490   0.375   0.133   2.524
 4842TIP3    H214491   0.351   0.100   2.670
 4843TIP3   OH214492   2.975   4.274   5.405
 4843TIP3    H114493   3.002   4.362   5.431
 4843TIP3    H214494   2.893   4.287   5.358
 4844TIP3   OH214495   2.528   3.748   2.233
 4844TIP3    H114496   2.433   3.746   2.243
 4844TIP3    H214497   2.561   3.707   2.314
 4845TIP3   OH214498   0.106   3.166   1.149
 4845TIP3    H114499   0.124   3.074   1.169
 4845TIP3    H214500   0.012   3.168   1.131
 4846TIP3   OH214501   2.437   2.752   1.650
 4846TIP3    H114502   2.470   2.827   1.602
 4846TIP3    H214503   2.469   2.676   1.602
 4847TIP3   OH214504   3.581   2.065   4.598
 4847TIP3    H114505   3.559   2.048   4.689
 4847TIP3    H214506   3.580   2.161   4.590
 4848TIP3   OH214507   3.609   4.382   1.746
 4848TIP3    H114508   3.676   4.423   1.801
 4848TIP3    H214509   3.659   4.332   1.682
 4849TIP3   OH214510   0.650   2.043   5.618
 4849TIP3    H114511   0.611   2.129   5.637
 4849TIP3    H214512   0.694   2.055   5.534
 4850TIP3   OH214513   1.905   0.516   4.552
 4850TIP3    H114514   1.862   0.519   4.466
 4850TIP3    H214515   1.981   0.574   4.542
 4851TIP3   OH214516   7.214   2.335   1.641
 4851TIP3    H114517   7.271   2.347   1.717
 4851TIP3    H214518   7.184   2.423   1.619
 4852TIP3   OH214519   5.950   3.273   1.312
 4852TIP3    H114520   5.885   3.241   1.250
 4852TIP3    H214521   5.978   3.357   1.276
 4853TIP3   OH214522   0.191   1.892   3.906
 4853TIP3    H114523   0.285   1.902   3.889
 4853TIP3    H214524   0.157   1.981   3.904
 4854TIP3   OH214525   0.426   4.629   4.994
 4854TIP3    H114526   0.415   4.628   4.899
 4854TIP3    H214527   0.403   4.540   5.021
 4855TIP3   OH214528   2.024   0.713   3.404
 4855TIP3    H114529   1.945   0.738   3.355
 4855TIP3    H214530   2.071   0.795   3.416
 4856TIP3   OH214531   4.252   6.002   1.405
 4856TIP3    H114532   4.222   6.038   1.321
 4856TIP3    H214533   4.248   6.075   1.466
 4857TIP3   OH214534   2.318   3.460   1.702
 4857TIP3    H114535   2.352   3.374   1.725
 4857TIP3    H214536   2.275   3.491   1.782
 4858TIP3   OH214537   3.020   2.725   5.029
 4858TIP3    H114538   2.973   2.704   5.110
 4858TIP3    H214539   2.984   2.811   5.003
 4859TIP3   OH214540   3.557   1.011   0.120
 4859TIP3    H114541   3.491   0.976   0.180
 4859TIP3    H214542   3.626   0.944   0.119
 4860TIP3   OH214543   3.134   3.786   3.347
 4860TIP3    H114544   3.145   3.857   3.284
 4860TIP3    H214545   3.108   3.711   3.294
 4861TIP3   OH214546   4.321   4.309   3.986
 4861TIP3    H114547   4.407   4.268   3.978
 4861TIP3    H214548   4.332   4.395   3.945
 4862TIP3   OH214549   2.980   1.620   3.999
 4862TIP3    H114550   2.891   1.630   3.966
 4862TIP3    H214551   2.990   1.525   4.010
 4863TIP3   OH214552   1.004   1.285   0.889
 4863TIP3    H114553   1.004   1.251   0.978
 4863TIP3    H214554   0.943   1.359   0.892
 4864TIP3   OH214555   6.446   4.198   5.210
 4864TIP3    H114556   6.358   4.227   5.188
 4864TIP3    H214557   6.490   4.188   5.126
 4865TIP3   OH214558   3.873   0.281   5.180
 4865TIP3    H114559   3.815   0.353   5.204
 4865TIP3    H214560   3.892   0.295   5.088
 4866TIP3   OH214561   0.625   2.770   1.065
 4866TIP3    H114562   0.647   2.862   1.049
 4866TIP3    H214563   0.562   2.748   0.997
 4867TIP3   OH214564   2.740   3.223   3.746
 4867TIP3    H114565   2.660   3.237   3.694
 4867TIP3    H214566   2.783   3.309   3.746
 4868TIP3   OH214567   2.473   4.957   3.846
 4868TIP3    H114568   2.533   4.929   3.915
 4868TIP3    H214569   2.399   4.996   3.894
 4869TIP3   OH214570   3.293   4.887   2.664
 4869TIP3    H114571   3.322   4.868   2.574
 4869TIP3    H214572   3.374   4.891   2.715
 4870TIP3   OH214573   6.160   1.618   5.695
 4870TIP3    H114574   6.201   1.645   5.777
 4870TIP3    H214575   6.207   1.540   5.669
 4871TIP3   OH214576   1.009   0.883   4.676
 4871TIP3    H114577   0.979   0.900   4.587
 4871TIP3    H214578   0.938   0.916   4.732
 4872TIP3   OH214579   2.423   1.352   5.512
 4872TIP3    H114580   2.397   1.353   5.604
 4872TIP3    H214581   2.340   1.345   5.464
 4873TIP3   OH214582   6.602   2.940   4.720
 4873TIP3    H114583   6.678   2.988   4.752
 4873TIP3    H214584   6.530   3.003   4.725
 4874TIP3   OH214585   4.966   6.112   2.437
 4874TIP3    H114586   4.987   6.072   2.352
 4874TIP3    H214587   4.898   6.175   2.417
 4875TIP3   OH214588   4.797   4.122   0.427
 4875TIP3    H114589   4.764   4.170   0.503
 4875TIP3    H214590   4.723   4.123   0.365
 4876TIP3   OH214591   3.317   2.988   2.074
 4876TIP3    H114592   3.283   3.044   2.144
 4876TIP3    H214593   3.366   3.047   2.018
 4877TIP3   OH214594   2.016   6.708   3.333
 4877TIP3    H114595   1.988   6.729   3.243
 4877TIP3    H214596   1.938   6.725   3.386
 4878TIP3   OH214597   1.231   3.433   2.755
 4878TIP3    H114598   1.158   3.400   2.807
 4878TIP3    H214599   1.309   3.401   2.799
 4879TIP3   OH214600   0.618   3.866   4.496
 4879TIP3    H114601   0.640   3.774   4.479
 4879TIP3    H214602   0.582   3.897   4.413
 4880TIP3   OH214603   0.695   3.763   5.279
 4880TIP3    H114604   0.767   3.778   5.218
 4880TIP3    H214605   0.684   3.847   5.323
 4881TIP3   OH214606   4.342   1.177   3.528
 4881TIP3    H114607   4.263   1.229   3.515
 4881TIP3    H214608   4.310   1.090   3.553
 4882TIP3   OH214609   5.777   5.392   2.349
 4882TIP3    H114610   5.723   5.386   2.270
 4882TIP3    H214611   5.714   5.405   2.419
 4883TIP3   OH214612   0.686   5.890   2.021
 4883TIP3    H114613   0.751   5.834   1.978
 4883TIP3    H214614   0.648   5.834   2.088
 4884TIP3   OH214615   2.971   3.111   3.923
 4884TIP3    H114616   3.028   3.166   3.978
 4884TIP3    H214617   2.950   3.167   3.848
 4885TIP3   OH214618   6.551   4.129   0.499
 4885TIP3    H114619   6.632   4.152   0.453
 4885TIP3    H214620   6.573   4.050   0.547
 4886TIP3   OH214621   1.345   2.236   3.981
 4886TIP3    H114622   1.320   2.150   4.016
 4886TIP3    H214623   1.301   2.241   3.896
 4887TIP3   OH214624   3.384   4.419   3.494
 4887TIP3    H114625   3.365   4.378   3.578
 4887TIP3    H214626   3.465   4.376   3.465
 4888TIP3   OH214627   2.274   4.667   3.461
 4888TIP3    H114628   2.279   4.574   3.440
 4888TIP3    H214629   2.352   4.685   3.513
 4889TIP3   OH214630   0.096   2.086   0.463
 4889TIP3    H114631   0.060   2.175   0.462
 4889TIP3    H214632   0.179   2.094   0.416
 4890TIP3   OH214633   1.832   6.475   3.396
 4890TIP3    H114634   1.789   6.534   3.457
 4890TIP3    H214635   1.921   6.465   3.431
 4891TIP3   OH214636   5.721   3.623   5.601
 4891TIP3    H114637   5.774   3.599   5.524
 4891TIP3    H214638   5.750   3.712   5.623
 4892TIP3   OH214639   0.226   1.768   0.412
 4892TIP3    H114640   0.206   1.851   0.455
 4892TIP3    H214641   0.175   1.770   0.331
 4893TIP3   OH214642   5.271   0.071   4.679
 4893TIP3    H114643   5.257   0.165   4.663
 4893TIP3    H214644   5.187   0.030   4.656
 4894TIP3   OH214645   4.570   2.529   4.327
 4894TIP3    H114646   4.574   2.547   4.233
 4894TIP3    H214647   4.629   2.455   4.341
 4895TIP3   OH214648   0.417   0.191   1.470
 4895TIP3    H114649   0.384   0.117   1.521
 4895TIP3    H214650   0.343   0.253   1.468
 4896TIP3   OH214651   3.706   5.842   2.789
 4896TIP3    H114652   3.634   5.861   2.729
 4896TIP3    H214653   3.665   5.793   2.860
 4897TIP3   OH214654   5.034   0.904   0.108
 4897TIP3    H114655   5.090   0.915   0.030
 4897TIP3    H214656   4.978   0.981   0.107
 4898TIP3   OH214657   3.000   4.289   2.653
 4898TIP3    H114658   2.999   4.224   2.723
 4898TIP3    H214659   2.913   4.283   2.614
 4899TIP3   OH214660   2.677   5.394   0.415
 4899TIP3    H114661   2.621   5.321   0.388
 4899TIP3    H214662   2.754   5.386   0.360
 4900TIP3   OH214663   1.092   3.749   4.086
 4900TIP3    H114664   1.056   3.666   4.057
 4900TIP3    H214665   1.022   3.812   4.071
 4901TIP3   OH214666   4.974   3.717   4.649
 4901TIP3    H114667   5.034   3.773   4.598
 4901TIP3    H214668   4.949   3.771   4.723
 4902TIP3   OH214669   4.509   5.308   5.437
 4902TIP3    H114670   4.523   5.225   5.484
 4902TIP3    H214671   4.429   5.344   5.475
 4903TIP3   OH214672   4.241   5.785   0.054
 4903TIP3    H114673   4.235   5.827   0.140
 4903TIP3    H214674   4.329   5.805   0.024
 4904TIP3   OH214675   4.494   6.048   2.501
 4904TIP3    H114676   4.568   6.080   2.552
 4904TIP3    H214677   4.529   5.975   2.450
 4905TIP3   OH214678   6.782   4.800   0.624
 4905TIP3    H114679   6.853   4.745   0.654
 4905TIP3    H214680   6.710   4.781   0.684
 4906TIP3   OH214681   2.613   0.190   3.285
 4906TIP3    H114682   2.624   0.284   3.269
 4906TIP3    H214683   2.690   0.165   3.336
 4907TIP3   OH214684   1.116   2.102   1.112
 4907TIP3    H114685   1.124   2.009   1.133
 4907TIP3    H214686   1.179   2.145   1.170
 4908TIP3   OH214687   2.911   4.415   3.712
 4908TIP3    H114688   2.963   4.343   3.748
 4908TIP3    H214689   2.900   4.392   3.619
 4909TIP3   OH214690   3.569   4.349   3.951
 4909TIP3    H114691   3.639   4.288   3.975
 4909TIP3    H214692   3.490   4.313   3.991
 4910TIP3   OH214693   2.843   1.147   0.901
 4910TIP3    H114694   2.843   1.243   0.906
 4910TIP3    H214695   2.751   1.124   0.888
 4911TIP3   OH214696   0.129   5.965   5.589
 4911TIP3    H114697   0.158   5.925   5.506
 4911TIP3    H214698   0.178   6.046   5.594
 4912TIP3   OH214699  -0.001   3.327   1.427
 4912TIP3    H114700   0.036   3.240   1.438
 4912TIP3    H214701   0.067   3.377   1.382
 4913TIP3   OH214702   0.616   5.300   4.496
 4913TIP3    H114703   0.684   5.233   4.499
 4913TIP3    H214704   0.534   5.252   4.509
 4914TIP3   OH214705   3.339   6.515   1.669
 4914TIP3    H114706   3.368   6.452   1.735
 4914TIP3    H214707   3.394   6.495   1.593
 4915TIP3   OH214708   6.129   2.355   4.698
 4915TIP3    H114709   6.197   2.387   4.758
 4915TIP3    H214710   6.163   2.272   4.665
 4916TIP3   OH214711   4.889   6.404   2.637
 4916TIP3    H114712   4.892   6.468   2.708
 4916TIP3    H214713   4.949   6.335   2.664
 4917TIP3   OH214714   4.205   3.650   1.611
 4917TIP3    H114715   4.215   3.659   1.516
 4917TIP3    H214716   4.288   3.612   1.640
 4918TIP3   OH214717   6.762   4.604   1.314
 4918TIP3    H114718   6.830   4.671   1.301
 4918TIP3    H214719   6.684   4.654   1.337
 4919TIP3   OH214720   0.326   2.161   0.338
 4919TIP3    H114721   0.319   2.099   0.266
 4919TIP3    H214722   0.393   2.224   0.309
 4920TIP3   OH214723   6.025   0.068   4.991
 4920TIP3    H114724   5.971   0.074   5.070
 4920TIP3    H214725   6.017  -0.023   4.964
 4921TIP3   OH214726   6.642   6.074   4.767
 4921TIP3    H114727   6.602   6.062   4.853
 4921TIP3    H214728   6.702   6.148   4.778
 4922TIP3   OH214729   7.111   4.465   3.117
 4922TIP3    H114730   7.016   4.462   3.115
 4922TIP3    H214731   7.139   4.386   3.071
 4923TIP3   OH214732   4.794   1.245   0.491
 4923TIP3    H114733   4.764   1.321   0.440
 4923TIP3    H214734   4.769   1.265   0.581
 4924TIP3   OH214735   5.154   4.387   3.158
 4924TIP3    H114736   5.234   4.429   3.126
 4924TIP3    H214737   5.089   4.406   3.090
 4925TIP3   OH214738   6.863   5.281   5.484
 4925TIP3    H114739   6.888   5.276   5.392
 4925TIP3    H214740   6.793   5.346   5.487
 4926TIP3   OH214741   6.028   6.788   3.485
 4926TIP3    H114742   6.118   6.786   3.452
 4926TIP3    H214743   5.986   6.711   3.446
 4927TIP3   OH214744   4.264   5.629   4.245
 4927TIP3    H114745   4.283   5.632   4.339
 4927TIP3    H214746   4.181   5.583   4.239
 4928TIP3   OH214747   6.421   1.880   5.700
 4928TIP3    H114748   6.377   1.853   5.619
 4928TIP3    H214749   6.381   1.827   5.768
 4929TIP3   OH214750   1.519   3.335   1.836
 4929TIP3    H114751   1.602   3.358   1.878
 4929TIP3    H214752   1.476   3.419   1.821
 4930TIP3   OH214753   0.123   4.791   2.001
 4930TIP3    H114754   0.056   4.769   1.936
 4930TIP3    H214755   0.121   4.886   2.007
 4931TIP3   OH214756   3.165   4.251   2.437
 4931TIP3    H114757   3.119   4.170   2.414
 4931TIP3    H214758   3.116   4.287   2.510
 4932TIP3   OH214759   3.870   1.647   5.489
 4932TIP3    H114760   3.780   1.644   5.454
 4932TIP3    H214761   3.860   1.685   5.576
 4933TIP3   OH214762   2.732   2.586   5.060
 4933TIP3    H114763   2.703   2.643   5.131
 4933TIP3    H214764   2.664   2.519   5.053
 4934TIP3   OH214765   6.489   2.582   3.698
 4934TIP3    H114766   6.565   2.529   3.722
 4934TIP3    H214767   6.520   2.638   3.627
 4935TIP3   OH214768   4.859   3.917   2.827
 4935TIP3    H114769   4.911   3.872   2.760
 4935TIP3    H214770   4.782   3.949   2.780
 4936TIP3   OH214771   3.167   1.287   5.107
 4936TIP3    H114772   3.255   1.270   5.074
 4936TIP3    H214773   3.151   1.379   5.088
 4937TIP3   OH214774   3.296   1.711   2.055
 4937TIP3    H114775   3.320   1.801   2.077
 4937TIP3    H214776   3.348   1.691   1.977
 4938TIP3   OH214777   4.330   3.303   4.341
 4938TIP3    H114778   4.362   3.391   4.322
 4938TIP3    H214779   4.408   3.247   4.336
 4939TIP3   OH214780   4.170   3.024   4.045
 4939TIP3    H114781   4.230   3.088   4.082
 4939TIP3    H214782   4.158   3.051   3.954
 4940TIP3   OH214783   6.566   3.117   5.381
 4940TIP3    H114784   6.603   3.193   5.425
 4940TIP3    H214785   6.487   3.149   5.339
 4941TIP3   OH214786   3.690   3.722   5.293
 4941TIP3    H114787   3.631   3.650   5.272
 4941TIP3    H214788   3.764   3.681   5.338
 4942TIP3   OH214789   2.996   5.472   3.004
 4942TIP3    H114790   3.009   5.413   3.078
 4942TIP3    H214791   3.019   5.420   2.927
 4943TIP3   OH214792   2.263   5.066   4.042
 4943TIP3    H114793   2.272   5.108   4.128
 4943TIP3    H214794   2.233   5.136   3.985
 4944TIP3   OH214795   1.816   1.102   2.817
 4944TIP3    H114796   1.883   1.119   2.884
 4944TIP3    H214797   1.865   1.107   2.734
 4945TIP3   OH214798   0.435   4.764   3.865
 4945TIP3    H114799   0.502   4.713   3.910
 4945TIP3    H214800   0.483   4.820   3.804
 4946TIP3   OH214801   4.554   0.034   3.538
 4946TIP3    H114802   4.492   0.101   3.565
 4946TIP3    H214803   4.518  -0.002   3.457
 4947TIP3   OH214804   4.570   5.837   5.009
 4947TIP3    H114805   4.612   5.922   4.996
 4947TIP3    H214806   4.611   5.779   4.944
 4948TIP3   OH214807   2.455   6.512   1.383
 4948TIP3    H114808   2.541   6.471   1.376
 4948TIP3    H214809   2.447   6.534   1.476
 4949TIP3   OH214810   0.594   1.399   2.037
 4949TIP3    H114811   0.542   1.377   1.960
 4949TIP3    H214812   0.599   1.495   2.036
 4950TIP3   OH214813   2.289   2.256   0.362
 4950TIP3    H114814   2.223   2.189   0.382
 4950TIP3    H214815   2.353   2.210   0.308
 4951TIP3   OH214816   4.212   6.574   0.920
 4951TIP3    H114817   4.145   6.507   0.915
 4951TIP3    H214818   4.213   6.600   1.013
 4952TIP3   OH214819   4.603   2.913   3.632
 4952TIP3    H114820   4.609   3.001   3.668
 4952TIP3    H214821   4.625   2.923   3.539
 4953TIP3   OH214822   5.929   3.779   4.610
 4953TIP3    H114823   6.007   3.751   4.561
 4953TIP3    H214824   5.924   3.873   4.593
 4954TIP3   OH214825   3.133   5.461   5.242
 4954TIP3    H114826   3.143   5.543   5.193
 4954TIP3    H214827   3.146   5.392   5.178
 4955TIP3   OH214828   3.812   3.956   5.851
 4955TIP3    H114829   3.869   3.930   5.779
 4955TIP3    H214830   3.825   3.887   5.917
 4956TIP3   OH214831   5.980   5.669   5.754
 4956TIP3    H114832   6.019   5.642   5.671
 4956TIP3    H214833   5.945   5.756   5.737
 4957TIP3   OH214834   1.087   0.131   1.121
 4957TIP3    H114835   1.016   0.072   1.095
 4957TIP3    H214836   1.093   0.120   1.216
 4958TIP3   OH214837   4.177   3.809   0.230
 4958TIP3    H114838   4.143   3.860   0.303
 4958TIP3    H214839   4.230   3.871   0.180
 4959TIP3   OH214840   3.686   5.330   4.843
 4959TIP3    H114841   3.764   5.341   4.789
 4959TIP3    H214842   3.618   5.378   4.797
 4960TIP3   OH214843   0.624   1.138   1.577
 4960TIP3    H114844   0.708   1.156   1.534
 4960TIP3    H214845   0.648   1.088   1.656
 4961TIP3   OH214846   6.370   5.521   4.166
 4961TIP3    H114847   6.353   5.614   4.181
 4961TIP3    H214848   6.399   5.487   4.251
 4962TIP3   OH214849   4.121   6.059   5.508
 4962TIP3    H114850   4.213   6.037   5.526
 4962TIP3    H214851   4.122   6.154   5.497
 4963TIP3   OH214852   5.258   3.448   5.270
 4963TIP3    H114853   5.299   3.533   5.285
 4963TIP3    H214854   5.192   3.465   5.202
 4964TIP3   OH214855   3.961   3.092   1.058
 4964TIP3    H114856   3.950   2.998   1.072
 4964TIP3    H214857   4.051   3.110   1.087
 4965TIP3   OH214858   6.683   3.318   5.500
 4965TIP3    H114859   6.771   3.354   5.513
 4965TIP3    H214860   6.671   3.257   5.573
 4966TIP3   OH214861   3.939   3.776   5.134
 4966TIP3    H114862   3.937   3.687   5.168
 4966TIP3    H214863   4.020   3.781   5.085
 4967TIP3   OH214864   3.703   4.531   1.269
 4967TIP3    H114865   3.751   4.450   1.259
 4967TIP3    H214866   3.683   4.559   1.180
 4968TIP3   OH214867   3.756   2.340   5.093
 4968TIP3    H114868   3.694   2.382   5.033
 4968TIP3    H214869   3.770   2.253   5.056
 4969TIP3   OH214870   4.027   4.676   1.378
 4969TIP3    H114871   4.086   4.603   1.356
 4969TIP3    H214872   3.940   4.636   1.383
 4970TIP3   OH214873   0.354   4.880   1.505
 4970TIP3    H114874   0.434   4.831   1.487
 4970TIP3    H214875   0.367   4.916   1.593
 4971TIP3   OH214876   1.398   6.435   0.163
 4971TIP3    H114877   1.309   6.403   0.181
 4971TIP3    H214878   1.454   6.382   0.220
 4972TIP3   OH214879   2.845   2.425   4.229
 4972TIP3    H114880   2.935   2.435   4.199
 4972TIP3    H214881   2.833   2.496   4.293
 4973TIP3   OH214882   2.257   5.081   4.950
 4973TIP3    H114883   2.318   5.094   5.023
 4973TIP3    H214884   2.280   4.996   4.914
 4974TIP3   OH214885   1.575   4.623   0.311
 4974TIP3    H114886   1.585   4.716   0.334
 4974TIP3    H214887   1.562   4.579   0.395
 4975TIP3   OH214888   4.981   3.178  -0.022
 4975TIP3    H114889   5.049   3.242  -0.043
 4975TIP3    H214890   5.022   3.121   0.044
 4976TIP3   OH214891   5.422   2.838   2.421
 4976TIP3    H114892   5.513   2.861   2.403
 4976TIP3    H214893   5.412   2.855   2.515
 4977TIP3   OH214894   4.283   1.644   2.997
 4977TIP3    H114895   4.342   1.664   2.924
 4977TIP3    H214896   4.317   1.563   3.034
 4978TIP3   OH214897   4.271   1.404   2.057
 4978TIP3    H114898   4.364   1.410   2.036
 4978TIP3    H214899   4.230   1.381   1.974
 4979TIP3   OH214900   5.310   0.510   0.227
 4979TIP3    H114901   5.311   0.536   0.135
 4979TIP3    H214902   5.400   0.482   0.246
 4980TIP3   OH214903   2.388   5.172   5.556
 4980TIP3    H114904   2.460   5.155   5.616
 4980TIP3    H214905   2.415   5.250   5.507
 4981TIP3   OH214906   5.290   4.623   1.726
 4981TIP3    H114907   5.366   4.675   1.751
 4981TIP3    H214908   5.215   4.672   1.759
 4982TIP3   OH214909   4.790   1.383   1.490
 4982TIP3    H114910   4.835   1.418   1.567
 4982TIP3    H214911   4.774   1.291   1.511
 4983TIP3   OH214912   4.327   5.739   5.379
 4983TIP3    H114913   4.319   5.690   5.297
 4983TIP3    H214914   4.272   5.692   5.441
 4984TIP3   OH214915   6.960   1.348   3.705
 4984TIP3    H114916   6.960   1.414   3.636
 4984TIP3    H214917   7.009   1.388   3.777
 4985TIP3   OH214918   6.034   6.099   1.843
 4985TIP3    H114919   6.089   6.042   1.897
 4985TIP3    H214920   6.088   6.121   1.767
 4986TIP3   OH214921   0.950   3.558   3.917
 4986TIP3    H114922   0.976   3.604   3.837
 4986TIP3    H214923   0.888   3.617   3.960
 4987TIP3   OH214924   2.028   5.458   0.255
 4987TIP3    H114925   2.101   5.518   0.243
 4987TIP3    H214926   2.059   5.393   0.318
 4988TIP3   OH214927   0.088   3.303   2.312
 4988TIP3    H114928   0.114   3.359   2.239
 4988TIP3    H214929   0.168   3.293   2.364
 4989TIP3   OH214930   1.879   0.068   0.249
 4989TIP3    H114931   1.885   0.055   0.154
 4989TIP3    H214932   1.955   0.020   0.284
 4990TIP3   OH214933   2.964   6.300   2.053
 4990TIP3    H114934   3.006   6.332   2.133
 4990TIP3    H214935   3.022   6.232   2.021
 4991TIP3   OH214936   3.648   3.061   4.984
 4991TIP3    H114937   3.652   3.082   5.077
 4991TIP3    H214938   3.593   2.983   4.979
 4992TIP3   OH214939   3.985   2.294   5.264
 4992TIP3    H114940   3.969   2.363   5.328
 4992TIP3    H214941   3.916   2.306   5.198
 4993TIP3   OH214942   1.586   2.423   1.790
 4993TIP3    H114943   1.520   2.467   1.844
 4993TIP3    H214944   1.636   2.494   1.750
 4994TIP3   OH214945   6.482   5.537   5.036
 4994TIP3    H114946   6.524   5.587   4.966
 4994TIP3    H214947   6.460   5.603   5.102
 4995TIP3   OH214948   3.502   4.993   0.612
 4995TIP3    H114949   3.481   4.899   0.614
 4995TIP3    H214950   3.418   5.036   0.595
 4996TIP3   OH214951   6.474   6.656   5.169
 4996TIP3    H114952   6.427   6.650   5.253
 4996TIP3    H214953   6.564   6.675   5.193
 4997TIP3   OH214954   3.528   4.624   3.868
 4997TIP3    H114955   3.519   4.540   3.913
 4997TIP3    H214956   3.622   4.643   3.872
 4998TIP3   OH214957   7.191   2.441   1.339
 4998TIP3    H114958   7.125   2.455   1.407
 4998TIP3    H214959   7.141   2.422   1.260
 4999TIP3   OH214960   3.084   2.170   5.852
 4999TIP3    H114961   3.079   2.238   5.785
 4999TIP3    H214962   3.177   2.149   5.857
 5000TIP3   OH214963   2.780   1.651   5.316
 5000TIP3    H114964   2.843   1.580   5.330
 5000TIP3    H214965   2.791   1.675   5.224
 5001TIP3   OH214966   1.700   5.033   0.243
 5001TIP3    H114967   1.753   4.986   0.307
 5001TIP3    H214968   1.741   5.119   0.236
 5002TIP3   OH214969   0.856   5.941   4.133
 5002TIP3    H114970   0.846   6.037   4.136
 5002TIP3    H214971   0.916   5.922   4.205
 5003TIP3   OH214972   4.722   4.253   1.494
 5003TIP3    H114973   4.653   4.278   1.556
 5003TIP3    H214974   4.717   4.157   1.491
 5004TIP3   OH214975   1.724   4.166   4.033
 5004TIP3    H114976   1.681   4.087   3.999
 5004TIP3    H214977   1.658   4.235   4.024
 5005TIP3   OH214978   0.121   1.644   1.703
 5005TIP3    H114979   0.179   1.654   1.627
 5005TIP3    H214980   0.076   1.561   1.688
 5006TIP3   OH214981   2.171   5.978   2.036
 5006TIP3    H114982   2.091   5.937   2.004
 5006TIP3    H214983   2.232   5.905   2.048
 5007TIP3   OH214984   0.446   6.651   1.159
 5007TIP3    H114985   0.501   6.691   1.091
 5007TIP3    H214986   0.394   6.586   1.112
 5008TIP3   OH214987   3.692   4.808   5.590
 5008TIP3    H114988   3.714   4.719   5.562
 5008TIP3    H214989   3.629   4.839   5.524
 5009TIP3   OH214990   5.660   6.694   4.245
 5009TIP3    H114991   5.697   6.608   4.260
 5009TIP3    H214992   5.565   6.679   4.242
 5010TIP3   OH214993   0.627   1.689   1.991
 5010TIP3    H114994   0.708   1.733   1.967
 5010TIP3    H214995   0.560   1.729   1.935
 5011TIP3   OH214996   1.370   5.949   2.583
 5011TIP3    H114997   1.427   5.891   2.534
 5011TIP3    H214998   1.354   6.022   2.524
 5012TIP3   OH214999   5.819   0.748   1.888
 5012TIP3    H115000   5.785   0.675   1.940
 5012TIP3    H215001   5.766   0.823   1.915
 5013TIP3   OH215002   0.682   2.631   3.306
 5013TIP3    H115003   0.684   2.567   3.377
 5013TIP3    H215004   0.615   2.694   3.333
 5014TIP3   OH215005   0.971   2.632   0.529
 5014TIP3    H115006   0.910   2.630   0.603
 5014TIP3    H215007   1.056   2.649   0.569
 5015TIP3   OH215008   1.243   2.995   0.651
 5015TIP3    H115009   1.266   3.079   0.691
 5015TIP3    H215010   1.149   2.985   0.670
 5016TIP3   OH215011   6.196   3.950   0.273
 5016TIP3    H115012   6.107   3.921   0.250
 5016TIP3    H215013   6.236   3.873   0.313
 5017TIP3   OH215014   1.152   4.557   2.478
 5017TIP3    H115015   1.112   4.624   2.534
 5017TIP3    H215016   1.177   4.487   2.538
 5018TIP3   OH215017   5.674   2.838   2.121
 5018TIP3    H115018   5.589   2.859   2.084
 5018TIP3    H215019   5.682   2.894   2.198
 5019TIP3   OH215020   3.707   0.966   1.441
 5019TIP3    H115021   3.730   1.052   1.474
 5019TIP3    H215022   3.747   0.905   1.504
 5020TIP3   OH215023   0.494   4.249   1.971
 5020TIP3    H115024   0.434   4.310   2.013
 5020TIP3    H215025   0.575   4.298   1.960
 5021TIP3   OH215026   1.167   4.730   5.419
 5021TIP3    H115027   1.214   4.778   5.350
 5021TIP3    H215028   1.217   4.748   5.499
 5022TIP3   OH215029   4.253   4.517   0.025
 5022TIP3    H115030   4.347   4.502   0.019
 5022TIP3    H215031   4.235   4.587  -0.038
 5023TIP3   OH215032   3.188   4.130   1.269
 5023TIP3    H115033   3.166   4.038   1.286
 5023TIP3    H215034   3.280   4.138   1.292
 5024TIP3   OH215035   2.373   2.072   2.144
 5024TIP3    H115036   2.413   2.157   2.128
 5024TIP3    H215037   2.282   2.083   2.119
 5025TIP3   OH215038   0.407   3.802   5.192
 5025TIP3    H115039   0.457   3.731   5.233
 5025TIP3    H215040   0.347   3.831   5.261
 5026TIP3   OH215041   3.667   5.867   4.009
 5026TIP3    H115042   3.647   5.912   3.927
 5026TIP3    H215043   3.639   5.777   3.994
 5027TIP3   OH215044   6.759   0.780   3.784
 5027TIP3    H115045   6.721   0.859   3.745
 5027TIP3    H215046   6.852   0.800   3.793
 5028TIP3   OH215047   3.316   0.665   2.539
 5028TIP3    H115048   3.290   0.755   2.557
 5028TIP3    H215049   3.328   0.662   2.444
 5029TIP3   OH215050   1.198   2.904   2.412
 5029TIP3    H115051   1.280   2.953   2.409
 5029TIP3    H215052   1.153   2.927   2.331
 5030TIP3   OH215053   5.406   5.270   2.090
 5030TIP3    H115054   5.457   5.341   2.050
 5030TIP3    H215055   5.420   5.282   2.184
 5031TIP3   OH215056   3.028   4.067   3.500
 5031TIP3    H115057   2.980   3.985   3.486
 5031TIP3    H215058   2.982   4.131   3.447
 5032TIP3   OH215059   6.368   0.517   0.048
 5032TIP3    H115060   6.362   0.575   0.124
 5032TIP3    H215061   6.449   0.469   0.061
 5033TIP3   OH215062   4.687   0.343   3.167
 5033TIP3    H115063   4.598   0.344   3.201
 5033TIP3    H215064   4.717   0.253   3.179
 5034TIP3   OH215065   2.508   2.784   4.308
 5034TIP3    H115066   2.521   2.691   4.326
 5034TIP3    H215067   2.528   2.827   4.391
 5035TIP3   OH215068   3.010   4.597   3.239
 5035TIP3    H115069   2.996   4.639   3.324
 5035TIP3    H215070   3.085   4.539   3.254
 5036TIP3   OH215071   2.555   1.614   4.235
 5036TIP3    H115072   2.543   1.520   4.252
 5036TIP3    H215073   2.594   1.648   4.316
 5037TIP3   OH215074   6.170   2.032   0.120
 5037TIP3    H115075   6.096   2.029   0.181
 5037TIP3    H215076   6.164   2.118   0.079
 5038TIP3   OH215077   5.540   0.197   1.077
 5038TIP3    H115078   5.570   0.255   1.147
 5038TIP3    H215079   5.620   0.153   1.046
 5039TIP3   OH215080   0.406   6.400   0.780
 5039TIP3    H115081   0.423   6.321   0.730
 5039TIP3    H215082   0.491   6.423   0.819
 5040TIP3   OH215083   7.093   0.947   4.401
 5040TIP3    H115084   7.131   1.035   4.407
 5040TIP3    H215085   7.074   0.935   4.308
 5041TIP3   OH215086   5.916   6.045   5.401
 5041TIP3    H115087   5.954   6.111   5.343
 5041TIP3    H215088   5.990   5.993   5.430
 5042TIP3   OH215089   3.150   6.397   5.141
 5042TIP3    H115090   3.240   6.380   5.171
 5042TIP3    H215091   3.160   6.428   5.051
 5043TIP3   OH215092   4.097   5.852   0.912
 5043TIP3    H115093   4.184   5.889   0.921
 5043TIP3    H215094   4.100   5.804   0.829
 5044TIP3   OH215095   1.904   0.401   5.747
 5044TIP3    H115096   1.857   0.447   5.816
 5044TIP3    H215097   1.890   0.454   5.669
 5045TIP3   OH215098   0.166   0.758   5.774
 5045TIP3    H115099   0.083   0.804   5.780
 5045TIP3    H215100   0.173   0.731   5.683
 5046TIP3   OH215101   4.593   5.328   3.547
 5046TIP3    H115102   4.589   5.287   3.633
 5046TIP3    H215103   4.501   5.343   3.522
 5047TIP3   OH215104   1.979   4.964   5.308
 5047TIP3    H115105   2.042   5.033   5.325
 5047TIP3    H215106   1.915   5.003   5.249
 5048TIP3   OH215107   4.605   6.681   1.131
 5048TIP3    H115108   4.554   6.752   1.170
 5048TIP3    H215109   4.549   6.647   1.061
 5049TIP3   OH215110   0.597   6.427   2.192
 5049TIP3    H115111   0.549   6.351   2.160
 5049TIP3    H215112   0.689   6.408   2.171
 5050TIP3   OH215113   2.567   0.300   0.818
 5050TIP3    H115114   2.637   0.237   0.836
 5050TIP3    H215115   2.609   0.368   0.766
 5051TIP3   OH215116   6.299   6.375   5.417
 5051TIP3    H115117   6.259   6.297   5.454
 5051TIP3    H215118   6.284   6.368   5.323
 5052TIP3   OH215119   0.960   2.534   4.280
 5052TIP3    H115120   0.865   2.546   4.282
 5052TIP3    H215121   0.973   2.465   4.215
 5053TIP3   OH215122   5.897   3.465   4.769
 5053TIP3    H115123   5.832   3.451   4.838
 5053TIP3    H215124   5.900   3.559   4.757
 5054TIP3   OH215125   6.160   1.496   5.406
 5054TIP3    H115126   6.075   1.516   5.445
 5054TIP3    H215127   6.215   1.471   5.481
 5055TIP3   OH215128   0.216   0.967   4.948
 5055TIP3    H115129   0.152   0.897   4.950
 5055TIP3    H215130   0.260   0.958   4.864
 5056TIP3   OH215131   6.768   4.245   5.782
 5056TIP3    H115132   6.843   4.230   5.724
 5056TIP3    H215133   6.692   4.242   5.724
 5057TIP3   OH215134   4.170   4.216   2.689
 5057TIP3    H115135   4.214   4.215   2.774
 5057TIP3    H215136   4.092   4.269   2.703
 5058TIP3   OH215137   0.900   4.241   2.093
 5058TIP3    H115138   0.829   4.176   2.094
 5058TIP3    H215139   0.979   4.191   2.113
 5059TIP3   OH215140   6.900   0.234   0.346
 5059TIP3    H115141   6.943   0.234   0.432
 5059TIP3    H215142   6.904   0.143   0.317
 5060TIP3   OH215143   5.722   5.901   4.503
 5060TIP3    H115144   5.707   5.869   4.414
 5060TIP3    H215145   5.742   5.994   4.492
 5061TIP3   OH215146   4.960   4.089   2.011
 5061TIP3    H115147   4.867   4.107   2.008
 5061TIP3    H215148   4.990   4.099   1.921
 5062TIP3   OH215149   0.364   4.112   0.399
 5062TIP3    H115150   0.366   4.120   0.495
 5062TIP3    H215151   0.272   4.101   0.377
 5063TIP3   OH215152   3.340   6.151   5.194
 5063TIP3    H115153   3.382   6.234   5.171
 5063TIP3    H215154   3.370   6.090   5.128
 5064TIP3   OH215155   1.489   0.101   4.010
 5064TIP3    H115156   1.580   0.130   4.022
 5064TIP3    H215157   1.489   0.062   3.922
 5065TIP3   OH215158   5.902   2.284   5.306
 5065TIP3    H115159   5.839   2.219   5.338
 5065TIP3    H215160   5.896   2.355   5.369
 5066TIP3   OH215161   2.739   5.436   2.342
 5066TIP3    H115162   2.810   5.467   2.286
 5066TIP3    H215163   2.773   5.358   2.385
 5067TIP3   OH215164   2.343   0.120   3.255
 5067TIP3    H115165   2.307   0.186   3.315
 5067TIP3    H215166   2.437   0.137   3.256
 5068TIP3   OH215167   2.415   3.006   1.238
 5068TIP3    H115168   2.502   2.972   1.214
 5068TIP3    H215169   2.364   2.928   1.260
 5069TIP3   OH215170   3.187   1.135   4.233
 5069TIP3    H115171   3.124   1.116   4.164
 5069TIP3    H215172   3.137   1.188   4.297
 5070TIP3   OH215173   2.630   4.379   5.481
 5070TIP3    H115174   2.631   4.310   5.548
 5070TIP3    H215175   2.539   4.409   5.479
 5071TIP3   OH215176   4.766   6.664   0.723
 5071TIP3    H115177   4.683   6.652   0.676
 5071TIP3    H215178   4.827   6.606   0.679
 5072TIP3   OH215179   2.070   1.824   0.634
 5072TIP3    H115180   2.039   1.740   0.602
 5072TIP3    H215181   2.008   1.848   0.703
 5073TIP3   OH215182   4.967   6.678   2.562
 5073TIP3    H115183   5.043   6.733   2.577
 5073TIP3    H215184   4.997   6.612   2.499
 5074TIP3   OH215185   5.204   4.564   3.670
 5074TIP3    H115186   5.116   4.533   3.649
 5074TIP3    H215187   5.256   4.484   3.675
 5075TIP3   OH215188   0.185   5.793   5.384
 5075TIP3    H115189   0.131   5.718   5.407
 5075TIP3    H215190   0.210   5.778   5.293
 5076TIP3   OH215191   5.399   4.996   4.578
 5076TIP3    H115192   5.367   5.082   4.607
 5076TIP3    H215193   5.330   4.965   4.518
 5077TIP3   OH215194   3.221   4.889   4.294
 5077TIP3    H115195   3.234   4.958   4.229
 5077TIP3    H215196   3.133   4.855   4.275
 5078TIP3   OH215197   4.861   6.439   2.191
 5078TIP3    H115198   4.814   6.512   2.232
 5078TIP3    H215199   4.806   6.414   2.117
 5079TIP3   OH215200   7.077   2.554   1.923
 5079TIP3    H115201   7.000   2.524   1.874
 5079TIP3    H215202   7.066   2.516   2.010
 5080TIP3   OH215203   4.190   2.578   0.534
 5080TIP3    H115204   4.131   2.653   0.524
 5080TIP3    H215205   4.219   2.583   0.625
 5081TIP3   OH215206   6.169   5.853   2.049
 5081TIP3    H115207   6.131   5.771   2.080
 5081TIP3    H215208   6.156   5.915   2.121
 5082TIP3   OH215209   1.505   1.979   5.046
 5082TIP3    H115210   1.591   1.985   5.004
 5082TIP3    H215211   1.472   2.068   5.046
 5083TIP3   OH215212   5.591   6.503   5.475
 5083TIP3    H115213   5.635   6.418   5.478
 5083TIP3    H215214   5.583   6.523   5.382
 5084TIP3   OH215215   4.894   4.638   2.539
 5084TIP3    H115216   4.887   4.547   2.567
 5084TIP3    H215217   4.918   4.686   2.618
 5085TIP3   OH215218   0.788   3.226   4.137
 5085TIP3    H115219   0.738   3.257   4.062
 5085TIP3    H215220   0.785   3.131   4.131
 5086TIP3   OH215221   4.038   5.405   5.000
 5086TIP3    H115222   4.072   5.322   4.966
 5086TIP3    H215223   4.019   5.457   4.922
 5087TIP3   OH215224   1.109   6.129   1.937
 5087TIP3    H115225   1.108   6.194   1.866
 5087TIP3    H215226   1.095   6.045   1.894
 5088TIP3   OH215227   7.136   6.415   0.214
 5088TIP3    H115228   7.043   6.429   0.196
 5088TIP3    H215229   7.155   6.327   0.181
 5089TIP3   OH215230   1.874   4.396   3.992
 5089TIP3    H115231   1.815   4.430   3.925
 5089TIP3    H215232   1.836   4.311   4.015
 5090TIP3   OH215233   7.137   2.737   2.106
 5090TIP3    H115234   7.164   2.805   2.044
 5090TIP3    H215235   7.093   2.671   2.053
 5091TIP3   OH215236   4.081   4.926   3.858
 5091TIP3    H115237   4.170   4.897   3.874
 5091TIP3    H215238   4.026   4.857   3.895
 5092TIP3   OH215239   0.684   4.479   0.811
 5092TIP3    H115240   0.710   4.425   0.737
 5092TIP3    H215241   0.679   4.418   0.885
 5093TIP3   OH215242   4.125   2.765   2.940
 5093TIP3    H115243   4.163   2.710   2.871
 5093TIP3    H215244   4.030   2.762   2.924
 5094TIP3   OH215245   5.044   2.424   0.868
 5094TIP3    H115246   5.042   2.331   0.845
 5094TIP3    H215247   5.057   2.426   0.962
 5095TIP3   OH215248   6.497   4.028   5.426
 5095TIP3    H115249   6.428   3.962   5.419
 5095TIP3    H215250   6.478   4.090   5.355
 5096TIP3   OH215251   5.028   5.550   2.731
 5096TIP3    H115252   4.962   5.485   2.708
 5096TIP3    H215253   5.027   5.612   2.659
 5097TIP3   OH215254  -0.033   2.402   4.122
 5097TIP3    H115255   0.014   2.338   4.070
 5097TIP3    H215256   0.032   2.469   4.144
 5098TIP3   OH215257   6.872   4.279   2.599
 5098TIP3    H115258   6.860   4.338   2.673
 5098TIP3    H215259   6.852   4.332   2.522
 5099TIP3   OH215260   0.052   2.443   4.737
 5099TIP3    H115261  -0.041   2.433   4.755
 5099TIP3    H215262   0.090   2.467   4.822
 5100TIP3   OH215263   3.883   1.445   2.915
 5100TIP3    H115264   3.856   1.458   3.006
 5100TIP3    H215265   3.929   1.526   2.892
 5101TIP3   OH215266   6.824   6.408   1.048
 5101TIP3    H115267   6.886   6.480   1.036
 5101TIP3    H215268   6.879   6.333   1.070
 5102TIP3   OH215269   5.011   1.586   5.731
 5102TIP3    H115270   5.043   1.640   5.804
 5102TIP3    H215271   5.089   1.545   5.695
 5103TIP3   OH215272   3.075   2.571   4.717
 5103TIP3    H115273   2.983   2.582   4.742
 5103TIP3    H215274   3.071   2.516   4.638
 5104TIP3   OH215275   0.023   6.658   4.865
 5104TIP3    H115276  -0.048   6.661   4.930
 5104TIP3    H215277   0.049   6.749   4.855
 5105TIP3   OH215278   2.706   0.473   1.284
 5105TIP3    H115279   2.699   0.385   1.321
 5105TIP3    H215280   2.732   0.528   1.357
 5106TIP3   OH215281   0.810  -0.014   5.274
 5106TIP3    H115282   0.872  -0.067   5.324
 5106TIP3    H215283   0.780   0.053   5.335
 5107TIP3   OH215284   3.118   2.668   2.216
 5107TIP3    H115285   3.205   2.709   2.218
 5107TIP3    H215286   3.064   2.724   2.272
 5108TIP3   OH215287   6.838   4.377   1.014
 5108TIP3    H115288   6.777   4.369   0.941
 5108TIP3    H215289   6.820   4.301   1.069
 5109TIP3   OH215290   5.646   1.017   1.903
 5109TIP3    H115291   5.640   1.000   1.997
 5109TIP3    H215292   5.562   1.056   1.880
 5110TIP3   OH215293   4.746   1.413   0.727
 5110TIP3    H115294   4.763   1.451   0.813
 5110TIP3    H215295   4.796   1.466   0.666
 5111TIP3   OH215296   3.388   4.624   5.582
 5111TIP3    H115297   3.450   4.665   5.523
 5111TIP3    H215298   3.303   4.637   5.541
 5112TIP3   OH215299   0.503   3.748   0.622
 5112TIP3    H115300   0.501   3.782   0.712
 5112TIP3    H215301   0.596   3.746   0.600
 5113TIP3   OH215302   1.827   2.851   2.415
 5113TIP3    H115303   1.834   2.843   2.511
 5113TIP3    H215304   1.915   2.879   2.388
 5114TIP3   OH215305   5.616   1.591   4.679
 5114TIP3    H115306   5.679   1.628   4.741
 5114TIP3    H215307   5.607   1.499   4.706
 5115TIP3   OH215308   1.327   5.115   1.932
 5115TIP3    H115309   1.256   5.103   1.994
 5115TIP3    H215310   1.301   5.191   1.880
 5116TIP3   OH215311   4.580   2.616   5.839
 5116TIP3    H115312   4.512   2.628   5.773
 5116TIP3    H215313   4.595   2.521   5.841
 5117TIP3   OH215314   1.923   5.983   0.767
 5117TIP3    H115315   1.923   5.894   0.733
 5117TIP3    H215316   1.860   6.029   0.712
 5118TIP3   OH215317   3.000   0.364   2.005
 5118TIP3    H115318   2.911   0.364   2.040
 5118TIP3    H215319   2.993   0.321   1.920
 5119TIP3   OH215320   5.863   6.458   0.667
 5119TIP3    H115321   5.804   6.396   0.625
 5119TIP3    H215322   5.950   6.421   0.655
 5120TIP3   OH215323   5.388   4.332   4.582
 5120TIP3    H115324   5.371   4.420   4.548
 5120TIP3    H215325   5.462   4.343   4.641
 5121TIP3   OH215326   3.100   6.348   1.376
 5121TIP3    H115327   3.144   6.403   1.311
 5121TIP3    H215328   3.026   6.401   1.406
 5122TIP3   OH215329   0.201   2.642   1.976
 5122TIP3    H115330   0.126   2.596   2.014
 5122TIP3    H215331   0.240   2.688   2.051
 5123TIP3   OH215332   0.833   6.432   4.716
 5123TIP3    H115333   0.830   6.516   4.762
 5123TIP3    H215334   0.806   6.453   4.627
 5124TIP3   OH215335   4.339   3.052   5.481
 5124TIP3    H115336   4.373   3.085   5.564
 5124TIP3    H215337   4.368   3.117   5.417
 5125TIP3   OH215338   0.598   5.527   2.551
 5125TIP3    H115339   0.565   5.590   2.615
 5125TIP3    H215340   0.682   5.563   2.522
 5126TIP3   OH215341   3.714   6.783   5.537
 5126TIP3    H115342   3.777   6.739   5.593
 5126TIP3    H215343   3.629   6.748   5.563
 5127TIP3   OH215344   4.639   1.729   0.545
 5127TIP3    H115345   4.609   1.819   0.537
 5127TIP3    H215346   4.571   1.677   0.503
 5128TIP3   OH215347   5.556   1.637   0.486
 5128TIP3    H115348   5.546   1.593   0.570
 5128TIP3    H215349   5.649   1.657   0.479
 5129TIP3   OH215350   4.426   2.113   0.899
 5129TIP3    H115351   4.514   2.140   0.925
 5129TIP3    H215352   4.424   2.018   0.917
 5130TIP3   OH215353   7.099   6.051   5.820
 5130TIP3    H115354   7.097   6.102   5.739
 5130TIP3    H215355   7.176   6.083   5.866
 5131TIP3   OH215356   4.777   0.243   2.145
 5131TIP3    H115357   4.841   0.313   2.152
 5131TIP3    H215358   4.751   0.224   2.235
 5132TIP3   OH215359   3.388   3.667   1.609
 5132TIP3    H115360   3.296   3.646   1.593
 5132TIP3    H215361   3.426   3.585   1.642
 5133TIP3   OH215362   1.927   4.569   3.305
 5133TIP3    H115363   1.999   4.515   3.336
 5133TIP3    H215364   1.852   4.510   3.303
 5134TIP3   OH215365   5.019   0.906   2.597
 5134TIP3    H115366   5.073   0.979   2.625
 5134TIP3    H215367   4.962   0.888   2.672
 5135TIP3   OH215368   1.120   6.316   1.741
 5135TIP3    H115369   1.024   6.317   1.743
 5135TIP3    H215370   1.142   6.354   1.656
 5136TIP3   OH215371   1.266   5.436   2.617
 5136TIP3    H115372   1.314   5.515   2.640
 5136TIP3    H215373   1.206   5.421   2.690
 5137TIP3   OH215374   2.948   3.404   5.542
 5137TIP3    H115375   2.943   3.453   5.460
 5137TIP3    H215376   2.866   3.424   5.588
 5138TIP3   OH215377   3.639   3.293   5.777
 5138TIP3    H115378   3.592   3.357   5.831
 5138TIP3    H215379   3.584   3.215   5.778
 5139TIP3   OH215380   2.118   0.806   5.732
 5139TIP3    H115381   2.182   0.735   5.737
 5139TIP3    H215382   2.163   0.874   5.682
 5140TIP3   OH215383   2.796   2.162   0.873
 5140TIP3    H115384   2.773   2.105   0.799
 5140TIP3    H215385   2.891   2.161   0.876
 5141TIP3   OH215386   4.988   2.437   1.294
 5141TIP3    H115387   5.033   2.363   1.334
 5141TIP3    H215388   4.924   2.398   1.236
 5142TIP3   OH215389   2.589   0.293   3.870
 5142TIP3    H115390   2.607   0.347   3.792
 5142TIP3    H215391   2.521   0.232   3.841
 5143TIP3   OH215392   3.140   2.199   5.287
 5143TIP3    H115393   3.052   2.215   5.253
 5143TIP3    H215394   3.197   2.203   5.210
 5144TIP3   OH215395   4.517   5.355   2.024
 5144TIP3    H115396   4.433   5.367   2.067
 5144TIP3    H215397   4.496   5.311   1.942
 5145TIP3   OH215398   0.819   6.829   0.804
 5145TIP3    H115399   0.796   6.785   0.886
 5145TIP3    H215400   0.763   6.787   0.739
 5146TIP3   OH215401   6.477   5.910   0.511
 5146TIP3    H115402   6.468   5.818   0.534
 5146TIP3    H215403   6.498   5.909   0.417
 5147TIP3   OH215404   6.030   1.651   0.506
 5147TIP3    H115405   6.030   1.584   0.573
 5147TIP3    H215406   6.122   1.672   0.492
 5148TIP3   OH215407   1.705   4.508   3.802
 5148TIP3    H115408   1.692   4.436   3.741
 5148TIP3    H215409   1.784   4.552   3.770
 5149TIP3   OH215410   3.220   5.424   1.298
 5149TIP3    H115411   3.196   5.493   1.236
 5149TIP3    H215412   3.246   5.471   1.377
 5150TIP3   OH215413   0.398   5.005   2.146
 5150TIP3    H115414   0.427   5.094   2.165
 5150TIP3    H215415   0.346   4.980   2.222
 5151TIP3   OH215416   7.108   6.293   1.070
 5151TIP3    H115417   7.199   6.282   1.099
 5151TIP3    H215418   7.103   6.247   0.987
 5152TIP3   OH215419   2.234   0.347   4.467
 5152TIP3    H115420   2.213   0.429   4.512
 5152TIP3    H215421   2.279   0.295   4.532
 5153TIP3   OH215422   2.068   5.509   1.970
 5153TIP3    H115423   2.105   5.596   1.955
 5153TIP3    H215424   2.013   5.520   2.048
 5154TIP3   OH215425   5.494   4.974   0.827
 5154TIP3    H115426   5.561   4.915   0.791
 5154TIP3    H215427   5.436   4.992   0.753
 5155TIP3   OH215428   3.419   1.118   4.403
 5155TIP3    H115429   3.341   1.132   4.349
 5155TIP3    H215430   3.491   1.149   4.349
 5156TIP3   OH215431   0.137   5.918   0.757
 5156TIP3    H115432   0.096   5.937   0.672
 5156TIP3    H215433   0.147   6.004   0.798
 5157TIP3   OH215434   1.791   1.120   4.518
 5157TIP3    H115435   1.843   1.173   4.579
 5157TIP3    H215436   1.807   1.160   4.433
 5158TIP3   OH215437   0.296   0.698   3.282
 5158TIP3    H115438   0.352   0.745   3.344
 5158TIP3    H215439   0.253   0.768   3.232
 5159TIP3   OH215440   4.848   3.002   1.771
 5159TIP3    H115441   4.878   2.917   1.740
 5159TIP3    H215442   4.911   3.064   1.735
 5160TIP3   OH215443   2.068   3.506   2.330
 5160TIP3    H115444   2.020   3.467   2.402
 5160TIP3    H215445   2.001   3.538   2.270
 5161TIP3   OH215446   0.232   0.567   5.279
 5161TIP3    H115447   0.144   0.545   5.309
 5161TIP3    H215448   0.284   0.577   5.359
 5162TIP3   OH215449   4.319   6.322   2.418
 5162TIP3    H115450   4.347   6.363   2.336
 5162TIP3    H215451   4.375   6.362   2.485
 5163TIP3   OH215452   1.206   6.304   1.140
 5163TIP3    H115453   1.207   6.397   1.166
 5163TIP3    H215454   1.269   6.262   1.198
 5164TIP3   OH215455   5.035   2.083   0.256
 5164TIP3    H115456   5.081   2.116   0.333
 5164TIP3    H215457   5.102   2.039   0.205
 5165TIP3   OH215458   5.125   6.330   5.849
 5165TIP3    H115459   5.174   6.412   5.855
 5165TIP3    H215460   5.153   6.290   5.767
 5166TIP3   OH215461   1.864   4.920   4.661
 5166TIP3    H115462   1.815   4.905   4.580
 5166TIP3    H215463   1.797   4.934   4.727
 5167TIP3   OH215464   4.177   4.506   1.141
 5167TIP3    H115465   4.188   4.457   1.060
 5167TIP3    H215466   4.145   4.592   1.112
 5168TIP3   OH215467   6.357   3.325   3.658
 5168TIP3    H115468   6.293   3.396   3.663
 5168TIP3    H215469   6.322   3.256   3.714
 5169TIP3   OH215470   3.543   1.883   1.041
 5169TIP3    H115471   3.494   1.817   0.992
 5169TIP3    H215472   3.493   1.964   1.028
 5170TIP3   OH215473   4.023   1.814   4.559
 5170TIP3    H115474   4.041   1.795   4.467
 5170TIP3    H215475   3.959   1.884   4.557
 5171TIP3   OH215476   5.699   3.856   0.073
 5171TIP3    H115477   5.717   3.782   0.014
 5171TIP3    H215478   5.605   3.872   0.064
 5172TIP3   OH215479   5.885   4.503   0.920
 5172TIP3    H115480   5.942   4.542   0.854
 5172TIP3    H215481   5.831   4.441   0.871
 5173TIP3   OH215482   3.538   0.604   4.770
 5173TIP3    H115483   3.507   0.521   4.733
 5173TIP3    H215484   3.465   0.635   4.824
 5174TIP3   OH215485   0.440   4.705   0.688
 5174TIP3    H115486   0.438   4.711   0.783
 5174TIP3    H215487   0.437   4.611   0.670
 5175TIP3   OH215488   0.649   6.468   1.394
 5175TIP3    H115489   0.696   6.490   1.475
 5175TIP3    H215490   0.718   6.449   1.331
 5176TIP3   OH215491   6.300   0.904   4.331
 5176TIP3    H115492   6.388   0.894   4.294
 5176TIP3    H215493   6.315   0.920   4.425
 5177TIP3   OH215494   6.366   5.288   4.990
 5177TIP3    H115495   6.424   5.363   5.002
 5177TIP3    H215496   6.288   5.325   4.949
 5178TIP3   OH215497   0.545   5.826   5.152
 5178TIP3    H115498   0.618   5.841   5.212
 5178TIP3    H215499   0.579   5.850   5.066
 5179TIP3   OH215500   1.513   1.020   3.314
 5179TIP3    H115501   1.489   1.063   3.397
 5179TIP3    H215502   1.450   0.948   3.305
 5180TIP3   OH215503   1.548   0.344   2.594
 5180TIP3    H115504   1.617   0.403   2.626
 5180TIP3    H215505   1.588   0.299   2.519
 5181TIP3   OH215506   4.976   5.805   3.887
 5181TIP3    H115507   4.977   5.712   3.910
 5181TIP3    H215508   4.893   5.817   3.840
 5182TIP3   OH215509   3.087   2.826   2.654
 5182TIP3    H115510   3.128   2.749   2.693
 5182TIP3    H215511   3.158   2.890   2.649
 5183TIP3   OH215512   2.590   6.736   5.741
 5183TIP3    H115513   2.514   6.719   5.685
 5183TIP3    H215514   2.665   6.711   5.688
 5184TIP3   OH215515   6.667   3.705   5.823
 5184TIP3    H115516   6.725   3.776   5.796
 5184TIP3    H215517   6.631   3.735   5.907
 5185TIP3   OH215518   6.503   2.079   3.218
 5185TIP3    H115519   6.545   2.133   3.151
 5185TIP3    H215520   6.556   2.092   3.296
 5186TIP3   OH215521   2.500   0.851   5.714
 5186TIP3    H115522   2.568   0.854   5.646
 5186TIP3    H215523   2.442   0.780   5.686
 5187TIP3   OH215524   4.936   1.217   2.629
 5187TIP3    H115525   4.946   1.187   2.719
 5187TIP3    H215526   4.849   1.185   2.603
 5188TIP3   OH215527   0.299   3.775   2.461
 5188TIP3    H115528   0.372   3.774   2.400
 5188TIP3    H215529   0.229   3.822   2.414
 5189TIP3   OH215530   0.836   2.526   0.008
 5189TIP3    H115531   0.840   2.555  -0.083
 5189TIP3    H215532   0.793   2.440   0.004
 5190TIP3   OH215533   3.063   6.218   2.580
 5190TIP3    H115534   3.076   6.260   2.665
 5190TIP3    H215535   2.968   6.209   2.572
 5191TIP3   OH215536   3.646   1.622   1.630
 5191TIP3    H115537   3.563   1.606   1.586
 5191TIP3    H215538   3.713   1.590   1.569
 5192TIP3   OH215539   5.894   5.677   3.100
 5192TIP3    H115540   5.837   5.753   3.084
 5192TIP3    H215541   5.982   5.707   3.075
 5193TIP3   OH215542   0.354   4.918   1.794
 5193TIP3    H115543   0.347   4.853   1.864
 5193TIP3    H215544   0.311   4.996   1.828
 5194TIP3   OH215545   0.854   5.332   4.290
 5194TIP3    H115546   0.878   5.400   4.352
 5194TIP3    H215547   0.899   5.356   4.209
 5195TIP3   OH215548   5.377   0.019   1.488
 5195TIP3    H115549   5.410   0.109   1.486
 5195TIP3    H215550   5.387  -0.007   1.580
 5196TIP3   OH215551   1.634   4.603   1.683
 5196TIP3    H115552   1.653   4.535   1.748
 5196TIP3    H215553   1.554   4.644   1.714
 5197TIP3   OH215554   2.178   0.830   5.181
 5197TIP3    H115555   2.115   0.811   5.250
 5197TIP3    H215556   2.227   0.748   5.170
 5198TIP3   OH215557   4.337   1.866   2.197
 5198TIP3    H115558   4.393   1.813   2.255
 5198TIP3    H215559   4.398   1.903   2.133
 5199TIP3   OH215560   4.884   6.546   4.396
 5199TIP3    H115561   4.974   6.529   4.422
 5199TIP3    H215562   4.880   6.516   4.305
 5200TIP3   OH215563   6.011   3.729   5.010
 5200TIP3    H115564   6.073   3.801   5.019
 5200TIP3    H215565   6.056   3.653   5.047
 5201TIP3   OH215566   5.990   6.052   4.004
 5201TIP3    H115567   5.916   6.106   3.977
 5201TIP3    H215568   5.977   5.969   3.957
 5202TIP3   OH215569   5.002   4.478   0.222
 5202TIP3    H115570   5.001   4.385   0.246
 5202TIP3    H215571   5.078   4.487   0.164
 5203TIP3   OH215572   6.894   2.606   2.660
 5203TIP3    H115573   6.972   2.632   2.709
 5203TIP3    H215574   6.861   2.528   2.705
 5204TIP3   OH215575   1.970   3.696   2.888
 5204TIP3    H115576   1.930   3.664   2.969
 5204TIP3    H215577   2.019   3.773   2.915
 5205TIP3   OH215578   3.526   4.800   5.833
 5205TIP3    H115579   3.569   4.763   5.756
 5205TIP3    H215580   3.447   4.841   5.799
 5206TIP3   OH215581   0.644   4.345   0.062
 5206TIP3    H115582   0.548   4.341   0.054
 5206TIP3    H215583   0.676   4.330  -0.027
 5207TIP3   OH215584   5.620   2.299   5.071
 5207TIP3    H115585   5.600   2.271   4.982
 5207TIP3    H215586   5.680   2.373   5.060
 5208TIP3   OH215587   1.704   1.592   3.232
 5208TIP3    H115588   1.663   1.580   3.318
 5208TIP3    H215589   1.727   1.685   3.229
 5209TIP3   OH215590   6.658   4.179   4.995
 5209TIP3    H115591   6.696   4.140   5.074
 5209TIP3    H215592   6.644   4.104   4.936
 5210TIP3   OH215593   4.521   2.242   0.121
 5210TIP3    H115594   4.571   2.295   0.059
 5210TIP3    H215595   4.580   2.170   0.145
 5211TIP3   OH215596   2.990   2.690   0.825
 5211TIP3    H115597   3.053   2.722   0.889
 5211TIP3    H215598   2.933   2.630   0.875
 5212TIP3   OH215599   4.540   1.421   1.698
 5212TIP3    H115600   4.618   1.374   1.727
 5212TIP3    H215601   4.574   1.500   1.656
 5213TIP3   OH215602   4.143   5.440   4.525
 5213TIP3    H115603   4.123   5.448   4.618
 5213TIP3    H215604   4.234   5.470   4.517
 5214TIP3   OH215605   0.961   0.972   2.192
 5214TIP3    H115606   0.911   0.942   2.268
 5214TIP3    H215607   0.996   0.892   2.153
 5215TIP3   OH215608   3.004   0.769   3.726
 5215TIP3    H115609   2.975   0.746   3.638
 5215TIP3    H215610   2.978   0.861   3.737
 5216TIP3   OH215611   0.318   2.544   5.801
 5216TIP3    H115612   0.285   2.479   5.739
 5216TIP3    H215613   0.309   2.627   5.755
 5217TIP3   OH215614   1.788   0.732   2.452
 5217TIP3    H115615   1.760   0.727   2.361
 5217TIP3    H215616   1.792   0.826   2.472
 5218TIP3   OH215617   0.644   4.271   1.679
 5218TIP3    H115618   0.645   4.353   1.629
 5218TIP3    H215619   0.692   4.291   1.760
 5219TIP3   OH215620   0.429   1.882   4.605
 5219TIP3    H115621   0.379   1.805   4.633
 5219TIP3    H215622   0.370   1.927   4.544
 5220TIP3   OH215623   3.919   1.898   1.340
 5220TIP3    H115624   4.007   1.864   1.356
 5220TIP3    H215625   3.870   1.823   1.307
 5221TIP3   OH215626   2.575   3.823   4.235
 5221TIP3    H115627   2.670   3.829   4.226
 5221TIP3    H215628   2.542   3.906   4.202
 5222TIP3   OH215629   3.881   3.279   3.356
 5222TIP3    H115630   3.866   3.240   3.442
 5222TIP3    H215631   3.947   3.224   3.315
 5223TIP3   OH215632   7.120   2.731   0.285
 5223TIP3    H115633   7.040   2.679   0.278
 5223TIP3    H215634   7.129   2.772   0.198
 5224TIP3   OH215635   5.777   6.315   2.798
 5224TIP3    H115636   5.855   6.283   2.844
 5224TIP3    H215637   5.745   6.239   2.750
 5225TIP3   OH215638   4.775   5.642   0.975
 5225TIP3    H115639   4.688   5.638   0.934
 5225TIP3    H215640   4.829   5.583   0.923
 5226TIP3   OH215641   3.502   3.937   3.991
 5226TIP3    H115642   3.559   3.862   4.010
 5226TIP3    H215643   3.450   3.948   4.071
 5227TIP3   OH215644   5.670   4.166   5.607
 5227TIP3    H115645   5.699   4.076   5.616
 5227TIP3    H215646   5.692   4.207   5.691
 5228TIP3   OH215647   4.171   5.519   5.359
 5228TIP3    H115648   4.213   5.514   5.273
 5228TIP3    H215649   4.080   5.494   5.342
 5229TIP3   OH215650   1.522   1.265   3.892
 5229TIP3    H115651   1.479   1.204   3.952
 5229TIP3    H215652   1.455   1.331   3.874
 5230TIP3   OH215653   5.261   3.853   3.957
 5230TIP3    H115654   5.228   3.772   3.918
 5230TIP3    H215655   5.352   3.857   3.929
 5231TIP3   OH215656   6.166   3.285   5.049
 5231TIP3    H115657   6.188   3.374   5.021
 5231TIP3    H215658   6.090   3.296   5.105
 5232TIP3   OH215659   3.628   3.124   0.584
 5232TIP3    H115660   3.617   3.173   0.502
 5232TIP3    H215661   3.658   3.037   0.556
 5233TIP3   OH215662   5.566   5.270   3.101
 5233TIP3    H115663   5.518   5.321   3.166
 5233TIP3    H215664   5.517   5.284   3.019
 5234TIP3   OH215665   0.771   0.482   2.356
 5234TIP3    H115666   0.755   0.574   2.335
 5234TIP3    H215667   0.841   0.456   2.297
 5235TIP3   OH215668   0.150   2.666   1.396
 5235TIP3    H115669   0.212   2.601   1.429
 5235TIP3    H215670   0.066   2.620   1.392
 5236TIP3   OH215671   2.732   0.445   0.115
 5236TIP3    H115672   2.756   0.507   0.184
 5236TIP3    H215673   2.715   0.500   0.038
 5237TIP3   OH215674   5.370   3.463   4.484
 5237TIP3    H115675   5.419   3.467   4.567
 5237TIP3    H215676   5.278   3.466   4.510
 5238TIP3   OH215677   1.137   2.229   3.802
 5238TIP3    H115678   1.080   2.281   3.860
 5238TIP3    H215679   1.093   2.233   3.717
 5239TIP3   OH215680   6.234   2.933   5.483
 5239TIP3    H115681   6.229   3.027   5.466
 5239TIP3    H215682   6.221   2.926   5.578
 5240TIP3   OH215683   4.743   3.008   2.678
 5240TIP3    H115684   4.773   3.098   2.662
 5240TIP3    H215685   4.812   2.953   2.640
 5241TIP3   OH215686   0.997   2.170   4.473
 5241TIP3    H115687   0.994   2.185   4.379
 5241TIP3    H215688   0.954   2.247   4.511
 5242TIP3   OH215689   5.125   2.582   2.322
 5242TIP3    H115690   5.125   2.581   2.418
 5242TIP3    H215691   5.142   2.674   2.299
 5243TIP3   OH215692   3.300   4.136   5.764
 5243TIP3    H115693   3.375   4.128   5.706
 5243TIP3    H215694   3.250   4.210   5.728
 5244TIP3   OH215695   0.092   0.698   5.492
 5244TIP3    H115696   0.047   0.744   5.422
 5244TIP3    H215697   0.025   0.639   5.528
 5245TIP3   OH215698   3.916   3.149   3.077
 5245TIP3    H115699   3.938   3.117   2.989
 5245TIP3    H215700   3.928   3.244   3.072
 5246TIP3   OH215701   1.223   4.566   4.148
 5246TIP3    H115702   1.318   4.579   4.154
 5246TIP3    H215703   1.188   4.604   4.229
 5247TIP3   OH215704   6.036   0.320   3.069
 5247TIP3    H115705   5.951   0.333   3.112
 5247TIP3    H215706   6.013   0.299   2.978
 5248TIP3   OH215707   0.674   1.337   5.486
 5248TIP3    H115708   0.681   1.422   5.531
 5248TIP3    H215709   0.597   1.347   5.430
 5249TIP3   OH215710   6.473   0.972   5.241
 5249TIP3    H115711   6.405   0.907   5.231
 5249TIP3    H215712   6.532   0.957   5.167
 5250TIP3   OH215713   0.269   0.375   4.468
 5250TIP3    H115714   0.175   0.393   4.464
 5250TIP3    H215715   0.283   0.309   4.400
 5251TIP3   OH215716   3.993   5.545   1.468
 5251TIP3    H115717   3.901   5.531   1.450
 5251TIP3    H215718   4.031   5.457   1.467
 5252TIP3   OH215719   0.484   2.617   4.634
 5252TIP3    H115720   0.524   2.546   4.684
 5252TIP3    H215721   0.499   2.696   4.687
 5253TIP3   OH215722   3.283   1.170   1.876
 5253TIP3    H115723   3.306   1.150   1.786
 5253TIP3    H215724   3.196   1.210   1.871
 5254TIP3   OH215725   2.172   5.189   0.015
 5254TIP3    H115726   2.084   5.222   0.033
 5254TIP3    H215727   2.186   5.205  -0.078
 5255TIP3   OH215728   0.921   5.119   5.836
 5255TIP3    H115729   0.831   5.129   5.807
 5255TIP3    H215730   0.915   5.086   5.926
 5256TIP3   OH215731   1.280   0.775   3.818
 5256TIP3    H115732   1.252   0.796   3.907
 5256TIP3    H215733   1.260   0.682   3.807
 5257TIP3   OH215734   5.314   6.175   1.597
 5257TIP3    H115735   5.380   6.136   1.655
 5257TIP3    H215736   5.343   6.151   1.509
 5258TIP3   OH215737   5.657   1.312   1.634
 5258TIP3    H115738   5.576   1.360   1.617
 5258TIP3    H215739   5.726   1.365   1.593
 5259TIP3   OH215740   2.790   6.447   3.677
 5259TIP3    H115741   2.729   6.384   3.639
 5259TIP3    H215742   2.741   6.529   3.682
 5260TIP3   OH215743   2.739   6.331   1.067
 5260TIP3    H115744   2.807   6.310   1.004
 5260TIP3    H215745   2.752   6.424   1.086
 5261TIP3   OH215746   6.991   0.727   5.683
 5261TIP3    H115747   7.053   0.798   5.667
 5261TIP3    H215748   7.030   0.650   5.642
 5262TIP3   OH215749   5.187   4.979   5.228
 5262TIP3    H115750   5.255   4.935   5.278
 5262TIP3    H215751   5.163   4.917   5.159
 5263TIP3   OH215752   0.957   5.932   0.453
 5263TIP3    H115753   0.881   5.895   0.498
 5263TIP3    H215754   0.929   5.940   0.361
 5264TIP3   OH215755   1.466   4.567   2.353
 5264TIP3    H115756   1.397   4.547   2.289
 5264TIP3    H215757   1.511   4.643   2.316
 5265TIP3   OH215758   1.453   6.385   0.741
 5265TIP3    H115759   1.461   6.297   0.703
 5265TIP3    H215760   1.364   6.412   0.718
 5266TIP3   OH215761   2.900   3.202   0.819
 5266TIP3    H115762   2.978   3.206   0.875
 5266TIP3    H215763   2.837   3.152   0.870
 5267TIP3   OH215764   6.477   5.312   0.507
 5267TIP3    H115765   6.547   5.376   0.523
 5267TIP3    H215766   6.410   5.334   0.572
 5268TIP3   OH215767   6.936   5.007   5.462
 5268TIP3    H115768   6.895   5.093   5.448
 5268TIP3    H215769   7.030   5.025   5.458
 5269TIP3   OH215770   3.508   6.080   5.003
 5269TIP3    H115771   3.550   6.104   5.085
 5269TIP3    H215772   3.575   6.032   4.954
 5270TIP3   OH215773   4.104   3.572   2.654
 5270TIP3    H115774   4.136   3.602   2.569
 5270TIP3    H215775   4.180   3.531   2.695
 5271TIP3   OH215776   5.445   5.150   2.705
 5271TIP3    H115777   5.354   5.158   2.674
 5271TIP3    H215778   5.494   5.123   2.628
 5272TIP3   OH215779   4.160   3.102   4.421
 5272TIP3    H115780   4.201   3.187   4.407
 5272TIP3    H215781   4.188   3.075   4.508
 5273TIP3   OH215782   4.897   4.994   5.265
 5273TIP3    H115783   4.866   5.028   5.181
 5273TIP3    H215784   4.992   5.008   5.263
 5274TIP3   OH215785   4.257   3.138   1.340
 5274TIP3    H115786   4.178   3.190   1.332
 5274TIP3    H215787   4.305   3.153   1.259
 5275TIP3   OH215788   1.254   4.382   0.366
 5275TIP3    H115789   1.251   4.339   0.281
 5275TIP3    H215790   1.181   4.445   0.363
 5276TIP3   OH215791   0.906   1.245   4.373
 5276TIP3    H115792   0.844   1.317   4.361
 5276TIP3    H215793   0.965   1.275   4.442
 5277TIP3   OH215794   1.975   5.692   4.118
 5277TIP3    H115795   1.986   5.740   4.036
 5277TIP3    H215796   1.900   5.735   4.161
 5278TIP3   OH215797   3.174   3.886   5.689
 5278TIP3    H115798   3.239   3.954   5.708
 5278TIP3    H215799   3.099   3.933   5.653
 5279TIP3   OH215800   1.683   1.396   1.509
 5279TIP3    H115801   1.697   1.394   1.604
 5279TIP3    H215802   1.602   1.446   1.498
 5280TIP3   OH215803   6.058   0.675   1.749
 5280TIP3    H115804   5.989   0.701   1.809
 5280TIP3    H215805   6.138   0.713   1.786
 5281TIP3   OH215806   3.708   6.287   1.555
 5281TIP3    H115807   3.797   6.317   1.572
 5281TIP3    H215808   3.686   6.234   1.632
 5282TIP3   OH215809   0.916   2.257   3.265
 5282TIP3    H115810   1.006   2.225   3.265
 5282TIP3    H215811   0.907   2.302   3.181
 5283TIP3   OH215812   3.733   6.076   3.841
 5283TIP3    H115813   3.790   6.010   3.800
 5283TIP3    H215814   3.703   6.130   3.768
 5284TIP3   OH215815   2.639   2.066   5.239
 5284TIP3    H115816   2.585   2.072   5.160
 5284TIP3    H215817   2.681   1.980   5.233
 5285TIP3   OH215818   3.497   1.938   3.102
 5285TIP3    H115819   3.574   1.882   3.088
 5285TIP3    H215820   3.525   2.000   3.169
 5286TIP3   OH215821   6.593   2.614   3.424
 5286TIP3    H115822   6.667   2.675   3.424
 5286TIP3    H215823   6.542   2.640   3.347
 5287TIP3   OH215824   4.024   1.406   5.817
 5287TIP3    H115825   4.049   1.415   5.725
 5287TIP3    H215826   4.037   1.314   5.837
 5288TIP3   OH215827   4.789   0.605   0.656
 5288TIP3    H115828   4.877   0.623   0.689
 5288TIP3    H215829   4.793   0.627   0.563
 5289TIP3   OH215830   1.995   1.918   5.576
 5289TIP3    H115831   1.918   1.862   5.578
 5289TIP3    H215832   1.992   1.966   5.659
 5290TIP3   OH215833   1.651   0.796   4.636
 5290TIP3    H115834   1.643   0.704   4.664
 5290TIP3    H215835   1.567   0.835   4.659
 5291TIP3   OH215836   5.905   4.419   4.339
 5291TIP3    H115837   5.815   4.389   4.348
 5291TIP3    H215838   5.905   4.507   4.376
 5292TIP3   OH215839   5.903   4.070   4.589
 5292TIP3    H115840   5.899   4.064   4.685
 5292TIP3    H215841   5.819   4.109   4.564
 5293TIP3   OH215842   2.878   4.806   3.140
 5293TIP3    H115843   2.907   4.719   3.167
 5293TIP3    H215844   2.855   4.796   3.048
 5294TIP3   OH215845   5.118   0.406   3.107
 5294TIP3    H115846   5.184   0.466   3.072
 5294TIP3    H215847   5.072   0.457   3.173
 5295TIP3   OH215848   6.286   1.015   3.077
 5295TIP3    H115849   6.337   0.935   3.093
 5295TIP3    H215850   6.333   1.084   3.124
 5296TIP3   OH215851   1.364   0.225   1.277
 5296TIP3    H115852   1.317   0.145   1.298
 5296TIP3    H215853   1.454   0.209   1.307
 5297TIP3   OH215854   2.735   1.229   3.356
 5297TIP3    H115855   2.814   1.280   3.341
 5297TIP3    H215856   2.726   1.174   3.278
 5298TIP3   OH215857   6.509   0.620   5.082
 5298TIP3    H115858   6.558   0.682   5.028
 5298TIP3    H215859   6.429   0.667   5.106
 5299TIP3   OH215860   4.843   1.199   5.056
 5299TIP3    H115861   4.833   1.210   5.151
 5299TIP3    H215862   4.920   1.252   5.034
 5300TIP3   OH215863   6.890   3.253   0.507
 5300TIP3    H115864   6.871   3.210   0.423
 5300TIP3    H215865   6.981   3.282   0.498
 5301TIP3   OH215866   0.848   6.456   0.350
 5301TIP3    H115867   0.801   6.481   0.270
 5301TIP3    H215868   0.824   6.523   0.414
 5302TIP3   OH215869   0.067   2.721   5.186
 5302TIP3    H115870   0.098   2.810   5.172
 5302TIP3    H215871   0.077   2.678   5.101
 5303TIP3   OH215872   5.469   3.466   1.787
 5303TIP3    H115873   5.527   3.472   1.712
 5303TIP3    H215874   5.492   3.542   1.841
 5304TIP3   OH215875   6.408   6.280   0.930
 5304TIP3    H115876   6.407   6.220   0.855
 5304TIP3    H215877   6.353   6.353   0.902
 5305TIP3   OH215878   2.417   5.383   5.889
 5305TIP3    H115879   2.459   5.304   5.856
 5305TIP3    H215880   2.478   5.454   5.867
 5306TIP3   OH215881   6.286   2.553   2.252
 5306TIP3    H115882   6.193   2.553   2.276
 5306TIP3    H215883   6.331   2.532   2.334
 5307TIP3   OH215884   1.754   6.260   1.452
 5307TIP3    H115885   1.793   6.174   1.435
 5307TIP3    H215886   1.830   6.319   1.461
 5308TIP3   OH215887   1.996   2.714   5.845
 5308TIP3    H115888   2.024   2.762   5.767
 5308TIP3    H215889   2.037   2.629   5.838
 5309TIP3   OH215890   4.865   0.906   4.969
 5309TIP3    H115891   4.952   0.883   4.938
 5309TIP3    H215892   4.870   0.999   4.991
 5310TIP3   OH215893   5.400   1.997   2.755
 5310TIP3    H115894   5.392   1.972   2.663
 5310TIP3    H215895   5.480   2.051   2.758
 5311TIP3   OH215896   6.181   2.869   3.910
 5311TIP3    H115897   6.145   2.849   3.824
 5311TIP3    H215898   6.239   2.795   3.930
 5312TIP3   OH215899   3.625   0.263   4.713
 5312TIP3    H115900   3.683   0.196   4.751
 5312TIP3    H215901   3.572   0.215   4.649
 5313TIP3   OH215902   6.138   4.291   4.391
 5313TIP3    H115903   6.133   4.195   4.384
 5313TIP3    H215904   6.048   4.321   4.375
 5314TIP3   OH215905   6.986   2.733   5.238
 5314TIP3    H115906   7.070   2.773   5.216
 5314TIP3    H215907   6.922   2.804   5.227
 5315TIP3   OH215908   0.171   6.010   0.133
 5315TIP3    H115909   0.261   6.023   0.104
 5315TIP3    H215910   0.169   5.922   0.169
 5316TIP3   OH215911   4.655   5.622   2.646
 5316TIP3    H115912   4.591   5.642   2.714
 5316TIP3    H215913   4.694   5.706   2.623
 5317TIP3   OH215914   6.791   3.032   2.709
 5317TIP3    H115915   6.705   3.065   2.735
 5317TIP3    H215916   6.843   3.111   2.692
 5318TIP3   OH215917   3.577   1.441   3.176
 5318TIP3    H115918   3.523   1.431   3.255
 5318TIP3    H215919   3.523   1.409   3.105
 5319TIP3   OH215920   1.102   3.876   2.806
 5319TIP3    H115921   1.118   3.959   2.762
 5319TIP3    H215922   1.044   3.898   2.879
 5320TIP3   OH215923   1.386   2.997   4.140
 5320TIP3    H115924   1.377   2.992   4.235
 5320TIP3    H215925   1.459   2.939   4.119
 5321TIP3   OH215926   0.790   0.530   4.355
 5321TIP3    H115927   0.881   0.555   4.344
 5321TIP3    H215928   0.757   0.521   4.265
 5322TIP3   OH215929   1.063   3.252   3.552
 5322TIP3    H115930   1.039   3.160   3.554
 5322TIP3    H215931   0.983   3.298   3.576
 5323TIP3   OH215932   4.144   4.950   4.505
 5323TIP3    H115933   4.076   4.894   4.468
 5323TIP3    H215934   4.126   5.037   4.469
 5324TIP3   OH215935   3.842   1.696   2.670
 5324TIP3    H115936   3.913   1.691   2.734
 5324TIP3    H215937   3.762   1.684   2.722
 5325TIP3   OH215938   1.840   3.843   0.436
 5325TIP3    H115939   1.878   3.844   0.524
 5325TIP3    H215940   1.908   3.882   0.380
 5326TIP3   OH215941   6.318   6.564   0.911
 5326TIP3    H115942   6.397   6.615   0.928
 5326TIP3    H215943   6.263   6.622   0.859
 5327TIP3   OH215944   4.781   6.543   3.874
 5327TIP3    H115945   4.699   6.578   3.909
 5327TIP3    H215946   4.841   6.618   3.874
 5328TIP3   OH215947   3.210   0.653   5.696
 5328TIP3    H115948   3.210   0.662   5.601
 5328TIP3    H215949   3.119   0.667   5.722
 5329TIP3   OH215950   2.757   0.690   0.608
 5329TIP3    H115951   2.819   0.708   0.678
 5329TIP3    H215952   2.732   0.777   0.575
 5330TIP3   OH215953   1.573   0.902   5.774
 5330TIP3    H115954   1.594   0.860   5.857
 5330TIP3    H215955   1.658   0.923   5.735
 5331TIP3   OH215956   0.381   2.181   0.590
 5331TIP3    H115957   0.339   2.192   0.505
 5331TIP3    H215958   0.345   2.251   0.644
 5332TIP3   OH215959   3.230   1.950   3.103
 5332TIP3    H115960   3.321   1.948   3.073
 5332TIP3    H215961   3.196   2.034   3.072
 5333TIP3   OH215962   6.400   0.811   1.424
 5333TIP3    H115963   6.322   0.778   1.468
 5333TIP3    H215964   6.368   0.880   1.366
 5334TIP3   OH215965   1.664   1.561   3.756
 5334TIP3    H115966   1.751   1.531   3.784
 5334TIP3    H215967   1.622   1.590   3.837
 5335TIP3   OH215968   6.774   1.679   5.664
 5335TIP3    H115969   6.763   1.712   5.753
 5335TIP3    H215970   6.685   1.665   5.632
 5336TIP3   OH215971   5.713   1.070   0.208
 5336TIP3    H115972   5.647   1.132   0.177
 5336TIP3    H215973   5.710   0.997   0.145
 5337TIP3   OH215974   1.078   3.370   1.966
 5337TIP3    H115975   1.040   3.452   1.933
 5337TIP3    H215976   1.089   3.384   2.060
 5338TIP3   OH215977   3.890   4.993   5.430
 5338TIP3    H115978   3.885   4.913   5.481
 5338TIP3    H215979   3.972   5.034   5.456
 5339TIP3   OH215980   0.242   4.478   4.338
 5339TIP3    H115981   0.169   4.498   4.396
 5339TIP3    H215982   0.201   4.455   4.255
 5340TIP3   OH215983   2.780   3.536   0.522
 5340TIP3    H115984   2.792   3.627   0.497
 5340TIP3    H215985   2.716   3.539   0.593
 5341TIP3   OH215986   3.852   2.954   3.424
 5341TIP3    H115987   3.799   2.874   3.422
 5341TIP3    H215988   3.900   2.952   3.341
 5342TIP3   OH215989   2.161   1.362   3.857
 5342TIP3    H115990   2.220   1.294   3.825
 5342TIP3    H215991   2.132   1.331   3.943
 5343TIP3   OH215992   3.177   1.616   3.753
 5343TIP3    H115993   3.164   1.579   3.841
 5343TIP3    H215994   3.099   1.670   3.738
 5344TIP3   OH215995   4.476   1.655   4.350
 5344TIP3    H115996   4.409   1.634   4.416
 5344TIP3    H215997   4.430   1.649   4.267
 5345TIP3   OH215998   5.399   4.507   5.004
 5345TIP3    H115999   5.434   4.435   5.056
 5345TIP3    H216000   5.474   4.566   4.991
 5346TIP3   OH216001   3.666   6.687   2.599
 5346TIP3    H116002   3.717   6.668   2.521
 5346TIP3    H216003   3.727   6.672   2.672
 5347TIP3   OH216004   2.370   2.559   5.799
 5347TIP3    H116005   2.406   2.485   5.749
 5347TIP3    H216006   2.336   2.619   5.733
 5348TIP3   OH216007   5.049   5.242   5.084
 5348TIP3    H116008   5.116   5.216   5.020
 5348TIP3    H216009   5.096   5.295   5.148
 5349TIP3   OH216010   2.705   5.573   5.405
 5349TIP3    H116011   2.768   5.530   5.462
 5349TIP3    H216012   2.759   5.614   5.337
 5350TIP3   OH216013   6.849   1.769   4.449
 5350TIP3    H116014   6.852   1.777   4.544
 5350TIP3    H216015   6.847   1.860   4.417
 5351TIP3   OH216016   7.005   2.418   4.768
 5351TIP3    H116017   6.949   2.374   4.832
 5351TIP3    H216018   6.964   2.504   4.756
 5352TIP3   OH216019   0.674   0.262   4.717
 5352TIP3    H116020   0.743   0.278   4.652
 5352TIP3    H216021   0.722   0.243   4.798
 5353TIP3   OH216022   3.591   1.540   5.451
 5353TIP3    H116023   3.566   1.448   5.453
 5353TIP3    H216024   3.551   1.578   5.529
 5354TIP3   OH216025   4.923   2.180   3.281
 5354TIP3    H116026   4.853   2.173   3.217
 5354TIP3    H216027   4.892   2.130   3.356
 5355TIP3   OH216028   6.830   2.072   4.442
 5355TIP3    H116029   6.740   2.076   4.476
 5355TIP3    H216030   6.839   2.150   4.388
 5356TIP3   OH216031   5.824   4.372   3.057
 5356TIP3    H116032   5.768   4.449   3.066
 5356TIP3    H216033   5.792   4.327   2.979
 5357TIP3   OH216034   2.594   2.593   4.503
 5357TIP3    H116035   2.552   2.643   4.573
 5357TIP3    H216036   2.681   2.632   4.495
 5358TIP3   OH216037   6.976   1.467   2.796
 5358TIP3    H116038   7.044   1.468   2.728
 5358TIP3    H216039   7.021   1.499   2.874
 5359TIP3   OH216040   3.171   2.783   0.616
 5359TIP3    H116041   3.086   2.751   0.644
 5359TIP3    H216042   3.154   2.871   0.582
 5360TIP3   OH216043   6.768   1.465   2.634
 5360TIP3    H116044   6.688   1.429   2.673
 5360TIP3    H216045   6.830   1.471   2.707
 5361TIP3   OH216046   1.430   0.611   2.658
 5361TIP3    H116047   1.439   0.599   2.564
 5361TIP3    H216048   1.518   0.599   2.693
 5362TIP3   OH216049   4.398   3.736   0.961
 5362TIP3    H116050   4.346   3.807   0.924
 5362TIP3    H216051   4.486   3.750   0.926
 5363TIP3   OH216052   4.517   1.046   5.267
 5363TIP3    H116053   4.586   1.089   5.216
 5363TIP3    H216054   4.545   0.955   5.273
 5364TIP3   OH216055   3.114   5.683   3.987
 5364TIP3    H116056   3.125   5.596   3.950
 5364TIP3    H216057   3.062   5.669   4.066
 5365TIP3   OH216058   5.433   3.635   4.289
 5365TIP3    H116059   5.525   3.620   4.268
 5365TIP3    H216060   5.411   3.567   4.353
 5366TIP3   OH216061   1.503   0.535   1.652
 5366TIP3    H116062   1.413   0.504   1.661
 5366TIP3    H216063   1.553   0.457   1.626
 5367TIP3   OH216064   6.901   6.734   0.586
 5367TIP3    H116065   6.950   6.771   0.512
 5367TIP3    H216066   6.923   6.641   0.585
 5368TIP3   OH216067   6.054   5.003   5.863
 5368TIP3    H116068   6.089   5.028   5.777
 5368TIP3    H216069   5.978   4.949   5.844
 5369TIP3   OH216070   4.819   2.583   2.958
 5369TIP3    H116071   4.872   2.512   2.994
 5369TIP3    H216072   4.735   2.541   2.935
 5370TIP3   OH216073   6.716   0.008   1.498
 5370TIP3    H116074   6.803   0.008   1.458
 5370TIP3    H216075   6.712   0.092   1.545
 5371TIP3   OH216076   3.486   5.514   5.868
 5371TIP3    H116077   3.513   5.588   5.922
 5371TIP3    H216078   3.466   5.553   5.783
 5372TIP3   OH216079   3.011   5.396   1.902
 5372TIP3    H116080   3.062   5.336   1.848
 5372TIP3    H216081   3.031   5.371   1.992
 5373TIP3   OH216082   3.655   1.357   2.024
 5373TIP3    H116083   3.665   1.285   1.962
 5373TIP3    H216084   3.562   1.380   2.019
 5374TIP3   OH216085   4.721   4.129   2.329
 5374TIP3    H116086   4.662   4.053   2.327
 5374TIP3    H216087   4.704   4.175   2.247
 5375TIP3   OH216088   6.686   1.789   3.800
 5375TIP3    H116089   6.696   1.707   3.751
 5375TIP3    H216090   6.665   1.760   3.889
 5376TIP3   OH216091   1.426   5.156   0.042
 5376TIP3    H116092   1.338   5.164   0.076
 5376TIP3    H216093   1.483   5.163   0.118
 5377TIP3   OH216094   4.263   1.151   1.632
 5377TIP3    H116095   4.299   1.070   1.667
 5377TIP3    H216096   4.214   1.124   1.554
 5378TIP3   OH216097   3.961   2.335   3.110
 5378TIP3    H116098   4.039   2.340   3.054
 5378TIP3    H216099   3.910   2.262   3.075
 5379TIP3   OH216100   2.852   2.202   3.014
 5379TIP3    H116101   2.874   2.294   3.001
 5379TIP3    H216102   2.764   2.192   2.978
 5380TIP3   OH216103   2.301   1.829   4.990
 5380TIP3    H116104   2.262   1.780   5.062
 5380TIP3    H216105   2.345   1.763   4.936
 5381TIP3   OH216106   2.534   3.040   1.563
 5381TIP3    H116107   2.511   3.104   1.496
 5381TIP3    H216108   2.596   3.085   1.620
 5382TIP3   OH216109   0.175   3.681   3.362
 5382TIP3    H116110   0.234   3.621   3.316
 5382TIP3    H216111   0.234   3.743   3.405
 5383TIP3   OH216112   0.675   1.865   1.766
 5383TIP3    H116113   0.616   1.917   1.821
 5383TIP3    H216114   0.751   1.922   1.751
 5384TIP3   OH216115   6.743   2.626   3.083
 5384TIP3    H116116   6.721   2.661   2.997
 5384TIP3    H216117   6.662   2.634   3.134
 5385TIP3   OH216118   1.714   1.663   4.926
 5385TIP3    H116119   1.756   1.703   5.002
 5385TIP3    H216120   1.750   1.574   4.923
 5386TIP3   OH216121   5.340   4.412   1.919
 5386TIP3    H116122   5.322   4.470   1.845
 5386TIP3    H216123   5.432   4.429   1.941
 5387TIP3   OH216124   0.544   2.451   3.146
 5387TIP3    H116125   0.509   2.484   3.063
 5387TIP3    H216126   0.579   2.529   3.189
 5388TIP3   OH216127   0.749   0.228   2.439
 5388TIP3    H116128   0.698   0.308   2.433
 5388TIP3    H216129   0.831   0.248   2.394
 5389TIP3   OH216130   2.161   5.217   4.599
 5389TIP3    H116131   2.100   5.177   4.661
 5389TIP3    H216132   2.108   5.281   4.551
 5390TIP3   OH216133   5.408   1.985   1.766
 5390TIP3    H116134   5.420   1.890   1.768
 5390TIP3    H216135   5.370   2.007   1.851
 5391TIP3   OH216136   7.019   6.408   3.088
 5391TIP3    H116137   7.023   6.499   3.058
 5391TIP3    H216138   6.936   6.376   3.051
 5392TIP3   OH216139   4.281   2.532   1.511
 5392TIP3    H116140   4.335   2.538   1.590
 5392TIP3    H216141   4.301   2.612   1.462
 5393TIP3   OH216142   2.770   4.784   4.886
 5393TIP3    H116143   2.689   4.834   4.881
 5393TIP3    H216144   2.808   4.791   4.798
 5394TIP3   OH216145   1.441   5.620   0.659
 5394TIP3    H116146   1.484   5.607   0.574
 5394TIP3    H216147   1.397   5.537   0.677
 5395TIP3   OH216148   4.309   5.691   0.543
 5395TIP3    H116149   4.274   5.718   0.628
 5395TIP3    H216150   4.330   5.774   0.499
 5396TIP3   OH216151   3.644   3.874   2.047
 5396TIP3    H116152   3.626   3.956   2.093
 5396TIP3    H216153   3.634   3.806   2.114
 5397TIP3   OH216154   6.707   3.046   4.165
 5397TIP3    H116155   6.633   3.050   4.104
 5397TIP3    H216156   6.669   3.071   4.250
 5398TIP3   OH216157   6.830   6.339   5.878
 5398TIP3    H116158   6.925   6.327   5.875
 5398TIP3    H216159   6.818   6.434   5.884
 5399TIP3   OH216160   0.266   2.783   5.629
 5399TIP3    H116161   0.273   2.759   5.537
 5399TIP3    H216162   0.175   2.811   5.641
 5400TIP3   OH216163   4.032   3.327   1.353
 5400TIP3    H116164   4.096   3.397   1.364
 5400TIP3    H216165   4.025   3.287   1.440
 5401TIP3   OH216166   1.843   5.351   0.489
 5401TIP3    H116167   1.879   5.347   0.578
 5401TIP3    H216168   1.829   5.444   0.472
 5402TIP3   OH216169   4.430   2.245   4.264
 5402TIP3    H116170   4.483   2.186   4.211
 5402TIP3    H216171   4.472   2.243   4.350
 5403TIP3   OH216172   1.831   2.251   5.114
 5403TIP3    H116173   1.850   2.233   5.207
 5403TIP3    H216174   1.756   2.310   5.115
 5404TIP3   OH216175   5.097   1.482   0.703
 5404TIP3    H116176   5.022   1.516   0.655
 5404TIP3    H216177   5.064   1.406   0.751
 5405TIP3   OH216178   5.296   4.660   1.457
 5405TIP3    H116179   5.217   4.713   1.451
 5405TIP3    H216180   5.283   4.606   1.535
 5406TIP3   OH216181   4.988   1.492   1.222
 5406TIP3    H116182   4.997   1.583   1.250
 5406TIP3    H216183   4.955   1.499   1.132
 5407TIP3   OH216184   0.546   4.122   2.777
 5407TIP3    H116185   0.512   4.139   2.864
 5407TIP3    H216186   0.469   4.120   2.721
 5408TIP3   OH216187   4.159   4.966   2.737
 5408TIP3    H116188   4.073   4.937   2.767
 5408TIP3    H216189   4.140   5.026   2.665
 5409TIP3   OH216190   4.085   5.635   2.351
 5409TIP3    H116191   4.142   5.704   2.385
 5409TIP3    H216192   4.080   5.651   2.257
 5410TIP3   OH216193   0.977   4.457   4.392
 5410TIP3    H116194   0.932   4.378   4.361
 5410TIP3    H216195   0.908   4.508   4.435
 5411TIP3   OH216196   0.553   3.199   1.559
 5411TIP3    H116197   0.512   3.272   1.604
 5411TIP3    H216198   0.539   3.124   1.617
 5412TIP3   OH216199   1.332   2.283   4.298
 5412TIP3    H116200   1.248   2.313   4.334
 5412TIP3    H216201   1.327   2.302   4.204
 5413TIP3   OH216202   4.147   0.305   2.181
 5413TIP3    H116203   4.211   0.356   2.231
 5413TIP3    H216204   4.170   0.214   2.198
 5414TIP3   OH216205   0.315   1.467   2.692
 5414TIP3    H116206   0.324   1.543   2.750
 5414TIP3    H216207   0.404   1.447   2.665
 5415TIP3   OH216208   6.221   1.671   4.852
 5415TIP3    H116209   6.154   1.604   4.867
 5415TIP3    H216210   6.269   1.676   4.935
 5416TIP3   OH216211   5.003   1.538   4.315
 5416TIP3    H116212   4.924   1.485   4.327
 5416TIP3    H216213   4.996   1.569   4.224
 5417TIP3   OH216214   3.465   4.970   1.647
 5417TIP3    H116215   3.523   4.922   1.589
 5417TIP3    H216216   3.438   5.047   1.596
 5418TIP3   OH216217   2.847   5.183   5.460
 5418TIP3    H116218   2.861   5.177   5.366
 5418TIP3    H216219   2.752   5.176   5.471
 5419TIP3   OH216220   0.278   6.444   1.023
 5419TIP3    H116221   0.215   6.502   0.980
 5419TIP3    H216222   0.345   6.428   0.957
 5420TIP3   OH216223   4.720   4.138   4.282
 5420TIP3    H116224   4.735   4.149   4.188
 5420TIP3    H216225   4.679   4.052   4.290
 5421TIP3   OH216226   1.453   1.826   2.191
 5421TIP3    H116227   1.368   1.829   2.234
 5421TIP3    H216228   1.434   1.840   2.099
 5422TIP3   OH216229   4.446   3.006   1.960
 5422TIP3    H116230   4.506   3.072   1.924
 5422TIP3    H216231   4.499   2.927   1.967
 5423TIP3   OH216232   3.107   1.818   5.017
 5423TIP3    H116233   3.190   1.864   5.023
 5423TIP3    H216234   3.083   1.823   4.924
 5424TIP3   OH216235   3.233   1.293   3.472
 5424TIP3    H116236   3.283   1.373   3.491
 5424TIP3    H216237   3.300   1.226   3.457
 5425TIP3   OH216238   0.762   5.887   4.907
 5425TIP3    H116239   0.766   5.803   4.953
 5425TIP3    H216240   0.780   5.865   4.816
 5426TIP3   OH216241   4.162   2.697   4.614
 5426TIP3    H116242   4.194   2.696   4.524
 5426TIP3    H216243   4.234   2.661   4.666
 5427TIP3   OH216244   3.457   6.342   0.444
 5427TIP3    H116245   3.504   6.402   0.500
 5427TIP3    H216246   3.429   6.271   0.503
 5428TIP3   OH216247   5.435   3.306   2.409
 5428TIP3    H116248   5.370   3.311   2.479
 5428TIP3    H216249   5.414   3.225   2.363
 5429TIP3   OH216250   6.548   3.586   2.360
 5429TIP3    H116251   6.570   3.567   2.452
 5429TIP3    H216252   6.594   3.668   2.341
 5430TIP3   OH216253   4.157   2.522   1.072
 5430TIP3    H116254   4.116   2.523   1.159
 5430TIP3    H216255   4.184   2.431   1.059
 5431TIP3   OH216256   3.008   0.284   2.378
 5431TIP3    H116257   2.966   0.220   2.321
 5431TIP3    H216258   2.992   0.251   2.466
 5432TIP3   OH216259   5.693   1.330   5.205
 5432TIP3    H116260   5.690   1.321   5.300
 5432TIP3    H216261   5.622   1.391   5.185
 5433TIP3   OH216262   3.272   5.885   2.255
 5433TIP3    H116263   3.180   5.875   2.230
 5433TIP3    H216264   3.305   5.957   2.201
 5434TIP3   OH216265   5.904   4.603   5.833
 5434TIP3    H116266   5.993   4.637   5.823
 5434TIP3    H216267   5.914   4.528   5.891
 5435TIP3   OH216268   4.982   4.083   1.156
 5435TIP3    H116269   4.981   4.007   1.214
 5435TIP3    H216270   4.914   4.141   1.193
 5436TIP3   OH216271   6.675   4.957   0.405
 5436TIP3    H116272   6.673   4.901   0.327
 5436TIP3    H216273   6.703   4.900   0.476
 5437TIP3   OH216274   2.754   2.517   3.666
 5437TIP3    H116275   2.761   2.602   3.709
 5437TIP3    H216276   2.727   2.457   3.735
 5438TIP3   OH216277   5.589   0.277   2.839
 5438TIP3    H116278   5.658   0.253   2.778
 5438TIP3    H216279   5.518   0.310   2.784
 5439TIP3   OH216280   5.627   1.840   4.987
 5439TIP3    H116281   5.560   1.789   4.941
 5439TIP3    H216282   5.627   1.925   4.942
 5440TIP3   OH216283   2.720   5.304   0.946
 5440TIP3    H116284   2.751   5.280   0.859
 5440TIP3    H216285   2.624   5.305   0.937
 5441TIP3   OH216286   6.858   0.051   3.878
 5441TIP3    H116287   6.868   0.111   3.804
 5441TIP3    H216288   6.820  -0.028   3.840
 5442TIP3   OH216289   6.356   4.164   3.881
 5442TIP3    H116290   6.373   4.206   3.796
 5442TIP3    H216291   6.394   4.077   3.873
 5443TIP3   OH216292   2.968   0.802   1.843
 5443TIP3    H116293   2.946   0.828   1.754
 5443TIP3    H216294   2.910   0.727   1.861
 5444TIP3   OH216295   3.431   6.087   5.722
 5444TIP3    H116296   3.501   6.021   5.722
 5444TIP3    H216297   3.361   6.046   5.671
 5445TIP3   OH216298   4.953   4.985   2.421
 5445TIP3    H116299   4.896   5.005   2.347
 5445TIP3    H216300   5.017   4.922   2.386
 5446TIP3   OH216301   1.628   1.800   0.631
 5446TIP3    H116302   1.659   1.722   0.586
 5446TIP3    H216303   1.576   1.847   0.565
 5447TIP3   OH216304   4.392   2.326   4.668
 5447TIP3    H116305   4.338   2.262   4.715
 5447TIP3    H216306   4.332   2.367   4.607
 5448TIP3   OH216307   5.014   4.047   3.010
 5448TIP3    H116308   4.939   4.089   3.053
 5448TIP3    H216309   4.976   3.998   2.937
 5449TIP3   OH216310   1.578   3.657   5.024
 5449TIP3    H116311   1.512   3.711   4.981
 5449TIP3    H216312   1.568   3.677   5.117
 5450TIP3   OH216313   3.020   4.105   5.627
 5450TIP3    H116314   2.992   4.135   5.541
 5450TIP3    H216315   3.055   4.183   5.670
 5451TIP3   OH216316   6.015   1.723   2.758
 5451TIP3    H116317   6.014   1.782   2.833
 5451TIP3    H216318   6.011   1.780   2.681
 5452TIP3   OH216319   0.366   6.233   4.869
 5452TIP3    H116320   0.414   6.150   4.868
 5452TIP3    H216321   0.432   6.300   4.851
 5453TIP3   OH216322   0.323   5.746   3.979
 5453TIP3    H116323   0.317   5.823   3.923
 5453TIP3    H216324   0.363   5.778   4.060
 5454TIP3   OH216325   6.484   2.786   0.150
 5454TIP3    H116326   6.505   2.861   0.206
 5454TIP3    H216327   6.394   2.763   0.173
 5455TIP3   OH216328   3.452   4.135   1.384
 5455TIP3    H116329   3.489   4.093   1.306
 5455TIP3    H216330   3.480   4.226   1.378
 5456TIP3   OH216331   3.987   5.238   3.257
 5456TIP3    H116332   4.075   5.199   3.257
 5456TIP3    H216333   3.929   5.167   3.283
 5457TIP3   OH216334   3.207   2.717   5.596
 5457TIP3    H116335   3.258   2.700   5.675
 5457TIP3    H216336   3.203   2.632   5.551
 5458TIP3   OH216337   1.724   2.221   4.155
 5458TIP3    H116338   1.758   2.310   4.155
 5458TIP3    H216339   1.798   2.167   4.183
 5459TIP3   OH216340   2.058   3.470   5.815
 5459TIP3    H116341   2.006   3.392   5.797
 5459TIP3    H216342   2.047   3.484   5.909
 5460TIP3   OH216343   0.476   4.989   0.663
 5460TIP3    H116344   0.381   4.986   0.672
 5460TIP3    H216345   0.503   4.898   0.650
 5461TIP3   OH216346   7.049   5.260   4.024
 5461TIP3    H116347   7.087   5.224   3.944
 5461TIP3    H216348   7.022   5.348   4.001
 5462TIP3   OH216349   6.004   1.901   0.651
 5462TIP3    H116350   5.998   1.813   0.614
 5462TIP3    H216351   5.915   1.920   0.680
 5463TIP3   OH216352   0.476   0.941   3.274
 5463TIP3    H116353   0.415   1.015   3.279
 5463TIP3    H216354   0.536   0.963   3.204
 5464TIP3   OH216355   6.310   5.775   4.212
 5464TIP3    H116356   6.340   5.857   4.250
 5464TIP3    H216357   6.214   5.783   4.212
 5465TIP3   OH216358   0.305   4.286   5.738
 5465TIP3    H116359   0.354   4.362   5.709
 5465TIP3    H216360   0.244   4.267   5.667
 5466TIP3   OH216361   1.012   1.316   2.739
 5466TIP3    H116362   1.103   1.345   2.753
 5466TIP3    H216363   1.012   1.224   2.763
 5467TIP3   OH216364   1.388   0.315   3.829
 5467TIP3    H116365   1.356   0.233   3.868
 5467TIP3    H216366   1.369   0.305   3.736
 5468TIP3   OH216367   6.797   1.186   1.148
 5468TIP3    H116368   6.744   1.156   1.222
 5468TIP3    H216369   6.883   1.203   1.186
 5469TIP3   OH216370   3.251   3.981   3.820
 5469TIP3    H116371   3.336   3.964   3.860
 5469TIP3    H216372   3.222   3.896   3.787
 5470TIP3   OH216373   6.237   2.226   5.271
 5470TIP3    H116374   6.328   2.254   5.269
 5470TIP3    H216375   6.187   2.306   5.257
 5471TIP3   OH216376   2.289   4.820   4.460
 5471TIP3    H116377   2.296   4.829   4.365
 5471TIP3    H216378   2.208   4.769   4.474
 5472TIP3   OH216379   4.906   6.494   0.942
 5472TIP3    H116380   4.887   6.587   0.950
 5472TIP3    H216381   4.939   6.468   1.028
 5473TIP3   OH216382   2.423   3.925   4.942
 5473TIP3    H116383   2.500   3.973   4.971
 5473TIP3    H216384   2.443   3.899   4.852
 5474TIP3   OH216385   2.149   0.320   5.475
 5474TIP3    H116386   2.158   0.366   5.558
 5474TIP3    H216387   2.238   0.306   5.445
 5475TIP3   OH216388   3.891   1.338   3.315
 5475TIP3    H116389   3.893   1.302   3.403
 5475TIP3    H216390   3.800   1.362   3.300
 5476TIP3   OH216391   4.011   1.861   2.164
 5476TIP3    H116392   4.080   1.797   2.176
 5476TIP3    H216393   3.950   1.846   2.236
 5477TIP3   OH216394   5.730   1.800   5.493
 5477TIP3    H116395   5.824   1.806   5.474
 5477TIP3    H216396   5.691   1.769   5.411
 5478TIP3   OH216397   3.271   5.174   1.873
 5478TIP3    H116398   3.244   5.089   1.907
 5478TIP3    H216399   3.211   5.192   1.801
 5479TIP3   OH216400   6.682   1.796   4.862
 5479TIP3    H116401   6.746   1.801   4.933
 5479TIP3    H216402   6.597   1.806   4.906
 5480TIP3   OH216403   4.089   2.790   3.278
 5480TIP3    H116404   4.124   2.786   3.367
 5480TIP3    H216405   4.031   2.714   3.272
 5481TIP3   OH216406   6.076   0.297   1.501
 5481TIP3    H116407   6.113   0.210   1.520
 5481TIP3    H216408   6.018   0.282   1.426
 5482TIP3   OH216409   6.149   0.047   4.459
 5482TIP3    H116410   6.088   0.059   4.532
 5482TIP3    H216411   6.133   0.122   4.402
 5483TIP3   OH216412   2.623   4.392   3.245
 5483TIP3    H116413   2.641   4.485   3.263
 5483TIP3    H216414   2.547   4.394   3.186
 5484TIP3   OH216415   6.463   1.157   1.551
 5484TIP3    H116416   6.432   1.167   1.461
 5484TIP3    H216417   6.502   1.241   1.573
 5485TIP3   OH216418   5.990   5.042   4.467
 5485TIP3    H116419   5.997   4.975   4.400
 5485TIP3    H216420   5.903   5.080   4.454
 5486TIP3   OH216421   5.993   2.835   5.049
 5486TIP3    H116422   6.050   2.759   5.051
 5486TIP3    H216423   6.008   2.879   5.133
 5487TIP3   OH216424   1.477   0.197   5.848
 5487TIP3    H116425   1.517   0.283   5.836
 5487TIP3    H216426   1.415   0.209   5.920
 5488TIP3   OH216427   0.791   5.278   3.330
 5488TIP3    H116428   0.725   5.317   3.386
 5488TIP3    H216429   0.786   5.327   3.248
 5489TIP3   OH216430   0.054   5.537   5.446
 5489TIP3    H116431   0.020   5.457   5.405
 5489TIP3    H216432   0.096   5.506   5.527
 5490TIP3   OH216433   0.101   2.932   3.043
 5490TIP3    H116434   0.105   2.848   2.997
 5490TIP3    H216435   0.008   2.946   3.061
 5491TIP3   OH216436   5.970   4.067   5.773
 5491TIP3    H116437   5.964   4.155   5.736
 5491TIP3    H216438   5.957   4.080   5.867
 5492TIP3   OH216439   1.047   4.740   0.733
 5492TIP3    H116440   1.038   4.732   0.638
 5492TIP3    H216441   1.064   4.651   0.764
 5493TIP3   OH216442   1.340   2.017   4.670
 5493TIP3    H116443   1.423   2.051   4.705
 5493TIP3    H216444   1.364   1.976   4.587
 5494TIP3   OH216445   2.430   0.672   5.257
 5494TIP3    H116446   2.410   0.581   5.279
 5494TIP3    H216447   2.460   0.669   5.166
 5495TIP3   OH216448   7.018   1.270   3.388
 5495TIP3    H116449   7.092   1.294   3.442
 5495TIP3    H216450   6.952   1.336   3.406
 5496TIP3   OH216451   0.333   4.035   2.619
 5496TIP3    H116452   0.386   3.995   2.550
 5496TIP3    H216453   0.244   4.035   2.584
 5497TIP3   OH216454   5.932   4.043   3.545
 5497TIP3    H116455   5.993   4.040   3.472
 5497TIP3    H216456   5.959   3.973   3.603
 5498TIP3   OH216457   3.832   5.615   1.958
 5498TIP3    H116458   3.919   5.633   1.993
 5498TIP3    H216459   3.793   5.553   2.020
 5499TIP3   OH216460   3.312   5.878   3.025
 5499TIP3    H116461   3.333   5.919   2.940
 5499TIP3    H216462   3.337   5.787   3.015
 5500TIP3   OH216463   6.013   5.104   5.039
 5500TIP3    H116464   6.010   5.168   4.967
 5500TIP3    H216465   5.929   5.116   5.084
 5501TIP3   OH216466   1.638   2.459   4.766
 5501TIP3    H116467   1.590   2.397   4.712
 5501TIP3    H216468   1.570   2.509   4.812
 5502TIP3   OH216469   5.041   3.035   4.540
 5502TIP3    H116470   5.035   2.954   4.589
 5502TIP3    H216471   5.129   3.033   4.500
 5503TIP3   OH216472   2.119   1.624   0.135
 5503TIP3    H116473   2.174   1.689   0.092
 5503TIP3    H216474   2.111   1.553   0.070
 5504TIP3   OH216475   2.701   3.983   0.544
 5504TIP3    H116476   2.639   3.980   0.617
 5504TIP3    H216477   2.748   4.065   0.556
 5505TIP3   OH216478   3.541   0.472   0.335
 5505TIP3    H116479   3.596   0.511   0.403
 5505TIP3    H216480   3.474   0.423   0.384
 5506TIP3   OH216481   4.817   0.699   0.960
 5506TIP3    H116482   4.734   0.663   0.929
 5506TIP3    H216483   4.823   0.670   1.051
 5507TIP3   OH216484   4.622   5.605   3.560
 5507TIP3    H116485   4.556   5.636   3.499
 5507TIP3    H216486   4.615   5.509   3.557
 5508TIP3   OH216487   6.433   2.572   4.475
 5508TIP3    H116488   6.496   2.522   4.525
 5508TIP3    H216489   6.420   2.652   4.525
 5509TIP3   OH216490   5.639   2.018   1.635
 5509TIP3    H116491   5.722   2.014   1.684
 5509TIP3    H216492   5.577   2.053   1.698
 5510TIP3   OH216493  -0.023   1.988   3.296
 5510TIP3    H116494   0.046   1.992   3.362
 5510TIP3    H216495   0.010   1.925   3.232
 5511TIP3   OH216496   4.814   4.945   2.667
 5511TIP3    H116497   4.842   4.966   2.578
 5511TIP3    H216498   4.719   4.960   2.666
 5512TIP3   OH216499   5.127   0.241   2.884
 5512TIP3    H116500   5.185   0.313   2.857
 5512TIP3    H216501   5.084   0.273   2.963
 5513TIP3   OH216502   1.777   4.245   2.943
 5513TIP3    H116503   1.776   4.332   2.983
 5513TIP3    H216504   1.867   4.234   2.913
 5514TIP3   OH216505   5.598   4.482   3.747
 5514TIP3    H116506   5.673   4.426   3.768
 5514TIP3    H216507   5.633   4.571   3.751
 5515TIP3   OH216508   2.038   4.715   4.461
 5515TIP3    H116509   1.977   4.776   4.503
 5515TIP3    H216510   1.985   4.637   4.443
 5516TIP3   OH216511   5.588   4.822   2.749
 5516TIP3    H116512   5.551   4.872   2.821
 5516TIP3    H216513   5.666   4.872   2.723
 5517TIP3   OH216514   2.654   2.215   0.381
 5517TIP3    H116515   2.642   2.236   0.473
 5517TIP3    H216516   2.602   2.281   0.334
 5518TIP3   OH216517   1.008   2.407   0.397
 5518TIP3    H116518   1.018   2.491   0.442
 5518TIP3    H216519   0.942   2.360   0.448
 5519TIP3   OH216520   1.517   4.472   0.530
 5519TIP3    H116521   1.440   4.417   0.517
 5519TIP3    H216522   1.489   4.538   0.594
 5520TIP3   OH216523   2.105   1.662   2.638
 5520TIP3    H116524   2.108   1.631   2.729
 5520TIP3    H216525   2.174   1.728   2.633
 5521TIP3   OH216526   3.349   2.615   3.167
 5521TIP3    H116527   3.336   2.645   3.077
 5521TIP3    H216528   3.283   2.546   3.178
 5522TIP3   OH216529   5.326   6.494   5.548
 5522TIP3    H116530   5.420   6.475   5.548
 5522TIP3    H216531   5.285   6.410   5.525
 5523TIP3   OH216532   0.264   6.519   5.313
 5523TIP3    H116533   0.215   6.471   5.246
 5523TIP3    H216534   0.353   6.483   5.308
 5524TIP3   OH216535   4.300   4.741   1.521
 5524TIP3    H116536   4.257   4.657   1.535
 5524TIP3    H216537   4.270   4.770   1.435
 5525TIP3   OH216538   2.329   0.134   4.635
 5525TIP3    H116539   2.307   0.046   4.604
 5525TIP3    H216540   2.384   0.119   4.712
 5526TIP3   OH216541   2.839   3.774   1.640
 5526TIP3    H116542   2.908   3.794   1.577
 5526TIP3    H216543   2.830   3.853   1.693
 5527TIP3   OH216544   4.712   1.596   5.283
 5527TIP3    H116545   4.686   1.582   5.374
 5527TIP3    H216546   4.806   1.613   5.288
 5528TIP3   OH216547   0.586   1.095   2.366
 5528TIP3    H116548   0.548   1.149   2.436
 5528TIP3    H216549   0.534   1.015   2.368
 5529TIP3   OH216550   0.331   0.413   0.464
 5529TIP3    H116551   0.282   0.493   0.485
 5529TIP3    H216552   0.413   0.444   0.427
 5530TIP3   OH216553   3.514   3.862   5.617
 5530TIP3    H116554   3.554   3.941   5.581
 5530TIP3    H216555   3.474   3.819   5.542
 5531TIP3   OH216556   6.127   2.395   0.697
 5531TIP3    H116557   6.140   2.485   0.728
 5531TIP3    H216558   6.112   2.404   0.603
 5532TIP3   OH216559   4.602   0.293   0.541
 5532TIP3    H116560   4.678   0.297   0.484
 5532TIP3    H216561   4.626   0.231   0.609
 5533TIP3   OH216562   1.528   1.671   4.709
 5533TIP3    H116563   1.491   1.595   4.754
 5533TIP3    H216564   1.588   1.710   4.773
 5534TIP3   OH216565   3.090   4.171   2.179
 5534TIP3    H116566   3.066   4.111   2.249
 5534TIP3    H216567   3.037   4.249   2.194
 5535TIP3   OH216568   4.493   0.588   3.294
 5535TIP3    H116569   4.422   0.525   3.309
 5535TIP3    H216570   4.474   0.625   3.207
 5536TIP3   OH216571   6.600   4.326   2.803
 5536TIP3    H116572   6.682   4.374   2.806
 5536TIP3    H216573   6.540   4.379   2.856
 5537TIP3   OH216574   5.906   1.441   4.219
 5537TIP3    H116575   5.848   1.399   4.156
 5537TIP3    H216576   5.983   1.466   4.167
 5538TIP3   OH216577   5.634   6.412   2.488
 5538TIP3    H116578   5.622   6.331   2.437
 5538TIP3    H216579   5.586   6.395   2.569
 5539TIP3   OH216580   4.791   1.247   5.339
 5539TIP3    H116581   4.860   1.285   5.393
 5539TIP3    H216582   4.711   1.260   5.389
 5540TIP3   OH216583   4.077   5.067   5.079
 5540TIP3    H116584   4.165   5.053   5.114
 5540TIP3    H216585   4.048   4.980   5.051
 5541TIP3   OH216586   3.222   6.375   2.227
 5541TIP3    H116587   3.262   6.400   2.143
 5541TIP3    H216588   3.199   6.459   2.268
 5542TIP3   OH216589   1.147   5.148   4.694
 5542TIP3    H116590   1.091   5.072   4.707
 5542TIP3    H216591   1.217   5.138   4.758
 5543TIP3   OH216592   4.795   4.136   4.941
 5543TIP3    H116593   4.791   4.153   5.035
 5543TIP3    H216594   4.712   4.093   4.922
 5544TIP3   OH216595   0.897   2.348   2.983
 5544TIP3    H116596   0.948   2.378   2.908
 5544TIP3    H216597   0.839   2.422   3.003
 5545TIP3   OH216598   0.786   3.824   0.525
 5545TIP3    H116599   0.878   3.824   0.553
 5545TIP3    H216600   0.789   3.856   0.435
 5546TIP3   OH216601   1.792   0.406   5.310
 5546TIP3    H116602   1.726   0.404   5.240
 5546TIP3    H216603   1.875   0.419   5.265
 5547TIP3   OH216604   0.313   5.325   3.084
 5547TIP3    H116605   0.321   5.248   3.028
 5547TIP3    H216606   0.268   5.293   3.162
 5548TIP3   OH216607   1.839   6.408   1.783
 5548TIP3    H116608   1.877   6.382   1.699
 5548TIP3    H216609   1.745   6.417   1.765
 5549TIP3   OH216610   5.732   3.465   1.933
 5549TIP3    H116611   5.825   3.490   1.931
 5549TIP3    H216612   5.685   3.547   1.914
 5550TIP3   OH216613   4.359   6.185   3.710
 5550TIP3    H116614   4.427   6.249   3.731
 5550TIP3    H216615   4.389   6.145   3.628
 5551TIP3   OH216616   5.941   3.618   0.907
 5551TIP3    H116617   5.972   3.701   0.942
 5551TIP3    H216618   5.883   3.643   0.835
 5552TIP3   OH216619   0.797   1.915   0.271
 5552TIP3    H116620   0.705   1.898   0.292
 5552TIP3    H216621   0.796   2.001   0.229
 5553TIP3   OH216622   0.389   4.162   2.345
 5553TIP3    H116623   0.414   4.100   2.276
 5553TIP3    H216624   0.368   4.242   2.297
 5554TIP3   OH216625   4.199   1.829   1.421
 5554TIP3    H116626   4.278   1.795   1.462
 5554TIP3    H216627   4.132   1.824   1.489
 5555TIP3   OH216628   0.977   6.169   2.207
 5555TIP3    H116629   1.057   6.176   2.155
 5555TIP3    H216630   0.929   6.250   2.189
 5556TIP3   OH216631   1.930   5.376   0.751
 5556TIP3    H116632   1.947   5.436   0.823
 5556TIP3    H216633   1.870   5.311   0.787
 5557TIP3   OH216634   4.765   2.412   3.716
 5557TIP3    H116635   4.856   2.393   3.738
 5557TIP3    H216636   4.768   2.494   3.668
 5558TIP3   OH216637   2.277   3.039   5.201
 5558TIP3    H116638   2.254   2.957   5.157
 5558TIP3    H216639   2.192   3.079   5.220
 5559TIP3   OH216640   5.661   5.332   0.153
 5559TIP3    H116641   5.725   5.399   0.129
 5559TIP3    H216642   5.588   5.381   0.191
 5560TIP3   OH216643   7.196   2.334   0.487
 5560TIP3    H116644   7.169   2.351   0.397
 5560TIP3    H216645   7.178   2.417   0.533
 5561TIP3   OH216646   5.368   1.968   4.835
 5561TIP3    H116647   5.386   2.003   4.748
 5561TIP3    H216648   5.293   1.910   4.823
 5562TIP3   OH216649   4.857   1.686   0.165
 5562TIP3    H116650   4.945   1.722   0.170
 5562TIP3    H216651   4.863   1.619   0.097
 5563TIP3   OH216652   4.235   1.546   1.070
 5563TIP3    H116653   4.180   1.623   1.058
 5563TIP3    H216654   4.230   1.500   0.986
 5564TIP3   OH216655   4.052   4.960   1.367
 5564TIP3    H116656   4.083   4.964   1.457
 5564TIP3    H216657   4.048   4.866   1.347
 5565TIP3   OH216658   4.079   1.451   3.989
 5565TIP3    H116659   4.144   1.500   3.939
 5565TIP3    H216660   4.024   1.410   3.923
 5566TIP3   OH216661   0.058   2.981   2.725
 5566TIP3    H116662   0.048   3.076   2.732
 5566TIP3    H216663   0.152   2.966   2.734
 5567TIP3   OH216664   0.884   3.805   1.079
 5567TIP3    H116665   0.801   3.817   1.125
 5567TIP3    H216666   0.951   3.819   1.146
 5568TIP3   OH216667   7.209   1.352   3.575
 5568TIP3    H116668   7.293   1.346   3.620
 5568TIP3    H216669   7.149   1.299   3.628
 5569TIP3   OH216670   0.956   5.563   3.234
 5569TIP3    H116671   0.976   5.611   3.153
 5569TIP3    H216672   1.017   5.489   3.232
 5570TIP3   OH216673   6.779   0.737   0.588
 5570TIP3    H116674   6.851   0.789   0.551
 5570TIP3    H216675   6.796   0.648   0.558
 5571TIP3   OH216676   2.189   4.615   1.990
 5571TIP3    H116677   2.222   4.701   1.964
 5571TIP3    H216678   2.263   4.555   1.977
 5572TIP3   OH216679   3.941   5.815   4.871
 5572TIP3    H116680   3.966   5.891   4.819
 5572TIP3    H216681   4.003   5.813   4.943
 5573TIP3   OH216682   5.849   1.354   1.383
 5573TIP3    H116683   5.833   1.262   1.365
 5573TIP3    H216684   5.916   1.379   1.320
 5574TIP3   OH216685   1.246   0.453   5.857
 5574TIP3    H116686   1.340   0.432   5.858
 5574TIP3    H216687   1.204   0.373   5.887
 5575TIP3   OH216688   6.100   0.339   5.692
 5575TIP3    H116689   6.148   0.314   5.613
 5575TIP3    H216690   6.167   0.375   5.750
 5576TIP3   OH216691   2.916   4.235   3.161
 5576TIP3    H116692   2.961   4.246   3.077
 5576TIP3    H216693   2.825   4.260   3.143
 5577TIP3   OH216694   5.258   6.304   4.072
 5577TIP3    H116695   5.213   6.221   4.087
 5577TIP3    H216696   5.236   6.327   3.982
 5578TIP3   OH216697   1.154   1.871   5.227
 5578TIP3    H116698   1.141   1.802   5.292
 5578TIP3    H216699   1.137   1.828   5.144
 5579TIP3   OH216700   1.615   1.642   0.121
 5579TIP3    H116701   1.586   1.681   0.038
 5579TIP3    H216702   1.545   1.580   0.143
 5580TIP3   OH216703   4.058   0.553   4.223
 5580TIP3    H116704   4.008   0.542   4.142
 5580TIP3    H216705   4.149   0.558   4.194
 5581TIP3   OH216706   0.504   5.853   4.673
 5581TIP3    H116707   0.471   5.763   4.673
 5581TIP3    H216708   0.463   5.894   4.597
 5582TIP3   OH216709   1.382   4.584   4.448
 5582TIP3    H116710   1.383   4.492   4.477
 5582TIP3    H216711   1.290   4.607   4.446
 5583TIP3   OH216712   4.838   5.452   5.386
 5583TIP3    H116713   4.870   5.500   5.310
 5583TIP3    H216714   4.758   5.410   5.356
 5584TIP3   OH216715   4.200   1.638   2.173
 5584TIP3    H116716   4.290   1.670   2.175
 5584TIP3    H216717   4.207   1.551   2.133
 5585TIP3   OH216718   6.275   2.658   5.830
 5585TIP3    H116719   6.314   2.716   5.895
 5585TIP3    H216720   6.181   2.667   5.844
 5586TIP3   OH216721   3.907   1.342   0.826
 5586TIP3    H116722   3.826   1.350   0.776
 5586TIP3    H216723   3.977   1.352   0.761
 5587TIP3   OH216724   1.263   0.433   1.656
 5587TIP3    H116725   1.235   0.469   1.572
 5587TIP3    H216726   1.275   0.339   1.639
 5588TIP3   OH216727   6.837   3.481   1.715
 5588TIP3    H116728   6.851   3.486   1.809
 5588TIP3    H216729   6.784   3.558   1.694
 5589TIP3   OH216730   3.662   2.802   5.108
 5589TIP3    H116731   3.577   2.779   5.071
 5589TIP3    H216732   3.645   2.878   5.162
 5590TIP3   OH216733   6.091   0.146   2.483
 5590TIP3    H116734   6.098   0.059   2.523
 5590TIP3    H216735   6.013   0.140   2.426
 5591TIP3   OH216736   6.805   2.457   4.533
 5591TIP3    H116737   6.888   2.420   4.566
 5591TIP3    H216738   6.782   2.524   4.597
 5592TIP3   OH216739   5.716   4.839   3.050
 5592TIP3    H116740   5.650   4.907   3.037
 5592TIP3    H216741   5.772   4.845   2.973
 5593TIP3   OH216742   4.846   0.314   4.296
 5593TIP3    H116743   4.859   0.281   4.385
 5593TIP3    H216744   4.788   0.251   4.255
 5594TIP3   OH216745   6.160   5.253   3.600
 5594TIP3    H116746   6.179   5.344   3.578
 5594TIP3    H216747   6.216   5.202   3.541
 5595TIP3   OH216748   5.134   2.147   0.833
 5595TIP3    H116749   5.151   2.112   0.746
 5595TIP3    H216750   5.178   2.085   0.892
 5596TIP3   OH216751   5.864   0.147   0.393
 5596TIP3    H116752   5.809   0.088   0.341
 5596TIP3    H216753   5.814   0.228   0.397
 5597TIP3   OH216754   5.300   4.709   4.714
 5597TIP3    H116755   5.259   4.668   4.638
 5597TIP3    H216756   5.393   4.712   4.691
 5598TIP3   OH216757   0.717   0.908   2.584
 5598TIP3    H116758   0.696   0.984   2.639
 5598TIP3    H216759   0.805   0.925   2.552
 5599TIP3   OH216760   1.923   5.665   1.664
 5599TIP3    H116761   1.998   5.623   1.622
 5599TIP3    H216762   1.899   5.737   1.604
 5600TIP3   OH216763   2.603   1.859   0.473
 5600TIP3    H116764   2.534   1.813   0.521
 5600TIP3    H216765   2.558   1.901   0.400
 5601TIP3   OH216766   0.783   5.467   3.809
 5601TIP3    H116767   0.840   5.513   3.747
 5601TIP3    H216768   0.774   5.527   3.883
 5602TIP3   OH216769   3.878   1.540   2.006
 5602TIP3    H116770   3.791   1.504   2.021
 5602TIP3    H216771   3.919   1.478   1.946
 5603TIP3   OH216772   4.356   1.466   0.006
 5603TIP3    H116773   4.370   1.557   0.035
 5603TIP3    H216774   4.267   1.446   0.035
 5604TIP3   OH216775   3.769   4.935   0.512
 5604TIP3    H116776   3.766   4.848   0.552
 5604TIP3    H216777   3.682   4.971   0.527
 5605TIP3   OH216778   3.876   5.568   0.318
 5605TIP3    H116779   3.948   5.547   0.377
 5605TIP3    H216780   3.807   5.506   0.342
 5606TIP3   OH216781   4.623   4.354   4.542
 5606TIP3    H116782   4.713   4.321   4.534
 5606TIP3    H216783   4.575   4.312   4.471
 5607TIP3   OH216784   3.828   2.007   5.623
 5607TIP3    H116785   3.880   1.960   5.688
 5607TIP3    H216786   3.891   2.066   5.581
 5608TIP3   OH216787   6.365   1.402   1.138
 5608TIP3    H116788   6.454   1.368   1.149
 5608TIP3    H216789   6.330   1.408   1.227
 5609TIP3   OH216790   6.407   4.855   2.385
 5609TIP3    H116791   6.419   4.765   2.415
 5609TIP3    H216792   6.484   4.902   2.419
 5610TIP3   OH216793   2.489   2.741   4.962
 5610TIP3    H116794   2.498   2.715   5.053
 5610TIP3    H216795   2.529   2.828   4.958
 5611TIP3   OH216796   5.200   6.544   4.701
 5611TIP3    H116797   5.153   6.510   4.777
 5611TIP3    H216798   5.177   6.637   4.699
 5612TIP3   OH216799   6.788   4.281   0.533
 5612TIP3    H116800   6.823   4.345   0.471
 5612TIP3    H216801   6.859   4.218   0.544
 5613TIP3   OH216802   4.629   5.333   4.484
 5613TIP3    H116803   4.539   5.360   4.464
 5613TIP3    H216804   4.682   5.409   4.462
 5614TIP3   OH216805   1.567   3.171   3.615
 5614TIP3    H116806   1.534   3.191   3.703
 5614TIP3    H216807   1.495   3.196   3.557
 5615TIP3   OH216808   4.279   2.239   2.127
 5615TIP3    H116809   4.274   2.188   2.046
 5615TIP3    H216810   4.224   2.191   2.189
 5616TIP3   OH216811   5.924   6.396   4.863
 5616TIP3    H116812   5.891   6.325   4.809
 5616TIP3    H216813   6.012   6.413   4.830
 5617TIP3   OH216814   7.072   2.336   0.243
 5617TIP3    H116815   7.042   2.272   0.178
 5617TIP3    H216816   7.163   2.354   0.218
 5618TIP3   OH216817   4.320   3.099   0.269
 5618TIP3    H116818   4.352   3.009   0.275
 5618TIP3    H216819   4.354   3.132   0.186
 5619TIP3   OH216820   2.114   6.154   2.363
 5619TIP3    H116821   2.099   6.060   2.352
 5619TIP3    H216822   2.112   6.168   2.457
 5620TIP3   OH216823   4.727   3.893   5.092
 5620TIP3    H116824   4.675   3.841   5.030
 5620TIP3    H216825   4.668   3.963   5.119
 5621TIP3   OH216826   3.397   5.668   5.648
 5621TIP3    H116827   3.487   5.699   5.651
 5621TIP3    H216828   3.392   5.617   5.567
 5622TIP3   OH216829   6.620   1.385   1.642
 5622TIP3    H116830   6.658   1.354   1.723
 5622TIP3    H216831   6.690   1.434   1.599
 5623TIP3   OH216832   0.279   4.181   1.260
 5623TIP3    H116833   0.220   4.253   1.239
 5623TIP3    H216834   0.286   4.131   1.178
 5624TIP3   OH216835   4.918   5.201   1.884
 5624TIP3    H116836   4.994   5.234   1.932
 5624TIP3    H216837   4.954   5.164   1.804
 5625TIP3   OH216838   0.867   2.859   3.093
 5625TIP3    H116839   0.898   2.935   3.044
 5625TIP3    H216840   0.771   2.867   3.092
 5626TIP3   OH216841   5.536   3.963   3.580
 5626TIP3    H116842   5.490   3.889   3.619
 5626TIP3    H216843   5.469   4.031   3.573
 5627TIP3   OH216844   6.035   3.456   1.873
 5627TIP3    H116845   6.106   3.503   1.829
 5627TIP3    H216846   6.032   3.494   1.961
 5628TIP3   OH216847   4.715   4.694   3.027
 5628TIP3    H116848   4.785   4.698   3.092
 5628TIP3    H216849   4.725   4.608   2.985
 5629TIP3   OH216850   4.582   0.969   1.757
 5629TIP3    H116851   4.505   0.974   1.814
 5629TIP3    H216852   4.656   0.959   1.818
 5630TIP3   OH216853   4.804   4.516   2.056
 5630TIP3    H116854   4.878   4.481   2.007
 5630TIP3    H216855   4.844   4.568   2.125
 5631TIP3   OH216856   3.590   1.948   3.841
 5631TIP3    H116857   3.535   1.910   3.772
 5631TIP3    H216858   3.531   1.954   3.917
 5632TIP3   OH216859   5.791   3.536   3.461
 5632TIP3    H116860   5.781   3.618   3.412
 5632TIP3    H216861   5.876   3.502   3.433
 5633TIP3   OH216862   2.969   2.354   3.578
 5633TIP3    H116863   2.928   2.425   3.627
 5633TIP3    H216864   2.909   2.337   3.505
 5634TIP3   OH216865   4.142   0.116   3.778
 5634TIP3    H116866   4.176   0.031   3.805
 5634TIP3    H216867   4.176   0.177   3.843
 5635TIP3   OH216868   3.385   5.648   2.025
 5635TIP3    H116869   3.337   5.622   2.103
 5635TIP3    H216870   3.462   5.590   2.023
 5636TIP3   OH216871   2.435   3.506   2.102
 5636TIP3    H116872   2.501   3.463   2.047
 5636TIP3    H216873   2.454   3.600   2.094
 5637TIP3   OH216874   7.210   3.497   4.256
 5637TIP3    H116875   7.259   3.516   4.336
 5637TIP3    H216876   7.183   3.583   4.224
 5638TIP3   OH216877   0.836   4.908   5.430
 5638TIP3    H116878   0.745   4.902   5.400
 5638TIP3    H216879   0.832   4.889   5.524
 5639TIP3   OH216880   1.917   1.602   4.101
 5639TIP3    H116881   1.944   1.609   4.009
 5639TIP3    H216882   1.824   1.579   4.097
 5640TIP3   OH216883   7.108   3.731   0.074
 5640TIP3    H116884   7.104   3.641   0.040
 5640TIP3    H216885   7.025   3.770   0.046
 5641TIP3   OH216886   4.848   1.448   3.342
 5641TIP3    H116887   4.836   1.495   3.260
 5641TIP3    H216888   4.808   1.505   3.408
 5642TIP3   OH216889   6.758   3.350   5.230
 5642TIP3    H116890   6.837   3.295   5.223
 5642TIP3    H216891   6.729   3.339   5.320
 5643TIP3   OH216892   0.109   5.891   0.449
 5643TIP3    H116893   0.149   5.848   0.373
 5643TIP3    H216894   0.086   5.978   0.416
 5644TIP3   OH216895   1.295   3.191   2.555
 5644TIP3    H116896   1.364   3.132   2.526
 5644TIP3    H216897   1.340   3.257   2.608
 5645TIP3   OH216898   1.044   4.374   2.801
 5645TIP3    H116899   1.069   4.317   2.873
 5645TIP3    H216900   0.948   4.366   2.797
 5646TIP3   OH216901   0.623   6.144   1.894
 5646TIP3    H116902   0.561   6.187   1.953
 5646TIP3    H216903   0.665   6.077   1.948
 5647TIP3   OH216904   5.164   3.856   4.501
 5647TIP3    H116905   5.183   3.800   4.426
 5647TIP3    H216906   5.113   3.928   4.464
 5648TIP3   OH216907   3.773   5.237   3.471
 5648TIP3    H116908   3.795   5.150   3.438
 5648TIP3    H216909   3.857   5.279   3.488
 5649TIP3   OH216910   5.104   6.265   0.581
 5649TIP3    H116911   5.087   6.301   0.494
 5649TIP3    H216912   5.089   6.337   0.641
 5650TIP3   OH216913   5.472   2.175   5.353
 5650TIP3    H116914   5.382   2.170   5.321
 5650TIP3    H216915   5.523   2.204   5.278
 5651TIP3   OH216916   5.055   4.593   1.085
 5651TIP3    H116917   5.089   4.505   1.072
 5651TIP3    H216918   4.961   4.585   1.072
 5652TIP3   OH216919   7.068   4.998   0.142
 5652TIP3    H116920   7.131   4.969   0.207
 5652TIP3    H216921   6.989   5.018   0.192
 5653TIP3   OH216922   0.577   4.114   1.042
 5653TIP3    H116923   0.582   4.189   1.100
 5653TIP3    H216924   0.484   4.097   1.031
 5654TIP3   OH216925   2.487   0.511   3.997
 5654TIP3    H116926   2.499   0.427   3.953
 5654TIP3    H216927   2.446   0.567   3.931
 5655TIP3   OH216928   0.567   0.113   3.961
 5655TIP3    H116929   0.597   0.085   4.048
 5655TIP3    H216930   0.606   0.050   3.901
 5656TIP3   OH216931   3.545   4.260   5.949
 5656TIP3    H116932   3.492   4.186   5.919
 5656TIP3    H216933   3.515   4.333   5.895
 5657TIP3   OH216934   0.267   0.255   5.556
 5657TIP3    H116935   0.335   0.318   5.582
 5657TIP3    H216936   0.294   0.226   5.469
 5658TIP3   OH216937   4.536   2.373   1.192
 5658TIP3    H116938   4.536   2.407   1.102
 5658TIP3    H216939   4.476   2.431   1.239
 5659TIP3   OH216940   1.240   1.715   0.595
 5659TIP3    H116941   1.173   1.681   0.654
 5659TIP3    H216942   1.203   1.796   0.560
 5660TIP3   OH216943   0.491   1.692   2.315
 5660TIP3    H116944   0.415   1.698   2.372
 5660TIP3    H216945   0.499   1.599   2.294
 5661TIP3   OH216946   5.699   3.672   4.212
 5661TIP3    H116947   5.719   3.765   4.216
 5661TIP3    H216948   5.663   3.658   4.125
 5662TIP3   OH216949   5.493   5.939   1.108
 5662TIP3    H116950   5.515   5.940   1.015
 5662TIP3    H216951   5.517   5.852   1.139
 5663TIP3   OH216952   0.706   6.218   2.491
 5663TIP3    H116953   0.696   6.151   2.423
 5663TIP3    H216954   0.662   6.180   2.568
 5664TIP3   OH216955   6.864   2.210   3.745
 5664TIP3    H116956   6.901   2.129   3.711
 5664TIP3    H216957   6.939   2.265   3.764
 5665TIP3   OH216958   6.138   3.149   1.695
 5665TIP3    H116959   6.071   3.215   1.712
 5665TIP3    H216960   6.091   3.065   1.699
 5666TIP3   OH216961   5.480   3.226   3.658
 5666TIP3    H116962   5.517   3.311   3.636
 5666TIP3    H216963   5.543   3.162   3.625
 5667TIP3   OH216964   1.205   3.443   5.825
 5667TIP3    H116965   1.296   3.418   5.815
 5667TIP3    H216966   1.203   3.535   5.800
 5668TIP3   OH216967   5.088   6.049   1.304
 5668TIP3    H116968   5.113   5.960   1.279
 5668TIP3    H216969   5.115   6.103   1.230
 5669TIP3   OH216970   0.592   0.385   2.757
 5669TIP3    H116971   0.566   0.477   2.762
 5669TIP3    H216972   0.535   0.347   2.691
 5670TIP3   OH216973   4.476   3.338   2.487
 5670TIP3    H116974   4.437   3.285   2.556
 5670TIP3    H216975   4.408   3.345   2.421
 5671TIP3   OH216976   2.597   1.899   1.742
 5671TIP3    H116977   2.509   1.939   1.744
 5671TIP3    H216978   2.592   1.828   1.806
 5672TIP3   OH216979   0.725   3.273   1.869
 5672TIP3    H116980   0.745   3.335   1.939
 5672TIP3    H216981   0.634   3.290   1.847
 5673TIP3   OH216982   3.170   4.977   3.420
 5673TIP3    H116983   3.222   4.906   3.382
 5673TIP3    H216984   3.178   4.965   3.514
 5674TIP3   OH216985   6.931   5.654   2.615
 5674TIP3    H116986   6.926   5.563   2.644
 5674TIP3    H216987   6.843   5.689   2.629
 5675TIP3   OH216988   0.553   3.684   3.806
 5675TIP3    H116989   0.558   3.631   3.885
 5675TIP3    H216990   0.463   3.716   3.804
 5676TIP3   OH216991   6.724   1.595   4.675
 5676TIP3    H116992   6.719   1.658   4.747
 5676TIP3    H216993   6.643   1.607   4.626
 5677TIP3   OH216994   1.956   0.659   0.954
 5677TIP3    H116995   1.912   0.599   1.014
 5677TIP3    H216996   1.888   0.722   0.930
 5678TIP3   OH216997   0.864   2.832   4.294
 5678TIP3    H116998   0.959   2.829   4.306
 5678TIP3    H216999   0.828   2.812   4.380
 5679TIP3   OH217000   4.728   5.046   0.573
 5679TIP3    H117001   4.803   5.100   0.597
 5679TIP3    H217002   4.713   4.990   0.649
 5680TIP3   OH217003   3.552   1.113   2.906
 5680TIP3    H117004   3.578   1.104   2.998
 5680TIP3    H217005   3.583   1.032   2.865
 5681TIP3   OH217006   0.960   4.295   4.124
 5681TIP3    H117007   0.912   4.377   4.131
 5681TIP3    H217008   1.036   4.315   4.070
 5682TIP3   OH217009   5.210   0.768   5.153
 5682TIP3    H117010   5.296   0.765   5.110
 5682TIP3    H217011   5.179   0.857   5.137
 5683TIP3   OH217012   5.058   3.430   5.808
 5683TIP3    H117013   5.026   3.470   5.888
 5683TIP3    H217014   5.118   3.362   5.838
 5684TIP3   OH217015   2.598   3.008   2.615
 5684TIP3    H117016   2.674   3.043   2.661
 5684TIP3    H217017   2.536   3.081   2.612
 5685TIP3   OH217018   5.291   4.059   1.215
 5685TIP3    H117019   5.262   4.121   1.283
 5685TIP3    H217020   5.386   4.057   1.225
 5686TIP3   OH217021   3.267   0.280   0.021
 5686TIP3    H117022   3.260   0.363   0.069
 5686TIP3    H217023   3.181   0.267  -0.018
 5687TIP3   OH217024   2.106   6.733   5.479
 5687TIP3    H117025   2.114   6.827   5.463
 5687TIP3    H217026   2.079   6.697   5.394
 5688TIP3   OH217027   4.689   1.952   1.383
 5688TIP3    H117028   4.637   1.972   1.462
 5688TIP3    H217029   4.641   1.994   1.312
 5689TIP3   OH217030   5.204   1.861   2.557
 5689TIP3    H117031   5.270   1.794   2.541
 5689TIP3    H217032   5.185   1.897   2.471
 5690TIP3   OH217033   5.406   6.643   4.244
 5690TIP3    H117034   5.394   6.550   4.261
 5690TIP3    H217035   5.318   6.675   4.224
 5691TIP3   OH217036   1.981   3.398   3.178
 5691TIP3    H117037   1.938   3.477   3.212
 5691TIP3    H217038   1.939   3.381   3.094
 5692TIP3   OH217039   1.751   0.036   4.373
 5692TIP3    H117040   1.675   0.073   4.418
 5692TIP3    H217041   1.824   0.093   4.398
 5693TIP3   OH217042   0.092   1.548   1.108
 5693TIP3    H117043   0.098   1.642   1.087
 5693TIP3    H217044   0.178   1.526   1.144
 5694TIP3   OH217045   0.169   4.765   0.147
 5694TIP3    H117046   0.260   4.787   0.167
 5694TIP3    H217047   0.175   4.685   0.094
 5695TIP3   OH217048   1.634   1.414   5.133
 5695TIP3    H117049   1.675   1.404   5.047
 5695TIP3    H217050   1.554   1.463   5.116
 5696TIP3   OH217051   5.690   4.524   0.673
 5696TIP3    H117052   5.597   4.524   0.649
 5696TIP3    H217053   5.716   4.616   0.666
 5697TIP3   OH217054   6.698   3.521   1.100
 5697TIP3    H117055   6.645   3.473   1.164
 5697TIP3    H217056   6.765   3.564   1.153
 5698TIP3   OH217057   3.242   4.899   4.786
 5698TIP3    H117058   3.255   4.962   4.715
 5698TIP3    H217059   3.311   4.834   4.774
 5699TIP3   OH217060   4.755   1.246   1.200
 5699TIP3    H117061   4.661   1.240   1.215
 5699TIP3    H217062   4.783   1.155   1.188
 5700TIP3   OH217063   4.648   0.658   1.644
 5700TIP3    H117064   4.611   0.641   1.732
 5700TIP3    H217065   4.618   0.583   1.592
 5701TIP3   OH217066   3.685   0.344   0.082
 5701TIP3    H117067   3.629   0.294   0.022
 5701TIP3    H217068   3.623   0.381   0.146
 5702TIP3   OH217069   7.084   6.194   1.531
 5702TIP3    H117070   7.062   6.103   1.512
 5702TIP3    H217071   7.170   6.206   1.489
 5703TIP3   OH217072   5.382   2.824   1.745
 5703TIP3    H117073   5.465   2.849   1.705
 5703TIP3    H217074   5.316   2.848   1.680
 5704TIP3   OH217075   3.093   2.538   5.868
 5704TIP3    H117076   3.039   2.545   5.789
 5704TIP3    H217077   3.054   2.601   5.928
 5705TIP3   OH217078   5.640   5.886   3.536
 5705TIP3    H117079   5.597   5.964   3.501
 5705TIP3    H217080   5.568   5.824   3.553
 5706TIP3   OH217081   0.824   1.360   4.931
 5706TIP3    H117082   0.759   1.377   4.999
 5706TIP3    H217083   0.800   1.418   4.859
 5707TIP3   OH217084   1.192   4.998   0.736
 5707TIP3    H117085   1.152   4.912   0.722
 5707TIP3    H217086   1.157   5.027   0.820
 5708TIP3   OH217087   6.669   0.291   2.233
 5708TIP3    H117088   6.648   0.263   2.323
 5708TIP3    H217089   6.762   0.269   2.222
 5709TIP3   OH217090   6.535   2.936   5.684
 5709TIP3    H117091   6.605   3.002   5.688
 5709TIP3    H217092   6.461   2.976   5.728
 5710TIP3   OH217093   6.010   6.469   2.435
 5710TIP3    H117094   6.086   6.421   2.402
 5710TIP3    H217095   5.957   6.403   2.480
 5711TIP3   OH217096   2.406   5.059   1.050
 5711TIP3    H117097   2.387   4.967   1.038
 5711TIP3    H217098   2.470   5.061   1.122
 5712TIP3   OH217099   4.135   5.293   0.653
 5712TIP3    H117100   4.124   5.234   0.578
 5712TIP3    H217101   4.065   5.358   0.643
 5713TIP3   OH217102   4.397   6.671   3.650
 5713TIP3    H117103   4.392   6.680   3.555
 5713TIP3    H217104   4.486   6.639   3.666
 5714TIP3   OH217105   4.115   1.055   2.430
 5714TIP3    H117106   4.069   0.988   2.379
 5714TIP3    H217107   4.168   1.102   2.365
 5715TIP3   OH217108   5.850   5.085   2.261
 5715TIP3    H117109   5.797   5.163   2.242
 5715TIP3    H217110   5.797   5.012   2.229
 5716TIP3   OH217111   4.255   1.476   0.797
 5716TIP3    H117112   4.195   1.492   0.724
 5716TIP3    H217113   4.337   1.451   0.756
 5717TIP3   OH217114   1.686   1.422   0.736
 5717TIP3    H117115   1.703   1.383   0.821
 5717TIP3    H217116   1.603   1.469   0.747
 5718TIP3   OH217117   0.777   3.371   4.597
 5718TIP3    H117118   0.769   3.279   4.622
 5718TIP3    H217119   0.855   3.402   4.644
 5719TIP3   OH217120   5.720   2.297   0.540
 5719TIP3    H117121   5.694   2.204   0.533
 5719TIP3    H217122   5.769   2.302   0.622
 5720TIP3   OH217123   5.883   4.301   1.862
 5720TIP3    H117124   5.975   4.327   1.863
 5720TIP3    H217125   5.874   4.247   1.784
 5721TIP3   OH217126   0.708   0.038   1.035
 5721TIP3    H117127   0.683   0.125   1.067
 5721TIP3    H217128   0.741   0.054   0.946
 5722TIP3   OH217129   4.034   1.717   1.869
 5722TIP3    H117130   3.982   1.642   1.898
 5722TIP3    H217131   4.046   1.770   1.948
 5723TIP3   OH217132   3.129   2.348   2.576
 5723TIP3    H117133   3.166   2.427   2.616
 5723TIP3    H217134   3.119   2.370   2.484
 5724TIP3   OH217135   6.231   6.537   1.590
 5724TIP3    H117136   6.231   6.617   1.642
 5724TIP3    H217137   6.308   6.545   1.533
 5725TIP3   OH217138   3.029   5.944   1.090
 5725TIP3    H117139   3.100   5.885   1.114
 5725TIP3    H217140   3.029   6.012   1.157
 5726TIP3   OH217141   2.404   3.822   3.352
 5726TIP3    H117142   2.318   3.829   3.310
 5726TIP3    H217143   2.416   3.728   3.365
 5727TIP3   OH217144   3.672   6.120   0.134
 5727TIP3    H117145   3.655   6.037   0.091
 5727TIP3    H217146   3.588   6.166   0.132
 5728TIP3   OH217147   5.232   4.186   2.544
 5728TIP3    H117148   5.189   4.182   2.629
 5728TIP3    H217149   5.177   4.245   2.493
 5729TIP3   OH217150   1.659   2.389   0.366
 5729TIP3    H117151   1.583   2.350   0.323
 5729TIP3    H217152   1.623   2.460   0.419
 5730TIP3   OH217153   2.504   5.154   0.335
 5730TIP3    H117154   2.569   5.085   0.321
 5730TIP3    H217155   2.420   5.109   0.325
 5731TIP3   OH217156   3.355   4.221   0.297
 5731TIP3    H117157   3.422   4.268   0.249
 5731TIP3    H217158   3.377   4.234   0.389
 5732TIP3   OH217159   4.930   1.868   1.612
 5732TIP3    H117160   4.949   1.956   1.644
 5732TIP3    H217161   4.923   1.878   1.517
 5733TIP3   OH217162   7.062   5.364   3.753
 5733TIP3    H117163   7.111   5.347   3.672
 5733TIP3    H217164   7.080   5.456   3.772
 5734TIP3   OH217165   0.843   1.145   1.990
 5734TIP3    H117166   0.900   1.156   1.914
 5734TIP3    H217167   0.886   1.077   2.042
 5735TIP3   OH217168   6.634   0.407   0.127
 5735TIP3    H117169   6.684   0.329   0.153
 5735TIP3    H217170   6.591   0.435   0.208
 5736TIP3   OH217171   3.410   5.596   4.543
 5736TIP3    H117172   3.386   5.648   4.466
 5736TIP3    H217173   3.417   5.506   4.511
 5737TIP3   OH217174   4.611   1.526   1.335
 5737TIP3    H117175   4.576   1.456   1.280
 5737TIP3    H217176   4.679   1.483   1.387
 5738TIP3   OH217177   0.818   0.496   0.533
 5738TIP3    H117178   0.904   0.458   0.513
 5738TIP3    H217179   0.839   0.579   0.577
 5739TIP3   OH217180   4.666   6.233   4.077
 5739TIP3    H117181   4.615   6.152   4.074
 5739TIP3    H217182   4.601   6.301   4.097
 5740TIP3   OH217183   4.336   3.541   2.851
 5740TIP3    H117184   4.304   3.563   2.939
 5740TIP3    H217185   4.384   3.460   2.863
 5741TIP3   OH217186   4.495   3.245   2.143
 5741TIP3    H117187   4.416   3.296   2.158
 5741TIP3    H217188   4.496   3.229   2.049
 5742TIP3   OH217189   1.422   6.354   4.023
 5742TIP3    H117190   1.352   6.291   4.038
 5742TIP3    H217191   1.406   6.423   4.088
 5743TIP3   OH217192   3.936   4.033   3.447
 5743TIP3    H117193   3.843   4.011   3.456
 5743TIP3    H217194   3.976   3.956   3.408
 5744TIP3   OH217195   3.768   3.486   2.227
 5744TIP3    H117196   3.811   3.565   2.260
 5744TIP3    H217197   3.675   3.509   2.221
 5745TIP3   OH217198   0.939   3.860   5.145
 5745TIP3    H117199   0.950   3.869   5.050
 5745TIP3    H217200   0.955   3.948   5.179
 5746TIP3   OH217201   3.643   0.858   0.478
 5746TIP3    H117202   3.557   0.856   0.520
 5746TIP3    H217203   3.693   0.789   0.522
 5747TIP3   OH217204   0.736   1.954   3.792
 5747TIP3    H117205   0.743   1.977   3.699
 5747TIP3    H217206   0.644   1.931   3.804
 5748TIP3   OH217207   6.789   3.421   4.249
 5748TIP3    H117208   6.796   3.516   4.241
 5748TIP3    H217209   6.795   3.388   4.160
 5749TIP3   OH217210   4.042   4.560   1.649
 5749TIP3    H117211   4.007   4.646   1.627
 5749TIP3    H217212   4.074   4.525   1.566
 5750TIP3   OH217213   2.087   4.210   5.848
 5750TIP3    H117214   2.055   4.146   5.912
 5750TIP3    H217215   2.015   4.272   5.838
 5751TIP3   OH217216   2.569   6.553   0.974
 5751TIP3    H117217   2.582   6.639   1.013
 5751TIP3    H217218   2.600   6.492   1.041
 5752TIP3   OH217219   4.671   6.514   0.476
 5752TIP3    H117220   4.677   6.425   0.443
 5752TIP3    H217221   4.727   6.565   0.418
 5753TIP3   OH217222   0.160   4.909   2.625
 5753TIP3    H117223   0.087   4.929   2.684
 5753TIP3    H217224   0.204   4.834   2.665
 5754TIP3   OH217225   4.253   0.877   1.098
 5754TIP3    H117226   4.325   0.814   1.089
 5754TIP3    H217227   4.224   0.867   1.188
 5755TIP3   OH217228   1.654   3.655   2.217
 5755TIP3    H117229   1.652   3.575   2.270
 5755TIP3    H217230   1.747   3.667   2.196
 5756TIP3   OH217231   1.965   2.232   1.178
 5756TIP3    H117232   2.023   2.158   1.162
 5756TIP3    H217233   1.935   2.259   1.090
 5757TIP3   OH217234   1.115   6.277   0.854
 5757TIP3    H117235   1.203   6.238   0.852
 5757TIP3    H217236   1.122   6.347   0.919
 5758TIP3   OH217237   5.345   1.929   3.768
 5758TIP3    H117238   5.440   1.944   3.768
 5758TIP3    H217239   5.334   1.845   3.813
 5759TIP3   OH217240   6.017   0.783   2.399
 5759TIP3    H117241   6.009   0.863   2.348
 5759TIP3    H217242   5.926   0.754   2.412
 5760TIP3   OH217243   4.133   0.758   5.549
 5760TIP3    H117244   4.185   0.735   5.472
 5760TIP3    H217245   4.166   0.844   5.575
 5761TIP3   OH217246   6.210   3.197   5.496
 5761TIP3    H117247   6.244   3.280   5.530
 5761TIP3    H217248   6.122   3.190   5.532
 5762TIP3   OH217249   3.742   2.396   5.682
 5762TIP3    H117250   3.720   2.328   5.746
 5762TIP3    H217251   3.657   2.434   5.658
 5763TIP3   OH217252   4.312   5.400   3.511
 5763TIP3    H117253   4.310   5.314   3.553
 5763TIP3    H217254   4.282   5.461   3.578
 5764TIP3   OH217255   5.258   4.075   2.117
 5764TIP3    H117256   5.163   4.083   2.123
 5764TIP3    H217257   5.284   4.031   2.198
 5765TIP3   OH217258   5.547   0.745   5.308
 5765TIP3    H117259   5.508   0.707   5.387
 5765TIP3    H217260   5.583   0.671   5.261
 5766TIP3   OH217261   2.668   3.117   5.430
 5766TIP3    H117262   2.637   3.090   5.344
 5766TIP3    H217263   2.604   3.183   5.459
 5767TIP3   OH217264   4.878   0.978   4.501
 5767TIP3    H117265   4.903   0.905   4.444
 5767TIP3    H217266   4.818   0.939   4.565
 5768TIP3   OH217267   0.569   0.505   4.624
 5768TIP3    H117268   0.625   0.582   4.634
 5768TIP3    H217269   0.620   0.433   4.659
 5769TIP3   OH217270   1.071   3.944   4.665
 5769TIP3    H117271   1.094   3.901   4.747
 5769TIP3    H217272   1.006   3.885   4.625
 5770TIP3   OH217273   5.152   3.104   3.532
 5770TIP3    H117274   5.197   3.148   3.460
 5770TIP3    H217275   5.222   3.077   3.591
 5771TIP3   OH217276   6.714   0.877   5.138
 5771TIP3    H117277   6.757   0.795   5.161
 5771TIP3    H217278   6.767   0.913   5.067
 5772TIP3   OH217279   2.121   2.898   3.644
 5772TIP3    H117280   2.196   2.859   3.689
 5772TIP3    H217281   2.050   2.897   3.709
 5773TIP3   OH217282   6.008   0.334   0.255
 5773TIP3    H117283   5.973   0.330   0.166
 5773TIP3    H217284   5.972   0.256   0.298
 5774TIP3   OH217285   6.503   0.483   2.890
 5774TIP3    H117286   6.521   0.571   2.857
 5774TIP3    H217287   6.419   0.460   2.850
 5775TIP3   OH217288   6.315   3.866   5.287
 5775TIP3    H117289   6.291   3.787   5.335
 5775TIP3    H217290   6.400   3.846   5.248
 5776TIP3   OH217291   0.582   6.722   0.688
 5776TIP3    H117292   0.496   6.680   0.687
 5776TIP3    H217293   0.633   6.674   0.622
 5777TIP3   OH217294  -0.046   2.124   2.324
 5777TIP3    H117295   0.011   2.199   2.313
 5777TIP3    H217296   0.012   2.048   2.318
 5778TIP3   OH217297   6.392   3.455   0.262
 5778TIP3    H117298   6.424   3.399   0.190
 5778TIP3    H217299   6.472   3.487   0.304
 5779TIP3   OH217300   6.679   0.553   2.105
 5779TIP3    H117301   6.665   0.467   2.145
 5779TIP3    H217302   6.769   0.549   2.072
 5780TIP3   OH217303   2.327   0.365   1.354
 5780TIP3    H117304   2.335   0.434   1.420
 5780TIP3    H217305   2.367   0.289   1.394
 5781TIP3   OH217306   0.303   6.169   2.317
 5781TIP3    H117307   0.312   6.225   2.394
 5781TIP3    H217308   0.389   6.127   2.308
 5782TIP3   OH217309   2.868   5.800   1.543
 5782TIP3    H117310   2.852   5.743   1.469
 5782TIP3    H217311   2.905   5.880   1.505
 5783TIP3   OH217312   5.206   6.667   1.084
 5783TIP3    H117313   5.142   6.671   1.155
 5783TIP3    H217314   5.189   6.745   1.032
 5784TIP3   OH217315   3.014   4.617   4.647
 5784TIP3    H117316   3.059   4.700   4.633
 5784TIP3    H217317   3.032   4.595   4.739
 5785TIP3   OH217318   5.511   1.650   0.996
 5785TIP3    H117319   5.502   1.599   1.077
 5785TIP3    H217320   5.422   1.658   0.963
 5786TIP3   OH217321   0.239   0.596   0.098
 5786TIP3    H117322   0.180   0.670   0.115
 5786TIP3    H217323   0.191   0.519   0.130
 5787TIP3   OH217324   0.154   2.923   2.299
 5787TIP3    H117325   0.074   2.871   2.308
 5787TIP3    H217326   0.136   2.983   2.228
 5788TIP3   OH217327   1.665   1.417   2.071
 5788TIP3    H117328   1.656   1.507   2.103
 5788TIP3    H217329   1.585   1.401   2.022
 5789TIP3   OH217330   6.203   1.217   0.436
 5789TIP3    H117331   6.162   1.245   0.518
 5789TIP3    H217332   6.295   1.206   0.457
 5790TIP3   OH217333   0.280   0.092   1.959
 5790TIP3    H117334   0.313   0.177   1.988
 5790TIP3    H217335   0.284   0.037   2.037
 5791TIP3   OH217336   0.396   5.282   5.232
 5791TIP3    H117337   0.390   5.377   5.237
 5791TIP3    H217338   0.380   5.252   5.322
 5792TIP3   OH217339   2.379   4.157   1.982
 5792TIP3    H117340   2.451   4.163   1.920
 5792TIP3    H217341   2.376   4.244   2.023
 5793TIP3   OH217342   6.669   2.975   0.295
 5793TIP3    H117343   6.637   3.045   0.353
 5793TIP3    H217344   6.761   2.996   0.281
 5794TIP3   OH217345   2.335   5.358   5.181
 5794TIP3    H117346   2.310   5.398   5.098
 5794TIP3    H217347   2.384   5.279   5.156
 5795TIP3   OH217348   0.711   3.857   3.060
 5795TIP3    H117349   0.693   3.831   3.150
 5795TIP3    H217350   0.681   3.783   3.007
 5796TIP3   OH217351   1.901   4.528   1.100
 5796TIP3    H117352   1.841   4.495   1.034
 5796TIP3    H217353   1.866   4.494   1.183
 5797TIP3   OH217354   2.032   3.604   4.139
 5797TIP3    H117355   2.043   3.650   4.056
 5797TIP3    H217356   2.122   3.584   4.167
 5798TIP3   OH217357   5.203   4.165   1.452
 5798TIP3    H117358   5.179   4.084   1.498
 5798TIP3    H217359   5.172   4.235   1.510
 5799TIP3   OH217360   6.694   2.458   5.693
 5799TIP3    H117361   6.605   2.430   5.713
 5799TIP3    H217362   6.702   2.545   5.733
 5800TIP3   OH217363   2.926   3.963   4.419
 5800TIP3    H117364   2.920   3.889   4.480
 5800TIP3    H217365   2.896   3.928   4.336
 5801TIP3   OH217366   5.745   3.216   0.443
 5801TIP3    H117367   5.752   3.121   0.453
 5801TIP3    H217368   5.803   3.237   0.370
 5802TIP3   OH217369   2.104   1.987   1.178
 5802TIP3    H117370   2.173   1.936   1.220
 5802TIP3    H217371   2.050   1.922   1.132
 5803TIP3   OH217372   1.124   1.438   0.471
 5803TIP3    H117373   1.161   1.517   0.432
 5803TIP3    H217374   1.118   1.458   0.564
 5804TIP3   OH217375   4.440   5.788   3.478
 5804TIP3    H117376   4.398   5.780   3.564
 5804TIP3    H217377   4.511   5.850   3.492
 5805TIP3   OH217378   6.925   3.291   4.796
 5805TIP3    H117379   6.942   3.210   4.750
 5805TIP3    H217380   6.841   3.322   4.762
 5806TIP3   OH217381   4.054   1.087   4.691
 5806TIP3    H117382   4.006   1.004   4.696
 5806TIP3    H217383   3.987   1.152   4.666
 5807TIP3   OH217384   5.554   4.331   5.142
 5807TIP3    H117385   5.548   4.274   5.065
 5807TIP3    H217386   5.648   4.346   5.153
 5808TIP3   OH217387   1.410   2.463   3.464
 5808TIP3    H117388   1.407   2.507   3.379
 5808TIP3    H217389   1.468   2.517   3.518
 5809TIP3   OH217390   1.111   0.262   0.166
 5809TIP3    H117391   1.123   0.231   0.076
 5809TIP3    H217392   1.092   0.356   0.156
 5810TIP3   OH217393   0.976   3.589   1.429
 5810TIP3    H117394   0.882   3.601   1.410
 5810TIP3    H217395   0.991   3.496   1.412
 5811TIP3   OH217396   6.287   6.153   3.960
 5811TIP3    H117397   6.266   6.174   3.869
 5811TIP3    H217398   6.223   6.087   3.985
 5812TIP3   OH217399   1.776   0.847   3.336
 5812TIP3    H117400   1.702   0.891   3.293
 5812TIP3    H217401   1.751   0.843   3.428
 5813TIP3   OH217402   6.651   2.738   2.022
 5813TIP3    H117403   6.669   2.691   2.103
 5813TIP3    H217404   6.620   2.671   1.961
 5814TIP3   OH217405   0.582   2.470   5.235
 5814TIP3    H117406   0.602   2.540   5.297
 5814TIP3    H217407   0.486   2.470   5.228
 5815TIP3   OH217408   7.207   3.622   1.617
 5815TIP3    H117409   7.130   3.680   1.623
 5815TIP3    H217410   7.265   3.652   1.687
 5816TIP3   OH217411   4.890   0.758   1.745
 5816TIP3    H117412   4.832   0.691   1.710
 5816TIP3    H217413   4.910   0.815   1.670
 5817TIP3   OH217414   0.620   1.482   5.099
 5817TIP3    H117415   0.547   1.484   5.036
 5817TIP3    H217416   0.578   1.487   5.184
 5818TIP3   OH217417   0.191   4.073   0.038
 5818TIP3    H117418   0.263   4.045   0.094
 5818TIP3    H217419   0.228   4.072  -0.051
 5819TIP3   OH217420   3.158   0.222   5.820
 5819TIP3    H117421   3.225   0.262   5.765
 5819TIP3    H217422   3.079   0.219   5.765
 5820TIP3   OH217423   1.551   3.278   0.625
 5820TIP3    H117424   1.478   3.294   0.686
 5820TIP3    H217425   1.530   3.195   0.583
 5821TIP3   OH217426   7.168   4.927   2.807
 5821TIP3    H117427   7.215   4.878   2.875
 5821TIP3    H217428   7.077   4.899   2.815
 5822TIP3   OH217429   3.887   0.491   0.838
 5822TIP3    H117430   3.859   0.478   0.748
 5822TIP3    H217431   3.885   0.403   0.877
 5823TIP3   OH217432   2.361   3.446   0.212
 5823TIP3    H117433   2.354   3.441   0.307
 5823TIP3    H217434   2.404   3.364   0.187
 5824TIP3   OH217435   6.869   2.560   5.082
 5824TIP3    H117436   6.851   2.593   4.994
 5824TIP3    H217437   6.918   2.631   5.124
 5825TIP3   OH217438   1.163   5.558   1.387
 5825TIP3    H117439   1.198   5.637   1.429
 5825TIP3    H217440   1.099   5.524   1.449
 5826TIP3   OH217441   4.859   5.916   4.410
 5826TIP3    H117442   4.857   5.874   4.495
 5826TIP3    H217443   4.888   5.847   4.350
 5827TIP3   OH217444   4.525   6.545   0.144
 5827TIP3    H117445   4.509   6.453   0.166
 5827TIP3    H217446   4.445   6.573   0.099
 5828TIP3   OH217447   1.198   5.076   1.367
 5828TIP3    H117448   1.215   5.061   1.460
 5828TIP3    H217449   1.121   5.132   1.365
 5829TIP3   OH217450   6.947   0.366   3.329
 5829TIP3    H117451   7.009   0.384   3.259
 5829TIP3    H217452   6.995   0.312   3.391
 5830TIP3   OH217453   1.220   5.600   0.976
 5830TIP3    H117454   1.146   5.659   0.994
 5830TIP3    H217455   1.278   5.652   0.921
 5831TIP3   OH217456   5.276   5.159   0.769
 5831TIP3    H117457   5.293   5.150   0.675
 5831TIP3    H217458   5.199   5.105   0.785
 5832TIP3   OH217459   0.760   3.363   5.340
 5832TIP3    H117460   0.827   3.295   5.338
 5832TIP3    H217461   0.794   3.429   5.400
 5833TIP3   OH217462   1.931   2.104   3.766
 5833TIP3    H117463   1.928   2.088   3.672
 5833TIP3    H217464   1.870   2.177   3.779
 5834TIP3   OH217465   1.177   1.462   0.744
 5834TIP3    H117466   1.200   1.370   0.728
 5834TIP3    H217467   1.093   1.459   0.788
 5835TIP3   OH217468   5.962   5.375   2.893
 5835TIP3    H117469   5.994   5.393   2.981
 5835TIP3    H217470   5.930   5.460   2.861
 5836TIP3   OH217471   0.943   1.307   4.081
 5836TIP3    H117472   0.945   1.278   4.173
 5836TIP3    H217473   0.889   1.386   4.083
 5837TIP3   OH217474   0.540   1.333   1.388
 5837TIP3    H117475   0.594   1.335   1.309
 5837TIP3    H217476   0.570   1.255   1.435
 5838TIP3   OH217477   4.912   5.697   3.360
 5838TIP3    H117478   4.899   5.788   3.333
 5838TIP3    H217479   4.834   5.652   3.330
 5839TIP3   OH217480   5.358   2.592   2.482
 5839TIP3    H117481   5.363   2.681   2.446
 5839TIP3    H217482   5.416   2.541   2.427
 5840TIP3   OH217483   6.435   2.204   0.694
 5840TIP3    H117484   6.367   2.137   0.701
 5840TIP3    H217485   6.404   2.274   0.752
 5841TIP3   OH217486   3.919   6.458   0.173
 5841TIP3    H117487   3.938   6.425   0.261
 5841TIP3    H217488   3.836   6.506   0.183
 5842TIP3   OH217489   1.657   6.619   4.778
 5842TIP3    H117490   1.601   6.542   4.771
 5842TIP3    H217491   1.725   6.606   4.711
 5843TIP3   OH217492   0.153   6.600   0.274
 5843TIP3    H117493   0.098   6.527   0.246
 5843TIP3    H217494   0.231   6.593   0.219
 5844TIP3   OH217495   1.208   5.501   0.072
 5844TIP3    H117496   1.148   5.465   0.006
 5844TIP3    H217497   1.248   5.577   0.029
 5845TIP3   OH217498   5.982   0.542   4.168
 5845TIP3    H117499   5.959   0.605   4.100
 5845TIP3    H217500   6.030   0.473   4.122
 5846TIP3   OH217501   6.776   4.489   2.377
 5846TIP3    H117502   6.791   4.560   2.440
 5846TIP3    H217503   6.695   4.513   2.332
 5847TIP3   OH217504   5.515   1.084   3.990
 5847TIP3    H117505   5.500   1.049   4.077
 5847TIP3    H217506   5.522   1.179   4.002
 5848TIP3   OH217507   6.017   1.890   2.503
 5848TIP3    H117508   6.109   1.905   2.480
 5848TIP3    H217509   5.977   1.858   2.423
 5849TIP3   OH217510   1.142   0.959   3.400
 5849TIP3    H117511   1.084   0.884   3.410
 5849TIP3    H217512   1.120   0.995   3.314
 5850TIP3   OH217513   6.719   6.017   0.607
 5850TIP3    H117514   6.658   5.944   0.613
 5850TIP3    H217515   6.701   6.069   0.686
 5851TIP3   OH217516   2.681   4.062   4.622
 5851TIP3    H117517   2.733   4.041   4.544
 5851TIP3    H217518   2.681   4.158   4.626
 5852TIP3   OH217519   1.423   2.582   3.219
 5852TIP3    H117520   1.356   2.584   3.151
 5852TIP3    H217521   1.480   2.656   3.199
 5853TIP3   OH217522   5.722   5.047   0.519
 5853TIP3    H117523   5.756   5.130   0.554
 5853TIP3    H217524   5.730   5.057   0.424
 5854TIP3   OH217525   3.450   3.254   1.681
 5854TIP3    H117526   3.481   3.170   1.714
 5854TIP3    H217527   3.381   3.231   1.619
 5855TIP3   OH217528   2.661   1.016   4.649
 5855TIP3    H117529   2.694   0.960   4.719
 5855TIP3    H217530   2.728   1.012   4.581
 5856TIP3   OH217531   4.898   0.369   2.755
 5856TIP3    H117532   4.851   0.435   2.806
 5856TIP3    H217533   4.967   0.338   2.814
 5857TIP3   OH217534   0.165   1.332   1.422
 5857TIP3    H117535   0.220   1.393   1.373
 5857TIP3    H217536   0.162   1.253   1.368
 5858TIP3   OH217537   2.975   2.218   4.910
 5858TIP3    H117538   3.043   2.282   4.931
 5858TIP3    H217539   2.960   2.171   4.991
 5859TIP3   OH217540   3.075   4.359   4.240
 5859TIP3    H117541   3.055   4.364   4.333
 5859TIP3    H217542   3.088   4.265   4.223
 5860TIP3   OH217543   4.278   1.871   5.676
 5860TIP3    H117544   4.275   1.833   5.588
 5860TIP3    H217545   4.361   1.919   5.678
 5861TIP3   OH217546   3.347   2.501   3.889
 5861TIP3    H117547   3.434   2.538   3.903
 5861TIP3    H217548   3.305   2.562   3.828
 5862TIP3   OH217549   4.790   0.703   5.136
 5862TIP3    H117550   4.811   0.779   5.082
 5862TIP3    H217551   4.821   0.628   5.084
 5863TIP3   OH217552   6.435   6.256   4.163
 5863TIP3    H117553   6.369   6.231   4.098
 5863TIP3    H217554   6.498   6.309   4.114
 5864TIP3   OH217555   0.376   6.454   1.351
 5864TIP3    H117556   0.427   6.499   1.284
 5864TIP3    H217557   0.440   6.408   1.404
 5865TIP3   OH217558   7.105   4.826   4.918
 5865TIP3    H117559   7.188   4.779   4.924
 5865TIP3    H217560   7.041   4.758   4.895
 5866TIP3   OH217561   6.930   0.495   3.871
 5866TIP3    H117562   6.875   0.456   3.802
 5866TIP3    H217563   7.019   0.467   3.849
 5867TIP3   OH217564   4.671   3.587   2.924
 5867TIP3    H117565   4.712   3.581   2.838
 5867TIP3    H217566   4.608   3.515   2.925
 5868TIP3   OH217567   1.230   6.612   2.475
 5868TIP3    H117568   1.248   6.613   2.569
 5868TIP3    H217569   1.163   6.679   2.463
 5869TIP3   OH217570   4.079   3.658   5.729
 5869TIP3    H117571   4.156   3.616   5.691
 5869TIP3    H217572   4.104   3.673   5.821
 5870TIP3   OH217573   2.631   1.273   0.243
 5870TIP3    H117574   2.601   1.265   0.333
 5870TIP3    H217575   2.551   1.270   0.191
 5871TIP3   OH217576   5.308   6.168   3.579
 5871TIP3    H117577   5.379   6.157   3.516
 5871TIP3    H217578   5.352   6.178   3.664
 5872TIP3   OH217579   5.221   1.419   5.680
 5872TIP3    H117580   5.185   1.364   5.610
 5872TIP3    H217581   5.306   1.447   5.647
 5873TIP3   OH217582   0.647   4.796   0.499
 5873TIP3    H117583   0.645   4.726   0.564
 5873TIP3    H217584   0.608   4.757   0.421
 5874TIP3   OH217585   0.632   4.751   1.073
 5874TIP3    H117586   0.551   4.743   1.022
 5874TIP3    H217587   0.698   4.777   1.008
 5875TIP3   OH217588   1.504   2.338   5.637
 5875TIP3    H117589   1.416   2.301   5.642
 5875TIP3    H217590   1.534   2.317   5.548
 5876TIP3   OH217591   2.405   0.203   5.361
 5876TIP3    H117592   2.438   0.167   5.443
 5876TIP3    H217593   2.340   0.140   5.332
 5877TIP3   OH217594   5.337   2.426   5.226
 5877TIP3    H117595   5.269   2.474   5.273
 5877TIP3    H217596   5.406   2.412   5.292
 5878TIP3   OH217597   1.405   6.794   3.645
 5878TIP3    H117598   1.395   6.731   3.574
 5878TIP3    H217599   1.440   6.742   3.718
 5879TIP3   OH217600   2.423   6.574   0.679
 5879TIP3    H117601   2.373   6.645   0.639
 5879TIP3    H217602   2.490   6.619   0.731
 5880TIP3   OH217603   4.500   3.078   1.622
 5880TIP3    H117604   4.538   2.990   1.620
 5880TIP3    H217605   4.406   3.063   1.626
 5881TIP3   OH217606   4.999   3.970   1.548
 5881TIP3    H117607   4.999   3.944   1.456
 5881TIP3    H217608   5.002   3.887   1.596
 5882TIP3   OH217609   5.620   3.451   1.013
 5882TIP3    H117610   5.687   3.445   0.944
 5882TIP3    H217611   5.581   3.537   1.001
 5883TIP3   OH217612   5.052   3.734   5.214
 5883TIP3    H117613   5.034   3.816   5.169
 5883TIP3    H217614   5.138   3.707   5.181
 5884TIP3   OH217615   4.553   2.332   2.495
 5884TIP3    H117616   4.559   2.427   2.496
 5884TIP3    H217617   4.603   2.305   2.418
 5885TIP3   OH217618   2.978   3.302   5.116
 5885TIP3    H117619   3.017   3.274   5.034
 5885TIP3    H217620   2.885   3.314   5.097
 5886TIP3   OH217621   1.704   2.068   1.594
 5886TIP3    H117622   1.736   1.997   1.538
 5886TIP3    H217623   1.657   2.125   1.534
 5887TIP3   OH217624   3.074   1.183   5.456
 5887TIP3    H117625   3.071   1.173   5.551
 5887TIP3    H217626   3.151   1.133   5.429
 5888TIP3   OH217627   1.778   1.416   1.010
 5888TIP3    H117628   1.767   1.325   1.037
 5888TIP3    H217629   1.871   1.423   0.988
 5889TIP3   OH217630   1.249   4.997   1.637
 5889TIP3    H117631   1.195   4.927   1.674
 5889TIP3    H217632   1.320   5.009   1.701
 5890TIP3   OH217633   1.858   4.886   1.683
 5890TIP3    H117634   1.916   4.916   1.612
 5890TIP3    H217635   1.795   4.829   1.639
 5891TIP3   OH217636   6.596   3.140   0.530
 5891TIP3    H117637   6.513   3.186   0.543
 5891TIP3    H217638   6.651   3.204   0.483
 5892TIP3   OH217639   3.518   5.370   1.246
 5892TIP3    H117640   3.427   5.384   1.273
 5892TIP3    H217641   3.557   5.318   1.317
 5893TIP3   OH217642   6.509   0.319   3.964
 5893TIP3    H117643   6.499   0.414   3.959
 5893TIP3    H217644   6.461   0.285   3.888
 5894TIP3   OH217645   2.841   3.655   5.712
 5894TIP3    H117646   2.821   3.709   5.636
 5894TIP3    H217647   2.793   3.573   5.698
 5895TIP3   OH217648   6.040   5.352   2.480
 5895TIP3    H117649   5.950   5.357   2.447
 5895TIP3    H217650   6.047   5.426   2.540
 5896TIP3   OH217651   0.632   0.162   4.221
 5896TIP3    H117652   0.658   0.249   4.191
 5896TIP3    H217653   0.686   0.146   4.298
 5897TIP3   OH217654   0.090   0.815   2.629
 5897TIP3    H117655   0.158   0.748   2.628
 5897TIP3    H217656   0.007   0.766   2.630
 5898TIP3   OH217657   5.321   4.169   4.147
 5898TIP3    H117658   5.235   4.151   4.110
 5898TIP3    H217659   5.335   4.098   4.210
 5899TIP3   OH217660   4.603   0.578   0.245
 5899TIP3    H117661   4.663   0.514   0.285
 5899TIP3    H217662   4.586   0.641   0.315
 5900TIP3   OH217663   1.041   0.919   0.920
 5900TIP3    H117664   1.030   0.954   0.831
 5900TIP3    H217665   0.961   0.869   0.936
 5901TIP3   OH217666   3.613   1.653   5.206
 5901TIP3    H117667   3.622   1.563   5.176
 5901TIP3    H217668   3.595   1.645   5.300
 5902TIP3   OH217669   0.604   0.057   0.081
 5902TIP3    H117670   0.679   0.052   0.141
 5902TIP3    H217671   0.638   0.101   0.004
 5903TIP3   OH217672   2.208   1.753   2.270
 5903TIP3    H117673   2.176   1.827   2.321
 5903TIP3    H217674   2.131   1.697   2.258
 5904TIP3   OH217675   3.890   1.010   1.243
 5904TIP3    H117676   3.824   0.981   1.305
 5904TIP3    H217677   3.847   1.006   1.158
 5905TIP3   OH217678   6.052   6.562   1.366
 5905TIP3    H117679   6.058   6.493   1.300
 5905TIP3    H217680   6.106   6.531   1.439
 5906TIP3   OH217681   4.257   1.032   5.190
 5906TIP3    H117682   4.344   1.008   5.223
 5906TIP3    H217683   4.257   1.128   5.191
 5907TIP3   OH217684   5.704   3.953   2.480
 5907TIP3    H117685   5.790   3.956   2.522
 5907TIP3    H217686   5.663   3.874   2.516
 5908TIP3   OH217687   3.872   1.094   1.648
 5908TIP3    H117688   3.961   1.062   1.662
 5908TIP3    H217689   3.877   1.143   1.566
 5909TIP3   OH217690   1.655   5.440   2.454
 5909TIP3    H117691   1.738   5.483   2.435
 5909TIP3    H217692   1.599   5.459   2.379
 5910TIP3   OH217693   5.648   5.005   3.930
 5910TIP3    H117694   5.561   4.982   3.896
 5910TIP3    H217695   5.695   5.040   3.854
 5911TIP3   OH217696   5.517   2.983   5.123
 5911TIP3    H117697   5.446   2.919   5.114
 5911TIP3    H217698   5.478   3.066   5.093
 5912TIP3   OH217699   7.120   5.725   1.038
 5912TIP3    H117700   7.062   5.652   1.059
 5912TIP3    H217701   7.097   5.749   0.948
 5913TIP3   OH217702   3.609   0.439   5.477
 5913TIP3    H117703   3.614   0.534   5.485
 5913TIP3    H217704   3.636   0.407   5.563
 5914TIP3   OH217705   3.070   6.826   2.114
 5914TIP3    H117706   3.048   6.760   2.048
 5914TIP3    H217707   3.092   6.776   2.193
 5915TIP3   OH217708  -0.051   1.512   1.353
 5915TIP3    H117709   0.026   1.474   1.395
 5915TIP3    H217710  -0.029   1.513   1.259
 5916TIP3   OH217711   6.139   5.820   2.464
 5916TIP3    H117712   6.224   5.863   2.454
 5916TIP3    H217713   6.131   5.765   2.386
 5917TIP3   OH217714   6.183   0.725   3.456
 5917TIP3    H117715   6.092   0.755   3.463
 5917TIP3    H217716   6.198   0.720   3.362
 5918TIP3   OH217717   5.327   2.762   5.193
 5918TIP3    H117718   5.319   2.679   5.147
 5918TIP3    H217719   5.236   2.790   5.207
 5919TIP3   OH217720   6.285  -0.041   2.123
 5919TIP3    H117721   6.355   0.023   2.134
 5919TIP3    H217722   6.276  -0.051   2.028
 5920TIP3   OH217723   2.282   5.724   2.059
 5920TIP3    H117724   2.349   5.665   2.095
 5920TIP3    H217725   2.310   5.738   1.968
 5921TIP3   OH217726   1.631   6.545   4.308
 5921TIP3    H117727   1.600   6.582   4.225
 5921TIP3    H217728   1.551   6.534   4.360
 5922TIP3   OH217729   3.016   1.891   1.743
 5922TIP3    H117730   3.091   1.950   1.739
 5922TIP3    H217731   2.952   1.937   1.798
 5923TIP3   OH217732   0.180   2.331   1.847
 5923TIP3    H117733   0.137   2.358   1.928
 5923TIP3    H217734   0.228   2.251   1.871
 5924TIP3   OH217735   0.884   1.526   2.849
 5924TIP3    H117736   0.962   1.577   2.870
 5924TIP3    H217737   0.916   1.453   2.796
 5925TIP3   OH217738   5.770   1.067   3.853
 5925TIP3    H117739   5.681   1.073   3.887
 5925TIP3    H217740   5.770   0.988   3.799
 5926TIP3   OH217741   1.567   3.884   4.354
 5926TIP3    H117742   1.485   3.921   4.320
 5926TIP3    H217743   1.605   3.955   4.405
 5927TIP3   OH217744   5.557   2.000   0.887
 5927TIP3    H117745   5.540   2.093   0.903
 5927TIP3    H217746   5.559   1.961   0.974
 5928TIP3   OH217747   0.931   3.223   2.254
 5928TIP3    H117748   0.883   3.156   2.302
 5928TIP3    H217749   0.920   3.303   2.307
 5929TIP3   OH217750   4.129   3.288   0.843
 5929TIP3    H117751   4.162   3.199   0.848
 5929TIP3    H217752   4.207   3.342   0.828
 5930TIP3   OH217753   3.182   0.753   4.361
 5930TIP3    H117754   3.137   0.795   4.435
 5930TIP3    H217755   3.150   0.799   4.284
 5931TIP3   OH217756   7.078   5.401   3.123
 5931TIP3    H117757   7.121   5.393   3.208
 5931TIP3    H217758   7.147   5.378   3.059
 5932TIP3   OH217759   3.979   5.831   5.545
 5932TIP3    H117760   4.025   5.915   5.536
 5932TIP3    H217761   4.009   5.796   5.629
 5933TIP3   OH217762   5.338   2.557   1.804
 5933TIP3    H117763   5.363   2.650   1.805
 5933TIP3    H217764   5.328   2.534   1.896
 5934TIP3   OH217765   5.411   6.188   2.921
 5934TIP3    H117766   5.363   6.132   2.860
 5934TIP3    H217767   5.435   6.265   2.870
 5935TIP3   OH217768   0.087   0.729   4.968
 5935TIP3    H117769   0.152   0.659   4.979
 5935TIP3    H217770   0.039   0.704   4.889
 5936TIP3   OH217771   1.526   2.527   2.914
 5936TIP3    H117772   1.511   2.601   2.854
 5936TIP3    H217773   1.599   2.556   2.969
 5937TIP3   OH217774   6.516   3.015   2.564
 5937TIP3    H117775   6.458   2.943   2.591
 5937TIP3    H217776   6.584   2.972   2.513
 5938TIP3   OH217777   0.282   1.490   3.869
 5938TIP3    H117778   0.361   1.526   3.910
 5938TIP3    H217779   0.210   1.537   3.911
 5939TIP3   OH217780   1.110   4.990   1.019
 5939TIP3    H117781   1.059   5.070   1.011
 5939TIP3    H217782   1.197   5.019   1.046
 5940TIP3   OH217783   3.498   1.776   2.529
 5940TIP3    H117784   3.535   1.757   2.443
 5940TIP3    H217785   3.412   1.734   2.527
 5941TIP3   OH217786   1.001   2.293   2.594
 5941TIP3    H117787   1.083   2.341   2.611
 5941TIP3    H217788   1.024   2.201   2.608
 5942TIP3   OH217789   2.478   2.633   2.596
 5942TIP3    H117790   2.469   2.713   2.648
 5942TIP3    H217791   2.405   2.578   2.624
 5943TIP3   OH217792   6.189   3.026   4.604
 5943TIP3    H117793   6.143   3.032   4.688
 5943TIP3    H217794   6.123   3.049   4.539
 5944TIP3   OH217795   1.361   0.004   0.482
 5944TIP3    H117796   1.354  -0.004   0.577
 5944TIP3    H217797   1.442   0.052   0.468
 5945TIP3   OH217798   3.397   4.166   4.687
 5945TIP3    H117799   3.325   4.195   4.743
 5945TIP3    H217800   3.354   4.114   4.619
 5946TIP3   OH217801   3.400   5.233   1.502
 5946TIP3    H117802   3.379   5.236   1.595
 5946TIP3    H217803   3.353   5.307   1.464
 5947TIP3   OH217804   2.522   0.033   1.823
 5947TIP3    H117805   2.513  -0.045   1.768
 5947TIP3    H217806   2.441   0.082   1.807
 5948TIP3   OH217807   5.473   4.830   2.121
 5948TIP3    H117808   5.398   4.874   2.081
 5948TIP3    H217809   5.485   4.750   2.070
 5949TIP3   OH217810   6.868   0.393   5.434
 5949TIP3    H117811   6.822   0.465   5.479
 5949TIP3    H217812   6.949   0.382   5.483
 5950TIP3   OH217813   1.294   3.606   5.123
 5950TIP3    H117814   1.256   3.596   5.036
 5950TIP3    H217815   1.285   3.520   5.164
 5951TIP3   OH217816   6.780   4.680   1.642
 5951TIP3    H117817   6.690   4.646   1.642
 5951TIP3    H217818   6.834   4.602   1.623
 5952TIP3   OH217819   2.239   1.054   3.414
 5952TIP3    H117820   2.251   1.118   3.484
 5952TIP3    H217821   2.164   1.086   3.363
 5953TIP3   OH217822   2.961   3.098   2.421
 5953TIP3    H117823   2.953   3.003   2.406
 5953TIP3    H217824   2.871   3.127   2.435
 5954TIP3   OH217825   3.056   2.710   3.433
 5954TIP3    H117826   3.060   2.629   3.383
 5954TIP3    H217827   3.003   2.688   3.510
 5955TIP3   OH217828   6.723   4.244   2.279
 5955TIP3    H117829   6.693   4.235   2.188
 5955TIP3    H217830   6.720   4.338   2.296
 5956TIP3   OH217831   6.248   2.087   4.958
 5956TIP3    H117832   6.254   2.120   4.869
 5956TIP3    H217833   6.253   2.165   5.013
 5957TIP3   OH217834   1.504   5.997   1.770
 5957TIP3    H117835   1.572   5.976   1.834
 5957TIP3    H217836   1.432   5.937   1.790
 5958TIP3   OH217837   4.754   4.785   1.878
 5958TIP3    H117838   4.773   4.837   1.956
 5958TIP3    H217839   4.782   4.696   1.901
 5959TIP3   OH217840   6.913   0.540   1.980
 5959TIP3    H117841   6.886   0.453   1.952
 5959TIP3    H217842   6.864   0.600   1.924
 5960TIP3   OH217843   2.790   4.343   2.924
 5960TIP3    H117844   2.729   4.417   2.918
 5960TIP3    H217845   2.876   4.382   2.911
 5961TIP3   OH217846   7.029   5.220   5.676
 5961TIP3    H117847   6.959   5.245   5.616
 5961TIP3    H217848   7.033   5.292   5.740
 5962TIP3   OH217849   3.037   4.669   4.325
 5962TIP3    H117850   3.038   4.605   4.396
 5962TIP3    H217851   3.113   4.646   4.271
 5963TIP3   OH217852   2.287   1.045   5.070
 5963TIP3    H117853   2.271   0.967   5.123
 5963TIP3    H217854   2.258   1.118   5.125
 5964TIP3   OH217855   2.324   0.761   4.848
 5964TIP3    H117856   2.230   0.770   4.836
 5964TIP3    H217857   2.360   0.848   4.828
 5965TIP3   OH217858   3.746   5.355   3.737
 5965TIP3    H117859   3.710   5.344   3.649
 5965TIP3    H217860   3.828   5.403   3.723
 5966TIP3   OH217861   0.588   6.037   3.079
 5966TIP3    H117862   0.621   5.951   3.102
 5966TIP3    H217863   0.494   6.024   3.064
 5967TIP3   OH217864   2.220   2.283   1.576
 5967TIP3    H117865   2.280   2.284   1.501
 5967TIP3    H217866   2.134   2.269   1.537
 5968TIP3   OH217867   0.747   3.136   5.070
 5968TIP3    H117868   0.725   3.148   5.163
 5968TIP3    H217869   0.814   3.067   5.071
 5969TIP3   OH217870   3.537   5.380   3.452
 5969TIP3    H117871   3.494   5.322   3.514
 5969TIP3    H217872   3.625   5.343   3.442
 5970TIP3   OH217873   5.889   0.924   0.754
 5970TIP3    H117874   5.838   0.885   0.683
 5970TIP3    H217875   5.930   1.001   0.715
 5971TIP3   OH217876   1.948   2.433   0.649
 5971TIP3    H117877   1.964   2.414   0.557
 5971TIP3    H217878   2.018   2.494   0.673
 5972TIP3   OH217879   7.141   2.418   2.664
 5972TIP3    H117880   7.104   2.334   2.692
 5972TIP3    H217881   7.126   2.477   2.738
 5973TIP3   OH217882   5.450   6.224   3.212
 5973TIP3    H117883   5.405   6.297   3.254
 5973TIP3    H217884   5.451   6.247   3.119
 5974TIP3   OH217885   5.970   2.937   1.266
 5974TIP3    H117886   6.011   2.907   1.184
 5974TIP3    H217887   5.941   3.026   1.247
 5975TIP3   OH217888   5.503   0.427   5.792
 5975TIP3    H117889   5.534   0.478   5.867
 5975TIP3    H217890   5.431   0.374   5.826
 5976TIP3   OH217891   4.072   4.569   3.982
 5976TIP3    H117892   3.988   4.614   3.983
 5976TIP3    H217893   4.116   4.597   4.062
 5977TIP3   OH217894   1.246   3.509   3.957
 5977TIP3    H117895   1.264   3.603   3.951
 5977TIP3    H217896   1.162   3.498   3.912
 5978TIP3   OH217897   6.369   2.415   0.864
 5978TIP3    H117898   6.349   2.507   0.845
 5978TIP3    H217899   6.285   2.376   0.887
 5979TIP3   OH217900   4.555   5.467   2.431
 5979TIP3    H117901   4.500   5.520   2.373
 5979TIP3    H217902   4.597   5.530   2.489
 5980TIP3   OH217903   5.423   2.245   0.882
 5980TIP3    H117904   5.407   2.337   0.861
 5980TIP3    H217905   5.351   2.221   0.940
 5981TIP3   OH217906   1.339   4.564   5.688
 5981TIP3    H117907   1.274   4.616   5.736
 5981TIP3    H217908   1.288   4.520   5.621
 5982TIP3   OH217909   4.620   4.811   5.657
 5982TIP3    H117910   4.712   4.819   5.681
 5982TIP3    H217911   4.613   4.855   5.573
 5983TIP3   OH217912   0.769   6.476   2.593
 5983TIP3    H117913   0.756   6.394   2.546
 5983TIP3    H217914   0.842   6.458   2.652
 5984TIP3   OH217915   1.553   3.944   3.961
 5984TIP3    H117916   1.562   3.877   4.029
 5984TIP3    H217917   1.472   3.921   3.915
 5985TIP3   OH217918   6.190   6.566   4.846
 5985TIP3    H117919   6.180   6.579   4.940
 5985TIP3    H217920   6.196   6.654   4.810
 5986TIP3   OH217921   1.320   4.499   3.706
 5986TIP3    H117922   1.231   4.521   3.679
 5986TIP3    H217923   1.362   4.465   3.627
 5987TIP3   OH217924   2.183   6.276   1.386
 5987TIP3    H117925   2.210   6.345   1.326
 5987TIP3    H217926   2.263   6.227   1.403
 5988TIP3   OH217927   2.590   0.563   5.906
 5988TIP3    H117928   2.629   0.485   5.864
 5988TIP3    H217929   2.547   0.609   5.834
 5989TIP3   OH217930   1.645   3.746   3.696
 5989TIP3    H117931   1.584   3.676   3.674
 5989TIP3    H217932   1.676   3.724   3.783
 5990TIP3   OH217933   3.270   4.159   4.974
 5990TIP3    H117934   3.365   4.163   4.970
 5990TIP3    H217935   3.251   4.085   5.032
 5991TIP3   OH217936   5.574   0.497   1.121
 5991TIP3    H117937   5.576   0.479   1.027
 5991TIP3    H217938   5.663   0.525   1.142
 5992TIP3   OH217939   7.117   0.097   3.728
 5992TIP3    H117940   7.080   0.021   3.682
 5992TIP3    H217941   7.199   0.065   3.765
 5993TIP3   OH217942   6.107   1.173   0.720
 5993TIP3    H117943   6.172   1.108   0.693
 5993TIP3    H217944   6.132   1.196   0.809
 5994TIP3   OH217945   3.863   6.725   4.782
 5994TIP3    H117946   3.904   6.784   4.845
 5994TIP3    H217947   3.788   6.688   4.828
 5995TIP3   OH217948   5.021   0.515   4.280
 5995TIP3    H117949   4.987   0.425   4.278
 5995TIP3    H217950   4.976   0.558   4.206
 5996TIP3   OH217951   4.947   2.224   3.987
 5996TIP3    H117952   4.973   2.135   4.011
 5996TIP3    H217953   4.989   2.240   3.902
 5997TIP3   OH217954   5.340   4.754   0.238
 5997TIP3    H117955   5.401   4.754   0.312
 5997TIP3    H217956   5.270   4.814   0.264
 5998TIP3   OH217957   3.330   3.681   1.246
 5998TIP3    H117958   3.400   3.714   1.303
 5998TIP3    H217959   3.315   3.591   1.277
 5999TIP3   OH217960   4.186   6.756   0.720
 5999TIP3    H117961   4.093   6.763   0.740
 5999TIP3    H217962   4.219   6.689   0.780
 6000TIP3   OH217963   2.965   6.160   4.112
 6000TIP3    H117964   2.890   6.111   4.145
 6000TIP3    H217965   2.935   6.195   4.028
 6001TIP3   OH217966   5.386   0.401   3.361
 6001TIP3    H117967   5.428   0.416   3.446
 6001TIP3    H217968   5.374   0.489   3.325
 6002TIP3   OH217969   5.934   0.596   3.834
 6002TIP3    H117970   6.029   0.588   3.839
 6002TIP3    H217971   5.912   0.665   3.898
 6003TIP3   OH217972   1.168   2.443   3.574
 6003TIP3    H117973   1.136   2.354   3.562
 6003TIP3    H217974   1.243   2.449   3.515
 6004TIP3   OH217975   2.496   5.532   2.221
 6004TIP3    H117976   2.422   5.471   2.221
 6004TIP3    H217977   2.566   5.485   2.267
 6005TIP3   OH217978   2.888   3.704   0.017
 6005TIP3    H117979   2.846   3.775   0.065
 6005TIP3    H217980   2.887   3.733  -0.074
 6006TIP3   OH217981   2.256   1.040   5.613
 6006TIP3    H117982   2.308   0.978   5.563
 6006TIP3    H217983   2.236   1.110   5.551
 6007TIP3   OH217984   0.426   1.019   1.126
 6007TIP3    H117985   0.415   1.114   1.129
 6007TIP3    H217986   0.356   0.986   1.183
 6008TIP3   OH217987   5.529   4.975   5.225
 6008TIP3    H117988   5.458   4.938   5.278
 6008TIP3    H217989   5.543   4.910   5.156
 6009TIP3   OH217990   7.110   2.986   4.985
 6009TIP3    H117991   7.106   3.075   5.019
 6009TIP3    H217992   7.158   2.993   4.902
 6010TIP3   OH217993   5.156   4.741   2.776
 6010TIP3    H117994   5.061   4.751   2.783
 6010TIP3    H217995   5.189   4.760   2.863
 6011TIP3   OH217996   1.027   5.008   2.804
 6011TIP3    H117997   1.086   4.990   2.878
 6011TIP3    H217998   0.945   4.965   2.828
 6012TIP3   OH217999   5.524   5.253   4.376
 6012TIP3    H118000   5.443   5.264   4.326
 6012TIP3    H218001   5.501   5.279   4.465
 6013TIP3   OH218002   0.818   2.012   5.113
 6013TIP3    H118003   0.851   1.998   5.024
 6013TIP3    H218004   0.832   1.928   5.157
 6014TIP3   OH218005   5.964   0.453   4.439
 6014TIP3    H118006   5.973   0.504   4.359
 6014TIP3    H218007   5.898   0.499   4.490
 6015TIP3   OH218008   6.836   4.387   3.870
 6015TIP3    H118009   6.810   4.479   3.860
 6015TIP3    H218010   6.788   4.340   3.802
 6016TIP3   OH218011   3.414   2.088   0.859
 6016TIP3    H118012   3.501   2.057   0.833
 6016TIP3    H218013   3.373   2.115   0.776
 6017TIP3   OH218014   5.599   3.332   3.378
 6017TIP3    H118015   5.672   3.281   3.342
 6017TIP3    H218016   5.642   3.404   3.425
 6018TIP3   OH218017   3.596   6.713   2.143
 6018TIP3    H118018   3.692   6.722   2.143
 6018TIP3    H218019   3.580   6.624   2.173
 6019TIP3   OH218020   5.277   2.490   5.663
 6019TIP3    H118021   5.326   2.551   5.608
 6019TIP3    H218022   5.261   2.538   5.745
 6020TIP3   OH218023   4.322   5.752   2.508
 6020TIP3    H118024   4.358   5.712   2.428
 6020TIP3    H218025   4.321   5.680   2.572
 6021TIP3   OH218026   2.138   1.093   0.436
 6021TIP3    H118027   2.124   1.006   0.473
 6021TIP3    H218028   2.050   1.124   0.414
 6022TIP3   OH218029   5.361   5.330   3.939
 6022TIP3    H118030   5.312   5.282   4.007
 6022TIP3    H218031   5.443   5.355   3.982
 6023TIP3   OH218032   0.943   5.892   3.691
 6023TIP3    H118033   0.848   5.894   3.698
 6023TIP3    H218034   0.974   5.898   3.781
 6024TIP3   OH218035   0.567   0.669   2.572
 6024TIP3    H118036   0.573   0.648   2.665
 6024TIP3    H218037   0.617   0.751   2.563
 6025TIP3   OH218038   4.772   1.087   4.224
 6025TIP3    H118039   4.783   1.030   4.300
 6025TIP3    H218040   4.734   1.168   4.259
 6026TIP3   OH218041   0.801   1.447   0.092
 6026TIP3    H118042   0.856   1.496   0.154
 6026TIP3    H218043   0.827   1.480   0.006
 6027TIP3   OH218044   2.667   4.617   2.437
 6027TIP3    H118045   2.733   4.647   2.499
 6027TIP3    H218046   2.614   4.555   2.488
 6028TIP3   OH218047   5.289   1.740   2.833
 6028TIP3    H118048   5.313   1.756   2.924
 6028TIP3    H218049   5.308   1.823   2.789
 6029TIP3   OH218050   6.997   2.959   5.497
 6029TIP3    H118051   6.938   2.886   5.475
 6029TIP3    H218052   6.983   3.022   5.426
 6030TIP3   OH218053   0.336   2.161   5.208
 6030TIP3    H118054   0.397   2.096   5.243
 6030TIP3    H218055   0.379   2.195   5.130
 6031TIP3   OH218056   3.544   2.786   2.451
 6031TIP3    H118057   3.470   2.822   2.499
 6031TIP3    H218058   3.614   2.850   2.462
 6032TIP3   OH218059   3.813   2.638   4.419
 6032TIP3    H118060   3.900   2.677   4.406
 6032TIP3    H218061   3.825   2.576   4.490
 6033TIP3   OH218062   5.807   0.123   2.630
 6033TIP3    H118063   5.830   0.076   2.550
 6033TIP3    H218064   5.812   0.216   2.606
 6034TIP3   OH218065   1.601   1.980   4.520
 6034TIP3    H118066   1.647   1.896   4.521
 6034TIP3    H218067   1.670   2.045   4.520
 6035TIP3   OH218068   7.061   1.455   5.447
 6035TIP3    H118069   7.122   1.437   5.519
 6035TIP3    H218070   7.036   1.547   5.460
 6036TIP3   OH218071   2.105   0.380   0.134
 6036TIP3    H118072   2.186   0.364   0.085
 6036TIP3    H218073   2.102   0.475   0.145
 6037TIP3   OH218074   6.512   1.155   2.339
 6037TIP3    H118075   6.480   1.078   2.292
 6037TIP3    H218076   6.592   1.125   2.382
 6038TIP3   OH218077   3.882   1.009   2.184
 6038TIP3    H118078   3.878   0.939   2.249
 6038TIP3    H218079   3.795   1.048   2.185
 6039TIP3   OH218080   2.931   1.206   2.872
 6039TIP3    H118081   3.006   1.264   2.861
 6039TIP3    H218082   2.964   1.119   2.849
 6040TIP3   OH218083   2.133   2.026   5.835
 6040TIP3    H118084   2.153   1.948   5.888
 6040TIP3    H218085   2.101   2.090   5.899
 6041TIP3   OH218086   2.114   6.136   4.992
 6041TIP3    H118087   2.121   6.042   4.979
 6041TIP3    H218088   2.183   6.157   5.056
 6042TIP3   OH218089   0.117   2.901   4.518
 6042TIP3    H118090   0.170   2.885   4.441
 6042TIP3    H218091   0.103   2.814   4.556
 6043TIP3   OH218092   0.365   5.692   1.843
 6043TIP3    H118093   0.367   5.633   1.768
 6043TIP3    H218094   0.394   5.776   1.807
 6044TIP3   OH218095   6.298   2.096   2.898
 6044TIP3    H118096   6.356   2.075   2.825
 6044TIP3    H218097   6.334   2.047   2.972
 6045TIP3   OH218098   0.100   6.322   3.619
 6045TIP3    H118099   0.057   6.245   3.582
 6045TIP3    H218100   0.143   6.291   3.699
 6046TIP3   OH218101   0.682   5.772   1.018
 6046TIP3    H118102   0.767   5.747   0.982
 6046TIP3    H218103   0.638   5.817   0.945
 6047TIP3   OH218104   2.063   0.151   2.184
 6047TIP3    H118105   2.096   0.063   2.167
 6047TIP3    H218106   2.002   0.141   2.257
 6048TIP3   OH218107   3.911   3.486   5.226
 6048TIP3    H118108   3.891   3.433   5.303
 6048TIP3    H218109   3.831   3.485   5.174
 6049TIP3   OH218110   4.007   1.736   4.278
 6049TIP3    H118111   4.081   1.679   4.258
 6049TIP3    H218112   3.963   1.749   4.194
 6050TIP3   OH218113   0.784   4.202   5.082
 6050TIP3    H118114   0.821   4.190   5.169
 6050TIP3    H218115   0.749   4.291   5.083
 6051TIP3   OH218116   5.839   3.131   5.009
 6051TIP3    H118117   5.917   3.107   4.960
 6051TIP3    H218118   5.768   3.082   4.968
 6052TIP3   OH218119   4.609   5.517   1.719
 6052TIP3    H118120   4.658   5.541   1.641
 6052TIP3    H218121   4.519   5.506   1.689
 6053TIP3   OH218122   6.650   2.126   2.935
 6053TIP3    H118123   6.627   2.132   2.842
 6053TIP3    H218124   6.632   2.213   2.970
 6054TIP3   OH218125   6.495   0.571   1.723
 6054TIP3    H118126   6.501   0.560   1.628
 6054TIP3    H218127   6.541   0.496   1.759
 6055TIP3   OH218128   1.748   1.117   1.507
 6055TIP3    H118129   1.727   1.210   1.500
 6055TIP3    H218130   1.824   1.114   1.565
 6056TIP3   OH218131   3.917   4.837   4.076
 6056TIP3    H118132   3.824   4.830   4.052
 6056TIP3    H218133   3.917   4.837   4.171
 6057TIP3   OH218134   5.774   5.886   4.230
 6057TIP3    H118135   5.804   5.965   4.185
 6057TIP3    H218136   5.681   5.880   4.209
 6058TIP3   OH218137   4.137   4.010   1.916
 6058TIP3    H118138   4.101   3.923   1.899
 6058TIP3    H218139   4.061   4.066   1.927
 6059TIP3   OH218140   5.873   3.352   0.913
 6059TIP3    H118141   5.943   3.308   0.962
 6059TIP3    H218142   5.911   3.436   0.887
 6060TIP3   OH218143   3.165   1.854   4.090
 6060TIP3    H118144   3.132   1.768   4.067
 6060TIP3    H218145   3.096   1.915   4.062
 6061TIP3   OH218146   6.464   3.653   3.218
 6061TIP3    H118147   6.544   3.604   3.200
 6061TIP3    H218148   6.402   3.625   3.151
 6062TIP3   OH218149   6.131   5.985   0.308
 6062TIP3    H118150   6.176   5.991   0.223
 6062TIP3    H218151   6.172   6.054   0.360
 6063TIP3   OH218152   2.848   2.268   3.316
 6063TIP3    H118153   2.891   2.214   3.250
 6063TIP3    H218154   2.758   2.236   3.318
 6064TIP3   OH218155   5.354   1.017   4.750
 6064TIP3    H118156   5.412   1.042   4.679
 6064TIP3    H218157   5.404   1.033   4.830
 6065TIP3   OH218158   2.692   5.662   4.066
 6065TIP3    H118159   2.766   5.623   4.113
 6065TIP3    H218160   2.674   5.600   3.995
 6066TIP3   OH218161   5.744   6.256   5.481
 6066TIP3    H118162   5.791   6.174   5.464
 6066TIP3    H218163   5.809   6.311   5.526
 6067TIP3   OH218164   2.111   5.639   2.251
 6067TIP3    H118165   2.167   5.638   2.173
 6067TIP3    H218166   2.170   5.661   2.322
 6068TIP3   OH218167   3.510   3.115   4.509
 6068TIP3    H118168   3.574   3.122   4.438
 6068TIP3    H218169   3.562   3.124   4.588
 6069TIP3   OH218170   0.500   6.652   4.350
 6069TIP3    H118171   0.447   6.696   4.417
 6069TIP3    H218172   0.441   6.639   4.276
 6070TIP3   OH218173   5.486   2.017   0.356
 6070TIP3    H118174   5.425   2.090   0.349
 6070TIP3    H218175   5.514   2.000   0.267
 6071TIP3   OH218176   5.841   6.184   4.432
 6071TIP3    H118177   5.802   6.251   4.375
 6071TIP3    H218178   5.935   6.190   4.416
 6072TIP3   OH218179   6.879   3.670   2.936
 6072TIP3    H118180   6.876   3.741   2.872
 6072TIP3    H218181   6.953   3.692   2.993
 6073TIP3   OH218182   5.111   5.639   4.172
 6073TIP3    H118183   5.184   5.693   4.201
 6073TIP3    H218184   5.129   5.622   4.079
 6074TIP3   OH218185   4.704   3.440   4.334
 6074TIP3    H118186   4.717   3.409   4.423
 6074TIP3    H218187   4.723   3.364   4.279
 6075TIP3   OH218188   4.495   1.707   2.374
 6075TIP3    H118189   4.553   1.651   2.321
 6075TIP3    H218190   4.555   1.759   2.427
 6076TIP3   OH218191   5.315   0.059   1.216
 6076TIP3    H118192   5.356   0.028   1.297
 6076TIP3    H218193   5.387   0.064   1.153
 6077TIP3   OH218194   4.414   3.379   3.658
 6077TIP3    H118195   4.499   3.342   3.682
 6077TIP3    H218196   4.354   3.304   3.662
 6078TIP3   OH218197   6.543   4.143   3.151
 6078TIP3    H118198   6.483   4.083   3.195
 6078TIP3    H218199   6.491   4.221   3.132
 6079TIP3   OH218200   4.422   1.518   5.573
 6079TIP3    H118201   4.354   1.578   5.540
 6079TIP3    H218202   4.413   1.440   5.520
 6080TIP3   OH218203   6.651   3.566   0.289
 6080TIP3    H118204   6.714   3.639   0.291
 6080TIP3    H218205   6.606   3.575   0.205
 6081TIP3   OH218206   1.945   3.828   0.695
 6081TIP3    H118207   1.988   3.743   0.687
 6081TIP3    H218208   1.871   3.812   0.753
 6082TIP3   OH218209   5.800   6.040   1.171
 6082TIP3    H118210   5.726   5.981   1.156
 6082TIP3    H218211   5.760   6.125   1.188
 6083TIP3   OH218212   4.779   3.321   4.040
 6083TIP3    H118213   4.845   3.387   4.017
 6083TIP3    H218214   4.829   3.252   4.083
 6084TIP3   OH218215   6.037   1.083   2.856
 6084TIP3    H118216   6.042   1.147   2.928
 6084TIP3    H218217   6.076   1.129   2.781
 6085TIP3   OH218218   5.465   1.103   0.434
 6085TIP3    H118219   5.452   1.075   0.343
 6085TIP3    H218220   5.386   1.075   0.480
 6086TIP3   OH218221   5.982   2.591   1.708
 6086TIP3    H118222   5.988   2.602   1.613
 6086TIP3    H218223   5.998   2.678   1.744
 6087TIP3   OH218224   1.542   3.845   5.290
 6087TIP3    H118225   1.452   3.860   5.320
 6087TIP3    H218226   1.592   3.836   5.371
 6088TIP3   OH218227   3.672   3.310   1.026
 6088TIP3    H118228   3.606   3.378   1.013
 6088TIP3    H218229   3.638   3.257   1.098
 6089TIP3   OH218230   4.776   0.798   5.833
 6089TIP3    H118231   4.693   0.751   5.845
 6089TIP3    H218232   4.842   0.740   5.871
 6090TIP3   OH218233   1.386   6.595   5.200
 6090TIP3    H118234   1.346   6.513   5.231
 6090TIP3    H218235   1.358   6.661   5.264
 6091TIP3   OH218236   1.368   5.348   5.226
 6091TIP3    H118237   1.414   5.428   5.253
 6091TIP3    H218238   1.332   5.312   5.307
 6092TIP3   OH218239   5.760   6.299   4.064
 6092TIP3    H118240   5.763   6.335   3.976
 6092TIP3    H218241   5.707   6.219   4.056
 6093TIP3   OH218242   4.464   4.431   0.619
 6093TIP3    H118243   4.430   4.432   0.709
 6093TIP3    H218244   4.495   4.520   0.604
 6094TIP3   OH218245   5.491   2.505   0.235
 6094TIP3    H118246   5.446   2.578   0.194
 6094TIP3    H218247   5.570   2.492   0.181
 6095TIP3   OH218248   5.956   2.126   1.601
 6095TIP3    H118249   5.930   2.178   1.676
 6095TIP3    H218250   6.022   2.180   1.556
 6096TIP3   OH218251   6.003  -0.028   0.561
 6096TIP3    H118252   5.958   0.035   0.506
 6096TIP3    H218253   5.983  -0.001   0.651
 6097TIP3   OH218254   1.084   5.208   1.700
 6097TIP3    H118255   1.005   5.171   1.660
 6097TIP3    H218256   1.153   5.145   1.681
 6098TIP3   OH218257   2.872   1.028   2.067
 6098TIP3    H118258   2.846   1.073   1.986
 6098TIP3    H218259   2.910   0.945   2.037
 6099TIP3   OH218260   0.255   5.551   1.533
 6099TIP3    H118261   0.351   5.550   1.522
 6099TIP3    H218262   0.226   5.466   1.502
 6100TIP3   OH218263   1.872   5.434   3.070
 6100TIP3    H118264   1.818   5.364   3.032
 6100TIP3    H218265   1.915   5.393   3.144
 6101TIP3   OH218266   4.211   4.861   0.725
 6101TIP3    H118267   4.117   4.868   0.742
 6101TIP3    H218268   4.252   4.917   0.791
 6102TIP3   OH218269   7.060   1.511   0.627
 6102TIP3    H118270   7.125   1.578   0.643
 6102TIP3    H218271   7.040   1.475   0.713
 6103TIP3   OH218272   0.774   4.497   4.563
 6103TIP3    H118273   0.679   4.488   4.550
 6103TIP3    H218274   0.801   4.412   4.597
 6104TIP3   OH218275   0.777   3.439   2.960
 6104TIP3    H118276   0.724   3.359   2.964
 6104TIP3    H218277   0.795   3.460   3.052
 6105TIP3   OH218278   6.296   6.381   4.354
 6105TIP3    H118279   6.294   6.475   4.335
 6105TIP3    H218280   6.361   6.346   4.293
 6106TIP3   OH218281   1.900   4.166   5.024
 6106TIP3    H118282   1.912   4.207   5.110
 6106TIP3    H218283   1.984   4.122   5.007
 6107TIP3   OH218284   2.989   1.554   4.706
 6107TIP3    H118285   3.022   1.469   4.735
 6107TIP3    H218286   3.067   1.607   4.695
 6108TIP3   OH218287   4.579   4.210   3.558
 6108TIP3    H118288   4.539   4.261   3.628
 6108TIP3    H218289   4.668   4.192   3.589
 6109TIP3   OH218290   5.741   1.137   5.837
 6109TIP3    H118291   5.803   1.209   5.824
 6109TIP3    H218292   5.787   1.059   5.805
 6110TIP3   OH218293   4.098   3.937   1.532
 6110TIP3    H118294   4.179   3.896   1.563
 6110TIP3    H218295   4.128   4.009   1.476
 6111TIP3   OH218296   2.947   1.893   5.628
 6111TIP3    H118297   2.866   1.851   5.599
 6111TIP3    H218298   3.014   1.860   5.568
 6112TIP3   OH218299   2.025   2.236   4.670
 6112TIP3    H118300   2.084   2.299   4.628
 6112TIP3    H218301   2.060   2.226   4.758
 6113TIP3   OH218302   6.487   0.732   2.808
 6113TIP3    H118303   6.451   0.820   2.818
 6113TIP3    H218304   6.525   0.732   2.720
 6114TIP3   OH218305   1.253   2.545   4.112
 6114TIP3    H118306   1.168   2.505   4.096
 6114TIP3    H218307   1.283   2.573   4.025
 6115TIP3   OH218308   3.912   0.243   0.931
 6115TIP3    H118309   3.876   0.244   1.020
 6115TIP3    H218310   3.970   0.167   0.930
 6116TIP3   OH218311   4.717   5.479   5.053
 6116TIP3    H118312   4.641   5.520   5.094
 6116TIP3    H218313   4.792   5.521   5.094
 6117TIP3   OH218314   6.731   5.122   5.214
 6117TIP3    H118315   6.747   5.043   5.163
 6117TIP3    H218316   6.759   5.194   5.158
 6118TIP3   OH218317   1.876   3.143   1.873
 6118TIP3    H118318   1.814   3.213   1.894
 6118TIP3    H218319   1.959   3.173   1.910
 6119TIP3   OH218320  -0.001   4.030   2.018
 6119TIP3    H118321   0.023   4.058   2.107
 6119TIP3    H218322   0.069   3.971   1.992
 6120TIP3   OH218323   0.619   2.914   2.587
 6120TIP3    H118324   0.570   2.834   2.607
 6120TIP3    H218325   0.602   2.972   2.662
 6121TIP3   OH218326   5.147   5.790   3.531
 6121TIP3    H118327   5.120   5.729   3.462
 6121TIP3    H218328   5.116   5.875   3.500
 6122TIP3   OH218329   4.541   4.908   2.998
 6122TIP3    H118330   4.598   4.966   3.048
 6122TIP3    H218331   4.592   4.828   2.987
 6123TIP3   OH218332   6.025   3.880   1.713
 6123TIP3    H118333   6.115   3.910   1.725
 6123TIP3    H218334   6.012   3.814   1.781
 6124TIP3   OH218335   2.662   5.615   2.825
 6124TIP3    H118336   2.704   5.582   2.904
 6124TIP3    H218337   2.569   5.619   2.847
 6125TIP3   OH218338   4.977   1.236   0.775
 6125TIP3    H118339   4.883   1.254   0.770
 6125TIP3    H218340   4.982   1.143   0.798
 6126TIP3   OH218341   7.175   3.308   4.590
 6126TIP3    H118342   7.233   3.383   4.581
 6126TIP3    H218343   7.097   3.331   4.541
 6127TIP3   OH218344   5.198   2.989   3.009
 6127TIP3    H118345   5.238   2.931   3.073
 6127TIP3    H218346   5.107   2.997   3.037
 6128TIP3   OH218347   4.240   1.315   5.237
 6128TIP3    H118348   4.289   1.318   5.319
 6128TIP3    H218349   4.206   1.404   5.225
 6129TIP3   OH218350   5.163   5.138   3.339
 6129TIP3    H118351   5.257   5.119   3.345
 6129TIP3    H218352   5.159   5.233   3.325
 6130TIP3   OH218353   3.919   2.544   4.082
 6130TIP3    H118354   3.876   2.480   4.024
 6130TIP3    H218355   3.919   2.626   4.033
 6131TIP3   OH218356   7.114   0.234   2.857
 6131TIP3    H118357   7.172   0.248   2.781
 6131TIP3    H218358   7.042   0.295   2.843
 6132TIP3   OH218359   6.457   1.187   5.725
 6132TIP3    H118360   6.550   1.204   5.743
 6132TIP3    H218361   6.458   1.119   5.658
 6133TIP3   OH218362   6.617   1.074   4.674
 6133TIP3    H118363   6.706   1.038   4.677
 6133TIP3    H218364   6.622   1.144   4.610
 6134TIP3   OH218365   7.008   1.207   0.492
 6134TIP3    H118366   7.093   1.210   0.536
 6134TIP3    H218367   7.002   1.291   0.446
 6135TIP3   OH218368   5.743   6.276   0.266
 6135TIP3    H118369   5.687   6.289   0.342
 6135TIP3    H218370   5.695   6.317   0.194
 6136TIP3   OH218371   6.325   6.693   1.843
 6136TIP3    H118372   6.337   6.746   1.922
 6136TIP3    H218373   6.260   6.627   1.867
 6137TIP3   OH218374   5.178   6.200   3.047
 6137TIP3    H118375   5.257   6.173   3.001
 6137TIP3    H218376   5.194   6.291   3.072
 6138TIP3   OH218377   3.748   6.428   3.259
 6138TIP3    H118378   3.669   6.475   3.286
 6138TIP3    H218379   3.721   6.376   3.184
 6139TIP3   OH218380   1.363   6.725   3.367
 6139TIP3    H118381   1.362   6.631   3.352
 6139TIP3    H218382   1.271   6.749   3.372
 6140TIP3   OH218383   1.431   3.233   5.710
 6140TIP3    H118384   1.428   3.144   5.745
 6140TIP3    H218385   1.453   3.288   5.785
 6141TIP3   OH218386   1.889   3.218   5.450
 6141TIP3    H118387   1.847   3.199   5.366
 6141TIP3    H218388   1.856   3.305   5.474
 6142TIP3   OH218389   4.527   4.171   5.540
 6142TIP3    H118390   4.480   4.218   5.609
 6142TIP3    H218391   4.614   4.155   5.577
 6143TIP3   OH218392   3.487   3.392   1.297
 6143TIP3    H118393   3.565   3.343   1.326
 6143TIP3    H218394   3.521   3.453   1.231
 6144TIP3   OH218395   3.331   6.529   3.870
 6144TIP3    H118396   3.339   6.623   3.853
 6144TIP3    H218397   3.246   6.519   3.912
 6145TIP3   OH218398   0.020   0.686   4.136
 6145TIP3    H118399   0.053   0.776   4.133
 6145TIP3    H218400   0.095   0.632   4.113
 6146TIP3   OH218401   5.863   5.200   3.444
 6146TIP3    H118402   5.853   5.295   3.441
 6146TIP3    H218403   5.946   5.182   3.400
 6147TIP3   OH218404   2.983   6.543   4.649
 6147TIP3    H118405   2.929   6.509   4.577
 6147TIP3    H218406   3.018   6.626   4.616
 6148TIP3   OH218407   5.776   2.420   3.243
 6148TIP3    H118408   5.795   2.422   3.337
 6148TIP3    H218409   5.753   2.510   3.221
 6149TIP3   OH218410   5.467   1.182   0.101
 6149TIP3    H118411   5.383   1.204   0.140
 6149TIP3    H218412   5.453   1.097   0.059
 6150TIP3   OH218413   6.041   4.757   4.139
 6150TIP3    H118414   6.034   4.846   4.105
 6150TIP3    H218415   5.971   4.751   4.204
 6151TIP3   OH218416   0.127   3.942   2.355
 6151TIP3    H118417   0.127   4.029   2.315
 6151TIP3    H218418   0.035   3.914   2.353
 6152TIP3   OH218419   1.181   3.748   1.496
 6152TIP3    H118420   1.169   3.785   1.583
 6152TIP3    H218421   1.119   3.675   1.492
 6153TIP3   OH218422   7.137   5.868   3.406
 6153TIP3    H118423   7.202   5.828   3.347
 6153TIP3    H218424   7.053   5.848   3.365
 6154TIP3   OH218425   2.131   1.552   4.839
 6154TIP3    H118426   2.197   1.484   4.856
 6154TIP3    H218427   2.112   1.587   4.926
 6155TIP3   OH218428   5.842   2.738   5.624
 6155TIP3    H118429   5.885   2.819   5.650
 6155TIP3    H218430   5.831   2.689   5.706
 6156TIP3   OH218431   3.933   0.595   5.424
 6156TIP3    H118432   3.962   0.505   5.436
 6156TIP3    H218433   3.973   0.643   5.497
 6157TIP3   OH218434   0.377   0.282   3.181
 6157TIP3    H118435   0.288   0.253   3.200
 6157TIP3    H218436   0.413   0.306   3.266
 6158TIP3   OH218437   5.809   4.060   1.680
 6158TIP3    H118438   5.732   4.045   1.736
 6158TIP3    H218439   5.865   3.984   1.696
 6159TIP3   OH218440   1.822   6.241   3.659
 6159TIP3    H118441   1.900   6.295   3.674
 6159TIP3    H218442   1.749   6.299   3.681
 6160TIP3   OH218443   0.118   5.530   2.222
 6160TIP3    H118444   0.129   5.504   2.313
 6160TIP3    H218445   0.023   5.523   2.207
 6161TIP3   OH218446   1.721   1.015   2.413
 6161TIP3    H118447   1.719   1.047   2.323
 6161TIP3    H218448   1.798   1.057   2.452
 6162TIP3   OH218449   7.100   5.190   2.715
 6162TIP3    H118450   7.095   5.097   2.734
 6162TIP3    H218451   7.010   5.215   2.691
 6163TIP3   OH218452   7.108   3.418   1.018
 6163TIP3    H118453   7.116   3.340   1.073
 6163TIP3    H218454   7.133   3.490   1.075
 6164TIP3   OH218455   3.859   5.271   4.273
 6164TIP3    H118456   3.785   5.249   4.330
 6164TIP3    H218457   3.829   5.250   4.185
 6165TIP3   OH218458   2.650   2.888   2.927
 6165TIP3    H118459   2.637   2.970   2.973
 6165TIP3    H218460   2.726   2.903   2.871
 6166TIP3   OH218461   3.592   0.121   5.531
 6166TIP3    H118462   3.684   0.097   5.521
 6166TIP3    H218463   3.587   0.165   5.616
 6167TIP3   OH218464   4.206   0.368   3.909
 6167TIP3    H118465   4.220   0.372   4.004
 6167TIP3    H218466   4.280   0.418   3.873
 6168TIP3   OH218467   4.690   5.835   2.894
 6168TIP3    H118468   4.652   5.921   2.879
 6168TIP3    H218469   4.615   5.776   2.901
 6169TIP3   OH218470   1.066   0.662   0.434
 6169TIP3    H118471   1.132   0.593   0.426
 6169TIP3    H218472   1.011   0.652   0.356
 6170TIP3   OH218473   6.005   1.601   1.347
 6170TIP3    H118474   5.993   1.633   1.258
 6170TIP3    H218475   5.988   1.678   1.402
 6171TIP3   OH218476   0.197   3.577   3.818
 6171TIP3    H118477   0.236   3.664   3.814
 6171TIP3    H218478   0.107   3.593   3.847
 6172TIP3   OH218479   2.216   1.610   1.542
 6172TIP3    H118480   2.129   1.605   1.501
 6172TIP3    H218481   2.213   1.690   1.594
 6173TIP3   OH218482   4.843   2.509   2.355
 6173TIP3    H118483   4.777   2.571   2.388
 6173TIP3    H218484   4.915   2.564   2.326
 6174TIP3   OH218485   6.731   6.141   4.028
 6174TIP3    H118486   6.725   6.168   3.936
 6174TIP3    H218487   6.669   6.068   4.035
 6175TIP3   OH218488   4.456   5.163   2.456
 6175TIP3    H118489   4.519   5.132   2.391
 6175TIP3    H218490   4.448   5.257   2.440
 6176TIP3   OH218491   6.039   3.867   0.980
 6176TIP3    H118492   5.976   3.935   1.003
 6176TIP3    H218493   6.053   3.877   0.886
 6177TIP3   OH218494   4.600   5.012   4.918
 6177TIP3    H118495   4.528   4.955   4.892
 6177TIP3    H218496   4.624   5.058   4.837
 6178TIP3   OH218497   0.492   1.313   0.205
 6178TIP3    H118498   0.563   1.255   0.234
 6178TIP3    H218499   0.425   1.253   0.171
 6179TIP3   OH218500   3.380   6.422   0.188
 6179TIP3    H118501   3.330   6.346   0.159
 6179TIP3    H218502   3.438   6.388   0.256
 6180TIP3   OH218503   4.606   3.748   4.878
 6180TIP3    H118504   4.669   3.705   4.819
 6180TIP3    H218505   4.542   3.680   4.899
 6181TIP3   OH218506   2.761   6.454   0.724
 6181TIP3    H118507   2.829   6.404   0.769
 6181TIP3    H218508   2.736   6.523   0.786
 6182TIP3   OH218509   1.234   0.166   1.595
 6182TIP3    H118510   1.188   0.166   1.679
 6182TIP3    H218511   1.326   0.160   1.618
 6183TIP3   OH218512   2.362   1.362   4.105
 6183TIP3    H118513   2.306   1.286   4.089
 6183TIP3    H218514   2.302   1.431   4.134
 6184TIP3   OH218515   0.096   4.748   3.481
 6184TIP3    H118516   0.063   4.776   3.567
 6184TIP3    H218517   0.017   4.724   3.433
 6185TIP3   OH218518   3.069   5.213   1.391
 6185TIP3    H118519   3.141   5.263   1.352
 6185TIP3    H218520   2.993   5.232   1.336
 6186TIP3   OH218521   2.872   1.796   1.198
 6186TIP3    H118522   2.831   1.733   1.140
 6186TIP3    H218523   2.799   1.849   1.231
 6187TIP3   OH218524   3.094   4.752   0.684
 6187TIP3    H118525   3.095   4.692   0.758
 6187TIP3    H218526   3.044   4.706   0.616
 6188TIP3   OH218527   5.192   6.366   3.786
 6188TIP3    H118528   5.149   6.281   3.777
 6188TIP3    H218529   5.285   6.347   3.776
 6189TIP3   OH218530   3.385   0.402   1.763
 6189TIP3    H118531   3.319   0.419   1.695
 6189TIP3    H218532   3.453   0.467   1.746
 6190TIP3   OH218533   5.111   2.472  -0.036
 6190TIP3    H118534   5.077   2.474   0.053
 6190TIP3    H218535   5.167   2.394  -0.039
 6191TIP3   OH218536   3.323   2.701   0.177
 6191TIP3    H118537   3.416   2.721   0.168
 6191TIP3    H218538   3.321   2.607   0.195
 6192TIP3   OH218539   6.082   5.695   3.356
 6192TIP3    H118540   6.025   5.764   3.390
 6192TIP3    H218541   6.023   5.624   3.333
 6193TIP3   OH218542   5.610   5.611   3.000
 6193TIP3    H118543   5.613   5.645   3.090
 6193TIP3    H218544   5.554   5.534   3.005
 6194TIP3   OH218545   6.066   6.201   0.895
 6194TIP3    H118546   6.073   6.204   0.800
 6194TIP3    H218547   6.008   6.273   0.918
 6195TIP3   OH218548   3.089   4.434   0.514
 6195TIP3    H118549   3.130   4.494   0.451
 6195TIP3    H218550   3.024   4.386   0.462
 6196TIP3   OH218551   1.299   6.551   1.585
 6196TIP3    H118552   1.236   6.614   1.549
 6196TIP3    H218553   1.384   6.580   1.552
 6197TIP3   OH218554   1.526   5.293   2.675
 6197TIP3    H118555   1.432   5.304   2.685
 6197TIP3    H218556   1.547   5.341   2.595
 6198TIP3   OH218557   4.190   2.237   2.887
 6198TIP3    H118558   4.235   2.274   2.811
 6198TIP3    H218559   4.123   2.180   2.849
 6199TIP3   OH218560   4.060   5.078   1.127
 6199TIP3    H118561   4.061   5.044   1.217
 6199TIP3    H218562   3.968   5.095   1.109
 6200TIP3   OH218563   3.230   1.513   1.172
 6200TIP3    H118564   3.191   1.469   1.247
 6200TIP3    H218565   3.234   1.605   1.196
 6201TIP3   OH218566   2.986   1.567   3.194
 6201TIP3    H118567   2.915   1.523   3.148
 6201TIP3    H218568   2.987   1.526   3.281
 6202TIP3   OH218569   1.041   0.821   2.736
 6202TIP3    H118570   1.099   0.828   2.812
 6202TIP3    H218571   1.080   0.752   2.683
 6203TIP3   OH218572   4.440   6.250   1.963
 6203TIP3    H118573   4.372   6.191   1.929
 6203TIP3    H218574   4.473   6.296   1.886
 6204TIP3   OH218575   5.383   5.023   3.873
 6204TIP3    H118576   5.320   5.084   3.911
 6204TIP3    H218577   5.332   4.967   3.814
 6205TIP3   OH218578   6.077   3.498   1.585
 6205TIP3    H118579   5.989   3.464   1.603
 6205TIP3    H218580   6.069   3.540   1.500
 6206TIP3   OH218581   1.069   2.798   5.271
 6206TIP3    H118582   1.084   2.874   5.327
 6206TIP3    H218583   1.156   2.771   5.243
 6207TIP3   OH218584   0.681   5.217   5.178
 6207TIP3    H118585   0.704   5.240   5.088
 6207TIP3    H218586   0.586   5.233   5.183
 6208TIP3   OH218587   0.588   2.869   3.075
 6208TIP3    H118588   0.560   2.886   3.165
 6208TIP3    H218589   0.563   2.948   3.026
 6209TIP3   OH218590   0.402   5.606   4.320
 6209TIP3    H118591   0.465   5.555   4.269
 6209TIP3    H218592   0.328   5.545   4.334
 6210TIP3   OH218593   1.348   2.925   1.128
 6210TIP3    H118594   1.383   2.837   1.116
 6210TIP3    H218595   1.386   2.976   1.057
 6211TIP3   OH218596   0.746   4.121   0.503
 6211TIP3    H118597   0.707   4.098   0.419
 6211TIP3    H218598   0.751   4.037   0.550
 6212TIP3   OH218599   1.823   1.738   0.919
 6212TIP3    H118600   1.783   1.670   0.973
 6212TIP3    H218601   1.782   1.728   0.833
 6213TIP3   OH218602   3.266   2.433   0.259
 6213TIP3    H118603   3.199   2.441   0.328
 6213TIP3    H218604   3.248   2.349   0.218
 6214TIP3   OH218605   7.171   3.577   3.511
 6214TIP3    H118606   7.134   3.533   3.435
 6214TIP3    H218607   7.251   3.620   3.478
 6215TIP3   OH218608   2.294   1.798   0.002
 6215TIP3    H118609   2.304   1.882   0.047
 6215TIP3    H218610   2.270   1.822  -0.088
 6216TIP3   OH218611   1.149   5.394   2.090
 6216TIP3    H118612   1.117   5.304   2.077
 6216TIP3    H218613   1.127   5.439   2.009
 6217TIP3   OH218614   2.148   0.077  -0.006
 6217TIP3    H118615   2.194   0.155   0.024
 6217TIP3    H218616   2.055   0.097   0.007
 6218TIP3   OH218617   0.854   6.795   2.789
 6218TIP3    H118618   0.806   6.785   2.707
 6218TIP3    H218619   0.861   6.889   2.802
 6219TIP3   OH218620   6.912   4.832   5.254
 6219TIP3    H118621   6.912   4.908   5.313
 6219TIP3    H218622   6.834   4.845   5.199
 6220TIP3   OH218623   4.908   6.478   4.121
 6220TIP3    H118624   4.860   6.498   4.040
 6220TIP3    H218625   4.933   6.386   4.112
 6221TIP3   OH218626   2.026   2.916   0.954
 6221TIP3    H118627   1.949   2.954   0.912
 6221TIP3    H218628   2.088   2.988   0.961
 6222TIP3   OH218629   2.993   3.366   3.732
 6222TIP3    H118630   2.976   3.427   3.660
 6222TIP3    H218631   3.049   3.414   3.792
 6223TIP3   OH218632   5.598   2.188   4.163
 6223TIP3    H118633   5.605   2.105   4.211
 6223TIP3    H218634   5.504   2.202   4.153
 6224TIP3   OH218635   2.532   3.071   2.011
 6224TIP3    H118636   2.596   3.093   2.079
 6224TIP3    H218637   2.546   2.978   1.993
 6225TIP3   OH218638   5.533   5.459   1.031
 6225TIP3    H118639   5.581   5.400   1.089
 6225TIP3    H218640   5.452   5.478   1.077
 6226TIP3   OH218641   3.177   1.335   0.961
 6226TIP3    H118642   3.180   1.392   1.037
 6226TIP3    H218643   3.145   1.391   0.890
 6227TIP3   OH218644   0.286   0.633   2.575
 6227TIP3    H118645   0.380   0.646   2.562
 6227TIP3    H218646   0.278   0.597   2.663
 6228TIP3   OH218647   0.864   0.095   4.427
 6228TIP3    H118648   0.955   0.125   4.434
 6228TIP3    H218649   0.867   0.018   4.371
 6229TIP3   OH218650   6.779   3.367   3.983
 6229TIP3    H118651   6.698   3.317   3.973
 6229TIP3    H218652   6.827   3.352   3.903
 6230TIP3   OH218653   2.195   5.656   1.296
 6230TIP3    H118654   2.225   5.681   1.383
 6230TIP3    H218655   2.107   5.622   1.309
 6231TIP3   OH218656   4.434   4.322   4.279
 6231TIP3    H118657   4.485   4.402   4.281
 6231TIP3    H218658   4.474   4.269   4.211
 6232TIP3   OH218659   5.542   4.998   5.835
 6232TIP3    H118660   5.570   5.066   5.774
 6232TIP3    H218661   5.525   5.044   5.917
 6233TIP3   OH218662   1.120   4.912   4.117
 6233TIP3    H118663   1.136   4.891   4.025
 6233TIP3    H218664   1.124   4.827   4.162
 6234TIP3   OH218665   2.445   4.234   1.043
 6234TIP3    H118666   2.365   4.203   1.084
 6234TIP3    H218667   2.470   4.164   0.983
 6235TIP3   OH218668   5.787   5.972   5.145
 6235TIP3    H118669   5.864   5.948   5.093
 6235TIP3    H218670   5.818   5.972   5.235
 6236TIP3   OH218671   5.086   4.377   2.435
 6236TIP3    H118672   4.990   4.374   2.439
 6236TIP3    H218673   5.108   4.469   2.449
 6237TIP3   OH218674   6.987   5.637   0.782
 6237TIP3    H118675   7.074   5.625   0.744
 6237TIP3    H218676   6.927   5.604   0.714
 6238TIP3   OH218677   6.284   2.849   5.126
 6238TIP3    H118678   6.265   2.758   5.102
 6238TIP3    H218679   6.248   2.859   5.214
 6239TIP3   OH218680   0.700   4.776   3.218
 6239TIP3    H118681   0.686   4.690   3.259
 6239TIP3    H218682   0.746   4.757   3.137
 6240TIP3   OH218683   2.218   2.039   0.797
 6240TIP3    H118684   2.201   2.132   0.817
 6240TIP3    H218685   2.154   2.017   0.730
 6241TIP3   OH218686   3.097   3.765   2.198
 6241TIP3    H118687   3.107   3.688   2.254
 6241TIP3    H218688   3.062   3.832   2.256
 6242TIP3   OH218689   5.857   3.078   3.068
 6242TIP3    H118690   5.815   3.157   3.036
 6242TIP3    H218691   5.947   3.084   3.037
 6243TIP3   OH218692   7.174   2.985   0.836
 6243TIP3    H118693   7.111   2.988   0.908
 6243TIP3    H218694   7.122   3.001   0.757
 6244TIP3   OH218695   0.580   2.722   5.399
 6244TIP3    H118696   0.486   2.742   5.397
 6244TIP3    H218697   0.616   2.781   5.465
 6245TIP3   OH218698   4.144   5.527   5.652
 6245TIP3    H118699   4.188   5.610   5.671
 6245TIP3    H218700   4.143   5.522   5.556
 6246TIP3   OH218701   7.035   6.767   3.594
 6246TIP3    H118702   7.029   6.671   3.599
 6246TIP3    H218703   6.976   6.791   3.522
 6247TIP3   OH218704   5.979   6.800   5.741
 6247TIP3    H118705   6.002   6.708   5.728
 6247TIP3    H218706   5.884   6.803   5.726
 6248TIP3   OH218707   3.707   0.036   4.239
 6248TIP3    H118708   3.733   0.128   4.247
 6248TIP3    H218709   3.648   0.035   4.164
 6249TIP3   OH218710   4.033   5.493   4.278
 6249TIP3    H118711   4.045   5.457   4.366
 6249TIP3    H218712   4.031   5.416   4.221
 6250TIP3   OH218713   0.396   2.290   2.012
 6250TIP3    H118714   0.474   2.258   2.057
 6250TIP3    H218715   0.413   2.383   1.997
 6251TIP3   OH218716   4.549   6.442   1.762
 6251TIP3    H118717   4.510   6.528   1.748
 6251TIP3    H218718   4.627   6.442   1.706
 6252TIP3   OH218719  -0.031   5.374   3.369
 6252TIP3    H118720  -0.011   5.430   3.444
 6252TIP3    H218721   0.054   5.357   3.328
 6253TIP3   OH218722   3.407   5.946   2.498
 6253TIP3    H118723   3.497   5.957   2.470
 6253TIP3    H218724   3.356   5.947   2.417
 6254TIP3   OH218725   6.386   2.871   4.244
 6254TIP3    H118726   6.406   2.850   4.335
 6254TIP3    H218727   6.308   2.820   4.224
 6255TIP3   OH218728   1.884   6.022   5.341
 6255TIP3    H118729   1.938   6.101   5.337
 6255TIP3    H218730   1.848   6.022   5.430
 6256TIP3   OH218731   6.360   2.249   0.416
 6256TIP3    H118732   6.374   2.156   0.433
 6256TIP3    H218733   6.371   2.291   0.502
 6257TIP3   OH218734   4.523   3.470   5.613
 6257TIP3    H118735   4.473   3.551   5.601
 6257TIP3    H218736   4.542   3.468   5.707
 6258TIP3   OH218737   4.400   5.928   0.709
 6258TIP3    H118738   4.416   5.843   0.749
 6258TIP3    H218739   4.406   5.990   0.781
 6259TIP3   OH218740   3.877   0.343   1.621
 6259TIP3    H118741   3.969   0.338   1.648
 6259TIP3    H218742   3.881   0.371   1.530
 6260TIP3   OH218743   2.002   5.443   4.213
 6260TIP3    H118744   2.011   5.534   4.185
 6260TIP3    H218745   1.999   5.393   4.131
 6261TIP3   OH218746   3.026   0.399   1.186
 6261TIP3    H118747   3.055   0.412   1.096
 6261TIP3    H218748   2.949   0.343   1.179
 6262TIP3   OH218749   4.161   3.782   4.024
 6262TIP3    H118750   4.227   3.732   3.975
 6262TIP3    H218751   4.136   3.853   3.965
 6263TIP3   OH218752   2.226   6.442   2.317
 6263TIP3    H118753   2.157   6.377   2.309
 6263TIP3    H218754   2.306   6.396   2.289
 6264TIP3   OH218755   0.111   1.064   2.416
 6264TIP3    H118756   0.085   1.011   2.491
 6264TIP3    H218757   0.118   1.153   2.451
 6265TIP3   OH218758   6.852   1.253   3.966
 6265TIP3    H118759   6.828   1.160   3.962
 6265TIP3    H218760   6.867   1.278   3.875
 6266TIP3   OH218761   4.191   2.001   5.102
 6266TIP3    H118762   4.167   1.923   5.152
 6266TIP3    H218763   4.212   2.066   5.169
 6267TIP3   OH218764   3.711   3.213   0.317
 6267TIP3    H118765   3.708   3.255   0.231
 6267TIP3    H218766   3.804   3.211   0.340
 6268TIP3   OH218767   5.483   3.290   5.756
 6268TIP3    H118768   5.451   3.267   5.669
 6268TIP3    H218769   5.577   3.303   5.743
 6269TIP3   OH218770   3.230   4.483   2.283
 6269TIP3    H118771   3.224   4.388   2.294
 6269TIP3    H218772   3.216   4.519   2.371
 6270TIP3   OH218773   3.593   0.023   3.971
 6270TIP3    H118774   3.568  -0.052   3.917
 6270TIP3    H218775   3.516   0.079   3.972
 6271TIP3   OH218776   3.353   0.882   0.272
 6271TIP3    H118777   3.369   0.860   0.364
 6271TIP3    H218778   3.263   0.912   0.270
 6272TIP3   OH218779   1.925   1.278   5.274
 6272TIP3    H118780   1.879   1.340   5.331
 6272TIP3    H218781   1.861   1.208   5.258
 6273TIP3   OH218782   2.577   1.004   2.822
 6273TIP3    H118783   2.608   0.913   2.821
 6273TIP3    H218784   2.638   1.050   2.764
 6274TIP3   OH218785   1.283   1.141   1.365
 6274TIP3    H118786   1.326   1.211   1.316
 6274TIP3    H218787   1.287   1.065   1.308
 6275TIP3   OH218788   6.519   3.291   2.823
 6275TIP3    H118789   6.541   3.214   2.874
 6275TIP3    H218790   6.539   3.365   2.881
 6276TIP3   OH218791   7.157   3.356   0.539
 6276TIP3    H118792   7.151   3.452   0.546
 6276TIP3    H218793   7.180   3.327   0.627
 6277TIP3   OH218794   4.807   6.672   5.116
 6277TIP3    H118795   4.816   6.742   5.181
 6277TIP3    H218796   4.753   6.606   5.158
 6278TIP3   OH218797   0.216   4.528   0.035
 6278TIP3    H118798   0.205   4.458   0.099
 6278TIP3    H218799   0.173   4.494  -0.044
 6279TIP3   OH218800   0.859   5.458   2.788
 6279TIP3    H118801   0.851   5.511   2.709
 6279TIP3    H218802   0.869   5.369   2.756
 6280TIP3   OH218803   5.630   5.089   2.490
 6280TIP3    H118804   5.723   5.099   2.510
 6280TIP3    H218805   5.624   5.004   2.447
 6281TIP3   OH218806   6.663   1.059   1.336
 6281TIP3    H118807   6.577   1.051   1.294
 6281TIP3    H218808   6.647   1.037   1.428
 6282TIP3   OH218809   1.640   0.217   0.274
 6282TIP3    H118810   1.735   0.207   0.264
 6282TIP3    H218811   1.621   0.182   0.361
 6283TIP3   OH218812   2.077   2.926   3.058
 6283TIP3    H118813   1.993   2.951   3.095
 6283TIP3    H218814   2.136   2.999   3.079
 6284TIP3   OH218815   7.143   0.479   4.617
 6284TIP3    H118816   7.163   0.468   4.524
 6284TIP3    H218817   7.199   0.552   4.644
 6285TIP3   OH218818   5.964   1.507   4.796
 6285TIP3    H118819   5.935   1.416   4.795
 6285TIP3    H218820   5.994   1.524   4.707
 6286TIP3   OH218821   3.777   5.054   1.696
 6286TIP3    H118822   3.752   4.964   1.672
 6286TIP3    H218823   3.757   5.106   1.618
 6287TIP3   OH218824   1.922   3.695   3.300
 6287TIP3    H118825   1.874   3.669   3.379
 6287TIP3    H218826   1.856   3.694   3.230
 6288TIP3   OH218827   2.072   2.253   5.585
 6288TIP3    H118828   2.111   2.328   5.539
 6288TIP3    H218829   2.147   2.210   5.626
 6289TIP3   OH218830   3.382   3.859   1.967
 6289TIP3    H118831   3.477   3.863   1.971
 6289TIP3    H218832   3.352   3.924   2.031
 6290TIP3   OH218833   6.273   6.189   0.404
 6290TIP3    H118834   6.354   6.150   0.436
 6290TIP3    H218835   6.296   6.280   0.388
 6291TIP3   OH218836   5.083   3.987   5.088
 6291TIP3    H118837   5.040   3.971   5.004
 6291TIP3    H218838   5.077   4.082   5.100
 6292TIP3   OH218839   6.164   3.389   2.532
 6292TIP3    H118840   6.153   3.364   2.440
 6292TIP3    H218841   6.247   3.350   2.558
 6293TIP3   OH218842   2.659   4.510   5.759
 6293TIP3    H118843   2.629   4.541   5.674
 6293TIP3    H218844   2.631   4.418   5.763
 6294TIP3   OH218845   0.870   5.844   5.931
 6294TIP3    H118846   0.826   5.820   5.849
 6294TIP3    H218847   0.960   5.864   5.906
 6295TIP3   OH218848   0.134   3.581   5.414
 6295TIP3    H118849   0.075   3.520   5.458
 6295TIP3    H218850   0.141   3.548   5.324
 6296TIP3   OH218851   5.269   1.201   5.313
 6296TIP3    H118852   5.358   1.208   5.279
 6296TIP3    H218853   5.271   1.122   5.367
 6297TIP3   OH218854   6.479   4.553   1.542
 6297TIP3    H118855   6.472   4.475   1.488
 6297TIP3    H218856   6.488   4.625   1.478
 6298TIP3   OH218857   6.321   3.714   2.294
 6298TIP3    H118858   6.395   3.654   2.293
 6298TIP3    H218859   6.252   3.668   2.341
 6299TIP3   OH218860   6.496   1.338   0.248
 6299TIP3    H118861   6.450   1.333   0.332
 6299TIP3    H218862   6.580   1.380   0.269
 6300TIP3   OH218863   2.186   0.876   2.915
 6300TIP3    H118864   2.255   0.838   2.970
 6300TIP3    H218865   2.124   0.915   2.977
 6301TIP3   OH218866   1.177   0.160   3.220
 6301TIP3    H118867   1.264   0.131   3.249
 6301TIP3    H218868   1.167   0.247   3.258
 6302TIP3   OH218869   5.715   6.652   4.850
 6302TIP3    H118870   5.619   6.644   4.853
 6302TIP3    H218871   5.738   6.635   4.758
 6303TIP3   OH218872   1.632   0.509   1.254
 6303TIP3    H118873   1.710   0.517   1.199
 6303TIP3    H218874   1.662   0.461   1.331
 6304TIP3   OH218875   2.788   0.931   3.906
 6304TIP3    H118876   2.740   0.872   3.963
 6304TIP3    H218877   2.726   0.951   3.835
 6305TIP3   OH218878   3.613   4.434   0.470
 6305TIP3    H118879   3.530   4.407   0.509
 6305TIP3    H218880   3.679   4.416   0.538
 6306TIP3   OH218881   2.918   1.307   2.112
 6306TIP3    H118882   2.972   1.245   2.162
 6306TIP3    H218883   2.978   1.343   2.046
 6307TIP3   OH218884   3.151   5.671   2.769
 6307TIP3    H118885   3.118   5.759   2.751
 6307TIP3    H218886   3.076   5.623   2.802
 6308TIP3   OH218887   3.178   1.191   2.313
 6308TIP3    H118888   3.109   1.125   2.317
 6308TIP3    H218889   3.135   1.270   2.281
 6309TIP3   OH218890   0.699   5.876   4.453
 6309TIP3    H118891   0.664   5.788   4.469
 6309TIP3    H218892   0.621   5.931   4.442
 6310TIP3   OH218893   5.182   1.168   2.756
 6310TIP3    H118894   5.100   1.194   2.799
 6310TIP3    H218895   5.188   1.226   2.680
 6311TIP3   OH218896   5.419   5.587   4.755
 6311TIP3    H118897   5.421   5.681   4.733
 6311TIP3    H218898   5.387   5.585   4.845
 6312TIP3   OH218899   2.386   4.551   0.054
 6312TIP3    H118900   2.454   4.483   0.055
 6312TIP3    H218901   2.308   4.507   0.088
 6313TIP3   OH218902   6.009   5.288  -0.021
 6313TIP3    H118903   6.086   5.296  -0.076
 6313TIP3    H218904   6.041   5.301   0.069
 6314TIP3   OH218905   1.162   2.848   4.019
 6314TIP3    H118906   1.233   2.816   4.075
 6314TIP3    H218907   1.100   2.776   4.014
 6315TIP3   OH218908   1.029   6.040   2.435
 6315TIP3    H118909   0.955   5.980   2.440
 6315TIP3    H218910   1.006   6.102   2.367
 6316TIP3   OH218911   2.386   2.793   2.839
 6316TIP3    H118912   2.317   2.815   2.901
 6316TIP3    H218913   2.438   2.873   2.831
 6317TIP3   OH218914   2.962   1.010   2.318
 6317TIP3    H118915   2.905   0.964   2.379
 6317TIP3    H218916   2.911   1.014   2.237
 6318TIP3   OH218917   6.887   2.865   4.239
 6318TIP3    H118918   6.966   2.872   4.185
 6318TIP3    H218919   6.830   2.936   4.208
 6319TIP3   OH218920   1.041   4.705   2.874
 6319TIP3    H118921   1.118   4.649   2.865
 6319TIP3    H218922   0.999   4.703   2.789
 6320TIP3   OH218923   3.588   5.687   2.976
 6320TIP3    H118924   3.660   5.674   3.037
 6320TIP3    H218925   3.526   5.617   2.996
 6321TIP3   OH218926   3.710   3.559   3.725
 6321TIP3    H118927   3.688   3.472   3.691
 6321TIP3    H218928   3.627   3.592   3.761
 6322TIP3   OH218929   4.876   1.375   4.639
 6322TIP3    H118930   4.842   1.456   4.601
 6322TIP3    H218931   4.804   1.340   4.690
 6323TIP3   OH218932   0.915   2.049   2.277
 6323TIP3    H118933   0.867   2.115   2.327
 6323TIP3    H218934   0.961   2.099   2.210
 6324TIP3   OH218935   1.186   6.032   1.461
 6324TIP3    H118936   1.134   6.111   1.475
 6324TIP3    H218937   1.264   6.062   1.414
 6325TIP3   OH218938   1.849   1.912   1.403
 6325TIP3    H118939   1.907   1.837   1.386
 6325TIP3    H218940   1.766   1.888   1.362
 6326TIP3   OH218941   2.586   2.578   0.420
 6326TIP3    H118942   2.553   2.610   0.336
 6326TIP3    H218943   2.676   2.609   0.424
 6327TIP3   OH218944   6.701   5.122   4.036
 6327TIP3    H118945   6.675   5.142   4.126
 6327TIP3    H218946   6.642   5.051   4.009
 6328TIP3   OH218947   4.533   5.003   0.951
 6328TIP3    H118948   4.542   5.064   1.024
 6328TIP3    H218949   4.438   4.995   0.939
 6329TIP3   OH218950   1.191   5.479   4.511
 6329TIP3    H118951   1.207   5.500   4.419
 6329TIP3    H218952   1.270   5.432   4.539
 6330TIP3   OH218953   0.154   3.198   3.894
 6330TIP3    H118954   0.092   3.231   3.958
 6330TIP3    H218955   0.104   3.191   3.813
 6331TIP3   OH218956   3.500   4.483   5.800
 6331TIP3    H118957   3.463   4.531   5.874
 6331TIP3    H218958   3.463   4.525   5.722
 6332TIP3   OH218959   5.972   0.291   2.812
 6332TIP3    H118960   5.900   0.324   2.758
 6332TIP3    H218961   5.960   0.196   2.812
 6333TIP3   OH218962   4.926   5.939   0.875
 6333TIP3    H118963   4.915   6.011   0.937
 6333TIP3    H218964   4.997   5.968   0.817
 6334TIP3   OH218965   4.683   2.639   3.563
 6334TIP3    H118966   4.652   2.630   3.473
 6334TIP3    H218967   4.648   2.723   3.593
 6335TIP3   OH218968   1.685   4.087   0.801
 6335TIP3    H118969   1.715   4.084   0.710
 6335TIP3    H218970   1.719   4.170   0.835
 6336TIP3   OH218971   6.810   2.017   0.580
 6336TIP3    H118972   6.792   1.928   0.611
 6336TIP3    H218973   6.894   2.040   0.620
 6337TIP3   OH218974   1.027   1.265   5.094
 6337TIP3    H118975   0.974   1.198   5.138
 6337TIP3    H218976   0.971   1.297   5.023
 6338TIP3   OH218977   2.613   0.489   3.238
 6338TIP3    H118978   2.630   0.547   3.164
 6338TIP3    H218979   2.699   0.467   3.272
 6339TIP3   OH218980   4.563   0.674   5.521
 6339TIP3    H118981   4.603   0.618   5.588
 6339TIP3    H218982   4.536   0.753   5.568
 6340TIP3   OH218983   0.223   1.544   5.557
 6340TIP3    H118984   0.210   1.570   5.466
 6340TIP3    H218985   0.279   1.612   5.594
 6341TIP3   OH218986   4.722   2.985   1.218
 6341TIP3    H118987   4.739   3.050   1.285
 6341TIP3    H218988   4.632   2.956   1.235
 6342TIP3   OH218989   7.008   3.353   4.394
 6342TIP3    H118990   6.929   3.363   4.342
 6342TIP3    H218991   7.065   3.424   4.364
 6343TIP3   OH218992   6.604   1.662   2.910
 6343TIP3    H118993   6.689   1.698   2.936
 6343TIP3    H218994   6.550   1.738   2.893
 6344TIP3   OH218995   5.722   1.906   3.054
 6344TIP3    H118996   5.752   1.819   3.078
 6344TIP3    H218997   5.793   1.964   3.080
 6345TIP3   OH218998   4.965   3.287   1.956
 6345TIP3    H118999   4.962   3.377   1.923
 6345TIP3    H219000   4.894   3.283   2.020
 6346TIP3   OH219001   3.830   3.170   1.545
 6346TIP3    H119002   3.805   3.142   1.633
 6346TIP3    H219003   3.886   3.100   1.513
 6347TIP3   OH219004   5.218   2.896   3.787
 6347TIP3    H119005   5.230   2.888   3.881
 6347TIP3    H219006   5.138   2.846   3.768
 6348TIP3   OH219007   0.444   3.867   5.535
 6348TIP3    H119008   0.412   3.788   5.579
 6348TIP3    H219009   0.372   3.893   5.477
 6349TIP3   OH219010   4.100   0.253   0.608
 6349TIP3    H119011   4.175   0.279   0.662
 6349TIP3    H219012   4.132   0.178   0.558
 6350TIP3   OH219013   5.964   1.017   1.898
 6350TIP3    H119014   5.887   0.966   1.873
 6350TIP3    H219015   6.015   0.958   1.953
 6351TIP3   OH219016   4.554   0.989   1.356
 6351TIP3    H119017   4.491   1.059   1.370
 6351TIP3    H219018   4.515   0.913   1.399
 6352TIP3   OH219019   1.181   4.221   5.525
 6352TIP3    H119020   1.266   4.203   5.485
 6352TIP3    H219021   1.167   4.315   5.514
 6353TIP3   OH219022   2.243   3.893   4.006
 6353TIP3    H119023   2.310   3.845   4.055
 6353TIP3    H219024   2.170   3.903   4.068
 6354TIP3   OH219025   5.775   2.299   1.047
 6354TIP3    H119026   5.778   2.349   1.129
 6354TIP3    H219027   5.691   2.321   1.008
 6355TIP3   OH219028   4.661   1.186   5.592
 6355TIP3    H119029   4.740   1.207   5.642
 6355TIP3    H219030   4.667   1.091   5.578
 6356TIP3   OH219031   0.392   1.253   4.693
 6356TIP3    H119032   0.349   1.288   4.771
 6356TIP3    H219033   0.452   1.187   4.727
 6357TIP3   OH219034   4.134   0.742   2.568
 6357TIP3    H119035   4.056   0.704   2.609
 6357TIP3    H219036   4.190   0.766   2.641
 6358TIP3   OH219037   2.595   4.562   2.874
 6358TIP3    H119038   2.537   4.541   2.802
 6358TIP3    H219039   2.627   4.650   2.855
 6359TIP3   OH219040   6.428   0.686   2.145
 6359TIP3    H119041   6.395   0.716   2.060
 6359TIP3    H219042   6.505   0.633   2.124
 6360TIP3   OH219043   5.671   3.511   0.671
 6360TIP3    H119044   5.739   3.525   0.605
 6360TIP3    H219045   5.671   3.416   0.686
 6361TIP3   OH219046   4.867   4.519   4.311
 6361TIP3    H119047   4.907   4.455   4.251
 6361TIP3    H219048   4.850   4.469   4.391
 6362TIP3   OH219049   6.909   1.031   5.672
 6362TIP3    H119050   6.900   1.053   5.579
 6362TIP3    H219051   7.003   1.028   5.687
 6363TIP3   OH219052   2.769   6.579   4.448
 6363TIP3    H119053   2.820   6.512   4.403
 6363TIP3    H219054   2.802   6.662   4.413
 6364TIP3   OH219055   1.418   4.652   0.715
 6364TIP3    H119056   1.361   4.687   0.782
 6364TIP3    H219057   1.481   4.722   0.697
 6365TIP3   OH219058   7.061   3.692   1.883
 6365TIP3    H119059   7.033   3.711   1.794
 6365TIP3    H219060   7.004   3.745   1.939
 6366TIP3   OH219061   0.042   6.724   2.577
 6366TIP3    H119062   0.005   6.690   2.659
 6366TIP3    H219063   0.057   6.647   2.523
 6367TIP3   OH219064   3.494   4.786   5.384
 6367TIP3    H119065   3.525   4.811   5.296
 6367TIP3    H219066   3.417   4.840   5.399
 6368TIP3   OH219067   1.698   4.277   0.021
 6368TIP3    H119068   1.685   4.348   0.083
 6368TIP3    H219069   1.786   4.290  -0.013
 6369TIP3   OH219070   0.623   3.591   4.525
 6369TIP3    H119071   0.553   3.573   4.588
 6369TIP3    H219072   0.694   3.533   4.550
 6370TIP3   OH219073   2.135   0.053   4.164
 6370TIP3    H119074   2.169   0.055   4.074
 6370TIP3    H219075   2.090   0.137   4.173
 6371TIP3   OH219076   3.429   4.333   2.546
 6371TIP3    H119077   3.437   4.346   2.641
 6371TIP3    H219078   3.339   4.303   2.533
 6372TIP3   OH219079   1.812   1.721   5.228
 6372TIP3    H119080   1.737   1.740   5.285
 6372TIP3    H219081   1.875   1.790   5.248
 6373TIP3   OH219082   3.715   6.554   0.828
 6373TIP3    H119083   3.671   6.477   0.864
 6373TIP3    H219084   3.807   6.544   0.854
 6374TIP3   OH219085   1.218   0.865   2.304
 6374TIP3    H119086   1.180   0.953   2.306
 6374TIP3    H219087   1.290   0.869   2.366
 6375TIP3   OH219088   4.387   5.271   0.753
 6375TIP3    H119089   4.410   5.205   0.688
 6375TIP3    H219090   4.304   5.308   0.722
 6376TIP3   OH219091   3.814   1.243   1.432
 6376TIP3    H119092   3.810   1.211   1.342
 6376TIP3    H219093   3.807   1.338   1.424
 6377TIP3   OH219094   6.711   6.148   5.604
 6377TIP3    H119095   6.751   6.223   5.560
 6377TIP3    H219096   6.775   6.078   5.595
 6378TIP3   OH219097   6.619   3.492   2.633
 6378TIP3    H119098   6.552   3.424   2.628
 6378TIP3    H219099   6.614   3.524   2.723
 6379TIP3   OH219100   4.687   2.180   0.874
 6379TIP3    H119101   4.746   2.256   0.869
 6379TIP3    H219102   4.704   2.132   0.794
 6380TIP3   OH219103   0.091   1.758   4.357
 6380TIP3    H119104   0.010   1.708   4.369
 6380TIP3    H219105   0.127   1.726   4.274
 6381TIP3   OH219106   5.369   4.829   4.074
 6381TIP3    H119107   5.404   4.909   4.034
 6381TIP3    H219108   5.413   4.824   4.159
 6382TIP3   OH219109   1.055   6.517   1.950
 6382TIP3    H119110   1.107   6.588   1.987
 6382TIP3    H219111   1.095   6.500   1.865
 6383TIP3   OH219112   6.041   3.176   1.039
 6383TIP3    H119113   6.126   3.218   1.052
 6383TIP3    H219114   6.061   3.087   1.011
 6384TIP3   OH219115   4.078   5.001   4.763
 6384TIP3    H119116   4.060   4.933   4.828
 6384TIP3    H219117   4.109   4.953   4.687
 6385TIP3   OH219118   5.271   2.620   3.962
 6385TIP3    H119119   5.296   2.537   3.920
 6385TIP3    H219120   5.192   2.648   3.916
 6386TIP3   OH219121   0.429   2.422   1.121
 6386TIP3    H119122   0.403   2.344   1.171
 6386TIP3    H219123   0.440   2.490   1.187
 6387TIP3   OH219124   3.538   6.467   1.477
 6387TIP3    H119125   3.550   6.466   1.382
 6387TIP3    H219126   3.598   6.399   1.510
 6388TIP3   OH219127   2.410   2.981  -0.017
 6388TIP3    H119128   2.503   2.959  -0.023
 6388TIP3    H219129   2.391   2.980   0.077
 6389TIP3   OH219130   5.009   4.075   4.420
 6389TIP3    H119131   5.026   4.122   4.501
 6389TIP3    H219132   4.919   4.099   4.397
 6390TIP3   OH219133   6.927   3.076   5.738
 6390TIP3    H119134   6.949   3.038   5.653
 6390TIP3    H219135   7.003   3.057   5.793
 6391TIP3   OH219136   1.888   2.088   3.272
 6391TIP3    H119137   1.915   2.158   3.213
 6391TIP3    H219138   1.897   2.125   3.360
 6392TIP3   OH219139   7.076   3.648   0.836
 6392TIP3    H119140   7.036   3.616   0.755
 6392TIP3    H219141   7.039   3.593   0.904
 6393TIP3   OH219142   6.993   4.188   3.000
 6393TIP3    H119143   6.973   4.106   3.045
 6393TIP3    H219144   6.929   4.250   3.034
 6394TIP3   OH219145   0.215   3.857   0.225
 6394TIP3    H119146   0.128   3.893   0.208
 6394TIP3    H219147   0.210   3.826   0.316
 6395TIP3   OH219148   1.223   3.957   3.622
 6395TIP3    H119149   1.205   4.042   3.582
 6395TIP3    H219150   1.235   3.976   3.715
 6396TIP3   OH219151   6.417   0.248   1.227
 6396TIP3    H119152   6.386   0.338   1.214
 6396TIP3    H219153   6.369   0.196   1.162
 6397TIP3   OH219154   3.262   6.605   4.331
 6397TIP3    H119155   3.263   6.668   4.259
 6397TIP3    H219156   3.252   6.659   4.409
 6398TIP3   OH219157   1.353   1.989   3.305
 6398TIP3    H119158   1.406   2.066   3.284
 6398TIP3    H219159   1.386   1.959   3.390
 6399TIP3   OH219160   6.783   1.719   1.113
 6399TIP3    H119161   6.712   1.757   1.165
 6399TIP3    H219162   6.825   1.795   1.071
 6400TIP3   OH219163   4.773   3.608   0.660
 6400TIP3    H119164   4.761   3.657   0.579
 6400TIP3    H219165   4.867   3.588   0.663
 6401TIP3   OH219166   0.400   4.402   3.738
 6401TIP3    H119167   0.455   4.448   3.675
 6401TIP3    H219168   0.311   4.413   3.704
 6402TIP3   OH219169   6.726   4.415   4.857
 6402TIP3    H119170   6.794   4.376   4.802
 6402TIP3    H219171   6.688   4.341   4.904
 6403TIP3   OH219172   6.891   3.690   4.240
 6403TIP3    H119173   6.944   3.672   4.317
 6403TIP3    H219174   6.925   3.772   4.206
 6404TIP3   OH219175   6.131   1.903   1.114
 6404TIP3    H119176   6.054   1.960   1.111
 6404TIP3    H219177   6.173   1.925   1.197
 6405TIP3   OH219178   0.783   0.746   1.823
 6405TIP3    H119179   0.861   0.704   1.860
 6405TIP3    H219180   0.712   0.719   1.881
 6406TIP3   OH219181   4.154   1.643   0.095
 6406TIP3    H119182   4.199   1.713   0.046
 6406TIP3    H219183   4.061   1.662   0.083
 6407TIP3   OH219184   5.208   5.451   2.389
 6407TIP3    H119185   5.126   5.433   2.342
 6407TIP3    H219186   5.255   5.367   2.387
 6408TIP3   OH219187   1.348   1.777   2.881
 6408TIP3    H119188   1.421   1.798   2.823
 6408TIP3    H219189   1.287   1.850   2.871
 6409TIP3   OH219190   3.599   1.157   4.199
 6409TIP3    H119191   3.692   1.175   4.211
 6409TIP3    H219192   3.571   1.218   4.131
 6410TIP3   OH219193   2.732   1.696   5.025
 6410TIP3    H119194   2.722   1.735   4.939
 6410TIP3    H219195   2.739   1.602   5.008
 6411TIP3   OH219196   1.357   6.655   1.842
 6411TIP3    H119197   1.397   6.742   1.839
 6411TIP3    H219198   1.332   6.638   1.751
 6412TIP3   OH219199   1.633   5.609   3.093
 6412TIP3    H119200   1.720   5.572   3.078
 6412TIP3    H219201   1.625   5.678   3.026
 6413TIP3   OH219202   6.187   6.728   2.706
 6413TIP3    H119203   6.099   6.704   2.678
 6413TIP3    H219204   6.231   6.756   2.626
 6414TIP3   OH219205   6.475   1.713   0.241
 6414TIP3    H119206   6.514   1.639   0.287
 6414TIP3    H219207   6.529   1.788   0.265
 6415TIP3   OH219208   1.233   5.265   2.367
 6415TIP3    H119209   1.139   5.279   2.378
 6415TIP3    H219210   1.274   5.324   2.430
 6416TIP3   OH219211   5.129   5.682   2.947
 6416TIP3    H119212   5.215   5.649   2.919
 6416TIP3    H219213   5.069   5.649   2.880
 6417TIP3   OH219214   2.868   6.092   5.328
 6417TIP3    H119215   2.934   6.044   5.377
 6417TIP3    H219216   2.842   6.163   5.387
 6418TIP3   OH219217   1.617   5.798   2.875
 6418TIP3    H119218   1.597   5.891   2.883
 6418TIP3    H219219   1.708   5.795   2.844
 6419TIP3   OH219220   5.090   5.151   2.649
 6419TIP3    H119221   5.064   5.065   2.616
 6419TIP3    H219222   5.086   5.208   2.572
 6420TIP3   OH219223   0.442   4.452   0.576
 6420TIP3    H119224   0.441   4.459   0.480
 6420TIP3    H219225   0.441   4.358   0.593
 6421TIP3   OH219226   0.675   0.971   5.160
 6421TIP3    H119227   0.761   0.993   5.195
 6421TIP3    H219228   0.674   0.875   5.157
 6422TIP3   OH219229   4.626   1.727   4.834
 6422TIP3    H119230   4.551   1.707   4.778
 6422TIP3    H219231   4.609   1.815   4.867
 6423TIP3   OH219232   2.828   0.941   4.438
 6423TIP3    H119233   2.857   0.944   4.347
 6423TIP3    H219234   2.891   0.884   4.482
 6424TIP3   OH219235   0.416   5.289   2.178
 6424TIP3    H119236   0.366   5.304   2.098
 6424TIP3    H219237   0.416   5.374   2.223
 6425TIP3   OH219238   1.641   4.030   1.556
 6425TIP3    H119239   1.571   4.028   1.490
 6425TIP3    H219240   1.604   3.986   1.632
 6426TIP3   OH219241   1.211   0.079   3.876
 6426TIP3    H119242   1.235   0.006   3.818
 6426TIP3    H219243   1.208   0.040   3.963
 6427TIP3   OH219244   5.744   5.445   3.498
 6427TIP3    H119245   5.664   5.394   3.482
 6427TIP3    H219246   5.721   5.507   3.567
 6428TIP3   OH219247   2.052   0.529   4.974
 6428TIP3    H119248   2.055   0.512   5.068
 6428TIP3    H219249   2.008   0.614   4.966
 6429TIP3   OH219250   1.104   4.685   3.148
 6429TIP3    H119251   1.061   4.715   3.068
 6429TIP3    H219252   1.174   4.748   3.162
 6430TIP3   OH219253   5.354   2.317   2.659
 6430TIP3    H119254   5.443   2.345   2.639
 6430TIP3    H219255   5.333   2.254   2.590
 6431TIP3   OH219256   6.214   5.947   5.760
 6431TIP3    H119257   6.155   5.975   5.830
 6431TIP3    H219258   6.231   6.027   5.710
 6432TIP3   OH219259   0.610   3.078   0.273
 6432TIP3    H119260   0.650   3.116   0.351
 6432TIP3    H219261   0.605   2.984   0.292
 6433TIP3   OH219262   2.403   3.387   0.762
 6433TIP3    H119263   2.401   3.302   0.806
 6433TIP3    H219264   2.347   3.443   0.816
 6434TIP3   OH219265   2.475   6.015   4.453
 6434TIP3    H119266   2.473   6.111   4.450
 6434TIP3    H219267   2.418   5.988   4.381
 6435TIP3   OH219268   4.553   5.522   0.248
 6435TIP3    H119269   4.558   5.615   0.231
 6435TIP3    H219270   4.616   5.506   0.319
 6436TIP3   OH219271   1.024   0.573   3.850
 6436TIP3    H119272   0.950   0.532   3.896
 6436TIP3    H219273   1.101   0.545   3.899
 6437TIP3   OH219274   4.350   3.337   5.157
 6437TIP3    H119275   4.377   3.336   5.249
 6437TIP3    H219276   4.271   3.390   5.156
 6438TIP3   OH219277   1.876   6.749   3.098
 6438TIP3    H119278   1.890   6.794   3.015
 6438TIP3    H219279   1.781   6.742   3.106
 6439TIP3   OH219280   6.202   1.240   4.669
 6439TIP3    H119281   6.134   1.235   4.736
 6439TIP3    H219282   6.155   1.261   4.588
 6440TIP3   OH219283   1.558   1.128   1.867
 6440TIP3    H119284   1.509   1.064   1.919
 6440TIP3    H219285   1.573   1.084   1.783
 6441TIP3   OH219286   3.782   4.543   2.150
 6441TIP3    H119287   3.758   4.634   2.167
 6441TIP3    H219288   3.702   4.502   2.118
 6442TIP3   OH219289   5.740   5.073   0.254
 6442TIP3    H119290   5.647   5.061   0.277
 6442TIP3    H219291   5.746   5.163   0.224
 6443TIP3   OH219292   3.681   0.322   2.105
 6443TIP3    H119293   3.625   0.291   2.034
 6443TIP3    H219294   3.738   0.387   2.064
 6444TIP3   OH219295   2.728   1.795   4.105
 6444TIP3    H119296   2.689   1.814   4.020
 6444TIP3    H219297   2.685   1.715   4.134
 6445TIP3   OH219298   5.039   3.134   2.376
 6445TIP3    H119299   4.959   3.169   2.414
 6445TIP3    H219300   5.021   3.041   2.360
 6446TIP3   OH219301   5.102   5.992   2.228
 6446TIP3    H119302   5.195   6.013   2.238
 6446TIP3    H219303   5.096   5.898   2.248
 6447TIP3   OH219304   6.355   4.259   3.626
 6447TIP3    H119305   6.262   4.280   3.611
 6447TIP3    H219306   6.362   4.166   3.603
 6448TIP3   OH219307   6.684   2.672   5.301
 6448TIP3    H119308   6.683   2.733   5.227
 6448TIP3    H219309   6.610   2.699   5.355
 6449TIP3   OH219310   1.836   3.093   4.868
 6449TIP3    H119311   1.858   3.176   4.911
 6449TIP3    H219312   1.920   3.049   4.856
 6450TIP3   OH219313   5.473   4.243   3.216
 6450TIP3    H119314   5.431   4.282   3.293
 6450TIP3    H219315   5.438   4.293   3.142
 6451TIP3   OH219316   4.293   2.705   4.130
 6451TIP3    H119317   4.275   2.729   4.039
 6451TIP3    H219318   4.308   2.610   4.127
 6452TIP3   OH219319   0.225   3.467   0.659
 6452TIP3    H119320   0.247   3.385   0.614
 6452TIP3    H219321   0.303   3.521   0.648
 6453TIP3   OH219322   5.033   3.849   5.590
 6453TIP3    H119323   5.069   3.767   5.622
 6453TIP3    H219324   5.105   3.891   5.544
 6454TIP3   OH219325   0.737   5.841   0.585
 6454TIP3    H119326   0.741   5.747   0.602
 6454TIP3    H219327   0.669   5.873   0.645
 6455TIP3   OH219328   2.053   2.512   1.263
 6455TIP3    H119329   2.056   2.420   1.235
 6455TIP3    H219330   2.023   2.559   1.185
 6456TIP3   OH219331   4.262   0.599   1.983
 6456TIP3    H119332   4.180   0.564   2.016
 6456TIP3    H219333   4.294   0.656   2.053
 6457TIP3   OH219334   4.211   5.231   0.310
 6457TIP3    H119335   4.247   5.210   0.224
 6457TIP3    H219336   4.117   5.236   0.297
 6458TIP3   OH219337   4.433   3.149   0.610
 6458TIP3    H119338   4.513   3.128   0.562
 6458TIP3    H219339   4.399   3.226   0.566
 6459TIP3   OH219340   3.091   2.571   1.165
 6459TIP3    H119341   3.120   2.659   1.140
 6459TIP3    H219342   3.168   2.517   1.154
 6460TIP3   OH219343   4.199   3.550   5.424
 6460TIP3    H119344   4.170   3.464   5.454
 6460TIP3    H219345   4.117   3.598   5.410
 6461TIP3   OH219346   3.561   6.520   4.053
 6461TIP3    H119347   3.597   6.431   4.054
 6461TIP3    H219348   3.466   6.507   4.050
 6462TIP3   OH219349   2.548   4.001   0.937
 6462TIP3    H119350   2.533   3.907   0.930
 6462TIP3    H219351   2.638   4.013   0.905
 6463TIP3   OH219352   2.752   3.509   0.953
 6463TIP3    H119353   2.745   3.423   0.995
 6463TIP3    H219354   2.783   3.490   0.864
 6464TIP3   OH219355   3.588   3.718   1.420
 6464TIP3    H119356   3.665   3.754   1.465
 6464TIP3    H219357   3.524   3.706   1.490
 6465TIP3   OH219358   1.839   6.515   0.464
 6465TIP3    H119359   1.827   6.420   0.462
 6465TIP3    H219360   1.830   6.539   0.556
 6466TIP3   OH219361   3.118   4.366   5.132
 6466TIP3    H119362   3.096   4.374   5.225
 6466TIP3    H219363   3.174   4.289   5.127
 6467TIP3   OH219364   1.648   6.105   4.047
 6467TIP3    H119365   1.574   6.155   4.013
 6467TIP3    H219366   1.682   6.158   4.119
 6468TIP3   OH219367   6.850   2.448   3.555
 6468TIP3    H119368   6.824   2.365   3.594
 6468TIP3    H219369   6.824   2.514   3.619
 6469TIP3   OH219370   4.563   0.653   1.903
 6469TIP3    H119371   4.552   0.741   1.939
 6469TIP3    H219372   4.481   0.608   1.923
 6470TIP3   OH219373   3.309   5.888   1.100
 6470TIP3    H119374   3.332   5.922   1.186
 6470TIP3    H219375   3.370   5.815   1.086
 6471TIP3   OH219376   4.232   0.012   0.461
 6471TIP3    H119377   4.211   0.017   0.368
 6471TIP3    H219378   4.195  -0.071   0.490
 6472TIP3   OH219379   5.215   6.270   2.430
 6472TIP3    H119380   5.216   6.263   2.525
 6472TIP3    H219381   5.163   6.196   2.401
 6473TIP3   OH219382   0.823   2.726   1.421
 6473TIP3    H119383   0.902   2.761   1.463
 6473TIP3    H219384   0.801   2.648   1.474
 6474TIP3   OH219385   4.765   2.888   0.714
 6474TIP3    H119386   4.858   2.896   0.693
 6474TIP3    H219387   4.721   2.946   0.653
 6475TIP3   OH219388   6.186   2.400   2.044
 6475TIP3    H119389   6.203   2.457   2.119
 6475TIP3    H219390   6.092   2.384   2.047
 6476TIP3   OH219391   3.963   6.404   1.570
 6476TIP3    H119392   3.968   6.370   1.659
 6476TIP3    H219393   4.034   6.468   1.564
 6477TIP3   OH219394   0.737   2.884   4.783
 6477TIP3    H119395   0.646   2.886   4.753
 6477TIP3    H219396   0.754   2.973   4.814
 6478TIP3   OH219397   1.706   3.196   5.207
 6478TIP3    H119398   1.658   3.267   5.249
 6478TIP3    H219399   1.746   3.236   5.130
 6479TIP3   OH219400   6.747   5.144   3.589
 6479TIP3    H119401   6.817   5.096   3.633
 6479TIP3    H219402   6.753   5.116   3.497
 6480TIP3   OH219403   1.523   1.284   5.345
 6480TIP3    H119404   1.561   1.324   5.267
 6480TIP3    H219405   1.429   1.301   5.336
 6481TIP3   OH219406   1.421   0.977   2.041
 6481TIP3    H119407   1.340   1.014   2.075
 6481TIP3    H219408   1.435   0.897   2.093
 6482TIP3   OH219409   1.702   3.489   4.846
 6482TIP3    H119410   1.623   3.464   4.798
 6482TIP3    H219411   1.674   3.561   4.903
 6483TIP3   OH219412   2.368   1.431   1.703
 6483TIP3    H119413   2.309   1.489   1.654
 6483TIP3    H219414   2.336   1.435   1.793
 6484TIP3   OH219415   6.365   0.995   2.774
 6484TIP3    H119416   6.310   1.005   2.851
 6484TIP3    H219417   6.309   0.952   2.709
 6485TIP3   OH219418   4.096   5.160   2.564
 6485TIP3    H119419   4.179   5.189   2.526
 6485TIP3    H219420   4.048   5.241   2.579
 6486TIP3   OH219421   6.006   1.342   2.309
 6486TIP3    H119422   5.999   1.370   2.401
 6486TIP3    H219423   6.093   1.372   2.282
 6487TIP3   OH219424   4.694   1.926   1.856
 6487TIP3    H119425   4.699   1.836   1.824
 6487TIP3    H219426   4.684   1.917   1.951
 6488TIP3   OH219427   1.349   3.567   5.470
 6488TIP3    H119428   1.341   3.656   5.436
 6488TIP3    H219429   1.270   3.523   5.441
 6489TIP3   OH219430   1.166   1.574   2.869
 6489TIP3    H119431   1.227   1.647   2.870
 6489TIP3    H219432   1.218   1.500   2.837
 6490TIP3   OH219433   1.476   5.164   1.675
 6490TIP3    H119434   1.447   5.255   1.680
 6490TIP3    H219435   1.571   5.170   1.672
 6491TIP3   OH219436   2.787   0.681   4.621
 6491TIP3    H119437   2.860   0.670   4.681
 6491TIP3    H219438   2.736   0.754   4.657
 6492TIP3   OH219439   6.221   0.746   1.130
 6492TIP3    H119440   6.263   0.826   1.161
 6492TIP3    H219441   6.267   0.675   1.175
 6493TIP3   OH219442   4.557   3.191   5.900
 6493TIP3    H119443   4.586   3.138   5.826
 6493TIP3    H219444   4.578   3.281   5.876
 6494TIP3   OH219445   7.175   3.500   2.505
 6494TIP3    H119446   7.177   3.479   2.412
 6494TIP3    H219447   7.085   3.484   2.532
 6495TIP3   OH219448   5.641   6.363   4.370
 6495TIP3    H119449   5.627   6.398   4.458
 6495TIP3    H219450   5.553   6.338   4.340
 6496TIP3   OH219451   4.975   5.061   4.754
 6496TIP3    H119452   4.918   4.994   4.791
 6496TIP3    H219453   4.928   5.143   4.769
 6497TIP3   OH219454   2.516   2.726   3.696
 6497TIP3    H119455   2.586   2.721   3.761
 6497TIP3    H219456   2.436   2.735   3.748
 6498TIP3   OH219457   4.522   1.795   2.618
 6498TIP3    H119458   4.443   1.849   2.621
 6498TIP3    H219459   4.533   1.765   2.708
 6499TIP3   OH219460   3.791   5.559   2.407
 6499TIP3    H119461   3.750   5.549   2.321
 6499TIP3    H219462   3.883   5.580   2.387
 6500TIP3   OH219463   5.125   4.279   5.613
 6500TIP3    H119464   5.069   4.256   5.538
 6500TIP3    H219465   5.214   4.259   5.584
 6501TIP3   OH219466   2.361   2.118   3.392
 6501TIP3    H119467   2.451   2.146   3.407
 6501TIP3    H219468   2.368   2.029   3.358
 6502TIP3   OH219469   3.711   5.433   1.465
 6502TIP3    H119470   3.697   5.470   1.552
 6502TIP3    H219471   3.736   5.342   1.481
 6503TIP3   OH219472   0.996   4.637   4.660
 6503TIP3    H119473   1.076   4.594   4.691
 6503TIP3    H219474   0.940   4.565   4.631
 6504TIP3   OH219475   5.395   2.019   5.572
 6504TIP3    H119476   5.415   2.064   5.490
 6504TIP3    H219477   5.325   1.957   5.550
 6505TIP3   OH219478   3.941   3.681   2.846
 6505TIP3    H119479   4.005   3.647   2.784
 6505TIP3    H219480   3.981   3.760   2.882
 6506TIP3   OH219481   3.916   1.823   0.337
 6506TIP3    H119482   3.886   1.762   0.270
 6506TIP3    H219483   4.012   1.824   0.327
 6507TIP3   OH219484   5.345   0.856   1.795
 6507TIP3    H119485   5.395   0.840   1.714
 6507TIP3    H219486   5.409   0.843   1.865
 6508TIP3   OH219487   5.682   3.938   4.203
 6508TIP3    H119488   5.609   3.966   4.258
 6508TIP3    H219489   5.740   4.014   4.199
 6509TIP3   OH219490   3.394   6.114   4.593
 6509TIP3    H119491   3.470   6.056   4.585
 6509TIP3    H219492   3.384   6.154   4.507
 6510TIP3   OH219493   1.407   0.331   0.533
 6510TIP3    H119494   1.452   0.250   0.558
 6510TIP3    H219495   1.396   0.378   0.616
 6511TIP3   OH219496   1.842   3.961   2.229
 6511TIP3    H119497   1.899   4.039   2.232
 6511TIP3    H219498   1.856   3.919   2.314
 6512TIP3   OH219499   5.917   2.521   4.825
 6512TIP3    H119500   5.986   2.478   4.773
 6512TIP3    H219501   5.929   2.615   4.807
 6513TIP3   OH219502   2.518   1.601   5.411
 6513TIP3    H119503   2.607   1.595   5.377
 6513TIP3    H219504   2.489   1.510   5.419
 6514TIP3   OH219505   1.935   3.193   5.832
 6514TIP3    H119506   1.843   3.202   5.860
 6514TIP3    H219507   1.931   3.138   5.754
 6515TIP3   OH219508   2.191   3.510   2.870
 6515TIP3    H119509   2.243   3.558   2.934
 6515TIP3    H219510   2.104   3.548   2.877
 6516TIP3   OH219511   0.362   2.016   1.103
 6516TIP3    H119512   0.345   2.076   1.176
 6516TIP3    H219513   0.394   2.072   1.033
 6517TIP3   OH219514   1.776   5.439   4.978
 6517TIP3    H119515   1.757   5.471   5.067
 6517TIP3    H219516   1.695   5.457   4.930
 6518TIP3   OH219517   0.818   2.321   2.358
 6518TIP3    H119518   0.758   2.389   2.389
 6518TIP3    H219519   0.884   2.313   2.427
 6519TIP3   OH219520   6.227   1.427   1.381
 6519TIP3    H119521   6.145   1.476   1.385
 6519TIP3    H219522   6.276   1.455   1.459
 6520TIP3   OH219523   3.042   6.058   3.300
 6520TIP3    H119524   3.095   5.978   3.304
 6520TIP3    H219525   3.010   6.061   3.210
 6521TIP3   OH219526   4.254   5.054   0.907
 6521TIP3    H119527   4.200   5.051   0.985
 6521TIP3    H219528   4.214   5.122   0.852
 6522TIP3   OH219529   3.613   3.065   3.110
 6522TIP3    H119530   3.708   3.064   3.103
 6522TIP3    H219531   3.592   3.151   3.144
 6523TIP3   OH219532   1.320   3.210   0.771
 6523TIP3    H119533   1.259   3.268   0.726
 6523TIP3    H219534   1.300   3.221   0.864
 6524TIP3   OH219535   3.355   4.107   3.223
 6524TIP3    H119536   3.287   4.052   3.185
 6524TIP3    H219537   3.335   4.109   3.316
 6525TIP3   OH219538   2.168   1.530   4.167
 6525TIP3    H119539   2.074   1.535   4.150
 6525TIP3    H219540   2.192   1.619   4.192
 6526TIP3   OH219541   4.744   0.168   1.350
 6526TIP3    H119542   4.782   0.084   1.328
 6526TIP3    H219543   4.809   0.232   1.319
 6527TIP3   OH219544   4.851   3.783   3.293
 6527TIP3    H119545   4.760   3.811   3.305
 6527TIP3    H219546   4.860   3.771   3.199
 6528TIP3   OH219547   4.131   5.504   0.421
 6528TIP3    H119548   4.169   5.433   0.368
 6528TIP3    H219549   4.206   5.554   0.452
 6529TIP3   OH219550   2.112   1.219   3.190
 6529TIP3    H119551   2.145   1.309   3.181
 6529TIP3    H219552   2.043   1.225   3.256
 6530TIP3   OH219553   4.478   2.541   5.012
 6530TIP3    H119554   4.505   2.625   5.050
 6530TIP3    H219555   4.559   2.495   4.992
 6531TIP3   OH219556   0.945   6.250   4.870
 6531TIP3    H119557   0.912   6.314   4.932
 6531TIP3    H219558   0.914   6.280   4.785
 6532TIP3   OH219559   0.853   5.525   0.836
 6532TIP3    H119560   0.760   5.508   0.855
 6532TIP3    H219561   0.852   5.569   0.751
 6533TIP3   OH219562   3.345   2.188   5.660
 6533TIP3    H119563   3.272   2.207   5.601
 6533TIP3    H219564   3.416   2.161   5.602
 6534TIP3   OH219565   1.712   6.011   0.596
 6534TIP3    H119566   1.699   5.918   0.618
 6534TIP3    H219567   1.629   6.052   0.618
 6535TIP3   OH219568   4.063   4.038   4.279
 6535TIP3    H119569   3.995   3.985   4.236
 6535TIP3    H219570   4.081   4.109   4.217
 6536TIP3   OH219571   4.570   2.005   1.619
 6536TIP3    H119572   4.525   2.089   1.633
 6536TIP3    H219573   4.608   1.984   1.704
 6537TIP3   OH219574   4.795   3.011   4.741
 6537TIP3    H119575   4.729   3.010   4.671
 6537TIP3    H219576   4.759   3.071   4.806
 6538TIP3   OH219577   0.984   2.116   5.622
 6538TIP3    H119578   1.029   2.035   5.645
 6538TIP3    H219579   0.933   2.095   5.544
 6539TIP3   OH219580   1.673   5.218   3.288
 6539TIP3    H119581   1.679   5.133   3.244
 6539TIP3    H219582   1.649   5.195   3.378
 6540TIP3   OH219583   5.182   3.046   2.748
 6540TIP3    H119584   5.199   3.034   2.841
 6540TIP3    H219585   5.089   3.029   2.738
 6541TIP3   OH219586   5.951   1.491   1.803
 6541TIP3    H119587   5.892   1.429   1.846
 6541TIP3    H219588   6.018   1.435   1.762
 6542TIP3   OH219589   6.153   4.374   1.364
 6542TIP3    H119590   6.098   4.372   1.286
 6542TIP3    H219591   6.237   4.339   1.334
 6543TIP3   OH219592   0.722   2.087   1.041
 6543TIP3    H119593   0.632   2.107   1.017
 6543TIP3    H219594   0.775   2.149   0.989
 6544TIP3   OH219595   0.948   2.397   1.922
 6544TIP3    H119596   0.911   2.438   2.000
 6544TIP3    H219597   0.876   2.343   1.888
 6545TIP3   OH219598   6.551   2.715   0.479
 6545TIP3    H119599   6.586   2.709   0.567
 6545TIP3    H219600   6.626   2.701   0.422
 6546TIP3   OH219601   7.229   3.148   4.321
 6546TIP3    H119602   7.180   3.222   4.358
 6546TIP3    H219603   7.259   3.099   4.397
 6547TIP3   OH219604   0.354   0.262   4.714
 6547TIP3    H119605   0.330   0.315   4.639
 6547TIP3    H219606   0.450   0.261   4.713
 6548TIP3   OH219607   0.126   3.797   5.928
 6548TIP3    H119608   0.155   3.805   5.837
 6548TIP3    H219609   0.110   3.888   5.955
 6549TIP3   OH219610   1.416   3.135   4.738
 6549TIP3    H119611   1.418   3.231   4.743
 6549TIP3    H219612   1.498   3.112   4.694
 6550TIP3   OH219613   1.372   0.836   5.578
 6550TIP3    H119614   1.286   0.875   5.597
 6550TIP3    H219615   1.428   0.867   5.650
 6551TIP3   OH219616   5.671   1.636   0.210
 6551TIP3    H119617   5.626   1.659   0.290
 6551TIP3    H219618   5.762   1.621   0.237
 6552TIP3   OH219619   2.062   0.780   1.929
 6552TIP3    H119620   2.043   0.788   2.023
 6552TIP3    H219621   2.028   0.861   1.891
 6553TIP3   OH219622   6.735   1.185   5.797
 6553TIP3    H119623   6.779   1.118   5.745
 6553TIP3    H219624   6.780   1.267   5.774
 6554TIP3   OH219625   6.458   3.890   3.924
 6554TIP3    H119626   6.429   3.804   3.890
 6554TIP3    H219627   6.544   3.873   3.962
 6555TIP3   OH219628   1.076   6.220   3.268
 6555TIP3    H119629   1.061   6.298   3.322
 6555TIP3    H219630   1.149   6.176   3.310
 6556TIP3   OH219631   1.653   5.424   0.776
 6556TIP3    H119632   1.673   5.348   0.721
 6556TIP3    H219633   1.558   5.427   0.778
 6557TIP3   OH219634   1.566   3.751   3.276
 6557TIP3    H119635   1.537   3.662   3.297
 6557TIP3    H219636   1.529   3.805   3.347
 6558TIP3   OH219637   7.113   0.439   3.136
 6558TIP3    H119638   7.045   0.457   3.071
 6558TIP3    H219639   7.150   0.525   3.156
 6559TIP3   OH219640   0.956   2.129   1.649
 6559TIP3    H119641   1.049   2.142   1.634
 6559TIP3    H219642   0.916   2.137   1.562
 6560TIP3   OH219643   0.618   1.676   1.098
 6560TIP3    H119644   0.704   1.715   1.109
 6560TIP3    H219645   0.561   1.726   1.157
 6561TIP3   OH219646   2.512   6.260   0.707
 6561TIP3    H119647   2.602   6.288   0.724
 6561TIP3    H219648   2.466   6.340   0.683
 6562TIP3   OH219649   0.737   4.567   4.841
 6562TIP3    H119650   0.733   4.535   4.750
 6562TIP3    H219651   0.699   4.655   4.837
 6563TIP3   OH219652   4.347   5.753   1.474
 6563TIP3    H119653   4.276   5.714   1.525
 6563TIP3    H219654   4.310   5.835   1.441
 6564TIP3   OH219655   2.955   0.815   2.767
 6564TIP3    H119656   2.939   0.738   2.712
 6564TIP3    H219657   2.968   0.887   2.705
 6565TIP3   OH219658   1.961   1.084   2.564
 6565TIP3    H119659   2.037   1.108   2.512
 6565TIP3    H219660   1.988   1.005   2.611
 6566TIP3   OH219661   4.570   6.272   2.197
 6566TIP3    H119662   4.651   6.222   2.185
 6566TIP3    H219663   4.532   6.278   2.110
 6567TIP3   OH219664   2.809   4.783   4.248
 6567TIP3    H119665   2.878   4.728   4.285
 6567TIP3    H219666   2.797   4.853   4.312
 6568TIP3   OH219667   1.270   0.506   3.974
 6568TIP3    H119668   1.330   0.575   4.001
 6568TIP3    H219669   1.326   0.434   3.945
 6569TIP3   OH219670   1.949   1.710   3.142
 6569TIP3    H119671   1.945   1.783   3.080
 6569TIP3    H219672   1.861   1.671   3.138
 6570TIP3   OH219673   5.025   4.724   4.404
 6570TIP3    H119674   4.950   4.668   4.383
 6570TIP3    H219675   5.096   4.663   4.424
 6571TIP3   OH219676   0.595   5.467   0.852
 6571TIP3    H119677   0.571   5.376   0.839
 6571TIP3    H219678   0.526   5.517   0.808
 6572TIP3   OH219679   6.440   3.128   4.614
 6572TIP3    H119680   6.443   3.194   4.683
 6572TIP3    H219681   6.348   3.104   4.607
 6573TIP3   OH219682   2.095   6.438   3.503
 6573TIP3    H119683   2.120   6.523   3.466
 6573TIP3    H219684   2.147   6.375   3.454
 6574TIP3   OH219685   1.643   3.721   1.123
 6574TIP3    H119686   1.622   3.792   1.184
 6574TIP3    H219687   1.628   3.641   1.174
 6575TIP3   OH219688   6.525   5.395   1.728
 6575TIP3    H119689   6.456   5.422   1.668
 6575TIP3    H219690   6.514   5.452   1.804
 6576TIP3   OH219691   2.542   2.145   4.316
 6576TIP3    H119692   2.485   2.074   4.344
 6576TIP3    H219693   2.561   2.195   4.396
 6577TIP3   OH219694   2.126   1.612   2.907
 6577TIP3    H119695   2.163   1.602   2.995
 6577TIP3    H219696   2.105   1.705   2.900
 6578TIP3   OH219697   2.066   5.645   2.954
 6578TIP3    H119698   2.001   5.592   3.001
 6578TIP3    H219699   2.136   5.584   2.934
 6579TIP3   OH219700   5.232   2.064   1.991
 6579TIP3    H119701   5.162   1.999   1.999
 6579TIP3    H219702   5.188   2.148   1.994
 6580TIP3   OH219703   5.418   3.852   5.494
 6580TIP3    H119704   5.331   3.890   5.485
 6580TIP3    H219705   5.477   3.918   5.457
 6581TIP3   OH219706   6.114   0.617   3.165
 6581TIP3    H119707   6.093   0.648   3.077
 6581TIP3    H219708   6.030   0.593   3.204
 6582TIP3   OH219709   7.092   2.037   4.573
 6582TIP3    H119710   7.024   2.035   4.506
 6582TIP3    H219711   7.130   2.125   4.565
 6583TIP3   OH219712   6.323   5.378   0.732
 6583TIP3    H119713   6.230   5.394   0.715
 6583TIP3    H219714   6.324   5.315   0.803
 6584TIP3   OH219715   0.186   2.026   3.482
 6584TIP3    H119716   0.121   2.055   3.546
 6584TIP3    H219717   0.271   2.042   3.524
 6585TIP3   OH219718   5.406   0.847   3.523
 6585TIP3    H119719   5.380   0.801   3.604
 6585TIP3    H219720   5.497   0.821   3.509
 6586TIP3   OH219721   0.761   1.627   1.713
 6586TIP3    H119722   0.711   1.705   1.738
 6586TIP3    H219723   0.824   1.658   1.648
 6587TIP3   OH219724   3.126   0.465   5.042
 6587TIP3    H119725   3.081   0.505   5.116
 6587TIP3    H219726   3.105   0.522   4.967
 6588TIP3   OH219727   2.467   3.700   5.308
 6588TIP3    H119728   2.530   3.765   5.279
 6588TIP3    H219729   2.436   3.732   5.393
 6589TIP3   OH219730   1.635   3.957   0.036
 6589TIP3    H119731   1.587   4.038   0.020
 6589TIP3    H219732   1.702   3.982   0.100
 6590TIP3   OH219733   6.645   3.021   3.480
 6590TIP3    H119734   6.681   2.933   3.472
 6590TIP3    H219735   6.580   3.014   3.551
 6591TIP3   OH219736   0.546   5.285   1.336
 6591TIP3    H119737   0.457   5.250   1.337
 6591TIP3    H219738   0.540   5.364   1.281
 6592TIP3   OH219739   5.734   5.547   2.751
 6592TIP3    H119740   5.700   5.561   2.839
 6592TIP3    H219741   5.766   5.632   2.723
 6593TIP3   OH219742   6.895   4.090   2.032
 6593TIP3    H119743   6.868   4.010   1.986
 6593TIP3    H219744   6.986   4.072   2.058
 6594TIP3   OH219745   2.907   0.863   5.549
 6594TIP3    H119746   2.842   0.911   5.600
 6594TIP3    H219747   2.906   0.905   5.463
 6595TIP3   OH219748   0.215   0.305   0.709
 6595TIP3    H119749   0.231   0.331   0.618
 6595TIP3    H219750   0.125   0.334   0.726
 6596TIP3   OH219751   4.681   0.919   4.701
 6596TIP3    H119752   4.725   0.871   4.770
 6596TIP3    H219753   4.592   0.933   4.734
 6597TIP3   OH219754   0.335   5.036   5.396
 6597TIP3    H119755   0.315   5.108   5.456
 6597TIP3    H219756   0.306   4.957   5.442
 6598TIP3   OH219757   3.806   2.681   0.291
 6598TIP3    H119758   3.765   2.619   0.230
 6598TIP3    H219759   3.894   2.695   0.254
 6599TIP3   OH219760   2.090   0.474   2.040
 6599TIP3    H119761   2.070   0.550   1.985
 6599TIP3    H219762   2.055   0.496   2.126
 6600TIP3   OH219763   5.804   4.868   5.806
 6600TIP3    H119764   5.793   4.780   5.842
 6600TIP3    H219765   5.722   4.913   5.829
 6601TIP3   OH219766   3.664   5.119   0.241
 6601TIP3    H119767   3.708   5.042   0.277
 6601TIP3    H219768   3.725   5.191   0.258
 6602TIP3   OH219769   5.071   3.196   1.337
 6602TIP3    H119770   5.042   3.201   1.246
 6602TIP3    H219771   4.992   3.214   1.388
 6603TIP3   OH219772   1.220   4.869   3.590
 6603TIP3    H119773   1.274   4.798   3.554
 6603TIP3    H219774   1.235   4.943   3.531
 6604TIP3   OH219775   6.590   4.867   2.725
 6604TIP3    H119776   6.496   4.856   2.710
 6604TIP3    H219777   6.623   4.905   2.643
 6605TIP3   OH219778   6.330   4.557   2.454
 6605TIP3    H119779   6.310   4.465   2.474
 6605TIP3    H219780   6.312   4.604   2.535
 6606TIP3   OH219781   2.015   3.722   5.067
 6606TIP3    H119782   2.055   3.650   5.019
 6606TIP3    H219783   2.032   3.702   5.159
 6607TIP3   OH219784   5.244   1.954   0.078
 6607TIP3    H119785   5.338   1.956   0.095
 6607TIP3    H219786   5.221   2.044   0.055
 6608TIP3   OH219787   5.200   0.057   4.322
 6608TIP3    H119788   5.287   0.080   4.290
 6608TIP3    H219789   5.165   0.139   4.357
 6609TIP3   OH219790   3.657   2.020   5.418
 6609TIP3    H119791   3.715   2.003   5.492
 6609TIP3    H219792   3.606   2.096   5.444
 6610TIP3   OH219793   2.988   4.577   1.093
 6610TIP3    H119794   3.059   4.620   1.045
 6610TIP3    H219795   3.002   4.601   1.185
 6611TIP3   OH219796   6.643   4.377   5.363
 6611TIP3    H119797   6.580   4.349   5.296
 6611TIP3    H219798   6.726   4.383   5.316
 6612TIP3   OH219799   6.710   0.398   4.209
 6612TIP3    H119800   6.762   0.442   4.276
 6612TIP3    H219801   6.749   0.425   4.126
 6613TIP3   OH219802   3.068   1.335   4.397
 6613TIP3    H119803   3.128   1.409   4.395
 6613TIP3    H219804   2.985   1.372   4.427
 6614TIP3   OH219805   5.665   2.689   3.254
 6614TIP3    H119806   5.702   2.749   3.319
 6614TIP3    H219807   5.684   2.731   3.170
 6615TIP3   OH219808   2.615   6.393   3.240
 6615TIP3    H119809   2.524   6.409   3.265
 6615TIP3    H219810   2.621   6.422   3.149
 6616TIP3   OH219811   4.784   2.214   0.453
 6616TIP3    H119812   4.802   2.186   0.363
 6616TIP3    H219813   4.864   2.259   0.481
 6617TIP3   OH219814   1.446   5.735   1.120
 6617TIP3    H119815   1.420   5.643   1.132
 6617TIP3    H219816   1.366   5.784   1.140
 6618TIP3   OH219817   0.196   2.804   4.836
 6618TIP3    H119818   0.233   2.853   4.763
 6618TIP3    H219819   0.251   2.828   4.911
 6619TIP3   OH219820   4.101   2.146   4.013
 6619TIP3    H119821   4.038   2.201   4.061
 6619TIP3    H219822   4.160   2.113   4.080
 6620TIP3   OH219823   3.092   3.777   1.503
 6620TIP3    H119824   3.110   3.823   1.421
 6620TIP3    H219825   3.124   3.688   1.488
 6621TIP3   OH219826   6.309   5.540   3.316
 6621TIP3    H119827   6.361   5.527   3.396
 6621TIP3    H219828   6.245   5.607   3.339
 6622TIP3   OH219829   4.270   3.129   3.618
 6622TIP3    H119830   4.196   3.108   3.676
 6622TIP3    H219831   4.271   3.058   3.554
 6623TIP3   OH219832   7.196   0.968   5.696
 6623TIP3    H119833   7.185   0.942   5.605
 6623TIP3    H219834   7.234   1.056   5.690
 6624TIP3   OH219835   5.046   5.742   0.107
 6624TIP3    H119836   5.003   5.738   0.021
 6624TIP3    H219837   5.108   5.670   0.106
 6625TIP3   OH219838   2.554   3.831   4.729
 6625TIP3    H119839   2.576   3.922   4.711
 6625TIP3    H219840   2.557   3.788   4.644
 6626TIP3   OH219841   1.936   3.491   5.555
 6626TIP3    H119842   1.860   3.498   5.611
 6626TIP3    H219843   2.007   3.461   5.612
 6627TIP3   OH219844   7.155   5.000   0.724
 6627TIP3    H119845   7.246   4.972   0.735
 6627TIP3    H219846   7.155   5.094   0.743
 6628TIP3   OH219847   4.306   2.884   1.529
 6628TIP3    H119848   4.393   2.857   1.499
 6628TIP3    H219849   4.279   2.951   1.466
 6629TIP3   OH219850   4.606   4.570   4.201
 6629TIP3    H119851   4.694   4.540   4.220
 6629TIP3    H219852   4.600   4.657   4.240
 6630TIP3   OH219853   2.243   6.271   3.030
 6630TIP3    H119854   2.190   6.350   3.044
 6630TIP3    H219855   2.251   6.264   2.935
 6631TIP3   OH219856   6.321   6.100   2.102
 6631TIP3    H119857   6.298   6.184   2.061
 6631TIP3    H219858   6.321   6.038   2.030
 6632TIP3   OH219859   1.864   4.652   3.641
 6632TIP3    H119860   1.939   4.700   3.606
 6632TIP3    H219861   1.832   4.600   3.568
 6633TIP3   OH219862   4.735   4.912   0.797
 6633TIP3    H119863   4.659   4.941   0.847
 6633TIP3    H219864   4.795   4.877   0.862
 6634TIP3   OH219865   6.757   4.461   3.432
 6634TIP3    H119866   6.666   4.480   3.410
 6634TIP3    H219867   6.754   4.437   3.525
 6635TIP3   OH219868   5.694   0.524   1.402
 6635TIP3    H119869   5.613   0.573   1.390
 6635TIP3    H219870   5.736   0.564   1.478
 6636TIP3   OH219871   1.252   1.269   5.241
 6636TIP3    H119872   1.177   1.290   5.186
 6636TIP3    H219873   1.269   1.176   5.224
 6637TIP3   OH219874   0.162   0.924   2.859
 6637TIP3    H119875   0.145   0.903   2.767
 6637TIP3    H219876   0.134   0.846   2.907
 6638TIP3   OH219877   2.035   4.608   5.641
 6638TIP3    H119878   2.077   4.690   5.617
 6638TIP3    H219879   2.100   4.541   5.620
 6639TIP3   OH219880   0.616   0.620   5.096
 6639TIP3    H119881   0.631   0.675   5.173
 6639TIP3    H219882   0.703   0.588   5.072
 6640TIP3   OH219883   4.147   0.615   3.468
 6640TIP3    H119884   4.062   0.658   3.455
 6640TIP3    H219885   4.166   0.627   3.561
 6641TIP3   OH219886   5.035   0.977   0.827
 6641TIP3    H119887   4.965   0.932   0.781
 6641TIP3    H219888   5.040   0.933   0.912
 6642TIP3   OH219889   2.007   6.692   4.380
 6642TIP3    H119890   1.985   6.683   4.287
 6642TIP3    H219891   2.085   6.748   4.381
 6643TIP3   OH219892   4.797   1.741   5.839
 6643TIP3    H119893   4.819   1.671   5.778
 6643TIP3    H219894   4.745   1.697   5.907
 6644TIP3   OH219895   6.203   3.988   2.414
 6644TIP3    H119896   6.255   3.908   2.413
 6644TIP3    H219897   6.121   3.963   2.457
 6645TIP3   OH219898   0.310   5.370   1.949
 6645TIP3    H119899   0.275   5.459   1.943
 6645TIP3    H219900   0.268   5.323   1.876
 6646TIP3   OH219901   6.273   1.981   0.731
 6646TIP3    H119902   6.308   1.906   0.781
 6646TIP3    H219903   6.193   1.947   0.691
 6647TIP3   OH219904   0.149   4.786   5.363
 6647TIP3    H119905   0.075   4.725   5.362
 6647TIP3    H219906   0.225   4.731   5.378
 6648TIP3   OH219907   3.982   2.302   4.209
 6648TIP3    H119908   3.958   2.391   4.183
 6648TIP3    H219909   3.930   2.285   4.288
 6649TIP3   OH219910   2.085   1.852   3.321
 6649TIP3    H119911   2.040   1.786   3.268
 6649TIP3    H219912   2.034   1.932   3.309
 6650TIP3   OH219913   3.011   5.805   5.376
 6650TIP3    H119914   3.071   5.739   5.340
 6650TIP3    H219915   2.929   5.789   5.329
 6651TIP3   OH219916   6.012   2.652   1.415
 6651TIP3    H119917   5.928   2.695   1.400
 6651TIP3    H219918   6.014   2.580   1.352
 6652TIP3   OH219919   3.968   4.519   2.465
 6652TIP3    H119920   3.874   4.534   2.453
 6652TIP3    H219921   3.994   4.466   2.390
 6653TIP3   OH219922   0.537   2.276   0.207
 6653TIP3    H119923   0.578   2.242   0.128
 6653TIP3    H219924   0.610   2.299   0.265
 6654TIP3   OH219925   2.646   0.445   3.665
 6654TIP3    H119926   2.601   0.495   3.597
 6654TIP3    H219927   2.684   0.512   3.722
 6655TIP3   OH219928   3.917   6.116   3.346
 6655TIP3    H119929   3.918   6.029   3.307
 6655TIP3    H219930   3.910   6.176   3.272
 6656TIP3   OH219931   1.305   1.466   5.428
 6656TIP3    H119932   1.338   1.501   5.345
 6656TIP3    H219933   1.242   1.399   5.402
 6657TIP3   OH219934   6.632   3.554   2.921
 6657TIP3    H119935   6.634   3.544   3.016
 6657TIP3    H219936   6.718   3.590   2.899
 6658TIP3   OH219937   4.779   0.964   1.178
 6658TIP3    H119938   4.696   0.960   1.226
 6658TIP3    H219939   4.807   0.872   1.172
 6659TIP3   OH219940   5.810   3.565   2.508
 6659TIP3    H119941   5.764   3.521   2.580
 6659TIP3    H219942   5.748   3.564   2.436
 6660TIP3   OH219943   1.866   0.260   3.457
 6660TIP3    H119944   1.789   0.277   3.404
 6660TIP3    H219945   1.938   0.302   3.409
 6661TIP3   OH219946   5.490   1.471   5.095
 6661TIP3    H119947   5.454   1.553   5.062
 6661TIP3    H219948   5.474   1.408   5.026
 6662TIP3   OH219949   1.904   1.445   3.807
 6662TIP3    H119950   1.859   1.361   3.794
 6662TIP3    H219951   1.997   1.422   3.810
 6663TIP3   OH219952   5.564   5.684   2.154
 6663TIP3    H119953   5.556   5.602   2.105
 6663TIP3    H219954   5.528   5.663   2.240
 6664TIP3   OH219955   1.254   1.624   1.076
 6664TIP3    H119956   1.243   1.610   0.982
 6664TIP3    H219957   1.245   1.537   1.115
 6665TIP3   OH219958   4.915   0.200   4.550
 6665TIP3    H119959   4.984   0.263   4.568
 6665TIP3    H219960   4.948   0.117   4.586
 6666TIP3   OH219961   0.770   4.451   2.209
 6666TIP3    H119962   0.833   4.385   2.180
 6666TIP3    H219963   0.717   4.469   2.131
 6667TIP3   OH219964   0.887   2.887   5.070
 6667TIP3    H119965   0.926   2.837   5.142
 6667TIP3    H219966   0.800   2.849   5.059
 6668TIP3   OH219967   0.014   0.679   2.937
 6668TIP3    H119968  -0.040   0.692   3.015
 6668TIP3    H219969  -0.044   0.700   2.864
 6669TIP3   OH219970   1.016   5.874   1.835
 6669TIP3    H119971   0.980   5.791   1.866
 6669TIP3    H219972   0.982   5.883   1.746
 6670TIP3   OH219973   2.091   2.950   2.260
 6670TIP3    H119974   2.052   3.037   2.252
 6670TIP3    H219975   2.186   2.966   2.253
 6671TIP3   OH219976   1.111   1.888   1.704
 6671TIP3    H119977   1.138   1.962   1.648
 6671TIP3    H219978   1.023   1.865   1.673
 6672TIP3   OH219979   6.386   2.935   0.502
 6672TIP3    H119980   6.453   2.995   0.471
 6672TIP3    H219981   6.428   2.849   0.502
 6673TIP3   OH219982   4.484   1.125   0.410
 6673TIP3    H119983   4.414   1.061   0.423
 6673TIP3    H219984   4.526   1.133   0.496
 6674TIP3   OH219985   5.722   5.061   4.426
 6674TIP3    H119986   5.707   5.030   4.516
 6674TIP3    H219987   5.653   5.126   4.412
 6675TIP3   OH219988   3.480   2.722   0.863
 6675TIP3    H119989   3.576   2.727   0.858
 6675TIP3    H219990   3.455   2.796   0.918
 6676TIP3   OH219991   3.412   3.721   3.463
 6676TIP3    H119992   3.334   3.776   3.449
 6676TIP3    H219993   3.376   3.635   3.487
 6677TIP3   OH219994   6.566   5.359   5.294
 6677TIP3    H119995   6.482   5.317   5.307
 6677TIP3    H219996   6.626   5.288   5.272
 6678TIP3   OH219997   4.131   6.500   3.809
 6678TIP3    H119998   4.106   6.578   3.759
 6678TIP3    H219999   4.225   6.510   3.824
 6679TIP3   OH220000   1.980   0.757   4.048
 6679TIP3    H120001   1.904   0.699   4.040
 6679TIP3    H220002   2.037   0.713   4.112
 6680TIP3   OH220003   3.871   0.885   5.478
 6680TIP3    H120004   3.902   0.957   5.533
 6680TIP3    H220005   3.946   0.826   5.471
 6681TIP3   OH220006   6.310   3.121   3.842
 6681TIP3    H120007   6.239   3.179   3.869
 6681TIP3    H220008   6.300   3.043   3.897
 6682TIP3   OH220009   2.690   1.792   2.025
 6682TIP3    H120010   2.704   1.702   2.055
 6682TIP3    H220011   2.610   1.820   2.069
 6683TIP3   OH220012   0.288   5.020   3.691
 6683TIP3    H120013   0.225   4.956   3.724
 6683TIP3    H220014   0.332   5.052   3.770
 6684TIP3   OH220015   2.441   4.351   4.342
 6684TIP3    H120016   2.523   4.401   4.346
 6684TIP3    H220017   2.407   4.368   4.254
 6685TIP3   OH220018   0.290   3.826   3.808
 6685TIP3    H120019   0.308   3.910   3.766
 6685TIP3    H220020   0.324   3.836   3.897
 6686TIP3   OH220021   2.314   4.720   0.309
 6686TIP3    H120022   2.238   4.771   0.339
 6686TIP3    H220023   2.328   4.748   0.219
 6687TIP3   OH220024   0.752   3.222   3.303
 6687TIP3    H120025   0.656   3.213   3.308
 6687TIP3    H220026   0.785   3.149   3.355
 6688TIP3   OH220027   4.895   3.239   3.266
 6688TIP3    H120028   4.855   3.255   3.351
 6688TIP3    H220029   4.956   3.312   3.254
 6689TIP3   OH220030   5.631   5.601   3.712
 6689TIP3    H120031   5.563   5.656   3.673
 6689TIP3    H220032   5.661   5.651   3.788
 6690TIP3   OH220033   3.254   3.070   5.012
 6690TIP3    H120034   3.303   2.989   5.000
 6690TIP3    H220035   3.179   3.045   5.066
 6691TIP3   OH220036   5.828   4.636   1.152
 6691TIP3    H120037   5.869   4.626   1.066
 6691TIP3    H220038   5.763   4.566   1.154
 6692TIP3   OH220039   0.288   6.771   2.718
 6692TIP3    H120040   0.238   6.720   2.782
 6692TIP3    H220041   0.226   6.786   2.646
 6693TIP3   OH220042   0.782   4.668   1.907
 6693TIP3    H120043   0.743   4.738   1.960
 6693TIP3    H220044   0.787   4.704   1.818
 6694TIP3   OH220045   7.067   6.652   1.886
 6694TIP3    H120046   7.002   6.582   1.879
 6694TIP3    H220047   7.140   6.612   1.934
 6695TIP3   OH220048   5.722   3.239   2.438
 6695TIP3    H120049   5.634   3.271   2.416
 6695TIP3    H220050   5.718   3.221   2.532
 6696TIP3   OH220051   6.382   1.814   0.922
 6696TIP3    H120052   6.455   1.865   0.957
 6696TIP3    H220053   6.313   1.823   0.988
 6697TIP3   OH220054   5.373   1.072   2.933
 6697TIP3    H120055   5.337   1.001   2.985
 6697TIP3    H220056   5.307   1.089   2.865
 6698TIP3   OH220057   3.297   1.582   3.475
 6698TIP3    H120058   3.238   1.618   3.541
 6698TIP3    H220059   3.279   1.634   3.396
 6699TIP3   OH220060   0.630   1.387   2.800
 6699TIP3    H120061   0.693   1.448   2.839
 6699TIP3    H220062   0.608   1.427   2.716
 6700TIP3   OH220063   6.876   4.196   5.473
 6700TIP3    H120064   6.957   4.178   5.521
 6700TIP3    H220065   6.881   4.290   5.452
 6701TIP3   OH220066   2.478   2.405   0.838
 6701TIP3    H120067   2.417   2.381   0.768
 6701TIP3    H220068   2.425   2.453   0.901
 6702TIP3   OH220069   3.548   0.211   1.867
 6702TIP3    H120070   3.502   0.279   1.818
 6702TIP3    H220071   3.479   0.157   1.905
 6703TIP3   OH220072   1.418   0.108   4.275
 6703TIP3    H120073   1.450   0.113   4.185
 6703TIP3    H220074   1.412   0.014   4.293
 6704TIP3   OH220075   3.091   0.704   1.151
 6704TIP3    H120076   3.092   0.622   1.202
 6704TIP3    H220077   2.999   0.713   1.124
 6705TIP3   OH220078   1.337   2.145   3.556
 6705TIP3    H120079   1.432   2.151   3.546
 6705TIP3    H220080   1.310   2.236   3.572
 6706TIP3   OH220081   4.721   1.369   3.946
 6706TIP3    H120082   4.699   1.291   3.896
 6706TIP3    H220083   4.636   1.406   3.971
 6707TIP3   OH220084   1.567   1.990   4.226
 6707TIP3    H120085   1.593   1.971   4.316
 6707TIP3    H220086   1.613   2.071   4.205
 6708TIP3   OH220087   2.435   1.022   2.034
 6708TIP3    H120088   2.385   1.104   2.034
 6708TIP3    H220089   2.523   1.049   2.009
 6709TIP3   OH220090   6.795   5.305   1.273
 6709TIP3    H120091   6.809   5.390   1.231
 6709TIP3    H220092   6.760   5.325   1.359
 6710TIP3   OH220093   1.559   4.877   0.590
 6710TIP3    H120094   1.566   4.968   0.618
 6710TIP3    H220095   1.514   4.882   0.506
 6711TIP3   OH220096   1.924   3.958   1.155
 6711TIP3    H120097   1.914   4.030   1.093
 6711TIP3    H220098   1.842   3.960   1.206
 6712TIP3   OH220099   6.798   2.816   3.402
 6712TIP3    H120100   6.814   2.870   3.324
 6712TIP3    H220101   6.885   2.799   3.437
 6713TIP3   OH220102   1.841   4.235   0.300
 6713TIP3    H120103   1.824   4.326   0.276
 6713TIP3    H220104   1.852   4.189   0.217
 6714TIP3   OH220105   4.187   6.118   1.848
 6714TIP3    H120106   4.141   6.193   1.809
 6714TIP3    H220107   4.140   6.042   1.813
 6715TIP3   OH220108   2.058   1.443   2.463
 6715TIP3    H120109   2.094   1.523   2.500
 6715TIP3    H220110   1.963   1.452   2.473
 6716TIP3   OH220111   4.937   2.045   3.521
 6716TIP3    H120112   5.024   2.010   3.538
 6716TIP3    H220113   4.882   2.008   3.591
 6717TIP3   OH220114   5.249   4.320   4.861
 6717TIP3    H120115   5.299   4.396   4.891
 6717TIP3    H220116   5.315   4.258   4.830
 6718TIP3   OH220117   3.214   5.941   4.394
 6718TIP3    H120118   3.241   5.887   4.468
 6718TIP3    H220119   3.121   5.923   4.384
 6719TIP3   OH220120   4.168   3.055   0.508
 6719TIP3    H120121   4.203   3.097   0.429
 6719TIP3    H220122   4.245   3.042   0.564
 6720TIP3   OH220123   6.333   0.158   3.276
 6720TIP3    H120124   6.242   0.129   3.274
 6720TIP3    H220125   6.348   0.195   3.189
 6721TIP3   OH220126   2.337   2.373   2.421
 6721TIP3    H120127   2.345   2.277   2.424
 6721TIP3    H220128   2.319   2.393   2.330
 6722TIP3   OH220129   2.895   4.858   5.826
 6722TIP3    H120130   2.903   4.826   5.916
 6722TIP3    H220131   2.986   4.874   5.798
 6723TIP3   OH220132   5.653   1.351   2.731
 6723TIP3    H120133   5.583   1.362   2.667
 6723TIP3    H220134   5.733   1.367   2.681
 6724TIP3   OH220135   3.871   5.856   1.093
 6724TIP3    H120136   3.948   5.851   1.036
 6724TIP3    H220137   3.906   5.842   1.181
 6725TIP3   OH220138   5.000   6.584   1.595
 6725TIP3    H120139   5.059   6.648   1.635
 6725TIP3    H220140   5.045   6.500   1.607
 6726TIP3   OH220141   1.987   5.287   2.825
 6726TIP3    H120142   1.932   5.366   2.828
 6726TIP3    H220143   1.935   5.220   2.870
 6727TIP3   OH220144   4.638   6.309   4.818
 6727TIP3    H120145   4.708   6.306   4.754
 6727TIP3    H220146   4.635   6.401   4.847
 6728TIP3   OH220147   2.494   6.408   3.834
 6728TIP3    H120148   2.530   6.490   3.801
 6728TIP3    H220149   2.536   6.340   3.782
 6729TIP3   OH220150   0.568   1.946   2.188
 6729TIP3    H120151   0.571   1.850   2.183
 6729TIP3    H220152   0.507   1.964   2.260
 6730TIP3   OH220153   2.123   2.203   2.090
 6730TIP3    H120154   2.041   2.253   2.090
 6730TIP3    H220155   2.143   2.191   1.997
 6731TIP3   OH220156   3.619   1.782   1.338
 6731TIP3    H120157   3.576   1.843   1.398
 6731TIP3    H220158   3.612   1.824   1.253
 6732TIP3   OH220159   6.357   0.449   3.262
 6732TIP3    H120160   6.279   0.482   3.217
 6732TIP3    H220161   6.362   0.357   3.236
 6733TIP3   OH220162   1.978   5.949   5.815
 6733TIP3    H120163   2.009   5.969   5.727
 6733TIP3    H220164   1.954   6.034   5.852
 6734TIP3   OH220165   1.740   0.195   2.714
 6734TIP3    H120166   1.733   0.100   2.723
 6734TIP3    H220167   1.668   0.219   2.656
 6735TIP3   OH220168   2.357   1.434   2.712
 6735TIP3    H120169   2.414   1.369   2.671
 6735TIP3    H220170   2.341   1.499   2.644
 6736TIP3   OH220171   1.078   6.552   3.860
 6736TIP3    H120172   0.983   6.547   3.846
 6736TIP3    H220173   1.094   6.496   3.935
 6737TIP3   OH220174   0.435   6.641   4.051
 6737TIP3    H120175   0.358   6.698   4.060
 6737TIP3    H220176   0.473   6.666   3.967
 6738TIP3   OH220177   2.822   1.465   4.932
 6738TIP3    H120178   2.841   1.496   4.844
 6738TIP3    H220179   2.902   1.421   4.960
 6739TIP3   OH220180   5.358   3.026   0.372
 6739TIP3    H120181   5.414   3.102   0.377
 6739TIP3    H220182   5.329   3.011   0.463
 6740TIP3   OH220183   4.858   1.571   3.101
 6740TIP3    H120184   4.942   1.546   3.063
 6740TIP3    H220185   4.826   1.641   3.045
 6741TIP3   OH220186   1.648   5.708   1.355
 6741TIP3    H120187   1.579   5.717   1.290
 6741TIP3    H220188   1.612   5.647   1.420
 6742TIP3   OH220189   2.330   1.355   2.970
 6742TIP3    H120190   2.346   1.373   2.877
 6742TIP3    H220191   2.244   1.313   2.972
 6743TIP3   OH220192   3.897   3.411   2.997
 6743TIP3    H120193   3.936   3.492   3.028
 6743TIP3    H220194   3.925   3.404   2.905
 6744TIP3   OH220195   0.186   6.163   1.448
 6744TIP3    H120196   0.179   6.160   1.352
 6744TIP3    H220197   0.270   6.205   1.464
 6745TIP3   OH220198   4.920   6.133   1.726
 6745TIP3    H120199   4.914   6.065   1.793
 6745TIP3    H220200   4.895   6.088   1.645
 6746TIP3   OH220201   5.265   5.868   0.357
 6746TIP3    H120202   5.327   5.848   0.427
 6746TIP3    H220203   5.181   5.838   0.391
 6747TIP3   OH220204   4.393   6.461   0.509
 6747TIP3    H120205   4.486   6.480   0.508
 6747TIP3    H220206   4.384   6.386   0.568
 6748TIP3   OH220207   1.274   0.321   3.561
 6748TIP3    H120208   1.327   0.244   3.541
 6748TIP3    H220209   1.223   0.337   3.482
 6749TIP3   OH220210   1.208   2.502   2.317
 6749TIP3    H120211   1.249   2.555   2.249
 6749TIP3    H220212   1.210   2.558   2.395
 6750TIP3   OH220213   1.482   3.007   5.135
 6750TIP3    H120214   1.413   3.043   5.078
 6750TIP3    H220215   1.501   3.078   5.197
 6751TIP3   OH220216   3.768   2.428   2.787
 6751TIP3    H120217   3.822   2.501   2.814
 6751TIP3    H220218   3.822   2.378   2.726
 6752TIP3   OH220219   0.405   0.283   2.134
 6752TIP3    H120220   0.471   0.222   2.166
 6752TIP3    H220221   0.408   0.357   2.195
 6753TIP3   OH220222   1.372   4.663   2.881
 6753TIP3    H120223   1.400   4.686   2.970
 6753TIP3    H220224   1.403   4.573   2.870
 6754TIP3   OH220225   5.324   4.889   2.591
 6754TIP3    H120226   5.417   4.889   2.612
 6754TIP3    H220227   5.283   4.844   2.665
 6755TIP3   OH220228   5.072   6.131   4.456
 6755TIP3    H120229   5.054   6.222   4.436
 6755TIP3    H220230   4.989   6.086   4.439
 6756TIP3   OH220231   3.304   3.947   4.230
 6756TIP3    H120232   3.265   4.023   4.187
 6756TIP3    H220233   3.234   3.882   4.233
 6757TIP3   OH220234   3.820   3.905   2.513
 6757TIP3    H120235   3.763   3.980   2.528
 6757TIP3    H220236   3.859   3.921   2.427
 6758TIP3   OH220237   1.613   5.465   1.484
 6758TIP3    H120238   1.651   5.382   1.513
 6758TIP3    H220239   1.520   5.445   1.469
 6759TIP3   OH220240   0.291   6.721   3.101
 6759TIP3    H120241   0.380   6.733   3.067
 6759TIP3    H220242   0.243   6.798   3.070
 6760TIP3   OH220243   2.320   4.988   2.910
 6760TIP3    H120244   2.355   5.075   2.932
 6760TIP3    H220245   2.242   5.007   2.858
 6761TIP3   OH220246   5.060   4.138   1.757
 6761TIP3    H120247   5.019   4.085   1.688
 6761TIP3    H220248   5.049   4.228   1.727
 6762TIP3   OH220249   3.402   2.978   1.718
 6762TIP3    H120250   3.416   2.889   1.685
 6762TIP3    H220251   3.340   3.017   1.656
 6763TIP3   OH220252   3.941   0.425   2.754
 6763TIP3    H120253   3.999   0.371   2.701
 6763TIP3    H220254   3.949   0.389   2.842
 6764TIP3   OH220255   6.465   3.239   2.030
 6764TIP3    H120256   6.525   3.167   2.011
 6764TIP3    H220257   6.491   3.271   2.116
 6765TIP3   OH220258   5.879   1.774   4.798
 6765TIP3    H120259   5.905   1.682   4.793
 6765TIP3    H220260   5.894   1.798   4.890
 6766TIP3   OH220261   2.335   5.767   5.390
 6766TIP3    H120262   2.260   5.726   5.347
 6766TIP3    H220263   2.355   5.711   5.464
 6767TIP3   OH220264   4.892   3.105   3.649
 6767TIP3    H120265   4.977   3.093   3.607
 6767TIP3    H220266   4.843   3.160   3.588
 6768TIP3   OH220267   3.118   5.004   4.517
 6768TIP3    H120268   3.188   4.988   4.454
 6768TIP3    H220269   3.079   5.086   4.489
 6769TIP3   OH220270   2.939   5.822   4.398
 6769TIP3    H120271   2.884   5.900   4.393
 6769TIP3    H220272   2.921   5.785   4.485
 6770TIP3   OH220273   1.643   0.317   4.813
 6770TIP3    H120274   1.681   0.236   4.778
 6770TIP3    H220275   1.564   0.330   4.760
 6771TIP3   OH220276   2.405   0.377   0.461
 6771TIP3    H120277   2.309   0.376   0.454
 6771TIP3    H220278   2.430   0.464   0.430
 6772TIP3   OH220279   2.987   3.699   0.702
 6772TIP3    H120280   2.966   3.735   0.616
 6772TIP3    H220281   2.914   3.726   0.758
 6773TIP3   OH220282   4.090   1.226   2.905
 6773TIP3    H120283   4.065   1.211   2.996
 6773TIP3    H220284   4.108   1.320   2.900
 6774TIP3   OH220285   6.911   1.179   5.439
 6774TIP3    H120286   6.960   1.256   5.468
 6774TIP3    H220287   6.867   1.207   5.359
 6775TIP3   OH220288   5.171   6.835   0.714
 6775TIP3    H120289   5.143   6.869   0.799
 6775TIP3    H220290   5.107   6.871   0.652
 6776TIP3   OH220291   5.030   2.379   5.222
 6776TIP3    H120292   5.017   2.464   5.264
 6776TIP3    H220293   5.048   2.401   5.131
 6777TIP3   OH220294   0.449   3.001   4.094
 6777TIP3    H120295   0.544   2.988   4.099
 6777TIP3    H220296   0.427   2.980   4.003
 6778TIP3   OH220297   7.191   1.813   1.869
 6778TIP3    H120298   7.164   1.750   1.936
 6778TIP3    H220299   7.235   1.761   1.802
 6779TIP3   OH220300   3.821   5.004   3.295
 6779TIP3    H120301   3.766   4.982   3.221
 6779TIP3    H220302   3.806   4.934   3.358
 6780TIP3   OH220303   1.781   1.198   3.786
 6780TIP3    H120304   1.820   1.113   3.808
 6780TIP3    H220305   1.695   1.196   3.828
 6781TIP3   OH220306   0.118   2.618   4.494
 6781TIP3    H120307   0.038   2.639   4.447
 6781TIP3    H220308   0.094   2.542   4.548
 6782TIP3   OH220309   5.112   2.714   0.831
 6782TIP3    H120310   5.103   2.618   0.833
 6782TIP3    H220311   5.124   2.738   0.923
 6783TIP3   OH220312   6.896   3.106   1.459
 6783TIP3    H120313   6.832   3.045   1.425
 6783TIP3    H220314   6.961   3.051   1.504
 6784TIP3   OH220315   0.670   2.196   4.538
 6784TIP3    H120316   0.663   2.110   4.578
 6784TIP3    H220317   0.756   2.229   4.566
 6785TIP3   OH220318   4.657   3.845   0.887
 6785TIP3    H120319   4.736   3.899   0.885
 6785TIP3    H220320   4.678   3.773   0.946
 6786TIP3   OH220321   2.291   4.313   0.251
 6786TIP3    H120322   2.239   4.284   0.327
 6786TIP3    H220323   2.381   4.315   0.283
 6787TIP3   OH220324   0.886   2.407   5.430
 6787TIP3    H120325   0.896   2.315   5.454
 6787TIP3    H220326   0.970   2.431   5.391
 6788TIP3   OH220327   1.829   2.991   4.049
 6788TIP3    H120328   1.750   2.936   4.060
 6788TIP3    H220329   1.799   3.065   3.996
 6789TIP3   OH220330   6.472   5.045   2.099
 6789TIP3    H120331   6.470   5.042   2.003
 6789TIP3    H220332   6.381   5.032   2.125
 6790TIP3   OH220333   4.298   3.173   5.746
 6790TIP3    H120334   4.373   3.167   5.805
 6790TIP3    H220335   4.247   3.093   5.764
 6791TIP3   OH220336   7.136   5.747   2.931
 6791TIP3    H120337   7.125   5.652   2.929
 6791TIP3    H220338   7.071   5.780   2.869
 6792TIP3   OH220339   6.933   3.635   5.249
 6792TIP3    H120340   6.968   3.575   5.184
 6792TIP3    H220341   7.007   3.690   5.274
 6793TIP3   OH220342   0.951   3.165   5.408
 6793TIP3    H120343   0.902   3.106   5.465
 6793TIP3    H220344   1.037   3.174   5.450
 6794TIP3   OH220345   2.038   5.050   0.800
 6794TIP3    H120346   2.052   4.979   0.736
 6794TIP3    H220347   2.084   5.020   0.878
 6795TIP3   OH220348   1.593   6.251   2.336
 6795TIP3    H120349   1.547   6.203   2.268
 6795TIP3    H220350   1.526   6.308   2.375
 6796TIP3   OH220351   0.141   2.364   0.197
 6796TIP3    H120352   0.163   2.450   0.162
 6796TIP3    H220353   0.225   2.329   0.228
 6797TIP3   OH220354   2.838   0.207   0.129
 6797TIP3    H120355   2.763   0.151   0.148
 6797TIP3    H220356   2.805   0.296   0.142
 6798TIP3   OH220357   6.913   3.886   2.723
 6798TIP3    H120358   6.934   3.936   2.644
 6798TIP3    H220359   6.997   3.851   2.752
 6799TIP3   OH220360   1.097   2.512   5.271
 6799TIP3    H120361   1.184   2.489   5.303
 6799TIP3    H220362   1.084   2.603   5.300
 6800TIP3   OH220363   7.086   4.408   3.994
 6800TIP3    H120364   7.130   4.484   3.954
 6800TIP3    H220365   7.003   4.401   3.947
 6801TIP3   OH220366   5.697   0.931   1.090
 6801TIP3    H120367   5.787   0.933   1.122
 6801TIP3    H220368   5.684   1.016   1.048
 6802TIP3   OH220369   0.540   6.440   4.825
 6802TIP3    H120370   0.579   6.443   4.738
 6802TIP3    H220371   0.469   6.505   4.823
 6803TIP3   OH220372   0.341   4.729   2.757
 6803TIP3    H120373   0.420   4.739   2.704
 6803TIP3    H220374   0.374   4.703   2.843
 6804TIP3   OH220375   3.117   3.582   0.200
 6804TIP3    H120376   3.072   3.658   0.165
 6804TIP3    H220377   3.097   3.511   0.139
 6805TIP3   OH220378   4.858   4.984   2.076
 6805TIP3    H120379   4.766   5.009   2.072
 6805TIP3    H220380   4.898   5.026   2.000
 6806TIP3   OH220381   1.051   2.789   1.557
 6806TIP3    H120382   1.053   2.746   1.642
 6806TIP3    H220383   1.123   2.852   1.560
 6807TIP3   OH220384   4.482   2.627   1.271
 6807TIP3    H120385   4.463   2.720   1.260
 6807TIP3    H220386   4.569   2.625   1.311
 6808TIP3   OH220387   6.727   1.102   3.510
 6808TIP3    H120388   6.755   1.146   3.429
 6808TIP3    H220389   6.693   1.018   3.480
 6809TIP3   OH220390   0.874   2.344   4.640
 6809TIP3    H120391   0.860   2.438   4.652
 6809TIP3    H220392   0.894   2.312   4.728
 6810TIP3   OH220393   5.487   0.595   5.563
 6810TIP3    H120394   5.507   0.555   5.648
 6810TIP3    H220395   5.464   0.521   5.507
 6811TIP3   OH220396   5.222   5.868   3.139
 6811TIP3    H120397   5.183   5.792   3.097
 6811TIP3    H220398   5.314   5.865   3.113
 6812TIP3   OH220399   6.935   2.527   3.298
 6812TIP3    H120400   6.866   2.557   3.240
 6812TIP3    H220401   6.894   2.522   3.384
 6813TIP3   OH220402   1.251   5.079   2.947
 6813TIP3    H120403   1.225   5.161   2.906
 6813TIP3    H220404   1.336   5.098   2.987
 6814TIP3   OH220405   6.605   1.525   2.095
 6814TIP3    H120406   6.523   1.533   2.047
 6814TIP3    H220407   6.607   1.434   2.125
 6815TIP3   OH220408   4.619   6.823   1.931
 6815TIP3    H120409   4.565   6.773   1.870
 6815TIP3    H220410   4.708   6.790   1.917
 6816TIP3   OH220411   4.011   0.869   3.575
 6816TIP3    H120412   4.105   0.880   3.590
 6816TIP3    H220413   4.002   0.872   3.480
 6817TIP3   OH220414   1.288   3.863   3.935
 6817TIP3    H120415   1.221   3.846   4.002
 6817TIP3    H220416   1.267   3.950   3.903
 6818TIP3   OH220417   3.726   1.523   1.380
 6818TIP3    H120418   3.707   1.616   1.393
 6818TIP3    H220419   3.642   1.484   1.357
 6819TIP3   OH220420   4.983   3.851   1.299
 6819TIP3    H120421   4.909   3.792   1.284
 6819TIP3    H220422   5.061   3.797   1.284
 6820TIP3   OH220423   5.276   2.706   1.343
 6820TIP3    H120424   5.307   2.775   1.285
 6820TIP3    H220425   5.351   2.648   1.353
 6821TIP3   OH220426   5.762   4.551   2.690
 6821TIP3    H120427   5.807   4.604   2.756
 6821TIP3    H220428   5.750   4.466   2.732
 6822TIP3   OH220429   1.451   6.096   0.669
 6822TIP3    H120430   1.402   6.051   0.600
 6822TIP3    H220431   1.411   6.065   0.750
 6823TIP3   OH220432   2.746   5.083   2.948
 6823TIP3    H120433   2.669   5.134   2.924
 6823TIP3    H220434   2.810   5.102   2.879
 6824TIP3   OH220435   1.346   4.793   0.110
 6824TIP3    H120436   1.372   4.702   0.124
 6824TIP3    H220437   1.424   4.835   0.072
 6825TIP3   OH220438   4.279   0.911   1.358
 6825TIP3    H120439   4.315   0.878   1.440
 6825TIP3    H220440   4.209   0.971   1.385
 6826TIP3   OH220441   5.839   4.737   1.410
 6826TIP3    H120442   5.745   4.741   1.429
 6826TIP3    H220443   5.844   4.736   1.315
 6827TIP3   OH220444   4.074   0.822   0.217
 6827TIP3    H120445   4.015   0.748   0.226
 6827TIP3    H220446   4.043   0.885   0.282
 6828TIP3   OH220447   2.994   4.123   0.666
 6828TIP3    H120448   2.937   4.175   0.609
 6828TIP3    H220449   3.044   4.069   0.605
 6829TIP3   OH220450   3.762   1.376   5.195
 6829TIP3    H120451   3.817   1.429   5.251
 6829TIP3    H220452   3.811   1.295   5.182
 6830TIP3   OH220453   4.650   5.210   4.719
 6830TIP3    H120454   4.635   5.258   4.638
 6830TIP3    H220455   4.742   5.228   4.741
 6831TIP3   OH220456   2.266   0.838   2.504
 6831TIP3    H120457   2.200   0.854   2.571
 6831TIP3    H220458   2.277   0.743   2.504
 6832TIP3   OH220459   6.528   2.533   1.878
 6832TIP3    H120460   6.457   2.565   1.822
 6832TIP3    H220461   6.571   2.465   1.825
 6833TIP3   OH220462   0.732   3.211   0.067
 6833TIP3    H120463   0.662   3.195   0.003
 6833TIP3    H220464   0.708   3.156   0.142
 6834TIP3   OH220465   5.674   2.029   0.568
 6834TIP3    H120466   5.673   1.955   0.507
 6834TIP3    H220467   5.722   1.996   0.644
 6835TIP3   OH220468   6.813   5.498   3.164
 6835TIP3    H120469   6.768   5.415   3.147
 6835TIP3    H220470   6.905   5.480   3.143
 6836TIP3   OH220471   3.229   4.857   5.064
 6836TIP3    H120472   3.263   4.771   5.090
 6836TIP3    H220473   3.230   4.855   4.968
 6837TIP3   OH220474   3.792   1.768   1.076
 6837TIP3    H120475   3.749   1.684   1.063
 6837TIP3    H220476   3.723   1.833   1.061
 6838TIP3   OH220477   3.194   0.498   2.912
 6838TIP3    H120478   3.230   0.479   2.825
 6838TIP3    H220479   3.111   0.452   2.914
 6839TIP3   OH220480   6.499   2.887   1.287
 6839TIP3    H120481   6.502   2.981   1.306
 6839TIP3    H220482   6.477   2.883   1.194
 6840TIP3   OH220483   1.422   3.624   4.484
 6840TIP3    H120484   1.382   3.666   4.408
 6840TIP3    H220485   1.507   3.666   4.494
 6841TIP3   OH220486   4.551   3.840   3.010
 6841TIP3    H120487   4.519   3.867   2.924
 6841TIP3    H220488   4.617   3.773   2.991
 6842TIP3   OH220489   2.008   5.722   0.682
 6842TIP3    H120490   2.100   5.746   0.681
 6842TIP3    H220491   2.001   5.658   0.753
 6843TIP3   OH220492   7.119   1.184   4.757
 6843TIP3    H120493   7.067   1.256   4.720
 6843TIP3    H220494   7.139   1.213   4.846
 6844TIP3   OH220495   2.856   2.463   5.694
 6844TIP3    H120496   2.840   2.532   5.630
 6844TIP3    H220497   2.867   2.383   5.642
 6845TIP3   OH220498   4.530   3.488   4.094
 6845TIP3    H120499   4.502   3.491   4.185
 6845TIP3    H220500   4.617   3.449   4.096
 6846TIP3   OH220501   4.327   5.505   3.269
 6846TIP3    H120502   4.317   5.477   3.360
 6846TIP3    H220503   4.305   5.427   3.217
 6847TIP3   OH220504   0.455   3.554   2.008
 6847TIP3    H120505   0.459   3.603   1.926
 6847TIP3    H220506   0.518   3.597   2.065
 6848TIP3   OH220507   6.052   3.629   1.350
 6848TIP3    H120508   6.077   3.718   1.326
 6848TIP3    H220509   6.029   3.588   1.267
 6849TIP3   OH220510   0.372   1.680   2.849
 6849TIP3    H120511   0.382   1.682   2.944
 6849TIP3    H220512   0.457   1.708   2.815
 6850TIP3   OH220513   6.560   5.848   3.006
 6850TIP3    H120514   6.585   5.786   3.074
 6850TIP3    H220515   6.547   5.794   2.928
 6851TIP3   OH220516   1.245   0.890   4.853
 6851TIP3    H120517   1.162   0.896   4.805
 6851TIP3    H220518   1.311   0.879   4.785
 6852TIP3   OH220519   5.628   1.964   4.317
 6852TIP3    H120520   5.702   1.983   4.374
 6852TIP3    H220521   5.578   1.896   4.363
 6853TIP3   OH220522   5.332   3.303   4.235
 6853TIP3    H120523   5.262   3.365   4.214
 6853TIP3    H220524   5.341   3.308   4.330
 6854TIP3   OH220525   5.811   4.339   3.527
 6854TIP3    H120526   5.761   4.276   3.580
 6854TIP3    H220527   5.826   4.293   3.444
 6855TIP3   OH220528   4.887   5.863   0.301
 6855TIP3    H120529   4.950   5.821   0.243
 6855TIP3    H220530   4.880   5.803   0.376
 6856TIP3   OH220531   5.216   3.782   0.787
 6856TIP3    H120532   5.233   3.868   0.825
 6856TIP3    H220533   5.298   3.734   0.799
 6857TIP3   OH220534   2.935   1.163   5.205
 6857TIP3    H120535   3.005   1.170   5.140
 6857TIP3    H220536   2.980   1.174   5.289
 6858TIP3   OH220537   1.932   1.419   2.906
 6858TIP3    H120538   1.994   1.492   2.918
 6858TIP3    H220539   1.982   1.354   2.857
 6859TIP3   OH220540   2.497   6.226   5.504
 6859TIP3    H120541   2.481   6.312   5.465
 6859TIP3    H220542   2.586   6.204   5.478
 6860TIP3   OH220543   3.739   6.278   1.099
 6860TIP3    H120544   3.740   6.221   1.176
 6860TIP3    H220545   3.658   6.255   1.053
 6861TIP3   OH220546   5.706   6.100   2.633
 6861TIP3    H120547   5.731   6.069   2.545
 6861TIP3    H220548   5.620   6.140   2.621
 6862TIP3   OH220549   0.786   5.324   1.745
 6862TIP3    H120550   0.801   5.229   1.736
 6862TIP3    H220551   0.690   5.333   1.739
 6863TIP3   OH220552   2.329   6.193   1.968
 6863TIP3    H120553   2.278   6.114   1.987
 6863TIP3    H220554   2.313   6.210   1.875
 6864TIP3   OH220555   2.723   6.406   1.952
 6864TIP3    H120556   2.796   6.366   1.999
 6864TIP3    H220557   2.674   6.333   1.916
 6865TIP3   OH220558   7.129   1.191   0.171
 6865TIP3    H120559   7.043   1.151   0.156
 6865TIP3    H220560   7.154   1.225   0.085
 6866TIP3   OH220561   4.571   5.151   4.056
 6866TIP3    H120562   4.568   5.201   4.138
 6866TIP3    H220563   4.604   5.065   4.082
 6867TIP3   OH220564   4.689   6.660   2.562
 6867TIP3    H120565   4.776   6.688   2.536
 6867TIP3    H220566   4.666   6.591   2.501
 6868TIP3   OH220567   6.134   1.282   2.686
 6868TIP3    H120568   6.219   1.246   2.660
 6868TIP3    H220569   6.124   1.361   2.633
 6869TIP3   OH220570   2.659   0.955   0.590
 6869TIP3    H120571   2.657   1.045   0.557
 6869TIP3    H220572   2.615   0.960   0.675
 6870TIP3   OH220573   6.492   2.224   5.181
 6870TIP3    H120574   6.486   2.242   5.275
 6870TIP3    H220575   6.568   2.168   5.172
 6871TIP3   OH220576   3.873   6.674   4.134
 6871TIP3    H120577   3.934   6.706   4.068
 6871TIP3    H220578   3.786   6.694   4.098
 6872TIP3   OH220579   3.724   4.335   0.698
 6872TIP3    H120580   3.697   4.243   0.703
 6872TIP3    H220581   3.820   4.332   0.697
 6873TIP3   OH220582   3.906   1.809   5.815
 6873TIP3    H120583   3.983   1.752   5.826
 6873TIP3    H220584   3.833   1.749   5.807
 6874TIP3   OH220585   2.767   2.280   2.398
 6874TIP3    H120586   2.689   2.333   2.387
 6874TIP3    H220587   2.840   2.340   2.380
 6875TIP3   OH220588   6.294   1.161   4.095
 6875TIP3    H120589   6.215   1.107   4.093
 6875TIP3    H220590   6.308   1.187   4.004
 6876TIP3   OH220591   2.573   2.525   1.150
 6876TIP3    H120592   2.593   2.444   1.103
 6876TIP3    H220593   2.659   2.567   1.164
 6877TIP3   OH220594   2.288   3.798   0.327
 6877TIP3    H120595   2.300   3.864   0.395
 6877TIP3    H220596   2.374   3.756   0.320
 6878TIP3   OH220597   5.737   5.751   1.737
 6878TIP3    H120598   5.659   5.742   1.683
 6878TIP3    H220599   5.806   5.778   1.677
 6879TIP3   OH220600   5.080   6.052   3.441
 6879TIP3    H120601   5.001   6.090   3.480
 6879TIP3    H220602   5.152   6.091   3.491
 6880TIP3   OH220603   2.857   2.714   5.527
 6880TIP3    H120604   2.921   2.732   5.458
 6880TIP3    H220605   2.882   2.773   5.598
 6881TIP3   OH220606   0.298   3.468   1.232
 6881TIP3    H120607   0.303   3.498   1.323
 6881TIP3    H220608   0.326   3.543   1.180
 6882TIP3   OH220609   4.420   3.719   5.571
 6882TIP3    H120610   4.339   3.734   5.523
 6882TIP3    H220611   4.482   3.780   5.532
 6883TIP3   OH220612   3.830   1.089   4.920
 6883TIP3    H120613   3.745   1.073   4.962
 6883TIP3    H220614   3.844   1.012   4.865
 6884TIP3   OH220615   6.428   2.289   3.828
 6884TIP3    H120616   6.488   2.249   3.767
 6884TIP3    H220617   6.484   2.338   3.889
 6885TIP3   OH220618   5.398   0.126   2.959
 6885TIP3    H120619   5.481   0.167   2.935
 6885TIP3    H220620   5.333   0.171   2.905
 6886TIP3   OH220621   3.904   0.815   4.817
 6886TIP3    H120622   3.982   0.850   4.861
 6886TIP3    H220623   3.870   0.750   4.878
 6887TIP3   OH220624   4.467   3.570   3.372
 6887TIP3    H120625   4.376   3.559   3.402
 6887TIP3    H220626   4.464   3.646   3.313
 6888TIP3   OH220627   4.060   0.136   4.163
 6888TIP3    H120628   4.122   0.118   4.234
 6888TIP3    H220629   3.983   0.171   4.207
 6889TIP3   OH220630   6.863   0.138   4.237
 6889TIP3    H120631   6.907   0.189   4.169
 6889TIP3    H220632   6.812   0.201   4.286
 6890TIP3   OH220633   5.760   1.874   0.779
 6890TIP3    H120634   5.774   1.805   0.843
 6890TIP3    H220635   5.691   1.929   0.816
 6891TIP3   OH220636   0.530   0.747   3.843
 6891TIP3    H120637   0.580   0.724   3.765
 6891TIP3    H220638   0.517   0.665   3.889
 6892TIP3   OH220639   3.374   5.677   0.774
 6892TIP3    H120640   3.283   5.681   0.746
 6892TIP3    H220641   3.422   5.728   0.709
 6893TIP3   OH220642  -0.048   1.179   4.001
 6893TIP3    H120643  -0.120   1.217   3.951
 6893TIP3    H220644   0.030   1.205   3.954
 6894TIP3   OH220645   6.747   4.508   2.020
 6894TIP3    H120646   6.714   4.421   2.000
 6894TIP3    H220647   6.681   4.568   1.987
 6895TIP3   OH220648   0.020   1.121   0.983
 6895TIP3    H120649  -0.007   1.202   0.940
 6895TIP3    H220650   0.070   1.074   0.916
 6896TIP3   OH220651   5.763   0.672   2.291
 6896TIP3    H120652   5.750   0.736   2.361
 6896TIP3    H220653   5.726   0.591   2.325
 6897TIP3   OH220654   6.377   6.574   3.996
 6897TIP3    H120655   6.304   6.517   3.973
 6897TIP3    H220656   6.349   6.661   3.968
 6898TIP3   OH220657   3.078   4.528   5.433
 6898TIP3    H120658   3.024   4.536   5.511
 6898TIP3    H220659   3.048   4.599   5.376
 6899TIP3   OH220660   2.005   6.522   0.985
 6899TIP3    H120661   1.990   6.569   1.067
 6899TIP3    H220662   2.100   6.508   0.983
 6900TIP3   OH220663   4.103   5.185   4.388
 6900TIP3    H120664   4.122   5.245   4.461
 6900TIP3    H220665   4.034   5.229   4.339
 6901TIP3   OH220666   0.122   0.931   3.289
 6901TIP3    H120667   0.151   1.009   3.242
 6901TIP3    H220668   0.105   0.961   3.378
 6902TIP3   OH220669   0.677   6.247   3.336
 6902TIP3    H120670   0.722   6.292   3.264
 6902TIP3    H220671   0.741   6.186   3.371
 6903TIP3   OH220672   6.929   5.110   1.115
 6903TIP3    H120673   6.872   5.063   1.053
 6903TIP3    H220674   6.870   5.142   1.182
 6904TIP3   OH220675   4.249   6.495   1.172
 6904TIP3    H120676   4.260   6.547   1.252
 6904TIP3    H220677   4.173   6.440   1.190
 6905TIP3   OH220678   6.937   2.366   1.168
 6905TIP3    H120679   7.000   2.392   1.101
 6905TIP3    H220680   6.852   2.393   1.133
 6906TIP3   OH220681   1.279   4.134   3.797
 6906TIP3    H120682   1.256   4.222   3.829
 6906TIP3    H220683   1.372   4.140   3.775
 6907TIP3   OH220684   6.834   3.547   5.634
 6907TIP3    H120685   6.774   3.549   5.708
 6907TIP3    H220686   6.818   3.630   5.588
 6908TIP3   OH220687   5.128   4.261   4.611
 6908TIP3    H120688   5.204   4.287   4.561
 6908TIP3    H220689   5.150   4.282   4.702
 6909TIP3   OH220690   1.738   4.387   0.663
 6909TIP3    H120691   1.671   4.399   0.595
 6909TIP3    H220692   1.691   4.402   0.745
 6910TIP3   OH220693   6.414   3.465   4.046
 6910TIP3    H120694   6.476   3.402   4.082
 6910TIP3    H220695   6.359   3.491   4.120
 6911TIP3   OH220696   3.112   3.611   5.767
 6911TIP3    H120697   3.030   3.644   5.730
 6911TIP3    H220698   3.173   3.685   5.760
 6912TIP3   OH220699   4.514   6.246   1.527
 6912TIP3    H120700   4.593   6.292   1.553
 6912TIP3    H220701   4.545   6.163   1.491
 6913TIP3   OH220702   6.032   3.296   3.057
 6913TIP3    H120703   6.022   3.284   2.963
 6913TIP3    H220704   5.990   3.379   3.076
 6914TIP3   OH220705   1.741   2.641   1.693
 6914TIP3    H120706   1.804   2.638   1.621
 6914TIP3    H220707   1.769   2.714   1.748
 6915TIP3   OH220708   4.938   6.130   2.740
 6915TIP3    H120709   4.932   6.074   2.663
 6915TIP3    H220710   4.944   6.070   2.814
 6916TIP3   OH220711   3.458   0.992   1.981
 6916TIP3    H120712   3.397   0.921   2.001
 6916TIP3    H220713   3.405   1.057   1.935
 6917TIP3   OH220714   1.220   5.360   4.982
 6917TIP3    H120715   1.261   5.343   5.067
 6917TIP3    H220716   1.292   5.359   4.920
 6918TIP3   OH220717   3.817   4.128   4.534
 6918TIP3    H120718   3.874   4.192   4.492
 6918TIP3    H220719   3.741   4.178   4.563
 6919TIP3   OH220720   3.379   3.193   0.790
 6919TIP3    H120721   3.320   3.225   0.721
 6919TIP3    H220722   3.435   3.129   0.745
 6920TIP3   OH220723   3.447   6.000   1.688
 6920TIP3    H120724   3.501   5.949   1.627
 6920TIP3    H220725   3.510   6.036   1.750
 6921TIP3   OH220726   0.395   0.514   3.647
 6921TIP3    H120727   0.388   0.452   3.719
 6921TIP3    H220728   0.318   0.571   3.657
 6922TIP3   OH220729   2.980   4.391   4.887
 6922TIP3    H120730   3.042   4.344   4.831
 6922TIP3    H220731   3.012   4.375   4.976
 6923TIP3   OH220732   6.038   1.048   3.199
 6923TIP3    H120733   6.122   1.048   3.155
 6923TIP3    H220734   6.003   1.136   3.186
 6924TIP3   OH220735   1.134   0.416   1.393
 6924TIP3    H120736   1.184   0.406   1.311
 6924TIP3    H220737   1.090   0.332   1.404
 6925TIP3   OH220738   6.250   0.901   1.663
 6925TIP3    H120739   6.190   0.968   1.632
 6925TIP3    H220740   6.321   0.949   1.704
 6926TIP3   OH220741   3.481   0.916   0.871
 6926TIP3    H120742   3.404   0.865   0.893
 6926TIP3    H220743   3.474   0.932   0.777
 6927TIP3   OH220744   4.904   4.416   4.570
 6927TIP3    H120745   4.985   4.371   4.594
 6927TIP3    H220746   4.873   4.456   4.652
 6928TIP3   OH220747   0.326   4.378   0.263
 6928TIP3    H120748   0.317   4.282   0.270
 6928TIP3    H220749   0.418   4.391   0.240
 6929TIP3   OH220750   2.290   2.150   3.825
 6929TIP3    H120751   2.243   2.150   3.909
 6929TIP3    H220752   2.337   2.233   3.823
 6930TIP3   OH220753   2.374   2.788   2.081
 6930TIP3    H120754   2.453   2.837   2.105
 6930TIP3    H220755   2.407   2.710   2.036
 6931TIP3   OH220756   6.930   0.748   2.803
 6931TIP3    H120757   6.976   0.717   2.726
 6931TIP3    H220758   6.866   0.811   2.769
 6932TIP3   OH220759   5.899   2.648   3.753
 6932TIP3    H120760   5.874   2.560   3.725
 6932TIP3    H220761   5.972   2.634   3.814
 6933TIP3   OH220762   1.236   4.503   3.338
 6933TIP3    H120763   1.234   4.426   3.281
 6933TIP3    H220764   1.146   4.535   3.337
 6934TIP3   OH220765   0.336   0.122   0.974
 6934TIP3    H120766   0.406   0.186   0.960
 6934TIP3    H220767   0.294   0.149   1.055
 6935TIP3   OH220768   5.859   4.855   5.511
 6935TIP3    H120769   5.845   4.823   5.600
 6935TIP3    H220770   5.785   4.914   5.495
 6936TIP3   OH220771   1.282   3.794   5.333
 6936TIP3    H120772   1.292   3.749   5.249
 6936TIP3    H220773   1.219   3.864   5.316
 6937TIP3   OH220774   3.686   4.620   2.450
 6937TIP3    H120775   3.672   4.591   2.540
 6937TIP3    H220776   3.653   4.710   2.448
 6938TIP3   OH220777   1.672   4.449   0.951
 6938TIP3    H120778   1.652   4.539   0.979
 6938TIP3    H220779   1.586   4.408   0.941
 6939TIP3   OH220780   1.220   4.934   3.183
 6939TIP3    H120781   1.160   4.999   3.221
 6939TIP3    H220782   1.232   4.963   3.092
 6940TIP3   OH220783   5.450   3.588   2.971
 6940TIP3    H120784   5.384   3.530   2.933
 6940TIP3    H220785   5.416   3.608   3.058
 6941TIP3   OH220786   4.011   0.317   5.471
 6941TIP3    H120787   4.027   0.308   5.377
 6941TIP3    H220788   3.962   0.238   5.494
 6942TIP3   OH220789   5.615   6.491   3.720
 6942TIP3    H120790   5.623   6.543   3.640
 6942TIP3    H220791   5.646   6.549   3.790
 6943TIP3   OH220792   5.445   2.576   4.208
 6943TIP3    H120793   5.411   2.660   4.240
 6943TIP3    H220794   5.405   2.567   4.121
 6944TIP3   OH220795   4.007   5.142   5.737
 6944TIP3    H120796   4.057   5.073   5.694
 6944TIP3    H220797   3.936   5.163   5.676
 6945TIP3   OH220798   3.364   4.392   0.566
 6945TIP3    H120799   3.272   4.416   0.560
 6945TIP3    H220800   3.374   4.355   0.654
 6946TIP3   OH220801   1.618   1.046   5.443
 6946TIP3    H120802   1.536   1.011   5.477
 6946TIP3    H220803   1.596   1.135   5.413
 6947TIP3   OH220804   0.240   2.496   5.364
 6947TIP3    H120805   0.205   2.411   5.338
 6947TIP3    H220806   0.167   2.539   5.409
 6948TIP3   OH220807   5.793   0.152   1.497
 6948TIP3    H120808   5.767   0.216   1.564
 6948TIP3    H220809   5.833   0.081   1.547
 6949TIP3   OH220810   4.458   2.071   2.900
 6949TIP3    H120811   4.424   2.142   2.847
 6949TIP3    H220812   4.425   2.089   2.988
 6950TIP3   OH220813   6.249   2.701   3.431
 6950TIP3    H120814   6.279   2.780   3.386
 6950TIP3    H220815   6.209   2.733   3.512
 6951TIP3   OH220816   6.339   3.886   4.753
 6951TIP3    H120817   6.265   3.923   4.802
 6951TIP3    H220818   6.320   3.909   4.662
 6952TIP3   OH220819   0.725   5.094   4.296
 6952TIP3    H120820   0.767   5.052   4.221
 6952TIP3    H220821   0.752   5.186   4.291
 6953TIP3   OH220822   0.643   2.230   5.396
 6953TIP3    H120823   0.657   2.322   5.375
 6953TIP3    H220824   0.552   2.225   5.423
 6954TIP3   OH220825   2.020   5.940   1.514
 6954TIP3    H120826   1.936   5.945   1.468
 6954TIP3    H220827   2.086   5.949   1.445
 6955TIP3   OH220828   0.046   3.767   4.068
 6955TIP3    H120829   0.002   3.717   4.000
 6955TIP3    H220830   0.128   3.720   4.084
 6956TIP3   OH220831   6.152   5.250   2.699
 6956TIP3    H120832   6.143   5.299   2.617
 6956TIP3    H220833   6.087   5.288   2.757
 6957TIP3   OH220834   2.891   5.958   0.112
 6957TIP3    H120835   2.867   5.877   0.157
 6957TIP3    H220836   2.834   5.961   0.036
 6958TIP3   OH220837   0.810   5.948   2.273
 6958TIP3    H120838   0.869   5.877   2.245
 6958TIP3    H220839   0.854   6.028   2.244
 6959TIP3   OH220840   2.540   1.495   3.189
 6959TIP3    H120841   2.606   1.432   3.157
 6959TIP3    H220842   2.591   1.573   3.211
 6960TIP3   OH220843   1.269   3.782   4.328
 6960TIP3    H120844   1.201   3.777   4.261
 6960TIP3    H220845   1.282   3.876   4.343
 6961TIP3   OH220846   5.172   1.748   4.838
 6961TIP3    H120847   5.179   1.677   4.775
 6961TIP3    H220848   5.090   1.732   4.884
 6962TIP3   OH220849   3.727   4.674   3.535
 6962TIP3    H120850   3.673   4.611   3.582
 6962TIP3    H220851   3.816   4.640   3.543
 6963TIP3   OH220852   5.368  -0.010   4.933
 6963TIP3    H120853   5.401   0.067   4.980
 6963TIP3    H220854   5.335   0.025   4.851
 6964TIP3   OH220855   5.443   0.798   2.674
 6964TIP3    H120856   5.459   0.786   2.768
 6964TIP3    H220857   5.363   0.749   2.656
 6965TIP3   OH220858   1.380   5.387   5.632
 6965TIP3    H120859   1.356   5.329   5.560
 6965TIP3    H220860   1.317   5.366   5.702
 6966TIP3   OH220861   6.081   4.600   1.512
 6966TIP3    H120862   6.017   4.643   1.456
 6966TIP3    H220863   6.104   4.520   1.466
 6967TIP3   OH220864   3.786   4.183   3.894
 6967TIP3    H120865   3.811   4.093   3.875
 6967TIP3    H220866   3.858   4.235   3.858
 6968TIP3   OH220867   1.766   5.952   1.423
 6968TIP3    H120868   1.756   5.880   1.360
 6968TIP3    H220869   1.677   5.984   1.437
 6969TIP3   OH220870   4.285   2.764   5.709
 6969TIP3    H120871   4.363   2.785   5.657
 6969TIP3    H220872   4.219   2.738   5.645
 6970TIP3   OH220873   0.868   4.281   3.195
 6970TIP3    H120874   0.895   4.196   3.227
 6970TIP3    H220875   0.942   4.312   3.142
 6971TIP3   OH220876   0.790   0.194   0.500
 6971TIP3    H120877   0.769   0.233   0.415
 6971TIP3    H220878   0.864   0.137   0.483
 6972TIP3   OH220879   6.822   6.452   4.269
 6972TIP3    H120880   6.755   6.472   4.204
 6972TIP3    H220881   6.897   6.421   4.217
 6973TIP3   OH220882   6.796   0.954   2.705
 6973TIP3    H120883   6.807   1.028   2.764
 6973TIP3    H220884   6.770   0.993   2.621
 6974TIP3   OH220885   4.504   5.809   0.023
 6974TIP3    H120886   4.533   5.798   0.114
 6974TIP3    H220887   4.585   5.806  -0.029
 6975TIP3   OH220888   0.811   6.758   5.433
 6975TIP3    H120889   0.903   6.747   5.455
 6975TIP3    H220890   0.801   6.852   5.417
 6976TIP3   OH220891   1.512   2.753   1.559
 6976TIP3    H120892   1.536   2.823   1.498
 6976TIP3    H220893   1.595   2.719   1.591
 6977TIP3   OH220894   2.405   1.561   1.361
 6977TIP3    H120895   2.485   1.576   1.412
 6977TIP3    H220896   2.335   1.566   1.426
 6978TIP3   OH220897   0.158   4.327   0.905
 6978TIP3    H120898   0.235   4.384   0.901
 6978TIP3    H220899   0.189   4.248   0.950
 6979TIP3   OH220900   6.252   4.724   5.458
 6979TIP3    H120901   6.213   4.806   5.426
 6979TIP3    H220902   6.341   4.749   5.484
 6980TIP3   OH220903   6.397   0.087   1.622
 6980TIP3    H120904   6.470   0.133   1.579
 6980TIP3    H220905   6.357   0.154   1.678
 6981TIP3   OH220906   0.579   3.548   4.036
 6981TIP3    H120907   0.622   3.512   4.114
 6981TIP3    H220908   0.488   3.560   4.061
 6982TIP3   OH220909   5.718   5.337   2.090
 6982TIP3    H120910   5.714   5.254   2.042
 6982TIP3    H220911   5.752   5.400   2.027
 6983TIP3   OH220912   0.466   4.215   4.901
 6983TIP3    H120913   0.472   4.176   4.813
 6983TIP3    H220914   0.556   4.239   4.922
 6984TIP3   OH220915   1.464   6.499   3.127
 6984TIP3    H120916   1.428   6.476   3.213
 6984TIP3    H220917   1.493   6.415   3.090
 6985TIP3   OH220918   0.709   4.415   1.926
 6985TIP3    H120919   0.793   4.372   1.944
 6985TIP3    H220920   0.731   4.508   1.919
 6986TIP3   OH220921   1.648   3.452   0.201
 6986TIP3    H120922   1.644   3.530   0.256
 6986TIP3    H220923   1.685   3.482   0.118
 6987TIP3   OH220924   4.320   0.669   4.733
 6987TIP3    H120925   4.333   0.761   4.754
 6987TIP3    H220926   4.400   0.626   4.765
 6988TIP3   OH220927   3.050   0.853   4.577
 6988TIP3    H120928   3.095   0.929   4.615
 6988TIP3    H220929   3.023   0.801   4.653
 6989TIP3   OH220930   3.533   2.646   4.684
 6989TIP3    H120931   3.605   2.694   4.726
 6989TIP3    H220932   3.471   2.714   4.657
 6990TIP3   OH220933   0.953   2.171   0.887
 6990TIP3    H120934   1.011   2.178   0.963
 6990TIP3    H220935   1.003   2.120   0.824
 6991TIP3   OH220936   0.678   1.792   5.735
 6991TIP3    H120937   0.729   1.813   5.813
 6991TIP3    H220938   0.664   1.876   5.692
 6992TIP3   OH220939   3.082   6.529   3.976
 6992TIP3    H120940   3.100   6.546   4.068
 6992TIP3    H220941   3.007   6.586   3.955
 6993TIP3   OH220942   4.488   6.736   0.614
 6993TIP3    H120943   4.435   6.801   0.568
 6993TIP3    H220944   4.458   6.652   0.580
 6994TIP3   OH220945   3.811   0.380   3.421
 6994TIP3    H120946   3.826   0.390   3.515
 6994TIP3    H220947   3.732   0.327   3.415
 6995TIP3   OH220948   6.639   4.890   3.800
 6995TIP3    H120949   6.723   4.936   3.806
 6995TIP3    H220950   6.577   4.957   3.769
 6996TIP3   OH220951   0.990   5.628   3.714
 6996TIP3    H120952   0.968   5.719   3.731
 6996TIP3    H220953   0.987   5.620   3.618
 6997TIP3   OH220954   5.572   5.339   4.846
 6997TIP3    H120955   5.498   5.300   4.800
 6997TIP3    H220956   5.620   5.387   4.778
 6998TIP3   OH220957   1.562   2.174   2.062
 6998TIP3    H120958   1.567   2.103   2.126
 6998TIP3    H220959   1.535   2.131   1.981
 6999TIP3   OH220960   2.138   6.629   1.494
 6999TIP3    H120961   2.208   6.575   1.531
 6999TIP3    H220962   2.178   6.675   1.420
 7000TIP3   OH220963   0.962   4.285   3.809
 7000TIP3    H120964   1.031   4.348   3.828
 7000TIP3    H220965   0.881   4.336   3.814
 7001TIP3   OH220966   1.056   4.078   2.412
 7001TIP3    H120967   1.094   4.067   2.499
 7001TIP3    H220968   1.087   4.163   2.383
 7002TIP3   OH220969   1.161   4.058   5.255
 7002TIP3    H120970   1.225   4.114   5.300
 7002TIP3    H220971   1.193   4.055   5.164
 7003TIP3   OH220972   5.493   3.998   4.385
 7003TIP3    H120973   5.441   3.950   4.320
 7003TIP3    H220974   5.482   3.949   4.466
 7004TIP3   OH220975   1.285   4.406   1.646
 7004TIP3    H120976   1.257   4.484   1.598
 7004TIP3    H220977   1.378   4.395   1.623
 7005TIP3   OH220978   6.882   2.693   0.757
 7005TIP3    H120979   6.871   2.694   0.852
 7005TIP3    H220980   6.821   2.760   0.725
 7006TIP3   OH220981   1.538   6.051   2.951
 7006TIP3    H120982   1.490   6.086   3.026
 7006TIP3    H220983   1.498   6.093   2.875
 7007TIP3   OH220984   6.571   2.390   2.827
 7007TIP3    H120985   6.498   2.435   2.785
 7007TIP3    H220986   6.555   2.399   2.921
 7008TIP3   OH220987   6.369   0.770   5.676
 7008TIP3    H120988   6.302   0.803   5.735
 7008TIP3    H220989   6.451   0.778   5.725
 7009TIP3   OH220990   6.685   3.692   0.704
 7009TIP3    H120991   6.778   3.677   0.688
 7009TIP3    H220992   6.642   3.612   0.674
 7010TIP3   OH220993   1.801   6.344   1.057
 7010TIP3    H120994   1.859   6.286   1.106
 7010TIP3    H220995   1.859   6.409   1.018
 7011TIP3   OH220996   4.718   4.463   2.894
 7011TIP3    H120997   4.709   4.504   2.808
 7011TIP3    H220998   4.718   4.369   2.876
 7012TIP3   OH220999   4.587   1.349   3.559
 7012TIP3    H121000   4.518   1.283   3.556
 7012TIP3    H221001   4.590   1.384   3.470
 7013TIP3   OH221002   4.452   4.143   3.299
 7013TIP3    H121003   4.363   4.170   3.277
 7013TIP3    H221004   4.458   4.157   3.394
 7014TIP3   OH221005   5.271   5.339   1.670
 7014TIP3    H121006   5.214   5.354   1.595
 7014TIP3    H221007   5.358   5.367   1.640
 7015TIP3   OH221008   2.240   0.518   3.795
 7015TIP3    H121009   2.301   0.590   3.782
 7015TIP3    H221010   2.155   0.560   3.808
 7016TIP3   OH221011   6.215   0.407   4.014
 7016TIP3    H121012   6.236   0.347   3.942
 7016TIP3    H221013   6.257   0.368   4.091
 7017TIP3   OH221014   3.174   2.040   1.047
 7017TIP3    H121015   3.256   2.043   0.998
 7017TIP3    H221016   3.153   2.132   1.065
 7018TIP3   OH221017   6.348   6.583   2.881
 7018TIP3    H121018   6.354   6.513   2.817
 7018TIP3    H221019   6.320   6.659   2.831
 7019TIP3   OH221020   6.696   3.054   2.080
 7019TIP3    H121021   6.692   3.067   2.174
 7019TIP3    H221022   6.771   2.996   2.066
 7020TIP3   OH221023   5.149   5.170   2.921
 7020TIP3    H121024   5.153   5.159   2.827
 7020TIP3    H221025   5.193   5.253   2.938
 7021TIP3   OH221026   3.188   0.159   2.103
 7021TIP3    H121027   3.137   0.233   2.137
 7021TIP3    H221028   3.278   0.178   2.128
 7022TIP3   OH221029   5.226   5.013   3.654
 7022TIP3    H121030   5.281   5.090   3.670
 7022TIP3    H221031   5.272   4.965   3.585
 7023TIP3   OH221032   5.093   4.951   0.822
 7023TIP3    H121033   5.036   4.877   0.800
 7023TIP3    H221034   5.175   4.910   0.849
 7024TIP3   OH221035   2.953   6.625   2.496
 7024TIP3    H121036   2.975   6.615   2.589
 7024TIP3    H221037   2.931   6.717   2.487
 7025TIP3   OH221038   0.731   0.267   3.000
 7025TIP3    H121039   0.684   0.313   2.931
 7025TIP3    H221040   0.690   0.181   3.003
 7026TIP3   OH221041   3.670   2.145   5.792
 7026TIP3    H121042   3.609   2.077   5.819
 7026TIP3    H221043   3.733   2.099   5.735
 7027TIP3   OH221044   7.169   5.767   1.833
 7027TIP3    H121045   7.224   5.734   1.904
 7027TIP3    H221046   7.229   5.782   1.760
 7028TIP3   OH221047   4.774   0.136   5.621
 7028TIP3    H121048   4.861   0.163   5.591
 7028TIP3    H221049   4.715   0.201   5.584
 7029TIP3   OH221050   0.327   5.954   1.201
 7029TIP3    H121051   0.268   5.879   1.189
 7029TIP3    H221052   0.277   6.029   1.171
 7030TIP3   OH221053   1.367   0.442   1.119
 7030TIP3    H121054   1.457   0.474   1.112
 7030TIP3    H221055   1.373   0.362   1.171
 7031TIP3   OH221056   1.199   0.791   4.389
 7031TIP3    H121057   1.214   0.884   4.402
 7031TIP3    H221058   1.187   0.756   4.477
 7032TIP3   OH221059   5.062   3.980   0.664
 7032TIP3    H121060   5.130   3.913   0.668
 7032TIP3    H221061   5.008   3.965   0.741
 7033TIP3   OH221062   0.605   6.753   1.415
 7033TIP3    H121063   0.612   6.666   1.374
 7033TIP3    H221064   0.515   6.781   1.395
 7034TIP3   OH221065   5.290   0.083   2.455
 7034TIP3    H121066   5.207   0.104   2.497
 7034TIP3    H221067   5.281   0.115   2.366
 7035TIP3   OH221068   1.031   1.415   5.726
 7035TIP3    H121069   0.990   1.384   5.645
 7035TIP3    H221070   1.124   1.394   5.715
 7036TIP3   OH221071   3.595   6.353   4.420
 7036TIP3    H121072   3.604   6.447   4.410
 7036TIP3    H221073   3.512   6.332   4.378
 7037TIP3   OH221074   6.874   5.484   2.818
 7037TIP3    H121075   6.860   5.395   2.786
 7037TIP3    H221076   6.969   5.490   2.831
 7038TIP3   OH221077   2.250   6.797   0.625
 7038TIP3    H121078   2.282   6.819   0.538
 7038TIP3    H221079   2.192   6.722   0.611
 7039TIP3   OH221080   4.345   5.081   2.942
 7039TIP3    H121081   4.414   5.015   2.938
 7039TIP3    H221082   4.278   5.050   2.880
 7040TIP3   OH221083   0.983   4.521   4.933
 7040TIP3    H121084   1.052   4.496   4.872
 7040TIP3    H221085   0.905   4.531   4.879
 7041TIP3   OH221086   5.913   5.764   3.595
 7041TIP3    H121087   5.966   5.787   3.671
 7041TIP3    H221088   5.830   5.809   3.610
 7042TIP3   OH221089   5.242   6.686   5.144
 7042TIP3    H121090   5.208   6.769   5.113
 7042TIP3    H221091   5.303   6.709   5.214
 7043TIP3   OH221092   0.898   0.864   3.777
 7043TIP3    H121093   0.950   0.794   3.817
 7043TIP3    H221094   0.892   0.840   3.685
 7044TIP3   OH221095   5.832   5.765   2.626
 7044TIP3    H121096   5.889   5.690   2.609
 7044TIP3    H221097   5.835   5.816   2.545
 7045TIP3   OH221098   0.491   0.081   3.033
 7045TIP3    H121099   0.444   0.093   2.951
 7045TIP3    H221100   0.448   0.140   3.095
 7046TIP3   OH221101   5.922   3.237   3.705
 7046TIP3    H121102   5.915   3.170   3.772
 7046TIP3    H221103   5.913   3.320   3.752
 7047TIP3   OH221104   3.817   1.544   2.426
 7047TIP3    H121105   3.832   1.597   2.504
 7047TIP3    H221106   3.899   1.550   2.377
 7048TIP3   OH221107   5.267   3.451   2.025
 7048TIP3    H121108   5.270   3.355   2.023
 7048TIP3    H221109   5.295   3.476   1.937
 7049TIP3   OH221110   3.505   6.014   0.367
 7049TIP3    H121111   3.521   6.062   0.449
 7049TIP3    H221112   3.445   6.071   0.318
 7050TIP3   OH221113   3.560  -0.045   2.084
 7050TIP3    H121114   3.633  -0.021   2.142
 7050TIP3    H221115   3.568   0.014   2.010
 7051TIP3   OH221116   4.826   3.837   5.343
 7051TIP3    H121117   4.907   3.792   5.319
 7051TIP3    H221118   4.773   3.835   5.263
 7052TIP3   OH221119   1.483   4.384   2.577
 7052TIP3    H121120   1.469   4.293   2.551
 7052TIP3    H221121   1.453   4.436   2.503
 7053TIP3   OH221122   4.388   6.454   3.085
 7053TIP3    H121123   4.356   6.383   3.141
 7053TIP3    H221124   4.311   6.482   3.036
 7054TIP3   OH221125   6.860   6.546   3.308
 7054TIP3    H121126   6.847   6.511   3.220
 7054TIP3    H221127   6.955   6.554   3.318
 7055TIP3   OH221128   4.419   6.812   4.535
 7055TIP3    H121129   4.441   6.720   4.542
 7055TIP3    H221130   4.455   6.840   4.451
 7056TIP3   OH221131   2.111   0.021   5.611
 7056TIP3    H121132   2.174   0.082   5.571
 7056TIP3    H221133   2.061   0.074   5.672
 7057TIP3   OH221134   0.361   6.494   2.357
 7057TIP3    H121135   0.426   6.549   2.400
 7057TIP3    H221136   0.377   6.507   2.263
 7058TIP3   OH221137   1.557   6.117   5.801
 7058TIP3    H121138   1.465   6.092   5.809
 7058TIP3    H221139   1.594   6.100   5.887
 7059TIP3   OH221140   0.602   2.855   5.637
 7059TIP3    H121141   0.527   2.913   5.642
 7059TIP3    H221142   0.607   2.813   5.723
 7060TIP3   OH221143   6.157   0.631   2.226
 7060TIP3    H121144   6.122   0.546   2.252
 7060TIP3    H221145   6.121   0.693   2.289
 7061TIP3   OH221146   1.200   5.802   2.771
 7061TIP3    H121147   1.238   5.827   2.687
 7061TIP3    H221148   1.240   5.861   2.835
 7062TIP3   OH221149   6.611   4.337   4.159
 7062TIP3    H121150   6.676   4.266   4.162
 7062TIP3    H221151   6.528   4.293   4.174
 7063TIP3   OH221152   2.059   2.681   2.254
 7063TIP3    H121153   2.072   2.776   2.261
 7063TIP3    H221154   2.128   2.643   2.308
 7064TIP3   OH221155   6.251   2.612   0.182
 7064TIP3    H121156   6.199   2.668   0.124
 7064TIP3    H221157   6.207   2.617   0.266
 7065TIP3   OH221158   4.249   2.048   4.233
 7065TIP3    H121159   4.168   2.067   4.279
 7065TIP3    H221160   4.311   2.113   4.266
 7066TIP3   OH221161   5.728   4.948   4.943
 7066TIP3    H121162   5.717   5.039   4.969
 7066TIP3    H221163   5.744   4.953   4.848
 7067TIP3   OH221164   4.524   0.447   4.854
 7067TIP3    H121165   4.576   0.457   4.933
 7067TIP3    H221166   4.460   0.379   4.875
 7068TIP3   OH221167   2.341   6.353   2.760
 7068TIP3    H121168   2.282   6.300   2.706
 7068TIP3    H221169   2.322   6.443   2.734
 7069TIP3   OH221170   1.489   4.598   4.126
 7069TIP3    H121171   1.483   4.629   4.036
 7069TIP3    H221172   1.583   4.602   4.146
 7070TIP3   OH221173   3.482   5.743   0.374
 7070TIP3    H121174   3.458   5.791   0.295
 7070TIP3    H221175   3.494   5.811   0.440
 7071TIP3   OH221176   6.501   4.691   3.606
 7071TIP3    H121177   6.522   4.752   3.677
 7071TIP3    H221178   6.519   4.740   3.526
 7072TIP3   OH221179   4.806   6.313   4.568
 7072TIP3    H121180   4.718   6.325   4.531
 7072TIP3    H221181   4.863   6.368   4.513
 7073TIP3   OH221182   3.869   5.423   1.728
 7073TIP3    H121183   3.849   5.505   1.773
 7073TIP3    H221184   3.841   5.355   1.789
 7074TIP3   OH221185   5.852   5.392   1.556
 7074TIP3    H121186   5.765   5.354   1.573
 7074TIP3    H221187   5.912   5.341   1.610
 7075TIP3   OH221188   7.122   4.520   0.619
 7075TIP3    H121189   7.193   4.518   0.554
 7075TIP3    H221190   7.052   4.568   0.576
 7076TIP3   OH221191   3.880   4.657   4.815
 7076TIP3    H121192   3.935   4.621   4.745
 7076TIP3    H221193   3.809   4.593   4.825
 7077TIP3   OH221194   2.046   4.964   3.835
 7077TIP3    H121195   2.116   4.908   3.802
 7077TIP3    H221196   2.059   4.965   3.930
 7078TIP3   OH221197   4.625   4.614   5.160
 7078TIP3    H121198   4.716   4.643   5.167
 7078TIP3    H221199   4.580   4.686   5.116
 7079TIP3   OH221200   5.276   6.196   5.191
 7079TIP3    H121201   5.231   6.151   5.119
 7079TIP3    H221202   5.360   6.151   5.199
 7080TIP3   OH221203   6.880   5.104   0.305
 7080TIP3    H121204   6.880   5.199   0.299
 7080TIP3    H221205   6.799   5.082   0.351
 7081TIP3   OH221206   3.858   1.056   2.508
 7081TIP3    H121207   3.948   1.059   2.477
 7081TIP3    H221208   3.864   1.062   2.603
 7082TIP3   OH221209   3.306   0.709   4.855
 7082TIP3    H121210   3.332   0.800   4.861
 7082TIP3    H221211   3.213   0.709   4.879
 7083TIP3   OH221212   4.072   5.825   5.802
 7083TIP3    H121213   4.159   5.807   5.768
 7083TIP3    H221214   4.036   5.738   5.821
 7084TIP3   OH221215   0.529   3.857   1.447
 7084TIP3    H121216   0.443   3.888   1.420
 7084TIP3    H221217   0.551   3.911   1.523
 7085TIP3   OH221218   6.320   4.782   4.565
 7085TIP3    H121219   6.317   4.877   4.551
 7085TIP3    H221220   6.405   4.766   4.605
 7086TIP3   OH221221   1.552   6.704   1.591
 7086TIP3    H121222   1.551   6.779   1.651
 7086TIP3    H221223   1.600   6.637   1.639
 7087TIP3   OH221224   2.427   6.143   1.423
 7087TIP3    H121225   2.456   6.169   1.335
 7087TIP3    H221226   2.494   6.177   1.482
 7088TIP3   OH221227   5.681   4.935   4.665
 7088TIP3    H121228   5.669   4.840   4.669
 7088TIP3    H221229   5.592   4.970   4.667
 7089TIP3   OH221230   0.151   1.239   1.904
 7089TIP3    H121231   0.212   1.172   1.874
 7089TIP3    H221232   0.117   1.278   1.823
 7090TIP3   OH221233   7.134   0.908   4.801
 7090TIP3    H121234   7.142   1.003   4.789
 7090TIP3    H221235   7.041   0.894   4.817
 7091TIP3   OH221236   6.732   2.230   2.092
 7091TIP3    H121237   6.658   2.292   2.096
 7091TIP3    H221238   6.726   2.182   2.175
 7092TIP3   OH221239   2.204   4.425   4.715
 7092TIP3    H121240   2.288   4.468   4.703
 7092TIP3    H221241   2.226   4.340   4.754
 7093TIP3   OH221242   2.929   4.573   5.668
 7093TIP3    H121243   2.836   4.557   5.651
 7093TIP3    H221244   2.929   4.637   5.740
 7094TIP3   OH221245   1.089   5.326   0.673
 7094TIP3    H121246   1.084   5.231   0.679
 7094TIP3    H221247   1.006   5.356   0.709
 7095TIP3   OH221248   5.767   0.852   5.463
 7095TIP3    H121249   5.793   0.937   5.498
 7095TIP3    H221250   5.682   0.868   5.423
 7096TIP3   OH221251   1.290   6.288   5.039
 7096TIP3    H121252   1.218   6.240   5.080
 7096TIP3    H221253   1.338   6.222   4.989
 7097TIP3   OH221254   4.717   5.344   2.225
 7097TIP3    H121255   4.655   5.395   2.277
 7097TIP3    H221256   4.664   5.307   2.154
 7098TIP3   OH221257   4.279   6.201   4.502
 7098TIP3    H121258   4.205   6.154   4.463
 7098TIP3    H221259   4.245   6.288   4.522
 7099TIP3   OH221260   0.614   0.339   5.200
 7099TIP3    H121261   0.519   0.332   5.190
 7099TIP3    H221262   0.633   0.432   5.191
 7100TIP3   OH221263   6.125   0.423   0.990
 7100TIP3    H121264   6.095   0.409   1.080
 7100TIP3    H221265   6.120   0.518   0.977
 7101TIP3   OH221266   4.496   3.614   3.847
 7101TIP3    H121267   4.497   3.576   3.935
 7101TIP3    H221268   4.403   3.624   3.826
 7102TIP3   OH221269   4.891   0.301   2.473
 7102TIP3    H121270   4.827   0.307   2.544
 7102TIP3    H221271   4.920   0.391   2.459
 7103TIP3   OH221272   3.377   5.795   3.995
 7103TIP3    H121273   3.372   5.871   4.053
 7103TIP3    H221274   3.286   5.771   3.979
 7104TIP3   OH221275   3.554   3.884   0.489
 7104TIP3    H121276   3.573   3.956   0.430
 7104TIP3    H221277   3.462   3.863   0.474
 7105TIP3   OH221278   0.081   6.276   2.217
 7105TIP3    H121279   0.026   6.205   2.184
 7105TIP3    H221280   0.168   6.237   2.225
 7106TIP3   OH221281   0.749   2.822   0.374
 7106TIP3    H121282   0.735   2.882   0.447
 7106TIP3    H221283   0.824   2.769   0.401
 7107TIP3   OH221284   3.735   2.852   0.522
 7107TIP3    H121285   3.644   2.828   0.542
 7107TIP3    H221286   3.762   2.789   0.455
 7108TIP3   OH221287   1.711   6.791   2.850
 7108TIP3    H121288   1.695   6.720   2.787
 7108TIP3    H221289   1.671   6.760   2.931
 7109TIP3   OH221290   1.263   1.262   1.958
 7109TIP3    H121291   1.334   1.249   1.896
 7109TIP3    H221292   1.302   1.245   2.044
 7110TIP3   OH221293   7.124   5.733   1.370
 7110TIP3    H121294   7.198   5.699   1.319
 7110TIP3    H221295   7.081   5.655   1.405
 7111TIP3   OH221296   1.197   6.635   5.845
 7111TIP3    H121297   1.157   6.722   5.858
 7111TIP3    H221298   1.140   6.592   5.782
 7112TIP3   OH221299   3.580   1.385   3.970
 7112TIP3    H121300   3.567   1.471   4.011
 7112TIP3    H221301   3.519   1.383   3.897
 7113TIP3   OH221302   1.511   4.917   1.508
 7113TIP3    H121303   1.493   5.002   1.549
 7113TIP3    H221304   1.518   4.856   1.582
 7114TIP3   OH221305   3.473   6.289   1.775
 7114TIP3    H121306   3.458   6.225   1.705
 7114TIP3    H221307   3.554   6.261   1.817
 7115TIP3   OH221308   1.840   3.019   3.154
 7115TIP3    H121309   1.819   3.064   3.236
 7115TIP3    H221310   1.773   3.047   3.092
 7116TIP3   OH221311   0.173   4.410   4.097
 7116TIP3    H121312   0.139   4.324   4.077
 7116TIP3    H221313   0.158   4.462   4.018
 7117TIP3   OH221314   3.479   4.005   2.819
 7117TIP3    H121315   3.534   3.973   2.890
 7117TIP3    H221316   3.414   3.936   2.806
 7118TIP3   OH221317   3.622   2.736   5.515
 7118TIP3    H121318   3.675   2.692   5.449
 7118TIP3    H221319   3.540   2.756   5.470
 7119TIP3   OH221320   7.214   5.104   2.454
 7119TIP3    H121321   7.172   5.150   2.527
 7119TIP3    H221322   7.260   5.031   2.495
 7120TIP3   OH221323   1.623   2.906   5.780
 7120TIP3    H121324   1.629   2.934   5.872
 7120TIP3    H221325   1.529   2.899   5.763
 7121TIP3   OH221326   0.624   4.958   3.792
 7121TIP3    H121327   0.691   4.955   3.723
 7121TIP3    H221328   0.599   5.050   3.797
 7122TIP3   OH221329   3.074   2.249   0.858
 7122TIP3    H121330   3.047   2.287   0.941
 7122TIP3    H221331   3.162   2.283   0.844
 7123TIP3   OH221332   6.431   0.654   0.711
 7123TIP3    H121333   6.455   0.696   0.628
 7123TIP3    H221334   6.484   0.700   0.776
 7124TIP3   OH221335   2.571   2.454   4.148
 7124TIP3    H121336   2.491   2.444   4.200
 7124TIP3    H221337   2.637   2.404   4.196
 7125TIP3   OH221338   4.515   5.251   0.272
 7125TIP3    H121339   4.454   5.244   0.345
 7125TIP3    H221340   4.537   5.344   0.267
 7126TIP3   OH221341   2.742   6.717   5.075
 7126TIP3    H121342   2.763   6.632   5.114
 7126TIP3    H221343   2.820   6.739   5.023
 7127TIP3   OH221344   3.388   3.545   0.237
 7127TIP3    H121345   3.297   3.532   0.210
 7127TIP3    H221346   3.417   3.458   0.264
 7128TIP3   OH221347   3.141   1.867   2.740
 7128TIP3    H121348   3.080   1.941   2.737
 7128TIP3    H221349   3.135   1.835   2.830
 7129TIP3   OH221350   0.418   5.082   3.968
 7129TIP3    H121351   0.371   5.011   4.010
 7129TIP3    H221352   0.359   5.157   3.975
 7130TIP3   OH221353   1.573   0.865   3.862
 7130TIP3    H121354   1.495   0.830   3.821
 7130TIP3    H221355   1.541   0.938   3.916
 7131TIP3   OH221356   3.715   3.663   4.320
 7131TIP3    H121357   3.768   3.685   4.397
 7131TIP3    H221358   3.658   3.738   4.307
 7132TIP3   OH221359   2.549   4.919   2.725
 7132TIP3    H121360   2.475   4.884   2.677
 7132TIP3    H221361   2.516   5.001   2.763
 7133TIP3   OH221362   0.380   2.686   3.557
 7133TIP3    H121363   0.386   2.705   3.650
 7133TIP3    H221364   0.449   2.621   3.540
 7134TIP3   OH221365   5.417   3.725   3.649
 7134TIP3    H121366   5.377   3.690   3.570
 7134TIP3    H221367   5.386   3.668   3.719
 7135TIP3   OH221368   3.879   2.895   0.819
 7135TIP3    H121369   3.814   2.825   0.818
 7135TIP3    H221370   3.956   2.855   0.860
 7136TIP3   OH221371   3.532   6.279   3.790
 7136TIP3    H121372   3.538   6.365   3.748
 7136TIP3    H221373   3.559   6.295   3.880
 7137TIP3   OH221374   7.179   5.910   5.108
 7137TIP3    H121375   7.242   5.839   5.117
 7137TIP3    H221376   7.142   5.899   5.020
 7138TIP3   OH221377   4.541   6.278   3.391
 7138TIP3    H121378   4.557   6.365   3.427
 7138TIP3    H221379   4.450   6.279   3.363
 7139TIP3   OH221380   7.134   5.897   3.698
 7139TIP3    H121381   7.087   5.979   3.691
 7139TIP3    H221382   7.135   5.861   3.609
 7140TIP3   OH221383   5.835   2.049   4.788
 7140TIP3    H121384   5.889   2.061   4.867
 7140TIP3    H221385   5.822   1.954   4.783
 7141TIP3   OH221386   4.955   2.445   4.658
 7141TIP3    H121387   4.889   2.489   4.604
 7141TIP3    H221388   4.919   2.357   4.672
 7142TIP3   OH221389   2.962   5.519   1.458
 7142TIP3    H121390   2.892   5.460   1.488
 7142TIP3    H221391   2.973   5.581   1.530
 7143TIP3   OH221392   5.109   6.111   5.403
 7143TIP3    H121393   5.147   6.146   5.483
 7143TIP3    H221394   5.156   6.156   5.332
 7144TIP3   OH221395   6.606   5.975   0.886
 7144TIP3    H121396   6.579   5.996   0.975
 7144TIP3    H221397   6.539   6.015   0.830
 7145TIP3   OH221398   5.836   1.699   1.652
 7145TIP3    H121399   5.830   1.776   1.710
 7145TIP3    H221400   5.864   1.628   1.710
 7146TIP3   OH221401   4.541   4.686   0.681
 7146TIP3    H121402   4.525   4.733   0.599
 7146TIP3    H221403   4.533   4.753   0.749
 7147TIP3   OH221404   0.811   2.089   2.865
 7147TIP3    H121405   0.855   2.166   2.902
 7147TIP3    H221406   0.849   2.079   2.778
 7148TIP3   OH221407   1.710   4.444   5.399
 7148TIP3    H121408   1.683   4.478   5.484
 7148TIP3    H221409   1.629   4.442   5.347
 7149TIP3   OH221410   5.412   3.231   5.094
 7149TIP3    H121411   5.471   3.292   5.137
 7149TIP3    H221412   5.325   3.267   5.109
 7150TIP3   OH221413   0.514   3.951   4.256
 7150TIP3    H121414   0.461   4.025   4.285
 7150TIP3    H221415   0.531   3.968   4.164
 7151TIP3   OH221416   1.390   0.161   4.964
 7151TIP3    H121417   1.413   0.110   4.886
 7151TIP3    H221418   1.449   0.129   5.032
 7152TIP3   OH221419   0.062   3.329   4.855
 7152TIP3    H121420   0.144   3.368   4.824
 7152TIP3    H221421   0.025   3.287   4.778
 7153TIP3   OH221422   2.242   6.795   0.365
 7153TIP3    H121423   2.306   6.782   0.294
 7153TIP3    H221424   2.170   6.735   0.343
 7154TIP3   OH221425   4.749   6.661   1.679
 7154TIP3    H121426   4.815   6.650   1.610
 7154TIP3    H221427   4.798   6.698   1.753
 7155TIP3   OH221428   1.242   2.678   0.659
 7155TIP3    H121429   1.272   2.689   0.749
 7155TIP3    H221430   1.297   2.736   0.608
 7156TIP3   OH221431   2.313   6.127   0.871
 7156TIP3    H121432   2.386   6.164   0.821
 7156TIP3    H221433   2.259   6.203   0.894
 7157TIP3   OH221434   4.722   1.986   5.833
 7157TIP3    H121435   4.726   1.891   5.838
 7157TIP3    H221436   4.699   2.005   5.742
 7158TIP3   OH221437   4.987   5.750   2.181
 7158TIP3    H121438   5.023   5.662   2.165
 7158TIP3    H221439   4.919   5.760   2.114
 7159TIP3   OH221440   4.797   3.655   3.837
 7159TIP3    H121441   4.724   3.650   3.774
 7159TIP3    H221442   4.755   3.674   3.920
 7160TIP3   OH221443   0.094   6.454   5.077
 7160TIP3    H121444   0.089   6.364   5.047
 7160TIP3    H221445   0.082   6.507   4.998
 7161TIP3   OH221446   4.426   5.523   1.290
 7161TIP3    H121447   4.395   5.598   1.239
 7161TIP3    H221448   4.428   5.555   1.380
 7162TIP3   OH221449   1.750   0.226   2.978
 7162TIP3    H121450   1.752   0.199   2.886
 7162TIP3    H221451   1.774   0.319   2.975
 7163TIP3   OH221452   0.143   5.235   4.831
 7163TIP3    H121453   0.080   5.169   4.861
 7163TIP3    H221454   0.226   5.207   4.869
 7164TIP3   OH221455   2.853   0.718   3.483
 7164TIP3    H121456   2.782   0.780   3.470
 7164TIP3    H221457   2.898   0.715   3.398
 7165TIP3   OH221458   2.922   2.219   1.782
 7165TIP3    H121459   2.996   2.261   1.739
 7165TIP3    H221460   2.876   2.173   1.712
 7166TIP3   OH221461   2.745   2.634   5.900
 7166TIP3    H121462   2.780   2.548   5.877
 7166TIP3    H221463   2.668   2.615   5.954
 7167TIP3   OH221464   5.218   0.226   5.154
 7167TIP3    H121465   5.175   0.145   5.127
 7167TIP3    H221466   5.308   0.216   5.124
 7168TIP3   OH221467   2.301   1.944   4.748
 7168TIP3    H121468   2.222   1.895   4.725
 7168TIP3    H221469   2.301   1.945   4.844
 7169TIP3   OH221470   4.603   6.324   3.770
 7169TIP3    H121471   4.662   6.397   3.786
 7169TIP3    H221472   4.618   6.264   3.843
 7170TIP3   OH221473   0.309   6.313   2.543
 7170TIP3    H121474   0.373   6.349   2.604
 7170TIP3    H221475   0.316   6.369   2.466
 7171TIP3   OH221476   0.954   2.769   2.235
 7171TIP3    H121477   0.934   2.680   2.206
 7171TIP3    H221478   0.979   2.760   2.326
 7172TIP3   OH221479   5.079   0.104   3.916
 7172TIP3    H121480   5.003   0.130   3.864
 7172TIP3    H221481   5.082   0.167   3.987
 7173TIP3   OH221482   3.445   0.646   2.802
 7173TIP3    H121483   3.435   0.706   2.876
 7173TIP3    H221484   3.376   0.672   2.741
 7174TIP3   OH221485   6.820   4.044   2.463
 7174TIP3    H121486   6.791   4.096   2.388
 7174TIP3    H221487   6.839   4.108   2.531
 7175TIP3   OH221488   0.120   0.671   1.560
 7175TIP3    H121489   0.061   0.730   1.513
 7175TIP3    H221490   0.183   0.729   1.602
 7176TIP3   OH221491   1.882   1.409   3.376
 7176TIP3    H121492   1.831   1.481   3.339
 7176TIP3    H221493   1.824   1.368   3.440
 7177TIP3   OH221494   1.334   4.438   1.125
 7177TIP3    H121495   1.379   4.435   1.040
 7177TIP3    H221496   1.403   4.457   1.188
 7178TIP3   OH221497   6.358   0.738   1.892
 7178TIP3    H121498   6.344   0.806   1.826
 7178TIP3    H221499   6.413   0.673   1.848
 7179TIP3   OH221500   5.877   2.323   2.745
 7179TIP3    H121501   5.872   2.320   2.840
 7179TIP3    H221502   5.791   2.293   2.715
 7180TIP3   OH221503   0.312   1.262   1.088
 7180TIP3    H121504   0.244   1.199   1.112
 7180TIP3    H221505   0.322   1.251   0.994
 7181TIP3   OH221506   7.141   6.333   5.269
 7181TIP3    H121507   7.188   6.262   5.312
 7181TIP3    H221508   7.209   6.380   5.220
 7182TIP3   OH221509   0.510   4.550   4.442
 7182TIP3    H121510   0.429   4.514   4.408
 7182TIP3    H221511   0.527   4.627   4.387
 7183TIP3   OH221512   5.285   2.797   3.166
 7183TIP3    H121513   5.230   2.809   3.243
 7183TIP3    H221514   5.325   2.710   3.178
 7184TIP3   OH221515   3.538   5.881   0.613
 7184TIP3    H121516   3.568   5.868   0.703
 7184TIP3    H221517   3.618   5.888   0.562
 7185TIP3   OH221518   2.247   6.570   3.309
 7185TIP3    H121519   2.180   6.638   3.303
 7185TIP3    H221520   2.250   6.532   3.221
 7186TIP3   OH221521   4.124   4.532   3.169
 7186TIP3    H121522   4.102   4.444   3.139
 7186TIP3    H221523   4.134   4.583   3.089
 7187TIP3   OH221524   0.698   5.719   4.177
 7187TIP3    H121525   0.765   5.787   4.180
 7187TIP3    H221526   0.708   5.673   4.260
 7188TIP3   OH221527   0.363   0.867   0.469
 7188TIP3    H121528   0.432   0.913   0.516
 7188TIP3    H221529   0.286   0.924   0.476
 7189TIP3   OH221530   1.180   4.109   4.949
 7189TIP3    H121531   1.191   4.149   4.863
 7189TIP3    H221532   1.168   4.016   4.930
 7190TIP3   OH221533   0.680   4.849   4.055
 7190TIP3    H121534   0.757   4.903   4.077
 7190TIP3    H221535   0.649   4.884   3.972
 7191TIP3   OH221536   0.763   4.113   4.491
 7191TIP3    H121537   0.774   4.133   4.584
 7191TIP3    H221538   0.748   4.019   4.487
 7192TIP3   OH221539   3.222   2.553   1.504
 7192TIP3    H121540   3.244   2.613   1.434
 7192TIP3    H221541   3.295   2.491   1.508
 7193TIP3   OH221542   5.742   1.989   5.847
 7193TIP3    H121543   5.688   1.911   5.863
 7193TIP3    H221544   5.815   1.957   5.793
 7194TIP3   OH221545   2.146   2.167   3.569
 7194TIP3    H121546   2.207   2.145   3.499
 7194TIP3    H221547   2.194   2.148   3.650
 7195TIP3   OH221548   0.650   2.376   4.001
 7195TIP3    H121549   0.644   2.466   4.033
 7195TIP3    H221550   0.743   2.364   3.981
 7196TIP3   OH221551   5.663   1.020   3.423
 7196TIP3    H121552   5.569   1.013   3.441
 7196TIP3    H221553   5.669   1.014   3.327
 7197TIP3   OH221554   6.773   4.014   1.638
 7197TIP3    H121555   6.691   3.995   1.682
 7197TIP3    H221556   6.815   4.081   1.693
 7198TIP3   OH221557   6.645   0.456   4.586
 7198TIP3    H121558   6.656   0.543   4.548
 7198TIP3    H221559   6.730   0.414   4.576
 7199TIP3   OH221560   5.833   3.058   2.751
 7199TIP3    H121561   5.861   3.071   2.661
 7199TIP3    H221562   5.908   3.016   2.794
 7200TIP3   OH221563   0.423   4.644   4.700
 7200TIP3    H121564   0.504   4.694   4.709
 7200TIP3    H221565   0.423   4.616   4.609
 7201TIP3   OH221566   7.178   3.964   3.810
 7201TIP3    H121567   7.191   3.874   3.839
 7201TIP3    H221568   7.187   3.960   3.715
 7202TIP3   OH221569   5.790   4.681   0.366
 7202TIP3    H121570   5.787   4.743   0.294
 7202TIP3    H221571   5.884   4.673   0.387
 7203TIP3   OH221572   6.563   0.253   5.643
 7203TIP3    H121573   6.610   0.199   5.579
 7203TIP3    H221574   6.481   0.275   5.600
 7204TIP3   OH221575   2.232   6.500   5.563
 7204TIP3    H121576   2.318   6.542   5.565
 7204TIP3    H221577   2.170   6.573   5.559
 7205TIP3   OH221578   2.448   1.680   5.707
 7205TIP3    H121579   2.399   1.645   5.632
 7205TIP3    H221580   2.528   1.716   5.668
 7206TIP3   OH221581   1.772   3.122   1.102
 7206TIP3    H121582   1.749   3.030   1.101
 7206TIP3    H221583   1.691   3.168   1.080
 7207TIP3   OH221584   4.100   0.118   4.541
 7207TIP3    H121585   4.129   0.110   4.632
 7207TIP3    H221586   4.051   0.038   4.524
 7208TIP3   OH221587   1.348   0.864   1.270
 7208TIP3    H121588   1.290   0.807   1.221
 7208TIP3    H221589   1.404   0.805   1.321
 7209TIP3   OH221590   3.285   6.188   3.446
 7209TIP3    H121591   3.196   6.162   3.422
 7209TIP3    H221592   3.322   6.224   3.365
 7210TIP3   OH221593   0.153   1.085   1.229
 7210TIP3    H121594   0.179   0.998   1.258
 7210TIP3    H221595   0.075   1.070   1.175
 7211TIP3   OH221596   7.117   1.037   2.995
 7211TIP3    H121597   7.132   0.984   2.916
 7211TIP3    H221598   7.200   1.083   3.009
 7212TIP3   OH221599   0.099   6.405   3.213
 7212TIP3    H121600   0.119   6.322   3.256
 7212TIP3    H221601   0.006   6.419   3.228
 7213TIP3   OH221602   7.136   2.599   1.648
 7213TIP3    H121603   7.052   2.571   1.612
 7213TIP3    H221604   7.122   2.603   1.743
 7214TIP3   OH221605   5.687   2.985   4.824
 7214TIP3    H121606   5.650   2.898   4.839
 7214TIP3    H221607   5.652   3.012   4.739
 7215TIP3   OH221608   1.764   2.520   0.938
 7215TIP3    H121609   1.754   2.568   0.856
 7215TIP3    H221610   1.677   2.526   0.979
 7216TIP3   OH221611   6.919   6.555   5.658
 7216TIP3    H121612   6.918   6.645   5.625
 7216TIP3    H221613   6.977   6.508   5.599
 7217TIP3   OH221614   1.321   6.560   4.204
 7217TIP3    H121615   1.340   6.650   4.228
 7217TIP3    H221616   1.291   6.519   4.286
 7218TIP3   OH221617   2.100   4.924   5.614
 7218TIP3    H121618   2.057   4.932   5.698
 7218TIP3    H221619   2.087   5.008   5.571
 7219TIP3   OH221620   3.341   0.780   1.680
 7219TIP3    H121621   3.432   0.805   1.694
 7219TIP3    H221622   3.306   0.766   1.768
 7220TIP3   OH221623   3.017   1.281   4.867
 7220TIP3    H121624   3.059   1.255   4.949
 7220TIP3    H221625   3.067   1.236   4.799
 7221TIP3   OH221626   1.679   5.778   4.190
 7221TIP3    H121627   1.614   5.761   4.122
 7221TIP3    H221628   1.658   5.866   4.222
 7222TIP3   OH221629   0.782   4.488   3.734
 7222TIP3    H121630   0.820   4.573   3.754
 7222TIP3    H221631   0.692   4.508   3.708
 7223TIP3   OH221632   2.816   2.714   4.311
 7223TIP3    H121633   2.903   2.752   4.323
 7223TIP3    H221634   2.763   2.786   4.278
 7224TIP3   OH221635   0.426   0.334   0.090
 7224TIP3    H121636   0.462   0.318   0.003
 7224TIP3    H221637   0.488   0.292   0.150
 7225TIP3   OH221638   3.939   0.054   5.068
 7225TIP3    H121639   4.024   0.017   5.093
 7225TIP3    H221640   3.919   0.117   5.137
 7226TIP3   OH221641   0.250   3.025   3.275
 7226TIP3    H121642   0.239   2.945   3.326
 7226TIP3    H221643   0.193   3.014   3.199
 7227TIP3   OH221644   4.370   2.208   5.575
 7227TIP3    H121645   4.379   2.159   5.656
 7227TIP3    H221646   4.372   2.300   5.602
 7228TIP3   OH221647   5.335   0.809   4.556
 7228TIP3    H121648   5.346   0.891   4.603
 7228TIP3    H221649   5.314   0.745   4.625
 7229TIP3   OH221650   3.026   5.553   4.600
 7229TIP3    H121651   2.987   5.488   4.658
 7229TIP3    H221652   3.059   5.501   4.526
 7230TIP3   OH221653   3.860   6.473   4.315
 7230TIP3    H121654   3.765   6.460   4.314
 7230TIP3    H221655   3.873   6.557   4.273
 7231TIP3   OH221656   5.280   5.891   1.832
 7231TIP3    H121657   5.189   5.919   1.827
 7231TIP3    H221658   5.305   5.871   1.742
 7232TIP3   OH221659   0.032   4.425   3.392
 7232TIP3    H121660   0.040   4.485   3.318
 7232TIP3    H221661  -0.054   4.385   3.382
 7233TIP3   OH221662   5.686   5.067   2.016
 7233TIP3    H121663   5.750   5.051   1.947
 7233TIP3    H221664   5.633   4.987   2.018
 7234TIP3   OH221665   0.896   1.271   3.807
 7234TIP3    H121666   0.965   1.270   3.741
 7234TIP3    H221667   0.943   1.267   3.891
 7235TIP3   OH221668   5.711   4.137   3.713
 7235TIP3    H121669   5.781   4.095   3.664
 7235TIP3    H221670   5.637   4.075   3.707
 7236TIP3   OH221671   0.952   2.775   1.019
 7236TIP3    H121672   0.881   2.765   0.955
 7236TIP3    H221673   0.915   2.832   1.086
 7237TIP3   OH221674   3.112   0.437   3.708
 7237TIP3    H121675   3.187   0.397   3.665
 7237TIP3    H221676   3.065   0.364   3.748
 7238TIP3   OH221677   4.876   6.711   1.902
 7238TIP3    H121678   4.962   6.753   1.899
 7238TIP3    H221679   4.894   6.619   1.919
 7239TIP3   OH221680   6.709   0.817   5.677
 7239TIP3    H121681   6.803   0.804   5.688
 7239TIP3    H221682   6.701   0.878   5.604
 7240TIP3   OH221683   4.771   0.233   5.338
 7240TIP3    H121684   4.756   0.209   5.246
 7240TIP3    H221685   4.687   0.216   5.381
 7241TIP3   OH221686   5.738   3.831   3.393
 7241TIP3    H121687   5.800   3.904   3.391
 7241TIP3    H221688   5.679   3.852   3.465
 7242TIP3   OH221689   5.392   6.126   1.323
 7242TIP3    H121690   5.426   6.059   1.264
 7242TIP3    H221691   5.445   6.203   1.305
 7243TIP3   OH221692   4.834   2.168   4.449
 7243TIP3    H121693   4.739   2.165   4.457
 7243TIP3    H221694   4.854   2.259   4.428
 7244TIP3   OH221695   4.463   4.424   5.047
 7244TIP3    H121696   4.512   4.494   5.090
 7244TIP3    H221697   4.444   4.361   5.116
 7245TIP3   OH221698   1.143   0.837   5.388
 7245TIP3    H121699   1.183   0.751   5.401
 7245TIP3    H221700   1.195   0.877   5.318
 7246TIP3   OH221701   0.728   1.487   3.645
 7246TIP3    H121702   0.824   1.483   3.646
 7246TIP3    H221703   0.709   1.566   3.595
 7247TIP3   OH221704   2.570   5.904   2.546
 7247TIP3    H121705   2.554   5.956   2.467
 7247TIP3    H221706   2.485   5.902   2.591
 7248TIP3   OH221707   1.788   6.148   2.759
 7248TIP3    H121708   1.855   6.193   2.809
 7248TIP3    H221709   1.749   6.086   2.821
 7249TIP3   OH221710   5.095   0.000   1.434
 7249TIP3    H121711   5.187   0.008   1.461
 7249TIP3    H221712   5.076   0.083   1.390
 7250TIP3   OH221713   1.123   0.430   0.963
 7250TIP3    H121714   1.209   0.415   1.001
 7250TIP3    H221715   1.086   0.342   0.952
 7251TIP3   OH221716   2.136   4.465   3.916
 7251TIP3    H121717   2.156   4.410   3.841
 7251TIP3    H221718   2.049   4.436   3.945
 7252TIP3   OH221719   5.892   2.475   4.218
 7252TIP3    H121720   5.982   2.501   4.200
 7252TIP3    H221721   5.843   2.503   4.141
 7253TIP3   OH221722   6.290   3.459   4.504
 7253TIP3    H121723   6.266   3.544   4.468
 7253TIP3    H221724   6.382   3.448   4.479
 7254TIP3   OH221725   1.810   6.556   0.130
 7254TIP3    H121726   1.743   6.594   0.187
 7254TIP3    H221727   1.783   6.465   0.118
 7255TIP3   OH221728   2.012   4.422   2.039
 7255TIP3    H121729   2.075   4.492   2.054
 7255TIP3    H221730   2.013   4.409   1.944
 7256TIP3   OH221731   1.495   3.424   1.501
 7256TIP3    H121732   1.581   3.441   1.464
 7256TIP3    H221733   1.486   3.329   1.501
 7257TIP3   OH221734   4.494   3.357   0.213
 7257TIP3    H121735   4.441   3.343   0.291
 7257TIP3    H221736   4.433   3.346   0.140
 7258TIP3   OH221737   3.182   4.392   0.202
 7258TIP3    H121738   3.217   4.480   0.209
 7258TIP3    H221739   3.255   4.335   0.224
 7259TIP3   OH221740   1.976   3.894   5.576
 7259TIP3    H121741   2.066   3.882   5.607
 7259TIP3    H221742   1.985   3.941   5.493
 7260TIP3   OH221743   0.941   5.725   1.000
 7260TIP3    H121744   0.934   5.639   0.958
 7260TIP3    H221745   0.948   5.705   1.094
 7261TIP3   OH221746   4.078   1.786   0.944
 7261TIP3    H121747   4.006   1.724   0.933
 7261TIP3    H221748   4.055   1.860   0.887
 7262TIP3   OH221749   3.891   2.488   5.448
 7262TIP3    H121750   3.871   2.480   5.541
 7262TIP3    H221751   3.805   2.498   5.406
 7263TIP3   OH221752   5.870   0.917   5.760
 7263TIP3    H121753   5.891   0.826   5.780
 7263TIP3    H221754   5.949   0.951   5.717
 7264TIP3   OH221755   6.928   3.555   0.639
 7264TIP3    H121756   6.956   3.559   0.548
 7264TIP3    H221757   6.875   3.475   0.644
 7265TIP3   OH221758   3.424   3.382   4.436
 7265TIP3    H121759   3.465   3.300   4.464
 7265TIP3    H221760   3.424   3.436   4.515
 7266TIP3   OH221761   2.496   1.362   4.348
 7266TIP3    H121762   2.423   1.315   4.388
 7266TIP3    H221763   2.480   1.354   4.254
 7267TIP3   OH221764   4.615   6.112   3.187
 7267TIP3    H121765   4.531   6.075   3.158
 7267TIP3    H221766   4.590   6.187   3.240
 7268TIP3   OH221767   3.153   4.837   0.085
 7268TIP3    H121768   3.190   4.754   0.056
 7268TIP3    H221769   3.197   4.856   0.168
 7269TIP3   OH221770   1.191   3.819   0.227
 7269TIP3    H121771   1.264   3.768   0.192
 7269TIP3    H221772   1.205   3.818   0.321
 7270TIP3   OH221773   4.088   1.556   5.013
 7270TIP3    H121774   4.102   1.612   4.937
 7270TIP3    H221775   4.111   1.468   4.982
 7271TIP3   OH221776   0.339   6.313   5.169
 7271TIP3    H121777   0.296   6.382   5.118
 7271TIP3    H221778   0.377   6.255   5.103
 7272TIP3   OH221779   4.639   3.960   1.478
 7272TIP3    H121780   4.686   3.912   1.546
 7272TIP3    H221781   4.548   3.933   1.488
 7273TIP3   OH221782   3.853   0.044   0.754
 7273TIP3    H121783   3.870   0.132   0.787
 7273TIP3    H221784   3.807   0.058   0.671
 7274TIP3   OH221785   2.867   6.327   3.374
 7274TIP3    H121786   2.774   6.338   3.358
 7274TIP3    H221787   2.907   6.333   3.287
 7275TIP3   OH221788   2.582   0.472   4.263
 7275TIP3    H121789   2.515   0.408   4.287
 7275TIP3    H221790   2.549   0.513   4.184
 7276TIP3   OH221791   4.412   0.996   2.418
 7276TIP3    H121792   4.390   1.072   2.364
 7276TIP3    H221793   4.368   1.013   2.501
 7277TIP3   OH221794   0.436   4.473   1.338
 7277TIP3    H121795   0.409   4.524   1.415
 7277TIP3    H221796   0.357   4.468   1.284
 7278TIP3   OH221797   1.761   1.814   5.562
 7278TIP3    H121798   1.716   1.860   5.633
 7278TIP3    H221799   1.694   1.757   5.524
 7279TIP3   OH221800   3.041   1.304   3.279
 7279TIP3    H121801   3.099   1.293   3.354
 7279TIP3    H221802   3.087   1.262   3.207
 7280TIP3   OH221803   6.936   6.119   4.625
 7280TIP3    H121804   6.893   6.182   4.567
 7280TIP3    H221805   6.869   6.053   4.642
 7281TIP3   OH221806   0.470   5.948   1.790
 7281TIP3    H121807   0.393   6.005   1.787
 7281TIP3    H221808   0.509   5.965   1.876
 7282TIP3   OH221809   3.055   2.196   4.637
 7282TIP3    H121810   3.014   2.193   4.724
 7282TIP3    H221811   2.993   2.150   4.580
 7283TIP3   OH221812   6.136   2.312   1.521
 7283TIP3    H121813   6.153   2.406   1.532
 7283TIP3    H221814   6.215   2.278   1.481
 7284TIP3   OH221815   6.248   3.653   5.462
 7284TIP3    H121816   6.199   3.625   5.539
 7284TIP3    H221817   6.316   3.586   5.452
 7285TIP3   OH221818   6.730   4.361   1.460
 7285TIP3    H121819   6.750   4.431   1.397
 7285TIP3    H221820   6.798   4.369   1.527
 7286TIP3   OH221821   3.438   1.113   5.706
 7286TIP3    H121822   3.455   1.019   5.702
 7286TIP3    H221823   3.493   1.144   5.777
 7287TIP3   OH221824   6.685   6.061   3.345
 7287TIP3    H121825   6.746   6.034   3.276
 7287TIP3    H221826   6.650   5.978   3.379
 7288TIP3   OH221827   1.555   2.636   2.111
 7288TIP3    H121828   1.491   2.579   2.068
 7288TIP3    H221829   1.639   2.609   2.074
 7289TIP3   OH221830   3.626   6.611   4.371
 7289TIP3    H121831   3.681   6.674   4.417
 7289TIP3    H221832   3.567   6.664   4.317
 7290TIP3   OH221833   4.671   4.227   2.763
 7290TIP3    H121834   4.587   4.248   2.722
 7290TIP3    H221835   4.693   4.140   2.729
 7291TIP3   OH221836   7.044   4.754   0.752
 7291TIP3    H121837   7.073   4.846   0.757
 7291TIP3    H221838   7.113   4.711   0.702
 7292TIP3   OH221839   2.248   6.753   1.875
 7292TIP3    H121840   2.284   6.788   1.794
 7292TIP3    H221841   2.212   6.668   1.852
 7293TIP3   OH221842   4.981   3.691   1.616
 7293TIP3    H121843   5.016   3.664   1.531
 7293TIP3    H221844   5.034   3.644   1.680
 7294TIP3   OH221845   3.493   0.741   4.537
 7294TIP3    H121846   3.506   0.709   4.627
 7294TIP3    H221847   3.581   0.736   4.498
 7295TIP3   OH221848   6.994   0.237   5.241
 7295TIP3    H121849   6.954   0.302   5.298
 7295TIP3    H221850   6.925   0.172   5.226
 7296TIP3   OH221851   4.932   5.211   0.664
 7296TIP3    H121852   4.981   5.171   0.592
 7296TIP3    H221853   4.986   5.195   0.741
 7297TIP3   OH221854   1.101   4.182   0.540
 7297TIP3    H121855   1.174   4.138   0.496
 7297TIP3    H221856   1.098   4.269   0.500
 7298TIP3   OH221857   0.267   0.972   4.670
 7298TIP3    H121858   0.347   1.025   4.667
 7298TIP3    H221859   0.204   1.021   4.615
 7299TIP3   OH221860   3.702   3.489   0.516
 7299TIP3    H121861   3.634   3.485   0.582
 7299TIP3    H221862   3.772   3.433   0.550
 7300TIP3   OH221863   6.496   3.907   4.309
 7300TIP3    H121864   6.484   3.814   4.291
 7300TIP3    H221865   6.589   3.916   4.328
 7301TIP3   OH221866   4.048   1.853   1.625
 7301TIP3    H121867   4.047   1.790   1.697
 7301TIP3    H221868   4.016   1.934   1.663
 7302TIP3   OH221869   1.514   0.911   0.839
 7302TIP3    H121870   1.429   0.868   0.842
 7302TIP3    H221871   1.568   0.855   0.783
 7303TIP3   OH221872   6.825   4.703   2.560
 7303TIP3    H121873   6.873   4.686   2.641
 7303TIP3    H221874   6.787   4.790   2.573
 7304TIP3   OH221875   5.335   3.182   1.359
 7304TIP3    H121876   5.239   3.178   1.358
 7304TIP3    H221877   5.360   3.175   1.267
 7305TIP3   OH221878   4.880   6.735   1.378
 7305TIP3    H121879   4.962   6.710   1.420
 7305TIP3    H221880   4.907   6.788   1.303
 7306TIP3   OH221881   4.922   2.265   2.193
 7306TIP3    H121882   4.940   2.359   2.195
 7306TIP3    H221883   4.904   2.246   2.101
 7307TIP3   OH221884   4.790   3.032   2.037
 7307TIP3    H121885   4.776   3.118   2.077
 7307TIP3    H221886   4.777   3.046   1.944
 7308TIP3   OH221887   4.844   5.796   3.608
 7308TIP3    H121888   4.926   5.756   3.579
 7308TIP3    H221889   4.777   5.735   3.579
 7309TIP3   OH221890   5.616   0.769   4.852
 7309TIP3    H121891   5.709   0.749   4.849
 7309TIP3    H221892   5.611   0.860   4.881
 7310TIP3   OH221893   1.496   4.519   0.066
 7310TIP3    H121894   1.549   4.554  -0.005
 7310TIP3    H221895   1.535   4.555   0.146
 7311TIP3   OH221896   0.954   5.696   1.265
 7311TIP3    H121897   0.892   5.730   1.330
 7311TIP3    H221898   1.006   5.631   1.312
 7312TIP3   OH221899   2.198   2.170   3.041
 7312TIP3    H121900   2.229   2.205   3.124
 7312TIP3    H221901   2.171   2.248   2.991
 7313TIP3   OH221902   2.410   0.787   4.165
 7313TIP3    H121903   2.341   0.726   4.141
 7313TIP3    H221904   2.413   0.849   4.092
 7314TIP3   OH221905   3.861   4.623  -0.025
 7314TIP3    H121906   3.823   4.636   0.062
 7314TIP3    H221907   3.914   4.545  -0.016
 7315TIP3   OH221908   0.867   6.073   4.373
 7315TIP3    H121909   0.797   6.027   4.420
 7315TIP3    H221910   0.821   6.133   4.314
 7316TIP3   OH221911   1.803   0.156   1.197
 7316TIP3    H121912   1.874   0.092   1.206
 7316TIP3    H221913   1.741   0.134   1.266
 7317TIP3   OH221914   2.334   1.823   0.557
 7317TIP3    H121915   2.373   1.908   0.535
 7317TIP3    H221916   2.240   1.838   0.553
 7318TIP3   OH221917   0.632   1.180   5.848
 7318TIP3    H121918   0.566   1.149   5.786
 7318TIP3    H221919   0.593   1.163   5.934
 7319TIP3   OH221920   5.984   4.415   3.789
 7319TIP3    H121921   6.043   4.480   3.828
 7319TIP3    H221922   5.905   4.420   3.843
 7320TIP3   OH221923   5.310   1.211   4.452
 7320TIP3    H121924   5.337   1.303   4.459
 7320TIP3    H221925   5.215   1.213   4.457
 7321TIP3   OH221926   3.834   1.646   0.754
 7321TIP3    H121927   3.776   1.572   0.768
 7321TIP3    H221928   3.913   1.609   0.717
 7322TIP3   OH221929   4.066   2.688   4.299
 7322TIP3    H121930   4.147   2.710   4.253
 7322TIP3    H221931   4.017   2.634   4.237
 7323TIP3   OH221932   6.392   6.422   0.358
 7323TIP3    H121933   6.476   6.425   0.313
 7323TIP3    H221934   6.345   6.499   0.328
 7324TIP3   OH221935   5.989   2.859   1.789
 7324TIP3    H121936   6.061   2.890   1.845
 7324TIP3    H221937   5.915   2.914   1.814
 7325TIP3   OH221938   4.741   1.221   4.806
 7325TIP3    H121939   4.712   1.133   4.780
 7325TIP3    H221940   4.758   1.214   4.900
 7326TIP3   OH221941   2.946   1.029   3.568
 7326TIP3    H121942   3.000   1.011   3.492
 7326TIP3    H221943   2.860   1.052   3.532
 7327TIP3   OH221944   2.670   5.332   1.272
 7327TIP3    H121945   2.597   5.388   1.242
 7327TIP3    H221946   2.686   5.361   1.362
 7328TIP3   OH221947   1.657   3.783   5.527
 7328TIP3    H121948   1.624   3.723   5.595
 7328TIP3    H221949   1.745   3.807   5.556
 7329TIP3   OH221950   2.479   1.831   2.218
 7329TIP3    H121951   2.399   1.781   2.236
 7329TIP3    H221952   2.447   1.912   2.176
 7330TIP3   OH221953   5.012   0.116   5.405
 7330TIP3    H121954   5.093   0.163   5.388
 7330TIP3    H221955   4.943   0.170   5.366
 7331TIP3   OH221956   0.376   0.699   4.899
 7331TIP3    H121957   0.434   0.691   4.975
 7331TIP3    H221958   0.429   0.743   4.833
 7332TIP3   OH221959   5.793   3.026   1.882
 7332TIP3    H121960   5.718   2.966   1.882
 7332TIP3    H221961   5.805   3.050   1.974
 7333TIP3   OH221962   0.013   4.623   4.475
 7333TIP3    H121963  -0.018   4.678   4.403
 7333TIP3    H221964   0.059   4.683   4.534
 7334TIP3   OH221965   2.298   3.631   5.724
 7334TIP3    H121966   2.208   3.602   5.739
 7334TIP3    H221967   2.346   3.604   5.803
 7335TIP3   OH221968   5.820   1.102   5.528
 7335TIP3    H121969   5.737   1.148   5.522
 7335TIP3    H221970   5.880   1.167   5.566
 7336TIP3   OH221971   4.543   5.650   1.946
 7336TIP3    H121972   4.573   5.630   1.858
 7336TIP3    H221973   4.541   5.565   1.990
 7337TIP3   OH221974   4.030   6.084   4.359
 7337TIP3    H121975   4.002   6.069   4.269
 7337TIP3    H221976   3.949   6.097   4.408
 7338TIP3   OH221977   0.177   5.260   3.987
 7338TIP3    H121978   0.178   5.354   4.003
 7338TIP3    H221979   0.100   5.246   3.932
 7339TIP3   OH221980   6.894   3.455   2.584
 7339TIP3    H121981   6.799   3.469   2.590
 7339TIP3    H221982   6.924   3.452   2.675
 7340TIP3   OH221983   3.906   5.414   0.623
 7340TIP3    H121984   3.868   5.491   0.665
 7340TIP3    H221985   3.832   5.355   0.610
 7341TIP3   OH221986   6.430   4.651   1.821
 7341TIP3    H121987   6.509   4.698   1.847
 7341TIP3    H221988   6.454   4.605   1.740
 7342TIP3   OH221989   2.447   5.109   2.232
 7342TIP3    H121990   2.537   5.097   2.260
 7342TIP3    H221991   2.404   5.025   2.252
 7343TIP3   OH221992   6.465   4.542  -0.033
 7343TIP3    H121993   6.411   4.464  -0.023
 7343TIP3    H221994   6.518   4.544   0.047
 7344TIP3   OH221995   0.607   3.254   0.530
 7344TIP3    H121996   0.579   3.289   0.615
 7344TIP3    H221997   0.666   3.321   0.496
 7345TIP3   OH221998   1.722   0.558   2.657
 7345TIP3    H121999   1.796   0.588   2.708
 7345TIP3    H222000   1.728   0.606   2.575
 7346TIP3   OH222001   6.328   4.079   1.195
 7346TIP3    H122002   6.385   4.044   1.126
 7346TIP3    H222003   6.389   4.113   1.260
 7347TIP3   OH222004   3.234   3.175   1.547
 7347TIP3    H122005   3.171   3.110   1.513
 7347TIP3    H222006   3.243   3.238   1.476
 7348TIP3   OH222007   0.752   2.580   5.921
 7348TIP3    H122008   0.754   2.572   5.826
 7348TIP3    H222009   0.660   2.566   5.944
 7349TIP3   OH222010   1.621   3.338   3.184
 7349TIP3    H122011   1.635   3.270   3.250
 7349TIP3    H222012   1.639   3.295   3.101
 7350TIP3   OH222013   3.667   0.487   1.725
 7350TIP3    H122014   3.733   0.428   1.688
 7350TIP3    H222015   3.716   0.542   1.786
 7351TIP3   OH222016   5.651   2.800   0.448
 7351TIP3    H122017   5.596   2.725   0.471
 7351TIP3    H222018   5.604   2.842   0.376
 7352TIP3   OH222019   2.348   1.984   1.734
 7352TIP3    H122020   2.292   2.052   1.771
 7352TIP3    H222021   2.287   1.916   1.706
 7353TIP3   OH222022   6.062   6.187   5.219
 7353TIP3    H122023   6.116   6.177   5.297
 7353TIP3    H222024   6.123   6.180   5.146
 7354TIP3   OH222025   4.670   4.805   2.432
 7354TIP3    H122026   4.758   4.780   2.404
 7354TIP3    H222027   4.667   4.900   2.423
 7355TIP3   OH222028   3.978   5.507   1.172
 7355TIP3    H122029   4.003   5.462   1.253
 7355TIP3    H222030   3.944   5.591   1.201
 7356TIP3   OH222031   6.790   2.741   1.646
 7356TIP3    H122032   6.765   2.742   1.554
 7356TIP3    H222033   6.707   2.745   1.693
 7357TIP3   OH222034   5.376   4.850   4.986
 7357TIP3    H122035   5.309   4.784   5.003
 7357TIP3    H222036   5.455   4.801   4.966
 7358TIP3   OH222037   0.601   0.992   4.477
 7358TIP3    H122038   0.519   1.034   4.451
 7358TIP3    H222039   0.586   0.899   4.459
 7359TIP3   OH222040   4.549   5.183   3.306
 7359TIP3    H122041   4.587   5.196   3.393
 7359TIP3    H222042   4.621   5.149   3.253
 7360TIP3   OH222043   4.397   6.754   1.760
 7360TIP3    H122044   4.376   6.775   1.669
 7360TIP3    H222045   4.318   6.780   1.809
 7361TIP3   OH222046   5.550   4.079   1.511
 7361TIP3    H122047   5.554   4.106   1.419
 7361TIP3    H222048   5.637   4.099   1.545
 7362TIP3   OH222049   4.700   1.705   0.817
 7362TIP3    H122050   4.725   1.733   0.729
 7362TIP3    H222051   4.608   1.727   0.823
 7363TIP3   OH222052   1.755   6.060   1.039
 7363TIP3    H122053   1.763   6.030   0.949
 7363TIP3    H222054   1.758   6.155   1.033
 7364TIP3   OH222055   6.526   3.893   0.626
 7364TIP3    H122056   6.445   3.863   0.667
 7364TIP3    H222057   6.578   3.814   0.615
 7365TIP3   OH222058   6.771   2.112   4.978
 7365TIP3    H122059   6.831   2.058   4.926
 7365TIP3    H222060   6.711   2.048   5.017
 7366TIP3   OH222061   4.717   4.219   5.197
 7366TIP3    H122062   4.627   4.235   5.227
 7366TIP3    H222063   4.768   4.291   5.233
 7367TIP3   OH222064   3.537   2.528   0.387
 7367TIP3    H122065   3.512   2.596   0.450
 7367TIP3    H222066   3.453   2.499   0.349
 7368TIP3   OH222067   1.198   1.937   2.120
 7368TIP3    H122068   1.178   2.025   2.151
 7368TIP3    H222069   1.247   1.951   2.038
 7369TIP3   OH222070   1.629   6.532   5.087
 7369TIP3    H122071   1.539   6.553   5.109
 7369TIP3    H222072   1.636   6.552   4.993
 7370TIP3   OH222073   2.876   6.302   3.891
 7370TIP3    H122074   2.963   6.341   3.898
 7370TIP3    H222075   2.835   6.350   3.819
 7371TIP3   OH222076   1.611   2.831   4.062
 7371TIP3    H122077   1.564   2.780   3.996
 7371TIP3    H222078   1.598   2.782   4.144
 7372TIP3   OH222079   7.052   4.313   2.277
 7372TIP3    H122080   7.010   4.365   2.209
 7372TIP3    H222081   6.984   4.252   2.306
 7373TIP3   OH222082   3.127   6.103   1.952
 7373TIP3    H122083   3.130   6.087   1.857
 7373TIP3    H222084   3.216   6.129   1.974
 7374TIP3   OH222085   1.671   0.616   2.210
 7374TIP3    H122086   1.613   0.632   2.135
 7374TIP3    H222087   1.715   0.533   2.190
 7375TIP3   OH222088   6.719   3.555   2.098
 7375TIP3    H122089   6.665   3.506   2.160
 7375TIP3    H222090   6.779   3.490   2.062
 7376TIP3   OH222091   1.070   6.353   0.225
 7376TIP3    H122092   0.987   6.340   0.272
 7376TIP3    H222093   1.090   6.446   0.238
 7377TIP3   OH222094   1.278   1.921   0.817
 7377TIP3    H122095   1.204   1.980   0.805
 7377TIP3    H222096   1.267   1.854   0.749
 7378TIP3   OH222097   0.114   6.156   5.314
 7378TIP3    H122098   0.101   6.082   5.254
 7378TIP3    H222099   0.209   6.166   5.319
 7379TIP3   OH222100   6.676   3.174   5.745
 7379TIP3    H122101   6.770   3.160   5.756
 7379TIP3    H222102   6.645   3.196   5.832
 7380TIP3   OH222103   5.790   0.224   4.652
 7380TIP3    H122104   5.749   0.254   4.571
 7380TIP3    H222105   5.771   0.293   4.716
 7381TIP3   OH222106   6.800   1.898   3.060
 7381TIP3    H122107   6.869   1.965   3.065
 7381TIP3    H222108   6.726   1.943   3.022
 7382TIP3   OH222109   0.552   6.758   5.544
 7382TIP3    H122110   0.508   6.790   5.466
 7382TIP3    H222111   0.644   6.749   5.518
 7383TIP3   OH222112   2.370   4.728   3.003
 7383TIP3    H122113   2.359   4.813   2.961
 7383TIP3    H222114   2.315   4.733   3.081
 7384TIP3   OH222115   2.000   0.582   3.065
 7384TIP3    H122116   2.096   0.583   3.068
 7384TIP3    H222117   1.977   0.669   3.032
 7385TIP3   OH222118   6.161   2.591   5.050
 7385TIP3    H122119   6.193   2.558   5.134
 7385TIP3    H222120   6.196   2.530   4.985
 7386TIP3   OH222121   0.392   3.061   3.610
 7386TIP3    H122122   0.377   3.154   3.590
 7386TIP3    H222123   0.475   3.060   3.657
 7387TIP3   OH222124   6.412   5.415   1.224
 7387TIP3    H122125   6.337   5.404   1.166
 7387TIP3    H222126   6.463   5.486   1.185
 7388TIP3   OH222127   0.868   0.299   5.751
 7388TIP3    H122128   0.937   0.323   5.689
 7388TIP3    H222129   0.891   0.345   5.832
 7389TIP3   OH222130   5.484   6.220   5.568
 7389TIP3    H122131   5.571   6.253   5.548
 7389TIP3    H222132   5.478   6.137   5.520
 7390TIP3   OH222133   7.087   1.792   2.515
 7390TIP3    H122134   7.126   1.865   2.563
 7390TIP3    H222135   7.010   1.768   2.567
 7391TIP3   OH222136   2.144   0.623   4.245
 7391TIP3    H122137   2.153   0.706   4.292
 7391TIP3    H222138   2.112   0.562   4.312
 7392TIP3   OH222139   5.336   6.136   0.866
 7392TIP3    H122140   5.364   6.214   0.817
 7392TIP3    H222141   5.418   6.091   0.886
 7393TIP3   OH222142   6.362   5.384   2.865
 7393TIP3    H122143   6.361   5.353   2.955
 7393TIP3    H222144   6.327   5.310   2.814
 7394TIP3   OH222145   4.001   2.928   2.312
 7394TIP3    H122146   4.052   2.889   2.241
 7394TIP3    H222147   4.044   2.896   2.392
 7395TIP3   OH222148   4.122   0.933   2.069
 7395TIP3    H122149   4.052   0.995   2.091
 7395TIP3    H222150   4.134   0.882   2.150
 7396TIP3   OH222151   5.943   5.506   0.448
 7396TIP3    H122152   5.918   5.505   0.540
 7396TIP3    H222153   5.879   5.564   0.406
 7397TIP3   OH222154   1.171   3.711   5.753
 7397TIP3    H122155   1.106   3.726   5.685
 7397TIP3    H222156   1.248   3.760   5.725
 7398TIP3   OH222157   0.416   0.449   4.213
 7398TIP3    H122158   0.481   0.481   4.276
 7398TIP3    H222159   0.413   0.354   4.226
 7399TIP3   OH222160   5.229   3.049   5.229
 7399TIP3    H122161   5.209   3.023   5.139
 7399TIP3    H222162   5.323   3.070   5.228
 7400TIP3   OH222163   3.174   0.330   5.416
 7400TIP3    H122164   3.151   0.360   5.503
 7400TIP3    H222165   3.254   0.279   5.429
 7401TIP3   OH222166   0.477   5.914   4.126
 7401TIP3    H122167   0.562   5.873   4.143
 7401TIP3    H222168   0.499   6.003   4.096
 7402TIP3   OH222169   1.861   2.864   1.839
 7402TIP3    H122170   1.866   2.957   1.858
 7402TIP3    H222171   1.926   2.824   1.898
 7403TIP3   OH222172   6.593   1.292   4.509
 7403TIP3    H122173   6.638   1.372   4.481
 7403TIP3    H222174   6.520   1.283   4.448
 7404TIP3   OH222175   4.026   0.556   2.137
 7404TIP3    H122176   4.066   0.469   2.140
 7404TIP3    H222177   3.956   0.552   2.202
 7405TIP3   OH222178   3.657   1.145   5.454
 7405TIP3    H122179   3.576   1.147   5.505
 7405TIP3    H222180   3.708   1.074   5.493
 7406TIP3   OH222181   3.920   0.109   1.795
 7406TIP3    H122182   3.940   0.148   1.880
 7406TIP3    H222183   3.884   0.181   1.743
 7407TIP3   OH222184   6.275   5.256   2.334
 7407TIP3    H122185   6.244   5.333   2.382
 7407TIP3    H222186   6.213   5.247   2.262
 7408TIP3   OH222187   6.133   0.613   5.461
 7408TIP3    H122188   6.050   0.583   5.498
 7408TIP3    H222189   6.169   0.671   5.528
 7409TIP3   OH222190   4.548   2.858   2.792
 7409TIP3    H122191   4.634   2.899   2.795
 7409TIP3    H222192   4.520   2.867   2.701
 7410TIP3   OH222193   6.697   3.806   3.641
 7410TIP3    H122194   6.687   3.841   3.553
 7410TIP3    H222195   6.613   3.766   3.661
 7411TIP3   OH222196   0.405   2.970   5.925
 7411TIP3    H122197   0.465   3.028   5.878
 7411TIP3    H222198   0.459   2.895   5.950
 7412TIP3   OH222199   2.094   5.836   3.476
 7412TIP3    H122200   2.183   5.872   3.483
 7412TIP3    H222201   2.104   5.743   3.495
 7413TIP3   OH222202   3.123   5.972   3.964
 7413TIP3    H122203   3.119   5.879   3.942
 7413TIP3    H222204   3.070   5.980   4.043
 7414TIP3   OH222205   3.277   2.261   4.033
 7414TIP3    H122206   3.223   2.299   4.102
 7414TIP3    H222207   3.287   2.331   3.968
 7415TIP3   OH222208   4.461   2.895   1.198
 7415TIP3    H122209   4.397   2.963   1.175
 7415TIP3    H222210   4.483   2.854   1.114
 7416TIP3   OH222211   2.390   1.963   2.774
 7416TIP3    H122212   2.315   1.926   2.820
 7416TIP3    H222213   2.352   2.009   2.699
 7417TIP3   OH222214   2.231   0.459   2.754
 7417TIP3    H122215   2.268   0.373   2.775
 7417TIP3    H222216   2.207   0.496   2.839
 7418TIP3   OH222217   0.532   5.594   1.529
 7418TIP3    H122218   0.513   5.613   1.437
 7418TIP3    H222219   0.587   5.667   1.558
 7419TIP3   OH222220   4.624   2.582   4.043
 7419TIP3    H122221   4.565   2.517   4.006
 7419TIP3    H222222   4.595   2.665   4.006
 7420TIP3   OH222223   2.790   2.956   0.435
 7420TIP3    H122224   2.707   2.955   0.387
 7420TIP3    H222225   2.813   2.864   0.447
 7421TIP3   OH222226   5.082   0.786   4.807
 7421TIP3    H122227   5.105   0.843   4.734
 7421TIP3    H222228   5.159   0.731   4.821
 7422TIP3   OH222229   6.656   4.878   4.299
 7422TIP3    H122230   6.678   4.796   4.255
 7422TIP3    H222231   6.740   4.923   4.308
 7423TIP3   OH222232   7.035   4.949   4.605
 7423TIP3    H122233   7.056   4.969   4.696
 7423TIP3    H222234   7.117   4.919   4.567
 7424TIP3   OH222235   5.742   5.754   3.922
 7424TIP3    H122236   5.743   5.738   4.016
 7424TIP3    H222237   5.828   5.726   3.892
 7425TIP3   OH222238   1.682   5.757   4.971
 7425TIP3    H122239   1.632   5.781   5.049
 7425TIP3    H222240   1.640   5.677   4.939
 7426TIP3   OH222241   1.444   4.415   4.885
 7426TIP3    H122242   1.521   4.472   4.874
 7426TIP3    H222243   1.441   4.363   4.805
 7427TIP3   OH222244   2.435   5.119   4.625
 7427TIP3    H122245   2.442   5.166   4.708
 7427TIP3    H222246   2.350   5.146   4.589
 7428TIP3   OH222247   2.418   3.969   2.440
 7428TIP3    H122248   2.455   3.882   2.457
 7428TIP3    H222249   2.460   4.025   2.505
 7429TIP3   OH222250   3.151   6.408   1.841
 7429TIP3    H122251   3.180   6.446   1.758
 7429TIP3    H222252   3.233   6.387   1.887
 7430TIP3   OH222253   5.394   3.831   4.640
 7430TIP3    H122254   5.432   3.744   4.655
 7430TIP3    H222255   5.305   3.814   4.608
 7431TIP3   OH222256   4.461   4.991   3.762
 7431TIP3    H122257   4.538   5.047   3.769
 7431TIP3    H222258   4.458   4.944   3.845
 7432TIP3   OH222259   1.708   5.182   2.348
 7432TIP3    H122260   1.689   5.222   2.433
 7432TIP3    H222261   1.631   5.201   2.295
 7433TIP3   OH222262   4.408   1.248   1.297
 7433TIP3    H122263   4.379   1.250   1.388
 7433TIP3    H222264   4.352   1.311   1.253
 7434TIP3   OH222265   3.947   4.307   0.529
 7434TIP3    H122266   4.043   4.314   0.521
 7434TIP3    H222267   3.928   4.216   0.509
 7435TIP3   OH222268   0.024   5.549   0.120
 7435TIP3    H122269  -0.040   5.491   0.079
 7435TIP3    H222270   0.104   5.497   0.125
 7436TIP3   OH222271   5.518   3.567   1.430
 7436TIP3    H122272   5.482   3.656   1.429
 7436TIP3    H222273   5.613   3.580   1.434
 7437TIP3   OH222274   2.649   4.198   5.697
 7437TIP3    H122275   2.622   4.239   5.779
 7437TIP3    H222276   2.694   4.118   5.725
 7438TIP3   OH222277   2.536   1.770   3.863
 7438TIP3    H122278   2.525   1.804   3.774
 7438TIP3    H222279   2.470   1.701   3.870
 7439TIP3   OH222280   2.455   4.691   5.285
 7439TIP3    H122281   2.445   4.612   5.232
 7439TIP3    H222282   2.365   4.725   5.294
 7440TIP3   OH222283   0.926   0.594   0.202
 7440TIP3    H122284   0.992   0.573   0.136
 7440TIP3    H222285   0.850   0.540   0.178
 7441TIP3   OH222286   3.904   5.454   5.261
 7441TIP3    H122287   3.956   5.421   5.188
 7441TIP3    H222288   3.825   5.491   5.220
 7442TIP3   OH222289   4.414   6.763   2.123
 7442TIP3    H122290   4.496   6.782   2.076
 7442TIP3    H222291   4.433   6.785   2.214
 7443TIP3   OH222292   1.961   4.044   4.447
 7443TIP3    H122293   2.056   4.044   4.434
 7443TIP3    H222294   1.928   3.978   4.386
 7444TIP3   OH222295   1.453   5.253   1.147
 7444TIP3    H122296   1.375   5.289   1.189
 7444TIP3    H222297   1.499   5.329   1.112
 7445TIP3   OH222298   4.204   4.617   2.870
 7445TIP3    H122299   4.263   4.546   2.894
 7445TIP3    H222300   4.128   4.574   2.832
 7446TIP3   OH222301   5.902   2.135   0.081
 7446TIP3    H122302   5.965   2.190   0.035
 7446TIP3    H222303   5.832   2.119   0.017
 7447TIP3   OH222304   6.064   4.990   1.025
 7447TIP3    H122305   5.969   4.999   1.022
 7447TIP3    H222306   6.083   4.920   0.962
 7448TIP3   OH222307   5.162   6.650   3.900
 7448TIP3    H122308   5.154   6.564   3.857
 7448TIP3    H222309   5.251   6.679   3.880
 7449TIP3   OH222310   1.166   3.513   4.613
 7449TIP3    H122311   1.111   3.516   4.535
 7449TIP3    H222312   1.255   3.522   4.580
 7450TIP3   OH222313   6.097   4.875   2.996
 7450TIP3    H122314   6.013   4.906   2.962
 7450TIP3    H222315   6.082   4.782   3.016
 7451TIP3   OH222316   4.699   5.343   0.620
 7451TIP3    H122317   4.786   5.310   0.642
 7451TIP3    H222318   4.652   5.266   0.585
 7452TIP3   OH222319   4.400   3.572   4.963
 7452TIP3    H122320   4.310   3.597   4.943
 7452TIP3    H222321   4.403   3.567   5.058
 7453TIP3   OH222322   3.228   1.624   5.592
 7453TIP3    H122323   3.319   1.609   5.565
 7453TIP3    H222324   3.233   1.690   5.661
 7454TIP3   OH222325   3.061   1.299   1.341
 7454TIP3    H122326   3.066   1.218   1.393
 7454TIP3    H222327   2.997   1.280   1.273
 7455TIP3   OH222328   0.855   1.854   1.026
 7455TIP3    H122329   0.936   1.867   1.076
 7455TIP3    H222330   0.809   1.938   1.032
 7456TIP3   OH222331   2.713   6.133   4.969
 7456TIP3    H122332   2.698   6.204   4.907
 7456TIP3    H222333   2.806   6.141   4.992
 7457TIP3   OH222334   0.068   4.143   4.336
 7457TIP3    H122335  -0.007   4.200   4.352
 7457TIP3    H222336   0.090   4.158   4.244
 7458TIP3   OH222337   5.066   2.698   2.886
 7458TIP3    H122338   5.078   2.784   2.925
 7458TIP3    H222339   4.981   2.668   2.918
 7459TIP3   OH222340   1.673   1.677   2.185
 7459TIP3    H122341   1.721   1.701   2.106
 7459TIP3    H222342   1.597   1.735   2.185
 7460TIP3   OH222343   2.315   1.268   4.872
 7460TIP3    H122344   2.352   1.321   4.943
 7460TIP3    H222345   2.262   1.202   4.916
 7461TIP3   OH222346   2.756   0.979   5.296
 7461TIP3    H122347   2.692   1.005   5.230
 7461TIP3    H222348   2.834   1.032   5.278
 7462TIP3   OH222349   1.737   4.695   5.224
 7462TIP3    H122350   1.733   4.647   5.141
 7462TIP3    H222351   1.768   4.631   5.288
 7463TIP3   OH222352   2.310   2.069   5.618
 7463TIP3    H122353   2.387   2.017   5.638
 7463TIP3    H222354   2.239   2.027   5.667
 7464TIP3   OH222355   0.914   5.379   5.563
 7464TIP3    H122356   0.860   5.448   5.525
 7464TIP3    H222357   0.921   5.313   5.493
 7465TIP3   OH222358   1.233   1.975   0.466
 7465TIP3    H122359   1.211   2.035   0.395
 7465TIP3    H222360   1.323   1.948   0.447
 7466TIP3   OH222361   2.367   0.309   4.228
 7466TIP3    H122362   2.358   0.314   4.133
 7466TIP3    H222363   2.285   0.345   4.262
 7467TIP3   OH222364   2.296   2.426   1.816
 7467TIP3    H122365   2.292   2.384   1.730
 7467TIP3    H222366   2.205   2.435   1.843
 7468TIP3   OH222367   0.620   0.584   1.016
 7468TIP3    H122368   0.607   0.675   0.987
 7468TIP3    H222369   0.714   0.570   1.008
 7469TIP3   OH222370   0.545   6.748   2.988
 7469TIP3    H122371   0.595   6.754   2.906
 7469TIP3    H222372   0.579   6.820   3.042
 7470TIP3   OH222373   6.200   0.520   3.692
 7470TIP3    H122374   6.184   0.547   3.601
 7470TIP3    H222375   6.134   0.453   3.709
 7471TIP3   OH222376   0.830   3.948   1.449
 7471TIP3    H122377   0.814   4.036   1.413
 7471TIP3    H222378   0.743   3.915   1.471
 7472TIP3   OH222379   3.734   0.103   0.514
 7472TIP3    H122380   3.772   0.091   0.427
 7472TIP3    H222381   3.736   0.198   0.528
 7473TIP3   OH222382   5.340   0.176   5.827
 7473TIP3    H122383   5.309   0.107   5.768
 7473TIP3    H222384   5.279   0.175   5.901
 7474TIP3   OH222385   1.438   1.879   1.930
 7474TIP3    H122386   1.458   1.813   1.863
 7474TIP3    H222387   1.454   1.962   1.887
 7475TIP3   OH222388   2.127   5.823   4.457
 7475TIP3    H122389   2.164   5.789   4.539
 7475TIP3    H222390   2.036   5.793   4.458
 7476TIP3   OH222391   1.307   2.433   0.511
 7476TIP3    H122392   1.288   2.457   0.420
 7476TIP3    H222393   1.292   2.513   0.561
 7477TIP3   OH222394   5.658   1.692   2.688
 7477TIP3    H122395   5.696   1.771   2.647
 7477TIP3    H222396   5.610   1.725   2.764
 7478TIP3   OH222397   2.347   0.744   1.902
 7478TIP3    H122398   2.389   0.820   1.943
 7478TIP3    H222399   2.259   0.742   1.939
 7479TIP3   OH222400   4.780   3.273   2.173
 7479TIP3    H122401   4.797   3.365   2.196
 7479TIP3    H222402   4.684   3.268   2.168
 7480TIP3   OH222403   3.840   2.452   4.626
 7480TIP3    H122404   3.888   2.475   4.706
 7480TIP3    H222405   3.762   2.406   4.657
 7481TIP3   OH222406   4.037   4.700   3.674
 7481TIP3    H122407   4.081   4.785   3.666
 7481TIP3    H222408   4.045   4.661   3.587
 7482TIP3   OH222409   6.784   0.646   0.189
 7482TIP3    H122410   6.841   0.622   0.262
 7482TIP3    H222411   6.741   0.564   0.165
 7483TIP3   OH222412   4.950   3.008   3.136
 7483TIP3    H122413   4.923   3.088   3.181
 7483TIP3    H222414   4.869   2.971   3.101
 7484TIP3   OH222415   6.625   0.296   1.559
 7484TIP3    H122416   6.706   0.342   1.578
 7484TIP3    H222417   6.564   0.365   1.533
 7485TIP3   OH222418   2.813   1.913   4.362
 7485TIP3    H122419   2.904   1.919   4.333
 7485TIP3    H222420   2.761   1.909   4.282
 7486TIP3   OH222421   2.858   0.284   0.533
 7486TIP3    H122422   2.805   0.333   0.596
 7486TIP3    H222423   2.925   0.242   0.586
 7487TIP3   OH222424   6.159   3.914   5.639
 7487TIP3    H122425   6.108   3.936   5.717
 7487TIP3    H222426   6.250   3.914   5.668
 7488TIP3   OH222427   1.627   6.578   2.419
 7488TIP3    H122428   1.703   6.560   2.363
 7488TIP3    H222429   1.555   6.590   2.358
 7489TIP3   OH222430   5.965   3.816   3.716
 7489TIP3    H122431   6.040   3.757   3.722
 7489TIP3    H222432   5.889   3.760   3.727
 7490TIP3   OH222433   1.748   1.724   4.539
 7490TIP3    H122434   1.694   1.667   4.594
 7490TIP3    H222435   1.834   1.683   4.539
 7491TIP3   OH222436   3.855   5.839   4.191
 7491TIP3    H122437   3.770   5.837   4.148
 7491TIP3    H222438   3.887   5.928   4.178
 7492TIP3   OH222439   6.724   1.441   0.696
 7492TIP3    H122440   6.794   1.385   0.729
 7492TIP3    H222441   6.646   1.385   0.700
 7493TIP3   OH222442   4.093   1.507   2.707
 7493TIP3    H122443   4.121   1.543   2.623
 7493TIP3    H222444   4.122   1.571   2.772
 7494TIP3   OH222445   5.781   5.928   3.001
 7494TIP3    H122446   5.714   5.949   3.066
 7494TIP3    H222447   5.743   5.953   2.917
 7495TIP3   OH222448   1.855   0.545   0.461
 7495TIP3    H122449   1.800   0.528   0.385
 7495TIP3    H222450   1.818   0.625   0.500
 7496TIP3   OH222451   2.355   6.424  -0.021
 7496TIP3    H122452   2.427   6.460  -0.073
 7496TIP3    H222453   2.397   6.363   0.040
 7497TIP3   OH222454   2.482   5.065   4.308
 7497TIP3    H122455   2.454   4.991   4.255
 7497TIP3    H222456   2.416   5.071   4.377
 7498TIP3   OH222457   4.751   6.074   0.686
 7498TIP3    H122458   4.797   6.104   0.607
 7498TIP3    H222459   4.816   6.083   0.756
 7499TIP3   OH222460   3.943   1.936   3.704
 7499TIP3    H122461   3.886   2.013   3.705
 7499TIP3    H222462   3.965   1.924   3.612
 7500TIP3   OH222463   3.958   2.910   4.406
 7500TIP3    H122464   4.016   2.854   4.353
 7500TIP3    H222465   4.002   2.994   4.408
 7501TIP3   OH222466   5.939   0.796   5.254
 7501TIP3    H122467   5.864   0.793   5.314
 7501TIP3    H222468   5.999   0.860   5.294
 7502TIP3   OH222469   6.601   1.943   0.318
 7502TIP3    H122470   6.535   1.964   0.384
 7502TIP3    H222471   6.561   1.969   0.235
 7503TIP3   OH222472   2.029   5.003   2.188
 7503TIP3    H122473   1.999   4.923   2.230
 7503TIP3    H222474   2.069   4.973   2.106
 7504TIP3   OH222475   2.678   2.909   5.852
 7504TIP3    H122476   2.599   2.905   5.798
 7504TIP3    H222477   2.723   2.827   5.834
 7505TIP3   OH222478   6.704   1.167   5.262
 7505TIP3    H122479   6.757   1.142   5.186
 7505TIP3    H222480   6.638   1.098   5.269
 7506TIP3   OH222481   5.410   0.470   1.904
 7506TIP3    H122482   5.335   0.524   1.880
 7506TIP3    H222483   5.385   0.430   1.988
 7507TIP3   OH222484   6.775   6.613   5.905
 7507TIP3    H122485   6.680   6.624   5.904
 7507TIP3    H222486   6.803   6.637   5.817
 7508TIP3   OH222487   4.763   5.839   2.409
 7508TIP3    H122488   4.777   5.934   2.404
 7508TIP3    H222489   4.685   5.824   2.354
 7509TIP3   OH222490   1.594   5.020   4.368
 7509TIP3    H122491   1.502   5.010   4.343
 7509TIP3    H222492   1.610   5.114   4.359
 7510TIP3   OH222493   2.595   0.019   5.109
 7510TIP3    H122494   2.668   0.045   5.166
 7510TIP3    H222495   2.534  -0.025   5.168
 7511TIP3   OH222496   7.059   1.499   1.942
 7511TIP3    H122497   6.970   1.532   1.931
 7511TIP3    H222498   7.078   1.456   1.858
 7512TIP3   OH222499   6.998   2.221   0.664
 7512TIP3    H122500   6.909   2.250   0.648
 7512TIP3    H222501   7.047   2.250   0.587
 7513TIP3   OH222502   1.452   3.238   4.404
 7513TIP3    H122503   1.509   3.172   4.365
 7513TIP3    H222504   1.405   3.192   4.473
 7514TIP3   OH222505   7.014   6.694   5.034
 7514TIP3    H122506   6.982   6.765   4.978
 7514TIP3    H222507   6.952   6.623   5.020
 7515TIP3   OH222508   1.225   1.227   4.006
 7515TIP3    H122509   1.138   1.259   4.026
 7515TIP3    H222510   1.249   1.271   3.924
 7516TIP3   OH222511   5.819   3.189   3.305
 7516TIP3    H122512   5.897   3.228   3.345
 7516TIP3    H222513   5.848   3.161   3.218
 7517TIP3   OH222514   3.940   0.651   1.076
 7517TIP3    H122515   3.921   0.593   1.003
 7517TIP3    H222516   3.854   0.674   1.111
 7518TIP3   OH222517   6.245   0.885   0.406
 7518TIP3    H122518   6.150   0.871   0.405
 7518TIP3    H222519   6.261   0.930   0.489
 7519TIP3   OH222520   1.221   5.754   0.291
 7519TIP3    H122521   1.212   5.666   0.328
 7519TIP3    H222522   1.211   5.742   0.197
 7520TIP3   OH222523   4.183   5.073   3.368
 7520TIP3    H122524   4.147   5.021   3.440
 7520TIP3    H222525   4.217   5.152   3.411
 7521TIP3   OH222526   1.558   3.416   5.223
 7521TIP3    H122527   1.596   3.486   5.169
 7521TIP3    H222528   1.492   3.460   5.276
 7522TIP3   OH222529   2.160   3.955   5.005
 7522TIP3    H122530   2.116   3.870   5.007
 7522TIP3    H222531   2.251   3.935   4.985
 7523TIP3   OH222532   1.750   3.542   1.702
 7523TIP3    H122533   1.714   3.570   1.618
 7523TIP3    H222534   1.788   3.456   1.685
 7524TIP3   OH222535   6.411   4.204   4.894
 7524TIP3    H122536   6.501   4.177   4.914
 7524TIP3    H222537   6.399   4.184   4.802
 7525TIP3   OH222538   3.555   5.443   2.620
 7525TIP3    H122539   3.629   5.500   2.599
 7525TIP3    H222540   3.572   5.363   2.570
 7526TIP3   OH222541   0.266   1.096   5.898
 7526TIP3    H122542   0.334   1.068   5.836
 7526TIP3    H222543   0.211   1.156   5.848
 7527TIP3   OH222544   4.268   3.452   1.298
 7527TIP3    H122545   4.355   3.428   1.330
 7527TIP3    H222546   4.271   3.437   1.204
 7528TIP3   OH222547   1.957   1.772   0.309
 7528TIP3    H122548   2.019   1.750   0.239
 7528TIP3    H222549   1.908   1.691   0.325
 7529TIP3   OH222550   5.803   5.549   1.905
 7529TIP3    H122551   5.790   5.633   1.861
 7529TIP3    H222552   5.836   5.491   1.837
 7530TIP3   OH222553   1.545   6.224   2.007
 7530TIP3    H122554   1.518   6.223   1.916
 7530TIP3    H222555   1.503   6.302   2.044
 7531TIP3   OH222556   1.031   1.637   5.068
 7531TIP3    H122557   0.970   1.672   5.134
 7531TIP3    H222558   0.982   1.567   5.025
 7532TIP3   OH222559   3.366   6.553   2.472
 7532TIP3    H122560   3.365   6.466   2.512
 7532TIP3    H222561   3.413   6.608   2.534
 7533TIP3   OH222562   3.823   1.253   2.298
 7533TIP3    H122563   3.840   1.164   2.328
 7533TIP3    H222564   3.894   1.272   2.237
 7534TIP3   OH222565   4.830   1.312   5.754
 7534TIP3    H122566   4.796   1.289   5.840
 7534TIP3    H222567   4.900   1.375   5.771
 7535TIP3   OH222568   2.438   2.973   5.665
 7535TIP3    H122569   2.395   2.964   5.750
 7535TIP3    H222570   2.443   3.068   5.651
 7536TIP3   OH222571   6.886   1.438   5.758
 7536TIP3    H122572   6.977   1.463   5.775
 7536TIP3    H222573   6.844   1.519   5.730
 7537TIP3   OH222574   4.380   4.221   0.079
 7537TIP3    H122575   4.427   4.203  -0.002
 7537TIP3    H222576   4.362   4.315   0.077
 7538TIP3   OH222577   2.646   3.479   5.340
 7538TIP3    H122578   2.581   3.410   5.327
 7538TIP3    H222579   2.595   3.560   5.340
 7539TIP3   OH222580   0.514   4.153   1.430
 7539TIP3    H122581   0.555   4.239   1.425
 7539TIP3    H222582   0.431   4.164   1.382
 7540TIP3   OH222583   5.942   3.060   4.479
 7540TIP3    H122584   5.879   3.119   4.520
 7540TIP3    H222585   5.898   3.029   4.400
 7541TIP3   OH222586   5.655   5.252   1.797
 7541TIP3    H122587   5.606   5.185   1.846
 7541TIP3    H222588   5.597   5.275   1.724
 7542TIP3   OH222589   2.745   5.345   1.597
 7542TIP3    H122590   2.773   5.395   1.673
 7542TIP3    H222591   2.745   5.254   1.627
 7543TIP3   OH222592   1.912   3.598   1.257
 7543TIP3    H122593   1.982   3.580   1.319
 7543TIP3    H222594   1.838   3.626   1.312
 7544TIP3   OH222595   7.136   0.517   2.141
 7544TIP3    H122596   7.061   0.548   2.091
 7544TIP3    H222597   7.149   0.583   2.208
 7545TIP3   OH222598   4.255   3.855   4.577
 7545TIP3    H122599   4.227   3.768   4.548
 7545TIP3    H222600   4.271   3.846   4.671
 7546TIP3   OH222601   3.531   3.864   4.335
 7546TIP3    H122602   3.580   3.944   4.357
 7546TIP3    H222603   3.448   3.897   4.300
 7547TIP3   OH222604   0.044   4.614   2.660
 7547TIP3    H122605  -0.003   4.596   2.579
 7547TIP3    H222606   0.126   4.655   2.632
 7548TIP3   OH222607   0.414   1.407   5.247
 7548TIP3    H122608   0.452   1.328   5.209
 7548TIP3    H222609   0.330   1.379   5.282
 7549TIP3   OH222610   5.362   2.179   2.428
 7549TIP3    H122611   5.353   2.245   2.359
 7549TIP3    H222612   5.417   2.111   2.390
 7550TIP3   OH222613   3.206   4.341   1.510
 7550TIP3    H122614   3.169   4.380   1.431
 7550TIP3    H222615   3.133   4.335   1.571
 7551TIP3   OH222616   1.314   4.075   2.773
 7551TIP3    H122617   1.338   4.044   2.686
 7551TIP3    H222618   1.397   4.090   2.818
 7552TIP3   OH222619   5.547   4.503   1.631
 7552TIP3    H122620   5.497   4.422   1.639
 7552TIP3    H222621   5.610   4.485   1.560
 7553TIP3   OH222622   4.905   3.834   0.441
 7553TIP3    H122623   4.964   3.788   0.500
 7553TIP3    H222624   4.895   3.921   0.481
 7554TIP3   OH222625   6.136   3.549   0.381
 7554TIP3    H122626   6.156   3.455   0.388
 7554TIP3    H222627   6.194   3.590   0.445
 7555TIP3   OH222628   4.673   4.002   3.787
 7555TIP3    H122629   4.649   3.967   3.701
 7555TIP3    H222630   4.765   3.977   3.798
 7556TIP3   OH222631   4.091   4.761   2.494
 7556TIP3    H122632   4.186   4.760   2.510
 7556TIP3    H222633   4.066   4.669   2.502
 7557TIP3   OH222634   0.149   4.234   5.511
 7557TIP3    H122635   0.230   4.271   5.477
 7557TIP3    H222636   0.081   4.264   5.450
 7558TIP3   OH222637   5.547   2.497   3.534
 7558TIP3    H122638   5.521   2.441   3.608
 7558TIP3    H222639   5.628   2.458   3.502
 7559TIP3   OH222640   4.827   2.674   4.923
 7559TIP3    H122641   4.760   2.726   4.879
 7559TIP3    H222642   4.780   2.602   4.964
 7560TIP3   OH222643   2.552   0.690   1.141
 7560TIP3    H122644   2.472   0.662   1.098
 7560TIP3    H222645   2.591   0.609   1.174
 7561TIP3   OH222646   5.441   6.266   0.317
 7561TIP3    H122647   5.410   6.195   0.260
 7561TIP3    H222648   5.432   6.231   0.405
 7562TIP3   OH222649   4.393   2.625   1.739
 7562TIP3    H122650   4.472   2.663   1.700
 7562TIP3    H222651   4.424   2.584   1.820
 7563TIP3   OH222652   1.853   6.080   3.871
 7563TIP3    H122653   1.782   6.101   3.933
 7563TIP3    H222654   1.835   6.135   3.795
 7564TIP3   OH222655   3.661   5.808   1.835
 7564TIP3    H122656   3.676   5.899   1.863
 7564TIP3    H222657   3.726   5.757   1.884
 7565TIP3   OH222658   4.556   2.647   0.169
 7565TIP3    H122659   4.603   2.625   0.089
 7565TIP3    H222660   4.483   2.701   0.140
 7566TIP3   OH222661   0.911   3.251   0.396
 7566TIP3    H122662   0.911   3.271   0.490
 7566TIP3    H222663   0.984   3.190   0.384
 7567TIP3   OH222664   3.058   1.436   5.733
 7567TIP3    H122665   3.070   1.341   5.729
 7567TIP3    H222666   3.128   1.471   5.678
 7568TIP3   OH222667   3.603   6.773   4.049
 7568TIP3    H122668   3.601   6.788   3.955
 7568TIP3    H222669   3.594   6.678   4.059
 7569TIP3   OH222670   0.940   1.979   3.992
 7569TIP3    H122671   0.901   1.946   4.073
 7569TIP3    H222672   0.873   1.965   3.925
 7570TIP3   OH222673   2.915   1.924   2.436
 7570TIP3    H122674   2.973   1.982   2.485
 7570TIP3    H222675   2.843   1.980   2.408
 7571TIP3   OH222676   5.719   5.199   5.031
 7571TIP3    H122677   5.696   5.159   5.115
 7571TIP3    H222678   5.638   5.240   5.000
 7572TIP3   OH222679   7.028   5.491   1.454
 7572TIP3    H122680   6.939   5.455   1.445
 7572TIP3    H222681   7.083   5.432   1.402
 7573TIP3   OH222682   5.457   5.089   1.509
 7573TIP3    H122683   5.403   5.035   1.451
 7573TIP3    H222684   5.433   5.060   1.597
 7574TIP3   OH222685   3.041   0.697   3.252
 7574TIP3    H122686   3.074   0.775   3.297
 7574TIP3    H222687   3.118   0.661   3.208
 7575TIP3   OH222688   0.652   5.177   5.711
 7575TIP3    H122689   0.586   5.195   5.778
 7575TIP3    H222690   0.660   5.258   5.662
 7576TIP3   OH222691   2.595   4.305   4.061
 7576TIP3    H122692   2.639   4.227   4.094
 7576TIP3    H222693   2.652   4.377   4.088
 7577TIP3   OH222694   2.334   2.551   1.019
 7577TIP3    H122695   2.415   2.551   1.070
 7577TIP3    H222696   2.282   2.623   1.056
 7578TIP3   OH222697   0.577   5.197   0.828
 7578TIP3    H122698   0.660   5.154   0.847
 7578TIP3    H222699   0.533   5.139   0.766
 7579TIP3   OH222700   3.677   0.708   1.093
 7579TIP3    H122701   3.613   0.710   1.164
 7579TIP3    H222702   3.666   0.793   1.049
 7580TIP3   OH222703   0.243   3.010   0.502
 7580TIP3    H122704   0.166   2.962   0.531
 7580TIP3    H222705   0.255   2.985   0.410
 7581TIP3   OH222706   0.653   4.718   5.143
 7581TIP3    H122707   0.592   4.707   5.069
 7581TIP3    H222708   0.644   4.810   5.167
 7582TIP3   OH222709   6.595   6.175   0.089
 7582TIP3    H122710   6.546   6.257   0.089
 7582TIP3    H222711   6.628   6.166   0.000
 7583TIP3   OH222712   4.741   4.778   3.840
 7583TIP3    H122713   4.800   4.707   3.818
 7583TIP3    H222714   4.749   4.789   3.935
 7584TIP3   OH222715   3.931   3.596   4.090
 7584TIP3    H122716   3.958   3.684   4.115
 7584TIP3    H222717   3.971   3.539   4.156
 7585TIP3   OH222718   5.039   3.569   1.001
 7585TIP3    H122719   5.058   3.503   0.935
 7585TIP3    H222720   5.067   3.652   0.961
 7586TIP3   OH222721   1.152   0.740   5.855
 7586TIP3    H122722   1.160   0.658   5.807
 7586TIP3    H222723   1.076   0.783   5.816
 7587TIP3   OH222724   3.820   2.999   2.127
 7587TIP3    H122725   3.886   2.961   2.185
 7587TIP3    H222726   3.744   2.942   2.137
 7588TIP3   OH222727   1.192   3.969   3.227
 7588TIP3    H122728   1.098   3.981   3.240
 7588TIP3    H222729   1.205   3.875   3.231
 7589TIP3   OH222730   0.312   3.614   4.091
 7589TIP3    H122731   0.318   3.604   4.186
 7589TIP3    H222732   0.278   3.530   4.060
 7590TIP3   OH222733   6.206   3.821   1.192
 7590TIP3    H122734   6.146   3.838   1.119
 7590TIP3    H222735   6.271   3.891   1.186
 7591TIP3   OH222736   5.281   5.011   2.363
 7591TIP3    H122737   5.282   4.968   2.449
 7591TIP3    H222738   5.279   4.939   2.300
 7592TIP3   OH222739   0.963   5.344   4.775
 7592TIP3    H122740   1.040   5.295   4.747
 7592TIP3    H222741   0.999   5.421   4.819
 7593TIP3   OH222742   4.404   3.565   4.333
 7593TIP3    H122743   4.439   3.572   4.421
 7593TIP3    H222744   4.354   3.646   4.320
 7594TIP3   OH222745   6.871   6.027   2.778
 7594TIP3    H122746   6.803   5.970   2.745
 7594TIP3    H222747   6.885   6.091   2.709
 7595TIP3   OH222748   6.815   3.802   2.008
 7595TIP3    H122749   6.748   3.858   2.048
 7595TIP3    H222750   6.789   3.713   2.032
 7596TIP3   OH222751   5.518   6.077   5.239
 7596TIP3    H122752   5.581   6.007   5.255
 7596TIP3    H222753   5.564   6.138   5.181
 7597TIP3   OH222754   4.764   5.083   3.161
 7597TIP3    H122755   4.779   5.125   3.076
 7597TIP3    H222756   4.851   5.051   3.187
 7598TIP3   OH222757   0.772   6.465   1.645
 7598TIP3    H122758   0.808   6.390   1.692
 7598TIP3    H222759   0.836   6.535   1.658
 7599TIP3   OH222760   6.790   2.250   3.151
 7599TIP3    H122761   6.791   2.219   3.242
 7599TIP3    H222762   6.860   2.201   3.108
 7600TIP3   OH222763   1.347   1.201   2.216
 7600TIP3    H122764   1.423   1.146   2.233
 7600TIP3    H222765   1.321   1.233   2.302
 7601TIP3   OH222766   5.931   5.528   4.441
 7601TIP3    H122767   5.994   5.463   4.412
 7601TIP3    H222768   5.859   5.521   4.379
 7602TIP3   OH222769   7.085   4.586   1.419
 7602TIP3    H122770   7.172   4.577   1.456
 7602TIP3    H222771   7.086   4.528   1.342
 7603TIP3   OH222772   0.344   0.505   1.934
 7603TIP3    H122773   0.410   0.468   1.993
 7603TIP3    H222774   0.264   0.457   1.956
 7604TIP3   OH222775   3.798   5.506   5.746
 7604TIP3    H122776   3.711   5.488   5.781
 7604TIP3    H222777   3.822   5.427   5.699
 7605TIP3   OH222778   4.901   5.267   0.212
 7605TIP3    H122779   4.889   5.194   0.151
 7605TIP3    H222780   4.814   5.280   0.250
 7606TIP3   OH222781   4.286   5.390   2.198
 7606TIP3    H122782   4.207   5.354   2.159
 7606TIP3    H222783   4.270   5.386   2.292
 7607TIP3   OH222784   3.725   6.375   5.001
 7607TIP3    H122785   3.692   6.336   4.920
 7607TIP3    H222786   3.768   6.304   5.047
 7608TIP3   OH222787   0.333   1.102   1.553
 7608TIP3    H122788   0.310   1.195   1.554
 7608TIP3    H222789   0.425   1.101   1.579
 7609TIP3   OH222790   1.406   3.191   3.411
 7609TIP3    H122791   1.318   3.214   3.383
 7609TIP3    H222792   1.438   3.130   3.345
 7610TIP3   OH222793   5.279   4.535   0.081
 7610TIP3    H122794   5.291   4.617   0.129
 7610TIP3    H222795   5.367   4.498   0.075
 7611TIP3   OH222796   5.985   0.396   2.220
 7611TIP3    H122797   6.070   0.352   2.234
 7611TIP3    H222798   5.967   0.383   2.127
 7612TIP3   OH222799   7.048   2.547   0.592
 7612TIP3    H122800   6.995   2.592   0.657
 7612TIP3    H222801   7.004   2.565   0.509
 7613TIP3   OH222802   6.052   1.643   1.018
 7613TIP3    H122803   5.965   1.657   0.979
 7613TIP3    H222804   6.079   1.730   1.047
 7614TIP3   OH222805   2.664   5.980   1.300
 7614TIP3    H122806   2.746   6.014   1.336
 7614TIP3    H222807   2.680   5.887   1.288
 7615TIP3   OH222808   6.571   6.425   2.166
 7615TIP3    H122809   6.619   6.375   2.099
 7615TIP3    H222810   6.623   6.505   2.177
 7616TIP3   OH222811   3.342   5.945   2.747
 7616TIP3    H122812   3.381   5.953   2.660
 7616TIP3    H222813   3.249   5.930   2.731
 7617TIP3   OH222814   4.442   3.272   0.870
 7617TIP3    H122815   4.465   3.223   0.790
 7617TIP3    H222816   4.503   3.345   0.871
 7618TIP3   OH222817   1.820   5.846   3.574
 7618TIP3    H122818   1.782   5.928   3.541
 7618TIP3    H222819   1.912   5.849   3.545
 7619TIP3   OH222820   1.425   6.678   0.052
 7619TIP3    H122821   1.427   6.590   0.090
 7619TIP3    H222822   1.426   6.737   0.127
 7620TIP3   OH222823   3.800   6.208   5.549
 7620TIP3    H122824   3.821   6.118   5.574
 7620TIP3    H222825   3.875   6.259   5.580
 7621TIP3   OH222826   3.045   5.887   3.670
 7621TIP3    H122827   3.021   5.933   3.590
 7621TIP3    H222828   2.963   5.856   3.706
 7622TIP3   OH222829   0.473   0.367   3.419
 7622TIP3    H122830   0.412   0.391   3.488
 7622TIP3    H222831   0.552   0.419   3.437
 7623TIP3   OH222832   2.317   6.043   5.392
 7623TIP3    H122833   2.385   6.105   5.419
 7623TIP3    H222834   2.365   5.962   5.374
 7624TIP3   OH222835   0.157   3.729   5.634
 7624TIP3    H122836   0.087   3.793   5.640
 7624TIP3    H222837   0.134   3.674   5.560
 7625TIP3   OH222838   4.456   5.963   5.469
 7625TIP3    H122839   4.424   5.875   5.450
 7625TIP3    H222840   4.427   6.016   5.395
 7626TIP3   OH222841   0.548   0.666   1.968
 7626TIP3    H122842   0.487   0.619   1.912
 7626TIP3    H222843   0.518   0.757   1.966
 7627TIP3   OH222844   4.359   6.055   2.265
 7627TIP3    H122845   4.409   6.133   2.243
 7627TIP3    H222846   4.366   6.048   2.360
 7628TIP3   OH222847   5.217   0.424   5.667
 7628TIP3    H122848   5.297   0.375   5.686
 7628TIP3    H222849   5.170   0.370   5.604
 7629TIP3   OH222850   5.992   6.553   0.883
 7629TIP3    H122851   5.932   6.510   0.822
 7629TIP3    H222852   5.947   6.549   0.968
 7630TIP3   OH222853   4.825   5.468   1.903
 7630TIP3    H122854   4.827   5.374   1.923
 7630TIP3    H222855   4.757   5.477   1.836
 7631TIP3   OH222856   6.223   0.317   2.317
 7631TIP3    H122857   6.183   0.260   2.383
 7631TIP3    H222858   6.292   0.363   2.364
 7632TIP3   OH222859   5.610   3.851   0.461
 7632TIP3    H122860   5.637   3.940   0.438
 7632TIP3    H222861   5.543   3.830   0.396
 7633TIP3   OH222862   3.568   2.374   4.590
 7633TIP3    H122863   3.487   2.353   4.637
 7633TIP3    H222864   3.571   2.470   4.591
 7634TIP3   OH222865   1.115   0.172   4.394
 7634TIP3    H122866   1.161   0.239   4.445
 7634TIP3    H222867   1.063   0.222   4.331
 7635TIP3   OH222868   1.150   3.268   4.769
 7635TIP3    H122869   1.153   3.185   4.722
 7635TIP3    H222870   1.159   3.335   4.701
 7636TIP3   OH222871   2.487   1.647   2.968
 7636TIP3    H122872   2.484   1.602   3.052
 7636TIP3    H222873   2.461   1.582   2.904
 7637TIP3   OH222874   4.574   4.684   3.621
 7637TIP3    H122875   4.479   4.683   3.637
 7637TIP3    H222876   4.610   4.742   3.687
 7638TIP3   OH222877   4.611   6.503   2.960
 7638TIP3    H122878   4.653   6.417   2.957
 7638TIP3    H222879   4.526   6.486   3.001
 7639TIP3   OH222880   3.661   1.693   3.101
 7639TIP3    H122881   3.668   1.673   3.008
 7639TIP3    H222882   3.619   1.616   3.140
 7640TIP3   OH222883   7.104   6.656   4.248
 7640TIP3    H122884   7.081   6.604   4.171
 7640TIP3    H222885   7.059   6.739   4.234
 7641TIP3   OH222886   3.307   5.057   4.066
 7641TIP3    H122887   3.307   4.976   4.015
 7641TIP3    H222888   3.272   5.123   4.006
 7642TIP3   OH222889   2.629   5.938   5.631
 7642TIP3    H122890   2.661   6.008   5.575
 7642TIP3    H222891   2.707   5.899   5.670
 7643TIP3   OH222892   5.891   5.196   5.305
 7643TIP3    H122893   5.946   5.135   5.255
 7643TIP3    H222894   5.917   5.283   5.273
 7644TIP3   OH222895   1.470   3.697   0.083
 7644TIP3    H122896   1.543   3.669   0.138
 7644TIP3    H222897   1.504   3.770   0.031
 7645TIP3   OH222898   2.589   3.720   0.998
 7645TIP3    H122899   2.588   3.692   1.089
 7645TIP3    H222900   2.634   3.649   0.952
 7646TIP3   OH222901   5.928   5.633   4.857
 7646TIP3    H122902   5.987   5.624   4.782
 7646TIP3    H222903   5.861   5.693   4.828
 7647TIP3   OH222904   4.931   4.649   2.264
 7647TIP3    H122905   5.021   4.683   2.261
 7647TIP3    H222906   4.919   4.622   2.355
 7648TIP3   OH222907   0.577   4.837   2.644
 7648TIP3    H122908   0.640   4.887   2.592
 7648TIP3    H222909   0.584   4.873   2.732
 7649TIP3   OH222910   6.320   0.724   4.039
 7649TIP3    H122911   6.309   0.635   4.074
 7649TIP3    H222912   6.349   0.711   3.949
 7650TIP3   OH222913   6.532   0.503   0.365
 7650TIP3    H122914   6.565   0.483   0.453
 7650TIP3    H222915   6.477   0.580   0.378
 7651TIP3   OH222916   1.822   0.583   1.658
 7651TIP3    H122917   1.847   0.676   1.655
 7651TIP3    H222918   1.848   0.548   1.573
 7652TIP3   OH222919   7.083   1.844   3.558
 7652TIP3    H122920   7.145   1.772   3.551
 7652TIP3    H222921   7.053   1.860   3.469
 7653TIP3   OH222922   0.835   2.891   0.136
 7653TIP3    H122923   0.835   2.857   0.225
 7653TIP3    H222924   0.897   2.964   0.139
 7654TIP3   OH222925   3.435   1.125   1.169
 7654TIP3    H122926   3.483   1.042   1.167
 7654TIP3    H222927   3.351   1.103   1.209
 7655TIP3   OH222928   2.204   5.273   5.720
 7655TIP3    H122929   2.269   5.329   5.762
 7655TIP3    H222930   2.255   5.211   5.668
 7656TIP3   OH222931   1.196   4.439   4.779
 7656TIP3    H122932   1.194   4.357   4.730
 7656TIP3    H222933   1.279   4.436   4.827
 7657TIP3   OH222934   5.514   4.100   2.877
 7657TIP3    H122935   5.603   4.071   2.896
 7657TIP3    H222936   5.481   4.039   2.811
 7658TIP3   OH222937   4.928   4.601   3.859
 7658TIP3    H122938   4.997   4.639   3.913
 7658TIP3    H222939   4.942   4.506   3.867
 7659TIP3   OH222940   0.642   4.341   5.876
 7659TIP3    H122941   0.614   4.301   5.958
 7659TIP3    H222942   0.725   4.297   5.855
 7660TIP3   OH222943   2.837   2.459   0.255
 7660TIP3    H122944   2.762   2.403   0.233
 7660TIP3    H222945   2.816   2.544   0.216
 7661TIP3   OH222946   0.740   4.917   2.890
 7661TIP3    H122947   0.723   4.826   2.915
 7661TIP3    H222948   0.718   4.968   2.968
 7662TIP3   OH222949   3.231   1.454   2.483
 7662TIP3    H122950   3.141   1.447   2.514
 7662TIP3    H222951   3.230   1.411   2.397
 7663TIP3   OH222952   6.618   1.381   3.031
 7663TIP3    H122953   6.615   1.310   2.967
 7663TIP3    H222954   6.625   1.461   2.978
 7664TIP3   OH222955   2.232   5.200   2.475
 7664TIP3    H122956   2.141   5.231   2.480
 7664TIP3    H222957   2.226   5.105   2.471
 7665TIP3   OH222958   3.897   3.313   4.766
 7665TIP3    H122959   3.873   3.395   4.810
 7665TIP3    H222960   3.979   3.287   4.808
 7666TIP3   OH222961   0.061   5.705   5.789
 7666TIP3    H122962   0.115   5.775   5.751
 7666TIP3    H222963  -0.028   5.739   5.787
 7667TIP3   OH222964   4.987   3.218   1.661
 7667TIP3    H122965   5.077   3.247   1.648
 7667TIP3    H222966   4.971   3.230   1.754
 7668TIP3   OH222967   2.313   1.829   1.315
 7668TIP3    H122968   2.377   1.758   1.316
 7668TIP3    H222969   2.364   1.907   1.335
 7669TIP3   OH222970  -0.013   2.358   5.547
 7669TIP3    H122971   0.025   2.333   5.463
 7669TIP3    H222972  -0.030   2.452   5.538
 7670TIP3   OH222973   6.399   6.350   1.970
 7670TIP3    H122974   6.434   6.375   2.055
 7670TIP3    H222975   6.331   6.415   1.952
 7671TIP3   OH222976   7.219   3.270   0.803
 7671TIP3    H122977   7.189   3.329   0.872
 7671TIP3    H222978   7.210   3.183   0.841
 7672TIP3   OH222979   1.196   2.338   3.241
 7672TIP3    H122980   1.230   2.361   3.154
 7672TIP3    H222981   1.245   2.259   3.266
 7673TIP3   OH222982   2.476   5.977   0.022
 7673TIP3    H122983   2.497   6.069   0.035
 7673TIP3    H222984   2.561   5.934   0.011
 7674TIP3   OH222985   4.046   2.327   1.926
 7674TIP3    H122986   4.039   2.245   1.877
 7674TIP3    H222987   3.976   2.323   1.991
 7675TIP3   OH222988   7.052   0.107   4.696
 7675TIP3    H122989   7.117   0.107   4.625
 7675TIP3    H222990   7.004   0.025   4.685
 7676TIP3   OH222991   0.384   5.162   2.823
 7676TIP3    H122992   0.377   5.131   2.733
 7676TIP3    H222993   0.463   5.216   2.824
 7677TIP3   OH222994   1.272   1.550   3.958
 7677TIP3    H122995   1.270   1.646   3.949
 7677TIP3    H222996   1.238   1.518   3.874
 7678TIP3   OH222997   5.125   3.506   3.254
 7678TIP3    H122998   5.149   3.589   3.211
 7678TIP3    H222999   5.160   3.439   3.195
 7679TIP3   OH223000   1.527   4.903   2.558
 7679TIP3    H123001   1.470   4.897   2.634
 7679TIP3    H223002   1.469   4.921   2.484
 7680TIP3   OH223003   3.173   3.038   0.413
 7680TIP3    H123004   3.169   3.128   0.445
 7680TIP3    H223005   3.092   2.998   0.444
 7681TIP3   OH223006   4.599   2.090   4.080
 7681TIP3    H123007   4.568   2.009   4.039
 7681TIP3    H223008   4.572   2.159   4.021
 7682TIP3   OH223009   5.726   4.554   5.603
 7682TIP3    H123010   5.638   4.531   5.632
 7682TIP3    H223011   5.776   4.562   5.684
 7683TIP3   OH223012   6.424   4.985   1.541
 7683TIP3    H123013   6.340   4.948   1.570
 7683TIP3    H223014   6.400   5.049   1.475
 7684TIP3   OH223015   6.416   3.815   2.923
 7684TIP3    H123016   6.426   3.728   2.962
 7684TIP3    H223017   6.499   3.830   2.877
 7685TIP3   OH223018   3.323   5.192   4.381
 7685TIP3    H123019   3.364   5.216   4.465
 7685TIP3    H223020   3.396   5.186   4.319
 7686TIP3   OH223021   2.641   5.689   2.002
 7686TIP3    H123022   2.587   5.635   2.059
 7686TIP3    H223023   2.603   5.777   2.009
 7687TIP3   OH223024   4.375   4.605   3.338
 7687TIP3    H123025   4.288   4.607   3.298
 7687TIP3    H223026   4.414   4.690   3.315
 7688TIP3   OH223027   1.194   0.815   4.083
 7688TIP3    H123028   1.117   0.770   4.117
 7688TIP3    H223029   1.228   0.864   4.157
 7689TIP3   OH223030   6.625   5.038   1.778
 7689TIP3    H123031   6.542   5.047   1.731
 7689TIP3    H223032   6.681   5.105   1.738
 7690TIP3   OH223033   1.631  -0.034   0.150
 7690TIP3    H123034   1.550  -0.079   0.175
 7690TIP3    H223035   1.632   0.045   0.204
 7691TIP3   OH223036   5.868   0.866   3.051
 7691TIP3    H123037   5.912   0.888   2.969
 7691TIP3    H223038   5.914   0.917   3.118
 7692TIP3   OH223039   5.999   1.991   5.009
 7692TIP3    H123040   6.071   2.047   4.980
 7692TIP3    H223041   6.010   1.984   5.103
 7693TIP3   OH223042   4.088   4.264   4.095
 7693TIP3    H123043   4.177   4.280   4.064
 7693TIP3    H223044   4.032   4.302   4.028
 7694TIP3   OH223045   4.552   1.266   2.071
 7694TIP3    H123046   4.606   1.192   2.098
 7694TIP3    H223047   4.615   1.333   2.045
 7695TIP3   OH223048   0.788   6.090   3.884
 7695TIP3    H123049   0.758   6.131   3.965
 7695TIP3    H223050   0.871   6.134   3.865
 7696TIP3   OH223051   1.688   5.054   2.709
 7696TIP3    H123052   1.653   4.990   2.648
 7696TIP3    H223053   1.623   5.124   2.710
 7697TIP3   OH223054   1.135   4.137   1.822
 7697TIP3    H123055   1.162   4.128   1.913
 7697TIP3    H223056   1.100   4.050   1.799
 7698TIP3   OH223057   3.810   3.473   0.786
 7698TIP3    H123058   3.719   3.504   0.782
 7698TIP3    H223059   3.862   3.553   0.781
 7699TIP3   OH223060   4.993   1.022   5.679
 7699TIP3    H123061   4.909   0.985   5.650
 7699TIP3    H223062   5.057   0.988   5.616
 7700TIP3   OH223063   4.721   2.426   1.714
 7700TIP3    H123064   4.727   2.331   1.727
 7700TIP3    H223065   4.713   2.436   1.619
 7701TIP3   OH223066   0.017   3.622   0.453
 7701TIP3    H123067   0.073   3.552   0.420
 7701TIP3    H223068   0.078   3.687   0.489
 7702TIP3   OH223069   6.164   2.232   1.145
 7702TIP3    H123070   6.230   2.163   1.143
 7702TIP3    H223071   6.155   2.258   1.053
 7703TIP3   OH223072   6.242   6.264   5.675
 7703TIP3    H123073   6.223   6.332   5.740
 7703TIP3    H223074   6.157   6.226   5.655
 7704TIP3   OH223075   2.327   3.524   5.151
 7704TIP3    H123076   2.309   3.572   5.071
 7704TIP3    H223077   2.355   3.591   5.213
 7705TIP3   OH223078   5.398   2.895   2.695
 7705TIP3    H123079   5.313   2.940   2.694
 7705TIP3    H223080   5.462   2.965   2.709
 7706TIP3   OH223081   1.305   2.573   0.248
 7706TIP3    H123082   1.269   2.662   0.245
 7706TIP3    H223083   1.392   2.581   0.208
 7707TIP3   OH223084   7.032   1.745   2.254
 7707TIP3    H123085   6.943   1.710   2.260
 7707TIP3    H223086   7.057   1.764   2.344
 7708TIP3   OH223087   1.647   4.575   4.819
 7708TIP3    H123088   1.741   4.554   4.810
 7708TIP3    H223089   1.624   4.614   4.735
 7709TIP3   OH223090   4.253   5.007   5.881
 7709TIP3    H123091   4.160   5.009   5.903
 7709TIP3    H223092   4.284   4.923   5.914
 7710TIP3   OH223093   1.860   0.423   1.116
 7710TIP3    H123094   1.954   0.431   1.132
 7710TIP3    H223095   1.839   0.332   1.134
 7711TIP3   OH223096   1.510   6.130   4.623
 7711TIP3    H123097   1.476   6.077   4.695
 7711TIP3    H223098   1.435   6.145   4.566
 7712TIP3   OH223099   0.188   5.751   0.227
 7712TIP3    H123100   0.130   5.675   0.223
 7712TIP3    H223101   0.276   5.715   0.219
 7713TIP3   OH223102   7.124   0.746   3.536
 7713TIP3    H123103   7.080   0.805   3.474
 7713TIP3    H223104   7.054   0.712   3.591
 7714TIP3   OH223105   0.777   5.575   2.130
 7714TIP3    H123106   0.802   5.482   2.132
 7714TIP3    H223107   0.689   5.577   2.166
 7715TIP3   OH223108   1.330   4.767   1.346
 7715TIP3    H123109   1.356   4.848   1.390
 7715TIP3    H223110   1.385   4.762   1.268
 7716TIP3   OH223111   2.896   6.515   0.258
 7716TIP3    H123112   2.818   6.556   0.295
 7716TIP3    H223113   2.865   6.469   0.181
 7717TIP3   OH223114   4.301   0.804   3.352
 7717TIP3    H123115   4.313   0.865   3.425
 7717TIP3    H223116   4.252   0.731   3.391
 7718TIP3   OH223117   3.100   2.447   4.477
 7718TIP3    H123118   3.184   2.447   4.432
 7718TIP3    H223119   3.092   2.358   4.513
 7719TIP3   OH223120   6.569   2.279   4.354
 7719TIP3    H123121   6.512   2.304   4.427
 7719TIP3    H223122   6.535   2.195   4.324
 7720TIP3   OH223123   3.462   5.186   3.652
 7720TIP3    H123124   3.390   5.174   3.714
 7720TIP3    H223125   3.541   5.181   3.706
 7721TIP3   OH223126   0.315   4.028   2.912
 7721TIP3    H123127   0.310   3.999   2.822
 7721TIP3    H223128   0.241   4.087   2.923
 7722TIP3   OH223129   2.775   6.044   4.463
 7722TIP3    H123130   2.682   6.064   4.471
 7722TIP3    H223131   2.817   6.103   4.525
 7723TIP3   OH223132   0.596   3.170   5.425
 7723TIP3    H123133   0.648   3.244   5.393
 7723TIP3    H223134   0.653   3.125   5.487
 7724TIP3   OH223135   1.633   1.161   1.098
 7724TIP3    H123136   1.580   1.144   1.020
 7724TIP3    H223137   1.584   1.226   1.148
 7725TIP3   OH223138   1.200   2.682   3.068
 7725TIP3    H123139   1.159   2.672   3.154
 7725TIP3    H223140   1.233   2.771   3.067
 7726TIP3   OH223141   2.805   1.763   0.743
 7726TIP3    H123142   2.897   1.738   0.738
 7726TIP3    H223143   2.803   1.854   0.712
 7727TIP3   OH223144   2.496   2.043   5.023
 7727TIP3    H123145   2.489   2.103   4.949
 7727TIP3    H223146   2.474   1.957   4.987
 7728TIP3   OH223147   1.017   3.081   3.961
 7728TIP3    H123148   1.087   3.020   3.986
 7728TIP3    H223149   1.035   3.160   4.011
 7729TIP3   OH223150   5.497   3.578   3.251
 7729TIP3    H123151   5.527   3.500   3.299
 7729TIP3    H223152   5.541   3.651   3.295
 7730TIP3   OH223153   3.491   6.369   0.901
 7730TIP3    H123154   3.434   6.297   0.872
 7730TIP3    H223155   3.433   6.445   0.905
 7731TIP3   OH223156   0.281   0.848   1.317
 7731TIP3    H123157   0.369   0.862   1.350
 7731TIP3    H223158   0.282   0.759   1.281
 7732TIP3   OH223159   5.608   4.152   0.135
 7732TIP3    H123160   5.627   4.139   0.042
 7732TIP3    H223161   5.528   4.101   0.150
 7733TIP3   OH223162   4.339   4.789   3.621
 7733TIP3    H123163   4.355   4.870   3.668
 7733TIP3    H223164   4.380   4.801   3.535
 7734TIP3   OH223165   6.003   6.266   2.051
 7734TIP3    H123166   5.927   6.236   2.101
 7734TIP3    H223167   5.999   6.217   1.969
 7735TIP3   OH223168   0.015   0.110   0.468
 7735TIP3    H123169   0.107   0.134   0.460
 7735TIP3    H223170   0.014   0.014   0.460
 7736TIP3   OH223171   6.208   5.514   5.314
 7736TIP3    H123172   6.238   5.423   5.307
 7736TIP3    H223173   6.288   5.566   5.316
 7737TIP3   OH223174   6.960   3.086   0.264
 7737TIP3    H123175   6.951   3.076   0.169
 7737TIP3    H223176   7.045   3.128   0.275
 7738TIP3   OH223177   2.155   1.299   5.141
 7738TIP3    H123178   2.061   1.295   5.158
 7738TIP3    H223179   2.175   1.393   5.143
 7739TIP3   OH223180   4.869   2.440   4.338
 7739TIP3    H123181   4.946   2.385   4.327
 7739TIP3    H223182   4.847   2.467   4.249
 7740TIP3   OH223183   6.630   6.566   0.221
 7740TIP3    H123184   6.698   6.632   0.232
 7740TIP3    H223185   6.557   6.614   0.181
 7741TIP3   OH223186   0.189   2.293   5.716
 7741TIP3    H123187   0.140   2.240   5.779
 7741TIP3    H223188   0.123   2.326   5.655
 7742TIP3   OH223189   3.215   3.575   2.370
 7742TIP3    H123190   3.234   3.622   2.451
 7742TIP3    H223191   3.191   3.487   2.398
 7743TIP3   OH223192   5.588   5.819   4.990
 7743TIP3    H123193   5.619   5.730   5.009
 7743TIP3    H223194   5.648   5.876   5.038
 7744TIP3   OH223195   3.915   0.725   3.343
 7744TIP3    H123196   3.916   0.641   3.297
 7744TIP3    H223197   3.825   0.735   3.372
 7745TIP3   OH223198   4.237   3.797   5.093
 7745TIP3    H123199   4.283   3.738   5.153
 7745TIP3    H223200   4.286   3.879   5.099
 7746TIP3   OH223201   2.283   5.171   3.595
 7746TIP3    H123202   2.230   5.107   3.548
 7746TIP3    H223203   2.313   5.232   3.526
 7747TIP3   OH223204   0.595   6.258   4.519
 7747TIP3    H123205   0.537   6.204   4.465
 7747TIP3    H223206   0.620   6.200   4.591
 7748TIP3   OH223207   1.580   2.347   4.471
 7748TIP3    H123208   1.644   2.279   4.489
 7748TIP3    H223209   1.522   2.309   4.405
 7749TIP3   OH223210   1.687   5.045   1.149
 7749TIP3    H123211   1.648   5.120   1.105
 7749TIP3    H223212   1.613   4.996   1.184
 7750TIP3   OH223213   0.681   0.969   1.148
 7750TIP3    H123214   0.592   1.004   1.148
 7750TIP3    H223215   0.686   0.916   1.227
 7751TIP3   OH223216   3.869   4.435   1.890
 7751TIP3    H123217   3.934   4.461   1.825
 7751TIP3    H223218   3.850   4.515   1.939
 7752TIP3   OH223219   4.511   5.840   4.705
 7752TIP3    H123220   4.433   5.798   4.743
 7752TIP3    H223221   4.498   5.933   4.721
 7753TIP3   OH223222   5.950   3.719   2.875
 7753TIP3    H123223   5.942   3.803   2.830
 7753TIP3    H223224   5.873   3.669   2.847
 7754TIP3   OH223225   3.095   5.287   3.616
 7754TIP3    H123226   3.134   5.368   3.583
 7754TIP3    H223227   3.000   5.303   3.609
 7755TIP3   OH223228   5.697   0.277   1.278
 7755TIP3    H123229   5.736   0.236   1.355
 7755TIP3    H223230   5.686   0.369   1.302
 7756TIP3   OH223231   1.566   5.539   5.753
 7756TIP3    H123232   1.648   5.542   5.703
 7756TIP3    H223233   1.515   5.469   5.712
 7757TIP3   OH223234   6.438   1.065   1.804
 7757TIP3    H123235   6.449   1.107   1.719
 7757TIP3    H223236   6.527   1.045   1.833
 7758TIP3   OH223237   7.005   5.582   5.000
 7758TIP3    H123238   6.992   5.508   4.941
 7758TIP3    H223239   7.100   5.590   5.008
 7759TIP3   OH223240   3.061   0.931   1.327
 7759TIP3    H123241   3.009   1.001   1.286
 7759TIP3    H223242   3.073   0.867   1.257
 7760TIP3   OH223243   4.034   1.508   1.544
 7760TIP3    H123244   4.102   1.448   1.514
 7760TIP3    H223245   3.996   1.543   1.463
 7761TIP3   OH223246   4.226   3.723   1.355
 7761TIP3    H123247   4.303   3.767   1.319
 7761TIP3    H223248   4.240   3.630   1.333
 7762TIP3   OH223249   2.639   0.427   5.619
 7762TIP3    H123250   2.646   0.366   5.692
 7762TIP3    H223251   2.704   0.495   5.638
 7763TIP3   OH223252   1.080   5.852   3.450
 7763TIP3    H123253   1.027   5.852   3.529
 7763TIP3    H223254   1.096   5.760   3.431
 7764TIP3   OH223255   3.751   4.608   0.992
 7764TIP3    H123256   3.661   4.631   0.968
 7764TIP3    H223257   3.755   4.513   0.983
 7765TIP3   OH223258   0.687   1.007   1.820
 7765TIP3    H123259   0.715   0.916   1.828
 7765TIP3    H223260   0.696   1.043   1.908
 7766TIP3   OH223261   2.283   2.543   0.315
 7766TIP3    H123262   2.200   2.574   0.351
 7766TIP3    H223263   2.272   2.448   0.306
 7767TIP3   OH223264   3.647   1.439   0.743
 7767TIP3    H123265   3.574   1.391   0.781
 7767TIP3    H223266   3.616   1.465   0.656
 7768TIP3   OH223267   4.249   1.466   0.321
 7768TIP3    H123268   4.236   1.372   0.313
 7768TIP3    H223269   4.219   1.503   0.238
 7769TIP3   OH223270   0.073   1.469   3.312
 7769TIP3    H123271   0.082   1.422   3.395
 7769TIP3    H223272   0.164   1.488   3.286
 7770TIP3   OH223273   1.585   4.612   1.981
 7770TIP3    H123274   1.633   4.694   1.995
 7770TIP3    H223275   1.631   4.549   2.036
 7771TIP3   OH223276   0.875   4.182   0.917
 7771TIP3    H123277   0.798   4.136   0.950
 7771TIP3    H223278   0.933   4.190   0.993
 7772TIP3   OH223279   2.687   6.514   1.684
 7772TIP3    H123280   2.721   6.478   1.766
 7772TIP3    H223281   2.634   6.443   1.647
 7773TIP3   OH223282   2.594   5.290   4.196
 7773TIP3    H123283   2.545   5.220   4.240
 7773TIP3    H223284   2.662   5.245   4.147
 7774TIP3   OH223285   0.720   0.478   4.093
 7774TIP3    H123286   0.722   0.572   4.071
 7774TIP3    H223287   0.675   0.437   4.020
 7775TIP3   OH223288   0.067   0.715   4.686
 7775TIP3    H123289   0.150   0.743   4.648
 7775TIP3    H223290   0.028   0.796   4.720
 7776TIP3   OH223291   6.189   6.662   0.253
 7776TIP3    H123292   6.185   6.708   0.337
 7776TIP3    H223293   6.117   6.599   0.257
 7777TIP3   OH223294   1.030   2.179   3.538
 7777TIP3    H123295   1.049   2.095   3.580
 7777TIP3    H223296   1.001   2.156   3.450
 7778TIP3   OH223297   3.095   5.324   0.949
 7778TIP3    H123298   3.182   5.350   0.979
 7778TIP3    H223299   3.109   5.295   0.859
 7779TIP3   OH223300   3.418   3.357   2.423
 7779TIP3    H123301   3.462   3.440   2.441
 7779TIP3    H223302   3.423   3.348   2.327
 7780TIP3   OH223303   0.650   2.999   2.196
 7780TIP3    H123304   0.699   3.006   2.114
 7780TIP3    H223305   0.713   3.023   2.264
 7781TIP3   OH223306   6.835   6.260   4.871
 7781TIP3    H123307   6.909   6.275   4.813
 7781TIP3    H223308   6.874   6.234   4.954
 7782TIP3   OH223309   1.166   4.821   3.862
 7782TIP3    H123310   1.158   4.744   3.805
 7782TIP3    H223311   1.247   4.864   3.834
 7783TIP3   OH223312   5.518   0.233   1.826
 7783TIP3    H123313   5.587   0.279   1.777
 7783TIP3    H223314   5.469   0.303   1.869
 7784TIP3   OH223315   4.611   1.087   0.142
 7784TIP3    H123316   4.564   1.003   0.136
 7784TIP3    H223317   4.580   1.126   0.224
 7785TIP3   OH223318   2.535   5.364   5.426
 7785TIP3    H123319   2.585   5.446   5.425
 7785TIP3    H223320   2.478   5.370   5.349
 7786TIP3   OH223321   1.231   4.158   3.443
 7786TIP3    H123322   1.135   4.163   3.436
 7786TIP3    H223323   1.258   4.111   3.364
 7787TIP3   OH223324   4.355   6.008   3.135
 7787TIP3    H123325   4.278   6.000   3.078
 7787TIP3    H223326   4.367   5.921   3.173
 7788TIP3   OH223327   2.511   4.295   2.358
 7788TIP3    H123328   2.591   4.251   2.330
 7788TIP3    H223329   2.510   4.285   2.453
 7789TIP3   OH223330   4.607   2.355   3.416
 7789TIP3    H123331   4.628   2.357   3.509
 7789TIP3    H223332   4.512   2.343   3.413
 7790TIP3   OH223333   4.715   5.880   1.641
 7790TIP3    H123334   4.701   5.934   1.719
 7790TIP3    H223335   4.648   5.908   1.579
 7791TIP3   OH223336   6.049   2.024   5.292
 7791TIP3    H123337   6.124   2.083   5.289
 7791TIP3    H223338   5.973   2.082   5.301
 7792TIP3   OH223339   4.298   0.386   4.193
 7792TIP3    H123340   4.236   0.374   4.265
 7792TIP3    H223341   4.383   0.391   4.236
 7793TIP3   OH223342   2.395   5.542   0.519
 7793TIP3    H123343   2.315   5.501   0.552
 7793TIP3    H223344   2.460   5.472   0.520
 7794TIP3   OH223345   6.757   4.100   4.174
 7794TIP3    H123346   6.767   4.027   4.235
 7794TIP3    H223347   6.701   4.066   4.105
 7795TIP3   OH223348   6.180   4.854   1.530
 7795TIP3    H123349   6.189   4.862   1.435
 7795TIP3    H223350   6.176   4.760   1.545
 7796TIP3   OH223351   4.501   3.379   4.763
 7796TIP3    H123352   4.483   3.285   4.753
 7796TIP3    H223353   4.476   3.399   4.853
 7797TIP3   OH223354   0.937   5.860   5.207
 7797TIP3    H123355   0.892   5.940   5.180
 7797TIP3    H223356   0.946   5.809   5.126
 7798TIP3   OH223357   5.954   1.032  -0.040
 7798TIP3    H123358   6.004   0.953  -0.060
 7798TIP3    H223359   5.989   1.062   0.044
 7799TIP3   OH223360   5.059   2.129   5.545
 7799TIP3    H123361   5.039   2.053   5.601
 7799TIP3    H223362   4.985   2.188   5.558
 7800TIP3   OH223363   6.560   5.281   4.249
 7800TIP3    H123364   6.515   5.204   4.282
 7800TIP3    H223365   6.542   5.350   4.313
 7801TIP3   OH223366   6.441   2.014   0.111
 7801TIP3    H123367   6.353   2.029   0.145
 7801TIP3    H223368   6.432   2.029   0.016
 7802TIP3   OH223369   3.777   3.330   0.092
 7802TIP3    H123370   3.721   3.350   0.017
 7802TIP3    H223371   3.864   3.361   0.067
 7803TIP3   OH223372   3.868   4.683   5.301
 7803TIP3    H123373   3.811   4.639   5.238
 7803TIP3    H223374   3.896   4.763   5.257
 7804TIP3   OH223375   2.505   6.102   2.816
 7804TIP3    H123376   2.479   6.162   2.885
 7804TIP3    H223377   2.571   6.150   2.766
 7805TIP3   OH223378   6.750   6.267   2.030
 7805TIP3    H123379   6.841   6.290   2.047
 7805TIP3    H223380   6.752   6.173   2.010
 7806TIP3   OH223381   1.500   4.693   3.120
 7806TIP3    H123382   1.587   4.657   3.101
 7806TIP3    H223383   1.516   4.758   3.188
 7807TIP3   OH223384   3.049   3.668   4.371
 7807TIP3    H123385   3.024   3.709   4.454
 7807TIP3    H223386   3.030   3.734   4.305
 7808TIP3   OH223387   0.133   6.610   1.282
 7808TIP3    H123388   0.195   6.538   1.269
 7808TIP3    H223389   0.163   6.679   1.224
 7809TIP3   OH223390   1.817   2.253   0.213
 7809TIP3    H123391   1.760   2.233   0.139
 7809TIP3    H223392   1.760   2.299   0.275
 7810TIP3   OH223393   2.752   0.863   2.421
 7810TIP3    H123394   2.687   0.813   2.471
 7810TIP3    H223395   2.700   0.927   2.373
 7811TIP3   OH223396   7.145   6.141   0.125
 7811TIP3    H123397   7.085   6.124   0.053
 7811TIP3    H223398   7.226   6.095   0.101
 7812TIP3   OH223399   2.892   6.499   1.487
 7812TIP3    H123400   2.945   6.579   1.495
 7812TIP3    H223401   2.812   6.518   1.536
 7813TIP3   OH223402   5.994   2.368   3.658
 7813TIP3    H123403   6.087   2.348   3.654
 7813TIP3    H223404   5.955   2.295   3.708
 7814TIP3   OH223405   6.047   3.355   3.474
 7814TIP3    H123406   6.027   3.308   3.554
 7814TIP3    H223407   6.099   3.430   3.502
 7815TIP3   OH223408   1.720   1.341   1.781
 7815TIP3    H123409   1.795   1.286   1.760
 7815TIP3    H223410   1.657   1.282   1.821
 7816TIP3   OH223411   1.012   4.370   1.402
 7816TIP3    H123412   1.077   4.439   1.384
 7816TIP3    H223413   1.064   4.298   1.437
 7817TIP3   OH223414   3.715   6.400   3.584
 7817TIP3    H123415   3.674   6.408   3.498
 7817TIP3    H223416   3.770   6.322   3.577
 7818TIP3   OH223417   6.626   4.327   0.099
 7818TIP3    H123418   6.638   4.252   0.157
 7818TIP3    H223419   6.587   4.395   0.155
 7819TIP3   OH223420   0.677   2.551   1.645
 7819TIP3    H123421   0.583   2.535   1.658
 7819TIP3    H223422   0.720   2.480   1.692
 7820TIP3   OH223423   6.903   5.678   2.345
 7820TIP3    H123424   6.876   5.763   2.309
 7820TIP3    H223425   6.906   5.692   2.440
 7821TIP3   OH223426   0.125   4.164   3.908
 7821TIP3    H123427   0.201   4.136   3.856
 7821TIP3    H223428   0.061   4.094   3.897
 7822TIP3   OH223429   5.779   1.550   2.459
 7822TIP3    H123430   5.763   1.612   2.530
 7822TIP3    H223431   5.822   1.475   2.501
 7823TIP3   OH223432   3.755   2.908   5.725
 7823TIP3    H123433   3.721   2.842   5.663
 7823TIP3    H223434   3.750   2.990   5.677
 7824TIP3   OH223435   6.686   6.682   5.325
 7824TIP3    H123436   6.647   6.683   5.413
 7824TIP3    H223437   6.739   6.762   5.321
 7825TIP3   OH223438   3.433   0.204   5.311
 7825TIP3    H123439   3.495   0.220   5.382
 7825TIP3    H223440   3.416   0.291   5.274
 7826TIP3   OH223441   0.796   5.581   5.414
 7826TIP3    H123442   0.838   5.556   5.332
 7826TIP3    H223443   0.766   5.671   5.399
 7827TIP3   OH223444   0.366   6.326   3.093
 7827TIP3    H123445   0.364   6.230   3.097
 7827TIP3    H223446   0.457   6.349   3.112
 7828TIP3   OH223447   3.907   5.906   0.036
 7828TIP3    H123448   3.858   5.883   0.114
 7828TIP3    H223449   3.943   5.993   0.054
 7829TIP3   OH223450   3.562   3.335   3.624
 7829TIP3    H123451   3.523   3.255   3.660
 7829TIP3    H223452   3.624   3.303   3.558
 7830TIP3   OH223453   2.761   4.085   4.132
 7830TIP3    H123454   2.766   4.117   4.222
 7830TIP3    H223455   2.801   3.998   4.135
 7831TIP3   OH223456   6.399   0.743   3.075
 7831TIP3    H123457   6.454   0.701   3.009
 7831TIP3    H223458   6.309   0.723   3.048
 7832TIP3   OH223459   6.666   1.960   4.643
 7832TIP3    H123460   6.682   1.901   4.717
 7832TIP3    H223461   6.745   2.014   4.639
 7833TIP3   OH223462   0.321   3.338   3.749
 7833TIP3    H123463   0.266   3.277   3.800
 7833TIP3    H223464   0.293   3.425   3.778
 7834TIP3   OH223465   6.998   5.306   4.950
 7834TIP3    H123466   7.043   5.222   4.938
 7834TIP3    H223467   6.922   5.301   4.892
 7835TIP3   OH223468   1.973   2.660   3.130
 7835TIP3    H123469   2.048   2.615   3.090
 7835TIP3    H223470   2.003   2.750   3.143
 7836TIP3   OH223471   0.138   6.592   3.574
 7836TIP3    H123472   0.131   6.595   3.479
 7836TIP3    H223473   0.129   6.500   3.597
 7837TIP3   OH223474   2.138   1.020   0.777
 7837TIP3    H123475   2.106   0.941   0.820
 7837TIP3    H223476   2.115   1.009   0.685
 7838TIP3   OH223477   6.920   0.770   4.968
 7838TIP3    H123478   6.992   0.777   5.031
 7838TIP3    H223479   6.861   0.705   5.007
 7839TIP3   OH223480   1.742   4.585   1.437
 7839TIP3    H123481   1.814   4.523   1.437
 7839TIP3    H223482   1.712   4.587   1.528
 7840TIP3   OH223483   3.394   5.275   0.573
 7840TIP3    H123484   3.327   5.209   0.593
 7840TIP3    H223485   3.393   5.334   0.649
 7841TIP3   OH223486   1.899   5.181   1.279
 7841TIP3    H123487   1.839   5.122   1.233
 7841TIP3    H223488   1.943   5.230   1.210
 7842TIP3   OH223489   0.503   2.097   0.855
 7842TIP3    H123490   0.450   2.118   0.779
 7842TIP3    H223491   0.530   2.006   0.843
 7843TIP3   OH223492   3.770   0.685   3.008
 7843TIP3    H123493   3.843   0.650   3.058
 7843TIP3    H223494   3.725   0.607   2.973
 7844TIP3   OH223495   2.446   0.613   0.299
 7844TIP3    H123496   2.368   0.669   0.298
 7844TIP3    H223497   2.519   0.675   0.309
 7845TIP3   OH223498   5.602   5.287   0.840
 7845TIP3    H123499   5.542   5.213   0.832
 7845TIP3    H223500   5.560   5.344   0.904
 7846TIP3   OH223501   4.208   6.515   1.883
 7846TIP3    H123502   4.202   6.604   1.918
 7846TIP3    H223503   4.159   6.462   1.945
 7847TIP3   OH223504   0.883   0.897   5.473
 7847TIP3    H123505   0.968   0.869   5.438
 7847TIP3    H223506   0.881   0.863   5.562
 7848TIP3   OH223507   0.010   1.518   4.624
 7848TIP3    H123508   0.083   1.466   4.590
 7848TIP3    H223509   0.051   1.600   4.653
 7849TIP3   OH223510   6.859   4.226   1.783
 7849TIP3    H123511   6.827   4.213   1.873
 7849TIP3    H223512   6.949   4.193   1.785
 7850TIP3   OH223513   0.798   2.766   0.757
 7850TIP3    H123514   0.713   2.806   0.739
 7850TIP3    H223515   0.784   2.672   0.746
 7851TIP3   OH223516   6.361   0.357   2.550
 7851TIP3    H123517   6.295   0.291   2.571
 7851TIP3    H223518   6.439   0.329   2.598
 7852TIP3   OH223519   0.686   1.217   3.123
 7852TIP3    H123520   0.741   1.294   3.111
 7852TIP3    H223521   0.639   1.233   3.205
 7853TIP3   OH223522   6.223   2.467   1.774
 7853TIP3    H123523   6.134   2.501   1.765
 7853TIP3    H223524   6.226   2.434   1.864
 7854TIP3   OH223525   1.676   1.156   2.147
 7854TIP3    H123526   1.644   1.245   2.163
 7854TIP3    H223527   1.642   1.133   2.061
 7855TIP3   OH223528   5.134   6.488   2.258
 7855TIP3    H123529   5.053   6.470   2.210
 7855TIP3    H223530   5.149   6.408   2.310
 7856TIP3   OH223531   0.108   3.038   3.642
 7856TIP3    H123532   0.185   2.991   3.610
 7856TIP3    H223533   0.080   3.091   3.568
 7857TIP3   OH223534   2.144   5.688   5.879
 7857TIP3    H123535   2.103   5.770   5.907
 7857TIP3    H223536   2.081   5.621   5.904
 7858TIP3   OH223537   3.056   5.114   5.631
 7858TIP3    H123538   3.121   5.159   5.577
 7858TIP3    H223539   2.976   5.113   5.578
 7859TIP3   OH223540   2.982   0.749   5.792
 7859TIP3    H123541   2.924   0.773   5.865
 7859TIP3    H223542   2.927   0.758   5.715
 7860TIP3   OH223543   3.633   3.052   2.527
 7860TIP3    H123544   3.633   3.135   2.575
 7860TIP3    H223545   3.594   3.073   2.442
 7861TIP3   OH223546   3.522   4.495   2.020
 7861TIP3    H123547   3.482   4.431   1.962
 7861TIP3    H223548   3.487   4.579   1.991
 7862TIP3   OH223549   6.313  -0.014   0.756
 7862TIP3    H123550   6.295   0.069   0.799
 7862TIP3    H223551   6.264  -0.009   0.673
 7863TIP3   OH223552   0.344   3.592   2.837
 7863TIP3    H123553   0.290   3.627   2.766
 7863TIP3    H223554   0.325   3.648   2.912
 7864TIP3   OH223555   3.129   4.933   1.423
 7864TIP3    H123556   3.134   5.027   1.405
 7864TIP3    H223557   3.096   4.928   1.512
 7865TIP3   OH223558   7.086   3.664   3.158
 7865TIP3    H123559   7.070   3.731   3.224
 7865TIP3    H223560   7.140   3.707   3.092
 7866TIP3   OH223561   5.148   4.321   1.096
 7866TIP3    H123562   5.239   4.302   1.121
 7866TIP3    H223563   5.099   4.244   1.125
 7867TIP3   OH223564   0.068   1.922   1.353
 7867TIP3    H123565   0.113   2.002   1.380
 7867TIP3    H223566   0.019   1.895   1.431
 7868TIP3   OH223567   6.482   5.134   5.552
 7868TIP3    H123568   6.568   5.155   5.588
 7868TIP3    H223569   6.500   5.092   5.469
 7869TIP3   OH223570   6.547   3.468   5.823
 7869TIP3    H123571   6.490   3.432   5.755
 7869TIP3    H223572   6.556   3.561   5.800
 7870TIP3   OH223573   5.798   0.393   2.652
 7870TIP3    H123574   5.783   0.481   2.686
 7870TIP3    H223575   5.789   0.402   2.557
 7871TIP3   OH223576   4.949   0.511   0.391
 7871TIP3    H123577   4.995   0.488   0.471
 7871TIP3    H223578   4.901   0.432   0.366
 7872TIP3   OH223579   0.254   5.006   3.000
 7872TIP3    H123580   0.318   5.040   2.937
 7872TIP3    H223581   0.306   4.987   3.079
 7873TIP3   OH223582   5.673   0.502   3.290
 7873TIP3    H123583   5.585   0.538   3.296
 7873TIP3    H223584   5.695   0.509   3.197
 7874TIP3   OH223585   3.082   0.620   3.962
 7874TIP3    H123586   3.031   0.683   3.911
 7874TIP3    H223587   3.134   0.573   3.897
 7875TIP3   OH223588   4.797   2.730   1.159
 7875TIP3    H123589   4.795   2.824   1.177
 7875TIP3    H223590   4.728   2.716   1.095
 7876TIP3   OH223591   1.396   2.434   2.002
 7876TIP3    H123592   1.319   2.386   1.972
 7876TIP3    H223593   1.454   2.366   2.038
 7877TIP3   OH223594   2.594   2.473   2.335
 7877TIP3    H123595   2.579   2.481   2.241
 7877TIP3    H223596   2.506   2.480   2.374
 7878TIP3   OH223597   1.356   2.433   5.317
 7878TIP3    H123598   1.448   2.446   5.293
 7878TIP3    H223599   1.328   2.357   5.266
 7879TIP3   OH223600   3.226   1.849   5.739
 7879TIP3    H123601   3.224   1.866   5.833
 7879TIP3    H223602   3.229   1.936   5.699
 7880TIP3   OH223603   6.557   2.349   3.388
 7880TIP3    H123604   6.634   2.293   3.391
 7880TIP3    H223605   6.591   2.438   3.400
 7881TIP3   OH223606   6.600   2.496   0.923
 7881TIP3    H123607   6.640   2.563   0.868
 7881TIP3    H223608   6.526   2.464   0.871
 7882TIP3   OH223609   5.161   4.382   5.294
 7882TIP3    H123610   5.221   4.309   5.285
 7882TIP3    H223611   5.108   4.379   5.214
 7883TIP3   OH223612   3.364   6.010   4.159
 7883TIP3    H123613   3.315   6.014   4.241
 7883TIP3    H223614   3.339   6.090   4.112
 7884TIP3   OH223615   4.457   2.180   3.638
 7884TIP3    H123616   4.430   2.156   3.726
 7884TIP3    H223617   4.385   2.234   3.604
 7885TIP3   OH223618   4.085   2.868   2.554
 7885TIP3    H123619   4.102   2.775   2.565
 7885TIP3    H223620   4.122   2.909   2.633
 7886TIP3   OH223621   5.553   5.438   2.577
 7886TIP3    H123622   5.477   5.392   2.614
 7886TIP3    H223623   5.597   5.476   2.653
 7887TIP3   OH223624   3.391   4.622   1.568
 7887TIP3    H123625   3.377   4.699   1.624
 7887TIP3    H223626   3.367   4.652   1.480
 7888TIP3   OH223627   3.242   5.864   3.299
 7888TIP3    H123628   3.180   5.796   3.272
 7888TIP3    H223629   3.292   5.884   3.219
 7889TIP3   OH223630   2.039   2.417   0.060
 7889TIP3    H123631   2.027   2.335   0.108
 7889TIP3    H223632   2.121   2.406   0.013
 7890TIP3   OH223633   2.736   3.482   5.082
 7890TIP3    H123634   2.700   3.462   5.168
 7890TIP3    H223635   2.693   3.564   5.056
 7891TIP3   OH223636   5.912   3.453   4.191
 7891TIP3    H123637   5.929   3.438   4.284
 7891TIP3    H223638   5.828   3.500   4.189
 7892TIP3   OH223639   6.652   1.243   3.737
 7892TIP3    H123640   6.693   1.171   3.785
 7892TIP3    H223641   6.670   1.222   3.645
 7893TIP3   OH223642   6.886   2.906   2.265
 7893TIP3    H123643   6.851   2.841   2.326
 7893TIP3    H223644   6.981   2.892   2.267
 7894TIP3   OH223645   5.594   4.067   1.221
 7894TIP3    H123646   5.552   4.060   1.135
 7894TIP3    H223647   5.688   4.060   1.201
 7895TIP3   OH223648   0.049   4.978   3.315
 7895TIP3    H123649   0.085   4.931   3.390
 7895TIP3    H223650  -0.043   4.953   3.313
 7896TIP3   OH223651   4.450   6.262   0.190
 7896TIP3    H123652   4.424   6.200   0.121
 7896TIP3    H223653   4.373   6.271   0.245
 7897TIP3   OH223654   2.781   3.427   3.239
 7897TIP3    H123655   2.774   3.332   3.247
 7897TIP3    H223656   2.795   3.442   3.146
 7898TIP3   OH223657   5.678   4.323   2.818
 7898TIP3    H123658   5.689   4.260   2.747
 7898TIP3    H223659   5.599   4.296   2.864
 7899TIP3   OH223660   0.939   4.921   4.711
 7899TIP3    H123661   0.919   4.827   4.703
 7899TIP3    H223662   0.901   4.946   4.795
 7900TIP3   OH223663   6.713   6.404   5.175
 7900TIP3    H123664   6.735   6.490   5.212
 7900TIP3    H223665   6.642   6.372   5.230
 7901TIP3   OH223666   7.152   4.479   0.923
 7901TIP3    H123667   7.213   4.409   0.900
 7901TIP3    H223668   7.133   4.522   0.840
 7902TIP3   OH223669   3.392   2.044   4.404
 7902TIP3    H123670   3.422   2.102   4.334
 7902TIP3    H223671   3.460   2.049   4.470
 7903TIP3   OH223672   6.979   6.156   3.208
 7903TIP3    H123673   6.985   6.194   3.295
 7903TIP3    H223674   6.990   6.230   3.148
 7904TIP3   OH223675   4.145   1.870   0.671
 7904TIP3    H123676   4.199   1.823   0.735
 7904TIP3    H223677   4.157   1.821   0.590
 7905TIP3   OH223678   1.553   0.762   1.769
 7905TIP3    H123679   1.558   0.672   1.736
 7905TIP3    H223680   1.497   0.808   1.706
 7906TIP3   OH223681   6.128   3.237   4.227
 7906TIP3    H123682   6.102   3.254   4.318
 7906TIP3    H223683   6.106   3.145   4.213
 7907TIP3   OH223684   3.632   0.794   3.354
 7907TIP3    H123685   3.560   0.731   3.350
 7907TIP3    H223686   3.649   0.805   3.447
 7908TIP3   OH223687   7.035   0.171   5.648
 7908TIP3    H123688   7.101   0.120   5.601
 7908TIP3    H223689   7.028   0.128   5.733
 7909TIP3   OH223690   3.811   3.552   5.807
 7909TIP3    H123691   3.854   3.467   5.819
 7909TIP3    H223692   3.883   3.614   5.796
 7910TIP3   OH223693   5.892   2.346   3.933
 7910TIP3    H123694   5.883   2.324   4.025
 7910TIP3    H223695   5.951   2.421   3.932
 7911TIP3   OH223696   5.764   6.598   0.355
 7911TIP3    H123697   5.703   6.594   0.282
 7911TIP3    H223698   5.771   6.691   0.376
 7912TIP3   OH223699   4.674   2.694   2.462
 7912TIP3    H123700   4.722   2.744   2.529
 7912TIP3    H223701   4.582   2.714   2.479
 7913TIP3   OH223702   2.411   1.295   4.631
 7913TIP3    H123703   2.488   1.245   4.604
 7913TIP3    H223704   2.405   1.280   4.726
 7914TIP3   OH223705   1.168   0.571   2.656
 7914TIP3    H123706   1.261   0.592   2.663
 7914TIP3    H223707   1.149   0.576   2.562
 7915TIP3   OH223708   4.587   1.827   5.164
 7915TIP3    H123709   4.627   1.746   5.196
 7915TIP3    H223710   4.609   1.892   5.231
 7916TIP3   OH223711   0.445   1.332   0.593
 7916TIP3    H123712   0.440   1.371   0.505
 7916TIP3    H223713   0.459   1.239   0.578
 7917TIP3   OH223714   7.146   0.105   2.175
 7917TIP3    H123715   7.140   0.078   2.083
 7917TIP3    H223716   7.172   0.025   2.222
 7918TIP3   OH223717   3.749   1.134   0.420
 7918TIP3    H123718   3.713   1.046   0.434
 7918TIP3    H223719   3.797   1.127   0.338
 7919TIP3   OH223720   0.647   6.259   1.162
 7919TIP3    H123721   0.708   6.186   1.174
 7919TIP3    H223722   0.589   6.253   1.238
 7920TIP3   OH223723   0.760   0.218   5.419
 7920TIP3    H123724   0.696   0.251   5.356
 7920TIP3    H223725   0.711   0.212   5.501
 7921TIP3   OH223726   5.428   2.546   1.113
 7921TIP3    H123727   5.393   2.634   1.127
 7921TIP3    H223728   5.504   2.541   1.170
 7922TIP3   OH223729   2.035   2.111   0.086
 7922TIP3    H123730   2.113   2.078   0.132
 7922TIP3    H223731   1.964   2.100   0.149
 7923TIP3   OH223732   6.088   1.132   1.573
 7923TIP3    H123733   6.005   1.107   1.613
 7923TIP3    H223734   6.066   1.145   1.480
 7924TIP3   OH223735   0.904   6.592   2.975
 7924TIP3    H123736   0.921   6.512   2.925
 7924TIP3    H223737   0.892   6.660   2.908
 7925TIP3   OH223738   6.265   2.462   3.598
 7925TIP3    H123739   6.347   2.458   3.648
 7925TIP3    H223740   6.274   2.540   3.544
 7926TIP3   OH223741   0.758   3.718   1.965
 7926TIP3    H123742   0.787   3.703   1.875
 7926TIP3    H223743   0.759   3.631   2.006
 7927TIP3   OH223744   5.368   4.210   5.299
 7927TIP3    H123745   5.367   4.120   5.265
 7927TIP3    H223746   5.441   4.252   5.254
 7928TIP3   OH223747   6.450   0.987   5.533
 7928TIP3    H123748   6.420   0.906   5.577
 7928TIP3    H223749   6.513   0.957   5.468
 7929TIP3   OH223750   0.860   6.758   1.294
 7929TIP3    H123751   0.778   6.761   1.344
 7929TIP3    H223752   0.888   6.850   1.288
 7930TIP3   OH223753   2.338   4.837   1.396
 7930TIP3    H123754   2.412   4.823   1.337
 7930TIP3    H223755   2.373   4.891   1.467
 7931TIP3   OH223756   5.606   4.229   4.142
 7931TIP3    H123757   5.513   4.215   4.157
 7931TIP3    H223758   5.634   4.284   4.216
 7932TIP3   OH223759   6.002   1.381   1.144
 7932TIP3    H123760   6.017   1.462   1.095
 7932TIP3    H223761   6.079   1.327   1.127
 7933TIP3   OH223762   0.093   0.336   2.646
 7933TIP3    H123763   0.124   0.391   2.718
 7933TIP3    H223764   0.108   0.388   2.567
 7934TIP3   OH223765   3.323   4.797   3.916
 7934TIP3    H123766   3.395   4.738   3.892
 7934TIP3    H223767   3.265   4.743   3.970
 7935TIP3   OH223768   5.102   5.990   4.156
 7935TIP3    H123769   5.049   6.067   4.132
 7935TIP3    H223770   5.055   5.916   4.119
 7936TIP3   OH223771   4.209   3.636   0.766
 7936TIP3    H123772   4.265   3.615   0.841
 7936TIP3    H223773   4.132   3.677   0.805
 7937TIP3   OH223774   2.634   1.382   2.098
 7937TIP3    H123775   2.645   1.419   2.185
 7937TIP3    H223776   2.724   1.367   2.067
 7938TIP3   OH223777   3.838   4.857   2.642
 7938TIP3    H123778   3.875   4.899   2.720
 7938TIP3    H223779   3.913   4.816   2.600
 7939TIP3   OH223780   5.759   2.337   1.481
 7939TIP3    H123781   5.835   2.336   1.423
 7939TIP3    H223782   5.698   2.276   1.441
 7940TIP3   OH223783   1.205   3.842   4.886
 7940TIP3    H123784   1.175   3.751   4.890
 7940TIP3    H223785   1.289   3.841   4.932
 7941TIP3   OH223786   2.559   0.207   4.421
 7941TIP3    H123787   2.465   0.197   4.406
 7941TIP3    H223788   2.600   0.146   4.361
 7942TIP3   OH223789   4.215   3.534   0.131
 7942TIP3    H123790   4.225   3.521   0.226
 7942TIP3    H223791   4.165   3.615   0.124
 7943TIP3   OH223792   4.204   6.230   0.363
 7943TIP3    H123793   4.199   6.311   0.414
 7943TIP3    H223794   4.236   6.164   0.425
 7944TIP3   OH223795   0.401   4.289   5.416
 7944TIP3    H123796   0.418   4.217   5.355
 7944TIP3    H223797   0.481   4.295   5.469
 7945TIP3   OH223798   0.929   1.048   5.241
 7945TIP3    H123799   0.951   1.054   5.334
 7945TIP3    H223800   0.984   0.977   5.207
 7946TIP3   OH223801   2.838   0.610   0.316
 7946TIP3    H123802   2.781   0.686   0.306
 7946TIP3    H223803   2.915   0.643   0.362
 7947TIP3   OH223804   3.335   6.580   3.250
 7947TIP3    H123805   3.303   6.632   3.324
 7947TIP3    H223806   3.258   6.532   3.219
 7948TIP3   OH223807   1.570   1.248   4.612
 7948TIP3    H123808   1.615   1.181   4.561
 7948TIP3    H223809   1.552   1.318   4.548
 7949TIP3   OH223810   0.050   2.082   4.908
 7949TIP3    H123811   0.140   2.099   4.879
 7949TIP3    H223812   0.010   2.169   4.913
 7950TIP3   OH223813   6.756   5.153   2.192
 7950TIP3    H123814   6.661   5.163   2.179
 7950TIP3    H223815   6.791   5.145   2.103
 7951TIP3   OH223816   2.053   0.034   2.743
 7951TIP3    H123817   2.017  -0.054   2.729
 7951TIP3    H223818   1.985   0.093   2.710
 7952TIP3   OH223819   1.266   5.737   1.832
 7952TIP3    H123820   1.278   5.724   1.926
 7952TIP3    H223821   1.179   5.777   1.825
 7953TIP3   OH223822   6.168   4.678   2.258
 7953TIP3    H123823   6.204   4.766   2.249
 7953TIP3    H223824   6.217   4.638   2.329
 7954TIP3   OH223825   1.055   5.125   2.056
 7954TIP3    H123826   1.009   5.058   2.005
 7954TIP3    H223827   1.026   5.110   2.146
 7955TIP3   OH223828   2.270   4.028   5.688
 7955TIP3    H123829   2.197   4.060   5.741
 7955TIP3    H223830   2.340   4.012   5.751
 7956TIP3   OH223831   5.907   1.497   5.566
 7956TIP3    H123832   5.822   1.478   5.606
 7956TIP3    H223833   5.929   1.585   5.597
 7957TIP3   OH223834   2.011   5.801   1.910
 7957TIP3    H123835   2.012   5.784   1.815
 7957TIP3    H223836   1.920   5.792   1.935
 7958TIP3   OH223837   5.261   1.655   0.842
 7958TIP3    H123838   5.207   1.592   0.796
 7958TIP3    H223839   5.279   1.724   0.778
 7959TIP3   OH223840   4.936   4.563   1.504
 7959TIP3    H123841   4.892   4.635   1.460
 7959TIP3    H223842   4.872   4.492   1.505
 7960TIP3   OH223843   4.847   6.171   3.494
 7960TIP3    H123844   4.824   6.254   3.452
 7960TIP3    H223845   4.809   6.176   3.581
 7961TIP3   OH223846   6.544   0.102   4.376
 7961TIP3    H123847   6.631   0.068   4.395
 7961TIP3    H223848   6.484   0.040   4.416
 7962TIP3   OH223849   6.578   0.151   5.893
 7962TIP3    H123850   6.656   0.190   5.934
 7962TIP3    H223851   6.560   0.208   5.818
 7963TIP3   OH223852   4.712   3.034   0.505
 7963TIP3    H123853   4.710   2.948   0.463
 7963TIP3    H223854   4.722   3.096   0.433
 7964TIP3   OH223855   5.025   0.367   4.005
 7964TIP3    H123856   4.995   0.435   3.944
 7964TIP3    H223857   4.955   0.361   4.070
 7965TIP3   OH223858   6.968   1.268   2.458
 7965TIP3    H123859   7.004   1.310   2.381
 7965TIP3    H223860   7.021   1.300   2.531
 7966TIP3   OH223861  -0.017   5.537   4.599
 7966TIP3    H123862  -0.052   5.545   4.510
 7966TIP3    H223863   0.073   5.508   4.586
 7967TIP3   OH223864   0.665   3.437   4.278
 7967TIP3    H123865   0.682   3.348   4.246
 7967TIP3    H223866   0.678   3.431   4.373
 7968TIP3   OH223867   1.565   0.747   2.931
 7968TIP3    H123868   1.583   0.840   2.914
 7968TIP3    H223869   1.629   0.722   2.997
 7969TIP3   OH223870   2.668   3.043   4.273
 7969TIP3    H123871   2.572   3.036   4.272
 7969TIP3    H223872   2.690   3.055   4.366
 7970TIP3   OH223873   5.207   2.184   0.446
 7970TIP3    H123874   5.254   2.202   0.365
 7970TIP3    H223875   5.275   2.171   0.511
 7971TIP3   OH223876   5.018   1.217   4.433
 7971TIP3    H123877   4.980   1.269   4.503
 7971TIP3    H223878   4.956   1.144   4.422
 7972TIP3   OH223879   6.360   4.798   4.853
 7972TIP3    H123880   6.351   4.735   4.925
 7972TIP3    H223881   6.277   4.790   4.805
 7973TIP3   OH223882   2.773   2.177   4.120
 7973TIP3    H123883   2.711   2.123   4.169
 7973TIP3    H223884   2.788   2.253   4.177
 7974TIP3   OH223885   6.020   1.142   3.927
 7974TIP3    H123886   5.941   1.115   3.880
 7974TIP3    H223887   6.000   1.125   4.019
 7975TIP3   OH223888   5.174   3.312   3.723
 7975TIP3    H123889   5.099   3.266   3.687
 7975TIP3    H223890   5.228   3.335   3.646
 7976TIP3   OH223891   1.230   1.120   2.648
 7976TIP3    H123892   1.274   1.038   2.674
 7976TIP3    H223893   1.269   1.187   2.704
 7977TIP3   OH223894   5.702   2.691   4.451
 7977TIP3    H123895   5.723   2.780   4.419
 7977TIP3    H223896   5.636   2.705   4.518
 7978TIP3   OH223897   4.237   6.705   2.659
 7978TIP3    H123898   4.169   6.743   2.603
 7978TIP3    H223899   4.302   6.775   2.667
 7979TIP3   OH223900   2.190   6.222   3.306
 7979TIP3    H123901   2.217   6.239   3.216
 7979TIP3    H223902   2.134   6.145   3.300
 7980TIP3   OH223903   6.203   0.903   0.077
 7980TIP3    H123904   6.192   0.971   0.144
 7980TIP3    H223905   6.130   0.843   0.092
 7981TIP3   OH223906   2.640   0.393   4.637
 7981TIP3    H123907   2.592   0.475   4.644
 7981TIP3    H223908   2.611   0.355   4.554
 7982TIP3   OH223909   0.594   2.007   0.066
 7982TIP3    H123910   0.614   1.934   0.007
 7982TIP3    H223911   0.569   1.965   0.148
 7983TIP3   OH223912   6.042   0.995   4.158
 7983TIP3    H123913   5.980   1.005   4.230
 7983TIP3    H223914   6.106   0.931   4.191
 7984TIP3   OH223915   1.456   1.258   3.056
 7984TIP3    H123916   1.404   1.300   3.124
 7984TIP3    H223917   1.541   1.303   3.058
 7985TIP3   OH223918   5.441   5.851   0.563
 7985TIP3    H123919   5.533   5.825   0.555
 7985TIP3    H223920   5.408   5.802   0.638
 7986TIP3   OH223921   1.398   6.261   1.785
 7986TIP3    H123922   1.396   6.200   1.712
 7986TIP3    H223923   1.307   6.287   1.798
 7987TIP3   OH223924   3.733   3.542   4.627
 7987TIP3    H123925   3.774   3.627   4.641
 7987TIP3    H223926   3.799   3.491   4.580
 7988TIP3   OH223927   5.363   2.566   3.298
 7988TIP3    H123928   5.455   2.585   3.321
 7988TIP3    H223929   5.368   2.483   3.250
 7989TIP3   OH223930   2.061   3.954   2.994
 7989TIP3    H123931   2.095   3.957   2.904
 7989TIP3    H223932   2.019   4.039   3.006
 7990TIP3   OH223933   3.370   5.198   2.353
 7990TIP3    H123934   3.462   5.221   2.357
 7990TIP3    H223935   3.345   5.216   2.262
 7991TIP3   OH223936   3.170   1.740   4.610
 7991TIP3    H123937   3.140   1.795   4.682
 7991TIP3    H223938   3.178   1.801   4.536
 7992TIP3   OH223939   4.116   5.600   3.431
 7992TIP3    H123940   4.186   5.631   3.373
 7992TIP3    H223941   4.154   5.608   3.519
 7993TIP3   OH223942   0.421   1.790   5.604
 7993TIP3    H123943   0.503   1.767   5.649
 7993TIP3    H223944   0.365   1.825   5.672
 7994TIP3   OH223945   2.756   1.624   3.799
 7994TIP3    H123946   2.697   1.697   3.816
 7994TIP3    H223947   2.822   1.661   3.739
 7995TIP3   OH223948   3.586   0.448   2.421
 7995TIP3    H123949   3.514   0.447   2.358
 7995TIP3    H223950   3.580   0.534   2.462
 7996TIP3   OH223951   4.697   5.182   5.120
 7996TIP3    H123952   4.649   5.135   5.052
 7996TIP3    H223953   4.735   5.258   5.075
 7997TIP3   OH223954   3.698   5.980   5.803
 7997TIP3    H123955   3.688   6.049   5.868
 7997TIP3    H223956   3.786   5.946   5.818
 7998TIP3   OH223957   5.479   4.867   4.312
 7998TIP3    H123958   5.490   4.794   4.372
 7998TIP3    H223959   5.527   4.939   4.352
 7999TIP3   OH223960   6.143   4.666   3.896
 7999TIP3    H123961   6.104   4.722   3.964
 7999TIP3    H223962   6.109   4.701   3.814
 8000TIP3   OH223963   4.436   5.759   3.213
 8000TIP3    H123964   4.391   5.675   3.221
 8000TIP3    H223965   4.446   5.789   3.304
 8001TIP3   OH223966   3.820   5.981   0.549
 8001TIP3    H123967   3.810   5.984   0.454
 8001TIP3    H223968   3.845   6.070   0.574
 8002TIP3   OH223969   1.169   3.297   3.284
 8002TIP3    H123970   1.119   3.266   3.360
 8002TIP3    H223971   1.106   3.295   3.212
 8003TIP3   OH223972   2.302   3.267   5.823
 8003TIP3    H123973   2.248   3.205   5.872
 8003TIP3    H223974   2.255   3.350   5.830
 8004TIP3   OH223975   4.456   0.266   1.028
 8004TIP3    H123976   4.395   0.196   1.049
 8004TIP3    H223977   4.423   0.304   0.946
 8005TIP3   OH223978   3.457   6.379   5.084
 8005TIP3    H123979   3.395   6.424   5.027
 8005TIP3    H223980   3.521   6.341   5.025
 8006TIP3   OH223981   1.563   2.747   2.428
 8006TIP3    H123982   1.650   2.787   2.420
 8006TIP3    H223983   1.544   2.712   2.341
 8007TIP3   OH223984   0.467   0.718   5.851
 8007TIP3    H123985   0.523   0.776   5.799
 8007TIP3    H223986   0.385   0.767   5.861
 8008TIP3   OH223987   5.527   3.306   4.019
 8008TIP3    H123988   5.497   3.245   3.952
 8008TIP3    H223989   5.453   3.315   4.078
 8009TIP3   OH223990   5.131   2.550   5.421
 8009TIP3    H123991   5.136   2.644   5.438
 8009TIP3    H223992   5.171   2.510   5.498
 8010TIP3   OH223993   1.600   6.678   0.599
 8010TIP3    H123994   1.553   6.729   0.666
 8010TIP3    H223995   1.531   6.649   0.539
 8011TIP3   OH223996   6.961   1.328   1.479
 8011TIP3    H123997   6.886   1.383   1.459
 8011TIP3    H223998   7.014   1.329   1.399
 8012TIP3   OH223999   4.378   1.828   0.044
 8012TIP3    H124000   4.470   1.847   0.064
 8012TIP3    H224001   4.378   1.800  -0.047
 8013TIP3   OH224002   0.690   1.939   3.091
 8013TIP3    H124003   0.602   1.901   3.084
 8013TIP3    H224004   0.700   1.991   3.011
 8014TIP3   OH224005   2.981   4.748   5.276
 8014TIP3    H124006   3.037   4.798   5.216
 8014TIP3    H224007   2.895   4.746   5.232
 8015TIP3   OH224008   1.777   5.502   5.575
 8015TIP3    H124009   1.836   5.431   5.600
 8015TIP3    H224010   1.832   5.560   5.522
 8016TIP3   OH224011   5.301   4.663   5.927
 8016TIP3    H124012   5.213   4.629   5.911
 8016TIP3    H224013   5.356   4.585   5.937
 8017TIP3   OH224014   4.952   4.314   0.894
 8017TIP3    H124015   4.887   4.328   0.962
 8017TIP3    H224016   5.036   4.313   0.940
 8018TIP3   OH224017   4.132   3.335   5.566
 8018TIP3    H124018   4.069   3.327   5.638
 8018TIP3    H224019   4.211   3.292   5.598
 8019TIP3   OH224020   5.147   1.115   1.100
 8019TIP3    H124021   5.153   1.019   1.101
 8019TIP3    H224022   5.147   1.138   1.008
 8020TIP3   OH224023   6.395   5.307   3.992
 8020TIP3    H124024   6.471   5.273   4.040
 8020TIP3    H224025   6.376   5.391   4.034
 8021TIP3   OH224026   1.682   4.002   2.010
 8021TIP3    H124027   1.637   4.081   2.040
 8021TIP3    H224028   1.745   3.982   2.079
 8022TIP3   OH224029   6.928   2.634   1.036
 8022TIP3    H124030   6.896   2.624   1.125
 8022TIP3    H224031   7.010   2.584   1.034
 8023TIP3   OH224032   4.034   2.871   1.243
 8023TIP3    H124033   4.055   2.779   1.260
 8023TIP3    H224034   3.955   2.888   1.294
 8024TIP3   OH224035   5.197   6.287   2.738
 8024TIP3    H124036   5.127   6.236   2.777
 8024TIP3    H224037   5.215   6.356   2.802
 8025TIP3   OH224038   5.593   5.900   1.468
 8025TIP3    H124039   5.543   5.863   1.396
 8025TIP3    H224040   5.553   5.864   1.547
 8026TIP3   OH224041   0.879   6.092   1.285
 8026TIP3    H124042   0.954   6.130   1.238
 8026TIP3    H224043   0.841   6.031   1.222
 8027TIP3   OH224044   2.372   6.314   4.086
 8027TIP3    H124045   2.389   6.385   4.148
 8027TIP3    H224046   2.425   6.337   4.009
 8028TIP3   OH224047   0.439   1.855   3.849
 8028TIP3    H124048   0.417   1.869   3.757
 8028TIP3    H224049   0.442   1.760   3.859
 8029TIP3   OH224050   3.680   2.401   3.386
 8029TIP3    H124051   3.659   2.486   3.349
 8029TIP3    H224052   3.625   2.394   3.464
 8030TIP3   OH224053   1.949   6.635   1.253
 8030TIP3    H124054   2.040   6.657   1.269
 8030TIP3    H224055   1.904   6.657   1.335
 8031TIP3   OH224056   0.809   5.275   0.441
 8031TIP3    H124057   0.717   5.248   0.433
 8031TIP3    H224058   0.849   5.209   0.497
 8032TIP3   OH224059   6.758   1.855   1.779
 8032TIP3    H124060   6.767   1.936   1.829
 8032TIP3    H224061   6.730   1.884   1.692
 8033TIP3   OH224062   0.930   2.707   4.068
 8033TIP3    H124063   0.940   2.612   4.064
 8033TIP3    H224064   0.899   2.725   4.156
 8034TIP3   OH224065   0.856   1.613   4.005
 8034TIP3    H124066   0.882   1.654   3.923
 8034TIP3    H224067   0.845   1.687   4.066
 8035TIP3   OH224068   0.858   2.079   5.383
 8035TIP3    H124069   0.791   2.141   5.353
 8035TIP3    H224070   0.848   2.003   5.326
 8036TIP3   OH224071   6.181   0.345   0.703
 8036TIP3    H124072   6.176   0.361   0.797
 8036TIP3    H224073   6.099   0.379   0.668
 8037TIP3   OH224074   2.202   4.204   4.057
 8037TIP3    H124075   2.115   4.174   4.081
 8037TIP3    H224076   2.187   4.272   3.991
 8038TIP3   OH224077   4.056   1.625   4.746
 8038TIP3    H124078   3.968   1.634   4.784
 8038TIP3    H224079   4.065   1.699   4.686
 8039TIP3   OH224080   3.916   4.855   4.361
 8039TIP3    H124081   3.840   4.914   4.353
 8039TIP3    H224082   3.878   4.769   4.375
 8040TIP3   OH224083   4.180   6.553   1.584
 8040TIP3    H124084   4.206   6.565   1.676
 8040TIP3    H224085   4.255   6.583   1.534
 8041TIP3   OH224086   5.265   1.516   4.398
 8041TIP3    H124087   5.181   1.514   4.352
 8041TIP3    H224088   5.330   1.504   4.329
 8042TIP3   OH224089   4.596   3.229   1.875
 8042TIP3    H124090   4.656   3.303   1.861
 8042TIP3    H224091   4.588   3.188   1.790
 8043TIP3   OH224092   6.937   6.647   1.575
 8043TIP3    H124093   6.981   6.578   1.526
 8043TIP3    H224094   6.999   6.670   1.645
 8044TIP3   OH224095   5.750   1.196   4.973
 8044TIP3    H124096   5.840   1.214   4.947
 8044TIP3    H224097   5.736   1.250   5.051
 8045TIP3   OH224098   3.478   4.728   3.126
 8045TIP3    H124099   3.438   4.694   3.046
 8045TIP3    H224100   3.409   4.720   3.192
 8046TIP3   OH224101   6.618   1.330   5.023
 8046TIP3    H124102   6.605   1.242   5.059
 8046TIP3    H224103   6.565   1.332   4.943
 8047TIP3   OH224104   2.924   0.271   5.665
 8047TIP3    H124105   2.884   0.332   5.603
 8047TIP3    H224106   2.889   0.186   5.640
 8048TIP3   OH224107   5.526   2.489   4.792
 8048TIP3    H124108   5.455   2.484   4.856
 8048TIP3    H224109   5.563   2.400   4.790
 8049TIP3   OH224110   3.649   4.165   2.112
 8049TIP3    H124111   3.577   4.198   2.060
 8049TIP3    H224112   3.632   4.198   2.201
 8050TIP3   OH224113   4.545   2.062   2.329
 8050TIP3    H124114   4.461   2.039   2.369
 8050TIP3    H224115   4.525   2.137   2.273
 8051TIP3   OH224116   1.016   3.254   1.417
 8051TIP3    H124117   1.016   3.246   1.513
 8051TIP3    H224118   1.070   3.181   1.387
 8052TIP3   OH224119   5.136   1.564   2.998
 8052TIP3    H124120   5.144   1.642   2.943
 8052TIP3    H224121   5.208   1.572   3.061
 8053TIP3   OH224122   4.752   0.050   3.169
 8053TIP3    H124123   4.689   0.036   3.098
 8053TIP3    H224124   4.789  -0.037   3.185
 8054TIP3   OH224125   2.751   4.815   2.873
 8054TIP3    H124126   2.681   4.815   2.808
 8054TIP3    H224127   2.775   4.907   2.882
 8055TIP3   OH224128   7.059   5.000   2.108
 8055TIP3    H124129   6.990   5.026   2.046
 8055TIP3    H224130   7.044   4.907   2.122
 8056TIP3   OH224131   1.745   6.043   5.598
 8056TIP3    H124132   1.812   6.008   5.657
 8056TIP3    H224133   1.673   6.068   5.656
 8057TIP3   OH224134   0.547   1.091   0.484
 8057TIP3    H124135   0.585   1.021   0.431
 8057TIP3    H224136   0.620   1.125   0.536
 8058TIP3   OH224137   1.845   4.526   5.036
 8058TIP3    H124138   1.867   4.492   4.949
 8058TIP3    H224139   1.859   4.452   5.095
 8059TIP3   OH224140   1.522   1.690   1.117
 8059TIP3    H124141   1.487   1.774   1.086
 8059TIP3    H224142   1.478   1.624   1.064
 8060TIP3   OH224143   4.847   5.713   4.216
 8060TIP3    H124144   4.773   5.687   4.162
 8060TIP3    H224145   4.923   5.672   4.173
 8061TIP3   OH224146   3.115   1.127   4.637
 8061TIP3    H124147   3.092   1.187   4.566
 8061TIP3    H224148   3.200   1.091   4.611
 8062TIP3   OH224149   6.568   6.307   5.407
 8062TIP3    H124150   6.589   6.341   5.494
 8062TIP3    H224151   6.474   6.325   5.397
 8063TIP3   OH224152   2.397   1.522   0.568
 8063TIP3    H124153   2.347   1.452   0.526
 8063TIP3    H224154   2.344   1.601   0.553
 8064TIP3   OH224155   2.935   3.877   1.994
 8064TIP3    H124156   2.861   3.866   2.054
 8064TIP3    H224157   3.012   3.858   2.047
 8065TIP3   OH224158   5.994   5.012   0.428
 8065TIP3    H124159   6.011   5.086   0.486
 8065TIP3    H224160   5.898   5.009   0.421
 8066TIP3   OH224161   2.268   5.278   1.213
 8066TIP3    H124162   2.175   5.255   1.207
 8066TIP3    H224163   2.312   5.211   1.160
 8067TIP3   OH224164   4.235   4.614   5.352
 8067TIP3    H124165   4.301   4.648   5.412
 8067TIP3    H224166   4.162   4.590   5.408
 8068TIP3   OH224167   0.021   2.250   3.047
 8068TIP3    H124168   0.073   2.199   3.110
 8068TIP3    H224169  -0.045   2.294   3.101
 8069TIP3   OH224170   4.490   1.536   0.418
 8069TIP3    H124171   4.400   1.519   0.389
 8069TIP3    H224172   4.544   1.479   0.363
 8070TIP3   OH224173   6.769   0.937   5.422
 8070TIP3    H124174   6.802   1.027   5.423
 8070TIP3    H224175   6.773   0.911   5.330
 8071TIP3   OH224176   6.761   1.676   4.066
 8071TIP3    H124177   6.726   1.650   4.151
 8071TIP3    H224178   6.780   1.594   4.021
 8072TIP3   OH224179   2.454   6.434   5.359
 8072TIP3    H124180   2.466   6.441   5.264
 8072TIP3    H224181   2.453   6.524   5.390
 8073TIP3   OH224182  -0.007   5.093   3.831
 8073TIP3    H124183  -0.042   5.007   3.810
 8073TIP3    H224184   0.005   5.135   3.746
 8074TIP3   OH224185   2.432   0.453   2.146
 8074TIP3    H124186   2.494   0.489   2.210
 8074TIP3    H224187   2.366   0.409   2.198
 8075TIP3   OH224188   6.222   2.469   4.319
 8075TIP3    H124189   6.249   2.390   4.272
 8075TIP3    H224190   6.301   2.496   4.366
 8076TIP3   OH224191   0.747   5.037   1.404
 8076TIP3    H124192   0.768   4.982   1.329
 8076TIP3    H224193   0.653   5.053   1.398
 8077TIP3   OH224194   3.242   6.576   0.880
 8077TIP3    H124195   3.192   6.572   0.798
 8077TIP3    H224196   3.227   6.491   0.921
 8078TIP3   OH224197   0.560   2.397   4.790
 8078TIP3    H124198   0.647   2.431   4.808
 8078TIP3    H224199   0.574   2.307   4.761
 8079TIP3   OH224200   0.002   3.168   3.296
 8079TIP3    H124201   0.093   3.152   3.323
 8079TIP3    H224202   0.000   3.261   3.274
 8080TIP3   OH224203   5.686   5.864   5.470
 8080TIP3    H124204   5.751   5.933   5.480
 8080TIP3    H224205   5.726   5.801   5.410
 8081TIP3   OH224206   4.061   3.369   1.867
 8081TIP3    H124207   4.045   3.324   1.950
 8081TIP3    H224208   3.989   3.341   1.811
 8082TIP3   OH224209   5.193   3.311   5.497
 8082TIP3    H124210   5.102   3.329   5.523
 8082TIP3    H224211   5.214   3.379   5.433
 8083TIP3   OH224212   0.186   5.224   3.282
 8083TIP3    H124213   0.237   5.212   3.362
 8083TIP3    H224214   0.121   5.154   3.284
 8084TIP3   OH224215   4.487   4.355   2.601
 8084TIP3    H124216   4.514   4.444   2.625
 8084TIP3    H224217   4.471   4.359   2.507
 8085TIP3   OH224218   5.053   2.985   0.754
 8085TIP3    H124219   4.993   3.028   0.815
 8085TIP3    H224220   5.066   2.898   0.791
 8086TIP3   OH224221   6.001   1.298   3.036
 8086TIP3    H124222   6.050   1.341   3.106
 8086TIP3    H224223   5.957   1.370   2.990
 8087TIP3   OH224224   1.496   5.348   2.225
 8087TIP3    H124225   1.535   5.344   2.137
 8087TIP3    H224226   1.403   5.333   2.211
 8088TIP3   OH224227   1.110   0.645   4.603
 8088TIP3    H124228   1.065   0.714   4.651
 8088TIP3    H224229   1.184   0.620   4.659
 8089TIP3   OH224230   3.033   2.294   0.129
 8089TIP3    H124231   2.993   2.368   0.176
 8089TIP3    H224232   3.077   2.333   0.054
 8090TIP3   OH224233   7.017   5.479   1.725
 8090TIP3    H124234   7.037   5.507   1.636
 8090TIP3    H224235   7.090   5.513   1.778
 8091TIP3   OH224236   3.852   3.179   3.902
 8091TIP3    H124237   3.777   3.237   3.898
 8091TIP3    H224238   3.881   3.184   3.993
 8092TIP3   OH224239   6.073   4.459   4.131
 8092TIP3    H124240   6.067   4.542   4.082
 8092TIP3    H224241   6.001   4.462   4.193
 8093TIP3   OH224242   7.091   3.587   3.918
 8093TIP3    H124243   7.007   3.598   3.874
 8093TIP3    H224244   7.079   3.511   3.975
 8094TIP3   OH224245   2.768   4.639   0.844
 8094TIP3    H124246   2.760   4.716   0.901
 8094TIP3    H224247   2.726   4.665   0.762
 8095TIP3   OH224248   6.769   6.290   4.496
 8095TIP3    H124249   6.791   6.336   4.415
 8095TIP3    H224250   6.788   6.353   4.565
 8096TIP3   OH224251   0.074   1.041   3.559
 8096TIP3    H124252   0.141   1.108   3.547
 8096TIP3    H224253   0.113   0.977   3.618
 8097TIP3   OH224254   4.518   1.527   5.094
 8097TIP3    H124255   4.568   1.565   5.022
 8097TIP3    H224256   4.581   1.522   5.167
 8098TIP3   OH224257   4.947   0.534   4.713
 8098TIP3    H124258   5.024   0.501   4.666
 8098TIP3    H224259   4.972   0.624   4.736
 8099TIP3   OH224260   5.789   6.250   3.376
 8099TIP3    H124261   5.748   6.260   3.290
 8099TIP3    H224262   5.881   6.273   3.363
 8100TIP3   OH224263   3.398   2.445   1.813
 8100TIP3    H124264   3.457   2.476   1.882
 8100TIP3    H224265   3.322   2.411   1.860
 8101TIP3   OH224266   6.737   2.409   5.319
 8101TIP3    H124267   6.802   2.401   5.390
 8101TIP3    H224268   6.749   2.498   5.286
 8102TIP3   OH224269   7.093   6.428   3.927
 8102TIP3    H124270   7.096   6.523   3.940
 8102TIP3    H224271   7.185   6.402   3.917
 8103TIP3   OH224272   5.202   1.313   3.961
 8103TIP3    H124273   5.147   1.273   4.028
 8103TIP3    H224274   5.209   1.247   3.892
 8104TIP3   OH224275   0.380   3.822   4.917
 8104TIP3    H124276   0.362   3.825   5.011
 8104TIP3    H224277   0.410   3.910   4.895
 8105TIP3   OH224278   0.228   6.307   0.030
 8105TIP3    H124279   0.246   6.396  -0.002
 8105TIP3    H224280   0.230   6.315   0.125
 8106TIP3   OH224281   2.810   5.394   3.554
 8106TIP3    H124282   2.756   5.317   3.537
 8106TIP3    H224283   2.793   5.453   3.481
 8107TIP3   OH224284   2.601   5.695   3.247
 8107TIP3    H124285   2.656   5.622   3.218
 8107TIP3    H224286   2.647   5.773   3.216
 8108TIP3   OH224287   5.720   6.667   5.692
 8108TIP3    H124288   5.661   6.737   5.664
 8108TIP3    H224289   5.696   6.592   5.638
 8109TIP3   OH224290   3.697   4.338   0.970
 8109TIP3    H124291   3.603   4.359   0.969
 8109TIP3    H224292   3.723   4.341   0.878
 8110TIP3   OH224293   0.026   5.266   5.288
 8110TIP3    H124294   0.016   5.194   5.351
 8110TIP3    H224295   0.120   5.271   5.272
 8111TIP3   OH224296   5.544   1.801   1.499
 8111TIP3    H124297   5.611   1.741   1.466
 8111TIP3    H224298   5.594   1.873   1.537
 8112TIP3   OH224299   1.360   6.455   3.364
 8112TIP3    H124300   1.272   6.416   3.369
 8112TIP3    H224301   1.398   6.440   3.450
 8113TIP3   OH224302   2.573   2.314   4.537
 8113TIP3    H124303   2.651   2.312   4.592
 8113TIP3    H224304   2.569   2.404   4.505
 8114TIP3   OH224305   3.674   3.087   5.254
 8114TIP3    H124306   3.599   3.146   5.267
 8114TIP3    H224307   3.724   3.093   5.336
 8115TIP3   OH224308   2.051   3.964   5.311
 8115TIP3    H124309   2.070   3.870   5.306
 8115TIP3    H224310   2.024   3.988   5.222
 8116TIP3   OH224311   5.078   6.576   4.934
 8116TIP3    H124312   5.120   6.624   5.006
 8116TIP3    H224313   4.991   6.615   4.927
 8117TIP3   OH224314   3.541   3.826   3.078
 8117TIP3    H124315   3.558   3.749   3.132
 8117TIP3    H224316   3.619   3.881   3.088
 8118TIP3   OH224317   3.871   1.464   4.353
 8118TIP3    H124318   3.907   1.504   4.274
 8118TIP3    H224319   3.816   1.532   4.391
 8119TIP3   OH224320   4.208   3.168   2.466
 8119TIP3    H124321   4.235   3.127   2.384
 8119TIP3    H224322   4.113   3.162   2.467
 8120TIP3   OH224323   3.714   4.511   5.543
 8120TIP3    H124324   3.682   4.488   5.630
 8120TIP3    H224325   3.725   4.427   5.499
 8121TIP3   OH224326   1.674   5.842   3.256
 8121TIP3    H124327   1.644   5.826   3.346
 8121TIP3    H224328   1.632   5.774   3.204
 8122TIP3   OH224329   6.221   2.102   5.523
 8122TIP3    H124330   6.250   2.173   5.466
 8122TIP3    H224331   6.131   2.125   5.546
 8123TIP3   OH224332   0.563   0.110   2.284
 8123TIP3    H124333   0.608   0.026   2.286
 8123TIP3    H224334   0.615   0.166   2.342
 8124TIP3   OH224335   6.304   4.915   3.949
 8124TIP3    H124336   6.264   4.843   3.899
 8124TIP3    H224337   6.230   4.960   3.990
 8125TIP3   OH224338   3.508   0.028   1.123
 8125TIP3    H124339   3.565   0.036   1.047
 8125TIP3    H224340   3.430   0.078   1.100
 8126TIP3   OH224341   2.115   1.984   0.415
 8126TIP3    H124342   2.053   1.911   0.421
 8126TIP3    H224343   2.079   2.049   0.476
 8127TIP3   OH224344   5.190   1.934   3.543
 8127TIP3    H124345   5.242   1.936   3.624
 8127TIP3    H224346   5.183   1.841   3.522
 8128TIP3   OH224347   0.044   4.020   5.653
 8128TIP3    H124348   0.036   4.056   5.741
 8128TIP3    H224349   0.082   4.090   5.601
 8129TIP3   OH224350   2.897   6.254   3.062
 8129TIP3    H124351   2.857   6.248   2.975
 8129TIP3    H224352   2.825   6.284   3.119
 8130TIP3   OH224353   0.732   1.146   0.244
 8130TIP3    H124354   0.766   1.057   0.257
 8130TIP3    H224355   0.768   1.197   0.316
 8131TIP3   OH224356   1.515   4.185   3.689
 8131TIP3    H124357   1.475   4.228   3.614
 8131TIP3    H224358   1.600   4.155   3.657
 8132TIP3   OH224359   2.313   2.262   1.113
 8132TIP3    H124360   2.262   2.256   1.032
 8132TIP3    H224361   2.404   2.251   1.084
 8133TIP3   OH224362   1.470   0.641   2.025
 8133TIP3    H124363   1.483   0.685   1.941
 8133TIP3    H224364   1.386   0.596   2.015
 8134TIP3   OH224365   3.829   1.003   3.766
 8134TIP3    H124366   3.878   0.988   3.847
 8134TIP3    H224367   3.888   0.975   3.697
 8135TIP3   OH224368   0.309   4.918   4.358
 8135TIP3    H124369   0.253   4.875   4.422
 8135TIP3    H224370   0.283   4.881   4.274
 8136TIP3   OH224371   4.532   2.788   3.880
 8136TIP3    H124372   4.547   2.824   3.792
 8136TIP3    H224373   4.460   2.841   3.915
 8137TIP3   OH224374   2.078   4.535   2.524
 8137TIP3    H124375   2.109   4.444   2.529
 8137TIP3    H224376   2.115   4.577   2.602
 8138TIP3   OH224377   0.762   2.688   4.536
 8138TIP3    H124378   0.670   2.670   4.553
 8138TIP3    H224379   0.799   2.707   4.622
 8139TIP3   OH224380   3.105   3.966   5.337
 8139TIP3    H124381   3.092   3.890   5.394
 8139TIP3    H224382   3.020   3.979   5.295
 8140TIP3   OH224383   4.611   5.172   1.525
 8140TIP3    H124384   4.525   5.175   1.483
 8140TIP3    H224385   4.674   5.178   1.453
 8141TIP3   OH224386   5.068   0.783   4.126
 8141TIP3    H124387   5.045   0.811   4.214
 8141TIP3    H224388   5.001   0.718   4.104
 8142TIP3   OH224389   0.926   2.313   1.251
 8142TIP3    H124390   0.993   2.297   1.186
 8142TIP3    H224391   0.859   2.364   1.205
 8143TIP3   OH224392   5.968   6.426   1.650
 8143TIP3    H124393   6.064   6.416   1.647
 8143TIP3    H224394   5.935   6.355   1.596
 8144TIP3   OH224395   6.878   1.026   4.569
 8144TIP3    H124396   6.972   1.042   4.567
 8144TIP3    H224397   6.851   1.028   4.478
 8145TIP3   OH224398   4.111   0.932   1.758
 8145TIP3    H124399   4.125   0.950   1.851
 8145TIP3    H224400   4.111   0.837   1.751
 8146TIP3   OH224401   6.317   4.173   0.358
 8146TIP3    H124402   6.257   4.101   0.344
 8146TIP3    H224403   6.396   4.133   0.395
 8147TIP3   OH224404   5.813   1.249   1.911
 8147TIP3    H124405   5.853   1.162   1.909
 8147TIP3    H224406   5.768   1.257   1.827
 8148TIP3   OH224407   4.546   2.780   5.570
 8148TIP3    H124408   4.628   2.733   5.561
 8148TIP3    H224409   4.516   2.794   5.480
 8149TIP3   OH224410   1.910   6.671   4.108
 8149TIP3    H124411   1.828   6.622   4.100
 8149TIP3    H224412   1.977   6.611   4.074
 8150TIP3   OH224413   3.023   1.947   4.777
 8150TIP3    H124414   2.977   2.009   4.834
 8150TIP3    H224415   2.991   1.967   4.689
 8151TIP3   OH224416   6.839   3.302   0.979
 8151TIP3    H124417   6.794   3.379   1.014
 8151TIP3    H224418   6.932   3.321   0.990
 8152TIP3   OH224419   6.379   5.005   0.385
 8152TIP3    H124420   6.474   5.002   0.381
 8152TIP3    H224421   6.356   5.095   0.359
 8153TIP3   OH224422   4.491   2.814   4.323
 8153TIP3    H124423   4.405   2.804   4.282
 8153TIP3    H224424   4.522   2.725   4.335
 8154TIP3   OH224425   3.453   1.723   0.123
 8154TIP3    H124426   3.532   1.691   0.079
 8154TIP3    H224427   3.406   1.643   0.147
 8155TIP3   OH224428   0.574   1.489   3.302
 8155TIP3    H124429   0.640   1.499   3.233
 8155TIP3    H224430   0.491   1.504   3.257
 8156TIP3   OH224431   1.958   4.019   3.482
 8156TIP3    H124432   2.016   3.946   3.505
 8156TIP3    H224433   1.920   3.994   3.398
 8157TIP3   OH224434   1.840   4.512   2.431
 8157TIP3    H124435   1.930   4.514   2.464
 8157TIP3    H224436   1.794   4.576   2.485
 8158TIP3   OH224437   4.422   2.527   3.880
 8158TIP3    H124438   4.478   2.602   3.859
 8158TIP3    H224439   4.339   2.547   3.838
 8159TIP3   OH224440   1.011   6.548   5.662
 8159TIP3    H124441   0.928   6.504   5.643
 8159TIP3    H224442   1.026   6.606   5.588
 8160TIP3   OH224443   7.039   0.147   3.466
 8160TIP3    H124444   7.044   0.168   3.559
 8160TIP3    H224445   7.122   0.102   3.447
 8161TIP3   OH224446   4.182   0.448   4.755
 8161TIP3    H124447   4.241   0.382   4.792
 8161TIP3    H224448   4.225   0.532   4.773
 8162TIP3   OH224449   7.224   5.474   4.169
 8162TIP3    H124450   7.130   5.462   4.152
 8162TIP3    H224451   7.240   5.567   4.154
 8163TIP3   OH224452   3.519   6.445   3.399
 8163TIP3    H124453   3.452   6.420   3.462
 8163TIP3    H224454   3.471   6.484   3.326
 8164TIP3   OH224455   3.038   1.664   1.987
 8164TIP3    H124456   3.122   1.666   2.033
 8164TIP3    H224457   3.060   1.642   1.897
 8165TIP3   OH224458   1.518   6.023   1.156
 8165TIP3    H124459   1.488   5.937   1.127
 8165TIP3    H224460   1.609   6.028   1.128
 8166TIP3   OH224461   3.049   5.631   1.238
 8166TIP3    H124462   3.034   5.583   1.320
 8166TIP3    H224463   2.962   5.646   1.203
 8167TIP3   OH224464   6.632   0.169   2.494
 8167TIP3    H124465   6.542   0.138   2.505
 8167TIP3    H224466   6.658   0.201   2.581
 8168TIP3   OH224467   6.062   0.745   4.307
 8168TIP3    H124468   6.154   0.758   4.281
 8168TIP3    H224469   6.031   0.674   4.251
 8169TIP3   OH224470   1.301   0.298   2.751
 8169TIP3    H124471   1.256   0.382   2.735
 8169TIP3    H224472   1.379   0.302   2.696
 8170TIP3   OH224473   5.343   1.839   0.659
 8170TIP3    H124474   5.416   1.801   0.609
 8170TIP3    H224475   5.361   1.933   0.660
 8171TIP3   OH224476   4.437   4.653   2.378
 8171TIP3    H124477   4.480   4.730   2.415
 8171TIP3    H224478   4.363   4.637   2.436
 8172TIP3   OH224479   3.090   3.257   3.293
 8172TIP3    H124480   3.047   3.200   3.356
 8172TIP3    H224481   3.125   3.198   3.227
 8173TIP3   OH224482   7.010   3.210   2.636
 8173TIP3    H124483   7.057   3.190   2.555
 8173TIP3    H224484   6.955   3.285   2.613
 8174TIP3   OH224485   2.154   4.066   1.846
 8174TIP3    H124486   2.227   4.117   1.879
 8174TIP3    H224487   2.126   4.012   1.920
 8175TIP3   OH224488   5.217   4.641   2.440
 8175TIP3    H124489   5.296   4.628   2.493
 8175TIP3    H224490   5.245   4.624   2.350
 8176TIP3   OH224491   5.372   4.721   3.542
 8176TIP3    H124492   5.458   4.679   3.543
 8176TIP3    H224493   5.332   4.694   3.625
 8177TIP3   OH224494   2.637   5.054   1.193
 8177TIP3    H124495   2.694   5.003   1.250
 8177TIP3    H224496   2.644   5.144   1.225
 8178TIP3   OH224497   2.749   5.502   1.820
 8178TIP3    H124498   2.829   5.470   1.861
 8178TIP3    H224499   2.714   5.567   1.882
 8179TIP3   OH224500   4.708   1.093   2.585
 8179TIP3    H124501   4.653   1.096   2.507
 8179TIP3    H224502   4.656   1.134   2.654
 8180TIP3   OH224503   4.465   1.382   0.648
 8180TIP3    H124504   4.475   1.419   0.561
 8180TIP3    H224505   4.547   1.403   0.693
 8181TIP3   OH224506   5.756   2.948   4.317
 8181TIP3    H124507   5.712   3.016   4.266
 8181TIP3    H224508   5.773   2.878   4.254
 8182TIP3   OH224509   0.995   3.379   1.143
 8182TIP3    H124510   0.970   3.299   1.190
 8182TIP3    H224511   0.912   3.422   1.124
 8183TIP3   OH224512   2.780   6.263   5.506
 8183TIP3    H124513   2.785   6.291   5.597
 8183TIP3    H224514   2.830   6.329   5.458
 8184TIP3   OH224515   3.145   4.526   2.549
 8184TIP3    H124516   3.159   4.570   2.633
 8184TIP3    H224517   3.105   4.442   2.571
 8185TIP3   OH224518   6.146   5.831   5.158
 8185TIP3    H124519   6.090   5.879   5.096
 8185TIP3    H224520   6.235   5.850   5.129
 8186TIP3   OH224521   0.412   0.567   2.247
 8186TIP3    H124522   0.438   0.640   2.303
 8186TIP3    H224523   0.455   0.584   2.164
 8187TIP3   OH224524   2.178   4.805   0.685
 8187TIP3    H124525   2.131   4.743   0.628
 8187TIP3    H224526   2.205   4.753   0.760
 8188TIP3   OH224527   4.966   4.102   5.388
 8188TIP3    H124528   4.923   4.185   5.366
 8188TIP3    H224529   4.897   4.036   5.378
 8189TIP3   OH224530   3.052   3.366   2.453
 8189TIP3    H124531   2.975   3.424   2.457
 8189TIP3    H224532   3.016   3.278   2.469
 8190TIP3   OH224533   4.644   2.343   2.250
 8190TIP3    H124534   4.733   2.377   2.263
 8190TIP3    H224535   4.650   2.291   2.170
 8191TIP3   OH224536   2.961   2.815   2.396
 8191TIP3    H124537   3.004   2.804   2.481
 8191TIP3    H224538   2.878   2.768   2.405
 8192TIP3   OH224539   5.022   0.493   0.990
 8192TIP3    H124540   4.972   0.562   0.947
 8192TIP3    H224541   5.111   0.503   0.958
 8193TIP3   OH224542   3.653   3.389   4.004
 8193TIP3    H124543   3.735   3.430   4.034
 8193TIP3    H224544   3.598   3.386   4.082
 8194TIP3   OH224545   0.912   6.672   4.562
 8194TIP3    H124546   0.835   6.631   4.523
 8194TIP3    H224547   0.897   6.668   4.656
 8195TIP3   OH224548   5.831   6.429   1.894
 8195TIP3    H124549   5.898   6.404   1.958
 8195TIP3    H224550   5.875   6.421   1.809
 8196TIP3   OH224551   1.995   5.895   2.267
 8196TIP3    H124552   1.934   5.932   2.203
 8196TIP3    H224553   2.020   5.810   2.230
 8197TIP3   OH224554   1.331   1.565   4.207
 8197TIP3    H124555   1.254   1.612   4.238
 8197TIP3    H224556   1.304   1.525   4.124
 8198TIP3   OH224557   2.925   1.910   1.996
 8198TIP3    H124558   2.836   1.876   2.007
 8198TIP3    H224559   2.982   1.834   2.011
 8199TIP3   OH224560   4.573  -0.021   1.242
 8199TIP3    H124561   4.599   0.070   1.259
 8199TIP3    H224562   4.654  -0.066   1.221
 8200TIP3   OH224563   3.608   2.751   2.044
 8200TIP3    H124564   3.611   2.683   2.111
 8200TIP3    H224565   3.577   2.707   1.965
 8201TIP3   OH224566   3.253   5.243   3.861
 8201TIP3    H124567   3.224   5.310   3.923
 8201TIP3    H224568   3.179   5.231   3.802
 8202TIP3   OH224569   1.747   0.566   4.773
 8202TIP3    H124570   1.731   0.473   4.787
 8202TIP3    H224571   1.828   0.569   4.723
 8203TIP3   OH224572   6.395   3.216   3.399
 8203TIP3    H124573   6.330   3.270   3.354
 8203TIP3    H224574   6.396   3.250   3.489
 8204TIP3   OH224575   2.163   3.056   2.653
 8204TIP3    H124576   2.158   2.962   2.669
 8204TIP3    H224577   2.185   3.093   2.739
 8205TIP3   OH224578   2.450   0.355   3.046
 8205TIP3    H124579   2.506   0.361   3.123
 8205TIP3    H224580   2.498   0.299   2.985
 8206TIP3   OH224581   6.962   3.409   2.880
 8206TIP3    H124582   6.936   3.496   2.908
 8206TIP3    H224583   7.057   3.414   2.870
 8207TIP3   OH224584   5.047   1.295   2.091
 8207TIP3    H124585   5.004   1.372   2.056
 8207TIP3    H224586   5.074   1.245   2.014
 8208TIP3   OH224587   4.770   5.958   5.926
 8208TIP3    H124588   4.688   5.969   5.974
 8208TIP3    H224589   4.743   5.960   5.834
 8209TIP3   OH224590   3.613   6.506   0.588
 8209TIP3    H124591   3.596   6.599   0.595
 8209TIP3    H224592   3.677   6.488   0.657
 8210TIP3   OH224593   3.362   6.127   2.170
 8210TIP3    H124594   3.308   6.205   2.183
 8210TIP3    H224595   3.446   6.161   2.140
 8211TIP3   OH224596   2.587   4.439   0.267
 8211TIP3    H124597   2.635   4.449   0.185
 8211TIP3    H224598   2.633   4.369   0.314
 8212TIP3   OH224599   1.672   4.808   2.287
 8212TIP3    H124600   1.645   4.869   2.218
 8212TIP3    H224601   1.684   4.864   2.364
 8213TIP3   OH224602   5.817   1.077   4.301
 8213TIP3    H124603   5.769   1.157   4.281
 8213TIP3    H224604   5.760   1.007   4.269
 8214TIP3   OH224605   5.008   5.642   4.489
 8214TIP3    H124606   5.074   5.709   4.507
 8214TIP3    H224607   4.994   5.647   4.395
 8215TIP3   OH224608   5.068   5.545   1.836
 8215TIP3    H124609   5.055   5.613   1.770
 8215TIP3    H224610   4.980   5.519   1.863
 8216TIP3   OH224611   6.572   0.241   2.767
 8216TIP3    H124612   6.532   0.187   2.835
 8216TIP3    H224613   6.602   0.320   2.812
 8217TIP3   OH224614   1.796   0.258   1.994
 8217TIP3    H124615   1.759   0.250   2.082
 8217TIP3    H224616   1.765   0.343   1.963
 8218TIP3   OH224617   3.002   2.443   5.169
 8218TIP3    H124618   2.977   2.498   5.094
 8218TIP3    H224619   2.947   2.365   5.161
 8219TIP3   OH224620   0.392   1.285   3.009
 8219TIP3    H124621   0.488   1.278   3.013
 8219TIP3    H224622   0.376   1.364   2.957
 8220TIP3   OH224623   5.257   5.109   4.889
 8220TIP3    H124624   5.305   5.028   4.902
 8220TIP3    H224625   5.180   5.084   4.838
 8221TIP3   OH224626   2.555   0.822   2.213
 8221TIP3    H124627   2.556   0.908   2.171
 8221TIP3    H224628   2.486   0.829   2.279
 8222TIP3   OH224629   0.583   0.676   3.532
 8222TIP3    H124630   0.650   0.609   3.519
 8222TIP3    H224631   0.503   0.627   3.547
 8223TIP3   OH224632   6.853   0.842   1.291
 8223TIP3    H124633   6.871   0.836   1.384
 8223TIP3    H224634   6.820   0.930   1.277
 8224TIP3   OH224635   5.021   5.850   5.193
 8224TIP3    H124636   5.098   5.839   5.138
 8224TIP3    H224637   4.996   5.941   5.180
 8225TIP3   OH224638   7.126   1.119   2.662
 8225TIP3    H124639   7.127   1.204   2.707
 8225TIP3    H224640   7.041   1.081   2.684
 8226TIP3   OH224641   6.036   4.438   0.242
 8226TIP3    H124642   6.007   4.350   0.215
 8226TIP3    H224643   6.131   4.435   0.235
 8227TIP3   OH224644   6.758   5.912   1.270
 8227TIP3    H124645   6.808   5.930   1.190
 8227TIP3    H224646   6.691   5.849   1.243
 8228TIP3   OH224647   2.079   5.914   3.918
 8228TIP3    H124648   2.025   5.980   3.873
 8228TIP3    H224649   2.158   5.962   3.943
 8229TIP3   OH224650   0.064   0.448   1.916
 8229TIP3    H124651   0.033   0.461   2.006
 8229TIP3    H224652   0.016   0.372   1.885
 8230TIP3   OH224653   3.209   3.505   3.819
 8230TIP3    H124654   3.242   3.426   3.863
 8230TIP3    H224655   3.227   3.576   3.880
 8231TIP3   OH224656   4.506   6.520   5.598
 8231TIP3    H124657   4.554   6.565   5.668
 8231TIP3    H224658   4.521   6.575   5.521
 8232TIP3   OH224659   5.991   2.200   4.400
 8232TIP3    H124660   6.035   2.285   4.402
 8232TIP3    H224661   5.997   2.171   4.309
 8233TIP3   OH224662   3.358   5.924   3.734
 8233TIP3    H124663   3.268   5.909   3.706
 8233TIP3    H224664   3.361   5.892   3.824
 8234TIP3   OH224665   0.026   0.125   4.225
 8234TIP3    H124666  -0.053   0.128   4.172
 8234TIP3    H224667   0.094   0.167   4.171
 8235TIP3   OH224668   5.377   6.128   0.537
 8235TIP3    H124669   5.395   6.035   0.527
 8235TIP3    H224670   5.282   6.135   0.531
 8236TIP3   OH224671   7.107   6.613   3.371
 8236TIP3    H124672   7.094   6.596   3.464
 8236TIP3    H224673   7.141   6.702   3.367
 8237TIP3   OH224674   6.673   5.128   4.901
 8237TIP3    H124675   6.755   5.163   4.867
 8237TIP3    H224676   6.627   5.205   4.936
 8238TIP3   OH224677   5.548   1.981   2.375
 8238TIP3    H124678   5.553   1.892   2.340
 8238TIP3    H224679   5.622   1.989   2.435
 8239TIP3   OH224680   1.922   3.628   0.994
 8239TIP3    H124681   1.885   3.712   0.968
 8239TIP3    H224682   1.912   3.626   1.090
 8240TIP3   OH224683   5.007   2.143   1.639
 8240TIP3    H124684   5.096   2.174   1.659
 8240TIP3    H224685   5.002   2.145   1.544
 8241TIP3   OH224686   0.056   1.085   2.141
 8241TIP3    H124687   0.083   1.060   2.229
 8241TIP3    H224688   0.114   1.158   2.118
 8242TIP3   OH224689   1.073   2.866   4.887
 8242TIP3    H124690   1.112   2.790   4.929
 8242TIP3    H224691   0.992   2.883   4.935
 8243TIP3   OH224692   5.244   1.910   4.551
 8243TIP3    H124693   5.169   1.965   4.575
 8243TIP3    H224694   5.206   1.825   4.530
 8244TIP3   OH224695   3.648   5.119   1.478
 8244TIP3    H124696   3.674   5.067   1.402
 8244TIP3    H224697   3.573   5.170   1.448
 8245TIP3   OH224698   5.237   2.882   4.051
 8245TIP3    H124699   5.290   2.802   4.047
 8245TIP3    H224700   5.248   2.913   4.141
 8246TIP3   OH224701   4.995   2.811   4.740
 8246TIP3    H124702   4.939   2.886   4.720
 8246TIP3    H224703   4.935   2.739   4.757
 8247TIP3   OH224704   0.838   1.864   4.234
 8247TIP3    H124705   0.750   1.861   4.196
 8247TIP3    H224706   0.823   1.885   4.327
 8248TIP3   OH224707   0.031   0.148   5.183
 8248TIP3    H124708   0.038   0.176   5.092
 8248TIP3    H224709  -0.060   0.167   5.208
 8249TIP3   OH224710   0.600   3.599   5.893
 8249TIP3    H124711   0.533   3.636   5.836
 8249TIP3    H224712   0.644   3.533   5.839
 8250TIP3   OH224713   5.179   0.971   0.415
 8250TIP3    H124714   5.169   0.876   0.407
 8250TIP3    H224715   5.093   1.002   0.444
 8251TIP3   OH224716   6.671   5.514   5.488
 8251TIP3    H124717   6.626   5.468   5.417
 8251TIP3    H224718   6.625   5.487   5.567
 8252TIP3   OH224719   1.842   6.817   2.220
 8252TIP3    H124720   1.930   6.841   2.190
 8252TIP3    H224721   1.817   6.743   2.166
 8253TIP3   OH224722   5.909   0.168   5.774
 8253TIP3    H124723   5.969   0.229   5.731
 8253TIP3    H224724   5.822   0.199   5.750
 8254TIP3   OH224725   2.913   2.401   1.346
 8254TIP3    H124726   2.967   2.471   1.309
 8254TIP3    H224727   2.868   2.442   1.419
 8255TIP3   OH224728   6.406   6.378   5.112
 8255TIP3    H124729   6.415   6.467   5.145
 8255TIP3    H224730   6.446   6.381   5.025
 8256TIP3   OH224731   4.510   0.509   2.818
 8256TIP3    H124732   4.431   0.493   2.767
 8256TIP3    H224733   4.577   0.531   2.753
 8257TIP3   OH224734   6.374   1.512   1.593
 8257TIP3    H124735   6.309   1.505   1.663
 8257TIP3    H224736   6.449   1.461   1.625
 8258TIP3   OH224737   5.252   5.286   1.365
 8258TIP3    H124738   5.160   5.312   1.367
 8258TIP3    H224739   5.250   5.192   1.384
 8259TIP3   OH224740   2.903   6.118   3.546
 8259TIP3    H124741   2.960   6.098   3.472
 8259TIP3    H224742   2.881   6.210   3.535
 8260TIP3   OH224743   2.134   0.367   0.419
 8260TIP3    H124744   2.109   0.334   0.333
 8260TIP3    H224745   2.052   0.374   0.468
 8261TIP3   OH224746   1.214   6.087   0.062
 8261TIP3    H124747   1.259   6.145   0.122
 8261TIP3    H224748   1.121   6.105   0.077
 8262TIP3   OH224749   6.603   0.204   5.303
 8262TIP3    H124750   6.518   0.160   5.300
 8262TIP3    H224751   6.582   0.297   5.316
 8263TIP3   OH224752   0.718   0.496   0.074
 8263TIP3    H124753   0.643   0.556   0.076
 8263TIP3    H224754   0.743   0.491  -0.018
 8264TIP3   OH224755   7.012   4.977   4.107
 8264TIP3    H124756   7.007   5.063   4.063
 8264TIP3    H224757   6.936   4.975   4.165
 8265TIP3   OH224758   0.878   5.029   4.043
 8265TIP3    H124759   0.885   5.089   3.969
 8265TIP3    H224760   0.967   4.997   4.056
 8266TIP3   OH224761   4.137   5.013   4.165
 8266TIP3    H124762   4.078   5.071   4.214
 8266TIP3    H224763   4.079   4.962   4.109
 8267TIP3   OH224764   2.391   5.361   0.193
 8267TIP3    H124765   2.314   5.316   0.227
 8267TIP3    H224766   2.464   5.321   0.239
 8268TIP3   OH224767   3.525   5.723   1.090
 8268TIP3    H124768   3.582   5.741   1.164
 8268TIP3    H224769   3.575   5.663   1.034
 8269TIP3   OH224770   1.917   2.066   4.283
 8269TIP3    H124771   2.008   2.075   4.310
 8269TIP3    H224772   1.898   1.973   4.291
 8270TIP3   OH224773   0.200   4.445   4.913
 8270TIP3    H124774   0.107   4.448   4.935
 8270TIP3    H224775   0.243   4.416   4.994
 8271TIP3   OH224776   6.363   0.815   3.666
 8271TIP3    H124777   6.297   0.749   3.643
 8271TIP3    H224778   6.315   0.881   3.715
 8272TIP3   OH224779   5.259   3.134   1.027
 8272TIP3    H124780   5.260   3.129   0.932
 8272TIP3    H224781   5.168   3.153   1.050
 8273TIP3   OH224782   5.743   5.774   4.733
 8273TIP3    H124783   5.671   5.810   4.786
 8273TIP3    H224784   5.744   5.829   4.655
 8274TIP3   OH224785   1.186   4.593   1.475
 8274TIP3    H124786   1.248   4.634   1.414
 8274TIP3    H224787   1.134   4.667   1.508
 8275TIP3   OH224788   6.993   2.029   2.108
 8275TIP3    H124789   6.996   2.066   2.196
 8275TIP3    H224790   7.046   1.950   2.114
 8276TIP3   OH224791   5.967   2.940   2.286
 8276TIP3    H124792   5.985   2.892   2.206
 8276TIP3    H224793   5.916   3.016   2.258
 8277TIP3   OH224794   6.189   4.314   0.891
 8277TIP3    H124795   6.212   4.358   0.810
 8277TIP3    H224796   6.273   4.290   0.930
 8278TIP3   OH224797   1.065   4.092   2.991
 8278TIP3    H124798   1.044   4.086   3.084
 8278TIP3    H224799   1.160   4.101   2.988
 8279TIP3   OH224800   4.519   6.764   2.951
 8279TIP3    H124801   4.557   6.677   2.938
 8279TIP3    H224802   4.594   6.823   2.954
 8280TIP3   OH224803   6.911   6.351   0.675
 8280TIP3    H124804   6.978   6.399   0.627
 8280TIP3    H224805   6.886   6.279   0.616
 8281TIP3   OH224806   6.599   4.182   0.796
 8281TIP3    H124807   6.684   4.184   0.753
 8281TIP3    H224808   6.540   4.145   0.730
 8282TIP3   OH224809   3.400   1.599   1.472
 8282TIP3    H124810   3.359   1.660   1.411
 8282TIP3    H224811   3.426   1.524   1.417
 8283TIP3   OH224812   3.538   1.886   0.343
 8283TIP3    H124813   3.503   1.837   0.268
 8283TIP3    H224814   3.597   1.824   0.386
 8284TIP3   OH224815   1.645   4.792   2.867
 8284TIP3    H124816   1.569   4.741   2.841
 8284TIP3    H224817   1.697   4.800   2.788
 8285TIP3   OH224818   5.560   4.513   3.426
 8285TIP3    H124819   5.600   4.462   3.496
 8285TIP3    H224820   5.488   4.457   3.394
 8286TIP3   OH224821   2.326   4.382   5.520
 8286TIP3    H124822   2.296   4.445   5.455
 8286TIP3    H224823   2.301   4.297   5.484
 8287TIP3   OH224824   6.857   5.656   4.132
 8287TIP3    H124825   6.783   5.671   4.191
 8287TIP3    H224826   6.817   5.639   4.047
 8288TIP3   OH224827   2.726   1.377   2.778
 8288TIP3    H124828   2.818   1.351   2.783
 8288TIP3    H224829   2.727   1.456   2.724
 8289TIP3   OH224830   4.422   1.931   4.597
 8289TIP3    H124831   4.374   1.937   4.680
 8289TIP3    H224832   4.388   1.852   4.555
 8290TIP3   OH224833   6.139   1.841   1.910
 8290TIP3    H124834   6.197   1.849   1.986
 8290TIP3    H224835   6.086   1.921   1.912
 8291TIP3   OH224836   1.503   3.148   1.238
 8291TIP3    H124837   1.458   3.232   1.248
 8291TIP3    H224838   1.438   3.090   1.199
 8292TIP3   OH224839   0.990   0.604   1.918
 8292TIP3    H124840   1.085   0.614   1.926
 8292TIP3    H224841   0.978   0.523   1.869
 8293TIP3   OH224842   3.425   3.279   0.339
 8293TIP3    H124843   3.417   3.258   0.245
 8293TIP3    H224844   3.512   3.248   0.363
 8294TIP3   OH224845   1.666   3.078   4.647
 8294TIP3    H124846   1.720   3.102   4.572
 8294TIP3    H224847   1.717   3.107   4.723
 8295TIP3   OH224848   2.796   4.872   1.010
 8295TIP3    H124849   2.739   4.946   1.028
 8295TIP3    H224850   2.818   4.836   1.096
 8296TIP3   OH224851   7.140   3.949   0.231
 8296TIP3    H124852   7.128   3.867   0.185
 8296TIP3    H224853   7.072   4.007   0.197
 8297TIP3   OH224854   2.247   6.511   1.199
 8297TIP3    H124855   2.330   6.517   1.247
 8297TIP3    H224856   2.273   6.501   1.108
 8298TIP3   OH224857   4.324   6.314   0.743
 8298TIP3    H124858   4.250   6.257   0.763
 8298TIP3    H224859   4.400   6.268   0.780
 8299TIP3   OH224860   2.551   0.927   0.020
 8299TIP3    H124861   2.571   0.873  -0.056
 8299TIP3    H224862   2.627   0.983   0.032
 8300TIP3   OH224863   1.696   5.554   1.755
 8300TIP3    H124864   1.790   5.571   1.746
 8300TIP3    H224865   1.666   5.533   1.667
 8301TIP3   OH224866   0.130   4.755   0.550
 8301TIP3    H124867   0.117   4.671   0.506
 8301TIP3    H224868   0.207   4.742   0.604
 8302TIP3   OH224869   2.447   6.321   2.187
 8302TIP3    H124870   2.462   6.409   2.152
 8302TIP3    H224871   2.391   6.279   2.122
 8303TIP3   OH224872   6.891   3.059   4.441
 8303TIP3    H124873   6.978   3.095   4.424
 8303TIP3    H224874   6.875   2.998   4.369
 8304TIP3   OH224875   0.076   0.431   2.387
 8304TIP3    H124876   0.004   0.480   2.346
 8304TIP3    H224877   0.105   0.370   2.319
 8305TIP3   OH224878   1.469   5.224   0.300
 8305TIP3    H124879   1.447   5.317   0.306
 8305TIP3    H224880   1.421   5.184   0.373
 8306TIP3   OH224881   5.942   4.982   3.215
 8306TIP3    H124882   6.001   4.916   3.179
 8306TIP3    H224883   5.901   5.022   3.138
 8307TIP3   OH224884   5.634   2.870   1.658
 8307TIP3    H124885   5.628   2.775   1.644
 8307TIP3    H224886   5.719   2.893   1.620
 8308TIP3   OH224887   5.138   4.122   3.346
 8308TIP3    H124888   5.105   4.039   3.380
 8308TIP3    H224889   5.148   4.107   3.252
 8309TIP3   OH224890   1.216   4.403   3.930
 8309TIP3    H124891   1.234   4.471   3.865
 8309TIP3    H224892   1.214   4.450   4.014
 8310TIP3   OH224893   1.604   4.017   2.362
 8310TIP3    H124894   1.645   4.102   2.378
 8310TIP3    H224895   1.662   3.973   2.300
 8311TIP3   OH224896   6.198   1.549   2.857
 8311TIP3    H124897   6.139   1.602   2.804
 8311TIP3    H224898   6.160   1.461   2.856
 8312TIP3   OH224899   6.679   0.428   4.857
 8312TIP3    H124900   6.744   0.421   4.787
 8312TIP3    H224901   6.730   0.440   4.936
 8313TIP3   OH224902   6.539   1.641   5.572
 8313TIP3    H124903   6.543   1.567   5.512
 8313TIP3    H224904   6.446   1.655   5.586
 8314TIP3   OH224905   3.897   2.039   1.788
 8314TIP3    H124906   3.860   2.100   1.724
 8314TIP3    H224907   3.824   1.981   1.811
 8315TIP3   OH224908   1.241   3.193   1.795
 8315TIP3    H124909   1.333   3.217   1.804
 8315TIP3    H224910   1.194   3.257   1.847
 8316TIP3   OH224911   2.848   0.129   4.868
 8316TIP3    H124912   2.902   0.190   4.816
 8316TIP3    H224913   2.770   0.116   4.814
 8317TIP3   OH224914   5.735   2.547   5.020
 8317TIP3    H124915   5.667   2.595   4.973
 8317TIP3    H224916   5.802   2.531   4.954
 8318TIP3   OH224917   2.251   5.239   2.764
 8318TIP3    H124918   2.166   5.267   2.797
 8318TIP3    H224919   2.234   5.214   2.673
 8319TIP3   OH224920   4.321   3.269   4.019
 8319TIP3    H124921   4.345   3.358   3.990
 8319TIP3    H224922   4.404   3.222   4.023
 8320TIP3   OH224923   0.873   6.507   5.265
 8320TIP3    H124924   0.911   6.595   5.258
 8320TIP3    H224925   0.795   6.519   5.319
 8321TIP3   OH224926   0.652   5.531   3.240
 8321TIP3    H124927   0.633   5.536   3.334
 8321TIP3    H224928   0.719   5.598   3.226
 8322TIP3   OH224929   5.677   2.906   5.355
 8322TIP3    H124930   5.719   2.830   5.314
 8322TIP3    H224931   5.644   2.958   5.282
 8323TIP3   OH224932   6.496   5.942   5.463
 8323TIP3    H124933   6.572   5.993   5.436
 8323TIP3    H224934   6.507   5.932   5.558
 8324TIP3   OH224935   4.197   0.105   3.490
 8324TIP3    H124936   4.207   0.190   3.448
 8324TIP3    H224937   4.194   0.125   3.584
 8325TIP3   OH224938   2.096   5.951   5.585
 8325TIP3    H124939   2.160   5.880   5.586
 8325TIP3    H224940   2.124   6.007   5.513
 8326TIP3   OH224941   1.921   5.864   1.190
 8326TIP3    H124942   2.012   5.883   1.166
 8326TIP3    H224943   1.872   5.942   1.165
 8327TIP3   OH224944   0.664   2.867   5.920
 8327TIP3    H124945   0.730   2.802   5.944
 8327TIP3    H224946   0.713   2.936   5.876
 8328TIP3   OH224947   2.393   4.290   3.487
 8328TIP3    H124948   2.471   4.344   3.502
 8328TIP3    H224949   2.415   4.237   3.411
 8329TIP3   OH224950   6.899   2.479   1.613
 8329TIP3    H124951   6.824   2.433   1.575
 8329TIP3    H224952   6.879   2.483   1.707
 8330TIP3   OH224953   3.595   4.988   3.835
 8330TIP3    H124954   3.572   4.967   3.744
 8330TIP3    H224955   3.515   4.969   3.884
 8331TIP3   OH224956   4.493   5.767   4.402
 8331TIP3    H124957   4.521   5.823   4.329
 8331TIP3    H224958   4.534   5.807   4.479
 8332TIP3   OH224959   4.050   4.525   4.613
 8332TIP3    H124960   4.107   4.490   4.545
 8332TIP3    H224961   4.081   4.485   4.694
 8333TIP3   OH224962   6.752   2.116   1.848
 8333TIP3    H124963   6.732   2.157   1.932
 8333TIP3    H224964   6.838   2.152   1.824
 8334TIP3   OH224965   2.311   2.729   2.369
 8334TIP3    H124966   2.303   2.773   2.284
 8334TIP3    H224967   2.403   2.707   2.376
 8335TIP3   OH224968   1.527   2.628   0.119
 8335TIP3    H124969   1.614   2.602   0.087
 8335TIP3    H224970   1.516   2.718   0.088
 8336TIP3   OH224971   3.803   5.669   5.103
 8336TIP3    H124972   3.826   5.740   5.164
 8336TIP3    H224973   3.884   5.653   5.054
 8337TIP3   OH224974   5.376   6.354   4.653
 8337TIP3    H124975   5.418   6.334   4.736
 8337TIP3    H224976   5.318   6.427   4.672
 8338TIP3   OH224977   2.666   3.421   0.306
 8338TIP3    H124978   2.723   3.452   0.376
 8338TIP3    H224979   2.579   3.450   0.332
 8339TIP3   OH224980   2.997   1.598   2.648
 8339TIP3    H124981   2.976   1.651   2.725
 8339TIP3    H224982   2.919   1.605   2.592
 8340TIP3   OH224983   4.005   6.066   4.715
 8340TIP3    H124984   3.980   6.139   4.658
 8340TIP3    H224985   4.073   6.102   4.771
 8341TIP3   OH224986   4.525   1.808   2.882
 8341TIP3    H124987   4.500   1.898   2.899
 8341TIP3    H224988   4.616   1.802   2.911
 8342TIP3   OH224989   6.230   2.995   0.066
 8342TIP3    H124990   6.246   3.083   0.032
 8342TIP3    H224991   6.164   2.958   0.007
 8343TIP3   OH224992   4.450   0.231   1.605
 8343TIP3    H124993   4.440   0.289   1.681
 8343TIP3    H224994   4.543   0.210   1.603
 8344TIP3   OH224995   6.007   3.838   2.570
 8344TIP3    H124996   6.098   3.816   2.589
 8344TIP3    H224997   5.973   3.762   2.522
 8345TIP3   OH224998   6.209   2.998   2.358
 8345TIP3    H124999   6.132   2.943   2.350
 8345TIP3    H225000   6.281   2.944   2.324
 8346TIP3   OH225001   6.641   6.559   3.479
 8346TIP3    H125002   6.704   6.533   3.412
 8346TIP3    H225003   6.612   6.477   3.519
 8347TIP3   OH225004   4.779   4.913   1.620
 8347TIP3    H125005   4.769   4.887   1.712
 8347TIP3    H225006   4.715   4.983   1.608
 8348TIP3   OH225007   5.714  -0.009   4.852
 8348TIP3    H125008   5.694   0.081   4.876
 8348TIP3    H225009   5.777  -0.002   4.780
 8349TIP3   OH225010   0.110   1.747   3.696
 8349TIP3    H125011   0.134   1.798   3.619
 8349TIP3    H225012   0.128   1.804   3.771
 8350TIP3   OH225013   4.458   2.598   5.324
 8350TIP3    H125014   4.529   2.633   5.270
 8350TIP3    H225015   4.381   2.650   5.298
 8351TIP3   OH225016   6.063   6.051   1.115
 8351TIP3    H125017   5.969   6.061   1.105
 8351TIP3    H225018   6.098   6.064   1.027
 8352TIP3   OH225019   5.368   3.304   4.759
 8352TIP3    H125020   5.309   3.321   4.832
 8352TIP3    H225021   5.451   3.279   4.801
 8353TIP3   OH225022   0.020   3.460   5.853
 8353TIP3    H125023   0.080   3.533   5.867
 8353TIP3    H225024   0.023   3.445   5.758
 8354TIP3   OH225025   2.200   5.652   1.033
 8354TIP3    H125026   2.175   5.652   1.126
 8354TIP3    H225027   2.266   5.721   1.026
 8355TIP3   OH225028   1.566   4.374   3.188
 8355TIP3    H125029   1.601   4.449   3.139
 8355TIP3    H225030   1.639   4.345   3.243
 8356TIP3   OH225031   2.452   4.048   4.109
 8356TIP3    H125032   2.483   4.138   4.095
 8356TIP3    H225033   2.363   4.048   4.075
 8357TIP3   OH225034   4.524   4.063   0.745
 8357TIP3    H125035   4.580   4.000   0.791
 8357TIP3    H225036   4.585   4.130   0.713
 8358TIP3   OH225037   0.997   3.199   5.140
 8358TIP3    H125038   0.991   3.207   5.235
 8358TIP3    H225039   1.009   3.105   5.125
 8359TIP3   OH225040   0.603   0.450   0.385
 8359TIP3    H125041   0.673   0.488   0.438
 8359TIP3    H225042   0.578   0.520   0.324
 8360TIP3   OH225043   2.460   6.098   3.429
 8360TIP3    H125044   2.374   6.062   3.451
 8360TIP3    H225045   2.522   6.039   3.473
 8361TIP3   OH225046   0.915   4.463   1.145
 8361TIP3    H125047   0.935   4.498   1.232
 8361TIP3    H225048   0.941   4.533   1.084
 8362TIP3   OH225049   4.914   3.891   4.881
 8362TIP3    H125050   4.865   3.969   4.855
 8362TIP3    H225051   4.864   3.855   4.954
 8363TIP3   OH225052   0.967   1.886   3.033
 8363TIP3    H125053   0.905   1.953   3.005
 8363TIP3    H225054   1.026   1.876   2.958
 8364TIP3   OH225055   0.995   0.315   5.305
 8364TIP3    H125056   1.064   0.277   5.360
 8364TIP3    H225057   0.914   0.274   5.337
 8365TIP3   OH225058   6.463   0.263   3.069
 8365TIP3    H125059   6.527   0.193   3.084
 8365TIP3    H225060   6.512   0.344   3.079
 8366TIP3   OH225061   4.695   2.948   0.035
 8366TIP3    H125062   4.713   2.999   0.114
 8366TIP3    H225063   4.776   2.901   0.018
 8367TIP3   OH225064   2.431   1.076   0.420
 8367TIP3    H125065   2.428   1.042   0.509
 8367TIP3    H225066   2.340   1.099   0.400
 8368TIP3   OH225067   1.648   4.796   1.290
 8368TIP3    H125068   1.613   4.848   1.362
 8368TIP3    H225069   1.676   4.714   1.330
 8369TIP3   OH225070   4.752   2.424   5.268
 8369TIP3    H125071   4.827   2.381   5.308
 8369TIP3    H225072   4.700   2.457   5.341
 8370TIP3   OH225073   1.204   3.493   3.633
 8370TIP3    H125074   1.190   3.434   3.559
 8370TIP3    H225075   1.220   3.435   3.708
 8371TIP3   OH225076   2.167   6.107   4.423
 8371TIP3    H125077   2.150   6.014   4.435
 8371TIP3    H225078   2.227   6.131   4.494
 8372TIP3   OH225079   6.564   3.181   3.937
 8372TIP3    H125080   6.480   3.172   3.893
 8372TIP3    H225081   6.618   3.111   3.898
 8373TIP3   OH225082   5.531   5.304   3.442
 8373TIP3    H125083   5.504   5.219   3.408
 8373TIP3    H225084   5.501   5.304   3.533
 8374TIP3   OH225085   2.671   2.381   1.796
 8374TIP3    H125086   2.750   2.330   1.812
 8374TIP3    H225087   2.628   2.338   1.723
 8375TIP3   OH225088   4.407   0.841   1.577
 8375TIP3    H125089   4.459   0.853   1.656
 8375TIP3    H225090   4.392   0.746   1.573
 8376TIP3   OH225091   5.245   0.751   2.349
 8376TIP3    H125092   5.265   0.818   2.415
 8376TIP3    H225093   5.173   0.788   2.298
 8377TIP3   OH225094   3.891   2.627   3.119
 8377TIP3    H125095   3.925   2.537   3.120
 8377TIP3    H225096   3.892   2.652   3.027
 8378TIP3   OH225097   1.666   6.446   1.269
 8378TIP3    H125098   1.726   6.417   1.200
 8378TIP3    H225099   1.680   6.386   1.341
 8379TIP3   OH225100   1.507   3.232   4.069
 8379TIP3    H125101   1.466   3.149   4.093
 8379TIP3    H225102   1.571   3.207   4.002
 8380TIP3   OH225103   0.554   1.401   4.485
 8380TIP3    H125104   0.490   1.375   4.551
 8380TIP3    H225105   0.504   1.405   4.403
 8381TIP3   OH225106   2.543   3.001   0.353
 8381TIP3    H125107   2.490   2.926   0.324
 8381TIP3    H225108   2.503   3.029   0.435
 8382TIP3   OH225109   5.491   1.432   1.897
 8382TIP3    H125110   5.416   1.479   1.933
 8382TIP3    H225111   5.454   1.347   1.870
 8383TIP3   OH225112   5.922   1.816   4.190
 8383TIP3    H125113   5.868   1.791   4.265
 8383TIP3    H225114   6.009   1.831   4.228
 8384TIP3   OH225115   2.707   4.760   0.188
 8384TIP3    H125116   2.624   4.718   0.211
 8384TIP3    H225117   2.770   4.689   0.187
 8385TIP3   OH225118   3.261   1.080   3.926
 8385TIP3    H125119   3.345   1.059   3.967
 8385TIP3    H225120   3.198   1.022   3.968
 8386TIP3   OH225121   3.900   4.196   2.024
 8386TIP3    H125122   3.903   4.274   1.969
 8386TIP3    H225123   3.811   4.195   2.060
 8387TIP3   OH225124   3.478   0.092   2.462
 8387TIP3    H125125   3.384   0.089   2.450
 8387TIP3    H225126   3.489   0.121   2.553
 8388TIP3   OH225127   5.675   0.266   4.412
 8388TIP3    H125128   5.673   0.319   4.332
 8388TIP3    H225129   5.600   0.297   4.463
 8389TIP3   OH225130   4.903   0.744   4.377
 8389TIP3    H125131   4.820   0.698   4.388
 8389TIP3    H225132   4.969   0.675   4.386
 8390TIP3   OH225133   5.174   1.362   5.110
 8390TIP3    H125134   5.132   1.448   5.105
 8390TIP3    H225135   5.204   1.355   5.200
 8391TIP3   OH225136   4.691   4.419   0.284
 8391TIP3    H125137   4.746   4.383   0.353
 8391TIP3    H225138   4.689   4.513   0.301
 8392TIP3   OH225139   5.686   0.858   1.367
 8392TIP3    H125140   5.724   0.924   1.424
 8392TIP3    H225141   5.734   0.867   1.284
 8393TIP3   OH225142   5.971   2.671   3.142
 8393TIP3    H125143   5.949   2.743   3.202
 8393TIP3    H225144   6.039   2.623   3.188
 8394TIP3   OH225145   2.766   2.880   5.233
 8394TIP3    H125146   2.701   2.945   5.207
 8394TIP3    H225147   2.720   2.823   5.294
 8395TIP3   OH225148   2.732   0.273   4.116
 8395TIP3    H125149   2.702   0.294   4.028
 8395TIP3    H225150   2.692   0.341   4.171
 8396TIP3   OH225151   0.323   4.356   2.593
 8396TIP3    H125152   0.342   4.418   2.523
 8396TIP3    H225153   0.351   4.271   2.558
 8397TIP3   OH225154   6.716   1.959   1.512
 8397TIP3    H125155   6.779   1.954   1.440
 8397TIP3    H225156   6.643   2.010   1.478
 8398TIP3   OH225157   4.696   2.906   3.086
 8398TIP3    H125158   4.613   2.884   3.128
 8398TIP3    H225159   4.701   2.848   3.010
 8399TIP3   OH225160   5.552   1.082   4.558
 8399TIP3    H125161   5.646   1.067   4.570
 8399TIP3    H225162   5.533   1.046   4.471
 8400TIP3   OH225163   3.938   0.351   5.874
 8400TIP3    H125164   3.892   0.422   5.829
 8400TIP3    H225165   4.007   0.324   5.814
 8401TIP3   OH225166   1.509   3.776   0.601
 8401TIP3    H125167   1.473   3.812   0.682
 8401TIP3    H225168   1.574   3.712   0.630
 8402TIP3   OH225169   1.487   0.129   1.660
 8402TIP3    H125170   1.569   0.168   1.689
 8402TIP3    H225171   1.484   0.044   1.704
 8403TIP3   OH225172   2.939   6.735   5.599
 8403TIP3    H125173   2.999   6.729   5.525
 8403TIP3    H225174   2.941   6.648   5.639
 8404TIP3   OH225175   0.583   1.440   1.676
 8404TIP3    H125176   0.648   1.394   1.623
 8404TIP3    H225177   0.635   1.503   1.726
 8405TIP3   OH225178   6.020   6.124   1.558
 8405TIP3    H125179   5.947   6.062   1.551
 8405TIP3    H225180   6.035   6.153   1.468
 8406TIP3   OH225181   1.162   4.189   4.658
 8406TIP3    H125182   1.122   4.104   4.638
 8406TIP3    H225183   1.187   4.224   4.573
 8407TIP3   OH225184   4.776   6.080   2.195
 8407TIP3    H125185   4.834   6.044   2.128
 8407TIP3    H225186   4.705   6.016   2.202
 8408TIP3   OH225187   3.161   0.593   3.482
 8408TIP3    H125188   3.084   0.625   3.436
 8408TIP3    H225189   3.136   0.596   3.575
 8409TIP3   OH225190   2.131   6.688   2.178
 8409TIP3    H125191   2.172   6.631   2.243
 8409TIP3    H225192   2.150   6.646   2.094
 8410TIP3   OH225193   3.033   3.276   1.820
 8410TIP3    H125194   3.034   3.181   1.826
 8410TIP3    H225195   3.089   3.306   1.891
 8411TIP3   OH225196   5.877   0.694   4.863
 8411TIP3    H125197   5.965   0.716   4.832
 8411TIP3    H225198   5.891   0.641   4.941
 8412TIP3   OH225199   2.071   0.716   3.763
 8412TIP3    H125200   2.053   0.718   3.669
 8412TIP3    H225201   2.074   0.808   3.789
 8413TIP3   OH225202   2.172   1.241   5.422
 8413TIP3    H125203   2.166   1.256   5.328
 8413TIP3    H225204   2.086   1.205   5.447
 8414TIP3   OH225205   1.921   0.872   4.529
 8414TIP3    H125206   1.886   0.951   4.488
 8414TIP3    H225207   1.843   0.824   4.557
 8415TIP3   OH225208   0.411   5.707   5.491
 8415TIP3    H125209   0.323   5.726   5.456
 8415TIP3    H225210   0.397   5.691   5.584
 8416TIP3   OH225211   6.371   5.312   3.124
 8416TIP3    H125212   6.330   5.230   3.153
 8416TIP3    H225213   6.322   5.380   3.171
 8417TIP3   OH225214   2.455   3.691   0.077
 8417TIP3    H125215   2.464   3.664  -0.014
 8417TIP3    H225216   2.435   3.610   0.124
 8418TIP3   OH225217   4.426   2.061   5.814
 8418TIP3    H125218   4.355   2.044   5.876
 8418TIP3    H225219   4.499   2.008   5.846
 8419TIP3   OH225220   4.037   6.658   3.613
 8419TIP3    H125221   4.098   6.674   3.541
 8419TIP3    H225222   3.976   6.592   3.578
 8420TIP3   OH225223   6.857   0.665   5.220
 8420TIP3    H125224   6.841   0.573   5.199
 8420TIP3    H225225   6.951   0.670   5.237
 8421TIP3   OH225226   6.558   4.660   0.774
 8421TIP3    H125227   6.585   4.594   0.711
 8421TIP3    H225228   6.572   4.618   0.860
 8422TIP3   OH225229   2.440   0.668   4.411
 8422TIP3    H125230   2.448   0.749   4.360
 8422TIP3    H225231   2.463   0.599   4.348
 8423TIP3   OH225232   6.635   2.614   2.286
 8423TIP3    H125233   6.632   2.522   2.315
 8423TIP3    H225234   6.669   2.661   2.362
 8424TIP3   OH225235   3.259   6.384   4.654
 8424TIP3    H125236   3.185   6.356   4.707
 8424TIP3    H225237   3.296   6.302   4.620
 8425TIP3   OH225238   7.117   0.163   2.533
 8425TIP3    H125239   7.199   0.201   2.564
 8425TIP3    H225240   7.056   0.236   2.530
 8426TIP3   OH225241   5.711   2.560   4.018
 8426TIP3    H125242   5.698   2.492   3.952
 8426TIP3    H225243   5.627   2.566   4.063
 8427TIP3   OH225244   0.652   6.071   4.709
 8427TIP3    H125245   0.738   6.061   4.749
 8427TIP3    H225246   0.612   5.984   4.714
 8428TIP3   OH225247   5.614   3.371   5.209
 8428TIP3    H125248   5.590   3.462   5.194
 8428TIP3    H225249   5.672   3.373   5.285
 8429TIP3   OH225250   4.089   1.270   3.632
 8429TIP3    H125251   4.020   1.265   3.565
 8429TIP3    H225252   4.093   1.363   3.655
 8430TIP3   OH225253   4.804   2.344   1.072
 8430TIP3    H125254   4.741   2.364   1.141
 8430TIP3    H225255   4.774   2.395   0.997
 8431TIP3   OH225256   5.265   5.454   1.122
 8431TIP3    H125257   5.250   5.384   1.185
 8431TIP3    H225258   5.177   5.487   1.101
 8432TIP3   OH225259   4.282   1.393   1.765
 8432TIP3    H125260   4.362   1.436   1.735
 8432TIP3    H225261   4.284   1.307   1.724
 8433TIP3   OH225262   1.046   4.679   1.060
 8433TIP3    H125263   1.076   4.770   1.065
 8433TIP3    H225264   1.118   4.633   1.016
 8434TIP3   OH225265   3.267   0.240   1.334
 8434TIP3    H125266   3.199   0.304   1.313
 8434TIP3    H225267   3.349   0.285   1.314
 8435TIP3   OH225268   6.896   0.759   4.648
 8435TIP3    H125269   6.893   0.849   4.615
 8435TIP3    H225270   6.976   0.755   4.700
 8436TIP3   OH225271   7.074   4.725   4.007
 8436TIP3    H125272   7.059   4.814   4.037
 8436TIP3    H225273   6.989   4.697   3.973
 8437TIP3   OH225274   5.975   4.646   0.022
 8437TIP3    H125275   6.010   4.574   0.075
 8437TIP3    H225276   5.949   4.713   0.086
 8438TIP3   OH225277   0.640   1.856   0.823
 8438TIP3    H125278   0.600   1.777   0.859
 8438TIP3    H225279   0.718   1.870   0.877
 8439TIP3   OH225280   3.476   3.464   0.689
 8439TIP3    H125281   3.461   3.390   0.748
 8439TIP3    H225282   3.389   3.495   0.667
 8440TIP3   OH225283   2.782   2.473   0.887
 8440TIP3    H125284   2.814   2.396   0.841
 8440TIP3    H225285   2.688   2.475   0.872
 8441TIP3   OH225286   5.454   1.035   5.564
 8441TIP3    H125287   5.483   0.958   5.612
 8441TIP3    H225288   5.450   1.105   5.630
 8442TIP3   OH225289   6.798   5.372   3.734
 8442TIP3    H125290   6.893   5.363   3.726
 8442TIP3    H225291   6.763   5.313   3.667
 8443TIP3   OH225292   0.847   4.472   1.595
 8443TIP3    H125293   0.903   4.450   1.521
 8443TIP3    H225294   0.886   4.425   1.669
 8444TIP3   OH225295   3.328   4.071   2.129
 8444TIP3    H125296   3.240   4.099   2.153
 8444TIP3    H225297   3.349   4.124   2.052
 8445TIP3   OH225298   2.234   3.759   2.583
 8445TIP3    H125299   2.328   3.757   2.596
 8445TIP3    H225300   2.209   3.850   2.603
 8446TIP3   OH225301   2.264   5.775   2.465
 8446TIP3    H125302   2.282   5.693   2.512
 8446TIP3    H225303   2.262   5.842   2.534
 8447TIP3   OH225304   1.726   1.939   2.558
 8447TIP3    H125305   1.782   1.919   2.483
 8447TIP3    H225306   1.751   2.028   2.583
 8448TIP3   OH225307   0.591   4.776   1.416
 8448TIP3    H125308   0.642   4.717   1.359
 8448TIP3    H225309   0.610   4.746   1.505
 8449TIP3   OH225310   4.379   1.728   0.833
 8449TIP3    H125311   4.408   1.720   0.924
 8449TIP3    H225312   4.325   1.651   0.818
 8450TIP3   OH225313   6.366   5.848   4.857
 8450TIP3    H125314   6.461   5.851   4.861
 8450TIP3    H225315   6.341   5.793   4.931
 8451TIP3   OH225316   0.318   4.300   1.671
 8451TIP3    H125317   0.251   4.369   1.672
 8451TIP3    H225318   0.391   4.336   1.721
 8452TIP3   OH225319   2.129   1.021   1.500
 8452TIP3    H125320   2.206   1.017   1.557
 8452TIP3    H225321   2.161   1.060   1.419
 8453TIP3   OH225322   1.316   5.631   5.479
 8453TIP3    H125323   1.313   5.561   5.545
 8453TIP3    H225324   1.408   5.637   5.454
 8454TIP3   OH225325   6.552   6.706   1.024
 8454TIP3    H125326   6.526   6.638   1.087
 8454TIP3    H225327   6.624   6.752   1.068
 8455TIP3   OH225328   1.169   2.618   4.988
 8455TIP3    H125329   1.136   2.572   5.065
 8455TIP3    H225330   1.159   2.555   4.917
 8456TIP3   OH225331   2.019   6.197   2.089
 8456TIP3    H125332   2.036   6.200   2.183
 8456TIP3    H225333   2.083   6.134   2.055
 8457TIP3   OH225334   6.493   2.717   4.832
 8457TIP3    H125335   6.552   2.779   4.790
 8457TIP3    H225336   6.538   2.691   4.912
 8458TIP3   OH225337   1.590   2.907   2.014
 8458TIP3    H125338   1.497   2.929   2.019
 8458TIP3    H225339   1.599   2.827   2.065
 8459TIP3   OH225340   4.591   4.809   4.344
 8459TIP3    H125341   4.624   4.839   4.429
 8459TIP3    H225342   4.517   4.866   4.326
 8460TIP3   OH225343   2.186   3.008   1.673
 8460TIP3    H125344   2.237   2.928   1.685
 8460TIP3    H225345   2.139   3.018   1.756
 8461TIP3   OH225346   6.725   4.881   5.052
 8461TIP3    H125347   6.692   4.936   4.982
 8461TIP3    H225348   6.673   4.801   5.047
 8462TIP3   OH225349   0.087   1.166   4.509
 8462TIP3    H125350   0.032   1.166   4.430
 8462TIP3    H225351   0.051   1.237   4.563
 8463TIP3   OH225352   1.741   3.268   1.339
 8463TIP3    H125353   1.672   3.253   1.273
 8463TIP3    H225354   1.817   3.222   1.305
 8464TIP3   OH225355   1.371   5.001   1.137
 8464TIP3    H125356   1.310   5.002   1.211
 8464TIP3    H225357   1.403   5.091   1.131
 8465TIP3   OH225358   4.771   6.316   5.609
 8465TIP3    H125359   4.738   6.405   5.600
 8465TIP3    H225360   4.800   6.309   5.700
 8466TIP3   OH225361   3.878   1.094   5.644
 8466TIP3    H125362   3.828   1.168   5.610
 8466TIP3    H225363   3.960   1.131   5.675
 8467TIP3   OH225364   4.494   0.961   3.193
 8467TIP3    H125365   4.433   0.922   3.255
 8467TIP3    H225366   4.502   0.895   3.123
 8468TIP3   OH225367   2.761   4.246   1.605
 8468TIP3    H125368   2.783   4.164   1.560
 8468TIP3    H225369   2.753   4.311   1.535
 8469TIP3   OH225370   1.982   5.352   4.468
 8469TIP3    H125371   1.910   5.289   4.469
 8469TIP3    H225372   1.975   5.395   4.382
 8470TIP3   OH225373   2.174   1.196   2.476
 8470TIP3    H125374   2.252   1.206   2.532
 8470TIP3    H225375   2.148   1.286   2.456
 8471TIP3   OH225376   3.341   5.495   5.420
 8471TIP3    H125377   3.269   5.484   5.357
 8471TIP3    H225378   3.420   5.475   5.370
 8472TIP3   OH225379   1.146   3.008   2.732
 8472TIP3    H125380   1.238   2.991   2.754
 8472TIP3    H225381   1.150   3.078   2.667
 8473TIP3   OH225382   6.877   5.353   3.424
 8473TIP3    H125383   6.947   5.395   3.374
 8473TIP3    H225384   6.886   5.260   3.403
 8474TIP3   OH225385   4.902   2.006   2.834
 8474TIP3    H125386   4.840   2.011   2.761
 8474TIP3    H225387   4.980   2.052   2.802
 8475TIP3   OH225388   2.036   5.279   2.220
 8475TIP3    H125389   2.008   5.291   2.311
 8475TIP3    H225390   2.034   5.184   2.207
 8476TIP3   OH225391   0.759   5.397   3.020
 8476TIP3    H125392   0.719   5.474   3.061
 8476TIP3    H225393   0.806   5.433   2.945
 8477TIP3   OH225394   5.132   4.086   3.982
 8477TIP3    H125395   5.174   4.005   3.951
 8477TIP3    H225396   5.071   4.057   4.050
 8478TIP3   OH225397   2.458   4.461   3.848
 8478TIP3    H125398   2.521   4.470   3.776
 8478TIP3    H225399   2.506   4.411   3.915
 8479TIP3   OH225400   5.181   3.991   0.334
 8479TIP3    H125401   5.097   3.944   0.336
 8479TIP3    H225402   5.161   4.078   0.367
 8480TIP3   OH225403   6.049   2.743   5.383
 8480TIP3    H125404   6.096   2.794   5.449
 8480TIP3    H225405   5.959   2.773   5.389
 8481TIP3   OH225406   4.796   2.645   4.555
 8481TIP3    H125407   4.737   2.614   4.624
 8481TIP3    H225408   4.761   2.606   4.475
 8482TIP3   OH225409   5.512   1.034   4.962
 8482TIP3    H125410   5.592   1.086   4.969
 8482TIP3    H225411   5.464   1.053   5.043
 8483TIP3   OH225412   2.384   3.493   2.653
 8483TIP3    H125413   2.416   3.408   2.683
 8483TIP3    H225414   2.297   3.501   2.693
 8484TIP3   OH225415   5.649   0.529   4.724
 8484TIP3    H125416   5.613   0.602   4.774
 8484TIP3    H225417   5.695   0.570   4.651
 8485TIP3   OH225418   4.676   6.260   0.378
 8485TIP3    H125419   4.610   6.263   0.309
 8485TIP3    H225420   4.709   6.170   0.374
 8486TIP3   OH225421   7.015   5.821   4.417
 8486TIP3    H125422   6.948   5.878   4.379
 8486TIP3    H225423   6.967   5.770   4.484
 8487TIP3   OH225424   0.325   4.932   5.744
 8487TIP3    H125425   0.319   4.848   5.789
 8487TIP3    H225426   0.383   4.985   5.798
 8488TIP3   OH225427   1.331   4.775   3.370
 8488TIP3    H125428   1.313   4.840   3.302
 8488TIP3    H225429   1.304   4.692   3.331
 8489TIP3   OH225430   2.590   2.450   5.440
 8489TIP3    H125431   2.547   2.371   5.409
 8489TIP3    H225432   2.675   2.421   5.472
 8490TIP3   OH225433   3.580   1.022   2.429
 8490TIP3    H125434   3.527   1.085   2.380
 8490TIP3    H225435   3.642   1.076   2.478
 8491TIP3   OH225436   5.501   1.676   3.540
 8491TIP3    H125437   5.527   1.590   3.508
 8491TIP3    H225438   5.474   1.724   3.461
 8492TIP3   OH225439   5.838   2.793   4.080
 8492TIP3    H125440   5.792   2.709   4.076
 8492TIP3    H225441   5.846   2.820   3.989
 8493TIP3   OH225442   4.702   2.039   2.649
 8493TIP3    H125443   4.639   1.968   2.632
 8493TIP3    H225444   4.704   2.089   2.568
 8494TIP3   OH225445   6.017   0.299   3.709
 8494TIP3    H125446   5.928   0.272   3.733
 8494TIP3    H225447   6.070   0.278   3.785
 8495TIP3   OH225448   5.002   2.798   0.279
 8495TIP3    H125449   5.042   2.883   0.298
 8495TIP3    H225450   4.915   2.802   0.320
 8496TIP3   OH225451   7.173   4.178   4.653
 8496TIP3    H125452   7.138   4.240   4.717
 8496TIP3    H225453   7.113   4.184   4.579
 8497TIP3   OH225454   0.436   1.574   0.244
 8497TIP3    H125455   0.475   1.486   0.241
 8497TIP3    H225456   0.394   1.578   0.330
 8498TIP3   OH225457   5.394   2.893   1.162
 8498TIP3    H125458   5.458   2.901   1.091
 8498TIP3    H225459   5.333   2.966   1.148
 8499TIP3   OH225460   5.558   3.643   4.732
 8499TIP3    H125461   5.618   3.629   4.659
 8499TIP3    H225462   5.613   3.681   4.801
 8500TIP3   OH225463   4.662   0.833   2.776
 8500TIP3    H125464   4.656   0.822   2.681
 8500TIP3    H225465   4.740   0.887   2.789
 8501TIP3   OH225466   3.662   5.246   2.441
 8501TIP3    H125467   3.674   5.193   2.362
 8501TIP3    H225468   3.666   5.182   2.513
 8502TIP3   OH225469   0.481   1.394   2.281
 8502TIP3    H125470   0.549   1.363   2.222
 8502TIP3    H225471   0.408   1.418   2.223
 8503TIP3   OH225472   0.510   5.719   3.622
 8503TIP3    H125473   0.514   5.749   3.712
 8503TIP3    H225474   0.545   5.791   3.570
 8504TIP3   OH225475   6.215   6.076   0.047
 8504TIP3    H125476   6.167   6.102  -0.031
 8504TIP3    H225477   6.219   6.156   0.100
 8505TIP3   OH225478   1.320   6.104   0.920
 8505TIP3    H125479   1.252   6.036   0.917
 8505TIP3    H225480   1.340   6.113   1.014
 8506TIP3   OH225481   3.208   0.923   5.523
 8506TIP3    H125482   3.139   0.939   5.589
 8506TIP3    H225483   3.177   0.847   5.475
 8507TIP3   OH225484   2.616   6.165   1.850
 8507TIP3    H125485   2.549   6.111   1.892
 8507TIP3    H225486   2.692   6.107   1.844
 8508TIP3   OH225487   1.072   4.603   3.671
 8508TIP3    H125488   0.994   4.618   3.725
 8508TIP3    H225489   1.041   4.613   3.581
 8509TIP3   OH225490   2.076   3.664   5.345
 8509TIP3    H125491   2.145   3.711   5.392
 8509TIP3    H225492   2.032   3.612   5.413
 8510TIP3   OH225493   1.837   4.818   3.267
 8510TIP3    H125494   1.760   4.824   3.323
 8510TIP3    H225495   1.879   4.735   3.291
 8511TIP3   OH225496   3.818   6.045   2.416
 8511TIP3    H125497   3.768   5.964   2.416
 8511TIP3    H225498   3.898   6.023   2.464
 8512TIP3   OH225499   5.836   5.611   1.337
 8512TIP3    H125500   5.815   5.563   1.417
 8512TIP3    H225501   5.926   5.584   1.317
 8513TIP3   OH225502   6.662   2.327   0.053
 8513TIP3    H125503   6.567   2.320   0.056
 8513TIP3    H225504   6.678   2.406   0.001
 8514TIP3   OH225505   5.028   6.623   5.711
 8514TIP3    H125506   5.056   6.624   5.620
 8514TIP3    H225507   5.107   6.645   5.761
 8515TIP3   OH225508   5.717   4.233   2.479
 8515TIP3    H125509   5.636   4.280   2.498
 8515TIP3    H225510   5.699   4.142   2.503
 8516TIP3   OH225511   2.712   2.173   1.269
 8516TIP3    H125512   2.800   2.210   1.265
 8516TIP3    H225513   2.669   2.202   1.189
 8517TIP3   OH225514   2.551   2.062   3.846
 8517TIP3    H125515   2.550   1.968   3.864
 8517TIP3    H225516   2.459   2.086   3.838
 8518TIP3   OH225517   6.017   5.972   2.671
 8518TIP3    H125518   6.064   5.908   2.618
 8518TIP3    H225519   5.937   5.927   2.698
 8519TIP3   OH225520   6.289   4.272   2.523
 8519TIP3    H125521   6.230   4.198   2.505
 8519TIP3    H225522   6.377   4.236   2.511
 8520TIP3   OH225523   4.742   6.518   1.309
 8520TIP3    H125524   4.673   6.550   1.251
 8520TIP3    H225525   4.794   6.596   1.330
 8521TIP3   OH225526   3.292   1.955   0.094
 8521TIP3    H125527   3.345   1.878   0.115
 8521TIP3    H225528   3.336   1.995   0.019
 8522TIP3   OH225529   7.062   3.674   4.464
 8522TIP3    H125530   7.116   3.753   4.470
 8522TIP3    H225531   7.039   3.655   4.555
 8523TIP3   OH225532   0.649   2.798   1.861
 8523TIP3    H125533   0.656   2.719   1.807
 8523TIP3    H225534   0.739   2.831   1.867
 8524TIP3   OH225535   3.326   5.584   2.977
 8524TIP3    H125536   3.355   5.497   2.949
 8524TIP3    H225537   3.284   5.622   2.900
 8525TIP3   OH225538   4.415   1.258   5.429
 8525TIP3    H125539   4.430   1.219   5.515
 8525TIP3    H225540   4.443   1.191   5.366
 8526TIP3   OH225541   3.977   6.335   4.584
 8526TIP3    H125542   4.052   6.371   4.537
 8526TIP3    H225543   3.915   6.311   4.515
 8527TIP3   OH225544   0.789   1.712   5.475
 8527TIP3    H125545   0.751   1.732   5.561
 8527TIP3    H225546   0.883   1.730   5.486
 8528TIP3   OH225547   3.653   0.444   1.080
 8528TIP3    H125548   3.576   0.463   1.027
 8528TIP3    H225549   3.687   0.530   1.105
 8529TIP3   OH225550   5.933   3.297   5.199
 8529TIP3    H125551   5.874   3.310   5.125
 8529TIP3    H225552   5.923   3.205   5.223
 8530TIP3   OH225553   3.424   4.213   4.343
 8530TIP3    H125554   3.458   4.257   4.420
 8530TIP3    H225555   3.502   4.184   4.295
 8531TIP3   OH225556   6.254   0.279   0.148
 8531TIP3    H125557   6.163   0.279   0.174
 8531TIP3    H225558   6.272   0.369   0.120
 8532TIP3   OH225559   3.212   5.343   4.795
 8532TIP3    H125560   3.123   5.312   4.777
 8532TIP3    H225561   3.240   5.292   4.870
 8533TIP3   OH225562   6.738   5.770   5.645
 8533TIP3    H125563   6.738   5.674   5.640
 8533TIP3    H225564   6.667   5.790   5.707
 8534TIP3   OH225565   0.603   3.982   1.684
 8534TIP3    H125566   0.652   3.993   1.765
 8534TIP3    H225567   0.587   4.072   1.653
 8535TIP3   OH225568   6.627   3.935   3.389
 8535TIP3    H125569   6.532   3.944   3.380
 8535TIP3    H225570   6.650   3.864   3.329
 8536TIP3   OH225571   2.048   4.718   4.098
 8536TIP3    H125572   2.080   4.704   4.187
 8536TIP3    H225573   2.078   4.641   4.050
 8537TIP3   OH225574   7.065   1.712   1.502
 8537TIP3    H125575   7.099   1.647   1.441
 8537TIP3    H225576   6.983   1.742   1.461
 8538TIP3   OH225577   2.751   0.863   4.854
 8538TIP3    H125578   2.828   0.808   4.869
 8538TIP3    H225579   2.697   0.851   4.933
 8539TIP3   OH225580   1.991   3.891   4.196
 8539TIP3    H125581   2.058   3.837   4.238
 8539TIP3    H225582   1.914   3.835   4.189
 8540TIP3   OH225583   5.529   5.895   0.829
 8540TIP3    H125584   5.450   5.857   0.791
 8540TIP3    H225585   5.590   5.822   0.837
 8541TIP3   OH225586   2.087   1.720   1.048
 8541TIP3    H125587   2.012   1.721   0.989
 8541TIP3    H225588   2.157   1.762   0.998
 8542TIP3   OH225589   5.024   1.726   1.034
 8542TIP3    H125590   5.055   1.738   1.124
 8542TIP3    H225591   5.100   1.693   0.986
 8543TIP3   OH225592   1.714   6.720   5.609
 8543TIP3    H125593   1.694   6.663   5.534
 8543TIP3    H225594   1.747   6.660   5.676
 8544TIP3   OH225595   6.324   3.185   5.252
 8544TIP3    H125596   6.270   3.194   5.174
 8544TIP3    H225597   6.266   3.207   5.324
 8545TIP3   OH225598   6.861   5.483   1.071
 8545TIP3    H125599   6.834   5.562   1.023
 8545TIP3    H225600   6.859   5.414   1.005
 8546TIP3   OH225601   3.684   3.797   0.819
 8546TIP3    H125602   3.593   3.765   0.823
 8546TIP3    H225603   3.683   3.864   0.751
 8547TIP3   OH225604   3.195   2.099   1.745
 8547TIP3    H125605   3.183   2.170   1.682
 8547TIP3    H225606   3.145   2.127   1.822
 8548TIP3   OH225607   3.952   6.383   2.298
 8548TIP3    H125608   3.986   6.331   2.371
 8548TIP3    H225609   4.015   6.372   2.228
 8549TIP3   OH225610   6.750   2.472   4.281
 8549TIP3    H125611   6.674   2.416   4.299
 8549TIP3    H225612   6.787   2.490   4.368
 8550TIP3   OH225613   3.240   0.926   5.184
 8550TIP3    H125614   3.256   0.833   5.172
 8550TIP3    H225615   3.158   0.942   5.137
 8551TIP3   OH225616   2.260   4.313   3.728
 8551TIP3    H125617   2.324   4.369   3.773
 8551TIP3    H225618   2.301   4.292   3.644
 8552TIP3   OH225619   1.470   5.467   1.951
 8552TIP3    H125620   1.375   5.464   1.942
 8552TIP3    H225621   1.499   5.526   1.881
 8553TIP3   OH225622   4.973   2.889   5.053
 8553TIP3    H125623   4.923   2.843   4.985
 8553TIP3    H225624   5.028   2.951   5.005
 8554TIP3   OH225625  -0.050   3.659   1.212
 8554TIP3    H125626   0.029   3.713   1.212
 8554TIP3    H225627  -0.042   3.606   1.292
 8555TIP3   OH225628   2.043   4.948   3.101
 8555TIP3    H125629   2.034   4.947   3.006
 8555TIP3    H225630   1.955   4.927   3.134
 8556TIP3   OH225631   6.026   4.772   2.024
 8556TIP3    H125632   6.080   4.756   2.102
 8556TIP3    H225633   6.060   4.712   1.958
 8557TIP3   OH225634   0.908   1.642   0.255
 8557TIP3    H125635   0.873   1.727   0.231
 8557TIP3    H225636   1.001   1.657   0.270
 8558TIP3   OH225637   4.692   5.895   3.959
 8558TIP3    H125638   4.683   5.889   4.054
 8558TIP3    H225639   4.648   5.816   3.926
 8559TIP3   OH225640   3.404   6.833   1.729
 8559TIP3    H125641   3.335   6.767   1.739
 8559TIP3    H225642   3.405   6.879   1.813
 8560TIP3   OH225643   0.410   5.565   5.255
 8560TIP3    H125644   0.428   5.585   5.346
 8560TIP3    H225645   0.451   5.636   5.206
 8561TIP3   OH225646   0.568   5.959   0.179
 8561TIP3    H125647   0.513   5.986   0.106
 8561TIP3    H225648   0.606   6.041   0.212
 8562TIP3   OH225649   0.452   6.650   0.021
 8562TIP3    H125650   0.464   6.620   0.112
 8562TIP3    H225651   0.540   6.657  -0.014
 8563TIP3   OH225652   2.705   5.703   1.310
 8563TIP3    H125653   2.676   5.678   1.222
 8563TIP3    H225654   2.664   5.639   1.368
 8564TIP3   OH225655   5.835   1.934   1.828
 8564TIP3    H125656   5.749   1.906   1.859
 8564TIP3    H225657   5.870   1.988   1.899
 8565TIP3   OH225658   5.663   2.799   1.229
 8565TIP3    H125659   5.606   2.840   1.164
 8565TIP3    H225660   5.721   2.870   1.258
 8566TIP3   OH225661   3.453   0.813   5.732
 8566TIP3    H125662   3.518   0.760   5.686
 8566TIP3    H225663   3.369   0.784   5.697
 8567TIP3   OH225664   4.711   3.335   4.601
 8567TIP3    H125665   4.727   3.242   4.584
 8567TIP3    H225666   4.636   3.335   4.661
 8568TIP3   OH225667   2.520   4.169   5.221
 8568TIP3    H125668   2.477   4.125   5.294
 8568TIP3    H225669   2.511   4.262   5.240
 8569TIP3   OH225670   3.939   2.490   1.592
 8569TIP3    H125671   4.000   2.557   1.623
 8569TIP3    H225672   3.852   2.526   1.611
 8570TIP3   OH225673   1.115   5.508   0.464
 8570TIP3    H125674   1.110   5.439   0.398
 8570TIP3    H225675   1.120   5.462   0.547
 8571TIP3   OH225676   4.888   0.481   4.974
 8571TIP3    H125677   4.803   0.440   4.990
 8571TIP3    H225678   4.890   0.495   4.879
 8572TIP3   OH225679   0.624   1.925   4.087
 8572TIP3    H125680   0.576   1.887   4.014
 8572TIP3    H225681   0.577   2.006   4.107
 8573TIP3   OH225682   1.841   2.212   2.361
 8573TIP3    H125683   1.745   2.207   2.359
 8573TIP3    H225684   1.860   2.300   2.331
 8574TIP3   OH225685   6.994   5.608   0.340
 8574TIP3    H125686   7.052   5.619   0.265
 8574TIP3    H225687   6.941   5.688   0.342
 8575TIP3   OH225688   3.507   5.813   4.320
 8575TIP3    H125689   3.542   5.735   4.278
 8575TIP3    H225690   3.454   5.855   4.252
 8576TIP3   OH225691   3.088   0.884   0.663
 8576TIP3    H125692   3.084   0.968   0.709
 8576TIP3    H225693   3.060   0.820   0.728
 8577TIP3   OH225694   3.327   4.713   3.365
 8577TIP3    H125695   3.334   4.702   3.460
 8577TIP3    H225696   3.302   4.627   3.332
 8578TIP3   OH225697   3.163   4.707   2.815
 8578TIP3    H125698   3.181   4.786   2.764
 8578TIP3    H225699   3.247   4.683   2.853
 8579TIP3   OH225700   1.983   0.942   3.595
 8579TIP3    H125701   1.973   1.032   3.562
 8579TIP3    H225702   1.895   0.919   3.626
 8580TIP3   OH225703   5.947   0.828   3.407
 8580TIP3    H125704   5.972   0.905   3.356
 8580TIP3    H225705   5.874   0.857   3.461
 8581TIP3   OH225706   2.733   0.634   1.525
 8581TIP3    H125707   2.795   0.704   1.546
 8581TIP3    H225708   2.712   0.595   1.609
 8582TIP3   OH225709   3.487   4.393   1.378
 8582TIP3    H125710   3.545   4.468   1.362
 8582TIP3    H225711   3.418   4.401   1.312
 8583TIP3   OH225712   2.922   0.371   4.714
 8583TIP3    H125713   2.946   0.463   4.704
 8583TIP3    H225714   2.850   0.358   4.651
 8584TIP3   OH225715   5.296   4.094   3.600
 8584TIP3    H125716   5.304   4.183   3.634
 8584TIP3    H225717   5.234   4.101   3.527
 8585TIP3   OH225718   6.659   2.440   2.578
 8585TIP3    H125719   6.612   2.377   2.524
 8585TIP3    H225720   6.644   2.410   2.668
 8586TIP3   OH225721   5.070   1.682   3.286
 8586TIP3    H125722   4.993   1.659   3.234
 8586TIP3    H225723   5.085   1.775   3.267
 8587TIP3   OH225724   4.650   5.675   5.868
 8587TIP3    H125725   4.632   5.582   5.882
 8587TIP3    H225726   4.722   5.676   5.805
 8588TIP3   OH225727   1.116   1.184   3.581
 8588TIP3    H125728   1.148   1.122   3.515
 8588TIP3    H225729   1.034   1.218   3.544
 8589TIP3   OH225730   0.225   2.374   2.898
 8589TIP3    H125731   0.308   2.338   2.932
 8589TIP3    H225732   0.157   2.328   2.948
 8590TIP3   OH225733   4.354   0.989   4.118
 8590TIP3    H125734   4.354   1.081   4.144
 8590TIP3    H225735   4.447   0.969   4.103
 8591TIP3   OH225736   6.159   3.585   5.697
 8591TIP3    H125737   6.194   3.674   5.707
 8591TIP3    H225738   6.088   3.579   5.761
 8592TIP3   OH225739   4.290   1.090   4.533
 8592TIP3    H125740   4.273   1.041   4.452
 8592TIP3    H225741   4.219   1.063   4.592
 8593TIP3   OH225742   2.198   3.867   1.206
 8593TIP3    H125743   2.237   3.952   1.187
 8593TIP3    H225744   2.106   3.877   1.184
 8594TIP3   OH225745   0.942   3.847   3.443
 8594TIP3    H125746   0.958   3.898   3.522
 8594TIP3    H225747   1.011   3.780   3.443
 8595TIP3   OH225748   5.697   4.192   2.052
 8595TIP3    H125749   5.767   4.175   2.116
 8595TIP3    H225750   5.738   4.250   1.987
 8596TIP3   OH225751   6.840   2.681   3.708
 8596TIP3    H125752   6.874   2.762   3.669
 8596TIP3    H225753   6.885   2.674   3.792
 8597TIP3   OH225754   5.696   6.160   5.779
 8597TIP3    H125755   5.677   6.190   5.868
 8597TIP3    H225756   5.637   6.210   5.723
 8598TIP3   OH225757   6.603   5.900   4.102
 8598TIP3    H125758   6.555   5.878   4.182
 8598TIP3    H225759   6.585   5.827   4.043
 8599TIP3   OH225760   1.073   2.044   0.686
 8599TIP3    H125761   1.143   2.040   0.621
 8599TIP3    H225762   0.993   2.029   0.635
 8600TIP3   OH225763   2.396   3.774   0.678
 8600TIP3    H125764   2.349   3.818   0.608
 8600TIP3    H225765   2.342   3.789   0.756
 8601TIP3   OH225766   3.803   2.803   4.115
 8601TIP3    H125767   3.776   2.883   4.161
 8601TIP3    H225768   3.790   2.733   4.179
 8602TIP3   OH225769   1.403   4.852   5.289
 8602TIP3    H125770   1.347   4.882   5.218
 8602TIP3    H225771   1.454   4.780   5.250
 8603TIP3   OH225772   4.778   1.837   3.015
 8603TIP3    H125773   4.774   1.881   3.100
 8603TIP3    H225774   4.845   1.886   2.967
 8604TIP3   OH225775   4.067   3.039   1.960
 8604TIP3    H125776   4.123   3.029   1.883
 8604TIP3    H225777   4.066   2.952   2.000
 8605TIP3   OH225778   7.191   6.173   4.728
 8605TIP3    H125779   7.206   6.265   4.704
 8605TIP3    H225780   7.118   6.145   4.673
 8606TIP3   OH225781   3.225   5.223   5.446
 8606TIP3    H125782   3.185   5.234   5.360
 8606TIP3    H225783   3.252   5.311   5.471
 8607TIP3   OH225784   2.200   3.518   0.899
 8607TIP3    H125785   2.212   3.613   0.906
 8607TIP3    H225786   2.247   3.482   0.974
 8608TIP3   OH225787   0.949   5.496   1.544
 8608TIP3    H125788   0.944   5.445   1.625
 8608TIP3    H225789   0.867   5.476   1.498
 8609TIP3   OH225790   2.445   4.424   0.854
 8609TIP3    H125791   2.419   4.362   0.922
 8609TIP3    H225792   2.375   4.420   0.790
 8610TIP3   OH225793   2.285   4.825   1.057
 8610TIP3    H125794   2.255   4.764   1.124
 8610TIP3    H225795   2.323   4.770   0.989
 8611TIP3   OH225796   5.237   2.818   2.206
 8611TIP3    H125797   5.304   2.856   2.263
 8611TIP3    H225798   5.227   2.882   2.136
 8612TIP3   OH225799   6.078   5.518   1.458
 8612TIP3    H125800   6.149   5.487   1.514
 8612TIP3    H225801   6.001   5.469   1.486
 8613TIP3   OH225802   5.679   0.878   2.134
 8613TIP3    H125803   5.588   0.858   2.112
 8613TIP3    H225804   5.714   0.796   2.169
 8614TIP3   OH225805   2.199   6.474   1.883
 8614TIP3    H125806   2.266   6.418   1.922
 8614TIP3    H225807   2.116   6.439   1.916
 8615TIP3   OH225808   3.116   0.759   0.425
 8615TIP3    H125809   3.072   0.805   0.496
 8615TIP3    H225810   3.168   0.692   0.468
 8616TIP3   OH225811   3.562   1.176   3.723
 8616TIP3    H125812   3.570   1.101   3.783
 8616TIP3    H225813   3.482   1.221   3.753
 8617TIP3   OH225814   6.745   5.862   5.133
 8617TIP3    H125815   6.790   5.922   5.192
 8617TIP3    H225816   6.781   5.776   5.154
 8618TIP3   OH225817   5.431   5.628   2.399
 8618TIP3    H125818   5.354   5.572   2.391
 8618TIP3    H225819   5.491   5.578   2.455
 8619TIP3   OH225820   4.669   2.276   2.790
 8619TIP3    H125821   4.740   2.321   2.745
 8619TIP3    H225822   4.664   2.191   2.747
 8620TIP3   OH225823   5.832   2.629   0.315
 8620TIP3    H125824   5.818   2.534   0.310
 8620TIP3    H225825   5.755   2.662   0.360
 8621TIP3   OH225826   1.080   3.266   0.126
 8621TIP3    H125827   1.104   3.321   0.201
 8621TIP3    H225828   0.988   3.287   0.110
 8622TIP3   OH225829   4.074   6.171   3.744
 8622TIP3    H125830   4.050   6.222   3.821
 8622TIP3    H225831   4.168   6.186   3.733
 8623TIP3   OH225832   1.736   6.065   3.126
 8623TIP3    H125833   1.676   6.064   3.052
 8623TIP3    H225834   1.718   5.984   3.173
 8624TIP3   OH225835   5.708   1.079   2.486
 8624TIP3    H125836   5.657   1.060   2.565
 8624TIP3    H225837   5.689   1.006   2.427
 8625TIP3   OH225838   6.909   3.397   1.399
 8625TIP3    H125839   6.905   3.479   1.350
 8625TIP3    H225840   7.001   3.385   1.419
 8626TIP3   OH225841   4.789   1.905   3.731
 8626TIP3    H125842   4.705   1.880   3.769
 8626TIP3    H225843   4.845   1.922   3.806
 8627TIP3   OH225844   6.888   4.402   0.049
 8627TIP3    H125845   6.799   4.366   0.052
 8627TIP3    H225846   6.902   4.435   0.138
 8628TIP3   OH225847   1.327   0.578   4.763
 8628TIP3    H125848   1.399   0.609   4.816
 8628TIP3    H225849   1.353   0.490   4.734
 8629TIP3   OH225850   0.207   5.765   2.827
 8629TIP3    H125851   0.157   5.741   2.749
 8629TIP3    H225852   0.143   5.761   2.899
 8630TIP3   OH225853   6.856   5.430   4.293
 8630TIP3    H125854   6.782   5.420   4.232
 8630TIP3    H225855   6.882   5.522   4.283
 8631TIP3   OH225856   0.277   6.352   4.642
 8631TIP3    H125857   0.277   6.306   4.725
 8631TIP3    H225858   0.296   6.443   4.665
 8632TIP3   OH225859   1.905   2.168   2.627
 8632TIP3    H125860   1.913   2.262   2.642
 8632TIP3    H225861   1.894   2.160   2.532
 8633TIP3   OH225862   0.098   4.702   1.209
 8633TIP3    H125863   0.076   4.720   1.118
 8633TIP3    H225864   0.015   4.708   1.256
 8634TIP3   OH225865   1.771   6.068   2.076
 8634TIP3    H125866   1.693   6.115   2.047
 8634TIP3    H225867   1.841   6.134   2.072
 8635TIP3   OH225868   6.622   0.695   4.472
 8635TIP3    H125869   6.556   0.730   4.533
 8635TIP3    H225870   6.633   0.764   4.407
 8636TIP3   OH225871   6.696   3.945   2.958
 8636TIP3    H125872   6.646   3.918   2.882
 8636TIP3    H225873   6.647   4.018   2.995
 8637TIP3   OH225874   6.064   4.614   0.724
 8637TIP3    H125875   6.136   4.554   0.739
 8637TIP3    H225876   6.074   4.642   0.633
 8638TIP3   OH225877   6.681   0.790   2.262
 8638TIP3    H125878   6.587   0.806   2.273
 8638TIP3    H225879   6.686   0.700   2.230
 8639TIP3   OH225880   5.163   1.434   2.290
 8639TIP3    H125881   5.103   1.397   2.226
 8639TIP3    H225882   5.231   1.477   2.237
 8640TIP3   OH225883   5.479   3.258   1.110
 8640TIP3    H125884   5.524   3.316   1.049
 8640TIP3    H225885   5.400   3.231   1.063
 8641TIP3   OH225886   4.253   3.868   2.603
 8641TIP3    H125887   4.204   3.806   2.550
 8641TIP3    H225888   4.195   3.944   2.611
 8642TIP3   OH225889   0.982   2.071   1.924
 8642TIP3    H125890   1.054   2.133   1.936
 8642TIP3    H225891   0.955   2.083   1.833
 8643TIP3   OH225892   2.694   4.902   3.336
 8643TIP3    H125893   2.625   4.965   3.315
 8643TIP3    H225894   2.760   4.914   3.268
 8644TIP3   OH225895   0.467   4.505   5.719
 8644TIP3    H125896   0.509   4.562   5.654
 8644TIP3    H225897   0.539   4.455   5.757
 8645TIP3   OH225898   0.418   3.010   2.059
 8645TIP3    H125899   0.477   2.954   2.007
 8645TIP3    H225900   0.476   3.052   2.123
 8646TIP3   OH225901   5.744   3.355   5.719
 8646TIP3    H125902   5.725   3.418   5.650
 8646TIP3    H225903   5.815   3.395   5.769
 8647TIP3   OH225904   5.624   1.461   3.270
 8647TIP3    H125905   5.644   1.425   3.357
 8647TIP3    H225906   5.587   1.387   3.222
 8648TIP3   OH225907   1.995   4.197   2.212
 8648TIP3    H125908   2.022   4.276   2.259
 8648TIP3    H225909   2.009   4.218   2.119
 8649TIP3   OH225910   2.242   2.348   5.188
 8649TIP3    H125911   2.187   2.374   5.115
 8649TIP3    H225912   2.224   2.414   5.256
 8650TIP3   OH225913   5.334   4.631   1.137
 8650TIP3    H125914   5.338   4.646   1.231
 8650TIP3    H225915   5.240   4.634   1.117
 8651TIP3   OH225916   4.068   6.329   5.151
 8651TIP3    H125917   4.071   6.249   5.099
 8651TIP3    H225918   4.029   6.394   5.093
 8652TIP3   OH225919   0.222   1.966   4.447
 8652TIP3    H125920   0.193   1.896   4.388
 8652TIP3    H225921   0.143   2.019   4.461
 8653TIP3   OH225922   1.219   6.621   4.635
 8653TIP3    H125923   1.257   6.686   4.694
 8653TIP3    H225924   1.127   6.646   4.626
 8654TIP3   OH225925   2.462   0.660   3.710
 8654TIP3    H125926   2.425   0.655   3.622
 8654TIP3    H225927   2.525   0.732   3.705
 8655TIP3   OH225928   5.307   4.389   3.383
 8655TIP3    H125929   5.247   4.351   3.447
 8655TIP3    H225930   5.256   4.393   3.302
 8656TIP3   OH225931   0.650   0.006   1.707
 8656TIP3    H125932   0.712  -0.030   1.770
 8656TIP3    H225933   0.671   0.099   1.701
 8657TIP3   OH225934   4.609   3.605   3.598
 8657TIP3    H125935   4.553   3.584   3.673
 8657TIP3    H225936   4.559   3.575   3.522
 8658TIP3   OH225937   3.092   0.163   3.153
 8658TIP3    H125938   3.179   0.198   3.131
 8658TIP3    H225939   3.031   0.221   3.107
 8659TIP3   OH225940   2.105   4.566   0.910
 8659TIP3    H125941   2.050   4.544   0.985
 8659TIP3    H225942   2.194   4.569   0.945
 8660TIP3   OH225943   2.842   0.112   3.723
 8660TIP3    H125944   2.860   0.143   3.635
 8660TIP3    H225945   2.748   0.093   3.724
 8661TIP3   OH225946   5.613   6.644   0.092
 8661TIP3    H125947   5.540   6.667   0.035
 8661TIP3    H225948   5.664   6.581   0.042
 8662TIP3   OH225949   5.230   3.404   0.316
 8662TIP3    H125950   5.241   3.468   0.385
 8662TIP3    H225951   5.296   3.337   0.333
 8663TIP3   OH225952   1.783   1.058   5.202
 8663TIP3    H125953   1.773   0.995   5.273
 8663TIP3    H225954   1.843   1.015   5.140
 8664TIP3   OH225955   3.180   2.443   4.934
 8664TIP3    H125956   3.202   2.499   5.009
 8664TIP3    H225957   3.131   2.500   4.875
 8665TIP3   OH225958   7.238   1.341   5.220
 8665TIP3    H125959   7.192   1.386   5.291
 8665TIP3    H225960   7.310   1.295   5.263
 8666TIP3   OH225961   5.885   2.967   5.833
 8666TIP3    H125962   5.796   3.001   5.834
 8666TIP3    H225963   5.895   2.924   5.918
 8667TIP3   OH225964   5.012   6.255   0.290
 8667TIP3    H125965   5.000   6.348   0.309
 8667TIP3    H225966   5.019   6.251   0.195
 8668TIP3   OH225967   6.563   1.703   2.485
 8668TIP3    H125968   6.546   1.639   2.554
 8668TIP3    H225969   6.658   1.708   2.480
 8669TIP3   OH225970   4.503   6.093   2.893
 8669TIP3    H125971   4.445   6.064   2.964
 8669TIP3    H225972   4.445   6.102   2.817
 8670TIP3   OH225973   1.216   0.844   0.613
 8670TIP3    H125974   1.232   0.810   0.701
 8670TIP3    H225975   1.188   0.768   0.562
 8671TIP3   OH225976   4.897   1.686   3.581
 8671TIP3    H125977   4.870   1.756   3.640
 8671TIP3    H225978   4.880   1.606   3.630
 8672TIP3   OH225979   6.889   0.006   2.391
 8672TIP3    H125980   6.815   0.047   2.437
 8672TIP3    H225981   6.966   0.037   2.438
 8673TIP3   OH225982   3.392   0.357   4.131
 8673TIP3    H125983   3.376   0.446   4.162
 8673TIP3    H225984   3.355   0.301   4.199
 8674TIP3   OH225985   6.028   1.265   5.632
 8674TIP3    H125986   6.111   1.243   5.589
 8674TIP3    H225987   6.002   1.349   5.593
 8675TIP3   OH225988   0.315   5.566   3.484
 8675TIP3    H125989   0.372   5.610   3.546
 8675TIP3    H225990   0.284   5.636   3.425
 8676TIP3   OH225991   2.445   0.852   0.822
 8676TIP3    H125992   2.447   0.780   0.759
 8676TIP3    H225993   2.358   0.848   0.860
 8677TIP3   OH225994   1.468   1.058   5.128
 8677TIP3    H125995   1.505   1.037   5.042
 8677TIP3    H225996   1.545   1.076   5.183
 8678TIP3   OH225997   0.328   4.081   3.235
 8678TIP3    H125998   0.354   4.065   3.144
 8678TIP3    H225999   0.370   4.164   3.258
 8679TIP3   OH226000   3.998   5.358   3.567
 8679TIP3    H126001   4.075   5.394   3.611
 8679TIP3    H226002   3.998   5.399   3.480
 8680TIP3   OH226003   1.621   4.080   5.627
 8680TIP3    H126004   1.695   4.044   5.676
 8680TIP3    H226005   1.563   4.006   5.613
 8681TIP3   OH226006   6.857   0.269   3.677
 8681TIP3    H126007   6.869   0.344   3.618
 8681TIP3    H226008   6.765   0.245   3.668
 8682TIP3   OH226009   2.056   4.825   3.551
 8682TIP3    H126010   2.127   4.764   3.530
 8682TIP3    H226011   2.083   4.908   3.512
 8683TIP3   OH226012   3.917   4.278   4.915
 8683TIP3    H126013   4.003   4.288   4.873
 8683TIP3    H226014   3.899   4.184   4.909
 8684TIP3   OH226015   2.474   1.144   3.039
 8684TIP3    H126016   2.424   1.224   3.023
 8684TIP3    H226017   2.513   1.123   2.955
 8685TIP3   OH226018   3.069   5.713   3.153
 8685TIP3    H126019   3.084   5.636   3.098
 8685TIP3    H226020   3.016   5.772   3.099
 8686TIP3   OH226021   0.481   5.696   2.761
 8686TIP3    H126022   0.393   5.724   2.786
 8686TIP3    H226023   0.495   5.615   2.810
 8687TIP3   OH226024   7.142   1.372   1.700
 8687TIP3    H126025   7.081   1.384   1.627
 8687TIP3    H226026   7.168   1.280   1.695
 8688TIP3   OH226027   1.262   0.119   2.490
 8688TIP3    H126028   1.348   0.077   2.490
 8688TIP3    H226029   1.243   0.133   2.583
 8689TIP3   OH226030   0.294   5.147   2.540
 8689TIP3    H126031   0.271   5.055   2.554
 8689TIP3    H226032   0.225   5.180   2.483
 8690TIP3   OH226033   0.884   5.221   2.670
 8690TIP3    H126034   0.944   5.158   2.710
 8690TIP3    H226035   0.925   5.244   2.586
 8691TIP3   OH226036   5.775  -0.003   5.527
 8691TIP3    H126037   5.726   0.073   5.558
 8691TIP3    H226038   5.817  -0.039   5.605
 8692TIP3   OH226039   4.942   5.934   2.930
 8692TIP3    H126040   4.997   5.866   2.970
 8692TIP3    H226041   4.859   5.890   2.912
 8693TIP3   OH226042   2.843   2.675   0.504
 8693TIP3    H126043   2.872   2.696   0.593
 8693TIP3    H226044   2.910   2.617   0.469
 8694TIP3   OH226045   3.701   0.275   3.148
 8694TIP3    H126046   3.729   0.340   3.083
 8694TIP3    H226047   3.783   0.240   3.183
 8695TIP3   OH226048   3.560   6.053   3.222
 8695TIP3    H126049   3.605   6.132   3.189
 8695TIP3    H226050   3.470   6.062   3.192
 8696TIP3   OH226051   1.542   5.662   2.181
 8696TIP3    H126052   1.471   5.711   2.141
 8696TIP3    H226053   1.524   5.571   2.157
 8697TIP3   OH226054   0.975   0.979   3.064
 8697TIP3    H126055   1.015   1.054   3.107
 8697TIP3    H226056   0.967   1.005   2.973
 8698TIP3   OH226057   3.343   2.881   4.433
 8698TIP3    H126058   3.383   2.957   4.475
 8698TIP3    H226059   3.417   2.833   4.395
 8699TIP3   OH226060   4.510   2.078   1.192
 8699TIP3    H126061   4.419   2.063   1.219
 8699TIP3    H226062   4.520   2.173   1.196
 8700TIP3   OH226063   5.509   6.415   1.805
 8700TIP3    H126064   5.573   6.484   1.818
 8700TIP3    H226065   5.494   6.414   1.710
 8701TIP3   OH226066   1.847   6.391   2.318
 8701TIP3    H126067   1.781   6.325   2.338
 8701TIP3    H226068   1.876   6.370   2.230
 8702TIP3   OH226069   2.927   4.879   4.656
 8702TIP3    H126070   2.999   4.926   4.613
 8702TIP3    H226071   2.884   4.830   4.587
 8703TIP3   OH226072   5.443   6.237   1.997
 8703TIP3    H126073   5.358   6.199   1.971
 8703TIP3    H226074   5.464   6.299   1.927
 8704TIP3   OH226075   1.707   0.920   3.633
 8704TIP3    H126076   1.674   1.009   3.624
 8704TIP3    H226077   1.658   0.882   3.705
 8705TIP3   OH226078   1.890   5.197   0.008
 8705TIP3    H126079   1.840   5.115   0.014
 8705TIP3    H226080   1.835   5.262   0.051
 8706TIP3   OH226081   1.298   3.213   2.998
 8706TIP3    H126082   1.392   3.228   3.001
 8706TIP3    H226083   1.266   3.246   3.081
 8707TIP3   OH226084   6.428   5.839   1.238
 8707TIP3    H126085   6.440   5.904   1.168
 8707TIP3    H226086   6.405   5.891   1.315
 8708TIP3   OH226087   0.492   6.635   3.535
 8708TIP3    H126088   0.430   6.589   3.478
 8708TIP3    H226089   0.507   6.719   3.492
 8709TIP3   OH226090   0.641   1.510   5.715
 8709TIP3    H126091   0.652   1.604   5.732
 8709TIP3    H226092   0.660   1.468   5.799
 8710TIP3   OH226093   1.158   5.574   2.918
 8710TIP3    H126094   1.181   5.632   2.991
 8710TIP3    H226095   1.172   5.627   2.840
 8711TIP3   OH226096   7.108   6.756   1.246
 8711TIP3    H126097   7.187   6.704   1.258
 8711TIP3    H226098   7.106   6.814   1.322
 8712TIP3   OH226099   1.182   6.067   3.719
 8712TIP3    H126100   1.107   6.016   3.689
 8712TIP3    H226101   1.144   6.135   3.775
 8713TIP3   OH226102   5.592   4.478   2.045
 8713TIP3    H126103   5.645   4.542   1.999
 8713TIP3    H226104   5.655   4.420   2.088
 8714TIP3   OH226105   2.141   1.029   2.227
 8714TIP3    H126106   2.148   1.066   2.315
 8714TIP3    H226107   2.201   1.082   2.174
 8715TIP3   OH226108   0.914   5.494   4.545
 8715TIP3    H126109   0.913   5.441   4.625
 8715TIP3    H226110   1.007   5.505   4.524
 8716TIP3   OH226111   4.265   2.441   4.168
 8716TIP3    H126112   4.183   2.391   4.161
 8716TIP3    H226113   4.330   2.376   4.193
 8717TIP3   OH226114   4.521   5.982   0.438
 8717TIP3    H126115   4.517   5.960   0.531
 8717TIP3    H226116   4.529   6.077   0.436
 8718TIP3   OH226117   6.045   3.389   4.438
 8718TIP3    H126118   6.132   3.397   4.476
 8718TIP3    H226119   5.988   3.369   4.512
 8719TIP3   OH226120   6.476   1.213   0.508
 8719TIP3    H126121   6.558   1.166   0.498
 8719TIP3    H226122   6.473   1.238   0.600
 8720TIP3   OH226123   5.611   1.742   5.257
 8720TIP3    H126124   5.623   1.753   5.162
 8720TIP3    H226125   5.520   1.713   5.266
 8721TIP3   OH226126   1.109   6.067   4.530
 8721TIP3    H126127   1.036   6.049   4.472
 8721TIP3    H226128   1.185   6.027   4.487
 8722TIP3   OH226129   4.997   3.470   5.155
 8722TIP3    H126130   5.000   3.562   5.182
 8722TIP3    H226131   4.904   3.449   5.152
 8723TIP3   OH226132   7.041   5.479   2.218
 8723TIP3    H126133   7.006   5.521   2.297
 8723TIP3    H226134   6.980   5.503   2.149
 8724TIP3   OH226135   1.176   5.617   5.221
 8724TIP3    H126136   1.241   5.613   5.150
 8724TIP3    H226137   1.226   5.592   5.299
 8725TIP3   OH226138   0.780   2.313   3.734
 8725TIP3    H126139   0.784   2.217   3.731
 8725TIP3    H226140   0.819   2.336   3.818
 8726TIP3   OH226141   0.764   1.202   0.690
 8726TIP3    H126142   0.836   1.213   0.751
 8726TIP3    H226143   0.795   1.243   0.609
 8727TIP3   OH226144   6.577   0.282   3.669
 8727TIP3    H126145   6.522   0.256   3.595
 8727TIP3    H226146   6.542   0.366   3.697
 8728TIP3   OH226147   0.712   2.561   5.628
 8728TIP3    H126148   0.654   2.602   5.564
 8728TIP3    H226149   0.780   2.519   5.576
 8729TIP3   OH226150   1.007   1.933   2.506
 8729TIP3    H126151   1.012   1.936   2.411
 8729TIP3    H226152   0.929   1.984   2.528
 8730TIP3   OH226153   6.166   6.399   3.983
 8730TIP3    H126154   6.187   6.306   3.976
 8730TIP3    H226155   6.100   6.404   4.053
 8731TIP3   OH226156   0.144   3.034   5.233
 8731TIP3    H126157   0.132   3.003   5.323
 8731TIP3    H226158   0.213   3.100   5.239
 8732TIP3   OH226159   6.838   6.417   3.810
 8732TIP3    H126160   6.750   6.381   3.820
 8732TIP3    H226161   6.894   6.361   3.865
 8733TIP3   OH226162   2.002   0.813   5.378
 8733TIP3    H126163   1.917   0.793   5.340
 8733TIP3    H226164   1.985   0.887   5.437
 8734TIP3   OH226165   1.281   2.170   5.909
 8734TIP3    H126166   1.235   2.197   5.830
 8734TIP3    H226167   1.273   2.074   5.909
 8735TIP3   OH226168   1.396   5.698   5.070
 8735TIP3    H126169   1.431   5.619   5.029
 8735TIP3    H226170   1.376   5.756   4.997
 8736TIP3   OH226171   2.861   2.960   2.760
 8736TIP3    H126172   2.947   2.926   2.735
 8736TIP3    H226173   2.871   3.055   2.756
 8737TIP3   OH226174   5.637   1.079   2.825
 8737TIP3    H126175   5.633   1.174   2.819
 8737TIP3    H226176   5.547   1.052   2.844
 8738TIP3   OH226177   5.327   2.559   4.985
 8738TIP3    H126178   5.232   2.562   4.968
 8738TIP3    H226179   5.337   2.494   5.055
 8739TIP3   OH226180   1.938   1.120   5.554
 8739TIP3    H126181   1.917   1.104   5.646
 8739TIP3    H226182   1.858   1.095   5.507
 8740TIP3   OH226183   2.777   2.108   3.715
 8740TIP3    H126184   2.694   2.092   3.760
 8740TIP3    H226185   2.824   2.169   3.772
 8741TIP3   OH226186   0.034   6.779   2.118
 8741TIP3    H126187   0.062   6.756   2.029
 8741TIP3    H226188   0.042   6.698   2.168
 8742TIP3   OH226189   5.522   3.631   5.197
 8742TIP3    H126190   5.595   3.692   5.184
 8742TIP3    H226191   5.507   3.631   5.291
 8743TIP3   OH226192   3.583   1.668   4.028
 8743TIP3    H126193   3.599   1.694   3.937
 8743TIP3    H226194   3.512   1.726   4.056
 8744TIP3   OH226195   1.047   5.849   3.944
 8744TIP3    H126196   0.969   5.871   3.995
 8744TIP3    H226197   1.091   5.782   3.995
 8745TIP3   OH226198   3.988   2.655   3.752
 8745TIP3    H126199   3.960   2.580   3.701
 8745TIP3    H226200   3.925   2.724   3.730
 8746TIP3   OH226201   1.947   3.542   0.657
 8746TIP3    H126202   1.983   3.537   0.568
 8746TIP3    H226203   1.853   3.557   0.644
 8747TIP3   OH226204   3.182   5.234   3.308
 8747TIP3    H126205   3.179   5.154   3.361
 8747TIP3    H226206   3.253   5.219   3.245
 8748TIP3   OH226207   4.565   0.895   4.418
 8748TIP3    H126208   4.536   0.986   4.411
 8748TIP3    H226209   4.577   0.881   4.512
 8749TIP3   OH226210   4.868   5.178   2.902
 8749TIP3    H126211   4.937   5.239   2.926
 8749TIP3    H226212   4.898   5.139   2.820
 8750TIP3   OH226213   5.406   2.398   1.591
 8750TIP3    H126214   5.387   2.433   1.678
 8750TIP3    H226215   5.454   2.469   1.548
 8751TIP3   OH226216   2.912   6.358   4.333
 8751TIP3    H126217   2.922   6.278   4.282
 8751TIP3    H226218   2.917   6.329   4.424
 8752TIP3   OH226219   0.057   6.600   0.949
 8752TIP3    H126220   0.069   6.681   0.998
 8752TIP3    H226221  -0.037   6.595   0.932
 8753TIP3   OH226222   7.145   0.913   1.169
 8753TIP3    H126223   7.132   0.821   1.147
 8753TIP3    H226224   7.156   0.956   1.085
 8754TIP3   OH226225   4.620   5.591   4.732
 8754TIP3    H126226   4.673   5.668   4.713
 8754TIP3    H226227   4.681   5.518   4.723
 8755TIP3   OH226228   3.281   0.162   4.311
 8755TIP3    H126229   3.248   0.074   4.291
 8755TIP3    H226230   3.205   0.210   4.343
 8756TIP3   OH226231   4.920   0.991   0.488
 8756TIP3    H126232   4.888   0.951   0.568
 8756TIP3    H226233   4.864   1.067   0.474
 8757TIP3   OH226234   4.901   4.751   0.199
 8757TIP3    H126235   4.908   4.657   0.181
 8757TIP3    H226236   4.807   4.768   0.202
 8758TIP3   OH226237   4.570   5.421   3.020
 8758TIP3    H126238   4.494   5.384   3.066
 8758TIP3    H226239   4.588   5.359   2.950
 8759TIP3   OH226240   1.094   0.283   4.055
 8759TIP3    H126241   1.178   0.325   4.032
 8759TIP3    H226242   1.114   0.190   4.058
 8760TIP3   OH226243   4.512   6.163   4.349
 8760TIP3    H126244   4.431   6.173   4.398
 8760TIP3    H226245   4.567   6.235   4.378
 8761TIP3   OH226246   1.590   2.110   2.358
 8761TIP3    H126247   1.548   2.027   2.379
 8761TIP3    H226248   1.520   2.176   2.369
 8762TIP3   OH226249   4.596   6.000   3.531
 8762TIP3    H126250   4.616   6.043   3.615
 8762TIP3    H226251   4.605   6.070   3.466
 8763TIP3   OH226252   3.741   2.758   4.834
 8763TIP3    H126253   3.822   2.770   4.784
 8763TIP3    H226254   3.769   2.763   4.925
 8764TIP3   OH226255   4.268   1.755   5.424
 8764TIP3    H126256   4.294   1.710   5.343
 8764TIP3    H226257   4.188   1.802   5.400
 8765TIP3   OH226258   1.282   5.767   1.548
 8765TIP3    H126259   1.258   5.858   1.529
 8765TIP3    H226260   1.282   5.762   1.644
 8766TIP3   OH226261   3.483   2.175   1.229
 8766TIP3    H126262   3.520   2.192   1.143
 8766TIP3    H226263   3.557   2.148   1.282
 8767TIP3   OH226264   1.020   0.094   1.811
 8767TIP3    H126265   0.990   0.026   1.750
 8767TIP3    H226266   0.959   0.089   1.884
 8768TIP3   OH226267   0.433   1.382   3.652
 8768TIP3    H126268   0.407   1.442   3.581
 8768TIP3    H226269   0.387   1.416   3.729
 8769TIP3   OH226270   6.656   2.427   1.184
 8769TIP3    H126271   6.579   2.464   1.227
 8769TIP3    H226272   6.637   2.436   1.090
 8770TIP3   OH226273   2.081   2.012   2.327
 8770TIP3    H126274   1.999   1.966   2.349
 8770TIP3    H226275   2.054   2.084   2.271
 8771TIP3   OH226276   0.501   2.560   1.979
 8771TIP3    H126277   0.418   2.607   1.978
 8771TIP3    H226278   0.562   2.620   2.021
 8772TIP3   OH226279   6.515   4.841   5.508
 8772TIP3    H126280   6.597   4.790   5.504
 8772TIP3    H226281   6.509   4.884   5.423
 8773TIP3   OH226282   2.445   0.146   4.885
 8773TIP3    H126283   2.431   0.239   4.870
 8773TIP3    H226284   2.476   0.140   4.976
 8774TIP3   OH226285   4.112   2.694   1.701
 8774TIP3    H126286   4.186   2.660   1.751
 8774TIP3    H226287   4.149   2.723   1.618
 8775TIP3   OH226288   1.071   1.174   3.220
 8775TIP3    H126289   1.017   1.238   3.267
 8775TIP3    H226290   1.158   1.214   3.216
 8776TIP3   OH226291   3.660   0.302   3.793
 8776TIP3    H126292   3.756   0.310   3.796
 8776TIP3    H226293   3.640   0.280   3.702
 8777TIP3   OH226294   2.250   5.661   1.588
 8777TIP3    H126295   2.306   5.698   1.657
 8777TIP3    H226296   2.218   5.579   1.624
 8778TIP3   OH226297   6.135   2.038   3.511
 8778TIP3    H126298   6.151   1.973   3.579
 8778TIP3    H226299   6.215   2.090   3.508
 8779TIP3   OH226300   0.815   0.516   3.179
 8779TIP3    H126301   0.810   0.442   3.118
 8779TIP3    H226302   0.887   0.570   3.146
 8780TIP3   OH226303   6.207   5.140   4.276
 8780TIP3    H126304   6.297   5.144   4.244
 8780TIP3    H226305   6.154   5.121   4.198
 8781TIP3   OH226306   0.662   1.639   1.418
 8781TIP3    H126307   0.607   1.577   1.467
 8781TIP3    H226308   0.616   1.723   1.425
 8782TIP3   OH226309   5.889   0.209   3.917
 8782TIP3    H126310   5.822   0.276   3.930
 8782TIP3    H226311   5.916   0.184   4.005
 8783TIP3   OH226312   4.016   1.408   1.801
 8783TIP3    H126313   4.112   1.412   1.798
 8783TIP3    H226314   3.989   1.412   1.709
 8784TIP3   OH226315   1.996   2.164   1.448
 8784TIP3    H126316   1.985   2.177   1.354
 8784TIP3    H226317   1.950   2.083   1.466
 8785TIP3   OH226318   2.508   5.844   4.151
 8785TIP3    H126319   2.424   5.805   4.175
 8785TIP3    H226320   2.565   5.769   4.132
 8786TIP3   OH226321   2.019   0.321   4.188
 8786TIP3    H126322   1.951   0.373   4.145
 8786TIP3    H226323   2.099   0.341   4.140
 8787TIP3   OH226324   0.042   2.204   0.984
 8787TIP3    H126325   0.052   2.156   0.902
 8787TIP3    H226326   0.108   2.166   1.042
 8788TIP3   OH226327   7.060   2.553   5.704
 8788TIP3    H126328   6.971   2.553   5.739
 8788TIP3    H226329   7.116   2.554   5.782
 8789TIP3   OH226330   4.539   1.595   3.708
 8789TIP3    H126331   4.565   1.516   3.660
 8789TIP3    H226332   4.492   1.648   3.643
 8790TIP3   OH226333   5.606   4.791   1.193
 8790TIP3    H126334   5.688   4.744   1.177
 8790TIP3    H226335   5.606   4.808   1.288
 8791TIP3   OH226336   1.382   1.591   5.196
 8791TIP3    H126337   1.297   1.551   5.174
 8791TIP3    H226338   1.401   1.648   5.122
 8792TIP3   OH226339   5.358   4.709   3.258
 8792TIP3    H126340   5.351   4.694   3.353
 8792TIP3    H226341   5.450   4.688   3.238
 8793TIP3   OH226342   6.634   5.614   2.875
 8793TIP3    H126343   6.729   5.607   2.885
 8793TIP3    H226344   6.599   5.574   2.955
 8794TIP3   OH226345   6.117   4.532   5.299
 8794TIP3    H126346   6.174   4.587   5.352
 8794TIP3    H226347   6.031   4.574   5.306
 8795TIP3   OH226348   3.916   2.336   0.711
 8795TIP3    H126349   3.866   2.385   0.646
 8795TIP3    H226350   3.965   2.272   0.660
 8796TIP3   OH226351   2.943   3.733   4.626
 8796TIP3    H126352   2.902   3.650   4.649
 8796TIP3    H226353   3.020   3.739   4.683
 8797TIP3   OH226354   6.266   1.837   5.478
 8797TIP3    H126355   6.260   1.933   5.479
 8797TIP3    H226356   6.175   1.807   5.476
 8798TIP3   OH226357   1.563   3.555   0.890
 8798TIP3    H126358   1.621   3.621   0.927
 8798TIP3    H226359   1.476   3.595   0.893
 8799TIP3   OH226360   5.524   2.599   1.378
 8799TIP3    H126361   5.575   2.604   1.459
 8799TIP3    H226362   5.561   2.666   1.322
 8800TIP3   OH226363   1.248   2.940   3.341
 8800TIP3    H126364   1.287   2.939   3.253
 8800TIP3    H226365   1.155   2.926   3.325
 8801TIP3   OH226366   0.744   5.816   1.412
 8801TIP3    H126367   0.677   5.864   1.362
 8801TIP3    H226368   0.700   5.794   1.494
 8802TIP3   OH226369   0.411   3.850   3.390
 8802TIP3    H126370   0.394   3.943   3.374
 8802TIP3    H226371   0.499   3.836   3.354
 8803TIP3   OH226372   2.017   2.532   4.531
 8803TIP3    H126373   1.984   2.513   4.619
 8803TIP3    H226374   2.047   2.447   4.498
 8804TIP3   OH226375   3.066   3.190   4.522
 8804TIP3    H126376   3.007   3.266   4.517
 8804TIP3    H226377   3.112   3.200   4.605
 8805TIP3   OH226378   3.521   1.969   2.706
 8805TIP3    H126379   3.454   2.036   2.688
 8805TIP3    H226380   3.532   1.923   2.624
 8806TIP3   OH226381   4.768   4.520   1.088
 8806TIP3    H126382   4.771   4.615   1.083
 8806TIP3    H226383   4.675   4.498   1.085
 8807TIP3   OH226384   2.255   6.059   4.683
 8807TIP3    H126385   2.267   5.966   4.663
 8807TIP3    H226386   2.325   6.079   4.744
 8808TIP3   OH226387   2.141   0.053   3.883
 8808TIP3    H126388   2.096   0.085   3.804
 8808TIP3    H226389   2.143  -0.042   3.872
 8809TIP3   OH226390   3.825   5.180   3.952
 8809TIP3    H126391   3.760   5.113   3.930
 8809TIP3    H226392   3.793   5.260   3.911
 8810TIP3   OH226393   2.416   1.735   2.621
 8810TIP3    H126394   2.386   1.771   2.705
 8810TIP3    H226395   2.459   1.808   2.577
 8811TIP3   OH226396   2.532   0.812   1.508
 8811TIP3    H126397   2.604   0.750   1.519
 8811TIP3    H226398   2.460   0.758   1.476
 8812TIP3   OH226399   5.735   0.413   0.401
 8812TIP3    H126400   5.666   0.393   0.338
 8812TIP3    H226401   5.696   0.475   0.462
 8813TIP3   OH226402   7.054   3.175   1.204
 8813TIP3    H126403   7.027   3.107   1.141
 8813TIP3    H226404   6.992   3.166   1.277
 8814TIP3   OH226405   7.173   2.439   2.167
 8814TIP3    H126406   7.189   2.452   2.261
 8814TIP3    H226407   7.080   2.419   2.161
 8815TIP3   OH226408   6.970   2.307   4.280
 8815TIP3    H126409   7.038   2.345   4.224
 8815TIP3    H226410   6.889   2.348   4.250
 8816TIP3   OH226411   6.351   3.892   2.061
 8816TIP3    H126412   6.347   3.831   2.135
 8816TIP3    H226413   6.305   3.971   2.092
 8817TIP3   OH226414   1.644   5.076   3.537
 8817TIP3    H126415   1.730   5.036   3.546
 8817TIP3    H226416   1.642   5.144   3.605
 8818TIP3   OH226417   4.392   5.515   4.878
 8818TIP3    H126418   4.330   5.570   4.831
 8818TIP3    H226419   4.478   5.540   4.844
 8819TIP3   OH226420   0.937   3.042   2.910
 8819TIP3    H126421   0.986   2.977   2.860
 8819TIP3    H226422   0.988   3.123   2.900
 8820TIP3   OH226423   0.556   1.485   2.563
 8820TIP3    H126424   0.617   1.559   2.559
 8820TIP3    H226425   0.540   1.462   2.472
 8821TIP3   OH226426   5.835   0.045   4.346
 8821TIP3    H126427   5.771   0.092   4.399
 8821TIP3    H226428   5.797   0.044   4.258
 8822TIP3   OH226429   6.737   5.353   5.047
 8822TIP3    H126430   6.692   5.396   5.120
 8822TIP3    H226431   6.706   5.398   4.969
 8823TIP3   OH226432   4.663   0.470   4.606
 8823TIP3    H126433   4.627   0.453   4.694
 8823TIP3    H226434   4.744   0.517   4.623
 8824TIP3   OH226435   2.100   4.952   2.720
 8824TIP3    H126436   2.050   4.875   2.749
 8824TIP3    H226437   2.046   4.991   2.652
 8825TIP3   OH226438   5.651   5.553   5.507
 8825TIP3    H126439   5.698   5.505   5.575
 8825TIP3    H226440   5.719   5.591   5.453
 8826TIP3   OH226441   6.016   1.623   4.530
 8826TIP3    H126442   5.928   1.661   4.531
 8826TIP3    H226443   6.004   1.535   4.495
 8827TIP3   OH226444   2.822   2.970   3.638
 8827TIP3    H126445   2.738   2.966   3.592
 8827TIP3    H226446   2.816   3.047   3.694
 8828TIP3   OH226447   0.156   0.157   1.196
 8828TIP3    H126448   0.095   0.227   1.218
 8828TIP3    H226449   0.110   0.104   1.130
 8829TIP3   OH226450   4.514   0.476   0.711
 8829TIP3    H126451   4.523   0.415   0.638
 8829TIP3    H226452   4.586   0.539   0.699
 8830TIP3   OH226453   3.701   2.868   1.679
 8830TIP3    H126454   3.658   2.946   1.712
 8830TIP3    H226455   3.750   2.834   1.755
 8831TIP3   OH226456   5.360   6.393   4.302
 8831TIP3    H126457   5.326   6.326   4.362
 8831TIP3    H226458   5.318   6.373   4.219
 8832TIP3   OH226459   6.001   6.157   5.753
 8832TIP3    H126460   6.013   6.151   5.848
 8832TIP3    H226461   5.907   6.174   5.743
 8833TIP3   OH226462   6.788   5.276   1.706
 8833TIP3    H126463   6.708   5.308   1.746
 8833TIP3    H226464   6.817   5.347   1.649
 8834TIP3   OH226465   3.205   0.544   4.575
 8834TIP3    H126466   3.154   0.593   4.639
 8834TIP3    H226467   3.199   0.597   4.495
 8835TIP3   OH226468   1.220   5.775   0.016
 8835TIP3    H126469   1.237   5.865   0.045
 8835TIP3    H226470   1.223   5.781  -0.080
 8836TIP3   OH226471   3.595   6.174   4.085
 8836TIP3    H126472   3.631   6.161   3.998
 8836TIP3    H226473   3.588   6.085   4.121
 8837TIP3   OH226474   1.257   5.227   0.911
 8837TIP3    H126475   1.319   5.244   0.840
 8837TIP3    H226476   1.288   5.282   0.983
 8838TIP3   OH226477   3.163   2.179   2.925
 8838TIP3    H126478   3.136   2.270   2.938
 8838TIP3    H226479   3.090   2.139   2.878
 8839TIP3   OH226480   0.356   5.597   3.144
 8839TIP3    H126481   0.323   5.509   3.128
 8839TIP3    H226482   0.452   5.588   3.138
 8840TIP3   OH226483   4.766   6.351   1.587
 8840TIP3    H126484   4.820   6.428   1.575
 8840TIP3    H226485   4.828   6.278   1.590
 8841TIP3   OH226486   0.761   6.410   3.584
 8841TIP3    H126487   0.689   6.394   3.524
 8841TIP3    H226488   0.812   6.479   3.542
 8842TIP3   OH226489   6.380   1.284   4.346
 8842TIP3    H126490   6.319   1.357   4.348
 8842TIP3    H226491   6.355   1.234   4.269
 8843TIP3   OH226492   2.587   4.256   1.861
 8843TIP3    H126493   2.589   4.340   1.907
 8843TIP3    H226494   2.661   4.260   1.801
 8844TIP3   OH226495   2.233   3.801   5.517
 8844TIP3    H126496   2.258   3.887   5.553
 8844TIP3    H226497   2.252   3.740   5.588
 8845TIP3   OH226498   0.865   0.517   0.862
 8845TIP3    H126499   0.957   0.508   0.888
 8845TIP3    H226500   0.858   0.606   0.827
 8846TIP3   OH226501   6.564   0.999   4.929
 8846TIP3    H126502   6.599   0.910   4.919
 8846TIP3    H226503   6.538   1.025   4.840
 8847TIP3   OH226504   4.517   4.384   1.124
 8847TIP3    H126505   4.510   4.337   1.207
 8847TIP3    H226506   4.460   4.336   1.064
 8848TIP3   OH226507   2.455   4.752   1.755
 8848TIP3    H126508   2.378   4.731   1.704
 8848TIP3    H226509   2.465   4.847   1.745
 8849TIP3   OH226510   1.448   5.631   2.682
 8849TIP3    H126511   1.490   5.669   2.605
 8849TIP3    H226512   1.493   5.670   2.756
 8850TIP3   OH226513   6.929   2.291   5.826
 8850TIP3    H126514   6.926   2.350   5.902
 8850TIP3    H226515   6.850   2.237   5.834
 8851TIP3   OH226516   2.287   2.776   3.856
 8851TIP3    H126517   2.217   2.712   3.845
 8851TIP3    H226518   2.328   2.753   3.939
 8852TIP3   OH226519   3.765   3.990   3.077
 8852TIP3    H126520   3.718   4.022   3.154
 8852TIP3    H226521   3.853   3.970   3.110
 8853TIP3   OH226522   0.566   3.825   2.650
 8853TIP3    H126523   0.574   3.776   2.732
 8853TIP3    H226524   0.511   3.770   2.594
 8854TIP3   OH226525   6.812   2.172   1.332
 8854TIP3    H126526   6.767   2.223   1.399
 8854TIP3    H226527   6.870   2.236   1.289
 8855TIP3   OH226528   0.688   3.443   0.332
 8855TIP3    H126529   0.711   3.497   0.256
 8855TIP3    H226530   0.761   3.382   0.342
 8856TIP3   OH226531   7.013   6.152   5.069
 8856TIP3    H126532   7.076   6.217   5.098
 8856TIP3    H226533   7.053   6.068   5.090
 8857TIP3   OH226534   2.974   0.168   4.146
 8857TIP3    H126535   3.017   0.243   4.187
 8857TIP3    H226536   2.880   0.188   4.153
 8858TIP3   OH226537   1.927   4.299   5.265
 8858TIP3    H126538   1.963   4.383   5.294
 8858TIP3    H226539   1.841   4.294   5.306
 8859TIP3   OH226540   0.376   4.713   3.465
 8859TIP3    H126541   0.287   4.709   3.499
 8859TIP3    H226542   0.383   4.800   3.426
 8860TIP3   OH226543   4.487   4.538   3.966
 8860TIP3    H126544   4.548   4.540   4.040
 8860TIP3    H226545   4.541   4.511   3.892
 8861TIP3   OH226546   3.678   4.743   1.741
 8861TIP3    H126547   3.586   4.727   1.763
 8861TIP3    H226548   3.679   4.746   1.645
 8862TIP3   OH226549   1.933   5.317   3.304
 8862TIP3    H126550   1.973   5.351   3.384
 8862TIP3    H226551   1.850   5.280   3.331
 8863TIP3   OH226552   4.257   2.530   3.428
 8863TIP3    H126553   4.244   2.519   3.522
 8863TIP3    H226554   4.292   2.446   3.399
 8864TIP3   OH226555   5.161   3.917   2.749
 8864TIP3    H126556   5.151   4.012   2.746
 8864TIP3    H226557   5.245   3.903   2.793
 8865TIP3   OH226558   0.814   4.186   1.300
 8865TIP3    H126559   0.894   4.238   1.295
 8865TIP3    H226560   0.749   4.237   1.253
 8866TIP3   OH226561   2.886   5.169   0.161
 8866TIP3    H126562   2.869   5.248   0.212
 8866TIP3    H226563   2.961   5.191   0.106
 8867TIP3   OH226564   3.290   5.108   0.900
 8867TIP3    H126565   3.221   5.102   0.966
 8867TIP3    H226566   3.372   5.099   0.950
 8868TIP3   OH226567   6.028   5.148   3.794
 8868TIP3    H126568   6.082   5.181   3.723
 8868TIP3    H226569   5.939   5.148   3.758
 8869TIP3   OH226570   6.913   3.674   2.372
 8869TIP3    H126571   6.968   3.638   2.303
 8869TIP3    H226572   6.907   3.604   2.437
 8870TIP3   OH226573   1.994   5.394   3.551
 8870TIP3    H126574   2.074   5.430   3.590
 8870TIP3    H226575   1.927   5.461   3.565
 8871TIP3   OH226576   7.213   0.463   1.077
 8871TIP3    H126577   7.149   0.534   1.086
 8871TIP3    H226578   7.177   0.392   1.130
 8872TIP3   OH226579   6.501   3.316   0.027
 8872TIP3    H126580   6.418   3.304  -0.018
 8872TIP3    H226581   6.543   3.229   0.025
 8873TIP3   OH226582   3.917   5.813   3.477
 8873TIP3    H126583   3.982   5.750   3.445
 8873TIP3    H226584   3.836   5.763   3.486
 8874TIP3   OH226585   2.101   5.081   3.419
 8874TIP3    H126586   2.062   5.045   3.339
 8874TIP3    H226587   2.025   5.106   3.473
 8875TIP3   OH226588   6.120   5.548   1.090
 8875TIP3    H126589   6.081   5.476   1.141
 8875TIP3    H226590   6.125   5.621   1.152
 8876TIP3   OH226591   4.557   3.128   4.038
 8876TIP3    H126592   4.585   3.159   3.952
 8876TIP3    H226593   4.631   3.076   4.070
 8877TIP3   OH226594   3.377   2.405   2.949
 8877TIP3    H126595   3.406   2.330   2.897
 8877TIP3    H226596   3.282   2.407   2.936
 8878TIP3   OH226597   2.860   2.298   2.052
 8878TIP3    H126598   2.877   2.213   2.093
 8878TIP3    H226599   2.903   2.292   1.967
 8879TIP3   OH226600   0.633   2.218   2.154
 8879TIP3    H126601   0.681   2.244   2.232
 8879TIP3    H226602   0.613   2.125   2.167
 8880TIP3   OH226603   1.497   6.422   3.610
 8880TIP3    H126604   1.546   6.502   3.590
 8880TIP3    H226605   1.539   6.387   3.688
 8881TIP3   OH226606   1.104   0.424   5.623
 8881TIP3    H126607   1.145   0.476   5.553
 8881TIP3    H226608   1.166   0.429   5.696
 8882TIP3   OH226609   0.916   6.676   2.213
 8882TIP3    H126610   1.000   6.716   2.192
 8882TIP3    H226611   0.896   6.708   2.301
 8883TIP3   OH226612   2.044   3.953   0.278
 8883TIP3    H126613   2.110   3.883   0.276
 8883TIP3    H226614   2.015   3.961   0.188
 8884TIP3   OH226615   3.447   0.886   5.436
 8884TIP3    H126616   3.376   0.904   5.498
 8884TIP3    H226617   3.449   0.962   5.379
 8885TIP3   OH226618   1.590   5.487   3.372
 8885TIP3    H126619   1.597   5.532   3.288
 8885TIP3    H226620   1.638   5.405   3.360
 8886TIP3   OH226621   2.468   3.693   1.732
 8886TIP3    H126622   2.402   3.634   1.769
 8886TIP3    H226623   2.424   3.735   1.658
 8887TIP3   OH226624   3.840   6.647   2.393
 8887TIP3    H126625   3.862   6.692   2.311
 8887TIP3    H226626   3.862   6.555   2.377
 8888TIP3   OH226627   4.158   5.456   0.984
 8888TIP3    H126628   4.091   5.487   1.045
 8888TIP3    H226629   4.120   5.378   0.944
 8889TIP3   OH226630   4.581   2.364   0.552
 8889TIP3    H126631   4.563   2.361   0.458
 8889TIP3    H226632   4.651   2.300   0.564
 8890TIP3   OH226633   1.309   6.026   3.330
 8890TIP3    H126634   1.280   5.948   3.377
 8890TIP3    H226635   1.309   6.095   3.396
 8891TIP3   OH226636   4.731   0.652   0.018
 8891TIP3    H126637   4.671   0.612   0.081
 8891TIP3    H226638   4.816   0.652   0.063
 8892TIP3   OH226639   4.932   4.644   5.075
 8892TIP3    H126640   4.907   4.557   5.043
 8892TIP3    H226641   5.022   4.655   5.046
 8893TIP3   OH226642   5.808   1.276   0.369
 8893TIP3    H126643   5.888   1.302   0.323
 8893TIP3    H226644   5.785   1.191   0.330
 8894TIP3   OH226645   6.779   4.843   2.209
 8894TIP3    H126646   6.704   4.794   2.175
 8894TIP3    H226647   6.763   4.933   2.180
 8895TIP3   OH226648   1.989   3.665   0.035
 8895TIP3    H126649   2.062   3.724   0.017
 8895TIP3    H226650   2.026   3.577   0.026
 8896TIP3   OH226651   1.459   1.527   2.643
 8896TIP3    H126652   1.494   1.499   2.558
 8896TIP3    H226653   1.480   1.620   2.648
 8897TIP3   OH226654   1.903   3.117   0.524
 8897TIP3    H126655   1.900   3.185   0.457
 8897TIP3    H226656   1.928   3.038   0.477
 8898TIP3   OH226657   1.980   4.687   3.031
 8898TIP3    H126658   2.056   4.706   3.085
 8898TIP3    H226659   1.991   4.595   3.005
 8899TIP3   OH226660   3.308   0.361   5.665
 8899TIP3    H126661   3.300   0.456   5.674
 8899TIP3    H226662   3.403   0.345   5.660
 8900TIP3   OH226663   5.042   6.140   3.781
 8900TIP3    H126664   4.954   6.112   3.756
 8900TIP3    H226665   5.089   6.059   3.798
 8901TIP3   OH226666   6.653   6.152   3.755
 8901TIP3    H126667   6.673   6.060   3.742
 8901TIP3    H226668   6.558   6.154   3.770
 8902TIP3   OH226669   6.892   5.020   4.361
 8902TIP3    H126670   6.952   5.094   4.374
 8902TIP3    H226671   6.899   4.969   4.441
 8903TIP3   OH226672   2.317   2.581   1.334
 8903TIP3    H126673   2.302   2.675   1.323
 8903TIP3    H226674   2.235   2.540   1.307
 8904TIP3   OH226675   0.938   1.423   5.436
 8904TIP3    H126676   0.991   1.346   5.416
 8904TIP3    H226677   0.848   1.391   5.437
 8905TIP3   OH226678   6.588   0.191   3.396
 8905TIP3    H126679   6.642   0.263   3.365
 8905TIP3    H226680   6.527   0.173   3.323
 8906TIP3   OH226681   5.606   3.241   2.040
 8906TIP3    H126682   5.512   3.253   2.031
 8906TIP3    H226683   5.644   3.313   1.989
 8907TIP3   OH226684   0.731   0.865   0.457
 8907TIP3    H126685   0.687   0.786   0.488
 8907TIP3    H226686   0.758   0.844   0.368
 8908TIP3   OH226687   1.907   5.947   0.384
 8908TIP3    H126688   1.927   5.875   0.324
 8908TIP3    H226689   1.812   5.960   0.376
 8909TIP3   OH226690   0.768   0.549   4.837
 8909TIP3    H126691   0.809   0.524   4.754
 8909TIP3    H226692   0.786   0.475   4.895
 8910TIP3   OH226693   2.257   3.319   3.157
 8910TIP3    H126694   2.281   3.370   3.080
 8910TIP3    H226695   2.161   3.325   3.162
 8911TIP3   OH226696   4.897   2.824   2.554
 8911TIP3    H126697   4.943   2.740   2.557
 8911TIP3    H226698   4.897   2.849   2.462
 8912TIP3   OH226699   4.714   0.140   1.629
 8912TIP3    H126700   4.715   0.148   1.534
 8912TIP3    H226701   4.791   0.087   1.650
 8913TIP3   OH226702   5.618   1.916   3.367
 8913TIP3    H126703   5.693   1.910   3.307
 8913TIP3    H226704   5.587   2.006   3.357
 8914TIP3   OH226705   0.473   5.335   4.182
 8914TIP3    H126706   0.473   5.270   4.111
 8914TIP3    H226707   0.542   5.305   4.242
 8915TIP3   OH226708   1.506   1.585   1.388
 8915TIP3    H126709   1.524   1.629   1.304
 8915TIP3    H226710   1.420   1.617   1.413
 8916TIP3   OH226711   0.372   3.283   4.533
 8916TIP3    H126712   0.318   3.296   4.455
 8916TIP3    H226713   0.460   3.266   4.498
 8917TIP3   OH226714   2.942   4.951   0.802
 8917TIP3    H126715   2.876   4.912   0.859
 8917TIP3    H226716   2.991   4.876   0.767
 8918TIP3   OH226717   7.042   2.123   3.967
 8918TIP3    H126718   7.078   2.086   4.048
 8918TIP3    H226719   6.955   2.083   3.960
 8919TIP3   OH226720   3.648   4.134   0.413
 8919TIP3    H126721   3.643   4.226   0.437
 8919TIP3    H226722   3.684   4.134   0.324
 8920TIP3   OH226723   5.304   5.257   4.213
 8920TIP3    H126724   5.281   5.165   4.222
 8920TIP3    H226725   5.220   5.301   4.200
 8921TIP3   OH226726   0.984   3.325   5.757
 8921TIP3    H126727   1.026   3.273   5.688
 8921TIP3    H226728   1.048   3.393   5.777
 8922TIP3   OH226729   6.808   6.288   2.943
 8922TIP3    H126730   6.778   6.353   2.879
 8922TIP3    H226731   6.795   6.204   2.899
 8923TIP3   OH226732   7.068   2.113   1.502
 8923TIP3    H126733   7.071   2.184   1.566
 8923TIP3    H226734   7.007   2.145   1.435
 8924TIP3   OH226735   2.202   4.164   1.586
 8924TIP3    H126736   2.297   4.159   1.597
 8924TIP3    H226737   2.166   4.133   1.670
 8925TIP3   OH226738   3.863   1.674   4.060
 8925TIP3    H126739   3.876   1.598   4.003
 8925TIP3    H226740   3.772   1.699   4.048
 8926TIP3   OH226741   5.282   1.565   2.035
 8926TIP3    H126742   5.310   1.641   2.087
 8926TIP3    H226743   5.191   1.585   2.012
 8927TIP3   OH226744   5.616   3.045   4.552
 8927TIP3    H126745   5.657   3.029   4.468
 8927TIP3    H226746   5.525   3.018   4.541
 8928TIP3   OH226747   2.671   6.453   5.839
 8928TIP3    H126748   2.576   6.465   5.830
 8928TIP3    H226749   2.684   6.359   5.826
 8929TIP3   OH226750   5.874   3.239   1.746
 8929TIP3    H126751   5.900   3.301   1.814
 8929TIP3    H226752   5.852   3.159   1.793
 8930TIP3   OH226753   3.174   3.496   0.764
 8930TIP3    H126754   3.098   3.554   0.773
 8930TIP3    H226755   3.147   3.431   0.699
 8931TIP3   OH226756   4.264   0.445   2.712
 8931TIP3    H126757   4.198   0.462   2.780
 8931TIP3    H226758   4.230   0.369   2.664
 8932TIP3   OH226759   3.382   6.406   2.014
 8932TIP3    H126760   3.425   6.352   1.948
 8932TIP3    H226761   3.439   6.400   2.091
 8933TIP3   OH226762   6.872   1.809   5.044
 8933TIP3    H126763   6.860   1.787   5.137
 8933TIP3    H226764   6.962   1.841   5.039
 8934TIP3   OH226765   3.442   2.133   0.406
 8934TIP3    H126766   3.349   2.127   0.383
 8934TIP3    H226767   3.476   2.045   0.388
 8935TIP3   OH226768   4.033   1.848   5.325
 8935TIP3    H126769   3.974   1.846   5.249
 8935TIP3    H226770   4.019   1.934   5.363
 8936TIP3   OH226771   2.714   4.614   3.460
 8936TIP3    H126772   2.664   4.678   3.411
 8936TIP3    H226773   2.785   4.589   3.402
 8937TIP3   OH226774   6.647   5.566   3.422
 8937TIP3    H126775   6.568   5.531   3.464
 8937TIP3    H226776   6.710   5.493   3.424
 8938TIP3   OH226777   3.674   3.716   4.055
 8938TIP3    H126778   3.715   3.657   4.118
 8938TIP3    H226779   3.670   3.666   3.974
 8939TIP3   OH226780   6.160   4.918   0.231
 8939TIP3    H126781   6.121   4.962   0.306
 8939TIP3    H226782   6.246   4.891   0.262
 8940TIP3   OH226783   5.761   4.669   1.963
 8940TIP3    H126784   5.846   4.694   1.998
 8940TIP3    H226785   5.782   4.625   1.880
 8941TIP3   OH226786   3.699   2.273   0.321
 8941TIP3    H126787   3.632   2.234   0.376
 8941TIP3    H226788   3.780   2.228   0.346
 8942TIP3   OH226789   6.551   1.167   0.980
 8942TIP3    H126790   6.485   1.146   1.047
 8942TIP3    H226791   6.634   1.166   1.027
 8943TIP3   OH226792   1.427   4.096   1.357
 8943TIP3    H126793   1.374   4.068   1.282
 8943TIP3    H226794   1.366   4.146   1.412
 8944TIP3   OH226795   0.818   2.322   0.611
 8944TIP3    H126796   0.887   2.343   0.674
 8944TIP3    H226797   0.739   2.364   0.646
 8945TIP3   OH226798   6.922   2.469   2.912
 8945TIP3    H126799   6.961   2.550   2.943
 8945TIP3    H226800   6.863   2.442   2.983
 8946TIP3   OH226801   1.886   5.180   4.681
 8946TIP3    H126802   1.800   5.222   4.674
 8946TIP3    H226803   1.868   5.087   4.665
 8947TIP3   OH226804   2.695   0.626   3.017
 8947TIP3    H126805   2.760   0.694   3.036
 8947TIP3    H226806   2.729   0.581   2.940
 8948TIP3   OH226807   4.983   1.094   1.329
 8948TIP3    H126808   5.068   1.075   1.289
 8948TIP3    H226809   4.923   1.032   1.287
 8949TIP3   OH226810   0.425   3.571   5.371
 8949TIP3    H126811   0.340   3.607   5.396
 8949TIP3    H226812   0.438   3.497   5.431
 8950TIP3   OH226813   4.105   3.735   1.849
 8950TIP3    H126814   4.010   3.723   1.843
 8950TIP3    H226815   4.139   3.699   1.767
 8951TIP3   OH226816   0.618   6.442   0.935
 8951TIP3    H126817   0.610   6.400   1.021
 8951TIP3    H226818   0.685   6.510   0.947
 8952TIP3   OH226819   4.448   3.618   4.596
 8952TIP3    H126820   4.528   3.663   4.622
 8952TIP3    H226821   4.443   3.542   4.654
 8953TIP3   OH226822   2.277   3.330   3.454
 8953TIP3    H126823   2.253   3.311   3.364
 8953TIP3    H226824   2.197   3.368   3.493
 8954TIP3   OH226825   2.854   5.105   1.761
 8954TIP3    H126826   2.837   5.126   1.853
 8954TIP3    H226827   2.802   5.026   1.745
 8955TIP3   OH226828   2.521   2.000   5.790
 8955TIP3    H126829   2.612   2.014   5.815
 8955TIP3    H226830   2.501   1.911   5.820
 8956TIP3   OH226831   1.810   4.493   2.783
 8956TIP3    H126832   1.815   4.398   2.790
 8956TIP3    H226833   1.756   4.509   2.706
 8957TIP3   OH226834   3.746   4.063   0.167
 8957TIP3    H126835   3.685   4.071   0.093
 8957TIP3    H226836   3.753   3.969   0.183
 8958TIP3   OH226837   6.035   4.361   2.674
 8958TIP3    H126838   5.989   4.406   2.604
 8958TIP3    H226839   6.115   4.328   2.633
 8959TIP3   OH226840   3.053   2.479   1.871
 8959TIP3    H126841   3.117   2.540   1.907
 8959TIP3    H226842   2.983   2.535   1.836
 8960TIP3   OH226843   1.620   3.739   4.658
 8960TIP3    H126844   1.651   3.774   4.741
 8960TIP3    H226845   1.697   3.699   4.619
 8961TIP3   OH226846   0.929   1.326   3.436
 8961TIP3    H126847   0.973   1.392   3.491
 8961TIP3    H226848   0.836   1.341   3.452
 8962TIP3   OH226849   3.028   2.830   5.328
 8962TIP3    H126850   3.068   2.917   5.328
 8962TIP3    H226851   2.949   2.840   5.276
 8963TIP3   OH226852   3.527   6.644   5.723
 8963TIP3    H126853   3.488   6.644   5.810
 8963TIP3    H226854   3.621   6.655   5.739
 8964TIP3   OH226855   3.370   5.469   0.263
 8964TIP3    H126856   3.343   5.467   0.172
 8964TIP3    H226857   3.394   5.560   0.279
 8965TIP3   OH226858   0.592   4.691   0.274
 8965TIP3    H126859   0.684   4.670   0.256
 8965TIP3    H226860   0.549   4.685   0.189
 8966TIP3   OH226861   2.001   6.604   4.764
 8966TIP3    H126862   1.969   6.542   4.830
 8966TIP3    H226863   2.006   6.552   4.684
 8967TIP3   OH226864   3.467   5.089   4.789
 8967TIP3    H126865   3.416   5.111   4.867
 8967TIP3    H226866   3.556   5.076   4.821
 8968TIP3   OH226867   0.406   3.290   1.838
 8968TIP3    H126868   0.342   3.220   1.853
 8968TIP3    H226869   0.360   3.370   1.863
 8969TIP3   OH226870   1.118   4.800   1.759
 8969TIP3    H126871   1.079   4.716   1.735
 8969TIP3    H226872   1.099   4.809   1.853
 8970TIP3   OH226873   2.043   0.426   3.316
 8970TIP3    H126874   2.043   0.522   3.319
 8970TIP3    H226875   2.075   0.405   3.228
 8971TIP3   OH226876   4.778   0.499   3.858
 8971TIP3    H126877   4.737   0.439   3.920
 8971TIP3    H226878   4.725   0.578   3.863
 8972TIP3   OH226879   6.522   2.501   5.115
 8972TIP3    H126880   6.515   2.413   5.151
 8972TIP3    H226881   6.576   2.549   5.178
 8973TIP3   OH226882   4.845   0.176   3.789
 8973TIP3    H126883   4.750   0.172   3.794
 8973TIP3    H226884   4.866   0.141   3.702
 8974TIP3   OH226885   2.873   5.187   5.189
 8974TIP3    H126886   2.887   5.267   5.138
 8974TIP3    H226887   2.803   5.141   5.142
 8975TIP3   OH226888   1.333   4.289   3.088
 8975TIP3    H126889   1.355   4.327   3.003
 8975TIP3    H226890   1.416   4.291   3.137
 8976TIP3   OH226891   4.116   1.657   5.926
 8976TIP3    H126892   4.110   1.572   5.882
 8976TIP3    H226893   4.199   1.654   5.973
 8977TIP3   OH226894   3.647   2.600   3.704
 8977TIP3    H126895   3.629   2.648   3.784
 8977TIP3    H226896   3.601   2.648   3.635
 8978TIP3   OH226897   0.258   2.113   4.736
 8978TIP3    H126898   0.263   2.183   4.671
 8978TIP3    H226899   0.325   2.050   4.709
 8979TIP3   OH226900   4.028   5.066   0.463
 8979TIP3    H126901   3.945   5.019   0.477
 8979TIP3    H226902   4.003   5.147   0.420
 8980TIP3   OH226903   5.422   3.877   0.059
 8980TIP3    H126904   5.452   3.799   0.012
 8980TIP3    H226905   5.363   3.921  -0.002
 8981TIP3   OH226906   4.101   5.314   1.360
 8981TIP3    H126907   4.140   5.323   1.272
 8981TIP3    H226908   4.160   5.254   1.406
 8982TIP3   OH226909   2.105   1.285   2.756
 8982TIP3    H126910   2.164   1.210   2.749
 8982TIP3    H226911   2.127   1.340   2.680
 8983TIP3   OH226912   1.858   5.141   4.175
 8983TIP3    H126913   1.790   5.171   4.235
 8983TIP3    H226914   1.858   5.046   4.186
 8984TIP3   OH226915   0.839   6.591   4.063
 8984TIP3    H126916   0.810   6.642   3.988
 8984TIP3    H226917   0.806   6.639   4.139
 8985TIP3   OH226918   0.975   6.659   1.667
 8985TIP3    H126919   1.025   6.731   1.627
 8985TIP3    H226920   0.949   6.693   1.752
 8986TIP3   OH226921   5.684   4.395   1.216
 8986TIP3    H126922   5.731   4.313   1.232
 8986TIP3    H226923   5.603   4.387   1.266
 8987TIP3   OH226924   1.789   0.649   3.860
 8987TIP3    H126925   1.727   0.612   3.797
 8987TIP3    H226926   1.871   0.657   3.811
 8988TIP3   OH226927   4.695   0.133   0.857
 8988TIP3    H126928   4.625   0.121   0.921
 8988TIP3    H226929   4.671   0.075   0.785
 8989TIP3   OH226930   2.959   6.461   5.340
 8989TIP3    H126931   2.994   6.539   5.383
 8989TIP3    H226932   3.034   6.420   5.298
 8990TIP3   OH226933   3.312   1.100   4.852
 8990TIP3    H126934   3.297   1.185   4.810
 8990TIP3    H226935   3.352   1.046   4.784
 8991TIP3   OH226936   3.832   1.344   5.531
 8991TIP3    H126937   3.751   1.307   5.495
 8991TIP3    H226938   3.827   1.437   5.511
 8992TIP3   OH226939   3.513   3.599   2.220
 8992TIP3    H126940   3.442   3.582   2.158
 8992TIP3    H226941   3.471   3.597   2.305
 8993TIP3   OH226942   4.711   1.669   3.966
 8993TIP3    H126943   4.655   1.736   4.006
 8993TIP3    H226944   4.669   1.651   3.881
 8994TIP3   OH226945   0.605   5.446   5.588
 8994TIP3    H126946   0.663   5.508   5.541
 8994TIP3    H226947   0.591   5.487   5.673
 8995TIP3   OH226948   3.778   1.912   5.183
 8995TIP3    H126949   3.744   1.822   5.174
 8995TIP3    H226950   3.731   1.947   5.259
 8996TIP3   OH226951   1.406   0.337   4.678
 8996TIP3    H126952   1.427   0.330   4.585
 8996TIP3    H226953   1.318   0.301   4.687
 8997TIP3   OH226954   5.074   5.130   0.455
 8997TIP3    H126955   5.107   5.199   0.396
 8997TIP3    H226956   5.095   5.048   0.409
 8998TIP3   OH226957   1.185   0.598   2.371
 8998TIP3    H126958   1.271   0.580   2.332
 8998TIP3    H226959   1.170   0.691   2.353
 8999TIP3   OH226960   0.872   1.866   4.510
 8999TIP3    H126961   0.920   1.946   4.528
 8999TIP3    H226962   0.927   1.797   4.548
 9000TIP3   OH226963   1.206   1.600   2.153
 9000TIP3    H126964   1.178   1.647   2.074
 9000TIP3    H226965   1.124   1.567   2.191
 9001TIP3   OH226966   0.003   3.761   2.901
 9001TIP3    H126967   0.009   3.784   2.809
 9001TIP3    H226968   0.036   3.837   2.948
 9002TIP3   OH226969   1.896   3.866   3.899
 9002TIP3    H126970   1.946   3.942   3.867
 9002TIP3    H226971   1.837   3.901   3.965
 9003TIP3   OH226972   6.603   1.253   2.097
 9003TIP3    H126973   6.586   1.195   2.023
 9003TIP3    H226974   6.549   1.218   2.168
 9004TIP3   OH226975   3.704   0.996   1.030
 9004TIP3    H126976   3.620   0.970   0.991
 9004TIP3    H226977   3.756   1.029   0.956
 9005TIP3   OH226978   1.751   2.068   4.927
 9005TIP3    H126979   1.829   2.011   4.924
 9005TIP3    H226980   1.777   2.140   4.984
 9006TIP3   OH226981   6.314   1.408   5.615
 9006TIP3    H126982   6.391   1.402   5.558
 9006TIP3    H226983   6.299   1.318   5.644
 9007TIP3   OH226984   0.242   4.624   2.386
 9007TIP3    H126985   0.169   4.579   2.429
 9007TIP3    H226986   0.266   4.566   2.313
 9008TIP3   OH226987   5.360   6.487   3.343
 9008TIP3    H126988   5.433   6.472   3.403
 9008TIP3    H226989   5.389   6.562   3.290
 9009TIP3   OH226990   2.394   2.314   1.361
 9009TIP3    H126991   2.350   2.398   1.350
 9009TIP3    H226992   2.374   2.266   1.280
 9010TIP3   OH226993   6.904   4.972   2.795
 9010TIP3    H126994   6.854   4.941   2.871
 9010TIP3    H226995   6.854   5.046   2.762
 9011TIP3   OH226996   2.538   3.667   2.920
 9011TIP3    H126997   2.467   3.623   2.968
 9011TIP3    H226998   2.501   3.752   2.897
 9012TIP3   OH226999   5.120   1.758   0.233
 9012TIP3    H127000   5.172   1.799   0.164
 9012TIP3    H227001   5.182   1.700   0.279
 9013TIP3   OH227002   5.013   5.732   1.654
 9013TIP3    H127003   4.926   5.726   1.615
 9013TIP3    H227004   5.057   5.800   1.603
 9014TIP3   OH227005   3.405   4.632   2.900
 9014TIP3    H127006   3.420   4.538   2.888
 9014TIP3    H227007   3.478   4.674   2.854
 9015TIP3   OH227008   5.957   0.919   1.213
 9015TIP3    H127009   6.008   0.910   1.132
 9015TIP3    H227010   5.990   0.999   1.254
 9016TIP3   OH227011   4.818   2.030   0.683
 9016TIP3    H127012   4.895   1.975   0.699
 9016TIP3    H227013   4.804   2.023   0.588
 9017TIP3   OH227014   6.286   0.838   4.840
 9017TIP3    H127015   6.286   0.925   4.800
 9017TIP3    H227016   6.205   0.834   4.889
 9018TIP3   OH227017   1.778   0.833   0.384
 9018TIP3    H127018   1.778   0.792   0.297
 9018TIP3    H227019   1.740   0.919   0.370
 9019TIP3   OH227020   4.884   0.705   1.239
 9019TIP3    H127021   4.857   0.745   1.321
 9019TIP3    H227022   4.912   0.617   1.264
 9020TIP3   OH227023   0.786   4.045   0.047
 9020TIP3    H127024   0.720   4.048   0.116
 9020TIP3    H227025   0.776   4.128   0.001
 9021TIP3   OH227026   4.635   2.823   2.064
 9021TIP3    H127027   4.700   2.892   2.076
 9021TIP3    H227028   4.618   2.791   2.153
 9022TIP3   OH227029   1.191   5.119   0.191
 9022TIP3    H127030   1.132   5.194   0.197
 9022TIP3    H227031   1.168   5.064   0.266
 9023TIP3   OH227032   4.035   3.014   5.786
 9023TIP3    H127033   4.069   2.978   5.704
 9023TIP3    H227034   3.949   2.974   5.796
 9024TIP3   OH227035   5.596   0.518   0.833
 9024TIP3    H127036   5.680   0.486   0.866
 9024TIP3    H227037   5.598   0.613   0.850
 9025TIP3   OH227038   1.570   4.347   5.732
 9025TIP3    H127039   1.513   4.314   5.802
 9025TIP3    H227040   1.604   4.269   5.690
 9026TIP3   OH227041   4.785   2.635   5.481
 9026TIP3    H127042   4.814   2.710   5.429
 9026TIP3    H227043   4.859   2.616   5.539
 9027TIP3   OH227044   0.316   0.561   3.997
 9027TIP3    H127045   0.343   0.485   3.946
 9027TIP3    H227046   0.326   0.533   4.088
 9028TIP3   OH227047   1.100   1.806   1.238
 9028TIP3    H127048   1.129   1.753   1.164
 9028TIP3    H227049   1.172   1.802   1.300
 9029TIP3   OH227050   7.120   0.516   5.229
 9029TIP3    H127051   7.150   0.454   5.296
 9029TIP3    H227052   7.070   0.462   5.168
 9030TIP3   OH227053   5.705   3.113   3.548
 9030TIP3    H127054   5.725   3.149   3.461
 9030TIP3    H227055   5.751   3.170   3.609
 9031TIP3   OH227056   5.814   0.445   0.978
 9031TIP3    H127057   5.852   0.531   0.994
 9031TIP3    H227058   5.879   0.400   0.924
 9032TIP3   OH227059   4.068   5.923   2.514
 9032TIP3    H127060   4.128   5.867   2.562
 9032TIP3    H227061   4.110   5.934   2.428
 9033TIP3   OH227062   1.718   5.544   3.889
 9033TIP3    H127063   1.802   5.498   3.888
 9033TIP3    H227064   1.740   5.635   3.869
 9034TIP3   OH227065   3.181   3.360   5.672
 9034TIP3    H127066   3.194   3.439   5.725
 9034TIP3    H227067   3.101   3.377   5.622
 9035TIP3   OH227068   0.795   2.983   3.478
 9035TIP3    H127069   0.834   2.910   3.429
 9035TIP3    H227070   0.856   2.999   3.550
 9036TIP3   OH227071   1.717   0.797   5.314
 9036TIP3    H127072   1.648   0.732   5.304
 9036TIP3    H227073   1.687   0.853   5.386
 9037TIP3   OH227074   3.650   0.142   1.371
 9037TIP3    H127075   3.619   0.232   1.374
 9037TIP3    H227076   3.588   0.097   1.313
 9038TIP3   OH227077   3.248   1.536   4.436
 9038TIP3    H127078   3.334   1.546   4.394
 9038TIP3    H227079   3.233   1.620   4.479
 9039TIP3   OH227080   5.836   6.525   5.088
 9039TIP3    H127081   5.856   6.478   5.007
 9039TIP3    H227082   5.741   6.525   5.093
 9040TIP3   OH227083   3.484   0.762   3.070
 9040TIP3    H127084   3.576   0.739   3.069
 9040TIP3    H227085   3.483   0.855   3.093
 9041TIP3   OH227086   0.825   1.568   2.179
 9041TIP3    H127087   0.820   1.650   2.129
 9041TIP3    H227088   0.862   1.593   2.263
 9042TIP3   OH227089   5.871   0.578   5.519
 9042TIP3    H127090   5.864   0.568   5.614
 9042TIP3    H227091   5.816   0.653   5.498
 9043TIP3   OH227092   4.800   4.768   1.388
 9043TIP3    H127093   4.758   4.798   1.469
 9043TIP3    H227094   4.730   4.767   1.323
 9044TIP3   OH227095   5.266   4.002   0.938
 9044TIP3    H127096   5.255   4.083   0.888
 9044TIP3    H227097   5.262   4.031   1.029
 9045TIP3   OH227098   5.481   2.706   5.502
 9045TIP3    H127099   5.493   2.753   5.420
 9045TIP3    H227100   5.559   2.652   5.511
 9046TIP3   OH227101   5.433   6.291   3.802
 9046TIP3    H127102   5.494   6.361   3.780
 9046TIP3    H227103   5.476   6.243   3.873
 9047TIP3   OH227104   2.593   1.253   4.967
 9047TIP3    H127105   2.539   1.330   4.985
 9047TIP3    H227106   2.681   1.287   4.957
 9048TIP3   OH227107   0.158   4.654   3.811
 9048TIP3    H127108   0.250   4.677   3.795
 9048TIP3    H227109   0.148   4.567   3.772
 9049TIP3   OH227110   6.164   6.500   0.560
 9049TIP3    H127111   6.138   6.581   0.603
 9049TIP3    H227112   6.260   6.498   0.569
 9050TIP3   OH227113   0.299   6.078   3.041
 9050TIP3    H127114   0.204   6.072   3.042
 9050TIP3    H227115   0.321   6.096   2.950
 9051TIP3   OH227116   5.345   0.969   2.473
 9051TIP3    H127117   5.349   1.060   2.503
 9051TIP3    H227118   5.371   0.918   2.549
 9052TIP3   OH227119   4.369   0.411   0.163
 9052TIP3    H127120   4.361   0.342   0.228
 9052TIP3    H227121   4.462   0.414   0.142
 9053TIP3   OH227122   4.584   5.035   2.062
 9053TIP3    H127123   4.543   4.957   2.027
 9053TIP3    H227124   4.573   5.101   1.993
 9054TIP3   OH227125   5.095   2.301   4.266
 9054TIP3    H127126   5.052   2.266   4.188
 9054TIP3    H227127   5.180   2.255   4.268
 9055TIP3   OH227128   6.430   3.645   3.812
 9055TIP3    H127129   6.351   3.616   3.767
 9055TIP3    H227130   6.438   3.586   3.887
 9056TIP3   OH227131   0.529   0.106   4.969
 9056TIP3    H127132   0.623   0.123   4.970
 9056TIP3    H227133   0.489   0.193   4.981
 9057TIP3   OH227134   1.468   0.730   4.947
 9057TIP3    H127135   1.384   0.770   4.968
 9057TIP3    H227136   1.532   0.801   4.958
 9058TIP3   OH227137   6.388   5.869   2.683
 9058TIP3    H127138   6.411   5.831   2.598
 9058TIP3    H227139   6.347   5.797   2.732
 9059TIP3   OH227140   4.319   3.935   3.585
 9059TIP3    H127141   4.412   3.949   3.571
 9059TIP3    H227142   4.312   3.908   3.677
 9060TIP3   OH227143   0.212   0.434   1.469
 9060TIP3    H127144   0.248   0.466   1.386
 9060TIP3    H227145   0.165   0.509   1.505
 9061TIP3   OH227146   4.404   6.353   4.056
 9061TIP3    H127147   4.433   6.440   4.031
 9061TIP3    H227148   4.333   6.367   4.118
 9062TIP3   OH227149   4.498   3.781   0.512
 9062TIP3    H127150   4.539   3.813   0.592
 9062TIP3    H227151   4.572   3.753   0.457
 9063TIP3   OH227152   0.053   3.907   0.782
 9063TIP3    H127153  -0.022   3.859   0.817
 9063TIP3    H227154   0.087   3.957   0.856
 9064TIP3   OH227155   5.431   4.513   0.553
 9064TIP3    H127156   5.407   4.423   0.529
 9064TIP3    H227157   5.352   4.564   0.534
 9065TIP3   OH227158   1.200   4.281   2.590
 9065TIP3    H127159   1.253   4.252   2.664
 9065TIP3    H227160   1.113   4.298   2.627
 9066TIP3   OH227161   0.852   6.398   0.687
 9066TIP3    H127162   0.888   6.316   0.653
 9066TIP3    H227163   0.875   6.398   0.780
 9067TIP3   OH227164   5.065   1.259   5.520
 9067TIP3    H127165   5.033   1.186   5.574
 9067TIP3    H227166   5.090   1.217   5.438
 9068TIP3   OH227167   0.397   5.628   0.710
 9068TIP3    H127168   0.400   5.623   0.614
 9068TIP3    H227169   0.316   5.584   0.734
 9069TIP3   OH227170   1.809   2.326   2.004
 9069TIP3    H127171   1.730   2.291   2.044
 9069TIP3    H227172   1.814   2.282   1.919
 9070TIP3   OH227173   4.180   5.370   2.929
 9070TIP3    H127174   4.209   5.316   2.856
 9070TIP3    H227175   4.217   5.328   3.006
 9071TIP3   OH227176   4.223   4.296   0.502
 9071TIP3    H127177   4.302   4.269   0.549
 9071TIP3    H227178   4.232   4.391   0.491
 9072TIP3   OH227179   6.122   6.566   5.723
 9072TIP3    H127180   6.187   6.631   5.696
 9072TIP3    H227181   6.150   6.537   5.810
 9073TIP3   OH227182   3.823   1.006   0.787
 9073TIP3    H127183   3.859   1.060   0.717
 9073TIP3    H227184   3.895   0.996   0.850
 9074TIP3   OH227185   1.344   4.521   5.235
 9074TIP3    H127186   1.290   4.516   5.314
 9074TIP3    H227187   1.294   4.476   5.168
 9075TIP3   OH227188   3.962   4.994   2.121
 9075TIP3    H127189   3.955   4.979   2.216
 9075TIP3    H227190   4.040   4.944   2.096
 9076TIP3   OH227191   0.795   4.088   3.912
 9076TIP3    H127192   0.771   4.164   3.965
 9076TIP3    H227193   0.886   4.104   3.886
 9077TIP3   OH227194   2.608   6.686   3.735
 9077TIP3    H127195   2.632   6.690   3.642
 9077TIP3    H227196   2.640   6.769   3.771
 9078TIP3   OH227197   3.895   1.327   2.662
 9078TIP3    H127198   3.988   1.352   2.665
 9078TIP3    H227199   3.863   1.345   2.751
 9079TIP3   OH227200   5.813   5.901   5.770
 9079TIP3    H127201   5.778   5.990   5.776
 9079TIP3    H227202   5.822   5.873   5.861
 9080TIP3   OH227203   4.622   0.724   3.888
 9080TIP3    H127204   4.589   0.790   3.948
 9080TIP3    H227205   4.591   0.752   3.802
 9081TIP3   OH227206   2.766   0.449   0.727
 9081TIP3    H127207   2.763   0.534   0.685
 9081TIP3    H227208   2.834   0.458   0.794
 9082TIP3   OH227209   5.413   3.231   3.102
 9082TIP3    H127210   5.466   3.158   3.134
 9082TIP3    H227211   5.369   3.264   3.180
 9083TIP3   OH227212   3.622   3.198   4.756
 9083TIP3    H127213   3.619   3.160   4.844
 9083TIP3    H227214   3.710   3.235   4.749
 9084TIP3   OH227215   2.203   0.807   0.956
 9084TIP3    H127216   2.193   0.846   1.044
 9084TIP3    H227217   2.120   0.761   0.942
 9085TIP3   OH227218   3.938   0.124   3.281
 9085TIP3    H127219   3.995   0.172   3.342
 9085TIP3    H227220   3.882   0.072   3.338
 9086TIP3   OH227221   6.352   2.616   3.926
 9086TIP3    H127222   6.377   2.582   3.840
 9086TIP3    H227223   6.431   2.658   3.960
 9087TIP3   OH227224   6.528   6.392   1.176
 9087TIP3    H127225   6.614   6.398   1.135
 9087TIP3    H227226   6.469   6.364   1.106
 9088TIP3   OH227227   1.445   1.966   3.951
 9088TIP3    H127228   1.531   1.969   3.909
 9088TIP3    H227229   1.461   1.989   4.042
 9089TIP3   OH227230   1.303   1.715   4.543
 9089TIP3    H127231   1.327   1.761   4.462
 9089TIP3    H227232   1.383   1.718   4.596
 9090TIP3   OH227233   1.290   6.748   0.928
 9090TIP3    H127234   1.354   6.716   0.991
 9090TIP3    H227235   1.342   6.787   0.858
 9091TIP3   OH227236   0.781   4.980   3.399
 9091TIP3    H127237   0.770   5.060   3.348
 9091TIP3    H227238   0.737   4.913   3.348
 9092TIP3   OH227239   4.121   6.619   0.085
 9092TIP3    H127240   4.167   6.614   0.169
 9092TIP3    H227241   4.048   6.559   0.094
 9093TIP3   OH227242   5.379   3.816   0.325
 9093TIP3    H127243   5.401   3.826   0.232
 9093TIP3    H227244   5.321   3.889   0.344
 9094TIP3   OH227245   4.890   6.125   1.071
 9094TIP3    H127246   4.839   6.183   1.128
 9094TIP3    H227247   4.979   6.161   1.074
 9095TIP3   OH227248   6.853   6.051   0.193
 9095TIP3    H127249   6.936   6.063   0.148
 9095TIP3    H227250   6.789   6.094   0.136
 9096TIP3   OH227251   1.957   6.055   4.623
 9096TIP3    H127252   2.033   6.102   4.588
 9096TIP3    H227253   1.993   6.003   4.695
 9097TIP3   OH227254   0.878   0.977   4.430
 9097TIP3    H127255   0.787   0.980   4.460
 9097TIP3    H227256   0.897   1.066   4.401
 9098TIP3   OH227257   3.093   2.216   5.541
 9098TIP3    H127258   3.111   2.199   5.448
 9098TIP3    H227259   3.003   2.186   5.554
 9099TIP3   OH227260   1.444   5.576   3.764
 9099TIP3    H127261   1.486   5.645   3.713
 9099TIP3    H227262   1.503   5.562   3.839
 9100TIP3   OH227263   5.048   5.006   3.119
 9100TIP3    H127264   5.071   5.055   3.198
 9100TIP3    H227265   5.082   5.059   3.047
 9101TIP3   OH227266   0.166   1.905   5.096
 9101TIP3    H127267   0.186   1.933   5.185
 9101TIP3    H227268   0.145   1.986   5.049
 9102TIP3   OH227269   1.494   4.273   3.943
 9102TIP3    H127270   1.506   4.222   3.863
 9102TIP3    H227271   1.436   4.344   3.918
 9103TIP3   OH227272   2.188   4.761   5.406
 9103TIP3    H127273   2.156   4.788   5.320
 9103TIP3    H227274   2.188   4.841   5.458
 9104TIP3   OH227275   6.598   6.709   0.676
 9104TIP3    H127276   6.607   6.650   0.751
 9104TIP3    H227277   6.687   6.719   0.642
 9105TIP3   OH227278   1.890   1.221   0.381
 9105TIP3    H127279   1.808   1.215   0.430
 9105TIP3    H227280   1.921   1.310   0.395
 9106TIP3   OH227281   1.495   1.135   3.599
 9106TIP3    H127282   1.472   1.192   3.672
 9106TIP3    H227283   1.448   1.054   3.616
 9107TIP3   OH227284   3.263   3.816   2.856
 9107TIP3    H127285   3.178   3.858   2.874
 9107TIP3    H227286   3.253   3.779   2.768
 9108TIP3   OH227287   7.058   2.353   3.835
 9108TIP3    H127288   7.046   2.429   3.892
 9108TIP3    H227289   7.064   2.278   3.895
 9109TIP3   OH227290   4.159   5.103   5.434
 9109TIP3    H127291   4.220   5.140   5.370
 9109TIP3    H227292   4.209   5.099   5.516
 9110TIP3   OH227293   1.609   0.356   5.113
 9110TIP3    H127294   1.591   0.262   5.106
 9110TIP3    H227295   1.645   0.380   5.027
 9111TIP3   OH227296   4.847   2.424   2.672
 9111TIP3    H127297   4.919   2.388   2.620
 9111TIP3    H227298   4.878   2.511   2.699
 9112TIP3   OH227299   0.657   4.318   5.500
 9112TIP3    H127300   0.664   4.409   5.469
 9112TIP3    H227301   0.746   4.295   5.526
 9113TIP3   OH227302   4.725   0.928   5.583
 9113TIP3    H127303   4.729   0.882   5.667
 9113TIP3    H227304   4.765   0.868   5.520
 9114TIP3   OH227305   0.464   1.233   1.833
 9114TIP3    H127306   0.528   1.163   1.843
 9114TIP3    H227307   0.500   1.291   1.766
 9115TIP3   OH227308   6.045   5.347   0.240
 9115TIP3    H127309   6.112   5.301   0.291
 9115TIP3    H227310   5.998   5.401   0.305
 9116TIP3   OH227311   1.562   4.704   4.602
 9116TIP3    H127312   1.620   4.749   4.541
 9116TIP3    H227313   1.510   4.645   4.546
 9117TIP3   OH227314   3.481   3.396   1.932
 9117TIP3    H127315   3.409   3.436   1.980
 9117TIP3    H227316   3.450   3.391   1.842
 9118TIP3   OH227317   7.112   2.315   3.308
 9118TIP3    H127318   7.150   2.313   3.396
 9118TIP3    H227319   7.037   2.373   3.316
 9119TIP3   OH227320   3.599   1.248   4.598
 9119TIP3    H127321   3.514   1.245   4.553
 9119TIP3    H227322   3.578   1.281   4.685
 9120TIP3   OH227323   3.431   4.469   4.901
 9120TIP3    H127324   3.430   4.562   4.877
 9120TIP3    H227325   3.343   4.438   4.880
 9121TIP3   OH227326   3.311   3.485   3.552
 9121TIP3    H127327   3.392   3.445   3.583
 9121TIP3    H227328   3.251   3.480   3.626
 9122TIP3   OH227329   5.814   5.143   3.015
 9122TIP3    H127330   5.723   5.166   3.034
 9122TIP3    H227331   5.832   5.186   2.932
 9123TIP3   OH227332   7.014   4.569   5.561
 9123TIP3    H127333   6.956   4.585   5.635
 9123TIP3    H227334   7.093   4.534   5.600
 9124TIP3   OH227335   3.398   6.427   2.870
 9124TIP3    H127336   3.468   6.362   2.861
 9124TIP3    H227337   3.419   6.494   2.805
 9125TIP3   OH227338   0.089   5.774   1.583
 9125TIP3    H127339   0.158   5.719   1.547
 9125TIP3    H227340   0.016   5.765   1.522
 9126TIP3   OH227341   0.158   2.791   0.988
 9126TIP3    H127342   0.077   2.740   1.000
 9126TIP3    H227343   0.128   2.873   0.950
 9127TIP3   OH227344   5.991   6.246   2.595
 9127TIP3    H127345   6.039   6.164   2.609
 9127TIP3    H227346   5.900   6.223   2.614
 9128TIP3   OH227347   2.798   1.390   1.738
 9128TIP3    H127348   2.797   1.484   1.722
 9128TIP3    H227349   2.759   1.351   1.659
 9129TIP3   OH227350   6.259   1.925   1.374
 9129TIP3    H127351   6.333   1.869   1.395
 9129TIP3    H227352   6.198   1.912   1.446
 9130TIP3   OH227353   6.554   5.733   3.865
 9130TIP3    H127354   6.645   5.722   3.837
 9130TIP3    H227355   6.540   5.662   3.929
 9131TIP3   OH227356   6.599   5.061   0.702
 9131TIP3    H127357   6.603   5.064   0.606
 9131TIP3    H227358   6.677   5.012   0.728
 9132TIP3   OH227359   0.079   6.566   2.314
 9132TIP3    H127360   0.168   6.531   2.311
 9132TIP3    H227361   0.030   6.503   2.366
 9133TIP3   OH227362   1.444   1.446   4.830
 9133TIP3    H127363   1.508   1.375   4.825
 9133TIP3    H227364   1.359   1.401   4.830
 9134TIP3   OH227365   2.588   0.093   0.196
 9134TIP3    H127366   2.549   0.018   0.240
 9134TIP3    H227367   2.521   0.161   0.200
 9135TIP3   OH227368   3.158   1.147   5.731
 9135TIP3    H127369   3.132   1.133   5.822
 9135TIP3    H227370   3.242   1.100   5.723
 9136TIP3   OH227371   5.716   0.427   3.899
 9136TIP3    H127372   5.653   0.430   3.827
 9136TIP3    H227373   5.787   0.483   3.871
 9137TIP3   OH227374   0.141   3.502   4.504
 9137TIP3    H127375   0.149   3.512   4.599
 9137TIP3    H227376   0.200   3.569   4.468
 9138TIP3   OH227377   6.675   3.314   3.370
 9138TIP3    H127378   6.749   3.261   3.397
 9138TIP3    H227379   6.605   3.250   3.354
 9139TIP3   OH227380   5.506   3.725   0.672
 9139TIP3    H127381   5.546   3.750   0.589
 9139TIP3    H227382   5.569   3.664   0.712
 9140TIP3   OH227383   0.385   5.139   4.562
 9140TIP3    H127384   0.356   5.074   4.499
 9140TIP3    H227385   0.398   5.090   4.643
 9141TIP3   OH227386   6.484   3.504   5.426
 9141TIP3    H127387   6.536   3.436   5.467
 9141TIP3    H227388   6.547   3.571   5.399
 9142TIP3   OH227389   2.895   3.192   0.303
 9142TIP3    H127390   2.850   3.127   0.357
 9142TIP3    H227391   2.854   3.275   0.327
 9143TIP3   OH227392   6.105   4.814   5.120
 9143TIP3    H127393   6.064   4.881   5.175
 9143TIP3    H227394   6.195   4.843   5.109
 9144TIP3   OH227395   5.708   3.301   3.031
 9144TIP3    H127396   5.618   3.305   3.064
 9144TIP3    H227397   5.730   3.392   3.009
 9145TIP3   OH227398   2.053   0.063   1.875
 9145TIP3    H127399   1.989  -0.004   1.898
 9145TIP3    H227400   2.135   0.015   1.863
 9146TIP3   OH227401   1.902   2.818   2.687
 9146TIP3    H127402   1.908   2.912   2.704
 9146TIP3    H227403   1.988   2.783   2.711
 9147TIP3   OH227404   0.542   3.292   1.054
 9147TIP3    H127405   0.590   3.375   1.057
 9147TIP3    H227406   0.604   3.228   1.090
 9148TIP3   OH227407   7.150   4.527   2.419
 9148TIP3    H127408   7.125   4.455   2.361
 9148TIP3    H227409   7.098   4.601   2.388
 9149TIP3   OH227410   2.090   5.462   5.477
 9149TIP3    H127411   2.138   5.509   5.409
 9149TIP3    H227412   2.151   5.459   5.551
 9150TIP3   OH227413   0.629   4.371   1.175
 9150TIP3    H127414   0.550   4.364   1.227
 9150TIP3    H227415   0.684   4.434   1.222
 9151TIP3   OH227416   3.076   0.227   5.194
 9151TIP3    H127417   3.087   0.263   5.282
 9151TIP3    H227418   3.102   0.298   5.136
 9152TIP3   OH227419   3.988   6.844   2.549
 9152TIP3    H127420   3.934   6.797   2.486
 9152TIP3    H227421   3.952   6.821   2.635
 9153TIP3   OH227422   5.076   5.779   0.655
 9153TIP3    H127423   4.983   5.791   0.639
 9153TIP3    H227424   5.104   5.862   0.695
 9154TIP3   OH227425   0.893   6.052   5.659
 9154TIP3    H127426   0.822   6.066   5.596
 9154TIP3    H227427   0.947   5.983   5.620
 9155TIP3   OH227428   4.191   3.579   3.480
 9155TIP3    H127429   4.126   3.551   3.416
 9155TIP3    H227430   4.211   3.501   3.532
 9156TIP3   OH227431   5.849   2.600   1.104
 9156TIP3    H127432   5.813   2.681   1.140
 9156TIP3    H227433   5.841   2.610   1.010
 9157TIP3   OH227434   4.277   3.008   2.208
 9157TIP3    H127435   4.325   2.933   2.243
 9157TIP3    H227436   4.324   3.031   2.127
 9158TIP3   OH227437   6.601   6.611   2.501
 9158TIP3    H127438   6.695   6.608   2.515
 9158TIP3    H227439   6.570   6.525   2.530
 9159TIP3   OH227440   3.080   5.136   5.892
 9159TIP3    H127441   3.097   5.136   5.798
 9159TIP3    H227442   3.159   5.098   5.930
 9160TIP3   OH227443   6.772   1.998   2.537
 9160TIP3    H127444   6.796   1.916   2.580
 9160TIP3    H227445   6.851   2.051   2.540
 9161TIP3   OH227446   6.509   5.390   2.593
 9161TIP3    H127447   6.468   5.390   2.680
 9161TIP3    H227448   6.454   5.448   2.541
 9162TIP3   OH227449   0.411   0.976   3.556
 9162TIP3    H127450   0.481   1.018   3.605
 9162TIP3    H227451   0.359   0.929   3.622
 9163TIP3   OH227452   6.558   6.578   3.059
 9163TIP3    H127453   6.485   6.569   2.997
 9163TIP3    H227454   6.555   6.497   3.111
 9164TIP3   OH227455   1.082   2.576   3.351
 9164TIP3    H127456   1.113   2.556   3.440
 9164TIP3    H227457   1.104   2.499   3.300
 9165TIP3   OH227458   5.207   0.435   0.563
 9165TIP3    H127459   5.236   0.351   0.529
 9165TIP3    H227460   5.277   0.463   0.622
 9166TIP3   OH227461   0.804   6.649   3.436
 9166TIP3    H127462   0.816   6.688   3.349
 9166TIP3    H227463   0.796   6.724   3.495
 9167TIP3   OH227464   0.295   1.230   3.465
 9167TIP3    H127465   0.345   1.300   3.508
 9167TIP3    H227466   0.328   1.149   3.504
 9168TIP3   OH227467   4.320   4.633   4.501
 9168TIP3    H127468   4.248   4.695   4.488
 9168TIP3    H227469   4.286   4.550   4.468
 9169TIP3   OH227470   1.333   4.931   4.378
 9169TIP3    H127471   1.300   4.937   4.468
 9169TIP3    H227472   1.347   4.838   4.364
 9170TIP3   OH227473   0.526   1.859   0.318
 9170TIP3    H127474   0.508   1.880   0.409
 9170TIP3    H227475   0.496   1.768   0.308
 9171TIP3   OH227476   5.257   3.798   1.297
 9171TIP3    H127477   5.318   3.802   1.370
 9171TIP3    H227478   5.262   3.885   1.257
 9172TIP3   OH227479   0.962   1.747   3.779
 9172TIP3    H127480   0.877   1.790   3.782
 9172TIP3    H227481   1.023   1.811   3.817
 9173TIP3   OH227482   0.415   1.310   4.252
 9173TIP3    H127483   0.457   1.275   4.173
 9173TIP3    H227484   0.396   1.232   4.304
 9174TIP3   OH227485   0.470   5.372   3.781
 9174TIP3    H127486   0.519   5.436   3.833
 9174TIP3    H227487   0.495   5.287   3.817
 9175TIP3   OH227488   6.686   3.830   2.323
 9175TIP3    H127489   6.771   3.786   2.329
 9175TIP3    H227490   6.682   3.885   2.401
 9176TIP3   OH227491   2.078   0.703   1.371
 9176TIP3    H127492   2.075   0.767   1.300
 9176TIP3    H227493   2.053   0.753   1.449
 9177TIP3   OH227494   6.134   0.657   2.831
 9177TIP3    H127495   6.174   0.571   2.820
 9177TIP3    H227496   6.136   0.696   2.744
 9178TIP3   OH227497   5.302   3.120   2.259
 9178TIP3    H127498   5.208   3.133   2.263
 9178TIP3    H227499   5.323   3.123   2.166
 9179TIP3   OH227500   3.676   0.360   4.062
 9179TIP3    H127501   3.653   0.324   3.976
 9179TIP3    H227502   3.594   0.361   4.111
 9180TIP3   OH227503   3.896   4.819   5.812
 9180TIP3    H127504   3.950   4.864   5.747
 9180TIP3    H227505   3.833   4.770   5.760
 9181TIP3   OH227506   6.282   5.638   2.786
 9181TIP3    H127507   6.326   5.557   2.811
 9181TIP3    H227508   6.230   5.661   2.863
 9182TIP3   OH227509   3.324   0.660   5.174
 9182TIP3    H127510   3.402   0.702   5.137
 9182TIP3    H227511   3.322   0.574   5.133
 9183TIP3   OH227512   0.909   4.570   4.089
 9183TIP3    H127513   0.852   4.623   4.144
 9183TIP3    H227514   0.997   4.607   4.102
 9184TIP3   OH227515   3.438   6.679   2.739
 9184TIP3    H127516   3.520   6.680   2.690
 9184TIP3    H227517   3.394   6.760   2.714
 9185TIP3   OH227518   6.371   3.971   3.637
 9185TIP3    H127519   6.335   3.935   3.718
 9185TIP3    H227520   6.382   3.896   3.580
 9186TIP3   OH227521   5.262   6.721   3.498
 9186TIP3    H127522   5.299   6.658   3.436
 9186TIP3    H227523   5.173   6.736   3.468
 9187TIP3   OH227524   5.091   1.769   1.324
 9187TIP3    H127525   5.083   1.725   1.408
 9187TIP3    H227526   5.185   1.788   1.315
 9188TIP3   OH227527   4.460   3.295   5.400
 9188TIP3    H127528   4.554   3.279   5.386
 9188TIP3    H227529   4.457   3.349   5.479
 9189TIP3   OH227530   0.465   2.452   0.862
 9189TIP3    H127531   0.411   2.391   0.813
 9189TIP3    H227532   0.452   2.429   0.954
 9190TIP3   OH227533   6.127   5.323   3.970
 9190TIP3    H127534   6.093   5.269   3.899
 9190TIP3    H227535   6.222   5.320   3.959
 9191TIP3   OH227536   6.109   1.528   4.062
 9191TIP3    H127537   6.110   1.440   4.024
 9191TIP3    H227538   6.079   1.584   3.990
 9192TIP3   OH227539   1.171   4.790   5.746
 9192TIP3    H127540   1.212   4.875   5.730
 9192TIP3    H227541   1.079   4.803   5.724
 9193TIP3   OH227542   2.086   4.994   1.071
 9193TIP3    H127543   2.016   4.956   1.124
 9193TIP3    H227544   2.164   4.945   1.098
 9194TIP3   OH227545   0.469   4.525   3.287
 9194TIP3    H127546   0.432   4.529   3.199
 9194TIP3    H227547   0.410   4.577   3.341
 9195TIP3   OH227548   1.446   0.366   5.333
 9195TIP3    H127549   1.503   0.358   5.257
 9195TIP3    H227550   1.464   0.287   5.384
 9196TIP3   OH227551   0.802   6.021   3.444
 9196TIP3    H127552   0.755   5.948   3.401
 9196TIP3    H227553   0.746   6.044   3.518
 9197TIP3   OH227554   6.001   5.033   1.907
 9197TIP3    H127555   5.962   4.999   1.826
 9197TIP3    H227556   6.021   4.955   1.958
 9198TIP3   OH227557   6.771   1.597  -0.002
 9198TIP3    H127558   6.696   1.656  -0.006
 9198TIP3    H227559   6.751   1.536   0.070
 9199TIP3   OH227560   7.151   1.963   2.723
 9199TIP3    H127561   7.111   1.890   2.771
 9199TIP3    H227562   7.085   2.032   2.727
 9200TIP3   OH227563   0.057   1.754   0.202
 9200TIP3    H127564   0.056   1.668   0.244
 9200TIP3    H227565   0.002   1.743   0.124
 9201TIP3   OH227566   5.403   4.276   1.663
 9201TIP3    H127567   5.414   4.189   1.625
 9201TIP3    H227568   5.373   4.259   1.753
 9202TIP3   OH227569   6.468   1.793   1.472
 9202TIP3    H127570   6.452   1.712   1.521
 9202TIP3    H227571   6.538   1.837   1.520
 9203TIP3   OH227572   0.022   4.921   0.359
 9203TIP3    H127573   0.068   4.863   0.299
 9203TIP3    H227574   0.024   4.875   0.443
 9204TIP3   OH227575   0.682   4.475   2.581
 9204TIP3    H127576   0.614   4.486   2.513
 9204TIP3    H227577   0.723   4.561   2.587
 9205TIP3   OH227578   0.034   6.099   3.064
 9205TIP3    H127579   0.053   6.124   3.154
 9205TIP3    H227580   0.034   6.182   3.015
 9206TIP3   OH227581   6.929   5.924   1.027
 9206TIP3    H127582   6.990   5.858   1.059
 9206TIP3    H227583   6.985   5.992   0.990
 9207TIP3   OH227584   2.120   1.553   3.444
 9207TIP3    H127585   2.039   1.504   3.445
 9207TIP3    H227586   2.158   1.535   3.358
 9208TIP3   OH227587   1.153   3.024   1.354
 9208TIP3    H127588   1.192   3.019   1.441
 9208TIP3    H227589   1.223   2.993   1.295
 9209TIP3   OH227590   0.183   2.801   3.396
 9209TIP3    H127591   0.257   2.757   3.436
 9209TIP3    H227592   0.151   2.739   3.330
 9210TIP3   OH227593   5.388   3.352   2.854
 9210TIP3    H127594   5.393   3.273   2.800
 9210TIP3    H227595   5.417   3.323   2.941
 9211TIP3   OH227596   1.912   1.059   0.138
 9211TIP3    H127597   1.965   1.139   0.140
 9211TIP3    H227598   1.853   1.068   0.213
 9212TIP3   OH227599   6.810   3.935   5.746
 9212TIP3    H127600   6.770   3.943   5.660
 9212TIP3    H227601   6.791   4.018   5.790
 9213TIP3   OH227602   4.544   0.727   2.995
 9213TIP3    H127603   4.476   0.679   2.948
 9213TIP3    H227604   4.594   0.770   2.926
 9214TIP3   OH227605   1.325   1.169   1.683
 9214TIP3    H127606   1.248   1.168   1.627
 9214TIP3    H227607   1.384   1.104   1.644
 9215TIP3   OH227608   6.978   2.191   2.736
 9215TIP3    H127609   6.961   2.242   2.815
 9215TIP3    H227610   6.924   2.232   2.669
 9216TIP3   OH227611   0.838   5.634   3.492
 9216TIP3    H127612   0.900   5.606   3.425
 9216TIP3    H227613   0.798   5.714   3.456
 9217TIP3   OH227614   6.136   2.601   1.143
 9217TIP3    H127615   6.135   2.692   1.114
 9217TIP3    H227616   6.045   2.572   1.131
 9218TIP3   OH227617   4.255   4.678   4.992
 9218TIP3    H127618   4.280   4.699   5.083
 9218TIP3    H227619   4.338   4.659   4.949
 9219TIP3   OH227620   2.396   0.601   0.689
 9219TIP3    H127621   2.307   0.586   0.721
 9219TIP3    H227622   2.443   0.521   0.712
 9220TIP3   OH227623   1.377   3.272   3.787
 9220TIP3    H127624   1.331   3.188   3.780
 9220TIP3    H227625   1.387   3.286   3.882
 9221TIP3   OH227626   2.275   5.009   5.937
 9221TIP3    H127627   2.181   5.030   5.932
 9221TIP3    H227628   2.290   4.949   5.864
 9222TIP3   OH227629   5.640   2.071   2.077
 9222TIP3    H127630   5.735   2.069   2.081
 9222TIP3    H227631   5.615   1.984   2.044
 9223TIP3   OH227632   5.076   0.527   2.371
 9223TIP3    H127633   5.042   0.473   2.299
 9223TIP3    H227634   5.130   0.594   2.328
 9224TIP3   OH227635   6.189   1.334   1.738
 9224TIP3    H127636   6.191   1.271   1.666
 9224TIP3    H227637   6.246   1.296   1.805
 9225TIP3   OH227638   1.656   2.124   0.739
 9225TIP3    H127639   1.584   2.183   0.719
 9225TIP3    H227640   1.690   2.098   0.653
 9226TIP3   OH227641   5.350   2.588   2.077
 9226TIP3    H127642   5.417   2.560   2.140
 9226TIP3    H227643   5.301   2.655   2.124
 9227TIP3   OH227644   3.992   4.326   3.012
 9227TIP3    H127645   4.015   4.236   3.034
 9227TIP3    H227646   4.007   4.332   2.917
 9228TIP3   OH227647   2.396   5.769   1.820
 9228TIP3    H127648   2.345   5.847   1.797
 9228TIP3    H227649   2.468   5.768   1.758
 9229TIP3   OH227650   3.790   6.126   5.122
 9229TIP3    H127651   3.886   6.124   5.127
 9229TIP3    H227652   3.761   6.074   5.197
 9230TIP3   OH227653   5.773   6.571   3.940
 9230TIP3    H127654   5.755   6.595   4.031
 9230TIP3    H227655   5.859   6.609   3.921
 9231TIP3   OH227656   6.226   3.262   1.427
 9231TIP3    H127657   6.134   3.276   1.407
 9231TIP3    H227658   6.225   3.203   1.503
 9232TIP3   OH227659   2.536   6.746   2.447
 9232TIP3    H127660   2.578   6.769   2.365
 9232TIP3    H227661   2.542   6.826   2.500
 9233TIP3   OH227662   3.639   0.846   3.641
 9233TIP3    H127663   3.686   0.893   3.709
 9233TIP3    H227664   3.576   0.792   3.689
 9234TIP3   OH227665   3.775   4.234   5.500
 9234TIP3    H127666   3.797   4.209   5.410
 9234TIP3    H227667   3.824   4.172   5.554
 9235TIP3   OH227668   4.842   2.004   1.055
 9235TIP3    H127669   4.797   2.077   1.011
 9235TIP3    H227670   4.933   2.011   1.027
 9236TIP3   OH227671   1.047   5.965   4.885
 9236TIP3    H127672   0.971   5.923   4.846
 9236TIP3    H227673   1.023   6.058   4.890
 9237TIP3   OH227674   0.540   1.618   4.168
 9237TIP3    H127675   0.598   1.542   4.161
 9237TIP3    H227676   0.588   1.680   4.222
 9238TIP3   OH227677   7.149   0.652   0.166
 9238TIP3    H127678   7.123   0.681   0.254
 9238TIP3    H227679   7.114   0.563   0.158
 9239TIP3   OH227680   2.277   3.740   1.554
 9239TIP3    H127681   2.228   3.659   1.543
 9239TIP3    H227682   2.210   3.809   1.549
 9240TIP3   OH227683   6.759   5.264   2.460
 9240TIP3    H127684   6.698   5.337   2.465
 9240TIP3    H227685   6.758   5.238   2.368
 9241TIP3   OH227686   1.738   2.311   3.749
 9241TIP3    H127687   1.686   2.342   3.823
 9241TIP3    H227688   1.676   2.311   3.675
 9242TIP3   OH227689   3.407   4.666   4.249
 9242TIP3    H127690   3.359   4.661   4.166
 9242TIP3    H227691   3.372   4.744   4.292
 9243TIP3   OH227692   3.936   3.950   3.857
 9243TIP3    H127693   4.024   3.986   3.851
 9243TIP3    H227694   3.943   3.864   3.815
 9244TIP3   OH227695   1.900   3.380   4.662
 9244TIP3    H127696   1.983   3.387   4.709
 9244TIP3    H227697   1.837   3.426   4.719
 9245TIP3   OH227698   5.421   2.123   4.603
 9245TIP3    H127699   5.390   2.192   4.544
 9245TIP3    H227700   5.383   2.043   4.568
 9246TIP3   OH227701   6.243   6.123   2.558
 9246TIP3    H127702   6.286   6.164   2.633
 9246TIP3    H227703   6.296   6.046   2.540
 9247TIP3   OH227704   4.971   1.325   2.906
 9247TIP3    H127705   4.946   1.398   2.850
 9247TIP3    H227706   5.017   1.365   2.979
 9248TIP3   OH227707   5.042   2.671   4.160
 9248TIP3    H127708   5.129   2.659   4.121
 9248TIP3    H227709   4.992   2.595   4.130
 9249TIP3   OH227710   2.733   2.368   3.910
 9249TIP3    H127711   2.731   2.311   3.986
 9249TIP3    H227712   2.786   2.443   3.938
 9250TIP3   OH227713   3.632   3.886   3.504
 9250TIP3    H127714   3.555   3.829   3.499
 9250TIP3    H227715   3.632   3.918   3.594
 9251TIP3   OH227716   6.298   6.135   3.697
 9251TIP3    H127717   6.365   6.202   3.683
 9251TIP3    H227718   6.286   6.095   3.611
 9252TIP3   OH227719   2.007   3.620   2.610
 9252TIP3    H127720   1.980   3.648   2.697
 9252TIP3    H227721   2.099   3.643   2.604
 9253TIP3   OH227722   1.234   2.740   2.634
 9253TIP3    H127723   1.201   2.800   2.702
 9253TIP3    H227724   1.212   2.782   2.551
 9254TIP3   OH227725   3.842   2.999   0.047
 9254TIP3    H127726   3.764   2.990   0.102
 9254TIP3    H227727   3.910   3.029   0.107
 9255TIP3   OH227728   0.023   1.861   4.733
 9255TIP3    H127729   0.006   1.925   4.802
 9255TIP3    H227730   0.005   1.907   4.652
 9256TIP3   OH227731  -0.077   6.743   0.386
 9256TIP3    H127732  -0.005   6.682   0.377
 9256TIP3    H227733  -0.046   6.809   0.449
 9257TIP3   OH227734   1.353   2.807   2.202
 9257TIP3    H127735   1.332   2.836   2.114
 9257TIP3    H227736   1.405   2.727   2.189
 9258TIP3   OH227737   3.766   5.845   0.289
 9258TIP3    H127738   3.775   5.757   0.327
 9258TIP3    H227739   3.671   5.858   0.282
 9259TIP3   OH227740   3.894   0.729   1.577
 9259TIP3    H127741   3.937   0.748   1.493
 9259TIP3    H227742   3.965   0.698   1.634
 9260TIP3   OH227743   5.837   2.595   2.118
 9260TIP3    H127744   5.800   2.684   2.119
 9260TIP3    H227745   5.894   2.593   2.195
 9261TIP3   OH227746   4.243   2.113   0.030
 9261TIP3    H127747   4.328   2.152   0.050
 9261TIP3    H227748   4.180   2.168   0.078
 9262TIP3   OH227749   2.900   5.922   3.005
 9262TIP3    H127750   2.856   5.916   2.921
 9262TIP3    H227751   2.836   5.963   3.063
 9263TIP3   OH227752   2.413   6.654   0.163
 9263TIP3    H127753   2.343   6.590   0.151
 9263TIP3    H227754   2.425   6.693   0.077
 9264TIP3   OH227755   5.980   2.604   2.347
 9264TIP3    H127756   6.001   2.552   2.425
 9264TIP3    H227757   5.946   2.686   2.381
 9265TIP3   OH227758   3.911   0.498   1.368
 9265TIP3    H127759   3.959   0.435   1.314
 9265TIP3    H227760   3.966   0.576   1.370
 9266TIP3   OH227761   2.073   5.657   3.814
 9266TIP3    H127762   2.106   5.741   3.847
 9266TIP3    H227763   2.133   5.633   3.745
 9267TIP3   OH227764   1.270   0.754   2.918
 9267TIP3    H127765   1.360   0.781   2.939
 9267TIP3    H227766   1.270   0.659   2.927
 9268TIP3   OH227767   0.058   4.786   3.022
 9268TIP3    H127768   0.153   4.787   3.038
 9268TIP3    H227769   0.019   4.789   3.109
 9269TIP3   OH227770   0.235   0.517   2.825
 9269TIP3    H127771   0.294   0.495   2.898
 9269TIP3    H227772   0.152   0.541   2.868
 9270TIP3   OH227773   1.390   5.393   3.529
 9270TIP3    H127774   1.463   5.419   3.473
 9270TIP3    H227775   1.419   5.415   3.617
 9271TIP3   OH227776   4.265   1.110   2.688
 9271TIP3    H127777   4.213   1.162   2.750
 9271TIP3    H227778   4.203   1.088   2.618
 9272TIP3   OH227779   5.149   0.057   3.150
 9272TIP3    H127780   5.111   0.135   3.190
 9272TIP3    H227781   5.204   0.090   3.079
 9273TIP3   OH227782   3.113   0.947   0.189
 9273TIP3    H127783   3.053   0.873   0.184
 9273TIP3    H227784   3.064   1.015   0.235
 9274TIP3   OH227785   3.277   2.128   1.399
 9274TIP3    H127786   3.312   2.210   1.433
 9274TIP3    H227787   3.312   2.122   1.310
 9275TIP3   OH227788   0.895   0.713   0.679
 9275TIP3    H127789   0.939   0.728   0.595
 9275TIP3    H227790   0.853   0.796   0.700
 9276TIP3   OH227791   5.037   1.371   0.354
 9276TIP3    H127792   4.967   1.308   0.375
 9276TIP3    H227793   5.059   1.411   0.438
 9277TIP3   OH227794   2.300   1.071   2.761
 9277TIP3    H127795   2.394   1.056   2.749
 9277TIP3    H227796   2.273   0.999   2.818
 9278TIP3   OH227797   6.984   4.315   3.367
 9278TIP3    H127798   6.907   4.370   3.382
 9278TIP3    H227799   6.949   4.236   3.326
 9279TIP3   OH227800   4.637   3.601   5.371
 9279TIP3    H127801   4.731   3.591   5.384
 9279TIP3    H227802   4.598   3.568   5.452
 9280TIP3   OH227803   6.317   0.990   0.672
 9280TIP3    H127804   6.336   0.945   0.754
 9280TIP3    H227805   6.395   0.976   0.618
 9281TIP3   OH227806   4.297   3.458   2.226
 9281TIP3    H127807   4.259   3.539   2.260
 9281TIP3    H227808   4.222   3.405   2.200
 9282TIP3   OH227809   0.918   0.543   2.865
 9282TIP3    H127810   0.994   0.577   2.817
 9282TIP3    H227811   0.887   0.470   2.811
 9283TIP3   OH227812   4.664   6.597   2.284
 9283TIP3    H127813   4.618   6.520   2.251
 9283TIP3    H227814   4.593   6.659   2.306
 9284TIP3   OH227815   3.427   1.330   5.507
 9284TIP3    H127816   3.394   1.279   5.433
 9284TIP3    H227817   3.414   1.274   5.583
 9285TIP3   OH227818   2.582   3.952   0.127
 9285TIP3    H127819   2.565   4.014   0.057
 9285TIP3    H227820   2.543   3.870   0.097
 9286TIP3   OH227821   0.170   0.325   0.235
 9286TIP3    H127822   0.249   0.348   0.186
 9286TIP3    H227823   0.200   0.316   0.325
 9287TIP3   OH227824   0.427   3.261   0.137
 9287TIP3    H127825   0.491   3.217   0.194
 9287TIP3    H227826   0.352   3.201   0.134
 9288TIP3   OH227827   4.565   0.623   0.944
 9288TIP3    H127828   4.523   0.547   0.905
 9288TIP3    H227829   4.526   0.698   0.900
 9289TIP3   OH227830   6.828   1.738   5.315
 9289TIP3    H127831   6.774   1.659   5.305
 9289TIP3    H227832   6.796   1.778   5.396
 9290TIP3   OH227833   1.219   4.513   2.210
 9290TIP3    H127834   1.191   4.546   2.295
 9290TIP3    H227835   1.164   4.559   2.147
 9291TIP3   OH227836   4.155   2.289   5.848
 9291TIP3    H127837   4.082   2.350   5.850
 9291TIP3    H227838   4.120   2.211   5.804
 9292TIP3   OH227839   3.976   4.303   5.692
 9292TIP3    H127840   3.991   4.254   5.773
 9292TIP3    H227841   3.883   4.291   5.674
 9293TIP3   OH227842   3.794   0.754   4.530
 9293TIP3    H127843   3.833   0.758   4.617
 9293TIP3    H227844   3.762   0.842   4.513
 9294TIP3   OH227845   2.863   3.779   0.461
 9294TIP3    H127846   2.807   3.840   0.510
 9294TIP3    H227847   2.876   3.822   0.377
 9295TIP3   OH227848   3.461   6.317   5.865
 9295TIP3    H127849   3.448   6.232   5.823
 9295TIP3    H227850   3.374   6.354   5.872
 9296TIP3   OH227851   5.992   6.734   2.326
 9296TIP3    H127852   6.014   6.798   2.394
 9296TIP3    H227853   6.029   6.652   2.358
 9297TIP3   OH227854   0.700   6.497   4.489
 9297TIP3    H127855   0.651   6.557   4.433
 9297TIP3    H227856   0.651   6.415   4.484
 9298TIP3   OH227857   6.147   3.544   5.176
 9298TIP3    H127858   6.207   3.586   5.238
 9298TIP3    H227859   6.083   3.499   5.231
 9299TIP3   OH227860   6.756   3.136   4.992
 9299TIP3    H127861   6.677   3.167   4.948
 9299TIP3    H227862   6.828   3.176   4.944
 9300TIP3   OH227863   1.226   3.724   3.361
 9300TIP3    H127864   1.251   3.632   3.351
 9300TIP3    H227865   1.261   3.749   3.446
 9301TIP3   OH227866   2.223   3.599   1.922
 9301TIP3    H127867   2.255   3.555   2.001
 9301TIP3    H227868   2.129   3.610   1.937
 9302TIP3   OH227869   1.388   1.429   1.628
 9302TIP3    H127870   1.331   1.419   1.552
 9302TIP3    H227871   1.380   1.345   1.675
 9303TIP3   OH227872   1.675   1.445   4.092
 9303TIP3    H127873   1.656   1.522   4.040
 9303TIP3    H227874   1.633   1.372   4.046
 9304TIP3   OH227875   1.806   0.865   1.872
 9304TIP3    H127876   1.710   0.865   1.868
 9304TIP3    H227877   1.830   0.772   1.866
 9305TIP3   OH227878   6.168   4.346   0.502
 9305TIP3    H127879   6.245   4.293   0.480
 9305TIP3    H227880   6.115   4.345   0.422
 9306TIP3   OH227881   5.039   4.256   5.063
 9306TIP3    H127882   5.111   4.264   5.000
 9306TIP3    H227883   4.963   4.293   5.017
 9307TIP3   OH227884   5.194   5.109   1.060
 9307TIP3    H127885   5.256   5.095   0.988
 9307TIP3    H227886   5.248   5.110   1.139
 9308TIP3   OH227887   4.469   4.387   2.325
 9308TIP3    H127888   4.507   4.473   2.345
 9308TIP3    H227889   4.494   4.371   2.234
 9309TIP3   OH227890   4.387   4.266   1.337
 9309TIP3    H127891   4.307   4.220   1.312
 9309TIP3    H227892   4.409   4.230   1.423
 9310TIP3   OH227893   6.382   0.676   2.471
 9310TIP3    H127894   6.365   0.589   2.507
 9310TIP3    H227895   6.366   0.666   2.377
 9311TIP3   OH227896   6.702   3.838   4.044
 9311TIP3    H127897   6.717   3.784   4.122
 9311TIP3    H227898   6.783   3.829   3.993
 9312TIP3   OH227899   2.633   3.899   5.208
 9312TIP3    H127900   2.613   3.986   5.175
 9312TIP3    H227901   2.719   3.878   5.169
 9313TIP3   OH227902   2.903   6.009   0.838
 9313TIP3    H127903   2.935   5.969   0.919
 9313TIP3    H227904   2.852   5.941   0.795
 9314TIP3   OH227905   3.896   2.598   2.222
 9314TIP3    H127906   3.931   2.554   2.299
 9314TIP3    H227907   3.801   2.597   2.234
 9315TIP3   OH227908   3.954   2.481   5.829
 9315TIP3    H127909   3.904   2.548   5.876
 9315TIP3    H227910   3.894   2.448   5.762
 9316TIP3   OH227911   1.057   3.974   0.038
 9316TIP3    H127912   1.093   3.902   0.089
 9316TIP3    H227913   0.964   3.974   0.058
 9317TIP3   OH227914   0.248   1.833   5.808
 9317TIP3    H127915   0.162   1.869   5.791
 9317TIP3    H227916   0.304   1.909   5.826
 9318TIP3   OH227917   0.849   2.466   3.514
 9318TIP3    H127918   0.860   2.407   3.589
 9318TIP3    H227919   0.889   2.421   3.441
 9319TIP3   OH227920   5.579   1.309   5.544
 9319TIP3    H127921   5.529   1.288   5.622
 9319TIP3    H227922   5.549   1.395   5.518
 9320TIP3   OH227923   6.132   6.217   0.632
 9320TIP3    H127924   6.158   6.308   0.615
 9320TIP3    H227925   6.152   6.171   0.551
 9321TIP3   OH227926   3.448   0.128   4.547
 9321TIP3    H127927   3.422   0.133   4.455
 9321TIP3    H227928   3.411   0.045   4.578
 9322TIP3   OH227929   4.725   1.460   2.002
 9322TIP3    H127930   4.781   1.452   1.925
 9322TIP3    H227931   4.770   1.524   2.058
 9323TIP3   OH227932   2.390   3.643   4.167
 9323TIP3    H127933   2.450   3.717   4.177
 9323TIP3    H227934   2.432   3.587   4.102
 9324TIP3   OH227935   0.523   2.915   4.641
 9324TIP3    H127936   0.452   2.976   4.663
 9324TIP3    H227937   0.564   2.953   4.563
 9325TIP3   OH227938   0.577   0.486   1.300
 9325TIP3    H127939   0.621   0.530   1.228
 9325TIP3    H227940   0.585   0.545   1.374
 9326TIP3   OH227941   6.663   0.856   1.569
 9326TIP3    H127942   6.632   0.911   1.641
 9326TIP3    H227943   6.582   0.822   1.529
 9327TIP3   OH227944   1.153   3.587   0.461
 9327TIP3    H127945   1.091   3.582   0.388
 9327TIP3    H227946   1.127   3.666   0.509
 9328TIP3   OH227947   0.826   4.031   2.880
 9328TIP3    H127948   0.804   3.956   2.935
 9328TIP3    H227949   0.910   4.062   2.913
 9329TIP3   OH227950   4.142   0.501   5.218
 9329TIP3    H127951   4.076   0.500   5.149
 9329TIP3    H227952   4.158   0.594   5.235
 9330TIP3   OH227953   3.037   5.908   4.947
 9330TIP3    H127954   3.004   5.984   4.994
 9330TIP3    H227955   3.114   5.940   4.900
 9331TIP3   OH227956   4.068   6.238   2.500
 9331TIP3    H127957   4.122   6.162   2.522
 9331TIP3    H227958   4.130   6.302   2.465
 9332TIP3   OH227959   5.188   1.344   3.336
 9332TIP3    H127960   5.248   1.418   3.348
 9332TIP3    H227961   5.156   1.354   3.247
 9333TIP3   OH227962   2.751   6.595   2.202
 9333TIP3    H127963   2.756   6.576   2.295
 9333TIP3    H227964   2.728   6.511   2.162
 9334TIP3   OH227965   1.277   4.998   5.109
 9334TIP3    H127966   1.278   5.036   5.021
 9334TIP3    H227967   1.185   4.998   5.134
 9335TIP3   OH227968   0.195   4.968   1.272
 9335TIP3    H127969   0.147   4.886   1.257
 9335TIP3    H227970   0.250   4.950   1.348
 9336TIP3   OH227971   4.780   0.217   4.812
 9336TIP3    H127972   4.875   0.214   4.815
 9336TIP3    H227973   4.759   0.260   4.729
 9337TIP3   OH227974   1.860   0.754   4.936
 9337TIP3    H127975   1.785   0.813   4.944
 9337TIP3    H227976   1.821   0.668   4.916
 9338TIP3   OH227977  -0.004   0.793   2.250
 9338TIP3    H127978  -0.018   0.868   2.191
 9338TIP3    H227979  -0.085   0.788   2.301
 9339TIP3   OH227980   0.675   3.626   1.437
 9339TIP3    H127981   0.631   3.550   1.476
 9339TIP3    H227982   0.610   3.696   1.443
 9340TIP3   OH227983   2.764   1.125   1.818
 9340TIP3    H127984   2.747   1.099   1.728
 9340TIP3    H227985   2.779   1.219   1.814
 9341TIP3   OH227986   2.700   3.532   1.683
 9341TIP3    H127987   2.618   3.573   1.710
 9341TIP3    H227988   2.764   3.602   1.684
 9342TIP3   OH227989   4.087   1.263   5.551
 9342TIP3    H127990   4.139   1.325   5.500
 9342TIP3    H227991   3.998   1.274   5.518
 9343TIP3   OH227992   1.749   3.294   2.235
 9343TIP3    H127993   1.751   3.199   2.240
 9343TIP3    H227994   1.751   3.323   2.326
 9344TIP3   OH227995   2.154   1.797   1.737
 9344TIP3    H127996   2.060   1.813   1.734
 9344TIP3    H227997   2.175   1.794   1.831
 9345TIP3   OH227998   0.150   4.426   3.659
 9345TIP3    H127999   0.098   4.355   3.697
 9345TIP3    H228000   0.112   4.440   3.572
 9346TIP3   OH228001   3.603   1.201   2.649
 9346TIP3    H128002   3.508   1.203   2.633
 9346TIP3    H228003   3.611   1.174   2.740
 9347TIP3   OH228004   0.163   4.419   1.248
 9347TIP3    H128005   0.168   4.511   1.223
 9347TIP3    H228006   0.072   4.394   1.232
 9348TIP3   OH228007   0.271   1.697   4.158
 9348TIP3    H128008   0.359   1.660   4.152
 9348TIP3    H228009   0.275   1.778   4.106
 9349TIP3   OH228010   6.883   1.946   0.992
 9349TIP3    H128011   6.918   2.034   1.011
 9349TIP3    H228012   6.936   1.915   0.919
 9350TIP3   OH228013   2.419   0.468   1.877
 9350TIP3    H128014   2.385   0.557   1.866
 9350TIP3    H228015   2.431   0.458   1.972
 9351TIP3   OH228016   6.435   0.039   5.064
 9351TIP3    H128017   6.384   0.113   5.098
 9351TIP3    H228018   6.389  -0.038   5.097
 9352TIP3   OH228019   4.888   1.604   0.567
 9352TIP3    H128020   4.951   1.675   0.557
 9352TIP3    H228021   4.804   1.643   0.547
 9353TIP3   OH228022   0.244   2.341   4.596
 9353TIP3    H128023   0.174   2.373   4.654
 9353TIP3    H228024   0.297   2.419   4.579
 9354TIP3   OH228025   6.021   0.806   4.568
 9354TIP3    H128026   6.056   0.725   4.605
 9354TIP3    H228027   6.060   0.811   4.480
 9355TIP3   OH228028   0.596   5.258   2.694
 9355TIP3    H128029   0.677   5.206   2.692
 9355TIP3    H228030   0.607   5.322   2.624
 9356TIP3   OH228031   1.798   1.289   4.301
 9356TIP3    H128032   1.767   1.321   4.217
 9356TIP3    H228033   1.852   1.360   4.336
 9357TIP3   OH228034   3.688   2.357   1.628
 9357TIP3    H128035   3.779   2.363   1.600
 9357TIP3    H228036   3.677   2.267   1.658
 9358TIP3   OH228037   1.497   2.961   1.758
 9358TIP3    H128038   1.561   3.016   1.712
 9358TIP3    H228039   1.543   2.933   1.837
 9359TIP3   OH228040   5.714  -0.007   3.857
 9359TIP3    H128041   5.777   0.061   3.881
 9359TIP3    H228042   5.650   0.039   3.801
 9360TIP3   OH228043   2.520   1.959   2.489
 9360TIP3    H128044   2.571   1.952   2.408
 9360TIP3    H228045   2.443   2.010   2.465
 9361TIP3   OH228046   1.822   2.683   2.072
 9361TIP3    H128047   1.830   2.743   1.998
 9361TIP3    H228048   1.911   2.678   2.108
 9362TIP3   OH228049   3.459   4.178   5.187
 9362TIP3    H128050   3.531   4.124   5.219
 9362TIP3    H228051   3.500   4.257   5.153
 9363TIP3   OH228052   3.297   4.396   1.861
 9363TIP3    H128053   3.240   4.457   1.908
 9363TIP3    H228054   3.258   4.310   1.877
 9364TIP3   OH228055  -0.002   4.422   5.711
 9364TIP3    H128056   0.019   4.440   5.803
 9364TIP3    H228057   0.077   4.379   5.677
 9365TIP3   OH228058   1.680   2.728   1.275
 9365TIP3    H128059   1.680   2.812   1.322
 9365TIP3    H228060   1.665   2.753   1.183
 9366TIP3   OH228061   1.126   3.068   4.588
 9366TIP3    H128062   1.066   2.996   4.605
 9366TIP3    H228063   1.087   3.115   4.514
 9367TIP3   OH228064   0.210   5.383   4.336
 9367TIP3    H128065   0.129   5.411   4.292
 9367TIP3    H228066   0.254   5.329   4.271
 9368TIP3   OH228067   4.506   3.816   1.896
 9368TIP3    H128068   4.563   3.795   1.823
 9368TIP3    H228069   4.503   3.736   1.948
 9369TIP3   OH228070   2.419   4.097   3.306
 9369TIP3    H128071   2.401   4.005   3.322
 9369TIP3    H228072   2.504   4.098   3.262
 9370TIP3   OH228073   6.823   5.955   3.079
 9370TIP3    H128074   6.850   5.952   2.988
 9370TIP3    H228075   6.874   6.026   3.117
 9371TIP3   OH228076   0.116   6.215   4.966
 9371TIP3    H128077   0.210   6.208   4.949
 9371TIP3    H228078   0.075   6.182   4.886
 9372TIP3   OH228079   4.205   2.467   3.724
 9372TIP3    H128080   4.162   2.382   3.716
 9372TIP3    H228081   4.133   2.530   3.724
 9373TIP3   OH228082   5.299   6.564   0.551
 9373TIP3    H128083   5.354   6.583   0.475
 9373TIP3    H228084   5.322   6.631   0.615
 9374TIP3   OH228085   3.207   4.687   0.982
 9374TIP3    H128086   3.253   4.753   1.034
 9374TIP3    H228087   3.274   4.621   0.963
 9375TIP3   OH228088   3.664   5.283   5.109
 9375TIP3    H128089   3.667   5.302   5.016
 9375TIP3    H228090   3.737   5.224   5.124
 9376TIP3   OH228091   5.460   6.564   0.295
 9376TIP3    H128092   5.461   6.470   0.312
 9376TIP3    H228093   5.534   6.579   0.237
 9377TIP3   OH228094   4.729   3.799   1.676
 9377TIP3    H128095   4.759   3.839   1.757
 9377TIP3    H228096   4.809   3.769   1.632
 9378TIP3   OH228097   2.267   6.442   0.382
 9378TIP3    H128098   2.206   6.515   0.382
 9378TIP3    H228099   2.220   6.371   0.426
 9379TIP3   OH228100   7.145   2.163   5.713
 9379TIP3    H128101   7.075   2.214   5.752
 9379TIP3    H228102   7.178   2.218   5.642
 9380TIP3   OH228103   6.187   3.244   2.034
 9380TIP3    H128104   6.282   3.253   2.031
 9380TIP3    H228105   6.160   3.237   1.942
 9381TIP3   OH228106   6.814   5.649   3.829
 9381TIP3    H128107   6.906   5.646   3.855
 9381TIP3    H228108   6.810   5.596   3.749
 9382TIP3   OH228109   5.146   5.303   2.016
 9382TIP3    H128110   5.151   5.347   1.932
 9382TIP3    H228111   5.236   5.276   2.034
 9383TIP3   OH228112   2.104   3.619   0.441
 9383TIP3    H128113   2.166   3.556   0.478
 9383TIP3    H228114   2.158   3.678   0.389
 9384TIP3   OH228115   6.813   5.820   0.330
 9384TIP3    H128116   6.806   5.890   0.266
 9384TIP3    H228117   6.723   5.805   0.359
 9385TIP3   OH228118   6.795   5.986   1.957
 9385TIP3    H128119   6.809   6.032   1.874
 9385TIP3    H228120   6.821   5.895   1.939
 9386TIP3   OH228121   6.165   5.658   3.044
 9386TIP3    H128122   6.195   5.609   3.120
 9386TIP3    H228123   6.213   5.740   3.047
 9387TIP3   OH228124   2.542   3.257   1.351
 9387TIP3    H128125   2.475   3.236   1.286
 9387TIP3    H228126   2.550   3.352   1.348
 9388TIP3   OH228127   4.334   1.586   3.899
 9388TIP3    H128128   4.331   1.665   3.954
 9388TIP3    H228129   4.407   1.602   3.839
 9389TIP3   OH228130   4.509   4.743   5.909
 9389TIP3    H128131   4.536   4.764   5.820
 9389TIP3    H228132   4.416   4.721   5.903
 9390TIP3   OH228133   6.852   2.989   5.249
 9390TIP3    H128134   6.871   3.070   5.203
 9390TIP3    H228135   6.758   2.977   5.239
 9391TIP3   OH228136   0.636   0.962   3.060
 9391TIP3    H128137   0.673   1.050   3.066
 9391TIP3    H228138   0.663   0.930   2.974
 9392TIP3   OH228139   0.649   6.473   3.121
 9392TIP3    H128140   0.614   6.518   3.199
 9392TIP3    H228141   0.664   6.542   3.058
 9393TIP3   OH228142   3.266   6.768   1.282
 9393TIP3    H128143   3.293   6.827   1.353
 9393TIP3    H228144   3.306   6.806   1.204
 9394TIP3   OH228145   5.301   5.799   1.434
 9394TIP3    H128146   5.276   5.815   1.343
 9394TIP3    H228147   5.234   5.844   1.486
 9395TIP3   OH228148   1.329   3.720   2.351
 9395TIP3    H128149   1.408   3.672   2.326
 9395TIP3    H228150   1.299   3.676   2.431
 9396TIP3   OH228151   0.648   1.103   2.742
 9396TIP3    H128152   0.640   1.196   2.761
 9396TIP3    H228153   0.565   1.065   2.770
 9397TIP3   OH228154   1.319   4.896   2.724
 9397TIP3    H128155   1.300   4.952   2.799
 9397TIP3    H228156   1.349   4.814   2.763
 9398TIP3   OH228157   3.608   6.779   3.758
 9398TIP3    H128158   3.683   6.817   3.712
 9398TIP3    H228159   3.554   6.741   3.689
 9399TIP3   OH228160   4.347   5.270   3.125
 9399TIP3    H128161   4.356   5.194   3.068
 9399TIP3    H228162   4.386   5.242   3.208
 9400TIP3   OH228163   5.042   5.957   4.759
 9400TIP3    H128164   5.076   5.922   4.676
 9400TIP3    H228165   5.019   5.879   4.809
 9401TIP3   OH228166   4.054   6.296   5.706
 9401TIP3    H128167   4.097   6.334   5.629
 9401TIP3    H228168   4.080   6.352   5.779
 9402TIP3   OH228169   1.095   1.584   1.627
 9402TIP3    H128170   1.000   1.571   1.624
 9402TIP3    H228171   1.131   1.503   1.590
 9403TIP3   OH228172   1.409   0.696   0.345
 9403TIP3    H128173   1.482   0.642   0.315
 9403TIP3    H228174   1.340   0.633   0.365
 9404TIP3   OH228175   0.663   5.125   3.053
 9404TIP3    H128176   0.613   5.155   3.129
 9404TIP3    H228177   0.732   5.190   3.042
 9405TIP3   OH228178   1.079   1.991   4.693
 9405TIP3    H128179   1.174   1.981   4.702
 9405TIP3    H228180   1.068   2.065   4.633
 9406TIP3   OH228181   6.733   0.823   4.256
 9406TIP3    H128182   6.743   0.918   4.253
 9406TIP3    H228183   6.779   0.791   4.179
 9407TIP3   OH228184   6.549   5.942   0.258
 9407TIP3    H128185   6.523   5.854   0.231
 9407TIP3    H228186   6.550   5.993   0.177
 9408TIP3   OH228187   2.480   5.119   5.127
 9408TIP3    H128188   2.494   5.086   5.216
 9408TIP3    H228189   2.555   5.087   5.077
 9409TIP3   OH228190   5.660   3.419   3.672
 9409TIP3    H128191   5.703   3.477   3.609
 9409TIP3    H228192   5.723   3.413   3.744
 9410TIP3   OH228193   2.002   0.545   2.651
 9410TIP3    H128194   1.943   0.493   2.597
 9410TIP3    H228195   2.073   0.485   2.674
 9411TIP3   OH228196   3.612   6.703   1.625
 9411TIP3    H128197   3.533   6.727   1.673
 9411TIP3    H228198   3.587   6.624   1.577
 9412TIP3   OH228199   5.196   1.658   3.539
 9412TIP3    H128200   5.142   1.628   3.612
 9412TIP3    H228201   5.140   1.645   3.462
 9413TIP3   OH228202   4.051   5.282   2.090
 9413TIP3    H128203   3.978   5.315   2.143
 9413TIP3    H228204   4.034   5.188   2.083
 9414TIP3   OH228205   3.487   5.135   1.073
 9414TIP3    H128206   3.530   5.217   1.097
 9414TIP3    H228207   3.559   5.079   1.043
 9415TIP3   OH228208   3.645   4.770   4.169
 9415TIP3    H128209   3.633   4.838   4.236
 9415TIP3    H228210   3.571   4.710   4.183
 9416TIP3   OH228211   5.223   5.873   3.763
 9416TIP3    H128212   5.210   5.837   3.675
 9416TIP3    H228213   5.137   5.865   3.805
 9417TIP3   OH228214   3.167   1.899   4.369
 9417TIP3    H128215   3.240   1.961   4.371
 9417TIP3    H228216   3.153   1.883   4.276
 9418TIP3   OH228217   0.478   5.692   2.127
 9418TIP3    H128218   0.495   5.631   2.055
 9418TIP3    H228219   0.444   5.636   2.197
 9419TIP3   OH228220   7.135   3.331   4.034
 9419TIP3    H128221   7.098   3.245   4.052
 9419TIP3    H228222   7.168   3.362   4.118
 9420TIP3   OH228223   6.583   2.645   1.437
 9420TIP3    H128224   6.542   2.704   1.374
 9420TIP3    H228225   6.510   2.610   1.489
 9421TIP3   OH228226   1.927   3.346   1.073
 9421TIP3    H128227   1.890   3.264   1.105
 9421TIP3    H228228   1.948   3.395   1.153
 9422TIP3   OH228229   6.054   1.961   2.930
 9422TIP3    H128230   6.102   2.033   2.890
 9422TIP3    H228231   6.013   1.999   3.007
 9423TIP3   OH228232   0.801   4.659   2.998
 9423TIP3    H128233   0.884   4.657   2.951
 9423TIP3    H228234   0.772   4.568   2.999
 9424TIP3   OH228235   4.438   3.120   4.788
 9424TIP3    H128236   4.356   3.083   4.755
 9424TIP3    H228237   4.507   3.074   4.740
 9425TIP3   OH228238   4.784   4.568   0.702
 9425TIP3    H128239   4.825   4.554   0.616
 9425TIP3    H228240   4.699   4.607   0.682
 9426TIP3   OH228241   0.493   1.938   5.348
 9426TIP3    H128242   0.516   1.879   5.276
 9426TIP3    H228243   0.479   1.880   5.422
 9427TIP3   OH228244   5.867   2.889   1.506
 9427TIP3    H128245   5.893   2.908   1.416
 9427TIP3    H228246   5.947   2.896   1.557
 9428TIP3   OH228247   2.390   5.843   1.394
 9428TIP3    H128248   2.421   5.798   1.473
 9428TIP3    H228249   2.452   5.914   1.380
 9429TIP3   OH228250   6.884   2.854   1.874
 9429TIP3    H128251   6.813   2.816   1.926
 9429TIP3    H228252   6.875   2.813   1.788
 9430TIP3   OH228253   4.609   0.342   4.038
 9430TIP3    H128254   4.666   0.357   4.113
 9430TIP3    H228255   4.595   0.247   4.036
 9431TIP3   OH228256   1.486   3.040   5.503
 9431TIP3    H128257   1.533   3.107   5.553
 9431TIP3    H228258   1.463   2.974   5.569
 9432TIP3   OH228259   6.361   3.729   0.339
 9432TIP3    H128260   6.368   3.717   0.433
 9432TIP3    H228261   6.327   3.646   0.306
 9433TIP3   OH228262   6.463   0.179   0.388
 9433TIP3    H128263   6.451   0.274   0.382
 9433TIP3    H228264   6.377   0.146   0.415
 9434TIP3   OH228265   0.207   5.503   5.701
 9434TIP3    H128266   0.141   5.565   5.731
 9434TIP3    H228267   0.289   5.535   5.740
 9435TIP3   OH228268   1.807   3.738   4.324
 9435TIP3    H128269   1.853   3.761   4.405
 9435TIP3    H228270   1.721   3.781   4.333
 9436TIP3   OH228271   2.246   2.660   3.076
 9436TIP3    H128272   2.233   2.741   3.124
 9436TIP3    H228273   2.333   2.631   3.102
 9437TIP3   OH228274   2.819   2.666   1.121
 9437TIP3    H128275   2.910   2.646   1.145
 9437TIP3    H228276   2.802   2.611   1.045
 9438TIP3   OH228277   1.774   6.109   5.069
 9438TIP3    H128278   1.833   6.181   5.092
 9438TIP3    H228279   1.702   6.115   5.132
 9439TIP3   OH228280   1.971   2.809   0.412
 9439TIP3    H128281   1.884   2.842   0.432
 9439TIP3    H228282   1.957   2.742   0.345
 9440TIP3   OH228283   4.360   0.107   2.838
 9440TIP3    H128284   4.374   0.174   2.771
 9440TIP3    H228285   4.277   0.065   2.814
 9441TIP3   OH228286   3.834   4.696   0.644
 9441TIP3    H128287   3.852   4.666   0.555
 9441TIP3    H228288   3.770   4.634   0.678
 9442TIP3   OH228289   6.317   4.498   0.692
 9442TIP3    H128290   6.293   4.448   0.615
 9442TIP3    H228291   6.398   4.544   0.667
 9443TIP3   OH228292   4.446   4.201   1.637
 9443TIP3    H128293   4.438   4.249   1.720
 9443TIP3    H228294   4.423   4.111   1.660
 9444TIP3   OH228295   7.060   1.943   0.227
 9444TIP3    H128296   7.117   1.961   0.152
 9444TIP3    H228297   7.114   1.891   0.287
 9445TIP3   OH228298   6.700   0.290   1.268
 9445TIP3    H128299   6.610   0.258   1.262
 9445TIP3    H228300   6.710   0.317   1.359
 9446TIP3   OH228301   5.914   1.122   3.549
 9446TIP3    H128302   5.838   1.120   3.491
 9446TIP3    H228303   5.887   1.070   3.624
 9447TIP3   OH228304   3.536   5.350   2.884
 9447TIP3    H128305   3.545   5.363   2.789
 9447TIP3    H228306   3.624   5.324   2.912
 9448TIP3   OH228307   6.827   2.448   1.877
 9448TIP3    H128308   6.861   2.374   1.928
 9448TIP3    H228309   6.744   2.470   1.919
 9449TIP3   OH228310   2.696   0.491   4.908
 9449TIP3    H128311   2.676   0.461   4.819
 9449TIP3    H228312   2.778   0.540   4.898
 9450TIP3   OH228313   4.684   6.314   5.297
 9450TIP3    H128314   4.653   6.224   5.307
 9450TIP3    H228315   4.759   6.321   5.356
 9451TIP3   OH228316   4.644   5.645   3.853
 9451TIP3    H128317   4.568   5.596   3.883
 9451TIP3    H228318   4.642   5.636   3.757
 9452TIP3   OH228319   0.455   1.020   5.684
 9452TIP3    H128320   0.397   1.040   5.610
 9452TIP3    H228321   0.541   1.011   5.644
 9453TIP3   OH228322   3.025   1.945   3.464
 9453TIP3    H128323   3.096   2.010   3.462
 9453TIP3    H228324   2.982   1.954   3.379
 9454TIP3   OH228325   6.683   0.786   3.488
 9454TIP3    H128326   6.619   0.788   3.559
 9454TIP3    H228327   6.639   0.740   3.417
 9455TIP3   OH228328   3.215   5.064   0.619
 9455TIP3    H128329   3.218   5.016   0.701
 9455TIP3    H228330   3.137   5.031   0.574
 9456TIP3   OH228331   5.954   5.934   0.663
 9456TIP3    H128332   6.015   5.877   0.617
 9456TIP3    H228333   6.004   6.013   0.682
 9457TIP3   OH228334   1.036   0.733   3.175
 9457TIP3    H128335   1.093   0.736   3.098
 9457TIP3    H228336   1.005   0.822   3.187
 9458TIP3   OH228337   3.665   2.483   0.137
 9458TIP3    H128338   3.609   2.488   0.214
 9458TIP3    H228339   3.660   2.391   0.110
 9459TIP3   OH228340   4.178   3.085   5.044
 9459TIP3    H128341   4.093   3.044   5.026
 9459TIP3    H228342   4.178   3.098   5.139
 9460TIP3   OH228343   2.783   4.790   3.800
 9460TIP3    H128344   2.759   4.845   3.725
 9460TIP3    H228345   2.721   4.815   3.869
 9461TIP3   OH228346   2.422   0.563   4.685
 9461TIP3    H128347   2.394   0.631   4.747
 9461TIP3    H228348   2.413   0.604   4.599
 9462TIP3   OH228349   4.393   0.037   0.076
 9462TIP3    H128350   4.354   0.067   0.158
 9462TIP3    H228351   4.321   0.040   0.013
 9463TIP3   OH228352   1.396   0.885   2.692
 9463TIP3    H128353   1.421   0.793   2.687
 9463TIP3    H228354   1.459   0.924   2.753
 9464TIP3   OH228355   2.266   0.574   3.044
 9464TIP3    H128356   2.313   0.491   3.059
 9464TIP3    H228357   2.336   0.638   3.030
 9465TIP3   OH228358   4.967   1.771   2.682
 9465TIP3    H128359   4.944   1.831   2.753
 9465TIP3    H228360   5.044   1.810   2.641
 9466TIP3   OH228361   1.742   5.224   1.695
 9466TIP3    H128362   1.811   5.269   1.646
 9466TIP3    H228363   1.758   5.248   1.786
 9467TIP3   OH228364   6.459   1.513   4.070
 9467TIP3    H128365   6.412   1.439   4.032
 9467TIP3    H228366   6.529   1.474   4.121
 9468TIP3   OH228367   4.774   1.178   3.386
 9468TIP3    H128368   4.763   1.250   3.324
 9468TIP3    H228369   4.817   1.219   3.462
 9469TIP3   OH228370   2.727   1.621   2.650
 9469TIP3    H128371   2.694   1.674   2.722
 9469TIP3    H228372   2.699   1.667   2.571
 9470TIP3   OH228373   5.644   5.977   0.274
 9470TIP3    H128374   5.575   6.013   0.220
 9470TIP3    H228375   5.668   6.048   0.334
 9471TIP3   OH228376   1.025   1.527   3.591
 9471TIP3    H128377   1.026   1.590   3.662
 9471TIP3    H228378   1.075   1.569   3.521
 9472TIP3   OH228379   1.838   4.663   0.592
 9472TIP3    H128380   1.924   4.632   0.562
 9472TIP3    H228381   1.785   4.584   0.599
 9473TIP3   OH228382   5.871   3.871   3.990
 9473TIP3    H128383   5.908   3.874   3.901
 9473TIP3    H228384   5.809   3.944   3.993
 9474TIP3   OH228385   0.798   4.067   1.858
 9474TIP3    H128386   0.864   4.069   1.790
 9474TIP3    H228387   0.838   4.015   1.929
 9475TIP3   OH228388   1.910   0.536   3.589
 9475TIP3    H128389   1.945   0.448   3.605
 9475TIP3    H228390   1.955   0.564   3.509
 9476TIP3   OH228391   3.300   5.519   1.557
 9476TIP3    H128392   3.215   5.543   1.594
 9476TIP3    H228393   3.363   5.551   1.621
 9477TIP3   OH228394   3.299   2.186   5.045
 9477TIP3    H128395   3.270   2.250   4.980
 9477TIP3    H228396   3.394   2.181   5.033
 9478TIP3   OH228397   1.290   2.930   3.079
 9478TIP3    H128398   1.279   3.014   3.036
 9478TIP3    H228399   1.380   2.904   3.060
 9479TIP3   OH228400   5.493   4.027   5.808
 9479TIP3    H128401   5.500   3.956   5.744
 9479TIP3    H228402   5.540   3.994   5.885
 9480TIP3   OH228403   1.097   0.143   2.891
 9480TIP3    H128404   1.055   0.197   2.958
 9480TIP3    H228405   1.149   0.205   2.840
 9481TIP3   OH228406   1.685   0.370   1.486
 9481TIP3    H128407   1.776   0.398   1.493
 9481TIP3    H228408   1.685   0.277   1.508
 9482TIP3   OH228409   1.991   5.761   4.748
 9482TIP3    H128410   2.010   5.668   4.758
 9482TIP3    H228411   2.051   5.805   4.808
 9483TIP3   OH228412   5.127   4.515   5.761
 9483TIP3    H128413   5.137   4.438   5.706
 9483TIP3    H228414   5.147   4.589   5.704
 9484TIP3   OH228415   3.445   1.975   2.135
 9484TIP3    H128416   3.469   2.029   2.060
 9484TIP3    H228417   3.506   2.000   2.204
 9485TIP3   OH228418   3.077   2.497   3.256
 9485TIP3    H128419   3.040   2.412   3.280
 9485TIP3    H228420   3.059   2.506   3.162
 9486TIP3   OH228421   2.747   4.443   1.376
 9486TIP3    H128422   2.825   4.399   1.342
 9486TIP3    H228423   2.781   4.519   1.424
 9487TIP3   OH228424   5.537   1.023   0.789
 9487TIP3    H128425   5.563   1.108   0.754
 9487TIP3    H228426   5.443   1.030   0.803
 9488TIP3   OH228427   4.328   0.389   2.362
 9488TIP3    H128428   4.279   0.465   2.395
 9488TIP3    H228429   4.418   0.421   2.353
 9489TIP3   OH228430   0.629   3.510   5.154
 9489TIP3    H128431   0.608   3.589   5.203
 9489TIP3    H228432   0.678   3.456   5.216
 9490TIP3   OH228433   5.449   4.976   1.751
 9490TIP3    H128434   5.471   4.882   1.746
 9490TIP3    H228435   5.399   4.985   1.832
 9491TIP3   OH228436   1.017   0.077   3.670
 9491TIP3    H128437   1.081   0.075   3.599
 9491TIP3    H228438   1.068   0.104   3.747
 9492TIP3   OH228439   6.601   3.388   1.337
 9492TIP3    H128440   6.544   3.456   1.373
 9492TIP3    H228441   6.683   3.399   1.385
 9493TIP3   OH228442   3.402   2.821   4.990
 9493TIP3    H128443   3.373   2.822   4.899
 9493TIP3    H228444   3.343   2.760   5.034
 9494TIP3   OH228445   3.515   0.406   1.342
 9494TIP3    H128446   3.563   0.407   1.259
 9494TIP3    H228447   3.567   0.461   1.401
 9495TIP3   OH228448  -0.003   0.022   5.501
 9495TIP3    H128449   0.059  -0.019   5.441
 9495TIP3    H228450   0.050   0.048   5.577
 9496TIP3   OH228451   4.882   1.013   2.840
 9496TIP3    H128452   4.924   0.960   2.908
 9496TIP3    H228453   4.838   1.083   2.887
 9497TIP3   OH228454   0.527   1.867   1.270
 9497TIP3    H128455   0.516   1.879   1.365
 9497TIP3    H228456   0.459   1.922   1.231
 9498TIP3   OH228457   1.199   3.008   5.380
 9498TIP3    H128458   1.193   3.067   5.455
 9498TIP3    H228459   1.291   2.980   5.380
 9499TIP3   OH228460   6.267   2.522   3.054
 9499TIP3    H128461   6.183   2.477   3.065
 9499TIP3    H228462   6.327   2.452   3.028
 9500TIP3   OH228463   4.010   6.699   4.543
 9500TIP3    H128464   3.935   6.699   4.484
 9500TIP3    H228465   3.973   6.716   4.629
 9501TIP3   OH228466   5.531   6.495   3.005
 9501TIP3    H128467   5.619   6.522   3.032
 9501TIP3    H228468   5.474   6.567   3.033
 9502TIP3   OH228469   3.660   5.755   5.634
 9502TIP3    H128470   3.722   5.682   5.637
 9502TIP3    H228471   3.705   5.827   5.680
 9503TIP3   OH228472   5.466   0.234   5.059
 9503TIP3    H128473   5.524   0.268   4.992
 9503TIP3    H228474   5.517   0.240   5.140
 9504TIP3   OH228475   3.665   6.136   0.780
 9504TIP3    H128476   3.704   6.168   0.698
 9504TIP3    H228477   3.586   6.190   0.791
 9505TIP3   OH228478   3.365   2.452   2.123
 9505TIP3    H128479   3.323   2.538   2.131
 9505TIP3    H228480   3.316   2.396   2.182
 9506TIP3   OH228481   2.197   4.730   3.805
 9506TIP3    H128482   2.256   4.744   3.730
 9506TIP3    H228483   2.193   4.635   3.815
 9507TIP3   OH228484   3.058   4.916   3.908
 9507TIP3    H128485   2.980   4.969   3.924
 9507TIP3    H228486   3.035   4.829   3.941
 9508TIP3   OH228487   5.064   3.479   1.381
 9508TIP3    H128488   5.122   3.531   1.324
 9508TIP3    H228489   5.104   3.393   1.384
 9509TIP3   OH228490   3.131   6.690   5.417
 9509TIP3    H128491   3.214   6.703   5.464
 9509TIP3    H228492   3.157   6.656   5.331
 9510TIP3   OH228493   3.972   4.629   5.549
 9510TIP3    H128494   3.956   4.538   5.573
 9510TIP3    H228495   3.924   4.641   5.467
 9511TIP3   OH228496   2.312   5.917   2.719
 9511TIP3    H128497   2.244   5.953   2.776
 9511TIP3    H228498   2.393   5.923   2.770
 9512TIP3   OH228499   3.029   4.684   1.338
 9512TIP3    H128500   3.090   4.738   1.388
 9512TIP3    H228501   2.971   4.645   1.403
 9513TIP3   OH228502   6.270   6.075   5.395
 9513TIP3    H128503   6.326   6.025   5.335
 9513TIP3    H228504   6.212   6.009   5.434
 9514TIP3   OH228505   4.939   6.372   5.135
 9514TIP3    H128506   5.008   6.390   5.199
 9514TIP3    H228507   4.974   6.406   5.052
 9515TIP3   OH228508   4.307   1.954   2.621
 9515TIP3    H128509   4.221   1.983   2.591
 9515TIP3    H228510   4.320   2.000   2.704
 9516TIP3   OH228511   4.890   4.773   3.470
 9516TIP3    H128512   4.830   4.729   3.410
 9516TIP3    H228513   4.974   4.730   3.457
 9517TIP3   OH228514   3.587   0.350   5.750
 9517TIP3    H128515   3.587   0.310   5.837
 9517TIP3    H228516   3.656   0.416   5.754
 9518TIP3   OH228517   5.451   2.918   3.655
 9518TIP3    H128518   5.531   2.921   3.707
 9518TIP3    H228519   5.381   2.909   3.719
 9519TIP3   OH228520   5.972   4.350   5.635
 9519TIP3    H128521   5.893   4.395   5.604
 9519TIP3    H228522   6.043   4.393   5.589
 9520TIP3   OH228523   6.394   1.401   0.004
 9520TIP3    H128524   6.435   1.397   0.090
 9520TIP3    H228525   6.363   1.491  -0.005
 9521TIP3   OH228526   4.966   1.629   5.423
 9521TIP3    H128527   4.954   1.549   5.474
 9521TIP3    H228528   5.035   1.676   5.469
 9522TIP3   OH228529   3.204   3.326   1.293
 9522TIP3    H128530   3.281   3.366   1.253
 9522TIP3    H228531   3.204   3.236   1.261
 9523TIP3   OH228532   2.438   0.916   3.930
 9523TIP3    H128533   2.350   0.945   3.908
 9523TIP3    H228534   2.486   0.919   3.847
 9524TIP3   OH228535   0.612   2.514   0.653
 9524TIP3    H128536   0.587   2.583   0.591
 9524TIP3    H228537   0.550   2.522   0.725
 9525TIP3   OH228538   1.960   6.455   2.013
 9525TIP3    H128539   1.982   6.367   2.042
 9525TIP3    H228540   1.899   6.442   1.941
 9526TIP3   OH228541   1.471   2.255   3.202
 9526TIP3    H128542   1.431   2.341   3.189
 9526TIP3    H228543   1.555   2.274   3.244
 9527TIP3   OH228544   0.025   5.131   2.994
 9527TIP3    H128545  -0.015   5.078   2.925
 9527TIP3    H228546   0.110   5.088   3.011
 9528TIP3   OH228547   0.556   1.059   4.739
 9528TIP3    H128548   0.546   0.981   4.793
 9528TIP3    H228549   0.605   1.030   4.663
 9529TIP3   OH228550   4.244   6.193   1.589
 9529TIP3    H128551   4.331   6.233   1.584
 9529TIP3    H228552   4.190   6.259   1.632
 9530TIP3   OH228553   4.966   2.915   4.286
 9530TIP3    H128554   4.998   2.940   4.373
 9530TIP3    H228555   5.010   2.832   4.267
 9531TIP3   OH228556   6.867   4.709   3.362
 9531TIP3    H128557   6.834   4.628   3.402
 9531TIP3    H228558   6.789   4.764   3.353
 9532TIP3   OH228559   2.807   0.370   5.379
 9532TIP3    H128560   2.742   0.374   5.448
 9532TIP3    H228561   2.756   0.354   5.299
 9533TIP3   OH228562   2.624   5.560   4.545
 9533TIP3    H128563   2.537   5.549   4.506
 9533TIP3    H228564   2.621   5.646   4.587
 9534TIP3   OH228565   1.760   0.490   2.975
 9534TIP3    H128566   1.729   0.558   2.916
 9534TIP3    H228567   1.842   0.524   3.011
 9535TIP3   OH228568   1.998   4.337   0.786
 9535TIP3    H128569   2.047   4.414   0.815
 9535TIP3    H228570   1.915   4.372   0.754
 9536TIP3   OH228571   4.933   1.522   4.061
 9536TIP3    H128572   4.926   1.428   4.078
 9536TIP3    H228573   4.857   1.543   4.008
 9537TIP3   OH228574   1.410   1.961   1.450
 9537TIP3    H128575   1.375   2.033   1.397
 9537TIP3    H228576   1.490   1.934   1.404
 9538TIP3   OH228577   6.394   5.494   1.514
 9538TIP3    H128578   6.401   5.494   1.418
 9538TIP3    H228579   6.391   5.586   1.538
 9539TIP3   OH228580   7.173   2.640   3.186
 9539TIP3    H128581   7.114   2.581   3.232
 9539TIP3    H228582   7.119   2.717   3.166
 9540TIP3   OH228583   6.226   1.141   5.506
 9540TIP3    H128584   6.317   1.114   5.503
 9540TIP3    H228585   6.179   1.075   5.453
 9541TIP3   OH228586   5.745   4.630   3.255
 9541TIP3    H128587   5.732   4.690   3.182
 9541TIP3    H228588   5.657   4.613   3.289
 9542TIP3   OH228589   1.713   2.966   5.372
 9542TIP3    H128590   1.729   3.044   5.318
 9542TIP3    H228591   1.621   2.972   5.396
 9543TIP3   OH228592   6.655   5.594   2.370
 9543TIP3    H128593   6.654   5.650   2.448
 9543TIP3    H228594   6.745   5.597   2.339
 9544TIP3   OH228595   4.741   3.723   1.313
 9544TIP3    H128596   4.701   3.659   1.371
 9544TIP3    H228597   4.702   3.807   1.339
 9545TIP3   OH228598   3.373   1.592   0.672
 9545TIP3    H128599   3.278   1.600   0.687
 9545TIP3    H228600   3.411   1.665   0.722
 9546TIP3   OH228601   3.195   6.343   1.011
 9546TIP3    H128602   3.186   6.386   1.096
 9546TIP3    H228603   3.255   6.271   1.025
 9547TIP3   OH228604   2.658   2.990   3.304
 9547TIP3    H128605   2.703   2.907   3.292
 9547TIP3    H228606   2.606   2.978   3.384
 9548TIP3   OH228607   4.475   3.746   2.752
 9548TIP3    H128608   4.394   3.782   2.716
 9548TIP3    H228609   4.450   3.662   2.789
 9549TIP3   OH228610   1.748   3.832   0.882
 9549TIP3    H128611   1.688   3.809   0.953
 9549TIP3    H228612   1.714   3.914   0.847
 9550TIP3   OH228613   5.241   6.772   5.572
 9550TIP3    H128614   5.283   6.843   5.622
 9550TIP3    H228615   5.299   6.697   5.583
 9551TIP3   OH228616   6.986   0.883   1.842
 9551TIP3    H128617   6.949   0.922   1.921
 9551TIP3    H228618   7.079   0.901   1.846
 9552TIP3   OH228619   2.305   6.558   4.489
 9552TIP3    H128620   2.264   6.641   4.514
 9552TIP3    H228621   2.368   6.541   4.558
 9553TIP3   OH228622   4.778   5.372   4.127
 9553TIP3    H128623   4.714   5.409   4.187
 9553TIP3    H228624   4.745   5.284   4.108
 9554TIP3   OH228625   5.976   4.858   0.777
 9554TIP3    H128626   5.996   4.770   0.748
 9554TIP3    H228627   6.054   4.909   0.755
 9555TIP3   OH228628   5.290   0.819   3.022
 9555TIP3    H128629   5.256   0.819   3.111
 9555TIP3    H228630   5.383   0.800   3.031
 9556TIP3   OH228631   1.306   5.039   5.765
 9556TIP3    H128632   1.354   5.087   5.833
 9556TIP3    H228633   1.238   5.099   5.736
 9557TIP3   OH228634   4.647   0.256   2.661
 9557TIP3    H128635   4.724   0.211   2.697
 9557TIP3    H228636   4.659   0.348   2.685
 9558TIP3   OH228637   4.890   0.353   1.223
 9558TIP3    H128638   4.812   0.409   1.224
 9558TIP3    H228639   4.936   0.377   1.143
 9559TIP3   OH228640   5.327   5.614   1.828
 9559TIP3    H128641   5.236   5.584   1.829
 9559TIP3    H228642   5.324   5.699   1.872
 9560TIP3   OH228643   5.886   5.647   2.312
 9560TIP3    H128644   5.849   5.569   2.353
 9560TIP3    H228645   5.833   5.662   2.235
 9561TIP3   OH228646   6.220   2.112   3.895
 9561TIP3    H128647   6.284   2.180   3.872
 9561TIP3    H228648   6.242   2.038   3.839
 9562TIP3   OH228649   1.498   0.868   0.548
 9562TIP3    H128650   1.419   0.915   0.572
 9562TIP3    H228651   1.474   0.818   0.470
 9563TIP3   OH228652   4.379   4.930   1.719
 9563TIP3    H128653   4.397   4.879   1.798
 9563TIP3    H228654   4.395   4.870   1.647
 9564TIP3   OH228655   5.303   0.628   4.757
 9564TIP3    H128656   5.277   0.542   4.724
 9564TIP3    H228657   5.348   0.609   4.839
 9565TIP3   OH228658   6.841   6.801   3.406
 9565TIP3    H128659   6.825   6.716   3.364
 9565TIP3    H228660   6.824   6.865   3.337
 9566TIP3   OH228661   1.420   2.642   4.898
 9566TIP3    H128662   1.402   2.714   4.838
 9566TIP3    H228663   1.335   2.618   4.934
 9567TIP3   OH228664   6.017   2.666   0.538
 9567TIP3    H128665   5.949   2.701   0.481
 9567TIP3    H228666   6.070   2.609   0.482
 9568TIP3   OH228667   3.920   2.432   3.620
 9568TIP3    H128668   3.863   2.355   3.619
 9568TIP3    H228669   3.937   2.450   3.528
 9569TIP3   OH228670   0.142   1.438   4.232
 9569TIP3    H128671   0.213   1.382   4.200
 9569TIP3    H228672   0.141   1.513   4.172
 9570TIP3   OH228673   7.120   4.819   4.304
 9570TIP3    H128674   7.131   4.802   4.210
 9570TIP3    H228675   7.134   4.914   4.312
 9571TIP3   OH228676   6.320   5.718   1.858
 9571TIP3    H128677   6.288   5.758   1.938
 9571TIP3    H228678   6.403   5.761   1.841
 9572TIP3   OH228679   6.102   4.049   0.730
 9572TIP3    H128680   6.044   4.091   0.667
 9572TIP3    H228681   6.105   4.110   0.804
 9573TIP3   OH228682   7.202   0.405   3.809
 9573TIP3    H128683   7.268   0.338   3.830
 9573TIP3    H228684   7.253   0.478   3.776
 9574TIP3   OH228685   6.058   5.206   2.112
 9574TIP3    H128686   6.023   5.165   2.033
 9574TIP3    H228687   5.993   5.187   2.179
 9575TIP3   OH228688   4.757   3.461   1.821
 9575TIP3    H128689   4.824   3.514   1.778
 9575TIP3    H228690   4.709   3.523   1.876
 9576TIP3   OH228691   3.427  -0.035   5.164
 9576TIP3    H128692   3.337  -0.055   5.137
 9576TIP3    H228693   3.424   0.056   5.191
 9577TIP3   OH228694   2.697   1.711   3.230
 9577TIP3    H128695   2.778   1.706   3.178
 9577TIP3    H228696   2.721   1.760   3.308
 9578TIP3   OH228697   0.228   4.808   5.078
 9578TIP3    H128698   0.193   4.798   5.167
 9578TIP3    H228699   0.292   4.737   5.069
 9579TIP3   OH228700   2.944   1.813   5.892
 9579TIP3    H128701   3.014   1.753   5.915
 9579TIP3    H228702   2.948   1.819   5.796
 9580TIP3   OH228703   2.445   4.582   4.668
 9580TIP3    H128704   2.458   4.606   4.577
 9580TIP3    H228705   2.533   4.579   4.706
 9581TIP3   OH228706   2.711   6.857   2.195
 9581TIP3    H128707   2.687   6.865   2.103
 9581TIP3    H228708   2.726   6.763   2.208
 9582TIP3   OH228709   4.259   2.214   4.874
 9582TIP3    H128710   4.291   2.141   4.927
 9582TIP3    H228711   4.274   2.291   4.928
 9583TIP3   OH228712   5.047   1.196   4.839
 9583TIP3    H128713   5.115   1.174   4.775
 9583TIP3    H228714   4.972   1.225   4.786
 9584TIP3   OH228715   0.793   0.517   5.492
 9584TIP3    H128716   0.793   0.518   5.588
 9584TIP3    H228717   0.819   0.427   5.469
 9585TIP3   OH228718   5.531   6.130   3.448
 9585TIP3    H128719   5.611   6.182   3.454
 9585TIP3    H228720   5.505   6.138   3.357
 9586TIP3   OH228721   3.573   2.819   0.160
 9586TIP3    H128722   3.637   2.763   0.204
 9586TIP3    H228723   3.548   2.883   0.227
 9587TIP3   OH228724   1.057   3.869   1.280
 9587TIP3    H128725   1.095   3.809   1.345
 9587TIP3    H228726   0.988   3.914   1.328
 9588TIP3   OH228727   2.742   1.674   0.995
 9588TIP3    H128728   2.756   1.704   0.905
 9588TIP3    H228729   2.648   1.684   1.010
 9589TIP3   OH228730   0.183   2.668   0.357
 9589TIP3    H128731   0.205   2.620   0.276
 9589TIP3    H228732   0.097   2.705   0.340
 9590TIP3   OH228733   3.420   4.334   3.081
 9590TIP3    H128734   3.413   4.250   3.126
 9590TIP3    H228735   3.513   4.357   3.087
 9591TIP3   OH228736   7.118   1.324   4.978
 9591TIP3    H128737   7.084   1.413   4.969
 9591TIP3    H228738   7.142   1.317   5.070
 9592TIP3   OH228739   3.531   6.130   2.880
 9592TIP3    H128740   3.589   6.121   2.803
 9592TIP3    H228741   3.466   6.060   2.869
 9593TIP3   OH228742   2.118   6.553   5.885
 9593TIP3    H128743   2.131   6.626   5.825
 9593TIP3    H228744   2.045   6.504   5.849
 9594TIP3   OH228745   6.676   0.237   0.754
 9594TIP3    H128746   6.628   0.158   0.731
 9594TIP3    H228747   6.761   0.206   0.785
 9595TIP3   OH228748   6.462   1.346   4.755
 9595TIP3    H128749   6.523   1.338   4.681
 9595TIP3    H228750   6.379   1.311   4.722
 9596TIP3   OH228751   5.654   2.590   1.644
 9596TIP3    H128752   5.664   2.591   1.739
 9596TIP3    H228753   5.689   2.505   1.617
 9597TIP3   OH228754   1.998   2.673   1.057
 9597TIP3    H128755   1.925   2.615   1.035
 9597TIP3    H228756   2.008   2.729   0.980
 9598TIP3   OH228757   0.125   4.719   1.546
 9598TIP3    H128758   0.206   4.765   1.527
 9598TIP3    H228759   0.152   4.642   1.596
 9599TIP3   OH228760   2.656   5.963   5.178
 9599TIP3    H128761   2.686   6.020   5.107
 9599TIP3    H228762   2.712   5.986   5.252
 9600TIP3   OH228763   1.437   5.731   4.677
 9600TIP3    H128764   1.465   5.650   4.720
 9600TIP3    H228765   1.390   5.779   4.745
 9601TIP3   OH228766   7.051   3.918   2.374
 9601TIP3    H128767   6.989   3.988   2.394
 9601TIP3    H228768   6.998   3.838   2.379
 9602TIP3   OH228769   5.474   3.138   1.779
 9602TIP3    H128770   5.545   3.202   1.790
 9602TIP3    H228771   5.441   3.155   1.690
 9603TIP3   OH228772   2.782   6.230   2.827
 9603TIP3    H128773   2.710   6.282   2.792
 9603TIP3    H228774   2.822   6.189   2.751
 9604TIP3   OH228775   3.541   2.045   4.881
 9604TIP3    H128776   3.522   1.953   4.865
 9604TIP3    H228777   3.555   2.050   4.976
 9605TIP3   OH228778   4.719   0.188   5.080
 9605TIP3    H128779   4.762   0.216   4.999
 9605TIP3    H228780   4.648   0.131   5.050
 9606TIP3   OH228781   7.078   5.668   3.861
 9606TIP3    H128782   7.110   5.681   3.950
 9606TIP3    H228783   7.115   5.741   3.811
 9607TIP3   OH228784   1.175   4.478   5.459
 9607TIP3    H128785   1.190   4.572   5.460
 9607TIP3    H228786   1.080   4.468   5.468
 9608TIP3   OH228787   0.888   1.193   0.036
 9608TIP3    H128788   0.852   1.282   0.028
 9608TIP3    H228789   0.855   1.162   0.120
 9609TIP3   OH228790   4.230   3.998   5.516
 9609TIP3    H128791   4.234   4.087   5.482
 9609TIP3    H228792   4.271   4.003   5.602
 9610TIP3   OH228793  -0.033   2.789   3.742
 9610TIP3    H128794   0.035   2.724   3.762
 9610TIP3    H228795   0.015   2.870   3.728
 9611TIP3   OH228796   4.983   1.952   4.343
 9611TIP3    H128797   4.941   1.985   4.423
 9611TIP3    H228798   4.911   1.942   4.281
 9612TIP3   OH228799   4.951   3.747   2.581
 9612TIP3    H128800   4.961   3.701   2.498
 9612TIP3    H228801   4.967   3.839   2.560
 9613TIP3   OH228802   5.513   5.500   1.963
 9613TIP3    H128803   5.600   5.503   1.925
 9613TIP3    H228804   5.456   5.539   1.895
 9614TIP3   OH228805   2.145   4.374   3.404
 9614TIP3    H128806   2.232   4.354   3.438
 9614TIP3    H228807   2.142   4.333   3.318
 9615TIP3   OH228808   3.188   0.545   1.574
 9615TIP3    H128809   3.190   0.638   1.599
 9615TIP3    H228810   3.247   0.539   1.499
 9616TIP3   OH228811   5.088   2.096   2.653
 9616TIP3    H128812   5.081   2.146   2.572
 9616TIP3    H228813   5.153   2.028   2.634
 9617TIP3   OH228814   4.208   0.539   1.136
 9617TIP3    H128815   4.132   0.571   1.087
 9617TIP3    H228816   4.191   0.446   1.149
 9618TIP3   OH228817   0.376   5.614   0.445
 9618TIP3    H128818   0.281   5.603   0.442
 9618TIP3    H228819   0.401   5.631   0.354
 9619TIP3   OH228820   4.806   2.100   2.376
 9619TIP3    H128821   4.860   2.161   2.325
 9619TIP3    H228822   4.722   2.098   2.330
 9620TIP3   OH228823   5.325   5.206   5.749
 9620TIP3    H128824   5.314   5.278   5.811
 9620TIP3    H228825   5.412   5.219   5.713
 9621TIP3   OH228826   4.165   6.290   4.231
 9621TIP3    H128827   4.121   6.235   4.296
 9621TIP3    H228828   4.152   6.244   4.148
 9622TIP3   OH228829   0.599   4.157   3.229
 9622TIP3    H128830   0.588   4.121   3.317
 9622TIP3    H228831   0.684   4.202   3.232
 9623TIP3   OH228832   6.128   1.358   3.802
 9623TIP3    H128833   6.070   1.287   3.829
 9623TIP3    H228834   6.106   1.374   3.711
 9624TIP3   OH228835   6.014   3.835   5.392
 9624TIP3    H128836   6.082   3.851   5.457
 9624TIP3    H228837   6.003   3.920   5.348
 9625TIP3   OH228838   6.994   4.719   2.329
 9625TIP3    H128839   6.912   4.751   2.290
 9625TIP3    H228840   6.984   4.735   2.422
 9626TIP3   OH228841   5.966   5.515   4.116
 9626TIP3    H128842   6.032   5.452   4.089
 9626TIP3    H228843   5.887   5.490   4.067
 9627TIP3   OH228844   3.464   1.358   1.347
 9627TIP3    H128845   3.472   1.279   1.293
 9627TIP3    H228846   3.447   1.325   1.435
 9628TIP3   OH228847   1.772   4.868   3.774
 9628TIP3    H128848   1.858   4.883   3.814
 9628TIP3    H228849   1.789   4.806   3.703
 9629TIP3   OH228850   0.692   0.719   5.353
 9629TIP3    H128851   0.708   0.641   5.405
 9629TIP3    H228852   0.766   0.777   5.372
 9630TIP3   OH228853   0.055   4.749   0.948
 9630TIP3    H128854   0.037   4.655   0.945
 9630TIP3    H228855  -0.024   4.787   0.987
 9631TIP3   OH228856   6.211   2.651   0.733
 9631TIP3    H128857   6.171   2.692   0.657
 9631TIP3    H228858   6.212   2.719   0.800
 9632TIP3   OH228859   4.139   6.506   2.837
 9632TIP3    H128860   4.069   6.557   2.878
 9632TIP3    H228861   4.163   6.555   2.759
 9633TIP3   OH228862   6.657   6.022   2.569
 9633TIP3    H128863   6.725   6.076   2.529
 9633TIP3    H228864   6.581   6.079   2.573
 9634TIP3   OH228865   2.614   1.607   0.215
 9634TIP3    H128866   2.542   1.574   0.161
 9634TIP3    H228867   2.693   1.572   0.174
 9635TIP3   OH228868   7.137   4.377   0.174
 9635TIP3    H128869   7.139   4.470   0.153
 9635TIP3    H228870   7.114   4.334   0.092
 9636TIP3   OH228871   3.524   4.350   0.146
 9636TIP3    H128872   3.606   4.394   0.168
 9636TIP3    H228873   3.551   4.271   0.099
 9637TIP3   OH228874   1.195   6.282   4.722
 9637TIP3    H128875   1.145   6.225   4.663
 9637TIP3    H228876   1.133   6.307   4.790
 9638TIP3   OH228877   6.993   5.849   5.324
 9638TIP3    H128878   6.948   5.769   5.296
 9638TIP3    H228879   7.052   5.871   5.252
 9639TIP3   OH228880   3.339   2.853   4.030
 9639TIP3    H128881   3.391   2.791   4.081
 9639TIP3    H228882   3.249   2.828   4.048
 9640TIP3   OH228883   0.634   4.052   5.697
 9640TIP3    H128884   0.560   4.001   5.665
 9640TIP3    H228885   0.597   4.108   5.765
 9641TIP3   OH228886   1.289   1.388   3.248
 9641TIP3    H128887   1.274   1.475   3.212
 9641TIP3    H228888   1.304   1.402   3.341
 9642TIP3   OH228889   1.320   2.741   1.761
 9642TIP3    H128890   1.336   2.815   1.820
 9642TIP3    H228891   1.404   2.725   1.719
 9643TIP3   OH228892   3.013   4.624   3.528
 9643TIP3    H128893   2.936   4.646   3.582
 9643TIP3    H228894   3.072   4.698   3.541
 9644TIP3   OH228895   3.591   2.293   2.160
 9644TIP3    H128896   3.514   2.346   2.144
 9644TIP3    H228897   3.627   2.275   2.073
 9645TIP3   OH228898   5.074   1.187   1.835
 9645TIP3    H128899   5.046   1.120   1.773
 9645TIP3    H228900   5.017   1.262   1.818
 9646TIP3   OH228901   3.299   3.193   5.501
 9646TIP3    H128902   3.272   3.259   5.566
 9646TIP3    H228903   3.375   3.151   5.540
 9647TIP3   OH228904   6.084   5.899   4.479
 9647TIP3    H128905   6.046   5.981   4.448
 9647TIP3    H228906   6.067   5.836   4.409
 9648TIP3   OH228907   2.525   3.440   4.895
 9648TIP3    H128908   2.615   3.420   4.920
 9648TIP3    H228909   2.472   3.370   4.935
 9649TIP3   OH228910   0.981   4.339   1.810
 9649TIP3    H128911   1.051   4.383   1.763
 9649TIP3    H228912   1.020   4.256   1.839
 9650TIP3   OH228913   4.763   4.340   3.349
 9650TIP3    H128914   4.737   4.425   3.384
 9650TIP3    H228915   4.724   4.277   3.409
 9651TIP3   OH228916   2.949   1.941   5.233
 9651TIP3    H128917   2.996   1.897   5.304
 9651TIP3    H228918   3.003   1.927   5.156
 9652TIP3   OH228919   4.982   4.831   0.549
 9652TIP3    H128920   5.015   4.902   0.494
 9652TIP3    H228921   4.903   4.866   0.589
 9653TIP3   OH228922   0.590   5.846   2.538
 9653TIP3    H128923   0.540   5.783   2.590
 9653TIP3    H228924   0.641   5.792   2.478
 9654TIP3   OH228925   1.514   3.009   0.840
 9654TIP3    H128926   1.462   3.079   0.802
 9654TIP3    H228927   1.513   2.940   0.774
 9655TIP3   OH228928   5.273   1.540   4.680
 9655TIP3    H128929   5.254   1.538   4.586
 9655TIP3    H228930   5.367   1.556   4.685
 9656TIP3   OH228931   0.189   3.055   1.537
 9656TIP3    H128932   0.139   3.035   1.617
 9656TIP3    H228933   0.245   2.979   1.524
 9657TIP3   OH228934   7.032   1.571   4.981
 9657TIP3    H128935   7.077   1.616   5.053
 9657TIP3    H228936   6.940   1.595   4.991
 9658TIP3   OH228937   6.386   4.374   3.099
 9658TIP3    H128938   6.303   4.377   3.050
 9658TIP3    H228939   6.363   4.407   3.186
 9659TIP3   OH228940   4.885   0.693   3.499
 9659TIP3    H128941   4.918   0.751   3.430
 9659TIP3    H228942   4.950   0.701   3.570
 9660TIP3   OH228943   0.633   4.795   4.707
 9660TIP3    H128944   0.646   4.815   4.615
 9660TIP3    H228945   0.620   4.880   4.749
 9661TIP3   OH228946   5.762   4.316   3.911
 9661TIP3    H128947   5.735   4.266   3.834
 9661TIP3    H228948   5.713   4.278   3.983
 9662TIP3   OH228949   2.794   2.645   2.741
 9662TIP3    H128950   2.819   2.737   2.737
 9662TIP3    H228951   2.861   2.604   2.796
 9663TIP3   OH228952   4.321   5.796   4.033
 9663TIP3    H128953   4.339   5.886   4.059
 9663TIP3    H228954   4.320   5.747   4.115
 9664TIP3   OH228955   5.530   2.872   4.018
 9664TIP3    H128956   5.581   2.851   3.940
 9664TIP3    H228957   5.492   2.958   3.998
 9665TIP3   OH228958   4.080   5.624   3.969
 9665TIP3    H128959   4.150   5.669   4.017
 9665TIP3    H228960   4.006   5.684   3.973
 9666TIP3   OH228961   5.256   0.204   0.436
 9666TIP3    H128962   5.256   0.111   0.460
 9666TIP3    H228963   5.200   0.209   0.359
 9667TIP3   OH228964   2.607   5.942   0.956
 9667TIP3    H128965   2.652   6.003   1.014
 9667TIP3    H228966   2.639   5.964   0.868
 9668TIP3   OH228967   6.580   6.586   1.777
 9668TIP3    H128968   6.609   6.613   1.864
 9668TIP3    H228969   6.486   6.604   1.776
 9669TIP3   OH228970   6.535   5.568   3.117
 9669TIP3    H128971   6.612   5.556   3.172
 9669TIP3    H228972   6.461   5.557   3.177
 9670TIP3   OH228973   6.774   2.786   0.067
 9670TIP3    H128974   6.805   2.809   0.154
 9670TIP3    H228975   6.679   2.797   0.071
 9671TIP3   OH228976   2.916   6.678   2.993
 9671TIP3    H128977   2.957   6.764   2.981
 9671TIP3    H228978   2.860   6.689   3.070
 9672TIP3   OH228979   0.590   1.262   0.912
 9672TIP3    H128980   0.640   1.257   0.830
 9672TIP3    H228981   0.498   1.263   0.884
 9673TIP3   OH228982   6.340   1.536   4.554
 9673TIP3    H128983   6.319   1.443   4.568
 9673TIP3    H228984   6.328   1.549   4.459
 9674TIP3   OH228985   4.129   1.356   1.260
 9674TIP3    H128986   4.076   1.309   1.197
 9674TIP3    H228987   4.139   1.444   1.223
 9675TIP3   OH228988   6.943   4.079   4.925
 9675TIP3    H128989   6.908   4.071   5.014
 9675TIP3    H228990   6.986   3.995   4.909
 9676TIP3   OH228991   5.451   4.953   0.110
 9676TIP3    H128992   5.477   4.959   0.018
 9676TIP3    H228993   5.438   4.860   0.125
 9677TIP3   OH228994   1.555   5.193   5.029
 9677TIP3    H128995   1.512   5.225   5.108
 9677TIP3    H228996   1.565   5.270   4.973
 9678TIP3   OH228997   2.389   2.511   4.821
 9678TIP3    H128998   2.433   2.588   4.857
 9678TIP3    H228999   2.361   2.538   4.734
 9679TIP3   OH229000   3.290   3.612   2.028
 9679TIP3    H129001   3.242   3.644   2.104
 9679TIP3    H229002   3.316   3.691   1.980
 9680TIP3   OH229003   3.315   1.860   1.403
 9680TIP3    H129004   3.248   1.846   1.336
 9680TIP3    H229005   3.312   1.953   1.422
 9681TIP3   OH229006   6.189   4.327   1.940
 9681TIP3    H129007   6.205   4.420   1.924
 9681TIP3    H229008   6.238   4.282   1.872
 9682TIP3   OH229009   4.391   5.299   4.244
 9682TIP3    H129010   4.326   5.303   4.174
 9682TIP3    H229011   4.369   5.219   4.293
 9683TIP3   OH229012   0.596   5.297   0.094
 9683TIP3    H129013   0.615   5.390   0.081
 9683TIP3    H229014   0.582   5.289   0.189
 9684TIP3   OH229015   3.838   3.130   1.830
 9684TIP3    H129016   3.764   3.106   1.885
 9684TIP3    H229017   3.915   3.100   1.879
 9685TIP3   OH229018   0.533   3.463   3.637
 9685TIP3    H129019   0.535   3.532   3.703
 9685TIP3    H229020   0.461   3.406   3.663
 9686TIP3   OH229021   5.285   1.956   0.963
 9686TIP3    H129022   5.356   1.964   1.027
 9686TIP3    H229023   5.315   1.886   0.904
 9687TIP3   OH229024   5.855   4.069   2.281
 9687TIP3    H129025   5.883   4.134   2.345
 9687TIP3    H229026   5.778   4.028   2.320
 9688TIP3   OH229027   3.002   4.349   1.688
 9688TIP3    H129028   3.025   4.287   1.756
 9688TIP3    H229029   2.921   4.314   1.650
 9689TIP3   OH229030   2.183   0.379   5.779
 9689TIP3    H129031   2.091   0.394   5.797
 9689TIP3    H229032   2.219   0.349   5.862
 9690TIP3   OH229033   3.327   1.535   0.264
 9690TIP3    H129034   3.302   1.445   0.285
 9690TIP3    H229035   3.256   1.588   0.299
 9691TIP3   OH229036   0.366   2.074   5.763
 9691TIP3    H129037   0.460   2.088   5.753
 9691TIP3    H229038   0.328   2.110   5.684
 9692TIP3   OH229039   2.820   5.971   1.806
 9692TIP3    H129040   2.830   5.912   1.732
 9692TIP3    H229041   2.853   5.921   1.881
 9693TIP3   OH229042   6.282   1.171   1.995
 9693TIP3    H129043   6.205   1.113   1.997
 9693TIP3    H229044   6.353   1.116   1.963
 9694TIP3   OH229045   6.706   2.265   0.554
 9694TIP3    H129046   6.614   2.271   0.579
 9694TIP3    H229047   6.723   2.171   0.544
 9695TIP3   OH229048   4.399   0.180   2.557
 9695TIP3    H129049   4.358   0.252   2.509
 9695TIP3    H229050   4.490   0.208   2.569
 9696TIP3   OH229051   4.761   3.584   1.057
 9696TIP3    H129052   4.752   3.601   1.151
 9696TIP3    H229053   4.855   3.582   1.042
 9697TIP3   OH229054   6.961   0.715   2.360
 9697TIP3    H129055   6.950   0.802   2.398
 9697TIP3    H229056   6.893   0.709   2.293
 9698TIP3   OH229057   2.690   5.997   3.177
 9698TIP3    H129058   2.713   6.052   3.252
 9698TIP3    H229059   2.622   6.046   3.132
 9699TIP3   OH229060   6.647   0.728   4.868
 9699TIP3    H129061   6.603   0.672   4.804
 9699TIP3    H229062   6.726   0.759   4.823
 9700TIP3   OH229063   2.445   6.745   1.247
 9700TIP3    H129064   2.488   6.680   1.303
 9700TIP3    H229065   2.510   6.766   1.180
 9701TIP3   OH229066   1.198   5.559   2.305
 9701TIP3    H129067   1.196   5.506   2.226
 9701TIP3    H229068   1.272   5.525   2.355
 9702TIP3   OH229069   5.422   2.255   5.705
 9702TIP3    H129070   5.422   2.170   5.660
 9702TIP3    H229071   5.353   2.305   5.660
 9703TIP3   OH229072   2.393   2.100   0.574
 9703TIP3    H129073   2.353   2.100   0.660
 9703TIP3    H229074   2.400   2.192   0.550
 9704TIP3   OH229075   3.546   3.564   4.873
 9704TIP3    H129076   3.608   3.579   4.801
 9704TIP3    H229077   3.543   3.648   4.919
 9705TIP3   OH229078   2.304   6.062   4.037
 9705TIP3    H129079   2.379   6.027   4.084
 9705TIP3    H229080   2.312   6.157   4.046
 9706TIP3   OH229081   1.944   5.814   5.159
 9706TIP3    H129082   1.915   5.875   5.226
 9706TIP3    H229083   1.864   5.767   5.134
 9707TIP3   OH229084   1.729   2.465   1.392
 9707TIP3    H129085   1.800   2.478   1.454
 9707TIP3    H229086   1.708   2.553   1.360
 9708TIP3   OH229087   3.056   1.334   1.848
 9708TIP3    H129088   2.966   1.344   1.817
 9708TIP3    H229089   3.102   1.410   1.812
 9709TIP3   OH229090   1.804   3.004   0.760
 9709TIP3    H129091   1.724   3.050   0.784
 9709TIP3    H229092   1.842   3.058   0.690
 9710TIP3   OH229093   6.612   1.986   0.894
 9710TIP3    H129094   6.598   2.081   0.889
 9710TIP3    H229095   6.681   1.976   0.960
 9711TIP3   OH229096   6.271   4.183   1.700
 9711TIP3    H129097   6.269   4.090   1.721
 9711TIP3    H229098   6.187   4.200   1.657
 9712TIP3   OH229099   6.448   5.017   4.171
 9712TIP3    H129100   6.504   4.964   4.227
 9712TIP3    H229101   6.399   4.953   4.119
 9713TIP3   OH229102   2.671   6.668   2.712
 9713TIP3    H129103   2.754   6.622   2.715
 9713TIP3    H229104   2.694   6.759   2.691
 9714TIP3   OH229105   5.129   1.604   1.591
 9714TIP3    H129106   5.137   1.677   1.652
 9714TIP3    H229107   5.061   1.548   1.629
 9715TIP3   OH229108   0.615   3.645   2.868
 9715TIP3    H129109   0.675   3.587   2.915
 9715TIP3    H229110   0.540   3.589   2.847
 9716TIP3   OH229111   0.853   5.668   1.883
 9716TIP3    H129112   0.892   5.597   1.832
 9716TIP3    H229113   0.822   5.626   1.963
 9717TIP3   OH229114   4.145   5.835   5.046
 9717TIP3    H129115   4.112   5.906   5.100
 9717TIP3    H229116   4.221   5.872   5.001
 9718TIP3   OH229117   4.728   4.806   5.387
 9718TIP3    H129118   4.794   4.866   5.351
 9718TIP3    H229119   4.777   4.746   5.442
 9719TIP3   OH229120   3.002   2.434   2.326
 9719TIP3    H129121   3.059   2.504   2.295
 9719TIP3    H229122   3.048   2.354   2.299
 9720TIP3   OH229123   5.947   5.693   0.921
 9720TIP3    H129124   6.002   5.761   0.882
 9720TIP3    H229125   5.988   5.673   1.005
 9721TIP3   OH229126   0.062   5.671   2.582
 9721TIP3    H129127   0.042   5.718   2.501
 9721TIP3    H229128  -0.022   5.663   2.627
 9722TIP3   OH229129   2.300   2.979   0.599
 9722TIP3    H129130   2.260   2.980   0.512
 9722TIP3    H229131   2.322   2.887   0.615
 9723TIP3   OH229132   0.957   4.930   4.433
 9723TIP3    H129133   0.952   4.959   4.524
 9723TIP3    H229134   0.987   5.007   4.385
 9724TIP3   OH229135   4.163   3.709   2.394
 9724TIP3    H129136   4.075   3.740   2.376
 9724TIP3    H229137   4.220   3.765   2.341
 9725TIP3   OH229138   5.531   0.774   0.913
 9725TIP3    H129139   5.550   0.859   0.873
 9725TIP3    H229140   5.558   0.783   1.004
 9726TIP3   OH229141  -0.017   0.185   0.087
 9726TIP3    H129142   0.045   0.244   0.129
 9726TIP3    H229143   0.014   0.097   0.110
 9727TIP3   OH229144   1.458   6.616   5.771
 9727TIP3    H129145   1.368   6.630   5.802
 9727TIP3    H229146   1.447   6.576   5.684
 9728TIP3   OH229147   3.132   5.568   2.123
 9728TIP3    H129148   3.056   5.587   2.179
 9728TIP3    H229149   3.109   5.607   2.038
 9729TIP3   OH229150   3.050   4.185   2.924
 9729TIP3    H129151   3.059   4.094   2.896
 9729TIP3    H229152   3.135   4.224   2.906
 9730TIP3   OH229153   1.437   0.358   4.397
 9730TIP3    H129154   1.432   0.433   4.337
 9730TIP3    H229155   1.437   0.281   4.339
 9731TIP3   OH229156   2.223   0.023   2.463
 9731TIP3    H129157   2.293   0.004   2.526
 9731TIP3    H229158   2.150  -0.031   2.492
 9732TIP3   OH229159   3.183   0.062   3.613
 9732TIP3    H129160   3.197   0.148   3.573
 9732TIP3    H229161   3.101   0.071   3.661
 9733TIP3   OH229162   1.280   3.627   0.882
 9733TIP3    H129163   1.230   3.591   0.955
 9733TIP3    H229164   1.232   3.706   0.856
 9734TIP3   OH229165   2.307   0.533   2.506
 9734TIP3    H129166   2.294   0.502   2.596
 9734TIP3    H229167   2.294   0.455   2.452
 9735TIP3   OH229168   5.347   5.726   3.955
 9735TIP3    H129169   5.310   5.795   3.901
 9735TIP3    H229170   5.299   5.647   3.929
 9736TIP3   OH229171   3.152   6.069   0.716
 9736TIP3    H129172   3.076   6.052   0.772
 9736TIP3    H229173   3.120   6.058   0.627
 9737TIP3   OH229174   7.003   3.086   1.944
 9737TIP3    H129175   7.088   3.092   1.902
 9737TIP3    H229176   6.979   2.993   1.939
 9738TIP3   OH229177   6.706   2.928   0.672
 9738TIP3    H129178   6.641   2.895   0.734
 9738TIP3    H229179   6.657   2.990   0.618
 9739TIP3   OH229180   1.846   1.678   2.541
 9739TIP3    H129181   1.921   1.706   2.592
 9739TIP3    H229182   1.775   1.735   2.568
 9740TIP3   OH229183   6.718   4.944   2.488
 9740TIP3    H129184   6.667   5.020   2.461
 9740TIP3    H229185   6.772   4.923   2.412
 9741TIP3   OH229186   6.655   1.923   5.553
 9741TIP3    H129187   6.703   1.856   5.602
 9741TIP3    H229188   6.579   1.943   5.607
 9742TIP3   OH229189   4.338   5.267   5.006
 9742TIP3    H129190   4.258   5.260   4.954
 9742TIP3    H229191   4.383   5.344   4.972
 9743TIP3   OH229192   2.755   3.129   4.526
 9743TIP3    H129193   2.768   3.221   4.547
 9743TIP3    H229194   2.741   3.086   4.611
 9744TIP3   OH229195   2.833   1.541   0.070
 9744TIP3    H129196   2.861   1.624   0.031
 9744TIP3    H229197   2.888   1.475   0.028
 9745TIP3   OH229198   0.320   3.335   2.963
 9745TIP3    H129199   0.360   3.419   2.943
 9745TIP3    H229200   0.236   3.357   3.003
 9746TIP3   OH229201   2.164   4.403   4.441
 9746TIP3    H129202   2.244   4.360   4.410
 9746TIP3    H229203   2.175   4.409   4.536
 9747TIP3   OH229204   0.548   0.651   2.853
 9747TIP3    H129205   0.491   0.617   2.921
 9747TIP3    H229206   0.627   0.679   2.899
 9748TIP3   OH229207   6.347   5.897   4.591
 9748TIP3    H129208   6.338   5.895   4.686
 9748TIP3    H229209   6.257   5.906   4.559
 9749TIP3   OH229210   5.426   5.868   4.714
 9749TIP3    H129211   5.435   5.902   4.803
 9749TIP3    H229212   5.489   5.918   4.663
   7.21132   6.79891   5.88801   0.00000   0.00000  -2.40378   0.00000  -2.40378  -3.39945
