Title
29212
    1ASP      N    1   2.283   2.897   4.534 -1.0035 -0.4511 -0.1395
    1ASP    HT1    2   2.356   2.824   4.522  0.3163  0.5794  1.2567
    1ASP    HT2    3   2.197   2.897   4.474 -0.6247  0.9541 -0.7265
    1ASP    HT3    4   2.246   2.901   4.631 -0.2067  1.0779  0.1339
    1ASP     CA    5   2.370   3.026   4.520 -0.0194  0.1517 -0.1828
    1ASP     HA    6   2.298   3.100   4.488  0.0985 -0.8745 -3.0748
    1ASP     CB    7   2.432   3.062   4.665  0.3440 -0.1846  0.4207
    1ASP    HB1    8   2.444   3.172   4.657 -0.3654 -0.1786 -0.7724
    1ASP    HB2    9   2.524   3.003   4.683  1.9874  2.2457  0.5331
    1ASP     CG   10   2.331   3.050   4.773 -0.6545  0.8890  0.0303
    1ASP    OD1   11   2.207   3.042   4.749  0.4189  0.4798 -0.3853
    1ASP    OD2   12   2.379   3.071   4.887 -0.5281  0.2601  0.2116
    1ASP      C   13   2.466   3.032   4.401 -0.5603  0.2439 -0.1762
    1ASP      O   14   2.446   2.961   4.299 -0.2047 -0.5652 -0.4481
    2GLY      N   15   2.577   3.108   4.409  0.1186  0.2307  0.1502
    2GLY     HN   16   2.592   3.164   4.490 -0.0846 -1.1185  1.1607
    2GLY     CA   17   2.683   3.114   4.306 -0.2057 -0.1838  0.3864
    2GLY    HA1   18   2.682   3.018   4.258  2.3453 -1.0922  1.9534
    2GLY    HA2   19   2.779   3.141   4.349  0.8352 -1.0876 -1.2669
    2GLY      C   20   2.644   3.230   4.211 -0.5451 -0.2547  0.0003
    2GLY      O   21   2.528   3.245   4.182  0.6440  0.2418  0.4732
    3ASP      N   22   2.737   3.311   4.166 -0.2969  0.0137  0.1979
    3ASP     HN   23   2.829   3.306   4.204 -0.3319  2.4338  0.7772
    3ASP     CA   24   2.714   3.415   4.069  0.1124  0.9352  0.1784
    3ASP     HA   25   2.646   3.489   4.110  2.0090  2.7512  0.2473
    3ASP     CB   26   2.838   3.505   4.035 -0.6458 -0.3106 -0.1541
    3ASP    HB1   27   2.808   3.577   3.956  0.9172  0.1020 -0.4133
    3ASP    HB2   28   2.921   3.446   3.988  1.2126  2.8650 -1.1497
    3ASP     CG   29   2.895   3.583   4.142 -0.4726  0.4114  0.1170
    3ASP    OD1   30   2.853   3.583   4.263  0.0429  0.1141 -0.6374
    3ASP    OD2   31   2.993   3.654   4.106  0.0853 -0.0124  0.1637
    3ASP      C   32   2.650   3.356   3.943  0.0592  0.4439  0.4839
    3ASP      O   33   2.667   3.237   3.906  0.2621  0.1647 -0.1140
    4GLY      N   34   2.573   3.442   3.871  0.5478 -0.3814 -0.0595
    4GLY     HN   35   2.573   3.538   3.898 -1.2676 -0.9594  2.2759
    4GLY     CA   36   2.500   3.413   3.755  1.0305 -0.1296  0.1971
    4GLY    HA1   37   2.402   3.453   3.773  1.8001  2.1395 -0.3758
    4GLY    HA2   38   2.502   3.306   3.740  0.6275 -0.1031 -0.0541
    4GLY      C   39   2.541   3.497   3.637 -0.1948 -0.4595  0.2217
    4GLY      O   40   2.646   3.556   3.638  0.5462 -0.3063 -0.1526
    5PRO      N   41   2.464   3.501   3.525  0.0299  0.0276  0.1937
    5PRO     CD   42   2.342   3.415   3.513 -0.1014  0.6875 -0.1311
    5PRO    HD1   43   2.278   3.443   3.599  0.4694 -1.7996  1.1789
    5PRO    HD2   44   2.371   3.309   3.530 -0.9030  0.6828  1.3648
    5PRO     CA   45   2.463   3.615   3.428 -0.4054 -0.5944  0.4776
    5PRO     HA   46   2.550   3.603   3.364  0.4300 -2.2521  1.8108
    5PRO     CB   47   2.322   3.604   3.361 -0.4023  0.5818 -0.6788
    5PRO    HB1   48   2.333   3.625   3.253  1.1288  1.2924 -0.4033
    5PRO    HB2   49   2.253   3.676   3.410  0.4397  0.3870  0.8676
    5PRO     CG   50   2.278   3.460   3.382  0.3539 -0.6128  0.1874
    5PRO    HG1   51   2.168   3.454   3.387  0.3125  0.6223  1.8843
    5PRO    HG2   52   2.313   3.392   3.302 -1.3110 -2.0959  0.6795
    5PRO      C   53   2.482   3.753   3.491 -0.2117  0.1027 -0.2804
    5PRO      O   54   2.401   3.788   3.578  0.8556 -0.4162 -0.0748
    6GLY      N   55   2.579   3.836   3.459  0.1854 -1.1460 -0.2759
    6GLY     HN   56   2.641   3.795   3.392  2.6027 -1.0545  1.7590
    6GLY     CA   57   2.590   3.979   3.496 -0.0677 -0.3147 -0.0929
    6GLY    HA1   58   2.689   4.018   3.473  0.2419  0.3180  2.0532
    6GLY    HA2   59   2.571   3.988   3.602 -2.2040 -1.4279 -0.3347
    6GLY      C   60   2.486   4.063   3.439 -0.6168 -0.3330 -0.0060
    6GLY      O   61   2.426   4.028   3.341  0.0240  0.1234  0.2155
    7ASP      N   62   2.465   4.177   3.496  0.2824  0.4765 -0.0111
    7ASP     HN   63   2.520   4.204   3.575  0.1275 -0.7748  0.5423
    7ASP     CA   64   2.385   4.280   3.432  0.0154  0.2857 -0.5675
    7ASP     HA   65   2.298   4.229   3.393 -0.2097 -0.2239  0.5611
    7ASP     CB   66   2.328   4.373   3.540 -0.7947  0.0025 -0.5324
    7ASP    HB1   67   2.298   4.476   3.508  0.6364  0.5236 -0.2552
    7ASP    HB2   68   2.412   4.410   3.602 -0.1686 -2.8550  0.4370
    7ASP     CG   69   2.233   4.318   3.634  0.6082  0.3011 -0.7471
    7ASP    OD1   70   2.203   4.386   3.737 -0.0639  0.0004 -0.4295
    7ASP    OD2   71   2.189   4.201   3.619  0.2503 -0.5510  0.3040
    7ASP      C   72   2.459   4.360   3.324  0.2765 -0.1567  0.0856
    7ASP      O   73   2.574   4.396   3.347 -0.5034  0.3606  0.1747
    8PRO      N   74   2.401   4.382   3.209 -0.8782  0.2845 -0.2860
    8PRO     CD   75   2.281   4.314   3.156 -0.2265 -0.1618  0.2741
    8PRO    HD1   76   2.196   4.350   3.218 -0.4052 -0.8042  0.4106
    8PRO    HD2   77   2.289   4.203   3.157  2.0873 -0.0830 -1.7546
    8PRO     CA   78   2.437   4.498   3.126  0.3182 -0.2106 -0.0268
    8PRO     HA   79   2.533   4.471   3.085 -0.6392  0.2382 -2.7549
    8PRO     CB   80   2.333   4.497   3.002  0.2596  0.7540  0.2566
    8PRO    HB1   81   2.380   4.515   2.903  1.3437 -2.8222 -0.0338
    8PRO    HB2   82   2.262   4.579   3.021  0.5581  1.5969 -1.9845
    8PRO     CG   83   2.275   4.356   3.007 -0.3050 -0.6486 -0.3998
    8PRO    HG1   84   2.176   4.353   2.956 -0.2835 -1.3239 -0.4061
    8PRO    HG2   85   2.345   4.291   2.951  0.1448 -2.3444  1.9760
    8PRO      C   86   2.466   4.634   3.194 -0.2692 -0.6576 -0.4939
    8PRO      O   87   2.413   4.666   3.299  0.7343 -0.2198  0.1393
    9GLY      N   88   2.552   4.717   3.134  0.2628  0.3360  0.1687
    9GLY     HN   89   2.591   4.689   3.046 -3.2518 -0.4106 -1.3488
    9GLY     CA   90   2.587   4.850   3.191  0.1882  0.0349  0.5254
    9GLY    HA1   91   2.671   4.892   3.139  0.3623 -0.7153  0.1757
    9GLY    HA2   92   2.611   4.820   3.292 -0.2506 -3.5604 -0.2920
    9GLY      C   93   2.483   4.958   3.186 -0.3984 -0.0481  0.2568
    9GLY      O   94   2.368   4.947   3.150  0.5172  0.0414  0.4202
   10ASP      N   95   2.524   5.077   3.240  0.0980 -0.3634 -0.2932
   10ASP     HN   96   2.615   5.090   3.278 -0.0753  1.6154 -0.4503
   10ASP     CA   97   2.432   5.197   3.253 -0.0021  0.2848 -0.6070
   10ASP     HA   98   2.336   5.160   3.287  0.2926 -0.8725 -0.9904
   10ASP     CB   99   2.494   5.303   3.344  0.1325  0.1957 -0.6164
   10ASP    HB1  100   2.426   5.391   3.339 -0.0600 -0.0201 -2.2351
   10ASP    HB2  101   2.596   5.315   3.302 -0.2610 -1.0335 -2.0015
   10ASP     CG  102   2.504   5.268   3.488  0.4235 -0.1180 -0.6043
   10ASP    OD1  103   2.592   5.311   3.564 -0.5382 -0.3675  0.1732
   10ASP    OD2  104   2.408   5.200   3.543  0.0597  0.1119 -0.2343
   10ASP      C  105   2.385   5.254   3.119 -0.3173  0.2773  0.4163
   10ASP      O  106   2.460   5.263   3.018  0.5528 -0.1947 -0.6035
   11GLY      N  107   2.257   5.308   3.113 -0.6935  0.0980  0.2099
   11GLY     HN  108   2.208   5.321   3.199  0.2698 -0.2584  0.8210
   11GLY     CA  109   2.195   5.351   2.987 -0.0825 -0.6722  0.1096
   11GLY    HA1  110   2.208   5.274   2.912  2.0884  0.9850 -1.3185
   11GLY    HA2  111   2.247   5.441   2.958  0.9257 -0.9078  1.1379
   11GLY      C  112   2.040   5.381   3.016  1.1749 -0.2958 -0.4264
   11GLY    OT1  113   1.996   5.376   3.132  1.0188  0.3771  0.1531
   11GLY    OT2  114   1.966   5.409   2.922 -0.2919  0.2682  0.3941
   12SOD    SOD  115   6.036   1.475   2.800  0.6268 -0.7125  0.4622
   13SOD    SOD  116   3.862   1.842   4.408 -0.0738  0.0829  0.3145
   14SOD    SOD  117   2.640   1.733   0.583 -0.0033  0.3175 -0.3743
   15SOD    SOD  118   6.195   1.909   4.402 -0.1071  0.1213  0.0522
   16SOD    SOD  119   4.944   2.378   4.670  0.2668 -0.3546 -0.3588
   17SOD    SOD  120   0.267   4.925   5.365 -0.2115  0.5790 -0.2453
   18SOD    SOD  121   4.680   3.988   4.923 -0.6196 -0.0705 -0.0928
   19SOD    SOD  122   5.398   5.057   1.302 -0.0833 -0.3289 -0.1081
   20SOD    SOD  123   2.847   2.247   0.974 -0.1800  0.0682  0.3055
   21SOD    SOD  124   3.696   5.656   3.252  0.0757  0.0838 -0.0308
   22SOD    SOD  125   6.045   0.414   1.129 -0.0113  0.3030 -0.7017
   23SOD    SOD  126   0.380   6.260   4.180 -0.5361  0.5695 -0.1017
   24SOD    SOD  127   1.240   4.492   5.319 -0.2315  0.5451 -0.6173
   25SOD    SOD  128   6.734   4.833   2.930 -0.1702 -0.0996 -0.2767
   26SOD    SOD  129   1.908   5.216   1.599  0.2420 -0.2548 -0.4181
   27SOD    SOD  130   5.283   6.684   5.296  0.6662  0.8009 -0.7445
   28SOD    SOD  131   7.076   6.756   5.196  0.4504 -0.1196 -0.2465
   29SOD    SOD  132   3.477   5.675   2.257  0.4590 -0.0679 -0.0784
   30SOD    SOD  133   6.282   3.329   1.930 -0.3477 -0.3219  0.2142
   31SOD    SOD  134   5.427   0.743   5.143  0.6031 -0.4550  0.4135
   32SOD    SOD  135   1.613   2.350   0.786 -0.2041 -0.6821  0.6199
   33SOD    SOD  136   1.049   2.898   4.528 -0.7297 -0.1640  0.2208
   34SOD    SOD  137   6.530   0.213   1.511 -0.4621  0.4342  0.3367
   35SOD    SOD  138   3.125   4.590   1.066 -0.0625 -0.1697  0.5909
   36SOD    SOD  139   3.146   5.529   0.260  0.2635  0.1704  0.0063
   37SOD    SOD  140   6.423   4.022   5.866 -0.3780  0.0635 -0.2071
   38SOD    SOD  141   1.817   0.395   3.577  0.8255  0.2416 -0.3954
   39SOD    SOD  142   2.337   5.591   1.946  0.0360  0.0256 -0.2944
   40SOD    SOD  143   5.323   3.404   2.936  0.7467 -0.1325  0.1088
   41SOD    SOD  144   4.654   2.526   0.044  0.0789 -0.0141 -0.2352
   42SOD    SOD  145   3.690   4.880   4.536 -0.5200 -0.3633  0.4608
   43CLA    CLA  146   1.484   4.864   1.581 -0.1765 -0.2022  0.0088
   44CLA    CLA  147   2.120   4.375   0.645 -0.2540  0.0550  0.2617
   45CLA    CLA  148   1.106   2.940   4.059 -0.1623 -0.3617 -0.0141
   46CLA    CLA  149   6.074   1.979   5.272  0.0162 -0.3817  0.1965
   47CLA    CLA  150   0.371   4.880   3.463  0.4132 -0.0273  0.1252
   48CLA    CLA  151   3.539   4.625   1.683  0.0774  0.2276  0.1851
   49CLA    CLA  152   0.370   0.126   2.979  0.2136 -0.2183 -0.0615
   50CLA    CLA  153   5.566   0.605   1.697  0.4233 -0.0927  0.2874
   51CLA    CLA  154   3.058   5.798   1.447 -0.0193  0.3792  0.1396
   52CLA    CLA  155   6.503   1.642   3.414 -0.0940  0.5906 -0.4918
   53CLA    CLA  156   4.477   4.663   4.150 -0.0379  0.0597  0.8324
   54CLA    CLA  157   3.770   3.870   0.060  0.0377  0.0351 -0.0477
   55CLA    CLA  158   6.352   1.449   1.258 -0.3273  0.0548 -0.2259
   56CLA    CLA  159   0.233   5.406   4.300  0.2119  0.0250 -0.0235
   57CLA    CLA  160   5.413   3.696   5.321 -0.2646 -0.4198  0.3421
   58CLA    CLA  161   5.582   1.415   5.295 -0.5002  0.3966  0.0026
   59CLA    CLA  162   4.887   4.950   4.812 -0.0968  0.0805 -0.5036
   60CLA    CLA  163   0.717   3.785   4.309  0.0759 -0.1657 -0.2912
   61CLA    CLA  164   0.168   5.586   5.723  0.6359  0.0057 -0.5992
   62CLA    CLA  165   4.679   4.861   0.697  0.4293 -0.0063  0.1509
   63CLA    CLA  166   6.321   3.415   5.032  0.1537 -0.0603 -0.2542
   64CLA    CLA  167   2.528   1.924   0.986  0.3297  0.1374  0.0528
   65CLA    CLA  168   0.023   0.418   3.553 -0.1460 -0.1490 -0.1013
   66CLA    CLA  169   1.674   5.752   1.156 -0.1240 -0.0511  0.1975
   67CLA    CLA  170   5.187   5.532   0.489  0.3309 -0.0605  0.1128
   68CLA    CLA  171   0.870   2.113   0.646  0.4732  0.0971  0.2970
   69CLA    CLA  172   5.498   3.728   0.424 -0.0218 -0.3583  0.0051
   70TIP3   OH2  173   1.161   6.119   2.156  0.7717 -0.0563  0.2496
   70TIP3    H1  174   1.255   6.115   2.142  0.9309  0.7776  0.9829
   70TIP3    H2  175   1.151   6.167   2.239 -0.2297 -1.3837  0.9517
   71TIP3   OH2  176   0.894   0.207   2.308 -0.2185 -0.1674 -0.0479
   71TIP3    H1  177   0.819   0.166   2.352 -0.4368 -0.0061 -0.2676
   71TIP3    H2  178   0.952   0.133   2.287 -0.3965 -0.3127 -0.0345
   72TIP3   OH2  179   5.601   2.786   4.384 -0.2036  0.0484  0.1699
   72TIP3    H1  180   5.631   2.755   4.469 -1.0292  0.0535  0.4798
   72TIP3    H2  181   5.594   2.881   4.393  0.7692  0.1697 -0.2630
   73TIP3   OH2  182   1.012   5.173   4.438  0.3557  0.2180  0.4353
   73TIP3    H1  183   1.088   5.203   4.388  0.8215 -0.0163  0.9956
   73TIP3    H2  184   0.966   5.114   4.377  0.7130  0.2254  0.1529
   74TIP3   OH2  185   1.866   4.120   5.579  0.5242  0.0045  0.1810
   74TIP3    H1  186   1.846   4.117   5.485 -0.3974 -0.8796  0.3907
   74TIP3    H2  187   1.919   4.042   5.594  0.4818  0.0250  0.4305
   75TIP3   OH2  188   6.898   5.126   1.074  0.2271  0.1051 -0.2382
   75TIP3    H1  189   6.949   5.170   1.006 -0.1464 -0.8625 -1.1708
   75TIP3    H2  190   6.829   5.188   1.097 -0.2496  0.0603 -1.4791
   76TIP3   OH2  191   2.736   3.467   2.164  0.0465 -0.2354 -0.5224
   76TIP3    H1  192   2.660   3.445   2.109  0.6681  0.3206 -1.6484
   76TIP3    H2  193   2.777   3.383   2.183 -0.9066 -0.5563  0.2069
   77TIP3   OH2  194   5.557   4.312   2.082 -0.1019  0.3646 -0.4235
   77TIP3    H1  195   5.485   4.372   2.103 -0.6456 -0.2362 -0.5339
   77TIP3    H2  196   5.573   4.264   2.164  1.3559  1.6791  0.1197
   78TIP3   OH2  197   0.531   3.414   1.488  0.1123  0.1671 -0.0212
   78TIP3    H1  198   0.588   3.386   1.417 -1.4627  0.4823 -1.4647
   78TIP3    H2  199   0.444   3.420   1.449 -1.1872 -1.4564  2.3702
   79TIP3   OH2  200   7.018   0.619   0.444  0.3087 -1.0107 -0.4695
   79TIP3    H1  201   6.931   0.643   0.412  0.2018 -0.4676  0.1999
   79TIP3    H2  202   7.033   0.531   0.411 -0.5019 -1.1111 -0.5767
   80TIP3   OH2  203   0.976   1.402   4.285 -0.2340 -0.5751  0.1371
   80TIP3    H1  204   0.882   1.423   4.286 -0.8550 -2.5694 -2.7856
   80TIP3    H2  205   0.985   1.339   4.214  3.5585  0.4917 -0.5293
   81TIP3   OH2  206   3.863   6.432   1.382 -0.5477  0.3690  0.4602
   81TIP3    H1  207   3.901   6.347   1.403 -1.0895 -0.1360 -0.5461
   81TIP3    H2  208   3.897   6.454   1.296 -0.9015  0.8934  0.4463
   82TIP3   OH2  209   1.804   3.494   3.424 -0.0617  0.1352  0.7939
   82TIP3    H1  210   1.888   3.462   3.391 -0.1513 -1.4711  2.0017
   82TIP3    H2  211   1.765   3.540   3.349  1.4909  0.1510 -0.0464
   83TIP3   OH2  212   6.941   3.362   0.239  0.6179 -0.4630 -0.3274
   83TIP3    H1  213   6.907   3.395   0.323  0.0329 -0.5085 -0.5414
   83TIP3    H2  214   6.916   3.270   0.238  0.6390 -0.4663 -0.5403
   84TIP3   OH2  215   4.925   4.886   4.024 -0.2689 -0.5456  0.3765
   84TIP3    H1  216   4.910   4.950   3.955 -0.2930 -2.1438 -1.1824
   84TIP3    H2  217   4.855   4.821   4.012  0.2598 -1.3250  1.3487
   85TIP3   OH2  218   5.508   2.266   3.890  0.3080 -0.1404 -0.3232
   85TIP3    H1  219   5.562   2.239   3.815 -0.2039 -0.7903 -0.4701
   85TIP3    H2  220   5.539   2.354   3.912  0.5649 -0.0031 -1.2019
   86TIP3   OH2  221   6.984   4.643   1.045  0.0805 -0.0559  0.5312
   86TIP3    H1  222   6.998   4.549   1.058 -1.1861 -0.5440 -1.2095
   86TIP3    H2  223   7.070   4.676   1.019  0.2995 -0.9681  0.0311
   87TIP3   OH2  224   6.918   2.928   0.228 -0.2462  0.2996  0.1984
   87TIP3    H1  225   6.916   2.844   0.183  2.6529  0.9675 -1.4560
   87TIP3    H2  226   6.944   2.907   0.318  0.4044 -0.6122 -0.1859
   88TIP3   OH2  227   0.227   0.588   3.267 -0.5580  0.1915 -0.8737
   88TIP3    H1  228   0.206   0.495   3.269  2.4625 -0.6129  1.6488
   88TIP3    H2  229   0.187   0.623   3.347 -0.2540  0.6746 -0.9300
   89TIP3   OH2  230   1.046   0.299   3.972  0.5134  0.2949  0.2971
   89TIP3    H1  231   1.093   0.231   4.020  0.2165  0.6884  1.1696
   89TIP3    H2  232   0.967   0.315   4.024  0.0171  0.5041 -0.5005
   90TIP3   OH2  233   1.315   3.608   4.262 -0.1134 -0.5880  0.1192
   90TIP3    H1  234   1.301   3.677   4.327  0.8996  0.3540 -0.6234
   90TIP3    H2  235   1.311   3.653   4.178 -0.8378 -1.6953 -0.4628
   91TIP3   OH2  236   0.996   0.013   3.561 -0.5465 -0.2659 -0.0817
   91TIP3    H1  237   0.995   0.089   3.620  2.4914 -0.2214  0.0805
   91TIP3    H2  238   1.046   0.043   3.485 -2.6556 -0.9580 -1.8277
   92TIP3   OH2  239   4.255   1.133   1.732 -0.4117 -0.2245 -0.2192
   92TIP3    H1  240   4.312   1.166   1.802  0.7352  1.6364 -1.9243
   92TIP3    H2  241   4.303   1.059   1.695 -0.7612 -0.8598  0.5737
   93TIP3   OH2  242   4.083   5.952   0.326 -0.6207  0.1289  0.1943
   93TIP3    H1  243   3.990   5.956   0.302 -0.3216 -1.7619 -1.5218
   93TIP3    H2  244   4.103   5.858   0.326  1.9457  0.5677 -2.1891
   94TIP3   OH2  245   2.583   4.980   0.307  0.5969  0.3477  0.2343
   94TIP3    H1  246   2.669   4.984   0.266  0.0805 -0.8056 -1.0247
   94TIP3    H2  247   2.538   4.907   0.264  0.1571 -1.2688  3.1143
   95TIP3   OH2  248   3.946   1.194   5.671 -0.2983  0.5091  0.2455
   95TIP3    H1  249   3.899   1.275   5.690 -1.2171  0.1660 -0.4821
   95TIP3    H2  250   3.881   1.137   5.631  0.4382 -0.4451  0.3583
   96TIP3   OH2  251   2.791   3.913   1.287  0.0953  0.5974 -0.3359
   96TIP3    H1  252   2.790   3.993   1.234  0.9546 -0.0557 -1.3763
   96TIP3    H2  253   2.869   3.866   1.258 -0.4034 -0.6377  0.2552
   97TIP3   OH2  254   0.805   4.233   2.644  0.3221  0.5290 -0.3129
   97TIP3    H1  255   0.872   4.236   2.711 -0.7892  1.9306  0.7786
   97TIP3    H2  256   0.825   4.306   2.586 -0.4548  1.1909  0.2351
   98TIP3   OH2  257   6.639   3.758   4.934  0.3005 -0.1358 -0.3338
   98TIP3    H1  258   6.550   3.794   4.930 -0.0511 -0.9893 -0.3951
   98TIP3    H2  259   6.635   3.691   5.002  1.0144  0.1065 -0.0435
   99TIP3   OH2  260   4.900   5.256   3.452 -0.2531  0.1046  0.2850
   99TIP3    H1  261   4.901   5.335   3.506  1.8724 -0.4796  1.2275
   99TIP3    H2  262   4.862   5.188   3.508  1.5553 -0.3992  0.9996
  100TIP3   OH2  263   3.077   0.176   0.939 -0.5683 -0.3760  0.3055
  100TIP3    H1  264   3.144   0.109   0.927 -0.9650 -0.5651 -1.0832
  100TIP3    H2  265   3.108   0.228   1.013  0.3110 -1.4063  0.6871
  101TIP3   OH2  266   0.879   5.969   2.398  0.1951 -0.3075  0.2133
  101TIP3    H1  267   0.872   6.020   2.317  0.8014 -0.5213  0.0241
  101TIP3    H2  268   0.801   5.914   2.399 -1.5594  2.0126  1.4112
  102TIP3   OH2  269   6.185   0.461   0.332 -0.0731 -0.0828 -0.1769
  102TIP3    H1  270   6.205   0.552   0.351  3.4682 -0.7611  0.1587
  102TIP3    H2  271   6.245   0.438   0.260 -1.2644 -2.0144 -0.6296
  103TIP3   OH2  272   6.405   2.568   2.476  0.1304  0.0451  0.0525
  103TIP3    H1  273   6.484   2.619   2.455 -0.7693  1.1301 -0.8164
  103TIP3    H2  274   6.432   2.477   2.468  1.3323  0.4000 -0.0958
  104TIP3   OH2  275   2.663   4.204   5.461  0.6486  0.0923  0.1171
  104TIP3    H1  276   2.715   4.204   5.380  0.6372 -0.4895  0.1081
  104TIP3    H2  277   2.725   4.229   5.529  0.5330  1.1490 -0.1414
  105TIP3   OH2  278   3.307   4.046   1.706 -0.2670  0.4023  0.1869
  105TIP3    H1  279   3.218   4.048   1.669 -0.5247 -1.4406  0.5808
  105TIP3    H2  280   3.295   4.009   1.793  0.5984  2.7311  1.3694
  106TIP3   OH2  281   4.197   2.199   0.381  0.3888  0.2267  0.4280
  106TIP3    H1  282   4.275   2.151   0.351  0.1266 -0.7884  1.3026
  106TIP3    H2  283   4.210   2.210   0.475 -1.5091 -2.0049  1.0635
  107TIP3   OH2  284   3.956   0.082   3.839 -0.2499 -0.5136  0.3469
  107TIP3    H1  285   3.909   0.018   3.785  0.9150  0.4340 -1.9258
  107TIP3    H2  286   3.898   0.098   3.913 -2.5999 -0.8496 -1.3090
  108TIP3   OH2  287   4.030   4.681   0.285  0.3876 -0.0516 -0.0551
  108TIP3    H1  288   4.105   4.718   0.331  0.2780  0.2528 -0.1131
  108TIP3    H2  289   3.974   4.757   0.267 -0.1295 -0.3314  0.3522
  109TIP3   OH2  290   2.984   3.885   0.268 -0.0637 -0.7430 -0.4723
  109TIP3    H1  291   3.078   3.903   0.269  0.3593 -2.6907 -0.5590
  109TIP3    H2  292   2.957   3.894   0.360 -0.0034  0.7061 -0.5818
  110TIP3   OH2  293   4.095   2.673   3.557  0.2256  0.1204  0.8414
  110TIP3    H1  294   4.180   2.715   3.542  0.5294 -0.7747 -0.0663
  110TIP3    H2  295   4.117   2.581   3.569 -0.5774 -0.0336  1.1337
  111TIP3   OH2  296   3.661   1.838   0.190  0.2810  0.2112  0.4040
  111TIP3    H1  297   3.669   1.828   0.095  1.2826  0.1852  0.4755
  111TIP3    H2  298   3.723   1.775   0.226 -0.2621  0.0544  1.0882
  112TIP3   OH2  299   6.878   2.213   4.598 -0.4513  0.3862  0.3452
  112TIP3    H1  300   6.958   2.179   4.559 -1.1268 -0.2225 -0.5340
  112TIP3    H2  301   6.902   2.300   4.630  0.5353  0.2334  0.0502
  113TIP3   OH2  302   6.455   1.268   4.139  0.0276  0.6341 -0.4769
  113TIP3    H1  303   6.504   1.269   4.221 -1.8784 -1.7180  0.8537
  113TIP3    H2  304   6.493   1.196   4.089 -0.5231  0.3235 -0.4600
  114TIP3   OH2  305   4.023   2.073   3.498  0.0591  0.2166  0.1318
  114TIP3    H1  306   3.977   1.990   3.513 -0.7504  0.6010 -0.1192
  114TIP3    H2  307   4.019   2.117   3.583  0.6311 -0.0678  0.3073
  115TIP3   OH2  308   2.969   3.628   2.084 -0.4181  0.5488 -0.1358
  115TIP3    H1  309   3.030   3.554   2.081  0.0423  0.9492 -0.8704
  115TIP3    H2  310   2.888   3.590   2.119 -0.6419 -0.6453 -1.8236
  116TIP3   OH2  311   2.487   1.595   3.362  0.2720 -0.4347  0.0208
  116TIP3    H1  312   2.508   1.670   3.418 -0.9853 -0.4673  0.5727
  116TIP3    H2  313   2.411   1.624   3.311 -0.0183 -1.2038 -0.0014
  117TIP3   OH2  314   2.416   2.921   1.011  0.6039  0.0334 -0.6986
  117TIP3    H1  315   2.480   2.990   0.997  0.1227  0.5580 -0.3586
  117TIP3    H2  316   2.455   2.865   1.079  0.4992  0.6218 -0.1408
  118TIP3   OH2  317   3.411   2.452   4.879  0.0380 -1.0308 -0.3370
  118TIP3    H1  318   3.318   2.475   4.877 -0.6979 -3.6974 -0.5660
  118TIP3    H2  319   3.455   2.526   4.838 -1.5657  1.7982  2.5677
  119TIP3   OH2  320   5.826   1.902   3.102  0.0134 -0.0439  0.5405
  119TIP3    H1  321   5.822   1.899   3.006 -0.6135  2.0223  0.4723
  119TIP3    H2  322   5.915   1.873   3.122  1.1538  2.2326 -0.8630
  120TIP3   OH2  323   5.236   3.044   2.374  0.4103  0.2652  0.0959
  120TIP3    H1  324   5.151   3.012   2.402  0.2953 -0.8197 -1.3666
  120TIP3    H2  325   5.217   3.119   2.317  0.5161  0.7594  0.6911
  121TIP3   OH2  326   3.791   4.783   4.354 -0.5983 -0.7218 -0.2749
  121TIP3    H1  327   3.845   4.853   4.315  0.5387 -0.8201  1.0420
  121TIP3    H2  328   3.846   4.705   4.350 -0.6788 -0.8620  0.9708
  122TIP3   OH2  329   2.576   1.543   1.924  0.7293 -0.4025 -0.4077
  122TIP3    H1  330   2.508   1.582   1.869  1.7561 -0.2498 -1.6181
  122TIP3    H2  331   2.537   1.461   1.955 -0.2028 -0.0580 -0.6149
  123TIP3   OH2  332   3.936   6.104   0.879  0.0792 -0.0817 -0.0405
  123TIP3    H1  333   3.997   6.176   0.865 -0.6864  0.4564 -0.7370
  123TIP3    H2  334   3.865   6.143   0.931 -0.4000 -0.2955 -0.5287
  124TIP3   OH2  335   4.160   1.230   5.357 -0.4477 -0.3350 -0.2806
  124TIP3    H1  336   4.112   1.210   5.437 -1.2582 -1.6518 -1.0584
  124TIP3    H2  337   4.203   1.148   5.334  1.1342  0.4668 -0.3254
  125TIP3   OH2  338   7.024   1.402   3.234  0.2467 -0.3753 -0.3057
  125TIP3    H1  339   7.081   1.437   3.302 -0.7483 -0.7438  0.7515
  125TIP3    H2  340   6.957   1.352   3.282 -1.2033  0.3820 -1.4503
  126TIP3   OH2  341   4.139   5.497   0.636 -0.1125  0.3005 -0.1449
  126TIP3    H1  342   4.081   5.420   0.637  1.1622 -0.7065  1.6942
  126TIP3    H2  343   4.102   5.556   0.702  0.8141 -0.2990  0.9581
  127TIP3   OH2  344   6.860   4.016   5.426  0.1860  0.4541  0.3900
  127TIP3    H1  345   6.848   3.921   5.423 -0.4411  0.5275  0.4749
  127TIP3    H2  346   6.798   4.045   5.493 -0.5579  1.0666 -0.5458
  128TIP3   OH2  347   2.903   5.324   1.750  0.3157  0.1480  0.0216
  128TIP3    H1  348   2.843   5.294   1.682  1.3020  1.6766 -1.6140
  128TIP3    H2  349   2.907   5.419   1.739  0.6135  0.4425  2.1684
  129TIP3   OH2  350   3.596   5.805   1.141 -0.6301  0.3452 -0.3022
  129TIP3    H1  351   3.649   5.810   1.221  0.1749 -0.3112 -0.7732
  129TIP3    H2  352   3.506   5.809   1.172 -0.3207  2.1287  0.4802
  130TIP3   OH2  353   6.163   5.501   4.493 -0.4896  0.0323  0.4830
  130TIP3    H1  354   6.148   5.521   4.401  1.3597  0.7784  0.3024
  130TIP3    H2  355   6.247   5.541   4.513 -0.5374 -0.6860  2.3308
  131TIP3   OH2  356   1.466   4.535   2.766  0.3489 -0.6628 -0.3131
  131TIP3    H1  357   1.459   4.519   2.860 -0.8757  0.3385 -0.2138
  131TIP3    H2  358   1.399   4.479   2.727 -0.7105  0.5767 -0.3609
  132TIP3   OH2  359   2.074   0.696   0.480 -0.4105 -0.0297 -0.1457
  132TIP3    H1  360   1.987   0.696   0.521 -0.3118  1.8848  0.1603
  132TIP3    H2  361   2.113   0.779   0.506  0.9734 -0.2204 -1.4486
  133TIP3   OH2  362   4.884   4.497   4.181 -0.4240 -0.6349  0.2779
  133TIP3    H1  363   4.927   4.423   4.224 -1.4607  0.0864  2.7418
  133TIP3    H2  364   4.853   4.552   4.253 -2.6907  0.4519 -1.3924
  134TIP3   OH2  365   5.644   0.176   2.344 -0.2584  0.2573  0.4113
  134TIP3    H1  366   5.622   0.113   2.413 -0.6802 -0.2506 -0.1753
  134TIP3    H2  367   5.680   0.251   2.391  1.8062 -1.0485  1.0224
  135TIP3   OH2  368   5.678   1.186   3.345  0.0368  0.6555 -0.0759
  135TIP3    H1  369   5.700   1.161   3.435  1.6205  0.1194 -0.5862
  135TIP3    H2  370   5.613   1.256   3.355 -1.9236 -1.2189  1.4400
  136TIP3   OH2  371   5.362   2.004   5.562  0.2828 -0.2910  0.1365
  136TIP3    H1  372   5.332   1.942   5.495  0.2977 -1.2591  0.9977
  136TIP3    H2  373   5.457   2.006   5.553  0.1389  1.6981 -1.6589
  137TIP3   OH2  374   6.948   1.713   3.242 -0.4128  0.1553  0.0646
  137TIP3    H1  375   6.876   1.655   3.220 -1.8625  1.4536  1.1849
  137TIP3    H2  376   6.975   1.685   3.330  1.4290 -1.2103 -0.8665
  138TIP3   OH2  377   3.952   2.954   3.290 -0.5626  0.1738  0.2545
  138TIP3    H1  378   4.004   2.954   3.371 -0.3738 -1.0112  0.1479
  138TIP3    H2  379   3.862   2.939   3.318 -0.5585  0.1921  0.2770
  139TIP3   OH2  380   1.308   5.836   5.528 -0.0429 -0.2813 -0.0982
  139TIP3    H1  381   1.335   5.855   5.438  1.0230 -0.0454  0.2636
  139TIP3    H2  382   1.216   5.812   5.520  0.2265 -0.9964 -1.3587
  140TIP3   OH2  383   1.966   1.472   1.178  0.3168 -0.3868 -0.5982
  140TIP3    H1  384   1.871   1.487   1.177  0.4342  0.7617  1.2283
  140TIP3    H2  385   2.001   1.535   1.115 -0.0177  0.1255 -0.2746
  141TIP3   OH2  386   4.284   6.058   4.289 -0.5401  0.2471  0.0347
  141TIP3    H1  387   4.290   6.072   4.194 -0.0827  0.6609  0.1242
  141TIP3    H2  388   4.373   6.070   4.321 -0.3325 -1.7092  0.2873
  142TIP3   OH2  389   6.706   3.289   3.796 -0.0247 -0.2129  0.2437
  142TIP3    H1  390   6.779   3.323   3.847  0.7473 -0.2984 -0.7695
  142TIP3    H2  391   6.700   3.197   3.821 -0.0553 -0.1079  0.6307
  143TIP3   OH2  392   3.176   1.758   5.243  0.8866  0.3519 -0.1445
  143TIP3    H1  393   3.140   1.687   5.296  2.6490 -1.3800 -1.1206
  143TIP3    H2  394   3.172   1.835   5.299 -1.8976 -0.2772  0.6516
  144TIP3   OH2  395   0.832   2.917   5.780 -0.2165 -0.7945 -0.5979
  144TIP3    H1  396   0.801   2.860   5.850 -1.0126 -0.4510 -0.6639
  144TIP3    H2  397   0.892   2.862   5.729  0.1027 -1.1448  0.1456
  145TIP3   OH2  398   4.490   3.862   1.285  0.0448 -0.3968 -0.3923
  145TIP3    H1  399   4.528   3.853   1.198 -0.9402  0.0448 -0.8874
  145TIP3    H2  400   4.395   3.868   1.270 -0.0782  0.7154  0.6101
  146TIP3   OH2  401   4.695   0.311   1.262  0.3641 -0.0441 -0.6867
  146TIP3    H1  402   4.722   0.285   1.174 -1.1805  0.5180 -1.3710
  146TIP3    H2  403   4.658   0.398   1.251 -0.9735 -0.4556  0.2686
  147TIP3   OH2  404   6.461   0.247   4.649 -0.3520  0.7375 -0.2353
  147TIP3    H1  405   6.432   0.207   4.731  0.7061  0.0075 -0.1873
  147TIP3    H2  406   6.402   0.321   4.636 -1.3937  0.0619  0.4785
  148TIP3   OH2  407   3.872   5.288   3.530 -0.0461  0.3011  0.4386
  148TIP3    H1  408   3.895   5.381   3.526  1.8373 -0.1461 -2.0565
  148TIP3    H2  409   3.815   5.274   3.455 -1.1376 -0.3931  1.3761
  149TIP3   OH2  410   1.825   2.939   3.054  0.1412  0.1293  0.7383
  149TIP3    H1  411   1.765   2.997   3.008 -0.2678 -1.0638 -0.2734
  149TIP3    H2  412   1.800   2.946   3.146 -0.6212  0.7035  0.4922
  150TIP3   OH2  413   2.868   6.327   2.266 -0.6735  0.2746  0.0989
  150TIP3    H1  414   2.834   6.415   2.276 -1.8785 -0.0015 -1.2852
  150TIP3    H2  415   2.822   6.291   2.190  2.2954 -0.3486 -1.5500
  151TIP3   OH2  416   2.340   5.852   5.437  0.5541 -0.1282  0.0149
  151TIP3    H1  417   2.426   5.811   5.425  0.7515  0.5698 -1.1580
  151TIP3    H2  418   2.356   5.945   5.418 -0.6761 -0.1746 -1.4494
  152TIP3   OH2  419   1.843   2.346   2.483  0.1718  0.9965 -0.0297
  152TIP3    H1  420   1.880   2.332   2.570  1.0923 -0.9288 -0.6669
  152TIP3    H2  421   1.880   2.430   2.455  1.1257  0.8811  0.8112
  153TIP3   OH2  422   4.887   4.988   2.748  0.0908 -0.1491 -0.0070
  153TIP3    H1  423   4.901   4.905   2.703 -0.9702  0.1646 -0.9577
  153TIP3    H2  424   4.970   5.035   2.735 -0.6900  0.6219 -3.2441
  154TIP3   OH2  425   4.479   4.922   3.959  0.5139  0.1080  1.0124
  154TIP3    H1  426   4.466   4.856   4.027  2.8967  0.2915  1.7494
  154TIP3    H2  427   4.507   5.000   4.006  1.5143  0.4603 -0.0940
  155TIP3   OH2  428   4.063   1.949   2.681  0.1787 -0.1314  0.0662
  155TIP3    H1  429   3.978   1.988   2.703  0.0333 -0.3663 -0.0729
  155TIP3    H2  430   4.126   2.019   2.697 -0.0261  0.0001  0.3111
  156TIP3   OH2  431   0.827   2.407   0.566  0.0290  0.2900 -0.0045
  156TIP3    H1  432   0.875   2.463   0.628  2.0896 -1.2102 -0.1211
  156TIP3    H2  433   0.843   2.318   0.598 -2.8423 -0.3327 -0.0307
  157TIP3   OH2  434   5.258   5.376   4.486  0.5149 -0.3005  0.0545
  157TIP3    H1  435   5.348   5.369   4.454  0.4375 -0.1428 -0.1985
  157TIP3    H2  436   5.264   5.359   4.580  1.2606  2.7082  0.6480
  158TIP3   OH2  437   3.336   3.456   3.089  0.5545 -0.3530 -0.0151
  158TIP3    H1  438   3.261   3.421   3.040  0.6527 -0.1934 -0.2811
  158TIP3    H2  439   3.409   3.449   3.028 -0.0261  3.4019 -1.3684
  159TIP3   OH2  440   1.371   4.466   3.731 -0.0900 -0.4837  0.6215
  159TIP3    H1  441   1.465   4.465   3.749 -0.0573 -0.3680  0.4612
  159TIP3    H2  442   1.336   4.392   3.781 -0.0053 -0.1588  1.1694
  160TIP3   OH2  443   5.002   0.401   0.462  0.1949  0.7876 -0.0971
  160TIP3    H1  444   5.020   0.318   0.507 -0.1993  0.9504  0.3610
  160TIP3    H2  445   4.973   0.374   0.374  0.4415  0.4543 -0.0793
  161TIP3   OH2  446   5.835   2.174   3.851  0.6645 -0.5190 -0.4185
  161TIP3    H1  447   5.897   2.112   3.812  0.9378 -0.0961 -0.6714
  161TIP3    H2  448   5.779   2.201   3.778  0.7517 -0.2288 -0.3802
  162TIP3   OH2  449   1.843   3.157   5.032  0.0953 -0.6947 -0.0262
  162TIP3    H1  450   1.770   3.098   5.012  0.9330 -2.8949  2.6720
  162TIP3    H2  451   1.893   3.162   4.951 -1.8273 -0.9302 -1.2908
  163TIP3   OH2  452   6.456   2.351   5.164  0.3167  0.0356  0.2420
  163TIP3    H1  453   6.516   2.283   5.196 -0.2300  0.2108  1.7144
  163TIP3    H2  454   6.376   2.339   5.215 -0.7782  0.0808 -1.3943
  164TIP3   OH2  455   3.428   3.067   1.408 -0.2898 -0.2059  0.0085
  164TIP3    H1  456   3.512   3.036   1.440 -0.9139 -3.0686 -0.8219
  164TIP3    H2  457   3.368   3.054   1.481 -0.1029  1.8277  0.5989
  165TIP3   OH2  458   2.862   1.834   5.198 -0.1754  0.5187 -0.0417
  165TIP3    H1  459   2.870   1.859   5.290  0.9538  0.3832 -0.0896
  165TIP3    H2  460   2.814   1.752   5.200 -0.0296  0.4408  0.4387
  166TIP3   OH2  461   5.050   6.366   4.487  0.1063 -0.3601 -1.1340
  166TIP3    H1  462   5.023   6.361   4.395 -0.6440 -0.8810 -0.8976
  166TIP3    H2  463   4.981   6.320   4.535  0.3068  0.2131 -0.2669
  167TIP3   OH2  464   6.457   2.686   0.807 -0.2854 -0.1848 -0.3263
  167TIP3    H1  465   6.517   2.664   0.878 -0.3678 -1.6530 -0.6815
  167TIP3    H2  466   6.504   2.752   0.755 -0.5172  1.4618  1.4447
  168TIP3   OH2  467   7.168   3.886   3.713 -0.1155  0.1858  0.5338
  168TIP3    H1  468   7.198   3.819   3.652 -0.1162  1.3665 -0.8175
  168TIP3    H2  469   7.121   3.837   3.780  0.0334 -1.1798 -0.3024
  169TIP3   OH2  470   6.080   3.104   4.679  0.1047  0.2141  0.3475
  169TIP3    H1  471   6.005   3.077   4.627  0.6725 -0.3676 -0.1942
  169TIP3    H2  472   6.043   3.153   4.752 -0.7833  0.0739 -0.0022
  170TIP3   OH2  473   0.703   0.655   0.882 -0.0177 -0.2425 -0.5732
  170TIP3    H1  474   0.713   0.750   0.894 -4.6284  0.1331  2.8303
  170TIP3    H2  475   0.659   0.647   0.797 -3.1132  1.2219  0.7388
  171TIP3   OH2  476   6.807   1.314   4.063 -0.2726 -0.5107 -0.0452
  171TIP3    H1  477   6.873   1.380   4.081 -1.2079  0.5350 -0.3138
  171TIP3    H2  478   6.853   1.246   4.013  1.3696 -1.4600  2.5594
  172TIP3   OH2  479   5.750   2.305   1.759  0.5167 -0.7680 -0.2051
  172TIP3    H1  480   5.704   2.296   1.842  0.2699  1.2910 -0.0636
  172TIP3    H2  481   5.842   2.316   1.783  0.2616  1.5057 -0.0123
  173TIP3   OH2  482   4.311   3.503   3.091  0.3186 -0.1588 -0.2133
  173TIP3    H1  483   4.301   3.433   3.028  1.1284  0.5897 -1.1959
  173TIP3    H2  484   4.382   3.475   3.148 -0.8836 -1.1628  0.8654
  174TIP3   OH2  485   4.634   0.434   2.585 -0.0904 -0.0355  0.2873
  174TIP3    H1  486   4.666   0.363   2.640 -0.2591 -2.0555 -2.0858
  174TIP3    H2  487   4.713   0.475   2.550 -0.0220 -0.5027 -0.1015
  175TIP3   OH2  488   3.013   2.231   2.398 -0.1604  0.4375 -0.0552
  175TIP3    H1  489   3.000   2.177   2.320 -0.6225  1.0347 -0.3996
  175TIP3    H2  490   2.932   2.222   2.448 -0.5853  1.4815 -0.5376
  176TIP3   OH2  491   6.367   5.649   0.644 -0.1370 -0.9701  0.6735
  176TIP3    H1  492   6.398   5.609   0.562 -1.0595 -0.8053  0.2328
  176TIP3    H2  493   6.428   5.720   0.661 -0.4512 -0.4395 -0.3628
  177TIP3   OH2  494   4.677   5.835   2.893 -0.3863 -0.1942 -0.1396
  177TIP3    H1  495   4.694   5.789   2.810 -0.0415 -0.5236  0.1062
  177TIP3    H2  496   4.711   5.775   2.960 -0.7972  0.0040  0.2499
  178TIP3   OH2  497   5.489   5.710   3.949 -0.2200  0.4878 -0.1194
  178TIP3    H1  498   5.438   5.644   3.996 -4.0846  2.1823 -1.5983
  178TIP3    H2  499   5.491   5.786   4.008 -1.0641  1.0538 -0.8032
  179TIP3   OH2  500   3.289   1.480   2.805 -0.3284  0.7163 -0.2759
  179TIP3    H1  501   3.196   1.500   2.818 -0.6878 -0.5330 -0.7515
  179TIP3    H2  502   3.289   1.400   2.753  1.0205  0.3804  0.1946
  180TIP3   OH2  503   3.465   4.048   2.246  0.6931  0.1193  0.3002
  180TIP3    H1  504   3.533   4.092   2.296  1.5625 -2.1597  1.2604
  180TIP3    H2  505   3.399   4.024   2.310  0.4073 -0.2616 -0.1265
  181TIP3   OH2  506   5.525   2.022   0.161  0.2473  0.2704  0.9090
  181TIP3    H1  507   5.615   1.992   0.168 -0.2658 -1.0036  2.7049
  181TIP3    H2  508   5.531   2.118   0.162  1.5414  0.1965  1.5706
  182TIP3   OH2  509   0.275   0.885   4.481  0.3373 -0.2834  0.1861
  182TIP3    H1  510   0.310   0.963   4.523  0.5051 -0.5977  0.6284
  182TIP3    H2  511   0.199   0.917   4.432 -1.6961 -0.3736  3.0981
  183TIP3   OH2  512   0.640   6.277   4.492 -0.3349  0.1316  0.2203
  183TIP3    H1  513   0.633   6.365   4.529 -1.0497  0.6702 -1.1266
  183TIP3    H2  514   0.719   6.280   4.438 -0.2301 -0.1293  0.3574
  184TIP3   OH2  515   3.032   1.952   5.009 -0.5454 -0.0332 -0.3309
  184TIP3    H1  516   3.118   1.920   5.036 -0.5283 -2.0032 -2.4572
  184TIP3    H2  517   2.972   1.916   5.075  0.1888  1.3574  1.1640
  185TIP3   OH2  518   7.026   2.595   0.886  0.6389 -0.1547  0.2081
  185TIP3    H1  519   7.008   2.688   0.875  0.0178  0.2335  3.4215
  185TIP3    H2  520   6.996   2.575   0.975  0.3482 -3.5408 -0.4958
  186TIP3   OH2  521   0.408   1.593   5.840  0.4867  0.2326 -0.6120
  186TIP3    H1  522   0.319   1.586   5.804  0.6135  0.7095 -1.0423
  186TIP3    H2  523   0.461   1.622   5.765  0.4950  2.7798  0.2725
  187TIP3   OH2  524   3.893   2.510   3.796  0.3038  0.5781 -0.0489
  187TIP3    H1  525   3.943   2.516   3.714 -0.3451  0.6352 -0.4473
  187TIP3    H2  526   3.824   2.446   3.778 -1.1892  2.1656 -0.2883
  188TIP3   OH2  527   4.907   6.456   2.762  0.1305  0.4078  0.4371
  188TIP3    H1  528   4.948   6.526   2.813  3.2379 -2.2491  1.9141
  188TIP3    H2  529   4.866   6.400   2.827 -2.0041  0.5614 -0.6993
  189TIP3   OH2  530   0.875   5.105   3.450  0.4461  0.0639  0.0858
  189TIP3    H1  531   0.909   5.156   3.524  1.1165 -1.4971  0.8990
  189TIP3    H2  532   0.785   5.136   3.438  0.9935  1.7999  0.1861
  190TIP3   OH2  533   1.397   3.972   1.766  0.0940 -0.1492 -0.1114
  190TIP3    H1  534   1.493   3.968   1.776  0.0916  0.8480  0.4990
  190TIP3    H2  535   1.381   4.059   1.729 -0.5012 -0.8021 -1.4716
  191TIP3   OH2  536   5.962   5.873   5.655 -0.4953  0.9310  0.3526
  191TIP3    H1  537   6.027   5.804   5.645 -2.5301 -1.0222 -0.3600
  191TIP3    H2  538   5.974   5.905   5.744 -1.7473 -2.9575  2.1534
  192TIP3   OH2  539   6.206   0.672   3.557 -0.2646 -0.0000 -0.6903
  192TIP3    H1  540   6.116   0.639   3.550 -0.2680  0.0682 -0.9732
  192TIP3    H2  541   6.242   0.662   3.469 -0.5204  1.4641 -0.9917
  193TIP3   OH2  542   6.306   0.943   0.657 -0.0018 -0.2339 -0.0109
  193TIP3    H1  543   6.244   0.954   0.584 -0.9324 -1.4455  0.5682
  193TIP3    H2  544   6.267   0.993   0.729  0.0711 -0.4035  0.1453
  194TIP3   OH2  545   2.824   4.129   2.417  0.1005 -0.5002 -0.4937
  194TIP3    H1  546   2.774   4.179   2.353  1.0784 -0.1021 -0.9807
  194TIP3    H2  547   2.905   4.106   2.371 -0.0204 -1.9391 -0.0480
  195TIP3   OH2  548   4.769   0.788   4.081  0.4987 -0.3119  0.3764
  195TIP3    H1  549   4.783   0.698   4.110  0.2179 -0.3530  0.3896
  195TIP3    H2  550   4.824   0.798   4.004  1.0907 -0.2710  0.7903
  196TIP3   OH2  551   5.833   1.346   2.801 -0.7309  0.3797  0.1288
  196TIP3    H1  552   5.873   1.319   2.719 -0.8646  2.1301 -0.5544
  196TIP3    H2  553   5.739   1.339   2.785 -0.8213  2.4618 -0.5652
  197TIP3   OH2  554   3.951   4.203   2.945  0.0924  0.2310 -0.0272
  197TIP3    H1  555   3.877   4.212   2.886 -0.6868  1.8481  1.1115
  197TIP3    H2  556   3.984   4.292   2.956  1.6006 -0.3332  0.2673
  198TIP3   OH2  557   3.600   2.301   4.590  0.9691 -0.3342  0.9889
  198TIP3    H1  558   3.643   2.378   4.628 -0.1259  0.5787  0.4215
  198TIP3    H2  559   3.641   2.227   4.635  1.8890  0.5728  1.7095
  199TIP3   OH2  560   3.726   6.770   3.485  0.4964 -0.1480 -0.4525
  199TIP3    H1  561   3.677   6.697   3.521  1.4926  0.6065  2.7171
  199TIP3    H2  562   3.807   6.732   3.451  0.2556 -0.7133 -0.3889
  200TIP3   OH2  563   0.305   4.971   2.180 -0.1868  0.1080 -0.9540
  200TIP3    H1  564   0.288   4.966   2.274  0.2451  0.0505 -0.8787
  200TIP3    H2  565   0.399   4.981   2.173 -0.3085  1.0651 -1.3518
  201TIP3   OH2  566   6.741   5.213   5.209 -0.9429  0.1002  0.3418
  201TIP3    H1  567   6.725   5.186   5.118 -0.6882 -1.5448  0.7603
  201TIP3    H2  568   6.664   5.264   5.232 -1.2429  0.1190 -0.6335
  202TIP3   OH2  569   2.802   0.863   3.023 -0.7129 -0.2857 -0.2515
  202TIP3    H1  570   2.798   0.795   2.956 -0.3561 -1.2391  0.6570
  202TIP3    H2  571   2.858   0.826   3.091 -0.0014  1.1794  0.0039
  203TIP3   OH2  572   3.332   0.718   3.623  0.2473  0.3049 -0.3827
  203TIP3    H1  573   3.343   0.653   3.553  2.4149 -1.4129  1.4203
  203TIP3    H2  574   3.391   0.789   3.600 -0.3507  0.5667 -1.1502
  204TIP3   OH2  575   2.028   5.642   0.628  0.2310  0.7578 -0.0351
  204TIP3    H1  576   2.077   5.583   0.685 -0.6424  1.0411  1.0552
  204TIP3    H2  577   2.086   5.657   0.553  0.7770 -0.8444  0.0323
  205TIP3   OH2  578   4.552   3.207   5.749  0.2739  0.0869 -0.1895
  205TIP3    H1  579   4.621   3.247   5.696  0.1606 -0.7444 -0.9744
  205TIP3    H2  580   4.599   3.151   5.811  0.2853 -2.3517 -2.2502
  206TIP3   OH2  581   0.977   0.041   4.758 -0.8823 -0.1263  0.2989
  206TIP3    H1  582   0.952   0.134   4.755  0.6788  0.3095 -0.2641
  206TIP3    H2  583   1.015   0.024   4.672 -1.0081 -1.2697  0.4541
  207TIP3   OH2  584   1.773   2.902   0.377 -0.7276  0.4274 -0.0505
  207TIP3    H1  585   1.830   2.975   0.401  2.2094 -1.4884 -0.6688
  207TIP3    H2  586   1.796   2.883   0.286  0.6885 -2.8780  0.8376
  208TIP3   OH2  587   1.708   0.853   4.947 -0.1616 -0.4731  0.0130
  208TIP3    H1  588   1.670   0.776   4.907  0.9255 -0.2229 -1.5720
  208TIP3    H2  589   1.699   0.922   4.882  3.2046 -0.4788 -0.6231
  209TIP3   OH2  590   1.320   0.775   1.004 -0.1471 -0.4056 -0.2642
  209TIP3    H1  591   1.238   0.796   0.959  0.5505 -1.3344 -2.0256
  209TIP3    H2  592   1.293   0.717   1.076 -1.2185  0.7838  0.3413
  210TIP3   OH2  593   5.021   0.818   3.619  0.0582 -0.3902  0.1665
  210TIP3    H1  594   5.035   0.741   3.565  1.9648 -0.7389  1.0720
  210TIP3    H2  595   5.064   0.889   3.570 -1.0935  0.0009 -0.3280
  211TIP3   OH2  596   5.951   1.544   2.329 -0.1013  0.0764  0.1318
  211TIP3    H1  597   5.983   1.631   2.350  3.4180 -1.1670  0.5884
  211TIP3    H2  598   5.971   1.532   2.236  0.7930 -0.7307  0.4151
  212TIP3   OH2  599   1.236   3.489   0.671  0.0671 -0.2232  0.1976
  212TIP3    H1  600   1.217   3.410   0.621 -0.1393 -0.8692  1.2708
  212TIP3    H2  601   1.192   3.559   0.622  1.1287 -0.5817 -1.3380
  213TIP3   OH2  602   4.325   4.919   0.971 -0.6571  0.3294 -0.4588
  213TIP3    H1  603   4.258   4.852   0.969 -0.1599 -0.1731 -0.5370
  213TIP3    H2  604   4.407   4.871   0.982 -0.0680  0.7402 -2.6467
  214TIP3   OH2  605   1.662   5.462   2.716 -0.0782 -0.5619 -0.2933
  214TIP3    H1  606   1.707   5.377   2.713  2.9183  0.8591  1.1778
  214TIP3    H2  607   1.630   5.469   2.806  0.4559  0.2250 -0.1589
  215TIP3   OH2  608   5.550   2.445   5.836 -0.1575  0.0879 -0.3134
  215TIP3    H1  609   5.629   2.402   5.867 -0.9052 -0.6999  0.5303
  215TIP3    H2  610   5.571   2.539   5.839  0.0153  0.0322  2.0709
  216TIP3   OH2  611   0.542   5.087   5.706 -0.0146 -0.0549  0.2842
  216TIP3    H1  612   0.622   5.039   5.726 -0.3998 -1.1982 -0.7700
  216TIP3    H2  613   0.553   5.171   5.749  2.0884  0.0997 -0.4166
  217TIP3   OH2  614   4.286   4.281   2.050  0.2279 -0.1019 -0.5507
  217TIP3    H1  615   4.344   4.335   1.997 -0.2256  0.2965 -0.6488
  217TIP3    H2  616   4.198   4.301   2.018 -0.0989  0.5362  0.6868
  218TIP3   OH2  617   1.916   5.871   3.943  0.3945 -0.5988  0.2349
  218TIP3    H1  618   1.986   5.843   4.001  1.4315 -0.6125 -0.9732
  218TIP3    H2  619   1.857   5.921   3.999  1.8854  0.2818  1.0967
  219TIP3   OH2  620   6.484   0.851   3.149 -0.1464  0.2840  0.2774
  219TIP3    H1  621   6.527   0.801   3.080 -1.0878 -0.8016  0.4378
  219TIP3    H2  622   6.425   0.911   3.103  1.5234  1.8524  0.0525
  220TIP3   OH2  623   0.377   2.690   4.382  0.2047 -0.1997 -0.1841
  220TIP3    H1  624   0.387   2.627   4.453 -1.4721  0.3017  0.5469
  220TIP3    H2  625   0.336   2.767   4.424 -1.2412 -0.0640 -1.7439
  221TIP3   OH2  626   1.791   4.659   4.471  0.3545  0.5953 -0.5519
  221TIP3    H1  627   1.809   4.605   4.395 -0.8765 -0.1454 -0.3468
  221TIP3    H2  628   1.836   4.742   4.453  0.9808  0.0497 -1.5748
  222TIP3   OH2  629   4.307   3.074   5.708  0.2378 -0.9149 -0.3410
  222TIP3    H1  630   4.377   3.139   5.703 -1.9045  1.7160  0.9211
  222TIP3    H2  631   4.332   3.017   5.780  0.5751  0.7401  0.9169
  223TIP3   OH2  632   6.651   5.464   2.114 -0.5542 -0.2190  0.0931
  223TIP3    H1  633   6.673   5.382   2.071  1.0687 -0.5698  1.4584
  223TIP3    H2  634   6.730   5.518   2.104 -1.0790  0.6253  0.4187
  224TIP3   OH2  635   6.646   3.814   5.232 -0.2627 -0.1354 -0.3295
  224TIP3    H1  636   6.671   3.806   5.325 -0.6332  0.3570 -0.1849
  224TIP3    H2  637   6.729   3.828   5.187  0.1840 -2.4077 -0.3369
  225TIP3   OH2  638   6.734   0.417   1.185 -0.4972 -0.5171 -0.0193
  225TIP3    H1  639   6.805   0.369   1.228  0.1940 -0.7909 -1.4161
  225TIP3    H2  640   6.695   0.470   1.255 -0.3743 -2.0461  1.2531
  226TIP3   OH2  641   6.240   2.221   0.728  0.8120  0.1228 -0.3272
  226TIP3    H1  642   6.297   2.175   0.790  0.9187  1.6223  0.7394
  226TIP3    H2  643   6.287   2.303   0.709  0.6427 -0.1850 -2.1941
  227TIP3   OH2  644   3.841   3.238   2.977 -0.0571 -0.8683  0.2644
  227TIP3    H1  645   3.763   3.193   2.944 -2.2597  2.1861  0.8112
  227TIP3    H2  646   3.806   3.312   3.026  3.2319 -0.6668  2.6032
  228TIP3   OH2  647   0.131   1.377   1.516 -0.3127 -0.1378 -0.1876
  228TIP3    H1  648   0.067   1.306   1.522 -0.9928  0.5150  0.4623
  228TIP3    H2  649   0.212   1.334   1.489 -0.9071 -1.0444 -0.5566
  229TIP3   OH2  650   0.973   1.052   4.255 -0.0064 -0.7725 -0.4502
  229TIP3    H1  651   0.951   1.126   4.198  0.0348  0.2289  0.7940
  229TIP3    H2  652   0.980   0.978   4.195  0.3739  0.2937 -1.7984
  230TIP3   OH2  653   2.011   4.358   0.072 -0.8994 -0.2438 -0.9387
  230TIP3    H1  654   1.941   4.297   0.048 -0.7335 -0.2953 -1.3019
  230TIP3    H2  655   2.084   4.303   0.099 -1.4360 -0.1714  0.7217
  231TIP3   OH2  656   7.165   5.788   3.464  0.1173 -0.2561 -0.0816
  231TIP3    H1  657   7.163   5.715   3.401  0.6626  0.3815 -0.8583
  231TIP3    H2  658   7.230   5.762   3.529  1.5827  0.2467 -1.2828
  232TIP3   OH2  659   3.147   3.983   3.715 -0.1018  0.4326  0.6683
  232TIP3    H1  660   3.059   4.017   3.698  0.0185  0.7660  0.7090
  232TIP3    H2  661   3.157   3.911   3.652  0.1739  1.3610 -0.3847
  233TIP3   OH2  662   4.870   5.011   0.377  0.4050  0.0682 -0.1253
  233TIP3    H1  663   4.931   5.081   0.402  1.4603 -1.0993  0.6935
  233TIP3    H2  664   4.905   4.933   0.419 -2.7081 -0.3577  2.0178
  234TIP3   OH2  665   0.051   5.546   1.560 -0.1221 -0.2175 -0.0111
  234TIP3    H1  666   0.069   5.595   1.640  0.7856  0.3213 -0.5300
  234TIP3    H2  667  -0.040   5.566   1.539  0.1350  0.9952 -0.0393
  235TIP3   OH2  668   6.525   6.163   5.733  0.0175  0.4337 -0.0977
  235TIP3    H1  669   6.563   6.111   5.804 -1.8187 -1.6496 -0.5240
  235TIP3    H2  670   6.467   6.225   5.777  0.0256  0.1615  0.3030
  236TIP3   OH2  671   6.319   3.611   0.443  0.4230 -0.5775 -0.2881
  236TIP3    H1  672   6.292   3.583   0.356  0.7411 -1.9370  0.0262
  236TIP3    H2  673   6.410   3.638   0.433  0.1930  0.1386 -0.5390
  237TIP3   OH2  674   4.578   5.372   2.711  1.1866  0.4747 -0.5206
  237TIP3    H1  675   4.565   5.454   2.759  3.4485  0.9149 -0.5456
  237TIP3    H2  676   4.549   5.392   2.622 -0.1587  0.6007 -0.0701
  238TIP3   OH2  677   3.927   2.999   3.930  0.0511 -0.6123 -0.3426
  238TIP3    H1  678   3.997   3.013   3.994 -0.1369 -0.3645 -0.1906
  238TIP3    H2  679   3.905   2.906   3.939  0.5051 -0.7433 -0.5420
  239TIP3   OH2  680   5.565   3.075   4.437  0.2410  0.0161  0.0226
  239TIP3    H1  681   5.559   3.129   4.358 -2.0273  1.1823  0.8853
  239TIP3    H2  682   5.571   3.139   4.508 -0.3595 -0.9272  0.9420
  240TIP3   OH2  683   0.487   1.521   3.724 -0.3898  0.4713  0.5763
  240TIP3    H1  684   0.566   1.479   3.688  0.3235  0.2533  2.2735
  240TIP3    H2  685   0.445   1.563   3.649  0.3373 -0.9933 -0.6956
  241TIP3   OH2  686   2.373   2.251   2.892 -0.0775  0.3475  0.2068
  241TIP3    H1  687   2.420   2.168   2.903 -2.1166 -1.1577 -1.5092
  241TIP3    H2  688   2.442   2.317   2.884  1.6337 -1.2893  0.7789
  242TIP3   OH2  689   6.319   0.991   2.628 -0.8651  0.1687  0.2042
  242TIP3    H1  690   6.368   1.040   2.563  0.0036  1.0525  1.4819
  242TIP3    H2  691   6.231   1.029   2.626 -0.3554  1.4494  0.7750
  243TIP3   OH2  692   3.235   3.103   0.409 -0.0819  0.0998 -0.1238
  243TIP3    H1  693   3.285   3.100   0.491  0.8978 -0.9518 -0.7256
  243TIP3    H2  694   3.267   3.182   0.365  0.6719 -0.2609 -0.2505
  244TIP3   OH2  695   3.008   1.158   5.777  0.3380 -0.1257  0.0286
  244TIP3    H1  696   2.980   1.075   5.816  0.0962  0.5387  1.3421
  244TIP3    H2  697   2.986   1.223   5.843 -1.2688  1.2468 -1.7365
  245TIP3   OH2  698   6.749   1.134   2.499 -0.0228  0.1263 -0.4218
  245TIP3    H1  699   6.835   1.177   2.503  0.7251 -1.3547 -0.0112
  245TIP3    H2  700   6.693   1.187   2.556  0.8481  0.5805  0.0284
  246TIP3   OH2  701   0.951   4.607   2.920 -0.8365 -0.5149  0.0841
  246TIP3    H1  702   0.971   4.696   2.891  0.4832 -0.8741 -0.2094
  246TIP3    H2  703   0.858   4.596   2.901 -0.9649  0.7179 -0.0976
  247TIP3   OH2  704   0.781   0.695   2.132 -0.5985 -0.4850 -0.0332
  247TIP3    H1  705   0.689   0.681   2.153 -0.4971 -2.3035 -0.5526
  247TIP3    H2  706   0.790   0.662   2.042  1.0352 -2.9031  0.9184
  248TIP3   OH2  707   2.129   5.832   5.884 -0.0459  0.0615  0.0261
  248TIP3    H1  708   2.214   5.820   5.843 -1.1745  1.5772 -3.0296
  248TIP3    H2  709   2.100   5.743   5.905  1.7052 -0.5560 -0.0078
  249TIP3   OH2  710   0.961   5.794   0.618 -0.1262 -0.3606  0.0056
  249TIP3    H1  711   0.910   5.837   0.549 -0.9130 -0.3577  0.5651
  249TIP3    H2  712   1.026   5.743   0.571 -1.8051 -1.8356 -0.8466
  250TIP3   OH2  713   0.999   3.562   4.227  0.2742 -0.1530  0.0042
  250TIP3    H1  714   1.027   3.616   4.153  0.4384 -0.2950 -0.0385
  250TIP3    H2  715   0.903   3.567   4.225  0.3080  0.7931  0.4984
  251TIP3   OH2  716   0.698   0.189   2.961 -0.2809  0.2153  0.1345
  251TIP3    H1  717   0.716   0.118   2.900  1.4516 -0.1340  0.9997
  251TIP3    H2  718   0.604   0.181   2.981  0.2226 -3.2220  1.8643
  252TIP3   OH2  719   0.571   5.819   0.537 -0.2134 -0.5530 -0.8419
  252TIP3    H1  720   0.659   5.783   0.527 -0.0365 -0.0405 -1.1887
  252TIP3    H2  721   0.557   5.872   0.459 -0.4777  0.0997 -0.3683
  253TIP3   OH2  722   3.649   0.058   0.414 -0.2655 -0.4728  0.0306
  253TIP3    H1  723   3.589   0.129   0.435 -1.2421 -1.4811  0.8186
  253TIP3    H2  724   3.721   0.099   0.366 -0.9413  0.9768  0.2278
  254TIP3   OH2  725   4.995   5.372   4.679 -0.1338 -0.5685 -0.2090
  254TIP3    H1  726   5.070   5.422   4.648 -0.5503 -0.6010 -1.3134
  254TIP3    H2  727   4.976   5.310   4.609 -0.7685 -1.0344  0.3540
  255TIP3   OH2  728   2.411   0.750   2.102 -0.0391 -0.0924 -0.2561
  255TIP3    H1  729   2.384   0.793   2.183  0.3905  2.0625 -1.2032
  255TIP3    H2  730   2.355   0.788   2.034 -1.5481 -3.0516 -0.8403
  256TIP3   OH2  731   4.308   2.063   5.045  0.1734  0.1309  0.1985
  256TIP3    H1  732   4.366   2.004   5.093 -0.8773  0.1635  1.5592
  256TIP3    H2  733   4.314   2.146   5.093 -1.7194 -0.1315  0.9836
  257TIP3   OH2  734   4.743   4.655   0.482 -0.1099 -0.3493  0.2844
  257TIP3    H1  735   4.674   4.591   0.501 -0.7651  0.3760  0.3581
  257TIP3    H2  736   4.715   4.735   0.527  0.8851 -0.1079  0.4922
  258TIP3   OH2  737   3.511   6.804   4.637  0.4918 -0.1442 -0.0839
  258TIP3    H1  738   3.513   6.818   4.731  3.3409  2.2805 -0.3544
  258TIP3    H2  739   3.541   6.713   4.625 -0.2548 -0.5964  1.3183
  259TIP3   OH2  740   4.463   6.390   4.310  0.1002 -0.2938 -0.0154
  259TIP3    H1  741   4.466   6.373   4.216 -0.2695  0.1772 -0.1186
  259TIP3    H2  742   4.467   6.303   4.351  3.4670 -0.4350 -0.3395
  260TIP3   OH2  743   3.040   4.525   2.192  0.5183 -0.7933  0.1091
  260TIP3    H1  744   2.976   4.457   2.213  0.0202  0.4181  2.8423
  260TIP3    H2  745   3.108   4.479   2.143 -0.2788 -3.0343  0.9836
  261TIP3   OH2  746   2.086   0.640   0.181 -0.4929  0.0612  0.5564
  261TIP3    H1  747   2.164   0.584   0.178  0.1499  0.9854 -0.2249
  261TIP3    H2  748   2.087   0.678   0.269 -0.8474 -0.9937  1.0423
  262TIP3   OH2  749   0.767   1.251   1.426  0.9301  0.2863  0.1034
  262TIP3    H1  750   0.772   1.226   1.518  0.5264  1.3174  0.4127
  262TIP3    H2  751   0.735   1.341   1.427 -3.1551 -0.9032 -1.1342
  263TIP3   OH2  752   6.685   3.881   2.545  0.1130  0.1121  0.2468
  263TIP3    H1  753   6.770   3.862   2.585 -0.5512 -1.8274  0.8143
  263TIP3    H2  754   6.650   3.953   2.598  0.5186 -0.4388  1.2971
  264TIP3   OH2  755   6.755   3.513   3.982  0.1283  0.4193 -0.0105
  264TIP3    H1  756   6.772   3.602   4.015  1.8698 -0.2058  0.9043
  264TIP3    H2  757   6.749   3.459   4.060  1.1405 -0.5741 -0.5873
  265TIP3   OH2  758   3.024   2.229   4.301  0.0410 -0.6263  0.2035
  265TIP3    H1  759   3.073   2.264   4.227  0.3740  1.9507  1.5198
  265TIP3    H2  760   2.939   2.271   4.297  0.3413  0.2154  1.6843
  266TIP3   OH2  761   4.847   4.468   1.220  0.4475 -0.0856 -0.1500
  266TIP3    H1  762   4.752   4.458   1.218  0.2540  1.4186 -0.2505
  266TIP3    H2  763   4.870   4.502   1.133  1.1826 -1.1504 -0.3894
  267TIP3   OH2  764   6.700   3.268   4.702  0.3706  0.6555  0.1783
  267TIP3    H1  765   6.628   3.223   4.747 -0.1924  1.0647 -0.3037
  267TIP3    H2  766   6.663   3.352   4.675  0.6036  0.3204 -1.2773
  268TIP3   OH2  767   0.835   2.240   3.564  0.2698 -0.2257  0.3064
  268TIP3    H1  768   0.928   2.232   3.545  0.1239 -2.0169  0.1569
  268TIP3    H2  769   0.810   2.155   3.600 -1.3651  0.1226  0.1067
  269TIP3   OH2  770   1.808   4.756   0.624  0.2889  0.0339 -0.0503
  269TIP3    H1  771   1.765   4.805   0.553  0.5601  0.4064  0.0380
  269TIP3    H2  772   1.816   4.667   0.590  0.5116  0.2317 -0.5358
  270TIP3   OH2  773   0.322   2.863   3.818  0.3782  0.6121 -0.2784
  270TIP3    H1  774   0.415   2.852   3.796  0.7512  2.5358  0.1664
  270TIP3    H2  775   0.320   2.937   3.878 -1.1150 -1.5371  2.5447
  271TIP3   OH2  776   3.833   2.063   4.495  0.1373  0.6908 -0.2700
  271TIP3    H1  777   3.806   2.043   4.585  0.4789 -0.6197 -0.4509
  271TIP3    H2  778   3.915   2.113   4.506  0.8590 -0.5283  0.1445
  272TIP3   OH2  779   6.515   0.062   3.842  0.1210  0.3059  0.4893
  272TIP3    H1  780   6.564   0.052   3.761  0.7029  1.8644  0.6011
  272TIP3    H2  781   6.556  -0.000   3.903  0.2707 -0.2228 -0.1461
  273TIP3   OH2  782   6.052   0.144   5.140 -0.2233 -0.4708 -0.2916
  273TIP3    H1  783   6.019   0.193   5.216 -0.0077 -0.4250 -0.2286
  273TIP3    H2  784   6.142   0.123   5.162 -0.8639 -2.6055  0.5304
  274TIP3   OH2  785   0.528   3.193   0.155 -0.9909  0.1296 -0.1253
  274TIP3    H1  786   0.481   3.155   0.229 -0.3002  0.8811  0.7322
  274TIP3    H2  787   0.459   3.214   0.091 -1.5993 -0.5232  0.3033
  275TIP3   OH2  788   2.895   0.662   1.775 -0.4466 -0.3207  0.1167
  275TIP3    H1  789   2.800   0.668   1.783 -0.4063  0.5051 -0.0272
  275TIP3    H2  790   2.922   0.743   1.733  0.2113 -1.0394 -0.9105
  276TIP3   OH2  791   3.605   0.752   2.502 -0.2557  0.1035  0.2287
  276TIP3    H1  792   3.568   0.718   2.583 -0.2429 -0.1242  0.1406
  276TIP3    H2  793   3.565   0.838   2.491  0.7982  0.7411  1.1971
  277TIP3   OH2  794   0.428   2.807   4.784 -0.6844 -0.1885  0.2977
  277TIP3    H1  795   0.484   2.841   4.714 -0.7346  0.7299  0.6897
  277TIP3    H2  796   0.471   2.726   4.812  2.7487  2.3473  3.2703
  278TIP3   OH2  797   0.910   6.269   2.348  0.1200  0.2203  0.1398
  278TIP3    H1  798   0.881   6.233   2.264 -0.1806 -1.0324  0.7603
  278TIP3    H2  799   0.829   6.284   2.397  0.3483 -2.9299  1.7333
  279TIP3   OH2  800   1.994   4.343   2.329  0.3547 -0.6221  0.0240
  279TIP3    H1  801   1.992   4.264   2.383  0.0682 -1.0619 -0.6295
  279TIP3    H2  802   1.902   4.362   2.310  0.2671  0.9711  1.7499
  280TIP3   OH2  803   3.601   3.464   4.122 -0.8628 -0.2634 -0.2759
  280TIP3    H1  804   3.613   3.405   4.197 -0.0328  1.5373  1.0667
  280TIP3    H2  805   3.519   3.435   4.082 -0.7559 -1.9654  0.6517
  281TIP3   OH2  806   1.208   6.506   1.220 -0.0106  0.2615  0.5472
  281TIP3    H1  807   1.118   6.480   1.202  0.5645 -0.6518 -1.2798
  281TIP3    H2  808   1.230   6.460   1.301 -0.5553 -1.2179 -0.0946
  282TIP3   OH2  809   0.969   6.655   5.759 -0.0703  0.4291  0.0268
  282TIP3    H1  810   1.021   6.615   5.690 -0.9500 -2.3593  0.8364
  282TIP3    H2  811   1.015   6.631   5.840 -0.7729  0.8831  0.5715
  283TIP3   OH2  812   0.151   0.968   3.064 -0.5166  0.4490 -0.4963
  283TIP3    H1  813   0.085   0.903   3.088  0.2379 -0.6853 -1.3563
  283TIP3    H2  814   0.229   0.940   3.113 -0.6927  1.8972  0.6808
  284TIP3   OH2  815   0.479   3.032   3.507  0.1967  0.5739  0.3853
  284TIP3    H1  816   0.396   3.000   3.541  0.8224 -1.2821  0.2912
  284TIP3    H2  817   0.487   2.992   3.420  1.9027 -0.6884  1.0574
  285TIP3   OH2  818   6.071   1.943   1.341  0.9254  0.3124 -0.0886
  285TIP3    H1  819   6.054   1.877   1.408  0.0516 -0.7780 -1.3261
  285TIP3    H2  820   6.064   2.026   1.387 -1.3931 -0.3327  0.8687
  286TIP3   OH2  821   4.288   0.505   0.605 -0.2834  0.1841  0.4070
  286TIP3    H1  822   4.366   0.493   0.659 -0.1849  0.5576  0.3529
  286TIP3    H2  823   4.252   0.417   0.594  0.3616 -0.0448  0.0816
  287TIP3   OH2  824   0.349   4.263   3.783 -0.3209  0.6125  0.0947
  287TIP3    H1  825   0.404   4.339   3.805  1.8201 -0.6400 -0.5690
  287TIP3    H2  826   0.322   4.278   3.693 -0.6446  0.9820  0.2493
  288TIP3   OH2  827   6.074   2.040   3.315 -0.0980  0.1944 -0.3328
  288TIP3    H1  828   6.015   2.094   3.368 -1.0618  0.0108 -1.1892
  288TIP3    H2  829   6.149   2.097   3.298 -0.7448  1.0057 -0.5622
  289TIP3   OH2  830   2.335   0.216   0.643  0.1146  0.1515  0.6010
  289TIP3    H1  831   2.315   0.309   0.629 -1.5785 -0.2337  0.3126
  289TIP3    H2  832   2.428   0.216   0.668  0.2655  1.8751  0.2087
  290TIP3   OH2  833   3.552   2.764   0.778  0.2774  0.2276 -0.2966
  290TIP3    H1  834   3.531   2.754   0.871  2.4955 -1.9708  0.0670
  290TIP3    H2  835   3.493   2.703   0.734 -0.0276  0.4815 -0.2505
  291TIP3   OH2  836   0.380   3.034   5.481  0.0973  0.2731  1.0405
  291TIP3    H1  837   0.400   3.106   5.421 -0.4088 -0.4446 -0.0112
  291TIP3    H2  838   0.446   3.042   5.550  0.5095  1.2916  0.5517
  292TIP3   OH2  839   5.478   6.232   3.903 -0.1437  0.9290 -0.2951
  292TIP3    H1  840   5.434   6.247   3.819 -0.9843  0.8003  0.1126
  292TIP3    H2  841   5.568   6.208   3.879 -0.8285 -0.8418 -1.2428
  293TIP3   OH2  842   0.893   3.183   0.867  0.3252  0.3229  0.1638
  293TIP3    H1  843   0.804   3.209   0.847 -0.1184 -0.6509  0.7877
  293TIP3    H2  844   0.919   3.126   0.795  0.8466  1.4524 -0.5654
  294TIP3   OH2  845   0.158   0.780   5.013  0.2315 -0.0260 -0.1593
  294TIP3    H1  846   0.177   0.856   4.957  1.7728 -1.7893 -2.2397
  294TIP3    H2  847   0.074   0.748   4.981 -0.0483  0.3487  0.1938
  295TIP3   OH2  848   1.951   4.100   0.293  0.3902 -0.4946 -0.5607
  295TIP3    H1  849   1.917   4.144   0.215 -0.5321 -1.1975 -0.5641
  295TIP3    H2  850   1.928   4.008   0.282 -0.5489 -0.4802  0.9316
  296TIP3   OH2  851   5.091   4.211   0.535  0.1237  0.2810  0.2281
  296TIP3    H1  852   5.124   4.283   0.482 -1.6223  0.0028 -1.3415
  296TIP3    H2  853   5.142   4.135   0.508 -0.2339  0.2963 -0.5040
  297TIP3   OH2  854   1.188   4.263   4.693  0.6136 -0.3910 -0.2084
  297TIP3    H1  855   1.190   4.254   4.598 -0.0130 -0.0491 -0.2617
  297TIP3    H2  856   1.271   4.306   4.715  0.7552 -0.4650 -0.5978
  298TIP3   OH2  857   1.915   5.026   1.793 -0.2407  0.5498  0.0028
  298TIP3    H1  858   1.855   4.967   1.747  1.4428 -1.0824 -0.2396
  298TIP3    H2  859   1.893   5.014   1.886 -0.0848 -0.3057 -0.0564
  299TIP3   OH2  860   5.591   4.193   2.340 -0.5957 -0.2457 -0.1348
  299TIP3    H1  861   5.606   4.115   2.393 -0.5399 -0.3887 -0.3578
  299TIP3    H2  862   5.564   4.260   2.403  1.6502  0.2360  0.3733
  300TIP3   OH2  863   4.526   5.073   3.438  0.2135 -0.0840  0.2380
  300TIP3    H1  864   4.472   5.004   3.402  1.4406 -0.1291 -1.6493
  300TIP3    H2  865   4.504   5.075   3.531 -1.1380 -1.7801 -0.0052
  301TIP3   OH2  866   5.288   1.669   2.770  0.2083  0.8416 -0.3925
  301TIP3    H1  867   5.250   1.582   2.776 -1.7375  1.7054  0.7900
  301TIP3    H2  868   5.214   1.727   2.755  1.6921  2.1315 -3.6547
  302TIP3   OH2  869   3.206   0.411   5.222  0.5245  0.5160  0.0769
  302TIP3    H1  870   3.252   0.449   5.148  0.1136  1.0223  0.0789
  302TIP3    H2  871   3.114   0.428   5.205  0.3724  0.0260  0.3631
  303TIP3   OH2  872   2.125   1.930   4.632 -0.7475  0.5215 -0.5437
  303TIP3    H1  873   2.050   1.941   4.574  0.7794  0.5005 -2.6702
  303TIP3    H2  874   2.173   2.012   4.624 -1.0504  0.9602  1.6361
  304TIP3   OH2  875   2.112   5.145   0.765  0.2388 -0.2775  0.2142
  304TIP3    H1  876   2.191   5.094   0.784 -0.4122 -0.9864  1.0662
  304TIP3    H2  877   2.040   5.082   0.773 -0.5142  0.5997  0.5166
  305TIP3   OH2  878   5.401   1.486   4.335 -0.4540 -0.1244  0.0119
  305TIP3    H1  879   5.375   1.534   4.414 -0.3812  1.0144 -0.6239
  305TIP3    H2  880   5.331   1.424   4.320 -1.5906  1.1683 -0.2527
  306TIP3   OH2  881   5.385   4.209   5.335 -0.1763  0.1185  0.0206
  306TIP3    H1  882   5.419   4.203   5.425  1.8286  1.5738 -0.5513
  306TIP3    H2  883   5.460   4.184   5.280 -1.0929  0.1096 -1.2679
  307TIP3   OH2  884   5.773   1.270   1.985 -0.6158 -0.6326 -0.2899
  307TIP3    H1  885   5.838   1.296   1.920  0.6861 -0.1133  1.1517
  307TIP3    H2  886   5.707   1.221   1.935  0.6963 -0.8756 -1.8659
  308TIP3   OH2  887   4.108   1.598   3.019  0.0666 -0.2039  0.3780
  308TIP3    H1  888   4.081   1.624   3.107  0.3489 -1.0301  0.7180
  308TIP3    H2  889   4.026   1.590   2.970 -0.0031  2.3648 -0.0761
  309TIP3   OH2  890   3.943   0.248   1.934 -0.2545  0.1420 -0.1472
  309TIP3    H1  891   3.874   0.286   1.880 -0.1729 -0.6778 -0.8506
  309TIP3    H2  892   3.963   0.315   1.999 -0.9008  0.8396 -0.6605
  310TIP3   OH2  893   6.303   4.338   0.065 -0.0770 -0.0773  0.4877
  310TIP3    H1  894   6.378   4.280   0.055  1.3052  1.8819 -1.5696
  310TIP3    H2  895   6.240   4.308   0.000  1.3168  1.5560 -1.7706
  311TIP3   OH2  896   2.246   6.554   3.814 -0.1282 -0.1193  0.4821
  311TIP3    H1  897   2.171   6.500   3.836 -0.3213  0.1850  0.5808
  311TIP3    H2  898   2.229   6.584   3.724 -1.5626  2.2753  1.4429
  312TIP3   OH2  899   4.113   3.572   0.907 -0.9370  0.3224  0.2534
  312TIP3    H1  900   4.103   3.508   0.836  0.0222  0.5404 -0.0845
  312TIP3    H2  901   4.043   3.635   0.892 -1.7090 -0.4818  0.4137
  313TIP3   OH2  902   1.280   0.567   2.849  0.4624  0.6483  1.3509
  313TIP3    H1  903   1.349   0.502   2.863  0.6681  0.6823  0.5545
  313TIP3    H2  904   1.306   0.613   2.770 -0.4418  0.6981  1.0668
  314TIP3   OH2  905   2.688   1.887   0.410 -0.1002  0.1331  0.5827
  314TIP3    H1  906   2.618   1.922   0.356  2.6814  0.3740 -3.2784
  314TIP3    H2  907   2.753   1.957   0.414  2.1072 -1.6969 -0.4843
  315TIP3   OH2  908   2.600   3.517   1.133 -0.4903 -0.4311  0.1822
  315TIP3    H1  909   2.599   3.443   1.194  2.7425  0.8770  2.0819
  315TIP3    H2  910   2.692   3.541   1.126 -1.3708  3.4026 -0.3146
  316TIP3   OH2  911   4.686   1.003   3.439  0.2411 -0.6957 -0.2075
  316TIP3    H1  912   4.668   0.956   3.358  0.2085 -1.3291  0.1591
  316TIP3    H2  913   4.721   1.087   3.411  0.8548 -1.1587 -0.8800
  317TIP3   OH2  914   6.809   6.586   1.002  0.1768 -0.2551 -0.0593
  317TIP3    H1  915   6.784   6.642   0.929  1.0256  1.5152  0.9496
  317TIP3    H2  916   6.902   6.604   1.015  0.0534 -0.5602  1.4160
  318TIP3   OH2  917   2.126   4.771   5.358 -0.1555  0.3356 -0.4175
  318TIP3    H1  918   2.187   4.822   5.304  0.6207  1.4199  1.3984
  318TIP3    H2  919   2.074   4.722   5.294  1.5350  0.5854 -2.1005
  319TIP3   OH2  920   2.989   3.866   1.088  0.3692  0.0432  0.1493
  319TIP3    H1  921   3.073   3.893   1.124 -0.3039  1.6178  0.5996
  319TIP3    H2  922   2.946   3.948   1.064 -1.5033 -0.6514  0.9895
  320TIP3   OH2  923   0.938   1.615   4.984  0.1285 -0.1950 -0.0527
  320TIP3    H1  924   0.863   1.564   5.013 -0.1364  0.3083  0.1625
  320TIP3    H2  925   0.924   1.703   5.020  0.1697  0.2540 -1.0712
  321TIP3   OH2  926   0.866   0.205   0.366 -0.5559 -0.2087 -0.8618
  321TIP3    H1  927   0.777   0.200   0.401 -0.8463 -1.8082 -1.7093
  321TIP3    H2  928   0.907   0.123   0.395  1.5939  1.6275  1.8041
  322TIP3   OH2  929   4.450   3.724   3.750 -0.3809 -0.4678 -0.1178
  322TIP3    H1  930   4.371   3.671   3.741  0.0649 -1.1484 -0.0756
  322TIP3    H2  931   4.512   3.668   3.797 -0.9178  1.1795  2.8036
  323TIP3   OH2  932   0.076   3.552   4.205 -0.3562  0.3296  0.8452
  323TIP3    H1  933   0.075   3.569   4.299  1.2186  1.8318  0.6326
  323TIP3    H2  934   0.168   3.536   4.184 -0.6175  0.4679 -0.5128
  324TIP3   OH2  935   1.397   1.879   5.608  0.3964 -0.4607  0.1329
  324TIP3    H1  936   1.468   1.817   5.592 -1.1821 -2.1131 -0.8221
  324TIP3    H2  937   1.362   1.899   5.521 -0.8625 -0.3617  0.6418
  325TIP3   OH2  938   3.007   5.061   5.808  0.1825 -0.1123  0.1720
  325TIP3    H1  939   3.016   5.122   5.882 -0.0311  1.8696 -1.3599
  325TIP3    H2  940   3.097   5.042   5.781  0.2332  0.6597 -0.2193
  326TIP3   OH2  941   4.583   3.396   1.856  0.0602 -0.1790 -0.1300
  326TIP3    H1  942   4.605   3.360   1.942 -2.3297  0.6378  0.8821
  326TIP3    H2  943   4.529   3.329   1.814 -1.2414  0.6025  0.2363
  327TIP3   OH2  944   0.932   5.112   2.072  0.0763 -0.3174  0.6259
  327TIP3    H1  945   0.891   5.128   1.987 -0.6603 -0.5026  0.9344
  327TIP3    H2  946   0.879   5.162   2.134  1.7255  1.3596  0.7723
  328TIP3   OH2  947   1.752   0.906   0.262 -0.1134  0.1215  0.4350
  328TIP3    H1  948   1.803   0.936   0.187  0.5097 -0.7431  0.5027
  328TIP3    H2  949   1.663   0.894   0.228  0.0870  0.0812 -0.0784
  329TIP3   OH2  950   1.997   3.190   4.785  0.1865 -0.2980 -0.5110
  329TIP3    H1  951   1.999   3.276   4.744  0.2712  0.6879  1.4412
  329TIP3    H2  952   2.080   3.149   4.760  0.8405  0.8096 -0.2412
  330TIP3   OH2  953   7.094   6.573   0.638 -0.5588  0.0695  0.1382
  330TIP3    H1  954   7.164   6.590   0.701 -0.2557  0.7749 -0.3746
  330TIP3    H2  955   7.060   6.660   0.615  0.3089 -0.0391 -1.7499
  331TIP3   OH2  956   4.862   1.218   3.348  0.1928  0.0605 -0.3979
  331TIP3    H1  957   4.827   1.284   3.408  0.5058 -0.2817  0.1701
  331TIP3    H2  958   4.926   1.265   3.294  1.5164 -0.0622  0.9899
  332TIP3   OH2  959   0.981   2.974   4.973  0.4445 -0.1942  0.1148
  332TIP3    H1  960   1.076   2.966   4.979  0.4719  0.4109  0.6774
  332TIP3    H2  961   0.952   2.977   5.064 -0.0181  0.6020 -0.0482
  333TIP3   OH2  962   7.169   4.698   3.983  0.5220  0.1605 -0.1870
  333TIP3    H1  963   7.185   4.613   4.024 -0.9354  0.2422  0.5969
  333TIP3    H2  964   7.242   4.753   4.012 -0.6623  0.3361  2.6847
  334TIP3   OH2  965   1.224   3.359   5.770 -0.4990 -0.4301  0.2457
  334TIP3    H1  966   1.186   3.275   5.743 -1.1267 -0.2027  0.3976
  334TIP3    H2  967   1.280   3.384   5.697  1.9678 -2.3256  1.3357
  335TIP3   OH2  968   6.895   6.615   3.129  0.0407 -0.0745  0.1417
  335TIP3    H1  969   6.968   6.554   3.115  0.0067 -0.3209  1.0054
  335TIP3    H2  970   6.821   6.559   3.154 -0.2651  0.2355 -0.0495
  336TIP3   OH2  971   1.699   4.000   2.238 -0.5712 -0.1687 -0.1806
  336TIP3    H1  972   1.615   3.997   2.284 -0.2118 -0.0228  0.4950
  336TIP3    H2  973   1.710   3.912   2.203 -0.9653 -0.2139 -0.2001
  337TIP3   OH2  974   3.889   1.642   5.542 -0.2806  0.0267 -0.1185
  337TIP3    H1  975   3.880   1.715   5.603  0.4178  0.0567 -0.0413
  337TIP3    H2  976   3.809   1.590   5.554  0.4699 -0.7491  1.8496
  338TIP3   OH2  977   4.137   0.575   2.660 -0.5745 -0.0063  1.0491
  338TIP3    H1  978   4.114   0.509   2.725 -0.2081 -1.4811 -0.2510
  338TIP3    H2  979   4.232   0.567   2.650 -0.6391  0.1314  0.2614
  339TIP3   OH2  980   6.729   2.343   5.681 -0.6827 -0.2437  0.0516
  339TIP3    H1  981   6.636   2.345   5.661 -0.6286  0.2905 -0.1811
  339TIP3    H2  982   6.734   2.330   5.776 -1.0073  0.3212  0.1513
  340TIP3   OH2  983   2.258   0.938   2.620 -0.2769 -0.4430  0.2491
  340TIP3    H1  984   2.163   0.932   2.622 -0.2721 -1.3105 -1.1184
  340TIP3    H2  985   2.280   1.000   2.689 -1.9597  1.4357 -0.8207
  341TIP3   OH2  986   5.097   4.397   0.956 -0.3139 -0.5775  0.4381
  341TIP3    H1  987   5.034   4.461   0.924  0.1418  0.3833  1.3898
  341TIP3    H2  988   5.044   4.320   0.979 -1.0026 -0.1619  0.2458
  342TIP3   OH2  989   2.204   5.125   4.780  0.5077  0.2216 -0.5099
  342TIP3    H1  990   2.177   5.034   4.770 -1.2938  0.7046 -0.3383
  342TIP3    H2  991   2.274   5.136   4.716 -0.1145 -0.9566 -1.4364
  343TIP3   OH2  992   4.767   2.920   5.310 -0.5828  0.4192 -0.1055
  343TIP3    H1  993   4.830   2.923   5.382  0.0645 -1.3116 -0.5632
  343TIP3    H2  994   4.799   2.852   5.252 -1.7099  1.0058 -1.4880
  344TIP3   OH2  995   1.158   0.384   3.262 -0.3716  0.2641 -0.2489
  344TIP3    H1  996   1.206   0.467   3.273 -0.4527  0.6574 -2.4538
  344TIP3    H2  997   1.153   0.372   3.167 -1.1818 -1.8161  0.0205
  345TIP3   OH2  998   4.963   2.448   3.006  0.3370  0.2655  0.0001
  345TIP3    H1  999   5.035   2.489   2.957  0.4067 -1.8967 -1.8434
  345TIP3    H2 1000   4.885   2.466   2.954  0.1511 -0.6225 -0.0469
  346TIP3   OH2 1001   4.513   2.704   0.778 -0.0832  0.0166 -0.3180
  346TIP3    H1 1002   4.517   2.612   0.804  1.9097  0.0430 -0.3368
  346TIP3    H2 1003   4.595   2.741   0.811 -1.2574  2.0338  0.5018
  347TIP3   OH2 1004   2.450   4.375   4.202  0.4740 -0.0458 -0.3687
  347TIP3    H1 1005   2.542   4.361   4.227  0.8867 -0.8019 -2.2025
  347TIP3    H2 1006   2.438   4.470   4.206  1.4074  0.0798 -0.3663
  348TIP3   OH2 1007   4.521   3.058   2.625 -0.0606  0.3011  0.2354
  348TIP3    H1 1008   4.472   3.135   2.653 -0.3011  0.0323  0.5647
  348TIP3    H2 1009   4.485   2.986   2.678 -0.5288 -0.2221 -0.7633
  349TIP3   OH2 1010   5.197   4.447   4.742 -0.0730 -0.3169 -0.3675
  349TIP3    H1 1011   5.269   4.401   4.700 -1.2968 -2.8419  0.1375
  349TIP3    H2 1012   5.153   4.492   4.669  2.2403  1.7641 -0.5991
  350TIP3   OH2 1013   0.033   2.004   2.214  0.2676 -0.7141  0.0160
  350TIP3    H1 1014  -0.048   2.045   2.244 -0.0774 -1.3700 -0.0030
  350TIP3    H2 1015   0.035   1.919   2.257 -0.0562 -1.5400 -1.4993
  351TIP3   OH2 1016   0.952   4.076   3.045  0.1430  0.2089 -0.0813
  351TIP3    H1 1017   0.917   4.135   3.112 -1.9678 -0.1689 -0.7486
  351TIP3    H2 1018   0.960   4.130   2.967 -0.6975 -0.0841 -0.3895
  352TIP3   OH2 1019   1.545   2.406   2.961  0.0341  0.6223 -0.1841
  352TIP3    H1 1020   1.527   2.358   2.880 -0.1379 -0.2119  0.3283
  352TIP3    H2 1021   1.637   2.430   2.955  0.5565 -1.1034  0.1813
  353TIP3   OH2 1022   6.832   4.163   3.706  0.3059 -0.2997  0.3634
  353TIP3    H1 1023   6.882   4.134   3.629 -1.7272 -1.4264 -0.5935
  353TIP3    H2 1024   6.861   4.253   3.721  0.7885 -0.0728 -1.6999
  354TIP3   OH2 1025   2.682   5.485   0.197 -0.2081 -0.1412 -0.5601
  354TIP3    H1 1026   2.694   5.468   0.290 -0.4360  0.3235 -0.4404
  354TIP3    H2 1027   2.710   5.405   0.153  0.2136 -0.2400 -0.1098
  355TIP3   OH2 1028   1.140   2.665   1.146  0.1702  0.0316  0.3086
  355TIP3    H1 1029   1.172   2.747   1.107  0.0295  0.3430  0.8494
  355TIP3    H2 1030   1.209   2.640   1.208  0.6968 -0.8036 -0.5813
  356TIP3   OH2 1031   5.729   1.800   2.542 -0.4257 -0.3072  0.0128
  356TIP3    H1 1032   5.714   1.735   2.474 -0.3062 -1.6641  1.2321
  356TIP3    H2 1033   5.656   1.789   2.603 -0.3813  0.6867  0.2642
  357TIP3   OH2 1034   2.671   6.295   5.289 -0.0507 -0.2179  0.0019
  357TIP3    H1 1035   2.705   6.254   5.369 -2.0483 -2.0412  0.0201
  357TIP3    H2 1036   2.657   6.386   5.313  1.5352 -0.1883  0.9939
  358TIP3   OH2 1037   6.141   1.906   4.089 -0.4578  0.3230  0.3333
  358TIP3    H1 1038   6.107   1.825   4.050 -0.3320  0.2044  0.4681
  358TIP3    H2 1039   6.221   1.925   4.040 -0.3167  0.1911  0.5123
  359TIP3   OH2 1040   2.622   4.526   3.670  0.1975  0.2374  0.5624
  359TIP3    H1 1041   2.566   4.576   3.611  1.1107 -0.0039 -0.5546
  359TIP3    H2 1042   2.578   4.530   3.755 -0.3909  1.8638  0.2196
  360TIP3   OH2 1043   2.876   2.030   5.704  0.4396 -0.4006  0.6705
  360TIP3    H1 1044   2.859   2.110   5.655 -0.8204 -2.4059 -2.5196
  360TIP3    H2 1045   2.837   2.045   5.790 -0.4851  2.0779 -0.0998
  361TIP3   OH2 1046   6.305   6.631   4.292  0.1929  0.0288 -0.3726
  361TIP3    H1 1047   6.351   6.599   4.370 -0.5774  1.4111  0.7142
  361TIP3    H2 1048   6.214   6.603   4.304  0.2621 -0.6760 -1.3423
  362TIP3   OH2 1049   2.713   2.757   0.843  0.3831 -0.5449 -0.1622
  362TIP3    H1 1050   2.731   2.707   0.763  1.5076  0.6377 -0.7103
  362TIP3    H2 1051   2.633   2.720   0.878 -0.1751 -1.0707 -1.8897
  363TIP3   OH2 1052   3.225   5.324   1.458 -0.3290  0.0659  0.5234
  363TIP3    H1 1053   3.232   5.375   1.378  2.2861  1.5645  1.5566
  363TIP3    H2 1054   3.156   5.367   1.508  0.8922  1.8815  0.7784
  364TIP3   OH2 1055   1.573   6.422   3.121  0.1374  0.3714  0.0482
  364TIP3    H1 1056   1.540   6.396   3.035  1.0259 -0.8489  0.0442
  364TIP3    H2 1057   1.661   6.457   3.104  2.0019 -3.3763  0.7039
  365TIP3   OH2 1058   6.209   5.489   4.807 -0.1205 -0.0843 -0.0192
  365TIP3    H1 1059   6.248   5.536   4.733 -0.5491  0.5010  0.1131
  365TIP3    H2 1060   6.163   5.415   4.767  1.2587 -0.8929 -0.1599
  366TIP3   OH2 1061   6.717   3.279   2.867  0.2938  0.4442  0.0333
  366TIP3    H1 1062   6.686   3.331   2.792 -0.1056  0.9166  0.5164
  366TIP3    H2 1063   6.773   3.339   2.917 -1.4204  0.9620  1.4471
  367TIP3   OH2 1064   1.072   4.176   5.489  0.5187  0.4439 -0.1692
  367TIP3    H1 1065   1.091   4.149   5.399 -0.5047  2.2814 -1.0180
  367TIP3    H2 1066   0.976   4.169   5.496  0.3126  2.5447 -0.0823
  368TIP3   OH2 1067   0.129   6.237   2.620 -0.0270  0.0303 -0.0859
  368TIP3    H1 1068   0.196   6.212   2.684  1.3714 -0.3522 -1.6280
  368TIP3    H2 1069   0.165   6.315   2.578  1.2610 -2.1218 -3.3662
  369TIP3   OH2 1070   3.352   6.258   3.934 -0.5667 -0.5432 -0.3037
  369TIP3    H1 1071   3.445   6.235   3.937 -0.4758 -0.0817  0.9273
  369TIP3    H2 1072   3.334   6.274   3.842  1.0344  1.1343 -0.3700
  370TIP3   OH2 1073   3.221   1.348   0.354 -0.3192  0.2592  0.2651
  370TIP3    H1 1074   3.269   1.335   0.272 -0.3874  0.1051  0.2491
  370TIP3    H2 1075   3.155   1.414   0.333 -0.4605  0.0787  0.1456
  371TIP3   OH2 1076   3.277   2.827   5.406 -0.2561 -0.2676  0.4636
  371TIP3    H1 1077   3.278   2.755   5.469  2.1052  0.5677  1.4872
  371TIP3    H2 1078   3.273   2.906   5.460 -0.7316  0.4212 -0.5518
  372TIP3   OH2 1079   0.965   0.466   0.653 -0.2019 -0.1153  0.5547
  372TIP3    H1 1080   0.960   0.372   0.670 -0.0451 -0.1497  0.4094
  372TIP3    H2 1081   0.921   0.478   0.569  0.6945 -0.2012  0.0614
  373TIP3   OH2 1082   2.490   1.345   3.030  0.2677 -0.0470  0.4129
  373TIP3    H1 1083   2.404   1.316   2.998  0.2212  0.1221  0.3824
  373TIP3    H2 1084   2.480   1.440   3.040  0.6621  0.0672 -0.2406
  374TIP3   OH2 1085   0.070   5.279   3.447  0.0579 -0.7717  0.0835
  374TIP3    H1 1086   0.051   5.228   3.526 -0.2375 -1.7879 -0.6263
  374TIP3    H2 1087   0.090   5.213   3.380 -1.6282 -0.0534 -1.2036
  375TIP3   OH2 1088   4.743   5.835   0.756 -0.3749  0.2238  0.3380
  375TIP3    H1 1089   4.818   5.865   0.703  0.3785 -1.1991  0.5421
  375TIP3    H2 1090   4.777   5.833   0.845  0.2161 -2.8713  0.1282
  376TIP3   OH2 1091   3.040   6.790   5.129  0.7234  0.9802  0.1761
  376TIP3    H1 1092   3.071   6.752   5.211  1.1696  0.3167 -0.2866
  376TIP3    H2 1093   3.119   6.797   5.074  0.0570 -1.1445 -1.1822
  377TIP3   OH2 1094   5.012   5.213   1.933  0.8061  0.0172 -0.0965
  377TIP3    H1 1095   5.078   5.276   1.962  1.0545 -0.4291  0.3286
  377TIP3    H2 1096   5.037   5.131   1.976 -1.4157  0.3803  2.0859
  378TIP3   OH2 1097   3.539   2.432   1.502 -0.2370  0.6346 -0.3996
  378TIP3    H1 1098   3.549   2.480   1.420 -0.4001  1.0083 -0.2034
  378TIP3    H2 1099   3.614   2.373   1.505 -0.4622  0.2999 -1.0267
  379TIP3   OH2 1100   3.995   3.480   3.109  0.0515  0.1430  0.6298
  379TIP3    H1 1101   3.977   3.520   3.195 -1.3090 -0.3321  0.5922
  379TIP3    H2 1102   4.087   3.501   3.092  0.8403 -1.0596  2.9075
  380TIP3   OH2 1103   4.975   2.860   2.206 -0.8041 -0.0065 -0.1573
  380TIP3    H1 1104   5.053   2.822   2.164  1.7263 -0.1684  4.0948
  380TIP3    H2 1105   4.923   2.895   2.133  2.4578 -1.2398 -3.3952
  381TIP3   OH2 1106  -0.029   2.418   4.379 -0.0318 -0.1993 -0.1353
  381TIP3    H1 1107   0.029   2.441   4.452  0.3662 -1.0434 -0.1738
  381TIP3    H2 1108   0.017   2.450   4.301 -0.7872  1.3401  0.0146
  382TIP3   OH2 1109   5.585   6.672   2.333  0.3531  0.7312 -0.0716
  382TIP3    H1 1110   5.507   6.725   2.353 -0.3399  0.0906 -0.9694
  382TIP3    H2 1111   5.610   6.700   2.245  0.0542 -0.3242 -0.5048
  383TIP3   OH2 1112   1.453   3.105   0.979  0.3201 -0.2521  0.1819
  383TIP3    H1 1113   1.516   3.039   1.010  0.0461 -0.3372  0.5623
  383TIP3    H2 1114   1.396   3.057   0.919  1.7858  0.2503 -1.6762
  384TIP3   OH2 1115   6.427   3.113   0.473 -0.0308 -0.1882  0.5571
  384TIP3    H1 1116   6.417   3.039   0.414  0.2748 -0.1259  0.4216
  384TIP3    H2 1117   6.468   3.181   0.419  2.0205 -0.7588  1.2971
  385TIP3   OH2 1118   3.205   6.365   0.345  0.3224 -0.1054 -0.5481
  385TIP3    H1 1119   3.164   6.302   0.285 -0.5206 -0.1724  0.0801
  385TIP3    H2 1120   3.252   6.310   0.407  0.2868 -0.0814 -0.5001
  386TIP3   OH2 1121   0.947   2.365   1.050 -0.1686  0.2210  0.1697
  386TIP3    H1 1122   0.917   2.449   1.084 -1.0265 -0.2614  0.6216
  386TIP3    H2 1123   0.874   2.305   1.064 -0.0035 -0.3429 -1.2053
  387TIP3   OH2 1124   2.424   3.698   2.429  0.4808  0.6207 -0.4127
  387TIP3    H1 1125   2.418   3.788   2.461 -0.6026  1.0852 -1.8000
  387TIP3    H2 1126   2.508   3.694   2.385  1.9030  0.0277  2.1755
  388TIP3   OH2 1127   0.842   3.395   2.622 -0.7112 -0.0643  0.0779
  388TIP3    H1 1128   0.886   3.456   2.680 -2.3844  0.8102  0.4896
  388TIP3    H2 1129   0.757   3.435   2.604 -1.8957 -2.2668  0.3903
  389TIP3   OH2 1130   5.666   3.334   4.553  0.2314  0.4519 -0.4012
  389TIP3    H1 1131   5.646   3.385   4.474 -0.3111  1.5855  0.4449
  389TIP3    H2 1132   5.619   3.379   4.623  0.0827 -0.9904  0.4487
  390TIP3   OH2 1133   3.858   2.952   5.739  0.1187  0.3731  0.2809
  390TIP3    H1 1134   3.939   2.974   5.786 -0.4964  0.9900  1.0709
  390TIP3    H2 1135   3.880   2.966   5.647  1.2029 -0.4171  0.4009
  391TIP3   OH2 1136   3.355   5.938   0.738 -0.0735  0.5415  0.0294
  391TIP3    H1 1137   3.440   5.975   0.763 -0.9119  1.7063  1.2486
  391TIP3    H2 1138   3.305   5.934   0.819 -1.1302 -0.3474 -0.6335
  392TIP3   OH2 1139   4.726   2.195   1.704  0.9189 -0.6299 -0.1400
  392TIP3    H1 1140   4.722   2.100   1.692  3.6048 -1.1646  2.2807
  392TIP3    H2 1141   4.768   2.227   1.624 -1.3034 -1.1857 -1.6399
  393TIP3   OH2 1142   0.117   3.393   2.625  0.2776  0.2783  0.3437
  393TIP3    H1 1143   0.066   3.343   2.561  1.0612 -0.2291  0.1088
  393TIP3    H2 1144   0.101   3.349   2.708 -2.9898  2.5354  1.1262
  394TIP3   OH2 1145   6.573   4.484   1.512  0.1076  0.1265  0.2405
  394TIP3    H1 1146   6.549   4.540   1.438 -2.2122 -1.0014  0.0409
  394TIP3    H2 1147   6.611   4.544   1.576 -0.7943  1.6770 -0.6188
  395TIP3   OH2 1148   0.452   2.187   2.984 -0.0797 -0.0265  0.5067
  395TIP3    H1 1149   0.458   2.207   3.077  0.8453 -3.0201  1.1966
  395TIP3    H2 1150   0.543   2.170   2.958 -0.4335 -0.1647 -0.6955
  396TIP3   OH2 1151   2.361   2.848   5.025 -0.3417  0.1748  0.0797
  396TIP3    H1 1152   2.396   2.920   4.974 -0.4599 -0.3335 -0.7341
  396TIP3    H2 1153   2.408   2.771   4.994 -2.1333 -0.5386 -1.0739
  397TIP3   OH2 1154   2.514   6.523   4.922  0.2320 -0.6612  0.6527
  397TIP3    H1 1155   2.567   6.600   4.898  0.5165 -1.0364  0.0756
  397TIP3    H2 1156   2.459   6.507   4.846 -1.0293 -0.0316  1.3919
  398TIP3   OH2 1157   6.621   0.395   0.408  0.7981 -0.1723  0.3179
  398TIP3    H1 1158   6.669   0.475   0.426  1.5415 -0.4677 -0.3227
  398TIP3    H2 1159   6.544   0.400   0.465  2.1417 -0.2241  2.1957
  399TIP3   OH2 1160   1.438   1.976   2.237 -0.3022  0.5785 -0.4841
  399TIP3    H1 1161   1.513   1.938   2.192  0.3657  0.1502  0.9208
  399TIP3    H2 1162   1.362   1.935   2.197  0.3315 -0.9645 -0.1879
  400TIP3   OH2 1163   0.551   6.517   3.819  0.0310  0.3895  0.1193
  400TIP3    H1 1164   0.457   6.531   3.811 -0.2567 -1.0971  0.4695
  400TIP3    H2 1165   0.571   6.451   3.752  0.3597 -1.0072  1.5075
  401TIP3   OH2 1166   1.042   3.439   4.713  0.1687  0.1503 -0.3455
  401TIP3    H1 1167   1.090   3.480   4.785  0.6046 -0.9255 -0.0060
  401TIP3    H2 1168   1.045   3.504   4.643  1.6938  0.3209 -0.1527
  402TIP3   OH2 1169   3.344   2.178   3.107 -0.0382  0.2633  0.7393
  402TIP3    H1 1170   3.360   2.178   3.202  1.4921 -0.7659  0.5245
  402TIP3    H2 1171   3.367   2.267   3.079  2.2748 -0.1857  0.9805
  403TIP3   OH2 1172   0.322   4.510   4.740  0.1272  0.0348  0.0453
  403TIP3    H1 1173   0.361   4.535   4.824 -1.1901  1.7689  0.1964
  403TIP3    H2 1174   0.251   4.451   4.764 -0.9359  1.3689  0.2853
  404TIP3   OH2 1175   7.110   3.227   1.587 -0.6608  0.1618  0.4693
  404TIP3    H1 1176   7.053   3.177   1.528  0.2784 -0.3403 -0.0418
  404TIP3    H2 1177   7.112   3.176   1.667  0.2275 -0.6080 -0.0221
  405TIP3   OH2 1178   3.022   4.745   0.457  0.0911  0.0658 -1.0236
  405TIP3    H1 1179   2.987   4.833   0.472  0.4939 -0.1224  1.5131
  405TIP3    H2 1180   3.115   4.759   0.437  1.0186  0.2601  2.5655
  406TIP3   OH2 1181   3.106   3.643   4.929  0.0659  0.6065  0.0743
  406TIP3    H1 1182   3.063   3.566   4.968  0.8445  0.1014 -0.0503
  406TIP3    H2 1183   3.123   3.618   4.839  0.9161  0.6672  0.2078
  407TIP3   OH2 1184   0.848   3.703   4.583 -0.2848  0.7499  0.0320
  407TIP3    H1 1185   0.836   3.608   4.579 -0.9384  0.7416  1.5085
  407TIP3    H2 1186   0.801   3.736   4.506  0.5164 -0.1520 -0.8727
  408TIP3   OH2 1187   4.013   6.542   2.435 -0.5054  0.2327  0.3766
  408TIP3    H1 1188   3.966   6.624   2.424 -1.2870 -0.1637  0.6889
  408TIP3    H2 1189   3.945   6.477   2.452  0.1529 -0.3437  0.9042
  409TIP3   OH2 1190   5.766   4.601   1.831  0.5970  0.0862 -0.8069
  409TIP3    H1 1191   5.825   4.674   1.848 -0.6329  0.8935  0.1257
  409TIP3    H2 1192   5.705   4.601   1.904 -0.1021 -1.1997 -1.3537
  410TIP3   OH2 1193   1.922   4.913   4.055  0.6753  0.0320  0.2001
  410TIP3    H1 1194   1.874   4.922   3.973  0.0583 -0.6636  0.4766
  410TIP3    H2 1195   2.010   4.944   4.035  0.6174 -0.4286 -0.8046
  411TIP3   OH2 1196   2.669   5.858   0.875 -0.5297  0.4381  0.8011
  411TIP3    H1 1197   2.627   5.921   0.934 -3.4434  1.4054 -1.9916
  411TIP3    H2 1198   2.737   5.909   0.831 -1.1480  0.9356  0.3986
  412TIP3   OH2 1199   7.202   0.175   2.107 -0.5912  0.2870  0.0144
  412TIP3    H1 1200   7.170   0.091   2.074 -0.8638  0.3153  0.1979
  412TIP3    H2 1201   7.127   0.212   2.155  0.1403 -0.2768  1.6513
  413TIP3   OH2 1202   4.768   3.510   5.750 -0.2668  0.0112 -0.2383
  413TIP3    H1 1203   4.822   3.580   5.711 -0.6577  0.6619  0.3731
  413TIP3    H2 1204   4.726   3.468   5.675 -0.4567  0.7879 -0.5743
  414TIP3   OH2 1205   4.476   2.239   3.848 -0.0168 -0.0765  0.6041
  414TIP3    H1 1206   4.479   2.328   3.882  1.9924 -0.9650  3.1325
  414TIP3    H2 1207   4.525   2.243   3.766 -0.2131  1.1886  0.5351
  415TIP3   OH2 1208   7.212   3.744   5.905 -0.3212 -0.2711 -0.1659
  415TIP3    H1 1209   7.260   3.737   5.823 -1.7881 -1.5167 -0.9732
  415TIP3    H2 1210   7.123   3.769   5.878 -0.3226  1.4677  1.2355
  416TIP3   OH2 1211   6.515   4.482   3.483 -0.2602  0.2898  0.2314
  416TIP3    H1 1212   6.468   4.563   3.503 -0.3409  0.1300  0.6848
  416TIP3    H2 1213   6.524   4.437   3.567  2.3295  1.1839  0.5441
  417TIP3   OH2 1214   1.245   5.064   3.682  0.2829 -0.1947 -0.5480
  417TIP3    H1 1215   1.259   4.976   3.715 -0.4796  0.1627  0.8538
  417TIP3    H2 1216   1.234   5.054   3.588  0.5992 -1.5408 -0.4567
  418TIP3   OH2 1217   2.294   2.337   3.520  0.5939  0.2448  0.1281
  418TIP3    H1 1218   2.254   2.344   3.606 -1.0499 -0.8611 -0.4896
  418TIP3    H2 1219   2.220   2.327   3.460  1.7209  0.3377 -1.3447
  419TIP3   OH2 1220   5.866   6.632   1.339  0.3406 -0.1159  0.0429
  419TIP3    H1 1221   5.796   6.696   1.322  0.9462  0.7924  0.8106
  419TIP3    H2 1222   5.915   6.628   1.257  0.7288  0.9825  0.2050
  420TIP3   OH2 1223   3.506   6.788   1.367  0.0608  0.5269  0.2792
  420TIP3    H1 1224   3.430   6.754   1.414  0.6021 -0.6964  0.2905
  420TIP3    H2 1225   3.580   6.740   1.403  0.5457 -0.1228 -1.5111
  421TIP3   OH2 1226   5.624   6.295   0.600 -0.5325 -0.7302 -0.0970
  421TIP3    H1 1227   5.699   6.320   0.654 -0.1888  2.4350 -1.8386
  421TIP3    H2 1228   5.548   6.320   0.652 -0.2053  2.3943 -0.9479
  422TIP3   OH2 1229   4.874   6.375   1.082  0.5096  0.1085  0.2384
  422TIP3    H1 1230   4.916   6.384   0.997  1.3449  0.2606  0.6491
  422TIP3    H2 1231   4.919   6.440   1.137 -0.5546  0.5673  0.5934
  423TIP3   OH2 1232   2.294   0.804   5.166  0.6684  0.4880  0.4129
  423TIP3    H1 1233   2.232   0.876   5.182 -0.3952  0.1717 -1.8433
  423TIP3    H2 1234   2.249   0.726   5.200 -1.6090 -0.1959 -3.5344
  424TIP3   OH2 1235   2.771   3.990   2.112  0.4311  0.0070  0.1753
  424TIP3    H1 1236   2.679   3.990   2.139 -0.1792  0.7484 -1.7505
  424TIP3    H2 1237   2.773   3.938   2.032  2.0692 -1.6210  1.1949
  425TIP3   OH2 1238   4.481   3.535   0.480 -0.0855  0.3812  0.0946
  425TIP3    H1 1239   4.401   3.568   0.440 -1.0187 -1.1068  0.6604
  425TIP3    H2 1240   4.544   3.534   0.408 -1.5766 -1.7731 -1.2973
  426TIP3   OH2 1241   5.044   2.110   5.211 -0.3141  0.5325 -1.3333
  426TIP3    H1 1242   4.989   2.095   5.287  0.3985  2.9711 -0.2449
  426TIP3    H2 1243   4.985   2.102   5.136 -1.8133  1.5705 -0.3037
  427TIP3   OH2 1244   5.296   6.441   2.232  0.2190 -0.1445 -0.6249
  427TIP3    H1 1245   5.270   6.515   2.286  0.4497 -1.2318  1.0387
  427TIP3    H2 1246   5.337   6.481   2.155  1.0949  1.4400  0.6081
  428TIP3   OH2 1247   4.210   2.557   2.404  0.4842  0.3848 -0.2720
  428TIP3    H1 1248   4.191   2.465   2.385  0.8395  0.3132 -0.2970
  428TIP3    H2 1249   4.170   2.573   2.489  0.4790  0.1842 -0.2357
  429TIP3   OH2 1250   3.338   0.047   3.033 -0.1526  0.0365 -0.0959
  429TIP3    H1 1251   3.331  -0.014   3.105  0.3256 -0.1096 -0.1679
  429TIP3    H2 1252   3.392   0.002   2.968 -0.1576  0.3595 -0.3296
  430TIP3   OH2 1253   4.768   2.973   2.659 -0.3192 -0.0398 -0.0496
  430TIP3    H1 1254   4.798   3.011   2.741 -1.7867  0.3717  0.3295
  430TIP3    H2 1255   4.689   3.023   2.636 -0.0196 -0.2291 -1.6433
  431TIP3   OH2 1256   3.797   3.458   2.771  0.3930  0.5068  0.0648
  431TIP3    H1 1257   3.882   3.499   2.757  0.3776  0.6603  0.4130
  431TIP3    H2 1258   3.748   3.521   2.823 -0.1096  0.6319 -0.5488
  432TIP3   OH2 1259   6.378   3.543   0.705  0.1480  0.0980 -0.3348
  432TIP3    H1 1260   6.325   3.568   0.629 -0.5434 -1.2733 -0.3484
  432TIP3    H2 1261   6.354   3.451   0.721  0.9617  0.0915  0.9790
  433TIP3   OH2 1262   5.361   4.970   1.855  0.1819 -0.2549  0.0828
  433TIP3    H1 1263   5.421   5.040   1.831  0.7382 -1.0151 -0.8011
  433TIP3    H2 1264   5.274   5.004   1.834  0.5378 -0.3305 -1.6973
  434TIP3   OH2 1265   1.806   3.910   3.476  0.3615 -0.0307 -0.3705
  434TIP3    H1 1266   1.843   3.986   3.520  2.3488 -0.7519 -0.6803
  434TIP3    H2 1267   1.732   3.944   3.426  0.9424  1.5963 -0.1678
  435TIP3   OH2 1268   5.710   3.369   1.876 -0.3677 -0.2006 -0.1543
  435TIP3    H1 1269   5.704   3.465   1.878  0.1474 -0.1252 -1.2763
  435TIP3    H2 1270   5.752   3.346   1.959  1.4752  0.7418 -0.7585
  436TIP3   OH2 1271   1.518   1.658   3.004  0.0231 -0.1085  0.0539
  436TIP3    H1 1272   1.464   1.730   2.973 -1.3414 -0.6152  1.1652
  436TIP3    H2 1273   1.495   1.649   3.096  0.8918 -1.3407  0.1746
  437TIP3   OH2 1274   5.507   5.363   4.398  0.5354  0.3626 -0.0295
  437TIP3    H1 1275   5.546   5.278   4.415 -1.4427 -0.4314  0.9056
  437TIP3    H2 1276   5.573   5.410   4.347  1.1761 -2.1845 -1.7573
  438TIP3   OH2 1277   4.595   0.595   2.332  0.3834  0.0625 -0.2525
  438TIP3    H1 1278   4.546   0.529   2.381 -0.6684  0.8750 -0.1580
  438TIP3    H2 1279   4.687   0.574   2.348  0.0946 -1.7755 -0.7933
  439TIP3   OH2 1280   0.273   3.394   4.436  0.3461  0.1699  0.1068
  439TIP3    H1 1281   0.200   3.347   4.396  0.5095 -1.3472  1.4482
  439TIP3    H2 1282   0.232   3.459   4.492 -0.0650 -1.1844  1.4571
  440TIP3   OH2 1283   5.584   1.907   4.471 -0.4467 -0.3083 -0.2612
  440TIP3    H1 1284   5.621   1.845   4.534 -1.3379 -1.1226 -0.5132
  440TIP3    H2 1285   5.603   1.993   4.509 -1.1013 -0.7772  1.2219
  441TIP3   OH2 1286   5.652   5.795   4.936 -0.3141 -0.2536  0.4347
  441TIP3    H1 1287   5.684   5.877   4.974 -2.3507  1.4664 -1.3185
  441TIP3    H2 1288   5.597   5.757   5.004 -1.1719  1.0208  0.4856
  442TIP3   OH2 1289   5.076   2.129   4.926  0.0560  0.0561  0.0378
  442TIP3    H1 1290   5.135   2.053   4.926 -0.8234 -0.6517 -0.8831
  442TIP3    H2 1291   5.126   2.198   4.882  0.5457 -0.2531  0.1025
  443TIP3   OH2 1292   2.389   0.443   4.942 -0.5322 -0.0162  0.1125
  443TIP3    H1 1293   2.370   0.525   4.897 -0.8432  1.1433  2.1965
  443TIP3    H2 1294   2.462   0.404   4.893 -1.1231  0.9384 -1.5667
  444TIP3   OH2 1295   0.904   4.397   2.047 -0.1858 -0.5574 -0.1962
  444TIP3    H1 1296   0.901   4.439   2.133  1.0239  0.1436 -0.4685
  444TIP3    H2 1297   0.888   4.304   2.065 -1.5371 -0.1872  0.5744
  445TIP3   OH2 1298   4.442   0.081   3.515  0.0518 -0.1625  0.4328
  445TIP3    H1 1299   4.357   0.041   3.528 -0.4056  0.8685  0.7453
  445TIP3    H2 1300   4.503   0.027   3.566 -0.5419 -0.4342  0.8626
  446TIP3   OH2 1301   1.722   1.573   3.475 -0.3545 -0.9112 -0.1588
  446TIP3    H1 1302   1.737   1.541   3.564 -0.9132 -0.1339  0.2309
  446TIP3    H2 1303   1.808   1.602   3.446 -0.2269 -0.8511  0.2633
  447TIP3   OH2 1304   1.496   3.452   4.583  0.6287  0.1492 -0.2448
  447TIP3    H1 1305   1.574   3.415   4.625  0.7987 -0.7912 -1.3488
  447TIP3    H2 1306   1.527   3.483   4.498 -0.1657 -0.0467 -0.6154
  448TIP3   OH2 1307   2.480   3.316   5.250 -0.1661  0.1222 -0.0574
  448TIP3    H1 1308   2.426   3.241   5.277 -0.2558 -0.0379 -0.6679
  448TIP3    H2 1309   2.418   3.380   5.218 -0.0471  0.2387 -0.0562
  449TIP3   OH2 1310   1.248   1.093   1.642 -0.2207 -0.1516 -0.4007
  449TIP3    H1 1311   1.293   1.013   1.613 -1.5490 -0.1795 -2.5924
  449TIP3    H2 1312   1.211   1.130   1.562 -0.7243  2.0048  0.7532
  450TIP3   OH2 1313   6.749   1.858   5.137 -0.2068  0.0315  0.3436
  450TIP3    H1 1314   6.736   1.764   5.143  0.5536 -0.1369 -0.5345
  450TIP3    H2 1315   6.781   1.883   5.224 -0.0718 -0.5749  0.4693
  451TIP3   OH2 1316   6.612   6.633   2.961  0.4980  0.2987  0.2174
  451TIP3    H1 1317   6.651   6.564   3.016  1.1879  1.0864  0.7331
  451TIP3    H2 1318   6.546   6.587   2.909  1.7288 -0.9839 -0.2760
  452TIP3   OH2 1319   3.653   4.651   2.399 -0.3229 -0.0980 -0.3111
  452TIP3    H1 1320   3.615   4.577   2.351 -0.5230  0.8981 -1.7434
  452TIP3    H2 1321   3.712   4.693   2.336  0.6360  0.3339  0.8295
  453TIP3   OH2 1322   5.821   2.526   1.107 -0.3556  0.3566 -0.5333
  453TIP3    H1 1323   5.817   2.585   1.031 -1.0509  1.6582  0.4744
  453TIP3    H2 1324   5.865   2.448   1.074 -0.3314  1.0258 -2.1882
  454TIP3   OH2 1325   1.425   1.324   2.701 -0.0330 -0.2725  0.7362
  454TIP3    H1 1326   1.393   1.357   2.617  1.3156 -1.9933 -0.5198
  454TIP3    H2 1327   1.376   1.374   2.766 -1.3301  0.9205 -1.0527
  455TIP3   OH2 1328   5.972   1.740   0.480 -0.4855 -0.6039  0.3805
  455TIP3    H1 1329   6.031   1.676   0.520  3.4922  2.1425 -0.5544
  455TIP3    H2 1330   5.998   1.743   0.388 -0.1828  2.5394  0.4603
  456TIP3   OH2 1331   5.611   2.234   2.633  0.1884 -0.3076 -0.3790
  456TIP3    H1 1332   5.643   2.225   2.723 -1.0104  1.2278  0.2421
  456TIP3    H2 1333   5.664   2.305   2.597 -0.7550  0.5254 -0.1657
  457TIP3   OH2 1334   0.827   0.103   5.081  0.2707  0.1057 -0.1432
  457TIP3    H1 1335   0.815   0.067   4.994 -0.4647 -0.7120  0.2854
  457TIP3    H2 1336   0.800   0.195   5.072  0.0370 -0.0135 -0.7339
  458TIP3   OH2 1337   3.676   5.238   3.317  0.2009  0.4522  0.1107
  458TIP3    H1 1338   3.597   5.184   3.307  0.2029  0.4598  0.0523
  458TIP3    H2 1339   3.665   5.308   3.252  0.6820 -0.0588 -0.5356
  459TIP3   OH2 1340   5.740   1.399   2.431  0.2915 -0.2753  0.0584
  459TIP3    H1 1341   5.803   1.442   2.373  0.3413  0.8437  0.9179
  459TIP3    H2 1342   5.709   1.468   2.490 -0.4078 -1.1911  0.8070
  460TIP3   OH2 1343   5.273   6.738   1.106 -0.3890  0.0650  0.5316
  460TIP3    H1 1344   5.203   6.761   1.167 -0.3607 -0.4201  0.7525
  460TIP3    H2 1345   5.235   6.751   1.019 -0.9743 -0.8208  0.6438
  461TIP3   OH2 1346   6.257   3.676   3.850  0.2106 -0.2690  0.2264
  461TIP3    H1 1347   6.292   3.687   3.762 -1.3940 -0.3055 -0.4378
  461TIP3    H2 1348   6.324   3.625   3.896  0.9431 -0.4746 -1.0286
  462TIP3   OH2 1349   3.691   4.210   1.267  0.1572 -0.1282 -0.2466
  462TIP3    H1 1350   3.635   4.267   1.214 -1.4546 -1.7891 -0.4089
  462TIP3    H2 1351   3.780   4.244   1.253 -0.7867  3.0807  0.6092
  463TIP3   OH2 1352   0.846   2.779   1.475  0.1931  0.1266  0.0539
  463TIP3    H1 1353   0.760   2.816   1.495 -1.3321 -2.5896 -0.9150
  463TIP3    H2 1354   0.839   2.687   1.501  2.5701 -0.3462 -0.7439
  464TIP3   OH2 1355   3.332   3.084   4.753 -0.1789 -0.1047 -0.4420
  464TIP3    H1 1356   3.386   3.160   4.775 -0.2063  0.1617 -1.2635
  464TIP3    H2 1357   3.354   3.019   4.820 -0.2905  0.6839  0.3768
  465TIP3   OH2 1358   4.013   5.848   4.609  0.0214 -0.2589 -0.2129
  465TIP3    H1 1359   3.994   5.827   4.518  0.7600 -1.3339 -0.1381
  465TIP3    H2 1360   3.952   5.794   4.660 -0.2054  0.1359 -0.0591
  466TIP3   OH2 1361   0.684   6.348   3.634 -0.0297 -0.5142 -0.2529
  466TIP3    H1 1362   0.636   6.314   3.558 -0.4160 -0.1130 -0.1897
  466TIP3    H2 1363   0.745   6.278   3.656  0.3727 -0.4736 -1.1848
  467TIP3   OH2 1364   4.404   3.383   0.695 -0.4773 -0.6327 -0.2892
  467TIP3    H1 1365   4.344   3.332   0.640  2.3116 -2.7669 -1.5926
  467TIP3    H2 1366   4.449   3.441   0.633 -0.1935 -0.0570  0.4421
  468TIP3   OH2 1367   3.939   2.818   2.770  0.0999  0.0345 -0.3333
  468TIP3    H1 1368   3.859   2.768   2.789  0.4668 -0.3560  0.2269
  468TIP3    H2 1369   3.952   2.872   2.847  1.3526 -1.2220  0.3756
  469TIP3   OH2 1370   4.386   0.970   2.272 -0.5871 -0.2028 -0.5530
  469TIP3    H1 1371   4.413   1.022   2.347 -0.1900 -2.0424  0.6570
  469TIP3    H2 1372   4.418   1.019   2.196  1.9362  0.1319  0.6207
  470TIP3   OH2 1373   6.570   5.731   1.898  0.8105 -0.3242 -0.2948
  470TIP3    H1 1374   6.577   5.766   1.987  2.6465 -0.0080 -0.5403
  470TIP3    H2 1375   6.477   5.740   1.877  0.4854  0.3477  1.2856
  471TIP3   OH2 1376   0.038   4.352   5.151 -0.6122 -0.1830  0.5075
  471TIP3    H1 1377   0.067   4.262   5.165  0.1288 -0.5710 -2.7803
  471TIP3    H2 1378   0.117   4.404   5.167 -0.5629 -0.2936  0.6319
  472TIP3   OH2 1379   4.692   0.354   3.952 -0.4482 -0.9379  0.6164
  472TIP3    H1 1380   4.708   0.420   3.884 -2.9848 -0.4812  0.3441
  472TIP3    H2 1381   4.716   0.271   3.910  0.6474 -0.4097  0.1594
  473TIP3   OH2 1382   6.304   1.133   4.575  0.2612 -0.0442 -0.1405
  473TIP3    H1 1383   6.287   1.116   4.482  0.5600 -0.2056 -0.1672
  473TIP3    H2 1384   6.372   1.200   4.575  2.9594 -2.5819 -0.0996
  474TIP3   OH2 1385   5.484   4.144   3.146 -0.8221 -0.2282  0.0848
  474TIP3    H1 1386   5.504   4.179   3.059 -1.4149  1.9207  0.7485
  474TIP3    H2 1387   5.482   4.049   3.134  2.2822 -0.2274 -1.5748
  475TIP3   OH2 1388   6.649   6.275   5.187  0.1840 -0.2653 -0.2103
  475TIP3    H1 1389   6.693   6.274   5.102  1.6057  0.8757  0.4561
  475TIP3    H2 1390   6.717   6.248   5.249  0.2845  2.3662  0.9650
  476TIP3   OH2 1391   2.810   4.362   4.018  0.2642 -0.3684  0.4767
  476TIP3    H1 1392   2.726   4.340   4.059 -0.6214  2.5989  0.4445
  476TIP3    H2 1393   2.846   4.277   3.991 -1.9479 -1.8756  1.9134
  477TIP3   OH2 1394   1.561   5.805   2.392  1.1338  0.4693  0.4359
  477TIP3    H1 1395   1.516   5.753   2.458  1.2776  1.3378  1.2448
  477TIP3    H2 1396   1.647   5.824   2.430  1.4974  0.3664 -0.3155
  478TIP3   OH2 1397   1.437   0.811   3.542  0.4166 -0.8067 -0.2153
  478TIP3    H1 1398   1.393   0.802   3.457 -1.3462  0.2065  0.5482
  478TIP3    H2 1399   1.506   0.876   3.527  0.6772 -1.2608 -1.0548
  479TIP3   OH2 1400   0.847   1.418   5.893 -0.3764 -0.2001  0.3006
  479TIP3    H1 1401   0.815   1.386   5.809  0.9674 -1.0682  0.0896
  479TIP3    H2 1402   0.926   1.468   5.871  0.0551 -0.5362  1.0320
  480TIP3   OH2 1403   5.095   1.967   2.115 -0.0692  0.2239 -0.0700
  480TIP3    H1 1404   5.099   2.047   2.168 -0.9005 -0.2375  0.7250
  480TIP3    H2 1405   5.029   1.913   2.159 -0.5848 -0.2983 -1.4333
  481TIP3   OH2 1406   5.219   3.633   5.064 -0.0458  0.1540 -0.2780
  481TIP3    H1 1407   5.226   3.541   5.042 -2.6722 -0.3240  0.5619
  481TIP3    H2 1408   5.257   3.640   5.152  2.1874  0.3736 -1.1880
  482TIP3   OH2 1409   2.322   0.084   0.881  0.6417 -0.6442 -0.3189
  482TIP3    H1 1410   2.318  -0.006   0.915 -0.5357 -0.8609 -0.9865
  482TIP3    H2 1411   2.321   0.073   0.786  2.2747  0.0281 -0.4507
  483TIP3   OH2 1412   7.071   0.726   4.510 -0.0310  0.1611  0.2032
  483TIP3    H1 1413   7.046   0.634   4.502 -0.5948  0.4362 -1.9926
  483TIP3    H2 1414   7.159   0.724   4.547 -0.6030 -1.1730  1.5616
  484TIP3   OH2 1415   5.429   5.821   3.675 -0.2304 -0.6481  1.0642
  484TIP3    H1 1416   5.459   5.795   3.762 -1.8590 -1.4594  1.4256
  484TIP3    H2 1417   5.333   5.819   3.681 -0.3865 -0.7577 -0.7602
  485TIP3   OH2 1418   4.040   6.255   0.065  0.5680  0.2342  0.1846
  485TIP3    H1 1419   4.063   6.186   0.004  0.5982 -0.3249  0.8217
  485TIP3    H2 1420   4.115   6.262   0.124  0.2628  0.3060  0.5681
  486TIP3   OH2 1421   0.509   5.275   4.395 -0.1911 -0.2160  0.4222
  486TIP3    H1 1422   0.419   5.303   4.408 -0.1883  0.2354 -0.4477
  486TIP3    H2 1423   0.541   5.330   4.324  0.6887 -0.5496  0.5501
  487TIP3   OH2 1424   0.653   3.458   2.317 -0.0659  0.2439  0.2481
  487TIP3    H1 1425   0.614   3.473   2.403 -1.1814  0.2301 -0.2389
  487TIP3    H2 1426   0.586   3.486   2.255 -0.5780 -2.6831 -0.6812
  488TIP3   OH2 1427   2.676   1.838   5.748  0.6561 -0.2881  0.1588
  488TIP3    H1 1428   2.607   1.905   5.749  0.7557 -0.1832 -0.1345
  488TIP3    H2 1429   2.756   1.886   5.726  0.6733 -0.5579 -0.3626
  489TIP3   OH2 1430   4.039   4.920   2.554  0.4929 -0.1083 -0.1631
  489TIP3    H1 1431   4.074   4.966   2.478 -0.1655  0.9841  0.1748
  489TIP3    H2 1432   4.018   4.832   2.521  2.2300 -0.3555 -0.6935
  490TIP3   OH2 1433   5.328   3.443   0.364 -0.3481  0.4187  0.4043
  490TIP3    H1 1434   5.396   3.382   0.394 -0.3095  0.5808  0.6523
  490TIP3    H2 1435   5.341   3.521   0.417 -1.3473  0.0976  1.1541
  491TIP3   OH2 1436   2.045   6.230   0.963 -0.2730 -0.0408 -0.0834
  491TIP3    H1 1437   2.032   6.148   0.916 -0.0095  0.4476 -1.0228
  491TIP3    H2 1438   1.996   6.219   1.045 -1.0761 -0.7444 -0.6503
  492TIP3   OH2 1439   1.679   0.868   1.124 -1.1608 -0.4321 -0.0476
  492TIP3    H1 1440   1.716   0.780   1.126  2.5458  0.9815  0.7153
  492TIP3    H2 1441   1.717   0.908   1.045 -2.0337  0.7843  0.1195
  493TIP3   OH2 1442   6.853   6.206   5.368  0.3945  0.2206 -0.0761
  493TIP3    H1 1443   6.836   6.195   5.461 -0.1586  0.4841 -0.1411
  493TIP3    H2 1444   6.834   6.121   5.329  0.1490  0.2504 -0.0176
  494TIP3   OH2 1445   4.421   5.725   0.332 -0.2630  0.1066  0.0584
  494TIP3    H1 1446   4.370   5.769   0.264  0.1904  0.7171  0.1014
  494TIP3    H2 1447   4.356   5.679   0.385 -0.6051 -0.6386 -0.9579
  495TIP3   OH2 1448   7.088   3.916   1.015  0.4213 -0.3366 -0.1519
  495TIP3    H1 1449   7.139   3.883   1.088  0.8820 -0.3203 -0.4621
  495TIP3    H2 1450   7.148   3.974   0.968 -0.6859  2.0046  1.0872
  496TIP3   OH2 1451   3.882   5.151   1.679 -0.2465 -0.3387 -0.5779
  496TIP3    H1 1452   3.789   5.136   1.660 -0.7255  0.5749  0.9262
  496TIP3    H2 1453   3.899   5.102   1.759  0.6979 -0.8104 -1.0426
  497TIP3   OH2 1454   6.798   5.600   0.538 -0.0452 -0.4888  0.5340
  497TIP3    H1 1455   6.795   5.652   0.458 -0.9851 -0.6159  0.4794
  497TIP3    H2 1456   6.882   5.554   0.534  0.8379  1.0184  0.5913
  498TIP3   OH2 1457   2.102   4.501   5.901 -1.0507  0.3472 -0.1209
  498TIP3    H1 1458   2.126   4.521   5.810 -1.5269 -0.7996 -0.5255
  498TIP3    H2 1459   2.009   4.477   5.895 -0.2560 -3.3239  0.0189
  499TIP3   OH2 1460   0.456   6.380   1.021  0.4821  0.5531  0.9024
  499TIP3    H1 1461   0.471   6.473   1.038  1.4968  0.8355 -1.2296
  499TIP3    H2 1462   0.458   6.373   0.926 -3.8488 -0.9900  0.6876
  500TIP3   OH2 1463   5.638   4.780   1.589  0.1223 -0.0546 -0.1992
  500TIP3    H1 1464   5.653   4.866   1.628 -2.5451 -0.0085  0.9948
  500TIP3    H2 1465   5.628   4.722   1.664 -1.0383 -0.7968 -0.9009
  501TIP3   OH2 1466   3.408   6.756   0.280  0.3649 -0.9077  0.0215
  501TIP3    H1 1467   3.421   6.664   0.257 -0.5125 -0.5054 -2.3009
  501TIP3    H2 1468   3.314   6.770   0.268  0.3679  0.1255  1.0759
  502TIP3   OH2 1469   2.601   0.221   1.456 -0.0223  0.2448  0.1871
  502TIP3    H1 1470   2.546   0.193   1.529 -1.4103  0.7746 -0.6182
  502TIP3    H2 1471   2.671   0.272   1.498 -2.4350  3.2260  1.0597
  503TIP3   OH2 1472   2.817   3.066   5.145  0.0641  0.5557  0.6888
  503TIP3    H1 1473   2.782   3.080   5.233  0.4078  0.4537  0.8423
  503TIP3    H2 1474   2.749   3.100   5.087 -1.1169 -1.2630  0.9182
  504TIP3   OH2 1475   5.879   4.713   3.916 -0.0778  0.4256  0.5839
  504TIP3    H1 1476   5.917   4.750   3.996 -2.7234  0.1811  2.0484
  504TIP3    H2 1477   5.887   4.619   3.928 -0.1876  0.3935  0.3947
  505TIP3   OH2 1478   6.342   2.710   4.980 -0.1469 -0.6203 -0.5010
  505TIP3    H1 1479   6.405   2.642   5.003 -0.7725 -1.0288  0.0276
  505TIP3    H2 1480   6.262   2.686   5.026  0.1484  1.5393  1.3041
  506TIP3   OH2 1481   2.199   1.548   4.031 -0.5992 -0.1466  0.3467
  506TIP3    H1 1482   2.219   1.513   4.117  0.9542  0.0838  0.1113
  506TIP3    H2 1483   2.240   1.635   4.030 -0.2195 -0.3231 -0.7610
  507TIP3   OH2 1484   3.524   2.186   0.043  0.3163 -0.1299  0.4307
  507TIP3    H1 1485   3.460   2.244   0.002  0.1217 -1.1565 -0.7764
  507TIP3    H2 1486   3.594   2.244   0.072 -0.9805  0.9814  1.4940
  508TIP3   OH2 1487   5.516   6.322   1.229 -0.4894 -0.0661 -0.1041
  508TIP3    H1 1488   5.595   6.323   1.284  0.0291  2.3775 -0.7741
  508TIP3    H2 1489   5.444   6.327   1.292 -0.0207 -0.3048  0.4650
  509TIP3   OH2 1490   0.040   4.221   5.613 -0.2720 -0.6658 -0.7588
  509TIP3    H1 1491  -0.010   4.194   5.535 -1.5852  1.6511 -0.8143
  509TIP3    H2 1492   0.055   4.140   5.661 -2.8682 -1.6926 -1.4913
  510TIP3   OH2 1493   1.082   6.571   0.662  0.5491  0.1265 -0.4507
  510TIP3    H1 1494   1.056   6.602   0.575 -0.3231 -1.0329 -0.6212
  510TIP3    H2 1495   1.090   6.651   0.714 -2.4690  0.6949 -0.6447
  511TIP3   OH2 1496   4.047   0.425   2.877  0.0308  0.4495  0.1009
  511TIP3    H1 1497   3.958   0.445   2.906 -0.3983  2.0405 -2.1572
  511TIP3    H2 1498   4.042   0.333   2.848 -1.6639  1.2628 -2.5453
  512TIP3   OH2 1499   0.356   5.740   4.121  0.1556 -0.2484  0.2400
  512TIP3    H1 1500   0.380   5.716   4.210  1.8347 -0.6870 -0.3041
  512TIP3    H2 1501   0.271   5.698   4.108  0.4021 -1.1167  1.2523
  513TIP3   OH2 1502   6.967   3.664   3.459 -0.4846  0.4063  0.2546
  513TIP3    H1 1503   6.881   3.631   3.433  0.0961 -1.2481  0.3207
  513TIP3    H2 1504   6.967   3.657   3.554 -0.4144  0.7775  0.2822
  514TIP3   OH2 1505   1.399   1.548   0.709  0.0651 -0.5110 -0.2081
  514TIP3    H1 1506   1.339   1.493   0.659  0.1981  0.9950 -2.1310
  514TIP3    H2 1507   1.344   1.617   0.744  0.1785 -0.8964  0.7567
  515TIP3   OH2 1508   6.599   5.741   1.270 -0.2529 -0.7175 -0.1349
  515TIP3    H1 1509   6.656   5.750   1.194 -0.0713 -0.2059  0.0587
  515TIP3    H2 1510   6.510   5.742   1.234 -0.1440 -1.8977 -0.4718
  516TIP3   OH2 1511   0.592   2.817   3.750 -0.1207 -0.5063  0.2384
  516TIP3    H1 1512   0.647   2.742   3.728 -0.6957 -0.7272 -0.4757
  516TIP3    H2 1513   0.651   2.893   3.745  0.6156 -0.9474  1.5571
  517TIP3   OH2 1514   4.339   0.985   3.978  0.4257  0.0573  0.4178
  517TIP3    H1 1515   4.337   1.056   3.913  1.7159 -0.9023 -0.7076
  517TIP3    H2 1516   4.417   1.003   4.031  1.2232 -0.9407 -0.3895
  518TIP3   OH2 1517   1.787   5.362   1.741  0.6037  0.2392  0.0260
  518TIP3    H1 1518   1.694   5.369   1.718  0.7498  0.5903 -0.4567
  518TIP3    H2 1519   1.788   5.367   1.836  0.0084 -1.0769  0.1365
  519TIP3   OH2 1520   0.485   6.295   0.726  0.4658  0.2545  0.0970
  519TIP3    H1 1521   0.490   6.199   0.720 -1.7647  0.1665 -1.8812
  519TIP3    H2 1522   0.449   6.322   0.641 -0.5270  2.6974  1.2118
  520TIP3   OH2 1523   3.783   0.420   0.285 -0.7383  0.8665  0.1993
  520TIP3    H1 1524   3.691   0.417   0.312 -0.2502  1.0138  2.0084
  520TIP3    H2 1525   3.832   0.419   0.367  0.9340 -0.5924 -0.7454
  521TIP3   OH2 1526   4.586   3.614   2.214 -0.1454 -0.3576  0.4451
  521TIP3    H1 1527   4.494   3.620   2.187 -0.2323 -1.5357  0.3913
  521TIP3    H2 1528   4.586   3.544   2.280  0.9274 -1.4845 -0.6810
  522TIP3   OH2 1529   1.186   6.470   2.185 -0.1440 -0.3032 -0.8285
  522TIP3    H1 1530   1.166   6.460   2.092  1.7510 -0.1985 -1.2714
  522TIP3    H2 1531   1.166   6.562   2.203 -2.8432 -0.8650 -0.4775
  523TIP3   OH2 1532   3.794   0.272   5.318  0.4630  0.0932 -0.3777
  523TIP3    H1 1533   3.784   0.258   5.224  0.3290 -0.1318 -0.3299
  523TIP3    H2 1534   3.725   0.220   5.358 -0.1473  1.0179 -0.2074
  524TIP3   OH2 1535   2.111   1.114   4.629 -0.6522  0.3722 -0.2714
  524TIP3    H1 1536   2.060   1.036   4.607 -0.0900 -0.0944  0.0678
  524TIP3    H2 1537   2.167   1.128   4.553  1.2264 -1.1886  0.7394
  525TIP3   OH2 1538   3.711   2.949   4.407  0.2586  0.0460  0.0640
  525TIP3    H1 1539   3.801   2.924   4.429  1.1358  2.3035 -0.7052
  525TIP3    H2 1540   3.681   3.000   4.483 -0.3689 -0.6598  0.2990
  526TIP3   OH2 1541   4.583   2.625   4.896  0.0940 -0.0681 -0.1463
  526TIP3    H1 1542   4.584   2.688   4.824  2.1157 -0.1344 -0.2416
  526TIP3    H2 1543   4.657   2.651   4.951  1.3713 -2.6280 -0.4739
  527TIP3   OH2 1544   5.307   3.410   2.408 -0.1670  0.0473  0.3339
  527TIP3    H1 1545   5.342   3.445   2.327  0.8377 -0.3172  0.5973
  527TIP3    H2 1546   5.281   3.320   2.386 -1.7565  0.5788 -0.0728
  528TIP3   OH2 1547   4.388   1.537   3.049 -0.4670 -0.3222 -0.0953
  528TIP3    H1 1548   4.407   1.510   3.139 -0.2009  0.2934  0.0432
  528TIP3    H2 1549   4.293   1.545   3.045 -0.5549 -1.2873 -0.1522
  529TIP3   OH2 1550   0.534   3.738   4.995 -0.4582 -0.4328 -0.6190
  529TIP3    H1 1551   0.584   3.773   4.921  0.8145  0.4965  0.6370
  529TIP3    H2 1552   0.543   3.804   5.064 -1.5360 -1.3163  0.4119
  530TIP3   OH2 1553   6.711   1.752   0.331  0.4801 -0.1452  0.0414
  530TIP3    H1 1554   6.622   1.786   0.331  0.2031 -0.8595 -0.1373
  530TIP3    H2 1555   6.764   1.823   0.294 -0.0680  0.1334 -0.2116
  531TIP3   OH2 1556   6.020   0.537   0.051  0.0448  0.3204  0.3996
  531TIP3    H1 1557   5.974   0.516   0.132 -1.0540  0.6161 -0.1206
  531TIP3    H2 1558   5.950   0.549  -0.014  0.9114 -0.3786 -0.7088
  532TIP3   OH2 1559   0.049   6.593   4.131  0.1866 -0.7898  0.3266
  532TIP3    H1 1560   0.120   6.604   4.068 -0.7832 -1.1386 -0.8817
  532TIP3    H2 1561   0.088   6.611   4.216  1.9109 -1.8277 -0.2098
  533TIP3   OH2 1562   1.114   0.367   4.604 -0.2712 -0.3655  0.1349
  533TIP3    H1 1563   1.121   0.357   4.509 -0.9536  1.1122 -0.0918
  533TIP3    H2 1564   1.176   0.437   4.626 -2.1597  1.3360  0.3375
  534TIP3   OH2 1565   6.560   4.013   1.291  0.2412  0.3063  0.5303
  534TIP3    H1 1566   6.469   4.001   1.263  0.4782 -1.8889  0.5551
  534TIP3    H2 1567   6.556   4.088   1.351 -1.7060 -0.2086  1.1387
  535TIP3   OH2 1568   1.453   6.698   5.440 -0.2665  0.6669 -0.3268
  535TIP3    H1 1569   1.468   6.610   5.406 -0.4169  0.5002  0.0406
  535TIP3    H2 1570   1.507   6.703   5.519 -1.1599  0.4928  0.3096
  536TIP3   OH2 1571   2.106   4.370   0.973 -0.2407  0.5727 -0.0584
  536TIP3    H1 1572   2.111   4.394   0.881  0.4248  1.1251  0.1116
  536TIP3    H2 1573   2.053   4.439   1.013 -2.1780 -0.6767 -0.3373
  537TIP3   OH2 1574   2.564   6.254   3.438 -0.0804  0.3396  0.0647
  537TIP3    H1 1575   2.486   6.292   3.397 -0.5527 -3.5736 -3.3553
  537TIP3    H2 1576   2.532   6.214   3.519 -1.0378  1.0233  0.0404
  538TIP3   OH2 1577   1.919   1.436   1.575  0.5486  0.4359  0.3035
  538TIP3    H1 1578   1.870   1.371   1.526  0.7330  0.8417 -0.4371
  538TIP3    H2 1579   1.862   1.460   1.648 -0.2577  0.7217 -0.4026
  539TIP3   OH2 1580   4.589   6.128   2.611 -0.8106 -0.1651  0.0307
  539TIP3    H1 1581   4.626   6.078   2.538 -1.7353 -0.7380 -0.0566
  539TIP3    H2 1582   4.654   6.120   2.681 -0.9856 -1.5857  0.0490
  540TIP3   OH2 1583   5.416   4.820   2.557  0.0239  0.1214  0.1061
  540TIP3    H1 1584   5.509   4.819   2.533  0.3027 -2.3450  1.0100
  540TIP3    H2 1585   5.373   4.862   2.483  1.9513  2.7373  0.3005
  541TIP3   OH2 1586   6.126   4.696   4.545 -0.0340  0.0443 -0.4816
  541TIP3    H1 1587   6.176   4.774   4.519 -1.0260  0.5225 -0.9989
  541TIP3    H2 1588   6.130   4.696   4.640  1.5412 -0.3261 -0.5138
  542TIP3   OH2 1589   2.156   1.087   2.836  0.1616 -0.1059  0.1376
  542TIP3    H1 1590   2.131   1.025   2.905 -1.7793 -0.0438 -0.4462
  542TIP3    H2 1591   2.147   1.173   2.876  0.0772 -0.1024  0.1103
  543TIP3   OH2 1592   6.805   5.113   2.636 -0.5661 -0.2094  0.1624
  543TIP3    H1 1593   6.895   5.132   2.611 -0.2791 -0.4839  0.9673
  543TIP3    H2 1594   6.797   5.018   2.629  0.2828 -0.6308  3.4578
  544TIP3   OH2 1595   5.295   6.484   5.479  0.8858  0.1746  0.3470
  544TIP3    H1 1596   5.336   6.546   5.539 -0.8140  2.3384 -0.5979
  544TIP3    H2 1597   5.229   6.439   5.532  0.4905  0.9176  0.5033
  545TIP3   OH2 1598   6.337   3.371   5.485  0.7126 -0.6576  0.2863
  545TIP3    H1 1599   6.427   3.358   5.457  0.9893 -0.1494  0.8982
  545TIP3    H2 1600   6.283   3.344   5.411  1.4082  0.7649 -0.7829
  546TIP3   OH2 1601   2.880   4.828   1.686 -0.0633  0.4683 -0.1136
  546TIP3    H1 1602   2.875   4.773   1.764  0.0810  1.4159  0.5826
  546TIP3    H2 1603   2.790   4.854   1.669 -0.1240  0.0699 -0.4072
  547TIP3   OH2 1604   6.809   0.556   5.639 -0.1429 -0.3673 -0.1319
  547TIP3    H1 1605   6.852   0.638   5.617 -0.5497 -0.1627 -0.1765
  547TIP3    H2 1606   6.731   0.582   5.688 -0.5243 -0.6938 -0.5488
  548TIP3   OH2 1607   1.048   4.245   2.799 -0.3892 -0.1206 -0.2155
  548TIP3    H1 1608   1.098   4.181   2.749  0.6002  0.2042  0.3351
  548TIP3    H2 1609   1.054   4.326   2.749 -5.0470 -1.1815 -3.1660
  549TIP3   OH2 1610   2.693   0.434   4.126  0.3047  0.0640 -0.2749
  549TIP3    H1 1611   2.761   0.439   4.194 -0.0892  1.7861  0.0227
  549TIP3    H2 1612   2.610   0.438   4.174  0.0199  0.8064 -0.8084
  550TIP3   OH2 1613   0.800   0.360   1.798 -0.1690 -1.0099 -0.1615
  550TIP3    H1 1614   0.824   0.451   1.814 -0.8720 -1.0772  1.5459
  550TIP3    H2 1615   0.719   0.347   1.849 -0.5957 -2.3368 -1.1129
  551TIP3   OH2 1616   4.537   0.012   3.082 -0.3901  0.2203  0.1949
  551TIP3    H1 1617   4.570   0.093   3.043  1.4654 -0.3631  0.4451
  551TIP3    H2 1618   4.472   0.040   3.146  0.4497  1.5370  0.5027
  552TIP3   OH2 1619   6.210   1.252   1.073 -0.4123  0.1911 -0.9336
  552TIP3    H1 1620   6.257   1.330   1.104 -1.1090  0.2476  0.0368
  552TIP3    H2 1621   6.243   1.181   1.128 -0.1013 -0.1283 -1.5201
  553TIP3   OH2 1622   7.035   2.509   4.590  0.1433  0.7163  0.2831
  553TIP3    H1 1623   6.947   2.543   4.582 -0.0194 -0.1507 -2.9099
  553TIP3    H2 1624   7.062   2.488   4.501  3.3433  0.3020  1.1859
  554TIP3   OH2 1625   5.920   0.371   2.193 -0.3797  0.2958  0.2648
  554TIP3    H1 1626   6.012   0.391   2.176 -0.8040  2.0193 -0.2740
  554TIP3    H2 1627   5.882   0.357   2.107 -0.5983 -0.5397  0.4946
  555TIP3   OH2 1628   6.011   0.508   0.684  0.1097  0.3634 -0.3152
  555TIP3    H1 1629   5.961   0.589   0.675  0.5559  0.5886 -0.7889
  555TIP3    H2 1630   5.981   0.471   0.767  1.3353  2.0426  0.9469
  556TIP3   OH2 1631   2.123   5.785   4.137  0.2851 -0.4976 -0.1394
  556TIP3    H1 1632   2.157   5.867   4.174 -0.4009 -0.5262  0.5908
  556TIP3    H2 1633   2.191   5.720   4.155 -0.3884 -0.6998  1.9129
  557TIP3   OH2 1634   4.533   0.916   5.210 -0.0798  0.2315 -0.6695
  557TIP3    H1 1635   4.610   0.969   5.194  1.2651 -0.5485  2.5241
  557TIP3    H2 1636   4.565   0.826   5.207 -0.6680 -0.0862  1.2432
  558TIP3   OH2 1637   2.626   4.693   0.431  0.4542 -0.0630  0.0162
  558TIP3    H1 1638   2.620   4.783   0.462  0.6103  0.1091 -0.4350
  558TIP3    H2 1639   2.630   4.702   0.335  0.4008 -0.5517 -0.0313
  559TIP3   OH2 1640   2.526   2.071   5.836  0.0100 -0.0432  0.0159
  559TIP3    H1 1641   2.438   2.091   5.803  0.1180  0.1835 -0.1358
  559TIP3    H2 1642   2.572   2.155   5.834 -0.8858  0.7117  3.6711
  560TIP3   OH2 1643   6.834   4.628   5.227 -0.3177  0.2451 -0.1558
  560TIP3    H1 1644   6.889   4.571   5.174  1.8565  0.4436  1.7548
  560TIP3    H2 1645   6.855   4.716   5.196 -1.6611  0.1991 -1.2729
  561TIP3   OH2 1646   4.063   0.587   5.036  0.7527 -0.8243  0.0808
  561TIP3    H1 1647   3.973   0.556   5.046  0.5846 -0.4242 -0.1560
  561TIP3    H2 1648   4.109   0.516   4.991  0.6534 -1.1917  0.5589
  562TIP3   OH2 1649   2.169   4.012   4.350 -0.8041  0.3595 -0.2184
  562TIP3    H1 1650   2.156   4.017   4.445 -0.0171 -0.1154 -0.0670
  562TIP3    H2 1651   2.097   3.957   4.319 -1.0360  0.4727  0.1116
  563TIP3   OH2 1652   0.622   2.931   4.944  0.2531  0.0953  0.3586
  563TIP3    H1 1653   0.698   2.880   4.972  1.4901  1.1705 -0.8674
  563TIP3    H2 1654   0.566   2.867   4.899  0.6142 -0.6447  0.9325
  564TIP3   OH2 1655   3.816   0.054   2.526 -0.7144  0.0572  0.2218
  564TIP3    H1 1656   3.824   0.078   2.433 -1.2310 -1.5788 -0.2651
  564TIP3    H2 1657   3.744  -0.008   2.529 -0.2337 -0.4712  1.6303
  565TIP3   OH2 1658   0.953   0.921   5.344 -0.0782  0.3243  0.3713
  565TIP3    H1 1659   1.032   0.901   5.293 -0.6595  0.4145 -0.5935
  565TIP3    H2 1660   0.925   0.836   5.380 -0.6975 -0.0867 -1.0101
  566TIP3   OH2 1661   0.068   5.268   2.882  0.5882  0.0059  0.3582
  566TIP3    H1 1662   0.137   5.229   2.935  0.9841 -1.6944 -1.2830
  566TIP3    H2 1663   0.105   5.272   2.794 -1.3522 -0.9203 -0.5685
  567TIP3   OH2 1664   4.697   4.016   3.648  0.2273 -0.2766  0.3102
  567TIP3    H1 1665   4.698   3.965   3.567  1.8148  0.2030 -0.0106
  567TIP3    H2 1666   4.644   4.093   3.628  0.0967 -0.4643 -0.0689
  568TIP3   OH2 1667   6.704   1.216   1.041 -0.3358  0.3152 -0.2901
  568TIP3    H1 1668   6.642   1.255   0.979 -1.1044  0.6213  0.6574
  568TIP3    H2 1669   6.737   1.289   1.092  0.6061  0.1124 -0.5910
  569TIP3   OH2 1670   0.299   4.519   0.965 -0.0391  0.4505 -0.2864
  569TIP3    H1 1671   0.380   4.469   0.974 -0.1361  0.4569  0.7483
  569TIP3    H2 1672   0.245   4.466   0.905 -0.4910 -1.1959  1.4570
  570TIP3   OH2 1673   0.330   3.670   4.186 -0.1673  0.2223  0.3375
  570TIP3    H1 1674   0.402   3.717   4.144 -0.2096 -0.3671 -0.4189
  570TIP3    H2 1675   0.372   3.622   4.258  0.0556  0.5374  0.4193
  571TIP3   OH2 1676   3.013   6.047   2.878  0.1757 -0.1593 -0.2728
  571TIP3    H1 1677   2.977   5.967   2.840 -1.8319  0.6859 -0.2867
  571TIP3    H2 1678   2.936   6.101   2.897  1.4815  2.0301 -0.8409
  572TIP3   OH2 1679   5.811   5.583   4.818 -0.4497 -0.4648 -0.0441
  572TIP3    H1 1680   5.747   5.646   4.852  0.2486 -0.3478  1.1170
  572TIP3    H2 1681   5.849   5.544   4.897  1.5655  0.1471 -0.6559
  573TIP3   OH2 1682   1.562   2.808   3.745  0.0964  0.3284  0.3525
  573TIP3    H1 1683   1.500   2.846   3.806 -0.5848 -1.3575  0.7590
  573TIP3    H2 1684   1.643   2.799   3.796 -0.8367 -2.3322  1.5428
  574TIP3   OH2 1685   6.165   6.299   0.218  0.8630 -0.3136  0.2173
  574TIP3    H1 1686   6.161   6.377   0.273  2.1834  0.5393 -0.8599
  574TIP3    H2 1687   6.109   6.320   0.143  2.7879  0.4414 -1.0615
  575TIP3   OH2 1688   1.050   4.443   4.832  0.4638 -0.4009  0.2034
  575TIP3    H1 1689   1.073   4.362   4.786 -0.7370 -0.1031 -0.9768
  575TIP3    H2 1690   1.043   4.417   4.924 -0.1604 -1.7175 -0.1873
  576TIP3   OH2 1691   6.898   4.301   5.568 -0.1466 -0.7891  0.2995
  576TIP3    H1 1692   6.904   4.393   5.541 -0.9300 -0.9923 -0.5976
  576TIP3    H2 1693   6.971   4.258   5.522  0.5018 -0.5470  1.0785
  577TIP3   OH2 1694   4.126   2.728   3.079 -0.7364  0.4024 -0.0005
  577TIP3    H1 1695   4.218   2.748   3.065  0.1077 -1.9098  1.8017
  577TIP3    H2 1696   4.084   2.814   3.084  1.7146  1.6240  1.5813
  578TIP3   OH2 1697   5.428   5.470   2.300 -0.2447 -0.3213  0.2470
  578TIP3    H1 1698   5.393   5.503   2.217 -0.8665 -2.1559 -0.2446
  578TIP3    H2 1699   5.496   5.408   2.275 -0.2557 -0.7075  1.1323
  579TIP3   OH2 1700   0.852   6.623   2.267  0.0795  0.3946  0.0034
  579TIP3    H1 1701   0.931   6.592   2.312 -0.4586 -1.1144 -0.0544
  579TIP3    H2 1702   0.780   6.573   2.307 -0.8861  1.8233  0.1379
  580TIP3   OH2 1703   2.670   4.961   0.578 -0.2458  0.3302 -0.0214
  580TIP3    H1 1704   2.763   4.942   0.591 -0.1191  0.7229 -0.3331
  580TIP3    H2 1705   2.664   4.992   0.488 -0.7506 -0.1271 -0.1474
  581TIP3   OH2 1706   2.101   3.425   5.693 -0.2106 -0.1432 -0.5508
  581TIP3    H1 1707   2.136   3.366   5.760 -0.4518 -0.1147 -0.3970
  581TIP3    H2 1708   2.008   3.434   5.716 -0.0576  0.7467 -0.2404
  582TIP3   OH2 1709   3.614   0.224   1.328  0.5556 -0.5452 -0.0593
  582TIP3    H1 1710   3.570   0.239   1.244  1.4564  2.8968 -0.0363
  582TIP3    H2 1711   3.634   0.130   1.327 -0.6821 -0.9029 -3.0491
  583TIP3   OH2 1712   5.326   6.199   4.523 -0.4958  0.0840 -0.1288
  583TIP3    H1 1713   5.354   6.132   4.461 -0.5279 -0.9175  0.9278
  583TIP3    H2 1714   5.246   6.235   4.484 -1.7229 -1.9928  0.2975
  584TIP3   OH2 1715   0.932   4.652   0.085 -0.1218 -0.7026  0.1875
  584TIP3    H1 1716   0.932   4.723   0.021 -1.2924 -1.5791 -0.8294
  584TIP3    H2 1717   1.003   4.674   0.146 -1.0565  1.8268  0.4601
  585TIP3   OH2 1718   2.363   4.908   1.550  0.1268  0.7900 -0.3375
  585TIP3    H1 1719   2.346   4.872   1.637  0.6939  0.1384 -0.4842
  585TIP3    H2 1720   2.296   4.868   1.494  2.0533 -1.8853 -0.9440
  586TIP3   OH2 1721   1.142   4.397   1.146 -0.2136 -0.2231  0.1930
  586TIP3    H1 1722   1.201   4.447   1.202  0.2465 -0.6546  0.1012
  586TIP3    H2 1723   1.099   4.463   1.091 -1.0179  0.2513  1.3598
  587TIP3   OH2 1724   0.161   2.678   0.842 -0.4925 -0.2600 -0.0179
  587TIP3    H1 1725   0.090   2.628   0.883 -1.2465  1.4303  0.8195
  587TIP3    H2 1726   0.226   2.688   0.911 -0.6043  0.4003 -0.0092
  588TIP3   OH2 1727   4.630   3.298   2.793  0.2239  0.0783  0.6830
  588TIP3    H1 1728   4.651   3.385   2.826  0.5856  0.3802 -0.3224
  588TIP3    H2 1729   4.546   3.277   2.834  0.9843  0.1132  2.3783
  589TIP3   OH2 1730   7.133   4.446   2.121 -0.4209 -0.1788  0.6867
  589TIP3    H1 1731   7.125   4.506   2.047  1.0671 -0.9361 -0.1319
  589TIP3    H2 1732   7.189   4.375   2.089 -1.0673 -1.3509  2.0414
  590TIP3   OH2 1733   5.369   1.420   1.951  0.0691  0.3319  0.2644
  590TIP3    H1 1734   5.336   1.457   2.033  0.7488 -0.9259  1.1397
  590TIP3    H2 1735   5.402   1.334   1.976  0.5682  0.0553 -1.2899
  591TIP3   OH2 1736   4.588   4.319   0.342 -0.1552  0.0449 -0.3037
  591TIP3    H1 1737   4.653   4.264   0.300 -0.9121 -0.6197 -0.6439
  591TIP3    H2 1738   4.514   4.321   0.281 -0.3030  1.1223 -0.1194
  592TIP3   OH2 1739   0.279   0.164   1.887  0.1631 -0.1093  0.2874
  592TIP3    H1 1740   0.228   0.095   1.930  0.0557 -0.0604  0.2376
  592TIP3    H2 1741   0.236   0.178   1.803  0.5815 -0.4458  0.0196
  593TIP3   OH2 1742   7.119   3.409   1.174  0.6315  0.3686  0.4204
  593TIP3    H1 1743   7.182   3.381   1.241  0.6300  0.3018  0.3937
  593TIP3    H2 1744   7.034   3.404   1.218  0.7136  1.1898  0.6962
  594TIP3   OH2 1745   6.821   5.442   4.323  0.1196 -0.1274  0.5067
  594TIP3    H1 1746   6.876   5.466   4.397 -1.0312 -1.8324  2.0013
  594TIP3    H2 1747   6.860   5.361   4.289 -1.0228 -0.9637  1.1406
  595TIP3   OH2 1748   5.399   3.144   3.701 -0.5038 -0.2118 -0.2311
  595TIP3    H1 1749   5.382   3.131   3.794  1.7317  0.8278  0.3947
  595TIP3    H2 1750   5.325   3.102   3.657 -0.4809 -2.7778  1.9126
  596TIP3   OH2 1751   5.320   1.817   2.415  0.3802  0.0048  0.0883
  596TIP3    H1 1752   5.325   1.863   2.499  1.4099  1.8855 -0.9368
  596TIP3    H2 1753   5.408   1.825   2.378  0.1300 -1.3887 -0.8906
  597TIP3   OH2 1754   5.063   3.334   5.555 -0.0500 -0.0680  0.0356
  597TIP3    H1 1755   5.045   3.424   5.582  1.0250 -0.0252  0.6808
  597TIP3    H2 1756   5.158   3.333   5.537  0.3859 -1.5583  2.0968
  598TIP3   OH2 1757   6.221   1.371   0.012 -0.3197  0.6435  0.2241
  598TIP3    H1 1758   6.300   1.330   0.047  0.5818 -0.0865 -2.4392
  598TIP3    H2 1759   6.235   1.465   0.026 -0.1101  0.3875  1.9167
  599TIP3   OH2 1760   6.637   0.563   3.535 -0.5063  0.3423  0.0097
  599TIP3    H1 1761   6.700   0.582   3.604 -1.3623  1.2493  0.5684
  599TIP3    H2 1762   6.641   0.639   3.477  0.4441 -0.5537 -1.1680
  600TIP3   OH2 1763   5.442   0.148   4.681 -0.1592  0.2090  0.5399
  600TIP3    H1 1764   5.503   0.114   4.747  0.4229 -0.9145 -0.5378
  600TIP3    H2 1765   5.457   0.093   4.604 -0.2637  1.9861 -0.8026
  601TIP3   OH2 1766   2.435   1.370   4.223 -0.4291 -0.2015  0.0265
  601TIP3    H1 1767   2.476   1.306   4.282 -0.9990 -1.6343 -1.0784
  601TIP3    H2 1768   2.452   1.336   4.135 -1.1013  0.9636 -0.5766
  602TIP3   OH2 1769   5.152   3.371   0.997 -0.1949 -0.2034  0.4174
  602TIP3    H1 1770   5.223   3.425   1.029 -0.6710 -0.1127  1.3335
  602TIP3    H2 1771   5.082   3.433   0.977 -0.0663 -0.3025 -0.3898
  603TIP3   OH2 1772   5.889   2.200   5.368 -0.2877  0.3149 -0.0856
  603TIP3    H1 1773   5.901   2.159   5.454  0.4883  0.5513 -0.0711
  603TIP3    H2 1774   5.963   2.168   5.316  1.0722  2.6138  0.2898
  604TIP3   OH2 1775   5.263   3.785   0.870 -0.2061  0.2597 -0.0148
  604TIP3    H1 1776   5.273   3.859   0.930  1.5127 -1.1604  1.6056
  604TIP3    H2 1777   5.201   3.816   0.804  0.1640  2.9868  0.7724
  605TIP3   OH2 1778   5.862   6.565   0.952 -0.1857 -0.3301  0.1346
  605TIP3    H1 1779   5.817   6.649   0.941 -1.3240 -1.1384 -2.1214
  605TIP3    H2 1780   5.947   6.588   0.989 -0.9817  1.6643  0.8845
  606TIP3   OH2 1781   4.236   5.504   3.480  0.0375 -0.6152  0.2738
  606TIP3    H1 1782   4.322   5.464   3.467  0.9776  1.5328 -0.5914
  606TIP3    H2 1783   4.253   5.582   3.533 -1.8772 -1.7797  2.8048
  607TIP3   OH2 1784   5.752   0.191   3.591  0.1207  0.4285  0.1940
  607TIP3    H1 1785   5.753   0.248   3.668  1.8588  1.3274 -0.4277
  607TIP3    H2 1786   5.800   0.240   3.524  0.2519 -1.0925 -0.8881
  608TIP3   OH2 1787   5.430   3.410   4.758 -0.8240 -0.0594 -0.1572
  608TIP3    H1 1788   5.376   3.387   4.834 -0.8331 -3.6441 -1.0493
  608TIP3    H2 1789   5.368   3.447   4.695 -1.5128 -0.5346  0.2317
  609TIP3   OH2 1790   3.445   5.670   4.213 -0.0529  0.2011  0.2906
  609TIP3    H1 1791   3.488   5.738   4.161  0.6699  1.0583  1.9271
  609TIP3    H2 1792   3.407   5.610   4.148 -0.7286  2.1476 -1.1955
  610TIP3   OH2 1793   0.909   0.111   1.850 -0.4490 -0.5847  0.4058
  610TIP3    H1 1794   0.876   0.195   1.816 -0.6762  0.2338  2.5019
  610TIP3    H2 1795   0.937   0.064   1.772  2.0046  2.4216 -0.7589
  611TIP3   OH2 1796   6.115   3.718   1.855  0.0055  0.3345  0.1707
  611TIP3    H1 1797   6.143   3.641   1.807  1.2154  0.6432  0.3495
  611TIP3    H2 1798   6.154   3.708   1.942 -2.5603 -0.4885  1.3526
  612TIP3   OH2 1799   5.278   5.217   1.420  0.2090  0.0822 -0.1789
  612TIP3    H1 1800   5.288   5.265   1.338 -0.7849  1.3937  0.4314
  612TIP3    H2 1801   5.185   5.225   1.441  0.4411 -0.2918  1.0396
  613TIP3   OH2 1802   5.626   1.177   1.051  0.2930 -0.2218 -0.2236
  613TIP3    H1 1803   5.661   1.108   1.107  0.9693 -0.3281 -0.7527
  613TIP3    H2 1804   5.677   1.254   1.074 -1.7461  0.6421  1.7409
  614TIP3   OH2 1805   5.048   5.637   3.659  0.1332 -0.3233  0.0376
  614TIP3    H1 1806   5.022   5.729   3.664 -1.8212 -0.8438 -0.0456
  614TIP3    H2 1807   5.141   5.637   3.684  0.1441  1.6428  0.1207
  615TIP3   OH2 1808   0.888   3.343   5.813 -0.2285 -0.0492 -0.3181
  615TIP3    H1 1809   0.914   3.425   5.855  0.4707  0.1934 -1.1907
  615TIP3    H2 1810   0.957   3.281   5.838  0.0027  0.0055 -0.8117
  616TIP3   OH2 1811   4.334   6.528   4.782  0.1867  0.1507 -0.7439
  616TIP3    H1 1812   4.263   6.466   4.800 -0.5779  0.4833 -2.4717
  616TIP3    H2 1813   4.402   6.475   4.740  0.8994 -0.1189  0.6907
  617TIP3   OH2 1814   0.671   6.579   4.053 -0.4271  0.2726  0.2793
  617TIP3    H1 1815   0.633   6.565   3.966 -0.6568  0.6762  0.3150
  617TIP3    H2 1816   0.728   6.503   4.066 -0.4308  0.1835 -0.2006
  618TIP3   OH2 1817   1.443   6.013   3.862 -0.0607 -0.4304  0.5861
  618TIP3    H1 1818   1.467   5.984   3.774  2.7247 -0.0036  1.1220
  618TIP3    H2 1819   1.483   5.949   3.920  0.5969  0.8543  1.6033
  619TIP3   OH2 1820   3.926   0.443   2.155 -0.6464  0.2220 -0.2075
  619TIP3    H1 1821   3.906   0.535   2.135 -0.7492  0.3084  0.2663
  619TIP3    H2 1822   3.979   0.448   2.235 -0.5906 -0.1280 -0.2249
  620TIP3   OH2 1823   1.640   4.297   3.192 -0.0930  0.2385 -0.2528
  620TIP3    H1 1824   1.665   4.221   3.245  1.4313  0.9234  0.0579
  620TIP3    H2 1825   1.546   4.287   3.179 -0.1772 -0.9118  1.0471
  621TIP3   OH2 1826   4.787   1.596   4.274 -0.9878 -0.5731  0.0881
  621TIP3    H1 1827   4.708   1.578   4.224 -1.4971  0.5071  0.4764
  621TIP3    H2 1828   4.777   1.686   4.305  1.2370  0.2956 -1.4040
  622TIP3   OH2 1829   5.689   6.724   0.540  0.5054  0.3865  0.6545
  622TIP3    H1 1830   5.757   6.711   0.606 -0.5280  1.4118  2.0029
  622TIP3    H2 1831   5.611   6.684   0.579  0.6016 -2.1646 -1.5215
  623TIP3   OH2 1832   5.214   1.249   3.080  0.2537 -0.2727  0.3368
  623TIP3    H1 1833   5.249   1.313   3.018 -0.2696 -1.1935 -0.9491
  623TIP3    H2 1834   5.290   1.217   3.127  0.4001  2.2102  1.9625
  624TIP3   OH2 1835   2.966   0.623   4.004 -0.3123  1.0507 -0.6498
  624TIP3    H1 1836   2.945   0.668   3.922  0.0676  2.0512 -0.2087
  624TIP3    H2 1837   3.032   0.558   3.979 -1.8651 -0.2497 -1.5370
  625TIP3   OH2 1838   6.882   5.183   4.250  0.2125  0.4407 -0.2274
  625TIP3    H1 1839   6.910   5.149   4.334 -1.5917  0.9090  0.6189
  625TIP3    H2 1840   6.936   5.137   4.186  0.0449 -1.6466  1.0405
  626TIP3   OH2 1841   2.819   6.245   0.717 -0.2780 -0.1012 -0.5622
  626TIP3    H1 1842   2.768   6.279   0.791  1.0176 -0.8938  0.7648
  626TIP3    H2 1843   2.879   6.317   0.694  0.0234 -0.2130 -0.1384
  627TIP3   OH2 1844   2.709   6.720   5.859  0.3687  0.0981  0.2058
  627TIP3    H1 1845   2.717   6.685   5.770  1.3071 -0.5057  0.5147
  627TIP3    H2 1846   2.747   6.807   5.854 -0.6424  0.5388 -0.2331
  628TIP3   OH2 1847   2.806   6.266   4.772 -0.4271 -0.0387 -0.2380
  628TIP3    H1 1848   2.849   6.202   4.828 -0.8669  0.3696  0.5826
  628TIP3    H2 1849   2.714   6.241   4.771 -1.5702  3.0024  3.7674
  629TIP3   OH2 1850   0.035   2.580   1.757 -0.3831  0.5474  0.1659
  629TIP3    H1 1851   0.075   2.667   1.767  1.2742 -0.2507  0.9179
  629TIP3    H2 1852   0.101   2.528   1.712  0.8203 -1.6332  3.9279
  630TIP3   OH2 1853   6.292   4.986   1.241  0.2168  0.4264  0.1298
  630TIP3    H1 1854   6.294   5.072   1.198 -2.1768  0.9652  0.9501
  630TIP3    H2 1855   6.299   5.006   1.334  2.1161 -0.5025  0.2337
  631TIP3   OH2 1856   2.850   1.675   3.683  0.2754 -0.1421  0.4588
  631TIP3    H1 1857   2.842   1.660   3.589  0.9577 -1.9570  0.6539
  631TIP3    H2 1858   2.782   1.619   3.722  1.5665 -1.2869  1.1405
  632TIP3   OH2 1859   3.185   5.610   2.004  1.1495  0.1964 -0.1685
  632TIP3    H1 1860   3.121   5.631   1.936  2.0457  1.7965 -0.5721
  632TIP3    H2 1861   3.254   5.562   1.958  0.5696 -0.9394  0.1315
  633TIP3   OH2 1862   4.313   1.647   5.075  0.6142 -0.9651 -0.2248
  633TIP3    H1 1863   4.340   1.576   5.133  2.4331  0.2552  0.5157
  633TIP3    H2 1864   4.369   1.637   4.997  1.3563 -0.0147  0.1587
  634TIP3   OH2 1865   1.571   5.346   3.405 -0.1817 -0.4472 -0.4914
  634TIP3    H1 1866   1.629   5.411   3.444 -0.0689 -1.4862  1.1631
  634TIP3    H2 1867   1.623   5.304   3.336 -0.4691  1.5948 -2.0521
  635TIP3   OH2 1868   0.135   1.134   1.186 -0.3860  0.1931  0.4684
  635TIP3    H1 1869   0.212   1.096   1.144 -1.0854 -0.2818 -0.4165
  635TIP3    H2 1870   0.133   1.095   1.273  0.8629  0.8889  0.8420
  636TIP3   OH2 1871   0.340   3.531   5.084 -0.2970  0.3104  0.4211
  636TIP3    H1 1872   0.294   3.609   5.053  0.1695  0.7006  0.7046
  636TIP3    H2 1873   0.432   3.554   5.080 -0.0921 -0.5953 -0.4756
  637TIP3   OH2 1874   0.554   6.021   4.614  0.2126  0.2806  0.2734
  637TIP3    H1 1875   0.607   6.060   4.684 -1.0537  0.3194  1.2427
  637TIP3    H2 1876   0.528   6.095   4.559 -0.8477  0.6030  1.1904
  638TIP3   OH2 1877   2.946   1.416   2.738  0.6009 -0.1093 -0.0626
  638TIP3    H1 1878   2.881   1.407   2.807  3.7435 -1.6524  2.9945
  638TIP3    H2 1879   2.953   1.511   2.724  0.7570  0.4028  2.8424
  639TIP3   OH2 1880   2.682   5.415   0.471  0.5126  0.1139  0.0449
  639TIP3    H1 1881   2.738   5.363   0.529 -0.0672  0.1700  0.6718
  639TIP3    H2 1882   2.607   5.358   0.452  0.2097  0.4613  0.1804
  640TIP3   OH2 1883   6.203   5.143   4.185  0.5141 -0.1466 -0.1113
  640TIP3    H1 1884   6.109   5.136   4.171  0.8515  0.2074 -3.3717
  640TIP3    H2 1885   6.225   5.069   4.242 -1.3473 -2.1246 -1.7885
  641TIP3   OH2 1886   1.409   6.687   3.704  0.1320 -0.1588 -0.0113
  641TIP3    H1 1887   1.433   6.601   3.738  0.6637 -0.2489 -0.5967
  641TIP3    H2 1888   1.318   6.676   3.675 -0.0474 -0.3120  0.6014
  642TIP3   OH2 1889   6.422   1.646   1.016  0.3531  0.8271  0.5305
  642TIP3    H1 1890   6.405   1.572   1.074  0.5914  0.2876 -0.0681
  642TIP3    H2 1891   6.360   1.713   1.044 -0.6561 -0.0030  0.3560
  643TIP3   OH2 1892   3.624   2.922   3.898 -0.3483  0.0576  0.4255
  643TIP3    H1 1893   3.706   2.874   3.895 -0.3219  0.1248 -2.7015
  643TIP3    H2 1894   3.643   3.005   3.854 -1.3403  1.4199  2.4202
  644TIP3   OH2 1895   2.981   2.010   2.212 -0.1955  0.2307  0.3481
  644TIP3    H1 1896   2.939   1.960   2.142  1.5920 -1.8956  0.6518
  644TIP3    H2 1897   3.068   2.030   2.177  0.4443 -0.1993  1.6505
  645TIP3   OH2 1898   5.797   1.941   0.211  0.4737 -0.3652  0.1292
  645TIP3    H1 1899   5.803   1.880   0.137  0.9457  0.2364 -0.3443
  645TIP3    H2 1900   5.886   1.943   0.248 -0.1045 -1.8605  1.7163
  646TIP3   OH2 1901   3.040   2.105   0.943 -0.2724  0.4631  0.2180
  646TIP3    H1 1902   3.044   2.010   0.953 -1.3736  0.3956  0.1914
  646TIP3    H2 1903   3.118   2.137   0.988 -0.0147 -0.4382  0.4406
  647TIP3   OH2 1904   4.722   6.068   1.196  0.3291  0.6228  0.2963
  647TIP3    H1 1905   4.797   6.094   1.250  1.0111 -0.3786 -0.1390
  647TIP3    H2 1906   4.733   6.118   1.115 -0.0987  1.3099  0.6530
  648TIP3   OH2 1907   6.569   6.603   4.722 -0.2716  0.0443  0.2441
  648TIP3    H1 1908   6.540   6.513   4.735 -1.1539  0.2740 -0.0645
  648TIP3    H2 1909   6.634   6.598   4.652 -0.1550 -0.3776  0.3806
  649TIP3   OH2 1910   3.161   1.350   5.146 -0.2066 -0.2830 -0.8880
  649TIP3    H1 1911   3.115   1.267   5.145 -0.1192 -0.3452 -0.1151
  649TIP3    H2 1912   3.247   1.330   5.181  0.7945 -0.3439 -3.1820
  650TIP3   OH2 1913   3.529   6.713   0.625  0.9143 -0.4436  0.1043
  650TIP3    H1 1914   3.540   6.687   0.533  0.4801 -0.5933  0.0913
  650TIP3    H2 1915   3.589   6.657   0.673  1.1537 -0.3553 -0.0919
  651TIP3   OH2 1916   6.425   5.920   4.800 -0.3177  0.3001 -0.2541
  651TIP3    H1 1917   6.496   5.857   4.807  0.3283  1.1954  1.8591
  651TIP3    H2 1918   6.360   5.890   4.863 -0.5039  1.1273 -0.0430
  652TIP3   OH2 1919   7.012   5.462   0.482  0.3559  0.0076 -0.4534
  652TIP3    H1 1920   7.073   5.525   0.443  0.1088  1.0469  0.7314
  652TIP3    H2 1921   7.063   5.382   0.492  0.6500 -0.0323 -2.1065
  653TIP3   OH2 1922   3.822   6.327   2.424  0.6307 -0.0703 -0.0176
  653TIP3    H1 1923   3.796   6.289   2.507 -1.3495  0.3968 -0.3763
  653TIP3    H2 1924   3.851   6.253   2.371 -1.7530 -0.9655 -0.2009
  654TIP3   OH2 1925   6.865   6.168   1.716  0.3825 -0.0048  0.4519
  654TIP3    H1 1926   6.902   6.169   1.628  0.3734 -2.4056  0.3445
  654TIP3    H2 1927   6.932   6.205   1.772  0.3496  1.6389 -0.5593
  655TIP3   OH2 1928   2.494   3.417   2.035  0.1946  0.2748  0.1932
  655TIP3    H1 1929   2.421   3.401   2.095 -0.4289  1.0411 -0.3379
  655TIP3    H2 1930   2.473   3.501   1.994  1.2475  0.3769 -0.1639
  656TIP3   OH2 1931   0.722   2.113   3.964  0.2207  0.2485 -0.7346
  656TIP3    H1 1932   0.762   2.171   4.028  0.3083 -1.0484  0.4453
  656TIP3    H2 1933   0.629   2.138   3.964  0.1430  0.0292  0.2138
  657TIP3   OH2 1934   1.650   4.800   2.505  0.3709 -0.0573  0.2332
  657TIP3    H1 1935   1.638   4.890   2.535  1.2621 -0.3003  1.4211
  657TIP3    H2 1936   1.648   4.806   2.409 -0.6486  1.0500  0.3051
  658TIP3   OH2 1937   2.556   6.106   4.533  0.4920 -0.1927  0.2657
  658TIP3    H1 1938   2.528   6.015   4.523 -2.6838  0.6562  0.2359
  658TIP3    H2 1939   2.581   6.114   4.625 -0.4565 -0.8472  0.5960
  659TIP3   OH2 1940   4.717   3.528   3.806 -0.2014 -0.3406  0.1644
  659TIP3    H1 1941   4.680   3.510   3.719 -0.9862 -1.5428  0.7270
  659TIP3    H2 1942   4.772   3.606   3.793 -1.9214  0.7547 -0.9782
  660TIP3   OH2 1943   3.173   3.920   0.656 -0.1846 -0.1909  0.2070
  660TIP3    H1 1944   3.258   3.962   0.670  0.2432 -0.9603 -0.0009
  660TIP3    H2 1945   3.133   3.972   0.586  0.4239 -0.2469 -0.1982
  661TIP3   OH2 1946   2.763   6.471   3.519 -0.4532 -0.5488 -0.2988
  661TIP3    H1 1947   2.737   6.510   3.436 -3.7473  2.1164  1.7324
  661TIP3    H2 1948   2.709   6.392   3.526 -1.0566 -0.1290 -0.1864
  662TIP3   OH2 1949   6.796   2.708   3.744  0.1051 -0.5797 -0.5932
  662TIP3    H1 1950   6.850   2.632   3.719 -1.0678 -1.2825 -1.0570
  662TIP3    H2 1951   6.817   2.774   3.678  0.4818 -0.8055 -0.7066
  663TIP3   OH2 1952   2.218   1.910   3.705 -1.1218 -0.0446  0.3318
  663TIP3    H1 1953   2.179   1.926   3.619 -1.7933  0.3442  0.6926
  663TIP3    H2 1954   2.235   1.998   3.740 -0.0551 -0.2089  0.2537
  664TIP3   OH2 1955   0.709   4.496   3.951  0.0737 -0.4147 -0.2232
  664TIP3    H1 1956   0.727   4.571   3.895  1.0428 -2.5265 -2.9513
  664TIP3    H2 1957   0.614   4.485   3.946 -0.0280  0.3875 -0.1184
  665TIP3   OH2 1958   6.268   1.317   0.703  0.0094  0.4235  0.4326
  665TIP3    H1 1959   6.243   1.233   0.742  1.1976 -0.1402  0.0312
  665TIP3    H2 1960   6.345   1.297   0.650 -0.5490  1.4950 -0.8522
  666TIP3   OH2 1961   5.098   3.618   5.626 -0.1754  0.2325  0.2040
  666TIP3    H1 1962   5.083   3.662   5.710 -2.8184  2.3980 -1.2192
  666TIP3    H2 1963   5.141   3.684   5.572  0.5015 -0.7547 -0.4857
  667TIP3   OH2 1964   6.567   3.277   4.390  0.0243 -0.4009  0.5496
  667TIP3    H1 1965   6.556   3.352   4.448 -1.1202 -0.5375  0.5343
  667TIP3    H2 1966   6.504   3.213   4.421  0.6613 -1.1880  0.2691
  668TIP3   OH2 1967   3.039   0.352   2.989  0.2300 -0.6574  0.3817
  668TIP3    H1 1968   2.993   0.351   2.905  0.5354  0.2103  0.1984
  668TIP3    H2 1969   2.970   0.335   3.054 -1.0407  3.4536  0.4033
  669TIP3   OH2 1970   0.691   4.484   3.232 -0.3615  0.0483  0.2307
  669TIP3    H1 1971   0.645   4.502   3.314  0.3438  0.4256  0.5497
  669TIP3    H2 1972   0.727   4.569   3.205  1.5323 -0.5077  0.8515
  670TIP3   OH2 1973   0.481   6.086   2.960 -0.1610 -0.6930 -0.3921
  670TIP3    H1 1974   0.473   6.031   3.038  1.5305  0.5881  0.7578
  670TIP3    H2 1975   0.544   6.039   2.905 -2.0021 -2.0374 -1.4638
  671TIP3   OH2 1976   0.986   2.960   3.719  0.3767  0.2544  0.3262
  671TIP3    H1 1977   1.015   2.986   3.806 -0.4164  1.2710  0.3065
  671TIP3    H2 1978   0.913   3.019   3.699  1.2366  0.7694 -1.4635
  672TIP3   OH2 1979   3.149   5.638   5.086 -0.1137  0.1042  0.0502
  672TIP3    H1 1980   3.054   5.630   5.089 -0.0190 -1.1625  3.1750
  672TIP3    H2 1981   3.168   5.719   5.133  0.3494  0.3302 -0.5233
  673TIP3   OH2 1982   6.854   2.266   2.593 -0.2354  0.0029 -0.1041
  673TIP3    H1 1983   6.817   2.315   2.666  0.4130 -0.6433  0.6649
  673TIP3    H2 1984   6.923   2.212   2.631  2.5049  2.1199 -1.6065
  674TIP3   OH2 1985   1.043   3.877   3.975  0.7127  0.5565  0.3311
  674TIP3    H1 1986   1.077   3.918   3.895 -0.1624  1.0755  0.2083
  674TIP3    H2 1987   0.990   3.946   4.016 -1.7008 -0.7403 -0.4330
  675TIP3   OH2 1988   1.639   4.993   1.310 -0.4814 -0.4409  0.0334
  675TIP3    H1 1989   1.624   4.948   1.393 -1.2861 -1.3816 -0.5881
  675TIP3    H2 1990   1.661   4.923   1.248  0.0110  0.2279 -0.5685
  676TIP3   OH2 1991   3.734   2.893   0.145 -0.1137 -0.3734 -0.7678
  676TIP3    H1 1992   3.643   2.867   0.131  0.0815 -0.4455 -1.9570
  676TIP3    H2 1993   3.729   2.964   0.209 -1.1450  0.7051 -2.0048
  677TIP3   OH2 1994   2.765   3.986   1.610  0.3645 -0.6419  0.4837
  677TIP3    H1 1995   2.762   3.967   1.517 -0.7657  0.8538  0.1822
  677TIP3    H2 1996   2.755   4.081   1.616  4.0512 -0.1569  1.9664
  678TIP3   OH2 1997   2.975   0.024   3.806 -0.4340 -0.1600 -0.1764
  678TIP3    H1 1998   2.980   0.054   3.715 -0.7242  0.5146  0.0300
  678TIP3    H2 1999   3.019  -0.062   3.805  1.6421  0.8451 -0.5086
  679TIP3   OH2 2000   0.347   1.599   3.498 -0.2061 -0.5526 -0.3968
  679TIP3    H1 2001   0.314   1.658   3.430 -0.5239 -1.0830 -0.7184
  679TIP3    H2 2002   0.336   1.512   3.460 -0.2651 -0.8488  0.2903
  680TIP3   OH2 2003   1.076   4.515   2.682 -0.2487  0.1586 -0.1864
  680TIP3    H1 2004   1.068   4.579   2.752  1.7247  0.5400 -0.2519
  680TIP3    H2 2005   1.156   4.539   2.637  2.2646 -3.9612  1.5220
  681TIP3   OH2 2006   1.009   5.489   1.091  0.5390  0.3324 -0.0534
  681TIP3    H1 2007   0.938   5.526   1.038  0.2628 -1.6601 -1.2137
  681TIP3    H2 2008   0.991   5.519   1.180 -2.1497 -0.5195 -0.1982
  682TIP3   OH2 2009   5.498   6.767   3.784  0.3621 -0.2542  0.5601
  682TIP3    H1 2010   5.533   6.820   3.713  2.8492 -2.5521 -0.1111
  682TIP3    H2 2011   5.560   6.778   3.855 -0.1218 -0.7799  1.0741
  683TIP3   OH2 2012   6.597   3.508   3.086  0.2078 -0.1104  0.2530
  683TIP3    H1 2013   6.687   3.484   3.067  0.1228  0.4038 -0.8965
  683TIP3    H2 2014   6.555   3.427   3.114  0.9440 -0.4159  0.4804
  684TIP3   OH2 2015   4.306   0.082   5.287  0.2226  0.5085  0.2991
  684TIP3    H1 2016   4.279   0.014   5.224  1.4538  0.2999 -0.0172
  684TIP3    H2 2017   4.362   0.140   5.237  1.9898 -0.1754  1.3986
  685TIP3   OH2 2018   5.034   4.972   1.255  0.2370 -0.5117 -0.6446
  685TIP3    H1 2019   5.120   4.933   1.269  0.5684 -0.3446 -2.0710
  685TIP3    H2 2020   5.036   5.004   1.165 -1.0954  0.0741 -0.4949
  686TIP3   OH2 2021   2.785   5.849   1.563 -0.3610  0.3053 -0.0629
  686TIP3    H1 2022   2.729   5.802   1.501 -0.6332  0.1471  0.3011
  686TIP3    H2 2023   2.873   5.816   1.546 -0.2748  1.0050 -1.0661
  687TIP3   OH2 2024   0.651   3.129   0.495  0.0657 -0.6722  0.1849
  687TIP3    H1 2025   0.560   3.143   0.524  0.1676  1.6346 -0.4820
  687TIP3    H2 2026   0.700   3.203   0.531  1.1236 -0.3369 -1.8046
  688TIP3   OH2 2027   3.574   1.286   0.574 -0.2248  0.0926  0.3530
  688TIP3    H1 2028   3.527   1.366   0.554  1.2937  0.4716 -2.1610
  688TIP3    H2 2029   3.506   1.220   0.587 -1.4571  1.4145  0.8444
  689TIP3   OH2 2030   6.480   5.558   3.206 -0.1415 -0.0936 -0.0541
  689TIP3    H1 2031   6.501   5.465   3.201  0.3123 -0.1643  2.0820
  689TIP3    H2 2032   6.400   5.567   3.155  0.8976 -1.2239 -2.0554
  690TIP3   OH2 2033   0.642   5.240   5.469 -0.1780 -0.0256 -0.0141
  690TIP3    H1 2034   0.603   5.322   5.499 -1.8909 -1.2860  1.4887
  690TIP3    H2 2035   0.625   5.178   5.541  4.6666 -0.7830  0.7797
  691TIP3   OH2 2036   6.591   4.526   4.842 -0.2237  0.0529 -0.0215
  691TIP3    H1 2037   6.617   4.485   4.924  0.1135 -0.9679 -0.6158
  691TIP3    H2 2038   6.506   4.566   4.860 -0.8183 -1.3856  0.4328
  692TIP3   OH2 2039   6.103   2.793   2.777 -0.0399 -0.0342 -0.1196
  692TIP3    H1 2040   6.039   2.863   2.779 -1.0708 -0.9604  1.2973
  692TIP3    H2 2041   6.144   2.795   2.864  0.7924 -0.4081 -0.4849
  693TIP3   OH2 2042   4.607   1.584   2.907  0.2889  0.2063 -0.0344
  693TIP3    H1 2043   4.516   1.574   2.935  0.5543  1.9808  1.6731
  693TIP3    H2 2044   4.610   1.543   2.821 -1.7566 -1.2165  0.4863
  694TIP3   OH2 2045   1.522   6.158   5.302 -0.2625 -0.6031  0.1744
  694TIP3    H1 2046   1.516   6.146   5.397 -4.2824  2.1889  0.5125
  694TIP3    H2 2047   1.455   6.100   5.267 -1.5330  1.1796 -0.4896
  695TIP3   OH2 2048   3.620   0.591   0.767  0.5830 -0.2795 -0.1017
  695TIP3    H1 2049   3.527   0.601   0.786 -0.0461 -1.5287 -2.2403
  695TIP3    H2 2050   3.656   0.552   0.847 -0.6815  0.3788  0.8175
  696TIP3   OH2 2051   0.669   2.474   5.184  0.4504 -0.0862 -0.1457
  696TIP3    H1 2052   0.662   2.387   5.223 -0.9494 -0.1435 -0.5010
  696TIP3    H2 2053   0.604   2.526   5.231 -0.7104  0.0391 -1.8333
  697TIP3   OH2 2054   4.325   6.787   3.407 -0.2293 -0.4956 -0.1089
  697TIP3    H1 2055   4.274   6.716   3.447  0.8644 -0.2116  1.8919
  697TIP3    H2 2056   4.293   6.866   3.450  1.0070 -0.1865  0.2828
  698TIP3   OH2 2057   4.635   3.954   4.542  0.3397  0.7664 -0.4197
  698TIP3    H1 2058   4.569   4.023   4.531  0.0701  0.8132  1.1884
  698TIP3    H2 2059   4.718   3.999   4.527  0.0720  0.9933 -1.2574
  699TIP3   OH2 2060   1.967   0.465   0.899  0.5171  0.1189 -0.3363
  699TIP3    H1 2061   2.050   0.417   0.900 -0.6687 -2.0491 -0.2777
  699TIP3    H2 2062   1.934   0.454   0.810  0.0668  0.5661 -0.2294
  700TIP3   OH2 2063   1.789   4.443   3.375  0.1149  0.1291 -0.1777
  700TIP3    H1 2064   1.737   4.403   3.445 -0.4582  0.5427 -0.3631
  700TIP3    H2 2065   1.755   4.406   3.294  1.6710 -1.3661 -0.1878
  701TIP3   OH2 2066   4.262   3.264   2.391 -0.4212  0.0325 -0.2573
  701TIP3    H1 2067   4.184   3.311   2.361  0.1128 -0.3299 -2.3319
  701TIP3    H2 2068   4.239   3.171   2.385 -0.0007 -0.0678 -0.3815
  702TIP3   OH2 2069   0.604   4.666   2.344  0.9783 -0.1950  0.2305
  702TIP3    H1 2070   0.598   4.645   2.437  1.8494  0.1038  0.3632
  702TIP3    H2 2071   0.514   4.685   2.318  0.7046 -0.4400  0.9678
  703TIP3   OH2 2072   5.549   5.710   1.936  0.4925  0.0567  0.6505
  703TIP3    H1 2073   5.465   5.746   1.909  1.1505  1.8926  0.9179
  703TIP3    H2 2074   5.609   5.732   1.864  0.8701 -0.7859  0.6892
  704TIP3   OH2 2075   5.475   1.952   3.592  0.2673 -0.2792  0.3650
  704TIP3    H1 2076   5.496   1.858   3.595  0.8332 -0.1527  0.4684
  704TIP3    H2 2077   5.463   1.977   3.683  1.6285  0.0745  0.4644
  705TIP3   OH2 2078  -0.014   3.589   2.967 -0.4544  0.1476 -0.5749
  705TIP3    H1 2079  -0.027   3.591   3.062 -0.8658  2.8888 -0.6110
  705TIP3    H2 2080   0.080   3.573   2.957 -0.5139 -0.8265  0.2483
  706TIP3   OH2 2081   6.849   6.494   5.363 -0.1350 -0.3345 -0.2446
  706TIP3    H1 2082   6.787   6.425   5.387 -0.0481 -0.4499 -0.3463
  706TIP3    H2 2083   6.924   6.447   5.326  1.4552 -0.4400  2.8016
  707TIP3   OH2 2084   4.149   5.411   4.719 -0.5727 -0.2028 -0.7013
  707TIP3    H1 2085   4.231   5.395   4.672 -0.3614 -1.7319  0.1292
  707TIP3    H2 2086   4.176   5.449   4.803 -0.7263 -0.4567 -0.5359
  708TIP3   OH2 2087   2.234   5.272   2.677 -0.3799 -0.0963  0.2743
  708TIP3    H1 2088   2.308   5.250   2.734  0.4386  1.9041  0.0806
  708TIP3    H2 2089   2.166   5.302   2.736 -0.6674 -0.9407  0.3822
  709TIP3   OH2 2090   0.677   3.217   3.058  0.4004 -0.1549 -0.2525
  709TIP3    H1 2091   0.703   3.244   2.970  1.8108 -0.0582  0.1664
  709TIP3    H2 2092   0.728   3.138   3.074  2.0336  1.1596  1.3904
  710TIP3   OH2 2093   6.996   5.238   2.871  0.4597  0.3143  0.3085
  710TIP3    H1 2094   7.086   5.238   2.904  0.5732 -0.7723  0.0502
  710TIP3    H2 2095   7.005   5.259   2.778  0.9132 -3.4135 -0.6711
  711TIP3   OH2 2096   1.288   5.254   5.699  0.3046  0.2499 -0.5302
  711TIP3    H1 2097   1.350   5.326   5.709  0.7503  0.1860 -2.4331
  711TIP3    H2 2098   1.202   5.294   5.713  0.5785  1.0825 -1.1454
  712TIP3   OH2 2099   1.388   1.963   1.904 -0.2181  0.6069 -0.5877
  712TIP3    H1 2100   1.451   2.032   1.928  0.8659 -0.1669 -1.1340
  712TIP3    H2 2101   1.306   1.992   1.943  0.5825  1.3931  0.6083
  713TIP3   OH2 2102   0.164   4.778   0.657  0.4521  0.4039 -0.3416
  713TIP3    H1 2103   0.173   4.868   0.625 -1.7387  1.1170  0.8637
  713TIP3    H2 2104   0.231   4.771   0.726 -0.6174  1.8011  0.8935
  714TIP3   OH2 2105   0.039   2.018   5.776 -0.1577 -0.9040  0.2656
  714TIP3    H1 2106  -0.004   1.957   5.716  0.1397  1.3492 -2.4049
  714TIP3    H2 2107   0.000   2.103   5.757  1.5221  0.2768  1.7685
  715TIP3   OH2 2108   1.623   4.516   0.929  0.0626  0.7081 -0.0734
  715TIP3    H1 2109   1.644   4.491   1.019  0.3714  2.6835  0.4697
  715TIP3    H2 2110   1.667   4.601   0.917  0.1936  0.4075 -2.1634
  716TIP3   OH2 2111   2.348   1.313   3.940 -0.1938 -0.6834 -0.7259
  716TIP3    H1 2112   2.300   1.384   3.983 -0.1410 -0.8522 -0.3826
  716TIP3    H2 2113   2.318   1.234   3.985 -1.3557 -1.0552 -2.0798
  717TIP3   OH2 2114   0.563   6.382   5.053 -0.3105  0.2212 -0.2943
  717TIP3    H1 2115   0.532   6.293   5.071 -1.5484  0.8460  0.8880
  717TIP3    H2 2116   0.487   6.437   5.072 -0.0217  1.4427 -2.3574
  718TIP3   OH2 2117   4.810   0.917   0.512 -0.4049  0.4041  0.2563
  718TIP3    H1 2118   4.870   0.853   0.550 -1.4564 -0.6315  0.2337
  718TIP3    H2 2119   4.753   0.865   0.456 -0.7120  1.5077 -0.4722
  719TIP3   OH2 2120   6.524   0.936   1.655  0.2801  0.3618 -0.0076
  719TIP3    H1 2121   6.514   0.921   1.749 -1.6319  1.6152  0.0442
  719TIP3    H2 2122   6.603   0.989   1.647 -1.1939  2.9382  1.2841
  720TIP3   OH2 2123   6.192   4.358   4.298  0.4333 -0.4888 -0.3348
  720TIP3    H1 2124   6.189   4.280   4.354 -1.2991 -0.2199 -0.0010
  720TIP3    H2 2125   6.230   4.327   4.216 -0.9219 -1.9052 -0.4826
  721TIP3   OH2 2126   1.742   4.834   2.777 -0.4237 -0.2081 -0.1226
  721TIP3    H1 2127   1.744   4.822   2.682 -1.6961 -0.9307 -0.0776
  721TIP3    H2 2128   1.799   4.765   2.811  1.7200  1.3214 -0.4216
  722TIP3   OH2 2129   4.569   1.950   1.220  0.2215 -0.1785  0.0332
  722TIP3    H1 2130   4.610   1.867   1.196  2.1915  0.7069  0.1801
  722TIP3    H2 2131   4.606   2.014   1.160  0.0610  0.8994  1.0376
  723TIP3   OH2 2132   4.288   1.962   4.446  0.0995 -0.3376  0.1019
  723TIP3    H1 2133   4.346   1.903   4.398 -1.7151 -1.0519 -1.3613
  723TIP3    H2 2134   4.250   1.908   4.515 -0.2020 -0.3942 -0.1055
  724TIP3   OH2 2135   4.359   0.944   0.660  0.2736  0.0705  0.1381
  724TIP3    H1 2136   4.311   0.947   0.577  1.1360  0.5004 -0.3464
  724TIP3    H2 2137   4.298   0.981   0.724 -0.8453 -1.3264 -0.0580
  725TIP3   OH2 2138   5.583   0.327   3.332  0.5285  0.0741  0.8310
  725TIP3    H1 2139   5.638   0.251   3.314 -0.1827 -0.0388 -1.1587
  725TIP3    H2 2140   5.509   0.292   3.382 -1.3697 -1.2921 -2.5885
  726TIP3   OH2 2141   7.089   0.880   2.393  0.1556  0.0152 -0.7953
  726TIP3    H1 2142   7.128   0.946   2.450  0.8383 -0.5347 -0.6008
  726TIP3    H2 2143   7.082   0.802   2.449 -0.2951 -0.1797 -1.1216
  727TIP3   OH2 2144   7.050   3.392   4.529 -0.3129 -0.3192 -0.3645
  727TIP3    H1 2145   7.018   3.478   4.557  2.6677  0.4148  1.2387
  727TIP3    H2 2146   7.030   3.334   4.603  0.3834 -0.2657 -0.1259
  728TIP3   OH2 2147   6.629   4.796   3.377  0.6227 -0.8786 -0.1287
  728TIP3    H1 2148   6.699   4.852   3.409  0.1211 -0.7313  0.7173
  728TIP3    H2 2149   6.671   4.743   3.309  0.9736  0.8851 -1.3612
  729TIP3   OH2 2150   1.075   2.882   3.160  0.0974  0.0271  0.5710
  729TIP3    H1 2151   1.008   2.940   3.124 -0.2727 -0.2749  0.7765
  729TIP3    H2 2152   1.112   2.931   3.234  0.0690  0.1698  0.4903
  730TIP3   OH2 2153   4.649   0.692   4.961  0.1578  0.2162 -0.4949
  730TIP3    H1 2154   4.565   0.738   4.953 -0.6747 -1.1228  0.1662
  730TIP3    H2 2155   4.640   0.616   4.904  1.2332  0.4432 -0.9983
  731TIP3   OH2 2156   0.553   2.506   2.268 -0.1552 -0.5008 -0.3381
  731TIP3    H1 2157   0.552   2.422   2.314 -1.2898 -1.1552 -1.4721
  731TIP3    H2 2158   0.576   2.570   2.335 -1.8875 -1.3799  1.1960
  732TIP3   OH2 2159   7.044   2.086   0.616 -0.2379 -0.5941  0.2492
  732TIP3    H1 2160   6.991   2.035   0.678  1.1317 -0.8025  1.2921
  732TIP3    H2 2161   7.047   2.174   0.653  2.4284 -1.2199  1.7889
  733TIP3   OH2 2162   7.112   1.735   5.752  0.3114  0.3495 -0.1902
  733TIP3    H1 2163   7.155   1.697   5.829  2.1809 -0.0348 -1.3540
  733TIP3    H2 2164   7.040   1.786   5.787  0.0987 -1.1432  1.7062
  734TIP3   OH2 2165   3.287   2.725   0.453  0.0345 -0.0298 -0.1977
  734TIP3    H1 2166   3.197   2.745   0.427 -0.4470 -1.4597  0.2916
  734TIP3    H2 2167   3.314   2.657   0.391  0.5805 -0.0052  0.0159
  735TIP3   OH2 2168   0.572   2.867   2.851 -0.1371 -0.3721  0.9243
  735TIP3    H1 2169   0.483   2.836   2.864  0.2146 -1.8912  0.0223
  735TIP3    H2 2170   0.627   2.789   2.865  0.8533 -0.0416 -0.7758
  736TIP3   OH2 2171   2.423   3.123   0.307  0.9491  0.0531 -0.2842
  736TIP3    H1 2172   2.421   3.198   0.366 -1.9592 -1.0405  1.2109
  736TIP3    H2 2173   2.448   3.050   0.363 -0.7668 -0.8099 -0.5760
  737TIP3   OH2 2174   4.162   6.763   0.394 -0.1263 -0.1244 -0.3041
  737TIP3    H1 2175   4.122   6.712   0.324  0.7756  0.1092 -1.0126
  737TIP3    H2 2176   4.224   6.821   0.349  1.1289 -0.5978  0.7535
  738TIP3   OH2 2177   3.317   5.426   0.422  0.5127  0.5732 -0.5262
  738TIP3    H1 2178   3.375   5.356   0.391  0.1947  0.8047 -1.6782
  738TIP3    H2 2179   3.376   5.500   0.439  0.6056  0.7362 -1.4827
  739TIP3   OH2 2180   6.348   0.406   0.128  0.2813  0.0388 -0.1243
  739TIP3    H1 2181   6.439   0.419   0.154  0.6276 -0.3775 -1.0911
  739TIP3    H2 2182   6.347   0.421   0.034 -0.5193 -0.6269 -0.2335
  740TIP3   OH2 2183   5.900   2.234   0.613 -0.4558  0.5930  0.4199
  740TIP3    H1 2184   5.834   2.188   0.562 -1.8351  0.3012  2.3730
  740TIP3    H2 2185   5.918   2.177   0.688  1.2231  1.1762  0.5092
  741TIP3   OH2 2186   1.553   5.074   4.836 -0.5153 -0.0560 -0.4205
  741TIP3    H1 2187   1.609   5.119   4.773 -0.5888  1.2952  0.4347
  741TIP3    H2 2188   1.514   5.001   4.787  0.7767 -0.0837 -1.4377
  742TIP3   OH2 2189   6.066   3.543   4.754 -0.0461 -0.2813  0.0616
  742TIP3    H1 2190   6.014   3.583   4.824  0.5164 -0.3322  0.5174
  742TIP3    H2 2191   6.080   3.613   4.691 -1.3621 -0.4736 -0.4890
  743TIP3   OH2 2192   5.107   1.722   4.825 -0.5364 -0.4149 -0.5992
  743TIP3    H1 2193   5.015   1.696   4.829 -0.4196 -0.8718 -0.8202
  743TIP3    H2 2194   5.155   1.639   4.829 -0.1013 -0.1251  0.6967
  744TIP3   OH2 2195   4.141   4.418   5.628 -0.6629  0.6621 -0.2765
  744TIP3    H1 2196   4.047   4.411   5.644 -0.4751  0.4214  0.8095
  744TIP3    H2 2197   4.150   4.415   5.533 -1.5435 -2.3762 -0.3796
  745TIP3   OH2 2198   0.617   2.941   2.549 -0.2551  0.0023  0.0906
  745TIP3    H1 2199   0.627   2.942   2.644 -1.5161 -1.3774  0.2667
  745TIP3    H2 2200   0.659   3.023   2.520  0.3832  0.3154  1.7854
  746TIP3   OH2 2201   0.475   6.562   1.640  0.1863  0.0498 -0.3751
  746TIP3    H1 2202   0.389   6.521   1.648 -0.5500  1.6667  0.4457
  746TIP3    H2 2203   0.533   6.507   1.693 -0.2658 -1.1522 -1.0801
  747TIP3   OH2 2204   2.865   5.245   0.579  0.0172  0.3181  0.2898
  747TIP3    H1 2205   2.888   5.152   0.570  1.4733  0.6257  0.5999
  747TIP3    H2 2206   2.914   5.274   0.655 -0.5712  1.3087  0.2953
  748TIP3   OH2 2207   6.317   4.765   3.257 -0.2431 -0.1846 -0.1105
  748TIP3    H1 2208   6.289   4.675   3.269 -0.5414 -0.1579 -0.5990
  748TIP3    H2 2209   6.409   4.759   3.231  0.1028 -0.2889  1.0651
  749TIP3   OH2 2210   0.467   4.034   0.031  0.0939  0.3346 -0.0947
  749TIP3    H1 2211   0.441   4.122   0.003  1.7754  0.6053 -0.8877
  749TIP3    H2 2212   0.398   3.977  -0.004  0.1921  1.0867 -1.5885
  750TIP3   OH2 2213   6.169   3.618   5.473  0.2670  0.1325  0.4919
  750TIP3    H1 2214   6.222   3.545   5.440  1.2584  1.1745 -0.2846
  750TIP3    H2 2215   6.099   3.576   5.523  0.5603 -1.3677 -0.3048
  751TIP3   OH2 2216   5.113   2.077   0.225  0.6608  0.1752  0.0560
  751TIP3    H1 2217   5.168   1.998   0.225 -0.1355 -0.4553 -2.3424
  751TIP3    H2 2218   5.158   2.137   0.286  0.9802 -2.2560  2.4256
  752TIP3   OH2 2219   1.845   3.588   0.158 -0.0794 -0.0632  0.4362
  752TIP3    H1 2220   1.828   3.681   0.147  0.4794 -0.0586 -0.5216
  752TIP3    H2 2221   1.766   3.553   0.198 -0.8702  0.5675 -0.5509
  753TIP3   OH2 2222   6.835   3.895   5.073  0.1407 -0.4530  0.4419
  753TIP3    H1 2223   6.922   3.857   5.088  0.1211 -0.1906  1.2909
  753TIP3    H2 2224   6.815   3.874   4.982  1.0712 -0.5632  0.2524
  754TIP3   OH2 2225   5.062   1.698   5.174 -1.0299  0.4812 -0.0312
  754TIP3    H1 2226   4.990   1.743   5.130 -0.0987  1.5392 -0.5383
  754TIP3    H2 2227   5.140   1.728   5.128 -0.3558 -1.7799 -0.4541
  755TIP3   OH2 2228   1.635   4.827   0.385  0.1075 -0.3388  0.4491
  755TIP3    H1 2229   1.628   4.737   0.353  2.6545 -1.4193  2.5844
  755TIP3    H2 2230   1.677   4.875   0.314  0.5573 -1.3244  0.0335
  756TIP3   OH2 2231   0.027   5.374   0.859 -0.4317  0.3411  0.3477
  756TIP3    H1 2232   0.012   5.452   0.806 -0.5387  1.6823  2.2723
  756TIP3    H2 2233   0.119   5.352   0.844 -0.4880  0.6245 -0.4682
  757TIP3   OH2 2234   1.232   3.548   0.049 -0.1002 -0.7610 -0.3774
  757TIP3    H1 2235   1.315   3.544   0.002 -0.9120 -0.7631 -1.8469
  757TIP3    H2 2236   1.242   3.485   0.120  1.5032 -0.0634  0.0654
  758TIP3   OH2 2237   6.213   0.174   0.190 -0.3782  0.6697 -0.3911
  758TIP3    H1 2238   6.121   0.202   0.190 -0.3599  0.8096 -1.7085
  758TIP3    H2 2239   6.263   0.255   0.190 -0.2847  0.6184 -1.2866
  759TIP3   OH2 2240   5.531   1.768   2.753  0.3239 -0.3700 -0.0273
  759TIP3    H1 2241   5.436   1.755   2.759 -0.1424  2.5609  0.2874
  759TIP3    H2 2242   5.566   1.725   2.831 -0.6763 -1.6938 -0.2578
  760TIP3   OH2 2243   4.376   0.622   1.529  0.0597  0.3072  0.3869
  760TIP3    H1 2244   4.461   0.650   1.496  0.5446  1.4178  2.4087
  760TIP3    H2 2245   4.313   0.654   1.464  1.0358  1.2235 -0.1398
  761TIP3   OH2 2246   0.731   5.835   1.469 -0.0396  0.1364  0.5387
  761TIP3    H1 2247   0.804   5.885   1.434  1.0313 -2.4851 -1.3553
  761TIP3    H2 2248   0.661   5.847   1.405 -0.2640  0.3118  0.8142
  762TIP3   OH2 2249   2.898   6.131   4.531 -0.4757 -0.0772 -0.0298
  762TIP3    H1 2250   2.986   6.161   4.510 -1.1263  0.1253 -2.9734
  762TIP3    H2 2251   2.874   6.178   4.610  2.1255 -0.3626  1.0264
  763TIP3   OH2 2252   0.543   4.096   2.647  0.1788  0.0836 -0.2225
  763TIP3    H1 2253   0.546   4.031   2.577  1.3009 -1.2786  0.9973
  763TIP3    H2 2254   0.630   4.134   2.648  0.7112 -1.0542  1.3772
  764TIP3   OH2 2255   4.438   3.952   0.477 -0.1157 -0.7709  0.6890
  764TIP3    H1 2256   4.351   3.913   0.471 -0.2057 -0.9666  2.6055
  764TIP3    H2 2257   4.497   3.885   0.441 -0.7084 -0.7455 -0.3681
  765TIP3   OH2 2258   4.673   2.590   4.069 -0.5374  0.1390  0.4436
  765TIP3    H1 2259   4.602   2.532   4.097  1.2973 -1.7882  1.3671
  765TIP3    H2 2260   4.695   2.561   3.981 -0.3181  0.1789  0.4860
  766TIP3   OH2 2261   2.551   6.280   5.033  0.1776 -0.2112  0.3559
  766TIP3    H1 2262   2.533   6.371   5.011 -0.4150 -0.2165  0.8012
  766TIP3    H2 2263   2.597   6.284   5.117  0.4004 -0.3056  0.2378
  767TIP3   OH2 2264   2.373   2.251   0.460  0.6473  0.0765 -0.6413
  767TIP3    H1 2265   2.305   2.195   0.496 -0.5149  1.8994  0.1467
  767TIP3    H2 2266   2.333   2.339   0.457  2.9149  1.1951 -0.2415
  768TIP3   OH2 2267   0.516   2.637   2.610  0.5508 -0.3216 -0.1521
  768TIP3    H1 2268   0.550   2.610   2.695  0.7821  1.3081  0.3167
  768TIP3    H2 2269   0.590   2.627   2.550  0.8051 -0.1836  0.1340
  769TIP3   OH2 2270   3.210   2.573   3.516  0.2015 -0.6665 -0.1188
  769TIP3    H1 2271   3.235   2.590   3.607  0.7118 -1.6943 -0.0456
  769TIP3    H2 2272   3.243   2.484   3.499 -1.3087 -1.1386 -0.7818
  770TIP3   OH2 2273   6.162   4.531   0.503 -0.0736 -0.1403 -0.0623
  770TIP3    H1 2274   6.195   4.451   0.545  0.4224  0.4081  0.6074
  770TIP3    H2 2275   6.081   4.551   0.549 -0.4569 -0.5082 -0.5513
  771TIP3   OH2 2276   3.052   1.291   3.019 -0.2250  0.1382 -0.5625
  771TIP3    H1 2277   3.080   1.376   3.052 -0.5973 -0.4368  1.3343
  771TIP3    H2 2278   2.974   1.270   3.070  0.3057 -1.6868 -0.4323
  772TIP3   OH2 2279   0.202   6.679   1.079  0.1192 -0.6226 -0.1110
  772TIP3    H1 2280   0.294   6.653   1.079  0.2068 -0.4961  2.1452
  772TIP3    H2 2281   0.202   6.768   1.113 -0.7513 -0.1096 -1.3943
  773TIP3   OH2 2282   2.391   5.147   5.526  0.3529 -0.2968 -0.2893
  773TIP3    H1 2283   2.463   5.091   5.555  0.7780  0.7315  0.6756
  773TIP3    H2 2284   2.315   5.116   5.575  0.3573 -0.6824 -0.5179
  774TIP3   OH2 2285   5.781   4.408   5.784  0.3156 -0.0045  0.1317
  774TIP3    H1 2286   5.750   4.438   5.699 -0.5239 -0.4196  0.2782
  774TIP3    H2 2287   5.701   4.386   5.832  0.8433 -1.3004  0.4492
  775TIP3   OH2 2288   5.544   4.026   3.542  0.4405 -0.5133 -0.0954
  775TIP3    H1 2289   5.593   3.991   3.468  1.7348 -0.6645  0.7896
  775TIP3    H2 2290   5.591   4.106   3.566 -0.0369 -0.3989  0.4887
  776TIP3   OH2 2291   5.729   3.346   0.229  0.2931 -0.1012  0.3427
  776TIP3    H1 2292   5.810   3.393   0.212 -0.7245  1.4521 -0.4579
  776TIP3    H2 2293   5.661   3.399   0.186 -1.1633 -1.2511  1.1347
  777TIP3   OH2 2294   5.993   4.588   0.968 -0.1607  0.1529  0.6825
  777TIP3    H1 2295   5.997   4.675   1.008 -0.2155  0.8294 -0.7034
  777TIP3    H2 2296   6.079   4.550   0.985 -0.0233  0.6086  1.0302
  778TIP3   OH2 2297   4.119   5.116   5.041 -0.0970 -0.1471  0.3311
  778TIP3    H1 2298   4.141   5.026   5.064  0.0126  0.1275  1.3749
  778TIP3    H2 2299   4.104   5.114   4.947 -2.7744 -1.8254  0.6658
  779TIP3   OH2 2300   6.520   0.812   4.646 -0.3874 -0.1176 -0.4257
  779TIP3    H1 2301   6.475   0.832   4.564 -1.0339 -1.0104 -0.3082
  779TIP3    H2 2302   6.610   0.841   4.631 -0.6097  0.1913 -1.2661
  780TIP3   OH2 2303   2.495   3.808   5.041  0.1929  0.1885 -0.1405
  780TIP3    H1 2304   2.434   3.859   4.988  0.1120 -0.4730 -0.6985
  780TIP3    H2 2305   2.507   3.860   5.120 -1.4952  0.1016  0.2154
  781TIP3   OH2 2306   2.958   4.815   3.213  0.2815  0.1733 -0.0017
  781TIP3    H1 2307   2.890   4.755   3.181  1.5234 -1.8189  0.8917
  781TIP3    H2 2308   2.946   4.814   3.308 -0.7589  2.7861 -0.0196
  782TIP3   OH2 2309   0.874   5.023   4.247  0.1099  0.1534  0.4391
  782TIP3    H1 2310   0.920   4.945   4.217  0.2825  0.5296 -0.2934
  782TIP3    H2 2311   0.809   5.041   4.179 -0.1561  0.4511  0.7675
  783TIP3   OH2 2312   5.140   4.653   1.890 -0.3199 -0.4527 -0.1126
  783TIP3    H1 2313   5.079   4.724   1.872  0.7601  0.8883  1.3246
  783TIP3    H2 2314   5.083   4.577   1.905 -1.5777  0.4507 -0.0716
  784TIP3   OH2 2315   3.933   5.045   3.689 -0.1728 -0.2467  0.0135
  784TIP3    H1 2316   3.864   5.081   3.633 -1.6416 -0.3776  1.6415
  784TIP3    H2 2317   4.014   5.076   3.649 -1.2158  1.2146 -1.1182
  785TIP3   OH2 2318   1.522   0.439   0.612 -0.3002 -0.1522 -0.5118
  785TIP3    H1 2319   1.486   0.469   0.528  1.6921  0.1908 -1.3029
  785TIP3    H2 2320   1.511   0.514   0.671  1.1390  0.8253 -1.4005
  786TIP3   OH2 2321   2.693   3.420   5.137  0.3209 -0.3220  0.0430
  786TIP3    H1 2322   2.678   3.486   5.205 -0.1828  0.3681 -0.7230
  786TIP3    H2 2323   2.622   3.358   5.147  0.7458 -0.7203  0.7090
  787TIP3   OH2 2324   6.470   4.998   3.566 -0.2344 -0.0302 -0.2511
  787TIP3    H1 2325   6.555   5.001   3.610  0.6139 -3.6313 -1.3294
  787TIP3    H2 2326   6.491   4.981   3.475 -2.1381  2.0957 -1.1842
  788TIP3   OH2 2327   7.212   6.078   4.323 -0.1998 -0.3320 -0.1069
  788TIP3    H1 2328   7.127   6.063   4.283 -0.7467 -1.4467  1.3706
  788TIP3    H2 2329   7.193   6.134   4.399  0.3606 -0.6283  0.2595
  789TIP3   OH2 2330   3.146   4.473   0.579 -0.0842  0.1981 -0.4286
  789TIP3    H1 2331   3.165   4.565   0.560 -0.3241 -0.2292 -3.0396
  789TIP3    H2 2332   3.228   4.427   0.560  0.8479  0.0372  3.2391
  790TIP3   OH2 2333   1.268   2.115   0.217 -0.4518  0.1774 -0.3422
  790TIP3    H1 2334   1.252   2.057   0.143 -0.3029 -0.7774  0.3629
  790TIP3    H2 2335   1.196   2.179   0.213 -3.2946 -2.6186  1.3675
  791TIP3   OH2 2336   2.872   0.130   3.554  0.7110 -0.0093 -0.3579
  791TIP3    H1 2337   2.828   0.213   3.537 -1.2299 -1.0006 -0.4524
  791TIP3    H2 2338   2.915   0.108   3.471 -1.3137 -0.5328 -1.3296
  792TIP3   OH2 2339   4.292   4.419   0.575 -0.0430  0.1922 -0.0186
  792TIP3    H1 2340   4.286   4.325   0.563  1.6484 -0.2391  1.8939
  792TIP3    H2 2341   4.235   4.438   0.649  0.1009  0.5589  0.0023
  793TIP3   OH2 2342   2.416   5.921   3.558 -0.1920 -0.2301 -0.2758
  793TIP3    H1 2343   2.489   5.957   3.608  0.5774 -0.5118 -1.1565
  793TIP3    H2 2344   2.346   5.909   3.622  1.1440 -1.7021  1.0041
  794TIP3   OH2 2345   5.456   6.294   5.316  0.1326 -0.0219 -0.0447
  794TIP3    H1 2346   5.446   6.368   5.376  1.8204  0.4272 -0.2509
  794TIP3    H2 2347   5.544   6.261   5.335 -0.1992 -1.3040 -0.7060
  795TIP3   OH2 2348   5.855   4.462   0.309 -0.2453  0.3897 -0.4603
  795TIP3    H1 2349   5.945   4.459   0.278  0.1430 -2.6617  0.6860
  795TIP3    H2 2350   5.845   4.384   0.363 -3.9239  0.0233 -1.4332
  796TIP3   OH2 2351   1.615   0.988   3.711  0.4620 -0.0616  0.1655
  796TIP3    H1 2352   1.561   1.058   3.746 -0.1870  1.5182 -3.6023
  796TIP3    H2 2353   1.570   0.908   3.736 -2.5564  1.1345 -1.0606
  797TIP3   OH2 2354   4.481   0.227   3.281  0.0680  0.6210  0.5003
  797TIP3    H1 2355   4.450   0.162   3.344  0.4783  0.1154  0.1886
  797TIP3    H2 2356   4.402   0.255   3.235  0.1861 -2.4253 -1.9769
  798TIP3   OH2 2357   5.136   2.065   2.666 -0.3930  0.5444 -0.2974
  798TIP3    H1 2358   5.228   2.058   2.640 -0.2636  0.0776  0.2808
  798TIP3    H2 2359   5.094   2.107   2.591  0.4139  1.3884 -0.2962
  799TIP3   OH2 2360   4.755   4.993   3.053  0.0611  0.2149  0.3342
  799TIP3    H1 2361   4.777   5.072   3.102 -2.6276  0.8467  0.6716
  799TIP3    H2 2362   4.742   5.024   2.963  0.7404 -0.1742  0.0986
  800TIP3   OH2 2363   2.466   0.692   4.259  0.2335 -0.0185 -0.1759
  800TIP3    H1 2364   2.491   0.629   4.191 -0.2536 -0.0755 -0.3047
  800TIP3    H2 2365   2.433   0.639   4.331  0.2403  0.0671 -0.1092
  801TIP3   OH2 2366   5.191   0.722   4.535  0.4622 -0.4534 -0.2997
  801TIP3    H1 2367   5.262   0.683   4.486  1.1384  0.4280 -0.0465
  801TIP3    H2 2368   5.227   0.803   4.570 -1.0367  0.6780 -1.2358
  802TIP3   OH2 2369   3.661   1.997   1.880 -0.0891  0.0931 -0.2124
  802TIP3    H1 2370   3.567   1.979   1.884 -0.2558  1.1020  1.9834
  802TIP3    H2 2371   3.670   2.087   1.912  1.5856  0.2341 -0.9632
  803TIP3   OH2 2372   5.176   4.080   3.443  0.3404  0.4662  0.5511
  803TIP3    H1 2373   5.119   4.031   3.501  1.2298  0.4649  1.4594
  803TIP3    H2 2374   5.138   4.069   3.356 -0.6053 -0.1393  1.0272
  804TIP3   OH2 2375   5.364   4.482   2.138 -0.2666 -0.4793 -0.0300
  804TIP3    H1 2376   5.325   4.492   2.224  0.2772 -0.2777  0.1979
  804TIP3    H2 2377   5.329   4.554   2.087 -1.0950 -0.9731 -0.1715
  805TIP3   OH2 2378   5.397   5.270   4.026 -0.4120 -0.0564  0.0320
  805TIP3    H1 2379   5.391   5.188   4.075 -0.7467 -0.9500 -1.4488
  805TIP3    H2 2380   5.415   5.243   3.936 -2.9244  1.3387 -1.0022
  806TIP3   OH2 2381   3.527   0.332   1.914 -0.5903  0.1159 -0.0008
  806TIP3    H1 2382   3.556   0.373   1.996 -0.4196  2.0754 -0.9919
  806TIP3    H2 2383   3.438   0.364   1.901 -0.6311 -0.2128 -0.5842
  807TIP3   OH2 2384   0.088   0.432   4.700  0.1838  0.2234  0.3601
  807TIP3    H1 2385   0.122   0.343   4.688  0.2767  0.1851  0.8764
  807TIP3    H2 2386   0.122   0.480   4.625 -0.8206 -0.4378 -0.5619
  808TIP3   OH2 2387   1.739   4.222   1.159  0.0058 -0.2481 -0.2512
  808TIP3    H1 2388   1.711   4.132   1.174 -2.7986  0.4454 -0.8452
  808TIP3    H2 2389   1.835   4.219   1.168 -0.1661 -2.8414  1.7584
  809TIP3   OH2 2390   0.729   5.700   1.114  1.0414 -0.0480 -0.6328
  809TIP3    H1 2391   0.780   5.670   1.190 -0.8934 -1.8251  0.0413
  809TIP3    H2 2392   0.709   5.621   1.066  1.2493  0.9477 -2.4319
  810TIP3   OH2 2393   5.191   4.427   3.550 -0.3580  0.0709 -0.5511
  810TIP3    H1 2394   5.162   4.493   3.488  0.1996 -0.3001 -1.2213
  810TIP3    H2 2395   5.281   4.406   3.523  0.1201  0.3360  0.7420
  811TIP3   OH2 2396   0.613   1.127   1.172  0.2144  0.4100 -0.3324
  811TIP3    H1 2397   0.688   1.139   1.231  0.0454  0.5772 -0.1459
  811TIP3    H2 2398   0.651   1.123   1.085  0.3312  2.0258 -0.3937
  812TIP3   OH2 2399   1.070   0.113   5.195  0.9156 -0.3779  0.2934
  812TIP3    H1 2400   0.978   0.110   5.171  1.1448 -2.4317 -0.5937
  812TIP3    H2 2401   1.107   0.186   5.145 -0.1616  0.3502  0.5339
  813TIP3   OH2 2402   6.510   2.476   5.840 -0.0751 -0.7397 -0.0625
  813TIP3    H1 2403   6.582   2.423   5.875 -0.0420 -0.7093 -0.0848
  813TIP3    H2 2404   6.512   2.556   5.892 -0.1566 -0.7805  0.0047
  814TIP3   OH2 2405   6.961   0.381   4.922 -0.2754  0.7178 -0.1181
  814TIP3    H1 2406   6.957   0.306   4.981 -1.0062 -0.2893 -1.3808
  814TIP3    H2 2407   7.053   0.405   4.920  0.0442 -0.4082  0.0072
  815TIP3   OH2 2408   1.134   1.323   0.717 -0.0237  0.5564  0.4531
  815TIP3    H1 2409   1.099   1.241   0.751  0.4725  0.6541  1.2173
  815TIP3    H2 2410   1.056   1.376   0.698 -0.3147  0.3217  0.9859
  816TIP3   OH2 2411   2.940   3.842   0.768  0.1636 -0.0959 -0.0890
  816TIP3    H1 2412   3.028   3.855   0.731 -0.4012  0.2621 -1.3495
  816TIP3    H2 2413   2.956   3.825   0.861  1.6422 -1.1737 -0.4984
  817TIP3   OH2 2414   3.340   3.083   2.888 -0.7130 -0.1655 -0.2337
  817TIP3    H1 2415   3.284   3.034   2.827 -0.9395  0.7473 -0.7757
  817TIP3    H2 2416   3.310   3.056   2.974 -1.2871 -0.4874 -0.5256
  818TIP3   OH2 2417   2.277   4.435   5.302 -0.7154 -0.1681 -0.3846
  818TIP3    H1 2418   2.308   4.427   5.212 -0.9155 -2.1379 -0.3147
  818TIP3    H2 2419   2.351   4.473   5.349 -0.0314 -0.6050 -1.0847
  819TIP3   OH2 2420   4.828   3.129   2.873  0.3241  0.2164 -0.1487
  819TIP3    H1 2421   4.870   3.167   2.950 -0.4353 -1.1789  1.0045
  819TIP3    H2 2422   4.763   3.194   2.846  2.3295  1.8693 -1.2412
  820TIP3   OH2 2423   1.145   5.891   4.647  0.9126 -0.0908 -0.2251
  820TIP3    H1 2424   1.150   5.960   4.713 -1.2070  0.4319 -0.5358
  820TIP3    H2 2425   1.157   5.810   4.696  1.7351  0.3876  0.4074
  821TIP3   OH2 2426   0.367   2.035   2.520  0.2619  0.2916 -0.1275
  821TIP3    H1 2427   0.424   2.035   2.444  0.2861 -0.6664 -0.1139
  821TIP3    H2 2428   0.320   1.952   2.516 -0.4114  0.6291  0.4017
  822TIP3   OH2 2429   0.156   2.008   4.905 -0.5007 -0.0809  0.6472
  822TIP3    H1 2430   0.149   1.964   4.990  4.9846 -0.3687  1.2955
  822TIP3    H2 2431   0.135   2.099   4.924 -0.9342 -0.4262  1.9372
  823TIP3   OH2 2432   1.754   2.150   5.286 -0.3800 -0.2219  0.3575
  823TIP3    H1 2433   1.722   2.099   5.360 -0.2982 -0.4615  0.2273
  823TIP3    H2 2434   1.824   2.098   5.248 -0.9755 -0.5053 -0.3952
  824TIP3   OH2 2435   3.757   5.325   0.905 -0.1769  0.2056 -0.4225
  824TIP3    H1 2436   3.751   5.389   0.975 -1.9902 -1.4813  1.0795
  824TIP3    H2 2437   3.830   5.268   0.930  0.0276  0.3924 -0.5974
  825TIP3   OH2 2438   3.210   0.869   2.764  0.0243 -0.2441  0.2064
  825TIP3    H1 2439   3.169   0.928   2.827  0.9193 -1.8504  2.4535
  825TIP3    H2 2440   3.157   0.877   2.685 -0.4403  2.7850  0.7032
  826TIP3   OH2 2441   2.611   3.423   1.658 -0.4949 -0.3565  0.9496
  826TIP3    H1 2442   2.604   3.327   1.662  0.6207 -0.4748  0.3971
  826TIP3    H2 2443   2.696   3.442   1.696 -0.0056  0.2762 -0.3917
  827TIP3   OH2 2444   0.095   2.906   3.184 -0.4701  0.3028  0.2614
  827TIP3    H1 2445   0.042   2.828   3.201 -1.2707  0.7878  0.0701
  827TIP3    H2 2446   0.064   2.970   3.248  1.0294  0.0993  1.2363
  828TIP3   OH2 2447   0.369   6.382   0.485 -0.6693 -0.2136  0.1384
  828TIP3    H1 2448   0.378   6.439   0.408  2.1502 -1.1747 -0.3384
  828TIP3    H2 2449   0.314   6.310   0.454  0.1448 -0.4129 -0.9021
  829TIP3   OH2 2450   0.134   2.251   5.610  0.5058 -0.0870 -0.7782
  829TIP3    H1 2451   0.171   2.192   5.544 -0.6538 -2.7159  0.7904
  829TIP3    H2 2452   0.195   2.245   5.684 -0.3737 -0.4676 -0.0688
  830TIP3   OH2 2453   7.057   5.118   2.536  0.0300  0.0636  0.2410
  830TIP3    H1 2454   7.120   5.189   2.523  1.3227 -1.0017  0.4564
  830TIP3    H2 2455   7.101   5.058   2.596 -0.5572 -1.4988 -0.8482
  831TIP3   OH2 2456   0.132   1.987   4.546  0.5298 -0.1531  0.2916
  831TIP3    H1 2457   0.187   1.946   4.479 -1.6020 -1.0091 -1.0378
  831TIP3    H2 2458   0.083   1.914   4.584 -0.2764  0.6729  0.8746
  832TIP3   OH2 2459   5.733   4.457   4.548 -0.5896  0.4900  0.0837
  832TIP3    H1 2460   5.816   4.451   4.595 -1.1590  0.1554  1.0530
  832TIP3    H2 2461   5.676   4.393   4.590 -1.7394  1.5834  0.2499
  833TIP3   OH2 2462   5.826   3.294   3.924  0.4336 -0.1912 -0.1775
  833TIP3    H1 2463   5.800   3.216   3.972  0.4454  0.5009  0.9928
  833TIP3    H2 2464   5.787   3.284   3.838 -1.2279 -0.5585  0.5875
  834TIP3   OH2 2465   2.156   5.860   0.818 -0.1479 -0.3731  0.8974
  834TIP3    H1 2466   2.094   5.792   0.791  1.1791 -2.0032  1.7508
  834TIP3    H2 2467   2.165   5.848   0.913 -1.4350  2.3914  1.4609
  835TIP3   OH2 2468   2.468   0.397   4.268  0.1140  0.7915  0.1771
  835TIP3    H1 2469   2.406   0.376   4.199 -0.3346  0.8455  0.5612
  835TIP3    H2 2470   2.414   0.423   4.343  0.6114  1.6367  0.2605
  836TIP3   OH2 2471   1.693   3.991   4.615  0.3758  0.5663 -0.0534
  836TIP3    H1 2472   1.731   3.904   4.608 -0.2017  0.4157 -1.6743
  836TIP3    H2 2473   1.602   3.977   4.640  0.0431  0.6297 -1.1696
  837TIP3   OH2 2474   0.734   0.984   3.717  0.3751  0.2782 -0.3747
  837TIP3    H1 2475   0.648   0.999   3.755  1.2164 -1.4295  2.5064
  837TIP3    H2 2476   0.737   0.890   3.699  1.2861  0.4781 -1.4224
  838TIP3   OH2 2477   6.832   0.210   0.582  0.2865  0.4569 -0.1610
  838TIP3    H1 2478   6.738   0.193   0.586  0.2833  0.7256  1.2923
  838TIP3    H2 2479   6.840   0.305   0.593  0.7674  0.3296  0.6417
  839TIP3   OH2 2480   0.668   5.841   4.201 -0.3210 -0.1458 -0.3702
  839TIP3    H1 2481   0.595   5.826   4.260 -0.3579  1.0909 -0.0724
  839TIP3    H2 2482   0.725   5.902   4.248  0.6896 -0.7605 -0.7673
  840TIP3   OH2 2483   5.166   5.714   4.145  0.1233  0.2752  0.0225
  840TIP3    H1 2484   5.085   5.679   4.110  0.4609 -0.9446  0.4245
  840TIP3    H2 2485   5.230   5.643   4.136  1.7966  1.9180 -2.4035
  841TIP3   OH2 2486   1.568   2.550   5.001  0.1136 -0.0863 -0.2597
  841TIP3    H1 2487   1.474   2.533   5.002  0.1530 -0.3086  0.3475
  841TIP3    H2 2488   1.584   2.591   4.917 -0.4592 -0.4474 -0.5529
  842TIP3   OH2 2489   5.189   0.688   2.831  0.1650  0.0418  0.1644
  842TIP3    H1 2490   5.106   0.735   2.819  1.2144  1.5813 -1.5054
  842TIP3    H2 2491   5.248   0.751   2.871  1.0102 -0.4996 -0.1890
  843TIP3   OH2 2492   3.802   6.144   3.474  0.2684 -0.2439 -0.8963
  843TIP3    H1 2493   3.840   6.214   3.422  1.0615  0.8832  1.1215
  843TIP3    H2 2494   3.711   6.139   3.444 -0.1567  2.4684 -0.3337
  844TIP3   OH2 2495   7.044   0.451   4.452  0.4046  0.7451  0.0021
  844TIP3    H1 2496   7.022   0.427   4.362 -1.4495 -0.9694  0.8434
  844TIP3    H2 2497   7.139   0.440   4.456  0.3850 -0.3369 -1.4189
  845TIP3   OH2 2498   5.358   5.008   4.158  0.3263  0.1085 -0.2868
  845TIP3    H1 2499   5.315   4.929   4.127 -0.6941 -0.3080  2.0536
  845TIP3    H2 2500   5.288   5.073   4.163  0.3202  0.0067  1.5775
  846TIP3   OH2 2501   5.340   2.726   0.318 -0.0706  0.2470  0.5897
  846TIP3    H1 2502   5.250   2.727   0.351 -0.8477  3.3446 -1.2387
  846TIP3    H2 2503   5.374   2.640   0.344 -3.9577 -1.6472  0.2087
  847TIP3   OH2 2504   2.887   3.820   2.571 -0.3367 -0.0408 -0.4940
  847TIP3    H1 2505   2.831   3.822   2.649  0.9273  2.2731  0.4684
  847TIP3    H2 2506   2.827   3.806   2.499 -1.8398 -0.0894  0.7086
  848TIP3   OH2 2507   4.201   4.450   4.142 -0.0695 -0.0580  0.6899
  848TIP3    H1 2508   4.286   4.493   4.149 -1.5736  3.7420 -1.3204
  848TIP3    H2 2509   4.155   4.475   4.222  0.4453 -1.5996  1.4927
  849TIP3   OH2 2510   4.464   0.884   4.863 -0.0185 -0.1074 -0.2798
  849TIP3    H1 2511   4.434   0.936   4.788 -1.0526 -1.0288 -0.5427
  849TIP3    H2 2512   4.390   0.885   4.924  0.7265  0.4337  0.6360
  850TIP3   OH2 2513   6.647   5.388   3.650 -0.1418 -0.1660  0.4795
  850TIP3    H1 2514   6.664   5.481   3.667 -0.5964  0.3044 -1.4026
  850TIP3    H2 2515   6.731   5.354   3.620 -0.3726  0.0569 -0.4428
  851TIP3   OH2 2516   2.091   2.946   4.347 -0.4048  0.5718 -0.5004
  851TIP3    H1 2517   2.115   3.021   4.293 -1.6349  1.1227 -0.3093
  851TIP3    H2 2518   2.013   2.909   4.305 -0.4479  0.0477  0.0173
  852TIP3   OH2 2519   4.532   4.173   0.598 -0.1414  0.4244 -0.0925
  852TIP3    H1 2520   4.488   4.098   0.557 -2.9065  2.0714 -0.4378
  852TIP3    H2 2521   4.557   4.229   0.525 -1.1250  1.3477  0.2569
  853TIP3   OH2 2522   2.208   3.633   2.604  0.1040 -0.5740 -0.3089
  853TIP3    H1 2523   2.124   3.650   2.562  0.1921  1.0617  0.1028
  853TIP3    H2 2524   2.273   3.666   2.541  0.4451 -1.6481 -0.5413
  854TIP3   OH2 2525   3.041   2.739   0.370 -0.4423  0.1282 -0.1789
  854TIP3    H1 2526   2.969   2.679   0.348  0.5788 -1.2734  0.1656
  854TIP3    H2 2527   2.997   2.817   0.404 -1.8088 -0.5885 -0.2099
  855TIP3   OH2 2528   4.344   2.891   3.078  0.1052  0.3129  0.3726
  855TIP3    H1 2529   4.387   2.960   3.128  0.1271  0.4804  0.1255
  855TIP3    H2 2530   4.329   2.930   2.992  2.1038 -0.7071 -0.4907
  856TIP3   OH2 2531   0.843   2.124   5.206 -0.0299  0.1764 -0.3581
  856TIP3    H1 2532   0.888   2.208   5.207  1.1289 -0.3861 -1.3158
  856TIP3    H2 2533   0.756   2.142   5.241 -0.3732  2.1099 -1.9993
  857TIP3   OH2 2534   5.955   3.744   4.892 -0.0638  0.7718  0.0070
  857TIP3    H1 2535   5.952   3.813   4.826  0.2269  0.2457 -0.5591
  857TIP3    H2 2536   5.897   3.776   4.962  1.0805  2.1902  0.3496
  858TIP3   OH2 2537   7.067   1.282   4.228  0.0615 -0.1035 -0.3506
  858TIP3    H1 2538   7.011   1.204   4.230  1.8596 -1.5300 -1.9380
  858TIP3    H2 2539   7.152   1.251   4.259  0.2621  1.8410  1.2766
  859TIP3   OH2 2540   0.404   4.141   4.018 -0.1113  0.6975 -0.0026
  859TIP3    H1 2541   0.344   4.066   4.023  1.2305 -0.6229 -2.0347
  859TIP3    H2 2542   0.388   4.179   3.932 -1.4654  3.4623  1.3676
  860TIP3   OH2 2543   1.771   1.711   0.226 -0.6947 -1.1092  0.4974
  860TIP3    H1 2544   1.677   1.699   0.241 -0.9883 -0.4105 -0.6879
  860TIP3    H2 2545   1.781   1.709   0.131  0.4275 -0.7207  0.5934
  861TIP3   OH2 2546   1.174   3.939   3.134  0.0927 -0.6615 -0.1587
  861TIP3    H1 2547   1.093   3.986   3.114 -0.6759 -1.1625  1.5862
  861TIP3    H2 2548   1.153   3.847   3.122 -0.4245 -1.0043  2.6154
  862TIP3   OH2 2549   2.691   0.312   1.913  0.2402  0.1667 -0.0979
  862TIP3    H1 2550   2.635   0.379   1.953 -0.3179  0.8154 -1.8701
  862TIP3    H2 2551   2.760   0.297   1.978 -0.5640  1.2089  1.0583
  863TIP3   OH2 2552   0.909   4.270   3.247  0.0149 -0.6031  0.5633
  863TIP3    H1 2553   0.847   4.340   3.268 -0.3528 -0.8227  0.2238
  863TIP3    H2 2554   0.991   4.315   3.227 -1.0514  0.0534 -3.1048
  864TIP3   OH2 2555   3.829   4.195   1.790 -0.0452  0.2179  0.0069
  864TIP3    H1 2556   3.773   4.195   1.713 -0.5369  0.2343  0.3593
  864TIP3    H2 2557   3.812   4.110   1.831 -0.4271  0.5529  0.5534
  865TIP3   OH2 2558   3.003   6.590   3.617  0.0426  0.1290 -0.0491
  865TIP3    H1 2559   2.975   6.664   3.672 -1.5200 -0.2144 -0.3274
  865TIP3    H2 2560   2.930   6.527   3.623  1.0460 -1.1022 -0.3465
  866TIP3   OH2 2561   6.456   5.288   1.403  0.1514 -0.2621  0.0780
  866TIP3    H1 2562   6.480   5.324   1.488 -1.6563  0.2385  0.4228
  866TIP3    H2 2563   6.414   5.361   1.357  0.4918 -0.7140 -0.9841
  867TIP3   OH2 2564   5.282   5.732   2.548 -0.2234 -0.2790 -0.1470
  867TIP3    H1 2565   5.268   5.671   2.621  0.5059 -1.6029 -1.0652
  867TIP3    H2 2566   5.375   5.756   2.554 -0.4305  0.5028  0.0172
  868TIP3   OH2 2567   6.840   6.479   3.878  0.1184 -0.1834  0.0819
  868TIP3    H1 2568   6.868   6.463   3.788 -0.4240  0.8288 -0.2868
  868TIP3    H2 2569   6.744   6.477   3.874  0.0820  0.4455  0.5096
  869TIP3   OH2 2570   1.575   2.367   1.268 -0.0691  0.3465 -0.4258
  869TIP3    H1 2571   1.483   2.356   1.245  0.4108 -1.8431 -1.5317
  869TIP3    H2 2572   1.576   2.445   1.324 -2.5416  0.5613 -0.5581
  870TIP3   OH2 2573   5.195   6.721   1.675  0.0372  0.1766  0.4061
  870TIP3    H1 2574   5.256   6.772   1.728 -0.2377  1.2308 -0.2550
  870TIP3    H2 2575   5.117   6.777   1.669  0.1707  0.2292 -1.3324
  871TIP3   OH2 2576   4.148   2.710   1.391 -0.2171  0.1215  0.2537
  871TIP3    H1 2577   4.116   2.645   1.329 -0.6164  0.4417  0.1283
  871TIP3    H2 2578   4.076   2.771   1.402  0.3227  0.8129  0.0150
  872TIP3   OH2 2579   1.403   6.095   1.599 -0.1785 -0.1561  0.6701
  872TIP3    H1 2580   1.371   6.091   1.689 -1.7377 -0.2422  0.1496
  872TIP3    H2 2581   1.324   6.091   1.546  0.7481 -0.6597 -0.7283
  873TIP3   OH2 2582   4.336   5.255   1.896 -0.1933  0.1324 -0.9488
  873TIP3    H1 2583   4.422   5.298   1.902 -1.3659  2.5886 -0.3239
  873TIP3    H2 2584   4.310   5.242   1.987 -0.3357 -1.0085 -1.1387
  874TIP3   OH2 2585   0.823   1.098   2.654  0.0931 -0.7292 -0.2209
  874TIP3    H1 2586   0.752   1.093   2.590 -0.1982  0.2071  0.0117
  874TIP3    H2 2587   0.784   1.069   2.736  1.2076 -4.8396 -0.9495
  875TIP3   OH2 2588   3.490   4.100   2.967  0.5706  0.3013  0.1218
  875TIP3    H1 2589   3.486   4.191   2.938  1.2347 -0.1405 -1.4342
  875TIP3    H2 2590   3.408   4.061   2.937  1.3170 -0.1911 -1.3781
  876TIP3   OH2 2591   0.801   4.402   4.640 -0.0633  0.2100  0.9166
  876TIP3    H1 2592   0.804   4.496   4.620 -0.6828  0.2675  1.0647
  876TIP3    H2 2593   0.750   4.397   4.721  1.3094 -0.1295  1.7866
  877TIP3   OH2 2594   6.207   3.114   0.243 -0.2040  0.3764  0.4354
  877TIP3    H1 2595   6.214   3.197   0.290  0.3812 -0.2469  1.4834
  877TIP3    H2 2596   6.268   3.123   0.169  0.1325  0.7494  0.7519
  878TIP3   OH2 2597   5.195   2.224   5.645 -0.2583  0.0988 -0.7086
  878TIP3    H1 2598   5.213   2.136   5.612  0.1395 -0.1930  0.2253
  878TIP3    H2 2599   5.101   2.234   5.636 -0.4112 -0.7146 -0.1784
  879TIP3   OH2 2600   3.086   3.171   2.991 -0.4937  0.4100  0.2427
  879TIP3    H1 2601   2.997   3.136   2.980 -0.9208  0.8217  2.0172
  879TIP3    H2 2602   3.136   3.098   3.029 -0.0603  0.1943 -0.7076
  880TIP3   OH2 2603   2.148   2.361   1.608  0.2646  0.4485  0.5230
  880TIP3    H1 2604   2.227   2.307   1.607 -1.2100 -1.8490 -0.3984
  880TIP3    H2 2605   2.080   2.305   1.571 -1.7774  2.4141  1.0537
  881TIP3   OH2 2606   1.152   6.814   1.100 -0.4915 -0.2008 -0.2845
  881TIP3    H1 2607   1.126   6.748   1.036  3.2858 -1.1330 -1.0837
  881TIP3    H2 2608   1.235   6.783   1.135 -0.0107  2.7145  1.5282
  882TIP3   OH2 2609   4.091   6.589   0.201 -0.0267 -0.4115  0.0742
  882TIP3    H1 2610   4.168   6.573   0.146  0.9335  1.5034  0.7759
  882TIP3    H2 2611   4.030   6.636   0.144  0.3405  0.2133  0.1833
  883TIP3   OH2 2612   2.318   4.167   2.724  0.6049 -0.0303  0.0379
  883TIP3    H1 2613   2.331   4.230   2.654  0.1247 -0.3871 -0.3773
  883TIP3    H2 2614   2.252   4.106   2.690  2.9965 -2.4081 -0.6916
  884TIP3   OH2 2615   0.228   2.746   1.884 -0.5066  0.3143  0.3830
  884TIP3    H1 2616   0.280   2.799   1.824 -0.1464 -0.6010 -0.1417
  884TIP3    H2 2617   0.224   2.798   1.964 -0.4713  1.2816 -0.2251
  885TIP3   OH2 2618   4.920   2.173   4.555  0.6539  0.0349  0.1317
  885TIP3    H1 2619   4.836   2.129   4.567 -0.0198  1.2033 -0.1243
  885TIP3    H2 2620   4.981   2.103   4.530  0.1154 -1.0688  1.7220
  886TIP3   OH2 2621   4.210   3.731   3.522 -0.2841 -0.2279 -0.6249
  886TIP3    H1 2622   4.209   3.806   3.463  1.5247  0.6460  0.3777
  886TIP3    H2 2623   4.120   3.699   3.521 -0.9479  1.5162 -1.6196
  887TIP3   OH2 2624   4.391   1.274   1.929 -0.0502  0.7576  0.3829
  887TIP3    H1 2625   4.447   1.348   1.908 -2.0942  1.9518 -1.2354
  887TIP3    H2 2626   4.353   1.296   2.014 -0.1070  1.2512  0.2334
  888TIP3   OH2 2627   4.925   6.014   3.986  0.3101 -0.4405 -0.5094
  888TIP3    H1 2628   4.853   5.959   4.016  0.5392 -0.3280  0.2741
  888TIP3    H2 2629   4.996   5.996   4.048  1.3593 -1.4067 -1.9158
  889TIP3   OH2 2630   3.430   1.769   5.829 -0.7137  0.0862 -0.3272
  889TIP3    H1 2631   3.389   1.786   5.914  0.3279  1.3536 -0.0458
  889TIP3    H2 2632   3.481   1.848   5.811  1.6702 -1.4359 -0.6354
  890TIP3   OH2 2633   1.022   4.944   0.408  1.0748  0.6418 -0.0142
  890TIP3    H1 2634   0.998   4.883   0.478  1.0350  1.9139  1.1105
  890TIP3    H2 2635   1.103   4.985   0.439  2.0673 -0.0543 -1.5536
  891TIP3   OH2 2636   0.967   1.836   2.972  0.2961 -0.6629  0.0871
  891TIP3    H1 2637   0.876   1.810   2.985  0.5564 -1.1520  0.9698
  891TIP3    H2 2638   0.995   1.868   3.057  0.7638  0.1184 -0.3444
  892TIP3   OH2 2639   3.090   6.304   5.848 -0.5167 -0.2199  0.0903
  892TIP3    H1 2640   3.067   6.262   5.766 -0.9575  0.4905 -0.1559
  892TIP3    H2 2641   3.174   6.347   5.831 -0.4015 -0.4229  0.1405
  893TIP3   OH2 2642   5.699   2.065   3.438 -0.0692  0.1611 -0.1088
  893TIP3    H1 2643   5.645   2.007   3.492  1.0676 -0.5866  0.2562
  893TIP3    H2 2644   5.648   2.076   3.357 -1.2508  0.3587  0.6344
  894TIP3   OH2 2645   3.692   1.168   4.384 -0.0193  0.0290 -0.0705
  894TIP3    H1 2646   3.761   1.108   4.411  0.0942 -1.2846 -2.8970
  894TIP3    H2 2647   3.619   1.111   4.360 -1.4416  1.2948  1.0776
  895TIP3   OH2 2648   7.017   1.392   1.367 -0.4241 -0.2792  0.4026
  895TIP3    H1 2649   7.100   1.432   1.340 -1.1730  0.9767 -0.1893
  895TIP3    H2 2650   7.018   1.305   1.327  1.4230 -1.0838  2.0208
  896TIP3   OH2 2651   1.935   1.268   4.796  0.2626 -0.2757  0.2804
  896TIP3    H1 2652   1.951   1.234   4.708 -1.6176 -0.0709 -0.1743
  896TIP3    H2 2653   2.022   1.290   4.829  1.0843 -1.1314 -1.1989
  897TIP3   OH2 2654   4.122   5.013   2.812 -0.5308  0.5246  0.8031
  897TIP3    H1 2655   4.116   4.976   2.724 -2.3772 -0.1768  1.1773
  897TIP3    H2 2656   4.208   4.987   2.843 -0.4994 -0.6381 -0.1917
  898TIP3   OH2 2657   5.730   0.772   0.965 -0.7373  0.0819  0.5305
  898TIP3    H1 2658   5.736   0.833   1.039 -1.4194 -0.6945  1.2450
  898TIP3    H2 2659   5.649   0.796   0.921  0.5373  1.7333 -1.0972
  899TIP3   OH2 2660   5.143   5.080   3.140 -0.5244 -0.3214 -0.5941
  899TIP3    H1 2661   5.147   5.137   3.217  1.2797  0.7806 -1.4229
  899TIP3    H2 2662   5.055   5.093   3.105 -0.3035  1.7240 -0.5384
  900TIP3   OH2 2663   5.702   6.082   0.853 -0.1557 -0.0846  0.4072
  900TIP3    H1 2664   5.769   6.068   0.787 -0.4903 -0.3316  0.1150
  900TIP3    H2 2665   5.739   6.148   0.912  0.2774 -0.1085  0.1627
  901TIP3   OH2 2666   6.031   5.079   0.279 -0.2740  0.5451 -0.1168
  901TIP3    H1 2667   6.056   4.996   0.239  2.6474  0.9792  0.5418
  901TIP3    H2 2668   5.938   5.089   0.258 -0.5188 -2.4461 -0.9242
  902TIP3   OH2 2669   3.594   1.643   3.025  0.1065 -0.0044 -0.3125
  902TIP3    H1 2670   3.639   1.724   3.005  1.5443 -0.9415 -1.0693
  902TIP3    H2 2671   3.601   1.591   2.945 -1.3220 -0.6501 -0.0569
  903TIP3   OH2 2672   6.607   2.870   1.738 -0.4715  0.5315  0.5389
  903TIP3    H1 2673   6.611   2.775   1.724 -2.2402  0.7741 -2.7613
  903TIP3    H2 2674   6.537   2.881   1.803 -0.0066 -0.4288  1.2274
  904TIP3   OH2 2675   3.776   2.186   5.791 -0.0298  0.6168 -0.0272
  904TIP3    H1 2676   3.723   2.220   5.864 -1.5151  1.3964 -1.3984
  904TIP3    H2 2677   3.848   2.248   5.783 -1.0697  1.7972 -0.5823
  905TIP3   OH2 2678   2.198   5.735   1.541  0.3095  0.3457  0.1876
  905TIP3    H1 2679   2.219   5.651   1.583  2.0701 -0.7764 -2.6408
  905TIP3    H2 2680   2.130   5.713   1.478 -0.4009  1.4346  0.5584
  906TIP3   OH2 2681   0.067   1.382   0.266  0.0773 -0.6797 -0.5776
  906TIP3    H1 2682   0.003   1.403   0.199 -1.4270 -2.6659  0.1403
  906TIP3    H2 2683   0.150   1.413   0.231 -1.3590  3.2156 -0.9733
  907TIP3   OH2 2684   4.144   3.999   5.080 -0.2820 -0.3869  0.2423
  907TIP3    H1 2685   4.063   3.952   5.102  0.2116 -1.3569  0.0198
  907TIP3    H2 2686   4.134   4.021   4.987 -0.4081 -0.2531  0.2862
  908TIP3   OH2 2687   2.662   2.702   1.817  0.1819  0.1496 -0.0335
  908TIP3    H1 2688   2.729   2.735   1.876 -0.2850 -0.5830  0.9625
  908TIP3    H2 2689   2.594   2.667   1.876 -0.0721 -1.0695 -0.9981
  909TIP3   OH2 2690   0.917   1.333   4.613 -0.6250 -0.3931  0.1718
  909TIP3    H1 2691   0.896   1.260   4.555  1.4428  0.4772 -1.8765
  909TIP3    H2 2692   0.925   1.294   4.699 -1.7426 -2.1619 -0.4690
  910TIP3   OH2 2693   4.717   4.686   5.723 -0.2245 -0.0158 -0.0213
  910TIP3    H1 2694   4.655   4.755   5.698  0.8021  0.8537 -0.1928
  910TIP3    H2 2695   4.707   4.679   5.818 -0.0313  0.6621  0.0526
  911TIP3   OH2 2696   1.717   3.568   2.778  0.0817 -0.0570  0.0186
  911TIP3    H1 2697   1.696   3.495   2.835  1.9787 -0.8672 -0.2333
  911TIP3    H2 2698   1.804   3.596   2.805 -0.3355  1.7289 -0.3095
  912TIP3   OH2 2699   5.333   4.635   3.929  0.5920 -0.6391 -0.4176
  912TIP3    H1 2700   5.429   4.634   3.926  0.6330  1.0164 -0.3468
  912TIP3    H2 2701   5.312   4.696   4.000 -0.5277 -1.3799 -0.0884
  913TIP3   OH2 2702   3.914   4.238   5.238 -0.2485  0.0156  0.6511
  913TIP3    H1 2703   3.852   4.178   5.278 -0.2667 -0.3563  0.0739
  913TIP3    H2 2704   3.902   4.226   5.144 -2.0485  2.6929  0.4149
  914TIP3   OH2 2705   1.625   0.306   5.056  0.2389 -0.1971 -0.2419
  914TIP3    H1 2706   1.673   0.224   5.053  0.3049 -0.1283 -2.3484
  914TIP3    H2 2707   1.537   0.285   5.024  0.6175  0.7240 -2.0494
  915TIP3   OH2 2708   5.131   5.953   3.618 -0.6155 -0.0541  0.4133
  915TIP3    H1 2709   5.166   5.899   3.689 -0.2313  0.1985  0.4202
  915TIP3    H2 2710   5.089   6.027   3.663 -0.5806 -0.0173  0.3857
  916TIP3   OH2 2711   4.765   2.701   5.106  0.2306 -0.2851  0.0596
  916TIP3    H1 2712   4.847   2.670   5.067  0.6647  0.5068  0.3241
  916TIP3    H2 2713   4.736   2.629   5.162  0.5261 -0.7330 -0.3570
  917TIP3   OH2 2714   4.185   5.125   3.049  0.2909  0.5200  0.5140
  917TIP3    H1 2715   4.119   5.062   3.022  0.8832 -0.4874  1.3318
  917TIP3    H2 2716   4.268   5.078   3.042  0.6838  0.9846  1.7399
  918TIP3   OH2 2717   0.983   4.274   1.799 -0.5604 -0.1395  0.3516
  918TIP3    H1 2718   0.977   4.332   1.875  1.8672  0.7592 -0.0403
  918TIP3    H2 2719   0.930   4.316   1.731  0.2742  1.0735  0.4175
  919TIP3   OH2 2720   0.860   5.698   3.082  0.2689 -0.2389 -0.5911
  919TIP3    H1 2721   0.825   5.630   3.024 -0.4329 -0.9554  0.6280
  919TIP3    H2 2722   0.886   5.651   3.161  0.9760  0.7470 -0.2142
  920TIP3   OH2 2723   0.795   2.975   3.985  0.0197 -0.2741 -0.0139
  920TIP3    H1 2724   0.886   2.967   4.011 -0.2770 -1.0964  0.8219
  920TIP3    H2 2725   0.792   3.055   3.932  0.8381  1.0050  1.7553
  921TIP3   OH2 2726   2.366   3.889   4.646  0.2430 -0.5530 -0.2711
  921TIP3    H1 2727   2.445   3.836   4.654  0.5499 -0.1186 -0.4022
  921TIP3    H2 2728   2.344   3.913   4.736  1.3585  0.9185 -0.3625
  922TIP3   OH2 2729   5.651   1.417   1.174 -0.0623 -0.1995  0.7617
  922TIP3    H1 2730   5.714   1.385   1.238  0.8944 -0.9157 -0.4984
  922TIP3    H2 2731   5.678   1.508   1.157 -0.4005  0.0337  1.4660
  923TIP3   OH2 2732   6.004   0.735   2.573 -0.4098  0.3961 -0.2132
  923TIP3    H1 2733   6.041   0.706   2.656 -1.2244 -0.0755 -0.0035
  923TIP3    H2 2734   5.909   0.723   2.584 -0.8844  3.6350  0.0886
  924TIP3   OH2 2735   0.005   4.565   1.430 -0.0399  0.8148  0.5106
  924TIP3    H1 2736  -0.045   4.640   1.399 -0.0860  0.1530 -1.1307
  924TIP3    H2 2737   0.056   4.537   1.353  2.1482  0.8948  1.8568
  925TIP3   OH2 2738   2.118   5.704   5.502  0.0660  0.3209 -0.3974
  925TIP3    H1 2739   2.129   5.648   5.425  1.3746  0.8906 -0.6545
  925TIP3    H2 2740   2.187   5.770   5.494  0.1762  0.4402  1.2266
  926TIP3   OH2 2741   2.699   0.601   3.510 -0.0673 -0.3348  0.2444
  926TIP3    H1 2742   2.711   0.695   3.501 -1.2163 -0.2876 -1.1589
  926TIP3    H2 2743   2.624   0.591   3.569  0.1405 -0.3669  0.5014
  927TIP3   OH2 2744   6.058   2.471   1.552  0.6113 -0.0447 -0.3300
  927TIP3    H1 2745   5.992   2.519   1.503  3.0348  0.0392 -3.8516
  927TIP3    H2 2746   6.067   2.520   1.634 -2.1202  1.0986 -0.5982
  928TIP3   OH2 2747   6.138   3.740   1.330  0.0525  0.0212 -0.3039
  928TIP3    H1 2748   6.201   3.671   1.312 -1.0813 -1.4355  1.0657
  928TIP3    H2 2749   6.176   3.790   1.402  0.6132  0.5030 -0.9214
  929TIP3   OH2 2750   6.537   0.035   4.163  0.6681  0.2123  0.0848
  929TIP3    H1 2751   6.630   0.033   4.185  0.8104 -0.1405 -0.5433
  929TIP3    H2 2752   6.494   0.059   4.246  1.2787  0.0025  0.4704
  930TIP3   OH2 2753   3.624   3.609   1.176  0.1848  0.0255 -0.6408
  930TIP3    H1 2754   3.583   3.695   1.177  0.4345  0.1571  1.1263
  930TIP3    H2 2755   3.717   3.626   1.164  0.2119  0.0034 -0.4734
  931TIP3   OH2 2756   6.583   2.423   0.070  0.1077  0.5921  0.0336
  931TIP3    H1 2757   6.640   2.369   0.125 -0.1984  0.2322  0.0020
  931TIP3    H2 2758   6.643   2.474   0.016  0.4168 -1.1340 -1.3253
  932TIP3   OH2 2759   0.077   6.328   2.943  0.3282 -0.1224  0.3324
  932TIP3    H1 2760   0.086   6.284   3.027  0.9312 -0.8909 -0.1162
  932TIP3    H2 2761   0.150   6.294   2.891  2.2922  3.1391  0.6965
  933TIP3   OH2 2762   5.971   5.409   0.403  0.0374 -0.2509  0.1630
  933TIP3    H1 2763   5.999   5.456   0.482 -0.8771  1.9069 -0.7293
  933TIP3    H2 2764   6.032   5.439   0.335 -0.5298 -0.3995 -0.4118
  934TIP3   OH2 2765   2.438   2.756   2.344 -0.3163  0.7074  0.1333
  934TIP3    H1 2766   2.384   2.834   2.352 -0.2186  0.7623  0.2612
  934TIP3    H2 2767   2.401   2.708   2.270 -0.4666  0.8027  0.1473
  935TIP3   OH2 2768   6.967   6.660   3.393 -0.4354 -0.0122  0.2435
  935TIP3    H1 2769   6.943   6.743   3.433  0.8030 -0.9316  3.1744
  935TIP3    H2 2770   6.936   6.666   3.302 -1.3425  3.1589  0.6755
  936TIP3   OH2 2771   4.129   3.636   0.134 -0.0951  0.0051  0.0455
  936TIP3    H1 2772   4.037   3.657   0.146  0.7228  2.7696  2.7058
  936TIP3    H2 2773   4.136   3.543   0.154 -2.2705 -0.2526 -0.1788
  937TIP3   OH2 2774   5.893   3.655   1.342 -0.0083 -0.7085 -0.1374
  937TIP3    H1 2775   5.884   3.612   1.257  0.2424  0.1512 -0.6068
  937TIP3    H2 2776   5.979   3.697   1.339 -1.0567  1.5296 -0.4902
  938TIP3   OH2 2777   6.856   0.005   0.863  0.5617 -0.1201  0.3299
  938TIP3    H1 2778   6.884   0.087   0.904  1.8253  0.8559 -2.3047
  938TIP3    H2 2779   6.796   0.031   0.794 -0.1682 -1.5725  0.3667
  939TIP3   OH2 2780   1.742   1.620   5.196  0.5533  0.1353 -0.1124
  939TIP3    H1 2781   1.803   1.546   5.189  1.3407  0.7634 -0.0879
  939TIP3    H2 2782   1.792   1.695   5.164 -0.3870  0.5881 -0.5763
  940TIP3   OH2 2783   4.185   1.974   3.809  0.1450 -0.1967 -0.2258
  940TIP3    H1 2784   4.201   2.028   3.886  1.4133  2.2261 -2.0241
  940TIP3    H2 2785   4.091   1.982   3.793 -0.2778 -1.3948  1.4669
  941TIP3   OH2 2786   3.578   4.702   1.044  0.0610  0.3513  0.3185
  941TIP3    H1 2787   3.605   4.790   1.021 -0.8029  0.6983  0.5963
  941TIP3    H2 2788   3.489   4.694   1.011 -0.0276 -0.2654  0.6798
  942TIP3   OH2 2789   0.370   0.075   5.174  0.1939  0.5270  0.1909
  942TIP3    H1 2790   0.277   0.079   5.196  0.0700 -0.4619 -0.1029
  942TIP3    H2 2791   0.371   0.055   5.080  0.7091  3.1699 -0.4453
  943TIP3   OH2 2792   5.346   1.290   1.192  0.2790  0.6700 -0.1585
  943TIP3    H1 2793   5.405   1.236   1.243  0.9156  0.7433 -0.7994
  943TIP3    H2 2794   5.311   1.354   1.254  0.6218  0.4180  0.2915
  944TIP3   OH2 2795   5.395   4.696   0.981 -0.0855 -0.0343 -0.2463
  944TIP3    H1 2796   5.384   4.722   0.890 -0.2842 -0.4225 -0.3352
  944TIP3    H2 2797   5.486   4.665   0.986  0.3754  1.3026  0.0226
  945TIP3   OH2 2798   1.856   4.395   1.854  0.1474  0.0442 -0.4217
  945TIP3    H1 2799   1.875   4.351   1.937 -2.4978 -1.5182 -0.5264
  945TIP3    H2 2800   1.940   4.399   1.810  1.9635  2.1640  2.7821
  946TIP3   OH2 2801   3.718   3.452   3.098 -0.5066  0.4883  0.3780
  946TIP3    H1 2802   3.694   3.446   3.191 -1.2708 -2.6320  0.1090
  946TIP3    H2 2803   3.809   3.479   3.099 -1.1075  2.7277  1.8889
  947TIP3   OH2 2804   5.867   0.521   3.429  0.4618 -0.0566  0.6058
  947TIP3    H1 2805   5.857   0.615   3.419  1.9267  0.1035  0.4538
  947TIP3    H2 2806   5.888   0.508   3.522  0.0355 -0.2600  0.6775
  948TIP3   OH2 2807   2.146   5.206   2.148 -0.1287  0.0469  0.0417
  948TIP3    H1 2808   2.221   5.156   2.181  0.3302  1.6148  1.4696
  948TIP3    H2 2809   2.117   5.156   2.072  1.8140 -1.0803 -0.0371
  949TIP3   OH2 2810   1.926   3.501   4.315  0.1206 -0.4230 -0.3414
  949TIP3    H1 2811   1.862   3.571   4.327 -0.5603 -1.0183 -0.4789
  949TIP3    H2 2812   1.998   3.542   4.266  0.0751  0.3706  0.2370
  950TIP3   OH2 2813   4.573   5.330   3.014 -0.1708 -0.1733 -0.1807
  950TIP3    H1 2814   4.598   5.322   3.106  0.3164  0.1526 -0.2792
  950TIP3    H2 2815   4.608   5.251   2.973  0.4573  0.1340 -0.2597
  951TIP3   OH2 2816   4.683   4.699   1.823  0.0409 -0.5466 -0.1230
  951TIP3    H1 2817   4.752   4.756   1.790 -1.1266  1.2277  0.3305
  951TIP3    H2 2818   4.714   4.669   1.908 -0.1777  1.1655  0.5975
  952TIP3   OH2 2819   1.372   3.583   3.624 -0.6451 -0.1381  0.6718
  952TIP3    H1 2820   1.404   3.654   3.568 -0.8898  1.3892  2.3699
  952TIP3    H2 2821   1.424   3.506   3.597  0.6484  1.0040 -0.2583
  953TIP3   OH2 2822   3.390   1.221   0.155  0.0151 -0.4759 -0.7745
  953TIP3    H1 2823   3.408   1.265   0.071 -0.8466  1.6627  0.0924
  953TIP3    H2 2824   3.477   1.192   0.185  0.7371  1.1354 -1.1690
  954TIP3   OH2 2825   3.974   1.457   4.258  0.4097  0.1803 -0.3296
  954TIP3    H1 2826   4.037   1.407   4.311 -1.0867 -1.9914 -0.4687
  954TIP3    H2 2827   4.014   1.461   4.171 -0.1138 -2.3331 -0.7686
  955TIP3   OH2 2828   1.608   3.097   5.824  0.2238 -0.0523 -0.1105
  955TIP3    H1 2829   1.513   3.095   5.829 -0.1334  0.4151 -4.1290
  955TIP3    H2 2830   1.636   3.017   5.868 -2.0805 -0.8663  0.0069
  956TIP3   OH2 2831   0.800   3.511   5.317  0.4006 -0.0579 -0.0759
  956TIP3    H1 2832   0.883   3.499   5.271  0.1192  0.0828 -0.6378
  956TIP3    H2 2833   0.733   3.495   5.250 -0.0230 -0.0312  0.3324
  957TIP3   OH2 2834   3.277   3.905   0.955 -0.5838  0.1295 -0.1709
  957TIP3    H1 2835   3.245   3.990   0.927 -0.4137  0.3262  0.2366
  957TIP3    H2 2836   3.305   3.862   0.873  0.8967  1.1035 -0.2275
  958TIP3   OH2 2837   3.635   4.064   4.969  0.4926 -0.7982  0.0009
  958TIP3    H1 2838   3.637   3.980   5.015  0.9376 -1.2397 -0.7928
  958TIP3    H2 2839   3.549   4.067   4.929 -0.0494 -0.2271  1.1725
  959TIP3   OH2 2840   6.816   0.695   1.748  0.2599 -0.6532  0.4024
  959TIP3    H1 2841   6.803   0.725   1.658 -0.7460 -2.0136  0.0618
  959TIP3    H2 2842   6.785   0.767   1.803  0.0261 -0.1800 -0.3486
  960TIP3   OH2 2843   5.171   1.120   1.481 -0.1480  0.2697  0.5069
  960TIP3    H1 2844   5.210   1.034   1.500  1.8182  0.8266 -0.6456
  960TIP3    H2 2845   5.216   1.180   1.540 -0.4400  0.7121  0.2877
  961TIP3   OH2 2846   2.632   0.922   5.828  0.2038 -0.0803  0.0192
  961TIP3    H1 2847   2.548   0.959   5.799  0.6756  0.1404 -1.1189
  961TIP3    H2 2848   2.696   0.992   5.812  1.0936 -1.2594 -2.0394
  962TIP3   OH2 2849   2.195   1.359   1.674 -0.4067  0.3210  0.0184
  962TIP3    H1 2850   2.103   1.377   1.694 -1.2446 -1.3408 -1.8619
  962TIP3    H2 2851   2.225   1.304   1.746 -0.4830  1.8661  1.2645
  963TIP3   OH2 2852   2.239   5.575   3.451 -0.3777  0.0438  0.4821
  963TIP3    H1 2853   2.321   5.598   3.408  0.1294  0.2191  1.5214
  963TIP3    H2 2854   2.216   5.489   3.414 -0.5651  0.6678 -0.9539
  964TIP3   OH2 2855   6.962   4.227   0.844 -0.0044  0.1653 -0.1022
  964TIP3    H1 2856   6.996   4.300   0.792  1.9350 -0.9081 -0.4090
  964TIP3    H2 2857   6.991   4.246   0.933 -0.1968  0.1601 -0.0366
  965TIP3   OH2 2858   3.189   5.444   2.437  0.7050 -0.5815  0.1606
  965TIP3    H1 2859   3.244   5.400   2.372 -0.0812 -2.5509  0.7618
  965TIP3    H2 2860   3.105   5.458   2.391  0.5634 -0.8074  0.3506
  966TIP3   OH2 2861   6.201   2.762   2.359 -0.1697  0.3300  0.0826
  966TIP3    H1 2862   6.252   2.833   2.399  0.8810 -0.5855  0.4249
  966TIP3    H2 2863   6.234   2.682   2.401 -0.9863 -0.4091 -0.6433
  967TIP3   OH2 2864   4.019   6.000   1.213  0.8772  0.3428 -0.0594
  967TIP3    H1 2865   3.940   6.026   1.165  0.3194 -0.2792  0.5005
  967TIP3    H2 2866   4.090   6.016   1.152  0.3290  1.0158 -0.5401
  968TIP3   OH2 2867   4.159   4.476   1.687 -0.4348 -0.3067 -0.0993
  968TIP3    H1 2868   4.160   4.505   1.596 -0.5197 -1.9761 -0.6784
  968TIP3    H2 2869   4.219   4.535   1.732 -0.2368  0.4294 -1.2801
  969TIP3   OH2 2870   5.520   4.560   0.486 -0.1701 -0.5890  0.2926
  969TIP3    H1 2871   5.510   4.464   0.486 -0.4350 -0.6092 -1.6187
  969TIP3    H2 2872   5.546   4.581   0.396  0.0249  1.1388  0.7170
  970TIP3   OH2 2873   1.844   1.703   5.616  0.3495 -0.4464 -0.9810
  970TIP3    H1 2874   1.937   1.720   5.603  0.4485 -0.7966 -0.7578
  970TIP3    H2 2875   1.840   1.657   5.700 -0.3082  2.1164  0.4968
  971TIP3   OH2 2876   3.637   0.080   1.982 -0.7424  0.3326 -0.5004
  971TIP3    H1 2877   3.613   0.172   1.976  0.8470  0.7260 -1.5008
  971TIP3    H2 2878   3.583   0.036   1.917 -2.6588  0.2495  1.0622
  972TIP3   OH2 2879   6.966   6.378   4.404  0.0956 -0.3970 -0.2234
  972TIP3    H1 2880   6.938   6.393   4.313 -1.1496 -1.7712 -0.1222
  972TIP3    H2 2881   6.896   6.417   4.457  1.7842  2.1832  0.2470
  973TIP3   OH2 2882   3.859   3.175   1.223  0.4801  0.0489 -0.2687
  973TIP3    H1 2883   3.880   3.260   1.187 -1.6815  0.3855 -0.9018
  973TIP3    H2 2884   3.795   3.193   1.293  1.0017 -0.9524  0.5041
  974TIP3   OH2 2885   0.741   2.501   4.270  0.4759 -0.1814 -0.4422
  974TIP3    H1 2886   0.734   2.570   4.204 -0.6753  0.6096  0.4737
  974TIP3    H2 2887   0.834   2.479   4.271  0.5262 -0.2308 -2.3174
  975TIP3   OH2 2888   6.885   4.201   4.792  0.3775  0.1557  0.2450
  975TIP3    H1 2889   6.955   4.174   4.851 -1.0324 -1.3819  1.3070
  975TIP3    H2 2890   6.818   4.239   4.849  0.4844  2.0267 -0.7943
  976TIP3   OH2 2891   1.721   6.101   1.150  0.0857  0.2251 -0.0340
  976TIP3    H1 2892   1.756   6.015   1.169 -0.5328 -0.2738 -1.0624
  976TIP3    H2 2893   1.793   6.161   1.167  0.3770 -0.4396  1.1358
  977TIP3   OH2 2894   2.946   3.659   5.603 -0.0615  0.3456  0.2597
  977TIP3    H1 2895   2.998   3.580   5.602 -0.4230  0.0957  0.7681
  977TIP3    H2 2896   2.860   3.631   5.636 -0.5619  0.7166 -0.6924
  978TIP3   OH2 2897   5.422   5.219   5.176  0.0555  0.4444  0.0770
  978TIP3    H1 2898   5.388   5.298   5.135 -0.1023  0.9165  1.0698
  978TIP3    H2 2899   5.502   5.198   5.127  0.3392  1.4774  0.0844
  979TIP3   OH2 2900   4.150   1.435   0.925 -0.5848  0.1607  0.3675
  979TIP3    H1 2901   4.213   1.394   0.985 -1.0658  0.4495  1.0795
  979TIP3    H2 2902   4.198   1.443   0.842  0.5588  0.9903  1.0852
  980TIP3   OH2 2903   1.743   1.533   1.770 -0.1741 -0.3173 -0.2866
  980TIP3    H1 2904   1.685   1.554   1.843 -0.1083  0.3362 -0.4166
  980TIP3    H2 2905   1.824   1.579   1.790  0.5562 -1.7642  0.2356
  981TIP3   OH2 2906   0.205   0.577   2.678 -0.3128 -0.5021 -0.2217
  981TIP3    H1 2907   0.226   0.578   2.584  2.0827 -0.2200  0.2396
  981TIP3    H2 2908   0.244   0.658   2.711 -1.9638 -0.1228  0.8879
  982TIP3   OH2 2909   1.576   2.208   5.046 -0.2656 -0.0868  0.1185
  982TIP3    H1 2910   1.642   2.141   5.067 -0.0871  0.3168  0.8717
  982TIP3    H2 2911   1.585   2.221   4.951  0.5330 -0.2467  0.1636
  983TIP3   OH2 2912   2.407   1.237   2.434 -0.1799  0.1835  0.6620
  983TIP3    H1 2913   2.424   1.193   2.351  0.5750  0.0953  0.8528
  983TIP3    H2 2914   2.413   1.330   2.413 -0.3971  0.1719  0.5407
  984TIP3   OH2 2915   0.245   4.923   2.475  0.5449 -0.0176  0.0772
  984TIP3    H1 2916   0.261   4.835   2.509 -0.1780  0.7611  2.6241
  984TIP3    H2 2917   0.155   4.922   2.443  0.3376 -0.0410  0.6645
  985TIP3   OH2 2918   3.390   3.574   5.359 -0.0325  0.0489 -0.1351
  985TIP3    H1 2919   3.439   3.582   5.277  0.4546  0.7435  0.2166
  985TIP3    H2 2920   3.298   3.574   5.332  0.1403 -0.5681 -0.7434
  986TIP3   OH2 2921   2.540   0.946   5.171 -0.1270 -0.3264 -0.9696
  986TIP3    H1 2922   2.538   1.019   5.110 -0.5543 -1.3207 -2.1814
  986TIP3    H2 2923   2.457   0.901   5.159  0.0103 -0.8551 -0.0472
  987TIP3   OH2 2924   3.583   5.252   1.874 -0.3606  0.9418 -0.1274
  987TIP3    H1 2925   3.604   5.186   1.807 -1.0489 -0.0075  0.5689
  987TIP3    H2 2926   3.668   5.276   1.911 -0.2070 -0.8771  0.8256
  988TIP3   OH2 2927   6.819   1.454   4.782 -0.3169  0.2343 -0.3702
  988TIP3    H1 2928   6.868   1.387   4.831  1.3382  0.8030 -1.1678
  988TIP3    H2 2929   6.781   1.509   4.850  1.0347  0.3755  0.3203
  989TIP3   OH2 2930   2.045   0.261   1.742 -0.4165  0.0225 -0.1285
  989TIP3    H1 2931   2.013   0.298   1.661  0.2420 -0.0324 -0.4196
  989TIP3    H2 2932   2.126   0.308   1.761 -1.2893  1.0569  1.2773
  990TIP3   OH2 2933   4.020   2.121   4.917 -0.1705  0.0426  0.4666
  990TIP3    H1 2934   4.081   2.120   4.991  0.7197  0.3028 -0.2495
  990TIP3    H2 2935   3.956   2.189   4.938  1.3459  1.6514  0.0098
  991TIP3   OH2 2936   0.897   4.033   1.900 -0.1030 -0.2241 -0.4063
  991TIP3    H1 2937   0.911   4.110   1.845  0.2389  0.1376  0.1825
  991TIP3    H2 2938   0.976   3.981   1.890 -0.1020 -0.2286 -0.3768
  992TIP3   OH2 2939   2.708   3.948   0.190 -0.2264 -0.0468 -0.0343
  992TIP3    H1 2940   2.765   3.874   0.210 -0.8683 -0.7257 -0.6628
  992TIP3    H2 2941   2.631   3.908   0.150  0.1037  1.0562 -1.9034
  993TIP3   OH2 2942   1.391   6.347   0.606  0.1235 -0.3926 -0.1009
  993TIP3    H1 2943   1.451   6.274   0.617  0.3686  0.0407  1.7407
  993TIP3    H2 2944   1.340   6.350   0.687  0.5728  1.8498  0.1816
  994TIP3   OH2 2945   6.140   4.999   3.858  0.2998  0.2051  0.7702
  994TIP3    H1 2946   6.104   5.068   3.914 -0.4674  1.3155 -1.0015
  994TIP3    H2 2947   6.225   5.033   3.830 -0.5244  0.9937 -0.9495
  995TIP3   OH2 2948   3.046   4.072   1.908  0.3856  0.0542 -0.0893
  995TIP3    H1 2949   3.128   4.062   1.956  0.3468 -0.6205 -0.1554
  995TIP3    H2 2950   3.002   3.988   1.918 -0.5672  0.6013  0.4334
  996TIP3   OH2 2951   0.645   1.260   0.492  0.9043 -0.5239 -0.3628
  996TIP3    H1 2952   0.555   1.277   0.466  1.1896 -1.1092 -1.8714
  996TIP3    H2 2953   0.667   1.331   0.553 -0.9264 -1.0616  0.9756
  997TIP3   OH2 2954   5.621   0.020   4.066  0.1378  0.5052  0.1373
  997TIP3    H1 2955   5.715   0.034   4.060  0.5134 -0.7689  2.1647
  997TIP3    H2 2956   5.583   0.089   4.011  2.2083  1.3342 -0.3491
  998TIP3   OH2 2957   6.090   5.806   3.564  0.1650  0.1254  0.5119
  998TIP3    H1 2958   6.114   5.820   3.656 -1.2533  2.3465  0.6118
  998TIP3    H2 2959   6.051   5.889   3.536 -2.1284 -1.4248 -1.2378
  999TIP3   OH2 2960   3.145   5.282   3.938 -0.1008  0.3628 -0.2622
  999TIP3    H1 2961   3.152   5.307   4.030  0.5570  0.9012 -0.4539
  999TIP3    H2 2962   3.214   5.330   3.894 -1.1664  1.0686 -1.2423
 1000TIP3   OH2 2963   2.695   6.617   2.701 -0.1698 -0.6272 -0.5140
 1000TIP3    H1 2964   2.633   6.671   2.751 -0.0576 -0.3352 -0.6900
 1000TIP3    H2 2965   2.752   6.679   2.657  0.7420 -0.9027  0.2550
 1001TIP3   OH2 2966   5.150   3.963   4.983 -0.3533 -0.0605  0.7135
 1001TIP3    H1 2967   5.133   3.878   5.022  1.8977 -0.8942  0.0319
 1001TIP3    H2 2968   5.143   4.025   5.055 -0.2070 -1.0561  1.5930
 1002TIP3   OH2 2969   7.171   3.553   2.275  0.3098 -0.4853  0.1630
 1002TIP3    H1 2970   7.168   3.598   2.360  1.6187 -0.3681  0.1708
 1002TIP3    H2 2971   7.217   3.614   2.218  0.2749 -0.9653 -0.3842
 1003TIP3   OH2 2972   3.333   4.865   5.330  0.0664 -0.0421  0.2746
 1003TIP3    H1 2973   3.264   4.806   5.361  0.6093 -0.4342  0.7456
 1003TIP3    H2 2974   3.357   4.830   5.244  1.0904 -1.1318  0.9782
 1004TIP3   OH2 2975   6.010   4.624   1.387 -0.1976  0.0158  0.2701
 1004TIP3    H1 2976   5.989   4.531   1.388 -0.5128  0.0879  0.7014
 1004TIP3    H2 2977   6.017   4.648   1.479 -1.4446  0.7136  0.2064
 1005TIP3   OH2 2978   3.762   0.878   2.194  0.6592 -0.2075 -0.1015
 1005TIP3    H1 2979   3.795   0.814   2.131  2.7793  2.3431 -1.8395
 1005TIP3    H2 2980   3.799   0.851   2.278 -1.8138 -3.3919  0.1506
 1006TIP3   OH2 2981   5.696   6.325   0.326  0.4106 -0.1429  0.1092
 1006TIP3    H1 2982   5.710   6.349   0.417  0.0001 -0.1057  0.1672
 1006TIP3    H2 2983   5.676   6.231   0.329  0.3897 -0.1403  0.0620
 1007TIP3   OH2 2984   1.691   6.681   5.739 -0.1959 -0.0026  0.3352
 1007TIP3    H1 2985   1.757   6.736   5.696  0.0546 -1.0762 -0.7108
 1007TIP3    H2 2986   1.709   6.691   5.833  1.1800  0.0818  0.0809
 1008TIP3   OH2 2987   4.788   1.615   1.564  0.1640 -0.0339  0.5006
 1008TIP3    H1 2988   4.763   1.707   1.565  1.1191  0.2412  0.0811
 1008TIP3    H2 2989   4.731   1.575   1.497 -0.8708  0.0476  1.3020
 1009TIP3   OH2 2990   1.891   5.390   5.761  0.0457  0.3023 -0.7931
 1009TIP3    H1 2991   1.846   5.338   5.695 -1.0492  0.9348 -0.5693
 1009TIP3    H2 2992   1.875   5.481   5.736  1.2755  0.5559 -0.7433
 1010TIP3   OH2 2993   2.251   3.348   4.474  0.1863 -0.0289  0.1733
 1010TIP3    H1 2994   2.186   3.371   4.540 -0.9885  1.3436 -1.3733
 1010TIP3    H2 2995   2.282   3.432   4.441  0.9502 -0.6858 -0.8288
 1011TIP3   OH2 2996   2.814   6.174   4.078 -0.2486  0.1828  0.3774
 1011TIP3    H1 2997   2.851   6.262   4.091 -0.9813  0.5887 -0.1569
 1011TIP3    H2 2998   2.867   6.117   4.133 -0.0667  1.0385  1.1201
 1012TIP3   OH2 2999   3.478   4.967   0.009  0.5070 -0.1104 -0.4355
 1012TIP3    H1 3000   3.482   5.027   0.084 -1.1514  0.1195 -0.5008
 1012TIP3    H2 3001   3.518   5.017  -0.063 -0.1764  0.6404 -0.3113
 1013TIP3   OH2 3002   1.015   4.842   1.812  0.0040  0.2968 -0.0615
 1013TIP3    H1 3003   1.073   4.806   1.744  0.3874 -1.6432  1.2175
 1013TIP3    H2 3004   0.970   4.914   1.769  2.0610  0.7497 -1.6434
 1014TIP3   OH2 3005   5.530   3.293   0.474 -0.3462  0.8205  0.0130
 1014TIP3    H1 3006   5.545   3.252   0.559 -2.2353 -1.4585 -0.6194
 1014TIP3    H2 3007   5.614   3.285   0.429 -0.5745 -2.8288 -0.1205
 1015TIP3   OH2 3008   4.468   1.999   1.660  0.3205 -0.1546  0.2295
 1015TIP3    H1 3009   4.535   1.953   1.711 -0.7440  0.5811  2.4287
 1015TIP3    H2 3010   4.385   1.970   1.698 -0.5720  0.0508 -1.4711
 1016TIP3   OH2 3011   7.113   6.763   2.838 -0.8269  0.0794  0.1277
 1016TIP3    H1 3012   7.120   6.846   2.790  0.7822 -0.6134 -0.9473
 1016TIP3    H2 3013   7.032   6.771   2.888 -2.0317  1.3085 -1.8723
 1017TIP3   OH2 3014   4.274   4.061   5.879  0.0006 -0.0614 -0.5853
 1017TIP3    H1 3015   4.335   4.047   5.806 -0.9794  1.8436 -1.8653
 1017TIP3    H2 3016   4.321   4.029   5.956  1.7562 -0.5900 -1.8085
 1018TIP3   OH2 3017   1.087   0.117   3.314 -0.5502  0.1665 -0.2284
 1018TIP3    H1 3018   1.016   0.103   3.252  1.1844 -2.2302 -1.8170
 1018TIP3    H2 3019   1.111   0.209   3.302 -2.7164  0.7889 -0.2774
 1019TIP3   OH2 3020   4.157   4.378   5.012 -0.2334 -0.0059  0.2296
 1019TIP3    H1 3021   4.139   4.338   4.927  0.7663  0.7137 -0.3450
 1019TIP3    H2 3022   4.091   4.341   5.070  1.8476 -4.1710  0.2843
 1020TIP3   OH2 3023   3.762   6.809   1.133 -0.5041  0.0771  0.4307
 1020TIP3    H1 3024   3.759   6.731   1.077 -1.4362  0.6716 -0.3705
 1020TIP3    H2 3025   3.825   6.786   1.202 -2.1563 -2.0998  1.3266
 1021TIP3   OH2 3026   1.941   0.814   2.880  0.8163  0.6094  0.1801
 1021TIP3    H1 3027   1.981   0.804   2.966  0.9072  1.4883  0.2457
 1021TIP3    H2 3028   1.873   0.880   2.892 -1.5490 -1.7099  0.3392
 1022TIP3   OH2 3029   2.043   2.751   1.049  0.4250 -0.0344  0.4760
 1022TIP3    H1 3030   2.117   2.756   1.109  0.3636 -1.9000  0.7726
 1022TIP3    H2 3031   2.028   2.841   1.021  0.4210  0.9122  3.2724
 1023TIP3   OH2 3032   4.769   1.584   2.170 -0.2116  0.0603  0.7419
 1023TIP3    H1 3033   4.678   1.601   2.144  0.0087  0.8951  0.4807
 1023TIP3    H2 3034   4.816   1.664   2.147  0.9907 -1.0638 -0.9572
 1024TIP3   OH2 3035   1.532   0.569   4.948  0.0717 -0.4786  0.9196
 1024TIP3    H1 3036   1.474   0.528   4.883 -0.3335 -0.3953  1.2205
 1024TIP3    H2 3037   1.588   0.497   4.979  1.0738 -0.2877 -0.3584
 1025TIP3   OH2 3038   4.735   5.710   3.644 -0.5153  0.3701  0.0938
 1025TIP3    H1 3039   4.788   5.630   3.637 -0.4232  0.5539 -1.7502
 1025TIP3    H2 3040   4.675   5.705   3.569 -0.1607  2.2789 -0.3606
 1026TIP3   OH2 3041   6.726   4.953   4.779  0.2592 -0.5742  0.0165
 1026TIP3    H1 3042   6.817   4.940   4.752  0.2192  0.0193 -0.4304
 1026TIP3    H2 3043   6.680   4.978   4.698  0.2131  1.6132  0.6498
 1027TIP3   OH2 3044   7.125   6.105   0.664  0.5084  0.2405 -0.0808
 1027TIP3    H1 3045   7.208   6.146   0.688 -0.9780  2.8225  1.0160
 1027TIP3    H2 3046   7.150   6.033   0.605  3.4588  1.0894 -0.0223
 1028TIP3   OH2 3047   1.730   0.456   1.776 -0.1830  0.0521 -0.4982
 1028TIP3    H1 3048   1.727   0.546   1.742  0.4363 -0.2101 -1.2817
 1028TIP3    H2 3049   1.713   0.401   1.699  1.6538 -0.5690 -0.5076
 1029TIP3   OH2 3050   4.790   0.519   4.155  0.2853 -0.3443  0.2136
 1029TIP3    H1 3051   4.736   0.450   4.117  1.8008 -1.8051  0.5868
 1029TIP3    H2 3052   4.879   0.499   4.125  0.5846  2.4189 -1.0171
 1030TIP3   OH2 3053   3.880   3.373   1.467  0.3969 -0.7247  0.4165
 1030TIP3    H1 3054   3.904   3.432   1.395 -0.0063 -0.2636  0.6512
 1030TIP3    H2 3055   3.930   3.293   1.451  2.2214  0.2513  0.9928
 1031TIP3   OH2 3056   2.772   2.405   4.860 -0.0983  0.1349 -0.0725
 1031TIP3    H1 3057   2.791   2.406   4.766 -0.3788  0.3072 -0.1282
 1031TIP3    H2 3058   2.826   2.333   4.895 -0.1299 -0.0435 -0.3914
 1032TIP3   OH2 3059   4.554   3.852   2.353  0.3759  0.5806  0.0040
 1032TIP3    H1 3060   4.462   3.877   2.341  0.6489  1.9494  0.4883
 1032TIP3    H2 3061   4.573   3.793   2.281 -0.8319  0.4302 -0.2135
 1033TIP3   OH2 3062   6.606   0.316   5.003 -0.4252  0.0797 -0.5837
 1033TIP3    H1 3063   6.664   0.292   4.931 -1.2074 -2.1083 -0.5491
 1033TIP3    H2 3064   6.529   0.354   4.960 -1.8016 -3.0898 -1.1631
 1034TIP3   OH2 3065   4.016   3.979   1.418  0.3511  0.4210  0.6255
 1034TIP3    H1 3066   4.033   3.994   1.325  2.7050  1.5157  1.1584
 1034TIP3    H2 3067   4.034   3.886   1.431 -0.7208  0.0868 -0.1099
 1035TIP3   OH2 3068   6.225   5.722   3.331 -0.4855 -0.5782 -0.0672
 1035TIP3    H1 3069   6.182   5.767   3.403  0.3519 -0.2993  0.2626
 1035TIP3    H2 3070   6.319   5.733   3.347 -0.2801 -1.1457 -0.7953
 1036TIP3   OH2 3071   1.370   6.656   0.847  0.1382 -0.3765 -0.6665
 1036TIP3    H1 3072   1.420   6.593   0.899 -1.5650 -0.2764  1.2132
 1036TIP3    H2 3073   1.410   6.653   0.760  1.5471 -2.3654 -0.0108
 1037TIP3   OH2 3074   5.128   0.631   2.490  0.0074  0.3975 -0.2637
 1037TIP3    H1 3075   5.116   0.718   2.528 -2.0813 -0.0318  0.1836
 1037TIP3    H2 3076   5.161   0.578   2.563 -1.7530  0.1153  0.3639
 1038TIP3   OH2 3077   1.737   0.147   3.899  0.0513  0.3125 -0.1511
 1038TIP3    H1 3078   1.698   0.113   3.980  1.9886 -1.7489  0.0047
 1038TIP3    H2 3079   1.683   0.109   3.829 -0.7483  0.9247  0.1221
 1039TIP3   OH2 3080   2.424   5.323   5.057 -0.1952  0.4442 -0.2704
 1039TIP3    H1 3081   2.440   5.321   5.151 -0.9271  0.0623 -0.1472
 1039TIP3    H2 3082   2.504   5.286   5.018  1.1067  2.7505  0.0331
 1040TIP3   OH2 3083   2.031   5.906   2.989 -0.3408  0.1799 -0.1929
 1040TIP3    H1 3084   1.984   5.957   2.924 -0.8135 -0.5152 -0.4099
 1040TIP3    H2 3085   2.030   5.816   2.955  0.4828  0.0243  0.1680
 1041TIP3   OH2 3086   2.726   2.794   3.292 -0.0646  0.2573 -0.5925
 1041TIP3    H1 3087   2.740   2.725   3.227 -0.6477  0.1747 -0.6350
 1041TIP3    H2 3088   2.638   2.779   3.325 -0.4416  1.3523 -1.0548
 1042TIP3   OH2 3089   0.755   0.748   2.515 -0.6063  0.2384  0.4120
 1042TIP3    H1 3090   0.696   0.780   2.584 -1.6727  3.3939 -1.7458
 1042TIP3    H2 3091   0.839   0.791   2.533 -0.3898 -0.2620  0.6321
 1043TIP3   OH2 3092   1.689   4.676   2.263  0.0003 -0.1655 -0.2773
 1043TIP3    H1 3093   1.603   4.644   2.236 -0.4238  0.3957  0.3899
 1043TIP3    H2 3094   1.724   4.719   2.185  0.9358 -2.8613 -1.4821
 1044TIP3   OH2 3095   3.025   6.230   2.484  0.4696 -0.0065  0.2774
 1044TIP3    H1 3096   2.975   6.237   2.403  0.5933  0.2038  0.2193
 1044TIP3    H2 3097   2.964   6.260   2.552  0.5726  0.4089  0.1861
 1045TIP3   OH2 3098   3.778   4.855   0.331 -0.3217 -0.1818  0.0791
 1045TIP3    H1 3099   3.823   4.900   0.402  1.9963 -0.2170 -1.2634
 1045TIP3    H2 3100   3.705   4.913   0.308 -0.5331  0.2871  1.7872
 1046TIP3   OH2 3101   3.923   2.577   4.253 -0.1535  0.8350 -0.5086
 1046TIP3    H1 3102   4.000   2.633   4.241  0.0693  0.2181 -2.1382
 1046TIP3    H2 3103   3.914   2.570   4.348  4.1084 -2.1316 -0.0494
 1047TIP3   OH2 3104   3.238   2.350   2.807 -0.1387  0.2382  0.1133
 1047TIP3    H1 3105   3.178   2.390   2.870 -1.1882  2.0388 -1.9025
 1047TIP3    H2 3106   3.310   2.412   2.799 -1.2208  1.3203 -2.1883
 1048TIP3   OH2 3107   4.185   2.423   3.486 -0.1288 -1.0890 -0.1730
 1048TIP3    H1 3108   4.229   2.346   3.522  1.2486 -1.0941 -1.7313
 1048TIP3    H2 3109   4.138   2.390   3.409 -0.2731 -0.5347 -0.3285
 1049TIP3   OH2 3110   3.534   0.653   0.103  0.1776  0.1580 -0.2151
 1049TIP3    H1 3111   3.541   0.584   0.038  1.5865 -0.2111  0.2837
 1049TIP3    H2 3112   3.451   0.637   0.147 -0.5194  0.0711 -1.5128
 1050TIP3   OH2 3113   2.756   0.448   5.760  0.2325 -0.1363 -0.0273
 1050TIP3    H1 3114   2.783   0.519   5.819 -0.7393  0.7993 -0.6801
 1050TIP3    H2 3115   2.676   0.414   5.798  1.6976 -2.2555  1.3634
 1051TIP3   OH2 3116   0.155   2.597   2.222  0.0699  0.2759  0.1029
 1051TIP3    H1 3117   0.131   2.524   2.165 -0.3529 -2.6121  3.6281
 1051TIP3    H2 3118   0.226   2.563   2.277  2.4913  3.8459 -0.4512
 1052TIP3   OH2 3119   5.915   1.554   4.005 -0.1821  0.1707  0.4364
 1052TIP3    H1 3120   5.851   1.626   4.004  1.1317  1.4327  1.8557
 1052TIP3    H2 3121   5.989   1.587   3.954  0.1579 -0.4680  0.5112
 1053TIP3   OH2 3122   6.338   3.505   1.033  0.0505  0.5105 -0.2756
 1053TIP3    H1 3123   6.246   3.482   1.038  0.4565 -1.0723  0.7352
 1053TIP3    H2 3124   6.348   3.548   0.948 -1.6069  0.7544 -0.3740
 1054TIP3   OH2 3125   4.532   1.881   2.978  0.0920 -0.0558 -0.4340
 1054TIP3    H1 3126   4.615   1.888   3.026  1.1435 -0.3907 -2.1439
 1054TIP3    H2 3127   4.515   1.787   2.973 -1.2511  0.0360  1.2314
 1055TIP3   OH2 3128   5.391   0.898   3.772 -0.6551  0.0810 -0.4777
 1055TIP3    H1 3129   5.380   0.981   3.819  3.0361 -1.1642  3.2567
 1055TIP3    H2 3130   5.333   0.837   3.818  1.6298 -0.7265  1.5873
 1056TIP3   OH2 3131   1.674   3.704   2.193  0.0889 -0.3378 -0.5549
 1056TIP3    H1 3132   1.767   3.712   2.173  0.1114  0.0518 -0.3049
 1056TIP3    H2 3133   1.633   3.678   2.110  0.4909 -1.0720 -0.5320
 1057TIP3   OH2 3134   3.387   0.700   0.799 -0.4508 -0.9326 -0.0956
 1057TIP3    H1 3135   3.295   0.725   0.808 -0.6673 -1.2971 -1.1354
 1057TIP3    H2 3136   3.431   0.781   0.774 -0.4870 -0.7616  0.3817
 1058TIP3   OH2 3137   0.760   2.769   3.252  0.3943  0.7204  0.0814
 1058TIP3    H1 3138   0.793   2.826   3.321  0.4420  0.7280  0.0525
 1058TIP3    H2 3139   0.818   2.692   3.254  0.6652  0.9111 -0.2357
 1059TIP3   OH2 3140   1.826   6.646   1.555  0.5093 -0.1025 -0.2577
 1059TIP3    H1 3141   1.876   6.612   1.629 -0.5824 -1.5974 -0.1447
 1059TIP3    H2 3142   1.772   6.716   1.593 -2.0647 -2.6098  1.0955
 1060TIP3   OH2 3143   1.078   1.233   0.126 -0.1812  0.3548 -0.1325
 1060TIP3    H1 3144   1.142   1.163   0.137 -0.8022 -0.9083 -3.4386
 1060TIP3    H2 3145   1.011   1.215   0.192  0.7881 -0.8120  0.5698
 1061TIP3   OH2 3146   7.205   4.551   4.808  0.5984 -0.2259  0.3757
 1061TIP3    H1 3147   7.231   4.479   4.865 -0.1835 -1.4198 -0.7248
 1061TIP3    H2 3148   7.114   4.570   4.834  0.7757  0.3251  0.6092
 1062TIP3   OH2 3149   1.761   3.941   1.235 -0.6492 -0.4380  0.4163
 1062TIP3    H1 3150   1.817   3.899   1.169 -2.0173 -0.5782 -0.7059
 1062TIP3    H2 3151   1.799   3.913   1.319  1.7622  0.5958 -0.2472
 1063TIP3   OH2 3152   0.857   4.940   0.202 -0.2483  0.4387 -0.4623
 1063TIP3    H1 3153   0.864   5.002   0.130  1.2810 -0.6467 -1.3054
 1063TIP3    H2 3154   0.944   4.942   0.243 -0.2939 -0.8213 -0.2650
 1064TIP3   OH2 3155   7.150   6.187   1.242  0.0370 -0.1659  0.2745
 1064TIP3    H1 3156   7.194   6.154   1.163  0.8623  0.8040  0.3102
 1064TIP3    H2 3157   7.209   6.165   1.313 -0.1933 -0.0788  0.4935
 1065TIP3   OH2 3158   6.847   4.212   1.987 -0.2035  0.1609 -0.4000
 1065TIP3    H1 3159   6.782   4.145   2.008  0.9484 -0.1835  2.4657
 1065TIP3    H2 3160   6.920   4.164   1.949  0.6114 -0.3209  1.6280
 1066TIP3   OH2 3161   2.094   2.599   2.656 -0.0633 -0.2240  0.0886
 1066TIP3    H1 3162   2.149   2.662   2.609  0.7706 -0.6059  0.5199
 1066TIP3    H2 3163   2.052   2.548   2.587  0.2876 -0.0573 -0.2569
 1067TIP3   OH2 3164   2.915   3.061   1.557 -0.7943 -0.0017  0.2963
 1067TIP3    H1 3165   2.882   3.082   1.470 -0.8204 -0.7971  0.1060
 1067TIP3    H2 3166   2.898   2.967   1.567 -0.0329 -0.0926  0.8214
 1068TIP3   OH2 3167   0.806   4.152   5.526  0.7012 -0.0217 -0.2027
 1068TIP3    H1 3168   0.831   4.170   5.617 -2.2585  2.1253  0.3166
 1068TIP3    H2 3169   0.739   4.084   5.532  1.2425 -0.6399 -0.9157
 1069TIP3   OH2 3170   0.072   4.291   1.909 -0.4491 -0.3007  1.0511
 1069TIP3    H1 3171   0.149   4.319   1.858 -1.6992  3.1564  0.8106
 1069TIP3    H2 3172   0.108   4.263   1.993  1.2354 -1.1479  0.1020
 1070TIP3   OH2 3173   3.344   3.053   1.882  0.2321  0.4126 -0.0498
 1070TIP3    H1 3174   3.285   3.125   1.903  0.0895  0.3097 -0.0947
 1070TIP3    H2 3175   3.286   2.978   1.868  0.4608 -0.1183  1.6075
 1071TIP3   OH2 3176   5.299   6.484   0.658 -0.0766  0.2923  0.4134
 1071TIP3    H1 3177   5.279   6.458   0.748  0.4351 -0.3059  0.3574
 1071TIP3    H2 3178   5.218   6.466   0.610 -0.3428  0.5808  0.7347
 1072TIP3   OH2 3179   1.429   2.121   1.113 -0.5031 -0.9572 -0.4802
 1072TIP3    H1 3180   1.376   2.195   1.143 -0.0205 -1.7708  2.6789
 1072TIP3    H2 3181   1.367   2.063   1.069 -1.5721 -0.3036  0.1249
 1073TIP3   OH2 3182   1.337   4.991   0.995 -0.3979 -0.2038 -0.0451
 1073TIP3    H1 3183   1.363   5.083   1.003 -1.4071  0.0787  0.2290
 1073TIP3    H2 3184   1.402   4.942   1.045 -0.3815  0.4619  0.5980
 1074TIP3   OH2 3185   2.260   5.530   3.732  0.6537 -0.0548 -0.3106
 1074TIP3    H1 3186   2.259   5.553   3.639 -1.7745  1.3977  0.0009
 1074TIP3    H2 3187   2.265   5.614   3.777 -1.0896 -0.5424  0.8706
 1075TIP3   OH2 3188   5.578   4.018   1.440 -0.1478 -0.0321  0.5916
 1075TIP3    H1 3189   5.494   3.989   1.404  0.1747 -1.3407  0.8347
 1075TIP3    H2 3190   5.642   3.994   1.373 -0.0015  1.5725  0.1033
 1076TIP3   OH2 3191   0.317   1.611   3.922 -0.0931  0.8981 -0.6305
 1076TIP3    H1 3192   0.403   1.610   3.879  0.0682  1.0098 -0.3078
 1076TIP3    H2 3193   0.257   1.644   3.854 -0.0440 -0.0611 -1.1526
 1077TIP3   OH2 3194   6.602   5.170   4.315  0.0817 -0.1319  0.1095
 1077TIP3    H1 3195   6.697   5.169   4.303  0.1936  1.2005  0.6849
 1077TIP3    H2 3196   6.588   5.120   4.396  0.3334  0.0160  0.2477
 1078TIP3   OH2 3197   6.110   3.134   0.657 -0.0353  0.6193  0.2239
 1078TIP3    H1 3198   6.129   3.043   0.680 -0.0289  0.0652 -1.7641
 1078TIP3    H2 3199   6.016   3.134   0.635 -0.0077  1.0581  0.0887
 1079TIP3   OH2 3200   2.976   1.896   4.728 -0.0086 -0.0401 -0.1716
 1079TIP3    H1 3201   3.007   1.986   4.727 -2.3707  0.8674 -2.2646
 1079TIP3    H2 3202   2.972   1.873   4.821  0.1209  2.2260  0.4513
 1080TIP3   OH2 3203   4.458   4.686   5.279 -0.0163 -0.4824 -0.4052
 1080TIP3    H1 3204   4.514   4.653   5.349  0.5287 -0.4055 -0.8015
 1080TIP3    H2 3205   4.395   4.743   5.323  0.1245 -0.6861  0.0592
 1081TIP3   OH2 3206   5.663   1.071   0.805  0.7249  0.1214  0.1013
 1081TIP3    H1 3207   5.626   0.987   0.833 -0.1783  0.2062 -0.8052
 1081TIP3    H2 3208   5.644   1.130   0.878 -2.6440  0.6382 -1.0325
 1082TIP3   OH2 3209   1.575   1.157   3.040  1.1593  0.2479 -0.1920
 1082TIP3    H1 3210   1.662   1.145   3.080  0.4038  0.8344  1.7646
 1082TIP3    H2 3211   1.556   1.250   3.053  0.8411  0.4612 -1.9813
 1083TIP3   OH2 3212   1.117   5.878   4.385  0.2052 -0.5848  0.2680
 1083TIP3    H1 3213   1.143   5.896   4.475  0.3669  1.7903 -0.1944
 1083TIP3    H2 3214   1.024   5.902   4.382  0.4686  0.3957 -0.4347
 1084TIP3   OH2 3215   1.921   4.713   5.166 -0.0637  0.0408 -0.9159
 1084TIP3    H1 3216   1.866   4.738   5.241  0.2637  1.6511 -1.1724
 1084TIP3    H2 3217   1.859   4.693   5.096 -0.3610 -0.9357 -0.3872
 1085TIP3   OH2 3218   0.341   2.910   0.829  0.1019 -0.5907 -0.3964
 1085TIP3    H1 3219   0.411   2.905   0.895  0.7328 -1.6064 -1.1186
 1085TIP3    H2 3220   0.326   2.819   0.803 -1.1313 -0.3370 -0.6410
 1086TIP3   OH2 3221   6.983   0.571   1.485  0.0135  0.7125 -0.1242
 1086TIP3    H1 3222   7.025   0.526   1.411  0.4845 -2.4457  1.9123
 1086TIP3    H2 3223   6.902   0.605   1.448  1.0607  0.8635 -2.5066
 1087TIP3   OH2 3224   2.646   2.793   5.188  0.3419 -0.2936 -0.0211
 1087TIP3    H1 3225   2.631   2.787   5.093  1.2267  0.7274 -0.2483
 1087TIP3    H2 3226   2.741   2.803   5.197  0.1771  0.7021  0.8916
 1088TIP3   OH2 3227   2.350   4.875   4.600 -0.2237  0.0801  0.0939
 1088TIP3    H1 3228   2.422   4.825   4.563  0.0192  0.9940 -0.7057
 1088TIP3    H2 3229   2.276   4.857   4.543 -1.0160 -1.8192  1.5955
 1089TIP3   OH2 3230   4.166   3.737   2.996  0.6578  0.0538  0.2076
 1089TIP3    H1 3231   4.209   3.654   3.016  0.8615 -0.2022 -1.1975
 1089TIP3    H2 3232   4.169   3.786   3.078  0.2648 -1.4309  1.1518
 1090TIP3   OH2 3233   4.408   2.797   4.098 -0.1686  0.2633  0.5640
 1090TIP3    H1 3234   4.465   2.721   4.098  0.7419  0.9110 -0.2724
 1090TIP3    H2 3235   4.342   2.779   4.165  0.8999 -0.5957  1.4025
 1091TIP3   OH2 3236   3.032   4.937   2.534  0.2515  0.1609 -0.4403
 1091TIP3    H1 3237   2.955   4.881   2.550  1.0205 -0.4821  1.2899
 1091TIP3    H2 3238   2.998   5.026   2.540 -0.7221 -0.0918 -1.7529
 1092TIP3   OH2 3239   6.699   4.087   0.485  0.5107 -0.1337 -0.4799
 1092TIP3    H1 3240   6.746   4.169   0.467  1.3219 -0.2315  1.0937
 1092TIP3    H2 3241   6.686   4.087   0.579 -3.3144  0.1966 -0.8670
 1093TIP3   OH2 3242   6.517   4.722   3.646  0.1556  0.3099  0.0415
 1093TIP3    H1 3243   6.472   4.806   3.652  0.1436  0.3662 -0.7434
 1093TIP3    H2 3244   6.579   4.734   3.574  1.8882  0.4520  1.4772
 1094TIP3   OH2 3245   4.120   4.072   1.886 -0.2883  0.4194 -0.3930
 1094TIP3    H1 3246   4.190   4.101   1.827  0.6676  0.1098  0.5557
 1094TIP3    H2 3247   4.069   4.151   1.904  1.3362  1.2093  0.9132
 1095TIP3   OH2 3248   4.727   6.649   0.737 -0.0401 -0.8203 -0.1697
 1095TIP3    H1 3249   4.695   6.650   0.647  0.9321  2.1354 -0.5974
 1095TIP3    H2 3250   4.684   6.723   0.778  2.6685  0.5178  0.5105
 1096TIP3   OH2 3251   0.966   6.336   3.003  0.3725 -0.6777  0.6108
 1096TIP3    H1 3252   0.887   6.352   3.055  1.4932 -0.3719  2.2833
 1096TIP3    H2 3253   0.998   6.251   3.033  0.0622 -1.3678 -0.9169
 1097TIP3   OH2 3254   5.236   0.566   0.364  0.5396 -0.4956 -0.0530
 1097TIP3    H1 3255   5.172   0.507   0.404 -0.9140  0.3400 -1.0421
 1097TIP3    H2 3256   5.196   0.591   0.281  2.2398 -0.0320 -0.7564
 1098TIP3   OH2 3257   0.328   2.285   5.267 -1.1833 -0.5595  0.5569
 1098TIP3    H1 3258   0.253   2.316   5.216 -0.7026 -0.4648 -0.1135
 1098TIP3    H2 3259   0.374   2.365   5.291 -0.1397 -0.6970 -0.8617
 1099TIP3   OH2 3260   4.860   0.720   1.874  0.1408  0.1574  0.4416
 1099TIP3    H1 3261   4.919   0.698   1.946 -0.6891  1.0222  1.4086
 1099TIP3    H2 3262   4.836   0.811   1.890 -1.8761 -0.3327  0.3774
 1100TIP3   OH2 3263   6.735   5.461   2.714 -0.0533  0.1089 -0.4345
 1100TIP3    H1 3264   6.654   5.413   2.732  0.6049 -0.0482  2.6719
 1100TIP3    H2 3265   6.708   5.552   2.709 -0.7354 -0.1531 -2.1653
 1101TIP3   OH2 3266   4.929   2.295   5.691 -0.3118  0.0776  0.2075
 1101TIP3    H1 3267   4.870   2.371   5.684 -0.9824 -0.5310 -1.1412
 1101TIP3    H2 3268   4.875   2.221   5.664  0.6754 -0.7211  0.3753
 1102TIP3   OH2 3269   1.174   0.687   1.866 -0.4092  0.2857  0.0011
 1102TIP3    H1 3270   1.203   0.751   1.800 -0.2523  0.7675  0.5301
 1102TIP3    H2 3271   1.251   0.632   1.880 -0.3089  0.4474  0.0899
 1103TIP3   OH2 3272   1.146   0.083   0.440  0.0992 -0.3971  0.2750
 1103TIP3    H1 3273   1.090   0.007   0.453  0.8843 -0.8028  1.4180
 1103TIP3    H2 3274   1.156   0.090   0.346 -0.5149 -1.3069  0.1346
 1104TIP3   OH2 3275   1.571   3.185   2.607  0.2630  0.9804  0.5633
 1104TIP3    H1 3276   1.480   3.164   2.585  0.2950  1.2064  0.2057
 1104TIP3    H2 3277   1.591   3.129   2.682  0.5176 -0.6415 -0.6766
 1105TIP3   OH2 3278   2.417   1.521   0.073  0.8396 -0.1077  0.5388
 1105TIP3    H1 3279   2.426   1.563  -0.012 -0.4346  0.2669  0.5641
 1105TIP3    H2 3280   2.506   1.517   0.108  1.0707  2.2240  0.3763
 1106TIP3   OH2 3281   4.219   1.683   1.378  0.2100  0.3204  0.4539
 1106TIP3    H1 3282   4.188   1.700   1.289  1.2413 -0.3345 -0.0544
 1106TIP3    H2 3283   4.266   1.763   1.402  0.5570  0.2161  0.1262
 1107TIP3   OH2 3284   6.701   4.770   3.978 -0.1714 -0.2122  0.3844
 1107TIP3    H1 3285   6.754   4.747   4.055  0.4104 -0.1406  0.0116
 1107TIP3    H2 3286   6.695   4.689   3.928  1.5731  0.2840 -0.7464
 1108TIP3   OH2 3287   3.006   4.062   2.235  0.2551 -0.6663 -0.7431
 1108TIP3    H1 3288   3.041   3.979   2.268  0.4945 -1.0134 -1.8322
 1108TIP3    H2 3289   2.943   4.036   2.168  0.1241  0.0316 -0.8937
 1109TIP3   OH2 3290   5.789   3.816   5.088  0.4043 -0.1680  0.4249
 1109TIP3    H1 3291   5.800   3.794   5.180 -0.5770 -0.6356  0.4489
 1109TIP3    H2 3292   5.702   3.857   5.084  0.5027 -0.0181 -0.2706
 1110TIP3   OH2 3293   2.854   5.258   1.406  0.2813  0.2546  0.3002
 1110TIP3    H1 3294   2.907   5.327   1.366  0.3914  0.0724  0.1275
 1110TIP3    H2 3295   2.918   5.194   1.437  0.1310 -1.1321 -2.0127
 1111TIP3   OH2 3296   1.427   4.671   0.167 -0.1674 -0.1738  0.3403
 1111TIP3    H1 3297   1.499   4.633   0.217  0.1701  0.3132  0.2258
 1111TIP3    H2 3298   1.469   4.721   0.097 -0.5349  1.7018  1.3996
 1112TIP3   OH2 3299   6.217   0.063   5.739  0.4840  0.3168 -0.5797
 1112TIP3    H1 3300   6.221   0.020   5.654 -0.3638 -1.5842  0.2981
 1112TIP3    H2 3301   6.216  -0.008   5.803 -1.0163  1.6180  0.9536
 1113TIP3   OH2 3302   3.776   2.249   5.374  0.0384 -0.2476 -0.6149
 1113TIP3    H1 3303   3.863   2.268   5.339 -0.0715 -1.3948 -1.5724
 1113TIP3    H2 3304   3.762   2.156   5.355 -0.1403 -0.9119  2.2600
 1114TIP3   OH2 3305   5.301   1.486   2.993  0.9352 -0.4755  0.0454
 1114TIP3    H1 3306   5.296   1.549   3.065  0.3029 -0.3185 -0.1243
 1114TIP3    H2 3307   5.385   1.502   2.951  1.1864 -0.3837  0.5831
 1115TIP3   OH2 3308   1.389   2.930   2.880  0.3354  0.0854  0.0222
 1115TIP3    H1 3309   1.319   2.995   2.877  0.5771  0.3197 -0.8228
 1115TIP3    H2 3310   1.350   2.852   2.840  0.3935  0.0621  0.0115
 1116TIP3   OH2 3311   7.059   5.044   1.328 -0.1894  0.1905 -0.5914
 1116TIP3    H1 3312   7.009   4.970   1.293  0.7454  0.1823 -2.0166
 1116TIP3    H2 3313   7.021   5.121   1.285 -0.7330  0.4913  0.3962
 1117TIP3   OH2 3314   0.897   0.745   0.552 -0.5602 -0.1292  0.3456
 1117TIP3    H1 3315   0.869   0.684   0.483  0.7315 -0.4632  0.0687
 1117TIP3    H2 3316   0.945   0.690   0.614  1.3153  0.6856 -0.3136
 1118TIP3   OH2 3317   3.986   5.387   0.424 -0.6745 -0.1907  0.1331
 1118TIP3    H1 3318   4.079   5.382   0.400  0.1916  2.8601  2.2471
 1118TIP3    H2 3319   3.949   5.304   0.393  2.8722 -1.8363 -0.2037
 1119TIP3   OH2 3320   4.861   0.134   3.323 -0.3806 -0.4412  0.4535
 1119TIP3    H1 3321   4.932   0.152   3.383 -0.4687  0.3658  0.3318
 1119TIP3    H2 3322   4.828   0.220   3.298  0.0909 -0.7164 -1.2760
 1120TIP3   OH2 3323   0.401   6.295   3.945 -0.4819  0.3574  0.2427
 1120TIP3    H1 3324   0.490   6.320   3.920 -0.1797 -0.8469  0.0752
 1120TIP3    H2 3325   0.346   6.366   3.912  0.1305 -0.1423 -2.0017
 1121TIP3   OH2 3326   1.951   4.153   2.853  0.8121  0.7269 -0.0697
 1121TIP3    H1 3327   1.878   4.111   2.807 -0.0198  0.1244  1.7036
 1121TIP3    H2 3328   2.027   4.098   2.834 -0.0987 -1.2041  1.5478
 1122TIP3   OH2 3329   3.444   3.218   1.162  0.4158 -0.0308 -0.0669
 1122TIP3    H1 3330   3.456   3.153   1.231 -0.9884 -0.1963  0.0623
 1122TIP3    H2 3331   3.383   3.176   1.100 -0.6905  1.2067  0.1311
 1123TIP3   OH2 3332   4.126   2.810   2.008 -0.3516 -0.3856  0.0082
 1123TIP3    H1 3333   4.207   2.859   1.997 -0.4474 -0.4004 -0.8149
 1123TIP3    H2 3334   4.121   2.792   2.102  1.5532 -1.9871 -0.1213
 1124TIP3   OH2 3335   4.399   0.644   3.257 -0.1676 -0.5081  0.0359
 1124TIP3    H1 3336   4.304   0.634   3.250 -0.2076 -1.2084  1.3179
 1124TIP3    H2 3337   4.434   0.587   3.189 -0.6594  0.9017 -1.4774
 1125TIP3   OH2 3338   3.526   0.487   0.420 -0.5091  0.0216  0.1510
 1125TIP3    H1 3339   3.586   0.542   0.471 -0.2952  0.1036 -0.1883
 1125TIP3    H2 3340   3.476   0.549   0.367 -1.2152 -0.0101  0.7685
 1126TIP3   OH2 3341   4.470   5.577   2.937  0.2423 -0.0608  0.4489
 1126TIP3    H1 3342   4.451   5.623   3.019  2.5005  1.2483  0.3277
 1126TIP3    H2 3343   4.509   5.494   2.964  2.3729  0.9718  0.8357
 1127TIP3   OH2 3344   2.027   5.651   3.184  0.1489 -0.1698 -0.4038
 1127TIP3    H1 3345   2.110   5.677   3.143  1.4632 -1.1567  1.4566
 1127TIP3    H2 3346   2.006   5.566   3.145  1.1006 -0.8416  0.4774
 1128TIP3   OH2 3347   1.379   2.186   5.273 -0.3041 -0.2723  0.3449
 1128TIP3    H1 3348   1.344   2.105   5.236  1.0857 -1.6131  1.7970
 1128TIP3    H2 3349   1.470   2.189   5.242 -0.0313  0.1679  1.1648
 1129TIP3   OH2 3350   1.895   6.042   0.790  0.0969  0.1159  0.2029
 1129TIP3    H1 3351   1.811   5.996   0.785  0.5940 -1.0287  1.5858
 1129TIP3    H2 3352   1.954   5.990   0.736  0.5924 -0.7849  1.5492
 1130TIP3   OH2 3353   4.050   6.262   2.092 -0.4548 -0.5653  0.2237
 1130TIP3    H1 3354   3.959   6.259   2.065 -1.1591  1.1542  2.1259
 1130TIP3    H2 3355   4.076   6.353   2.079  0.2869 -0.5320  1.7183
 1131TIP3   OH2 3356   2.644   3.768   4.605 -0.4022  0.3530  0.1223
 1131TIP3    H1 3357   2.735   3.798   4.600 -0.5848  1.1402  1.0128
 1131TIP3    H2 3358   2.632   3.714   4.528  0.7519  0.4394 -0.1434
 1132TIP3   OH2 3359   6.559   2.428   3.827  0.2333  0.5134 -0.2890
 1132TIP3    H1 3360   6.516   2.343   3.828  0.5384  0.3162 -1.7580
 1132TIP3    H2 3361   6.648   2.411   3.858 -0.3494  0.7379  1.6892
 1133TIP3   OH2 3362   6.539   5.646   0.401  0.2004  0.2352 -0.0522
 1133TIP3    H1 3363   6.596   5.710   0.358 -0.9215  1.3175  0.0199
 1133TIP3    H2 3364   6.597   5.573   0.422  2.0736  2.1183  1.9031
 1134TIP3   OH2 3365   1.747   3.455   4.680 -0.5509  0.0852  0.0562
 1134TIP3    H1 3366   1.746   3.366   4.716  1.1717 -0.6026 -1.4549
 1134TIP3    H2 3367   1.806   3.503   4.738  0.3871 -0.4105 -0.4622
 1135TIP3   OH2 3368   2.450   5.909   3.005 -0.1443 -0.1727 -0.1127
 1135TIP3    H1 3369   2.491   5.974   2.948 -0.1350  0.2203  0.3310
 1135TIP3    H2 3370   2.440   5.954   3.089 -1.5018 -0.2634 -0.2089
 1136TIP3   OH2 3371   5.331   4.781   4.561 -0.2235  0.3684 -0.0820
 1136TIP3    H1 3372   5.375   4.848   4.509  1.8232 -0.9432 -0.1329
 1136TIP3    H2 3373   5.400   4.719   4.584 -1.9103 -1.3549  0.5813
 1137TIP3   OH2 3374   1.371   3.822   5.495 -0.3413 -0.4376 -0.1769
 1137TIP3    H1 3375   1.303   3.755   5.486 -0.0118 -0.6650 -1.0691
 1137TIP3    H2 3376   1.327   3.904   5.473 -0.3686 -0.5580 -0.5693
 1138TIP3   OH2 3377   1.060   4.995   1.094  0.1005  0.0701  0.6961
 1138TIP3    H1 3378   1.154   5.001   1.078  0.2143  1.2264  1.6322
 1138TIP3    H2 3379   1.054   4.956   1.182 -0.3401 -1.0102  0.2067
 1139TIP3   OH2 3380   2.881   2.538   0.252  0.1577 -0.2067  0.5278
 1139TIP3    H1 3381   2.818   2.468   0.269  0.3437  0.1932  3.1892
 1139TIP3    H2 3382   2.839   2.593   0.186 -1.4124 -1.0389  0.7858
 1140TIP3   OH2 3383   6.122   6.587   0.723  0.5282  0.2815 -0.5596
 1140TIP3    H1 3384   6.200   6.544   0.687 -0.0383  0.0985 -1.5931
 1140TIP3    H2 3385   6.114   6.552   0.812 -0.4051 -2.4655 -1.6283
 1141TIP3   OH2 3386   2.135   2.395   4.538 -0.3596 -0.0575 -0.1575
 1141TIP3    H1 3387   2.143   2.351   4.623 -0.6478  0.6732  0.2657
 1141TIP3    H2 3388   2.225   2.419   4.515  0.0810 -2.5724 -1.3717
 1142TIP3   OH2 3389   4.094   1.124   5.886 -0.3503  0.4348  0.5181
 1142TIP3    H1 3390   4.027   1.063   5.915  1.4373 -2.6427 -1.2594
 1142TIP3    H2 3391   4.063   1.155   5.801 -1.1308  1.9336  1.3020
 1143TIP3   OH2 3392   6.329   4.613   1.338  0.5281 -0.4409  0.0378
 1143TIP3    H1 3393   6.244   4.649   1.362  0.3515 -1.5806  1.3095
 1143TIP3    H2 3394   6.314   4.518   1.334  1.5123 -0.5740 -0.7072
 1144TIP3   OH2 3395   2.016   0.467   1.495 -0.4139 -0.2529 -0.2848
 1144TIP3    H1 3396   2.043   0.483   1.405 -1.0205 -0.3419 -0.4843
 1144TIP3    H2 3397   1.922   0.453   1.490 -0.4500 -0.2741  0.3614
 1145TIP3   OH2 3398   0.194   3.833   2.801 -0.2801 -0.1209  0.1280
 1145TIP3    H1 3399   0.253   3.894   2.845  0.1750  0.0977 -0.7808
 1145TIP3    H2 3400   0.223   3.746   2.830  1.4442 -0.1182 -1.4105
 1146TIP3   OH2 3401   4.726   4.129   1.085  0.2035  0.0806  0.1976
 1146TIP3    H1 3402   4.722   4.115   0.991 -2.6094  0.3796  0.1993
 1146TIP3    H2 3403   4.803   4.079   1.113  0.6257 -0.7001 -2.1234
 1147TIP3   OH2 3404   2.987   0.021   1.572 -0.2244 -0.0136 -0.1765
 1147TIP3    H1 3405   2.978   0.084   1.643 -0.6853 -0.6256  0.3249
 1147TIP3    H2 3406   2.947  -0.059   1.607 -1.5849  0.0166 -1.5630
 1148TIP3   OH2 3407   4.629   6.059   1.606  0.0524  0.1179 -0.2204
 1148TIP3    H1 3408   4.586   6.008   1.537 -0.3257 -0.4505  0.4174
 1148TIP3    H2 3409   4.722   6.043   1.593  0.0207  0.4790 -0.9466
 1149TIP3   OH2 3410   5.937   4.155   4.553  0.1168  0.3742 -0.0476
 1149TIP3    H1 3411   5.909   4.246   4.541 -0.9608 -0.0857 -1.2659
 1149TIP3    H2 3412   6.013   4.146   4.496  0.9672  0.8119  0.9842
 1150TIP3   OH2 3413   5.145   6.213   5.667  0.4025 -0.2355  0.4458
 1150TIP3    H1 3414   5.091   6.134   5.667 -0.1463  0.1317  0.3406
 1150TIP3    H2 3415   5.221   6.190   5.613  1.1942 -1.3081  1.9727
 1151TIP3   OH2 3416   2.032   6.348   1.579 -0.0308 -0.0191  0.0952
 1151TIP3    H1 3417   2.014   6.427   1.631 -1.1682  0.5960 -1.1855
 1151TIP3    H2 3418   2.080   6.380   1.503  1.0364 -0.8282  0.3999
 1152TIP3   OH2 3419   2.934   4.985   0.637 -0.0378 -0.1656  0.1497
 1152TIP3    H1 3420   3.028   5.001   0.635  0.1198 -0.9604 -2.3539
 1152TIP3    H2 3421   2.920   4.936   0.718  1.8514 -0.7455  0.1851
 1153TIP3   OH2 3422   1.653   3.233   4.359 -0.1219  0.1222  0.1870
 1153TIP3    H1 3423   1.745   3.235   4.385  0.3297 -1.8496 -1.1378
 1153TIP3    H2 3424   1.628   3.326   4.356  1.6110  0.6763  1.1725
 1154TIP3   OH2 3425   4.801   0.907   2.600 -0.1455 -0.1186 -1.0307
 1154TIP3    H1 3426   4.781   1.000   2.607 -0.6030 -0.2464 -0.5456
 1154TIP3    H2 3427   4.724   0.869   2.556 -2.2327 -0.9885  2.9176
 1155TIP3   OH2 3428   6.168   4.540   2.266  0.8831  0.0446 -0.2697
 1155TIP3    H1 3429   6.116   4.602   2.318  3.0259  1.0175  0.8068
 1155TIP3    H2 3430   6.214   4.595   2.203  0.9877 -0.7512 -0.8980
 1156TIP3   OH2 3431   6.138   0.421   5.501 -0.7020 -0.0333 -0.5195
 1156TIP3    H1 3432   6.052   0.403   5.463 -1.4159  1.2321  0.4139
 1156TIP3    H2 3433   6.128   0.507   5.542  1.3925  0.7648 -1.5400
 1157TIP3   OH2 3434   5.540   6.528   1.817  0.1568 -0.5371  0.4671
 1157TIP3    H1 3435   5.609   6.570   1.766 -1.0932  0.6076 -0.3259
 1157TIP3    H2 3436   5.586   6.493   1.894  1.8342 -1.0156 -0.6865
 1158TIP3   OH2 3437   3.201   3.251   5.269 -0.4314  0.3499  0.5673
 1158TIP3    H1 3438   3.173   3.339   5.241 -2.6355  0.0752  1.7005
 1158TIP3    H2 3439   3.291   3.244   5.238 -1.4524  1.4197 -3.3017
 1159TIP3   OH2 3440   5.347   1.634   3.521  0.0019  0.1293  0.1323
 1159TIP3    H1 3441   5.258   1.668   3.518 -0.7816 -1.7966  0.3132
 1159TIP3    H2 3442   5.357   1.601   3.610  0.6022 -0.4397 -0.1419
 1160TIP3   OH2 3443   4.459   1.976   3.741 -1.0608  0.0388 -0.5210
 1160TIP3    H1 3444   4.380   1.990   3.793  0.1614  0.1805  1.3910
 1160TIP3    H2 3445   4.516   2.050   3.765  0.5923 -1.3615  0.0512
 1161TIP3   OH2 3446   0.479   5.381   0.627 -0.0977 -0.2001  0.2608
 1161TIP3    H1 3447   0.401   5.382   0.573 -0.3386  1.7366  0.5727
 1161TIP3    H2 3448   0.550   5.360   0.567 -0.5538  0.4381 -0.5244
 1162TIP3   OH2 3449   2.408   0.545   3.195 -0.0661 -0.3200 -0.1478
 1162TIP3    H1 3450   2.366   0.464   3.165  1.5683 -1.8570  1.4283
 1162TIP3    H2 3451   2.490   0.550   3.145 -0.8943  1.3389 -1.4487
 1163TIP3   OH2 3452   4.022   6.548   2.051 -1.2746 -0.3507  0.0272
 1163TIP3    H1 3453   3.951   6.590   2.100 -0.2618  0.5229  0.7834
 1163TIP3    H2 3454   4.099   6.558   2.107  0.0026  0.8916 -1.8286
 1164TIP3   OH2 3455   6.528   2.216   2.833  0.0497 -0.2999 -0.0028
 1164TIP3    H1 3456   6.460   2.187   2.893  0.0468 -0.5996 -0.1472
 1164TIP3    H2 3457   6.483   2.229   2.750  0.4521 -2.2827 -0.5998
 1165TIP3   OH2 3458   3.658   1.036   5.260 -0.0475 -0.3052 -0.3655
 1165TIP3    H1 3459   3.578   1.067   5.218 -0.2071  0.6802  0.6063
 1165TIP3    H2 3460   3.725   1.044   5.192 -0.7783 -1.2561 -1.2249
 1166TIP3   OH2 3461   6.722   2.409   2.129 -0.3911  0.3566  0.3639
 1166TIP3    H1 3462   6.734   2.426   2.223 -1.8711  0.2574  0.5996
 1166TIP3    H2 3463   6.728   2.314   2.122  3.1569  0.4683 -0.2322
 1167TIP3   OH2 3464   5.929   1.857   5.524 -0.3083  0.4311 -0.2281
 1167TIP3    H1 3465   5.934   1.761   5.525  0.1247  0.4531  0.7563
 1167TIP3    H2 3466   5.949   1.881   5.434  1.0969 -0.3386 -0.1553
 1168TIP3   OH2 3467   5.666   5.523   4.259 -0.0709  0.2616 -0.6859
 1168TIP3    H1 3468   5.711   5.604   4.283 -1.4764  1.3253 -1.4940
 1168TIP3    H2 3469   5.714   5.490   4.183  0.6036  0.2413 -0.2570
 1169TIP3   OH2 3470   6.294   5.954   4.337  0.1798 -0.3978 -0.5789
 1169TIP3    H1 3471   6.307   6.000   4.420  1.5876  0.3340 -1.1668
 1169TIP3    H2 3472   6.205   5.979   4.310 -0.0870 -0.2124  0.4418
 1170TIP3   OH2 3473   7.175   1.811   3.595  0.1995 -0.0666 -0.1451
 1170TIP3    H1 3474   7.234   1.867   3.544 -0.6051 -0.0005 -1.0235
 1170TIP3    H2 3475   7.095   1.862   3.604 -0.7453 -1.2562 -1.4127
 1171TIP3   OH2 3476   7.185   0.207   5.778 -0.1862 -0.3996 -0.5639
 1171TIP3    H1 3477   7.107   0.261   5.793 -0.7453 -0.9279 -1.4867
 1171TIP3    H2 3478   7.151   0.125   5.744  0.6298 -1.5320  1.2257
 1172TIP3   OH2 3479   4.787   4.086   0.818 -0.2135  0.2308 -0.1236
 1172TIP3    H1 3480   4.785   4.155   0.752  0.7691 -0.2014 -0.6211
 1172TIP3    H2 3481   4.749   4.010   0.774 -0.5668  0.2269  0.1744
 1173TIP3   OH2 3482   1.270   0.552  -0.008  0.3303  0.2915 -0.1857
 1173TIP3    H1 3483   1.322   0.632  -0.001 -1.6102  1.6779 -0.7179
 1173TIP3    H2 3484   1.324   0.485   0.033  1.1791  2.3048  2.3255
 1174TIP3   OH2 3485   2.164   4.858   0.520  0.5146 -0.3106  0.4993
 1174TIP3    H1 3486   2.152   4.767   0.492  1.0853 -1.3602  3.3086
 1174TIP3    H2 3487   2.257   4.865   0.541  0.6567  1.2240 -0.5136
 1175TIP3   OH2 3488   3.706   4.791   2.151  0.1494 -0.3924  0.0608
 1175TIP3    H1 3489   3.644   4.789   2.078 -0.0912  0.2019  0.2413
 1175TIP3    H2 3490   3.787   4.756   2.115 -0.0664 -0.4253 -0.3976
 1176TIP3   OH2 3491   3.606   3.072   2.029 -0.1460 -0.0084  0.2228
 1176TIP3    H1 3492   3.694   3.044   2.003 -0.5170  0.2002 -1.3653
 1176TIP3    H2 3493   3.550   3.046   1.956 -1.4748 -0.4115  1.3450
 1177TIP3   OH2 3494   5.782   4.246   1.486  0.3361  0.1943 -0.2017
 1177TIP3    H1 3495   5.739   4.165   1.458  1.0094 -0.3915  0.3917
 1177TIP3    H2 3496   5.827   4.278   1.408 -0.6305  0.4687 -0.6618
 1178TIP3   OH2 3497   4.790   0.082   1.074 -0.0925  0.1182  0.6595
 1178TIP3    H1 3498   4.836  -0.001   1.083  0.1489  0.1719 -0.0644
 1178TIP3    H2 3499   4.851   0.139   1.027 -0.5758  0.4409  0.4126
 1179TIP3   OH2 3500   2.096   3.165   1.776 -0.1013  0.4134 -0.4624
 1179TIP3    H1 3501   2.144   3.116   1.843 -0.6886 -0.8056 -0.9012
 1179TIP3    H2 3502   2.007   3.171   1.810 -1.1621 -2.6828 -2.2526
 1180TIP3   OH2 3503   5.929   6.453   3.446 -0.2713  0.4531 -0.1621
 1180TIP3    H1 3504   5.859   6.481   3.386  0.4473  0.0578 -1.2065
 1180TIP3    H2 3505   6.010   6.477   3.401  0.2863  1.4585  1.3083
 1181TIP3   OH2 3506   2.117   5.380   1.927  0.2564 -0.2864 -0.5480
 1181TIP3    H1 3507   2.122   5.376   2.022  1.2677 -0.1043 -0.5786
 1181TIP3    H2 3508   2.067   5.459   1.908 -2.0101 -1.5550 -0.1644
 1182TIP3   OH2 3509   5.608   1.569   3.849 -0.4989 -0.3067  0.2652
 1182TIP3    H1 3510   5.622   1.572   3.754  0.1722  0.0762  0.3703
 1182TIP3    H2 3511   5.651   1.488   3.876 -0.9338 -0.5617  0.2137
 1183TIP3   OH2 3512   2.446   2.744   0.542  0.5240  0.2510  0.3747
 1183TIP3    H1 3513   2.444   2.671   0.480 -0.2942  0.0521  0.6179
 1183TIP3    H2 3514   2.511   2.805   0.506  1.5526 -0.8021  0.4131
 1184TIP3   OH2 3515   6.507   4.939   2.506 -0.0515  0.0990 -1.0868
 1184TIP3    H1 3516   6.441   4.950   2.438 -0.9290 -0.9335 -0.4432
 1184TIP3    H2 3517   6.501   5.019   2.559 -0.5287  0.1745 -1.2526
 1185TIP3   OH2 3518   6.446   3.560   5.293 -0.4116  0.1310 -0.3531
 1185TIP3    H1 3519   6.413   3.527   5.209 -2.0333  1.4675 -0.2817
 1185TIP3    H2 3520   6.539   3.577   5.276 -0.7114  0.4388 -1.9068
 1186TIP3   OH2 3521   2.366   1.973   1.437  0.6267  0.0833 -0.4738
 1186TIP3    H1 3522   2.390   2.055   1.394 -0.0294  0.6287  0.1741
 1186TIP3    H2 3523   2.313   2.000   1.512 -1.2661 -1.0266 -1.3477
 1187TIP3   OH2 3524   6.205   2.189   5.868 -0.9070  0.3574  0.1886
 1187TIP3    H1 3525   6.259   2.237   5.805  2.1427 -0.6457  1.8414
 1187TIP3    H2 3526   6.128   2.161   5.817  0.2429  1.5969 -2.4216
 1188TIP3   OH2 3527   2.529   2.756   3.501 -0.1442 -0.7765  0.0412
 1188TIP3    H1 3528   2.445   2.754   3.547 -0.6182 -0.8301 -0.8145
 1188TIP3    H2 3529   2.547   2.664   3.481  0.7690 -0.9149  1.3559
 1189TIP3   OH2 3530   5.038   1.814   0.062 -0.7621 -0.2263 -0.0803
 1189TIP3    H1 3531   4.963   1.765   0.095 -0.0226 -0.2352  1.7350
 1189TIP3    H2 3532   5.108   1.749   0.056  0.1104  0.4624  1.9388
 1190TIP3   OH2 3533   0.337   5.234   4.926 -0.9041  0.0529  0.0119
 1190TIP3    H1 3534   0.427   5.199   4.929 -0.8553  0.0340 -1.3247
 1190TIP3    H2 3535   0.344   5.317   4.879 -1.6456 -0.1465 -0.4712
 1191TIP3   OH2 3536   7.215   1.500   2.523  0.1964  0.0979 -0.1596
 1191TIP3    H1 3537   7.239   1.412   2.495  0.5402  0.1727 -0.1056
 1191TIP3    H2 3538   7.155   1.532   2.456  0.1556 -0.1369 -0.2341
 1192TIP3   OH2 3539   0.884   4.247   0.298 -0.0979 -0.2048 -0.3861
 1192TIP3    H1 3540   0.802   4.259   0.346 -0.7762 -0.0705 -1.5275
 1192TIP3    H2 3541   0.857   4.239   0.206  0.9738 -2.3672 -0.5776
 1193TIP3   OH2 3542   0.628   1.438   5.191 -0.0585  0.4116 -0.2541
 1193TIP3    H1 3543   0.627   1.499   5.266  0.1245  1.4180 -1.0456
 1193TIP3    H2 3544   0.578   1.363   5.221 -0.3835  0.9996  0.7310
 1194TIP3   OH2 3545   4.700   2.291   2.738 -0.3303  0.4404 -0.2651
 1194TIP3    H1 3546   4.793   2.272   2.750 -0.8563 -0.7624  2.6588
 1194TIP3    H2 3547   4.677   2.347   2.811 -2.4008 -1.3246  0.5412
 1195TIP3   OH2 3548   0.269   2.189   1.476  0.4789 -0.4922  0.1259
 1195TIP3    H1 3549   0.230   2.276   1.477  1.8511  0.2079 -1.5831
 1195TIP3    H2 3550   0.227   2.142   1.548 -2.7111  0.4831 -0.9653
 1196TIP3   OH2 3551   4.828   5.272   0.816 -0.3761  0.3618 -0.0045
 1196TIP3    H1 3552   4.793   5.254   0.903 -0.8095 -0.2267 -0.2909
 1196TIP3    H2 3553   4.853   5.364   0.819  1.0300 -0.0346  1.2056
 1197TIP3   OH2 3554   6.681   0.196   3.573  0.4516  0.1380  0.1914
 1197TIP3    H1 3555   6.609   0.259   3.578  0.2038  0.0122 -1.2975
 1197TIP3    H2 3556   6.756   0.247   3.541  0.4352 -0.1667 -0.3508
 1198TIP3   OH2 3557   0.424   0.293   3.238 -0.1547  0.3735  0.0499
 1198TIP3    H1 3558   0.332   0.297   3.264 -0.1163 -0.0144  0.2524
 1198TIP3    H2 3559   0.426   0.231   3.166  0.0250 -0.0276  0.3963
 1199TIP3   OH2 3560   0.051   1.134   1.821 -0.3234 -0.0655 -0.0236
 1199TIP3    H1 3561   0.027   1.210   1.874  1.2942  1.1366 -0.9260
 1199TIP3    H2 3562  -0.000   1.145   1.741  1.3205  1.2108 -0.9678
 1200TIP3   OH2 3563   5.963   1.948   3.758 -0.5726 -0.2810 -0.2377
 1200TIP3    H1 3564   5.966   1.871   3.702  1.1158 -1.6744  1.6006
 1200TIP3    H2 3565   5.945   1.914   3.846 -3.1845  1.7983  0.1742
 1201TIP3   OH2 3566   2.485   2.033   0.261  0.2889 -0.3099  0.1732
 1201TIP3    H1 3567   2.483   2.043   0.166 -1.0908  0.0276  0.2043
 1201TIP3    H2 3568   2.411   1.975   0.280  3.5146 -4.7531  0.6633
 1202TIP3   OH2 3569   6.169   3.318   5.266 -0.2744  0.0255 -0.0576
 1202TIP3    H1 3570   6.202   3.356   5.184 -1.8253  1.3326 -0.1421
 1202TIP3    H2 3571   6.077   3.297   5.247 -0.8101  0.8334  1.4726
 1203TIP3   OH2 3572   2.626   1.574   3.807  0.2744 -0.4864  0.0311
 1203TIP3    H1 3573   2.593   1.488   3.780 -0.5632 -0.1960  0.1039
 1203TIP3    H2 3574   2.578   1.636   3.752  0.0523 -0.0062  0.7582
 1204TIP3   OH2 3575   7.173   0.859   1.776  0.4262  0.1791 -0.1209
 1204TIP3    H1 3576   7.249   0.907   1.808  1.0234 -0.9344  0.1929
 1204TIP3    H2 3577   7.098   0.907   1.811  1.0329 -0.3667  2.1281
 1205TIP3   OH2 3578   1.158   5.666   5.233 -0.3626  0.4072  0.1561
 1205TIP3    H1 3579   1.246   5.635   5.252 -0.9469 -0.6502  1.2794
 1205TIP3    H2 3580   1.169   5.730   5.162  1.0559 -1.4062 -1.3546
 1206TIP3   OH2 3581   4.906   2.562   0.728  0.2196  0.0214 -0.0905
 1206TIP3    H1 3582   4.860   2.599   0.652  1.9816 -0.0512 -1.2459
 1206TIP3    H2 3583   4.891   2.625   0.798 -0.0395  0.9750 -0.9738
 1207TIP3   OH2 3584   6.956   0.435   4.167 -1.0290 -0.1346 -0.2193
 1207TIP3    H1 3585   7.016   0.450   4.094  2.4805 -3.9941  1.4713
 1207TIP3    H2 3586   6.899   0.364   4.137  0.3732 -1.6779  0.5697
 1208TIP3   OH2 3587   1.347   4.223   0.639 -0.2801  0.1527  0.9290
 1208TIP3    H1 3588   1.270   4.259   0.595  0.5698  1.2385  0.2666
 1208TIP3    H2 3589   1.342   4.258   0.728  0.0395  1.1867  0.5570
 1209TIP3   OH2 3590   5.737   0.514   4.624  0.0349 -0.2001  0.0486
 1209TIP3    H1 3591   5.684   0.459   4.566 -0.1620  1.6336 -1.6256
 1209TIP3    H2 3592   5.805   0.551   4.568 -0.5990  2.2374  0.7360
 1210TIP3   OH2 3593   5.513   6.038   1.699  0.3457  0.3120  0.2271
 1210TIP3    H1 3594   5.485   5.957   1.655 -2.0821  0.2646  1.6795
 1210TIP3    H2 3595   5.469   6.107   1.649  0.8511  0.5852  0.1619
 1211TIP3   OH2 3596   4.603   6.125   5.815  0.2456  0.3099 -0.4154
 1211TIP3    H1 3597   4.521   6.098   5.857 -0.7871  1.5604 -1.5402
 1211TIP3    H2 3598   4.613   6.218   5.838  1.5214  0.1050 -0.0514
 1212TIP3   OH2 3599   6.683   0.121   2.129  0.4877 -0.2507  0.0284
 1212TIP3    H1 3600   6.606   0.081   2.088  0.3791 -2.0725  1.8092
 1212TIP3    H2 3601   6.662   0.120   2.223  0.5028  4.1681  0.2700
 1213TIP3   OH2 3602   4.254   0.153   0.475  0.2316  0.0645  0.3529
 1213TIP3    H1 3603   4.324   0.117   0.530  0.3988  1.0962  0.8320
 1213TIP3    H2 3604   4.245   0.090   0.404  1.6395 -0.1000  0.2937
 1214TIP3   OH2 3605   5.109   2.630   5.820  0.3858 -0.0747 -0.2235
 1214TIP3    H1 3606   5.126   2.538   5.799 -0.4599  0.1070 -1.8737
 1214TIP3    H2 3607   5.187   2.676   5.789  0.5772 -0.1759  0.1069
 1215TIP3   OH2 3608   1.220   6.447   2.964 -0.3536  0.1843  0.2593
 1215TIP3    H1 3609   1.271   6.379   3.007 -2.3523 -0.4115  1.8495
 1215TIP3    H2 3610   1.129   6.421   2.977 -1.1125  1.6135 -1.7409
 1216TIP3   OH2 3611   6.214   2.672   0.108  0.2955  0.5036 -0.3216
 1216TIP3    H1 3612   6.236   2.613   0.036 -1.4284  0.3221 -0.7515
 1216TIP3    H2 3613   6.118   2.678   0.106  0.1803  0.4491  1.9974
 1217TIP3   OH2 3614   4.698   2.184   2.991  0.1173 -0.1055 -0.0580
 1217TIP3    H1 3615   4.736   2.208   2.907 -0.4022 -0.7834 -0.4970
 1217TIP3    H2 3616   4.686   2.267   3.037  2.3687  0.1250  0.2248
 1218TIP3   OH2 3617   6.333   4.848   5.420 -0.1212 -0.6862 -0.3817
 1218TIP3    H1 3618   6.368   4.905   5.488 -1.0552 -2.1002  1.3796
 1218TIP3    H2 3619   6.276   4.904   5.367 -0.0233  0.2729  0.5145
 1219TIP3   OH2 3620   7.126   3.391   1.946 -0.1189  0.3752  0.0952
 1219TIP3    H1 3621   7.187   3.319   1.931  0.1415  0.8940 -1.5569
 1219TIP3    H2 3622   7.039   3.351   1.938  0.0022  0.3826 -2.0511
 1220TIP3   OH2 3623   6.795   6.159   5.637 -0.2380  0.4768  0.4850
 1220TIP3    H1 3624   6.704   6.139   5.658 -0.5755  1.3401 -0.0957
 1220TIP3    H2 3625   6.843   6.081   5.664 -1.0072  0.3973  1.7302
 1221TIP3   OH2 3626   6.586   2.792   2.266 -0.2532  0.2704  0.3198
 1221TIP3    H1 3627   6.617   2.880   2.290  0.6294 -0.6210  2.6913
 1221TIP3    H2 3628   6.653   2.758   2.207  0.5820  0.3367  1.2169
 1222TIP3   OH2 3629   2.697   3.756   1.749  0.1994  0.7698 -0.1399
 1222TIP3    H1 3630   2.732   3.698   1.681 -0.9854 -0.2337  0.0764
 1222TIP3    H2 3631   2.692   3.842   1.707  2.4880  0.8777 -0.2986
 1223TIP3   OH2 3632   6.905   4.291   2.449 -0.0989  0.4143  0.1981
 1223TIP3    H1 3633   6.888   4.332   2.365 -1.8858 -1.3143 -0.3543
 1223TIP3    H2 3634   6.892   4.197   2.434 -0.6753  0.0679  2.4327
 1224TIP3   OH2 3635   4.363   2.862   1.281  0.2493 -0.3297 -0.0553
 1224TIP3    H1 3636   4.412   2.890   1.359 -1.3683  4.6074 -0.4662
 1224TIP3    H2 3637   4.280   2.830   1.315 -0.6762  2.3257  0.4151
 1225TIP3   OH2 3638   3.367   5.485   5.312 -0.5339 -0.0546 -0.3273
 1225TIP3    H1 3639   3.345   5.456   5.401  3.7137  0.3062  1.0488
 1225TIP3    H2 3640   3.333   5.416   5.255 -0.9639 -1.7035  1.8047
 1226TIP3   OH2 3641   4.057   4.627   2.511  0.4365 -0.5293  0.0192
 1226TIP3    H1 3642   3.976   4.601   2.553  0.6769 -0.1126  0.7628
 1226TIP3    H2 3643   4.093   4.546   2.474  0.5779 -1.0477  1.2395
 1227TIP3   OH2 3644   6.816   4.903   1.557  0.2163 -0.6960  0.2290
 1227TIP3    H1 3645   6.820   4.945   1.643  0.0876  0.0565 -0.1287
 1227TIP3    H2 3646   6.764   4.962   1.503 -0.0138 -1.3381 -0.2747
 1228TIP3   OH2 3647   6.349   3.936   2.291 -0.1963 -0.4380  0.0959
 1228TIP3    H1 3648   6.441   3.960   2.292 -0.6354  1.6886 -1.8971
 1228TIP3    H2 3649   6.302   4.017   2.308 -1.7277 -1.2843  0.1262
 1229TIP3   OH2 3650   4.668   0.487   0.513  0.2497 -0.1831 -0.4483
 1229TIP3    H1 3651   4.693   0.435   0.588  0.7334  1.0476  0.2774
 1229TIP3    H2 3652   4.691   0.433   0.437  2.7205 -0.1959  0.2296
 1230TIP3   OH2 3653   0.287   4.770   0.905 -0.1343 -0.2211  0.0915
 1230TIP3    H1 3654   0.333   4.817   0.975 -1.3144  0.8793  0.1591
 1230TIP3    H2 3655   0.298   4.678   0.927  1.3626  0.0266  0.5240
 1231TIP3   OH2 3656   0.854   0.465   3.341  0.4587  0.1067 -0.3864
 1231TIP3    H1 3657   0.840   0.420   3.257  0.8733  0.1676 -0.4922
 1231TIP3    H2 3658   0.946   0.493   3.338  0.5452 -0.1136  0.2011
 1232TIP3   OH2 3659   0.075   1.060   5.369  0.2127 -0.2625  0.5737
 1232TIP3    H1 3660   0.094   0.973   5.335  2.6437  1.2142 -2.4058
 1232TIP3    H2 3661  -0.006   1.086   5.326 -0.1807 -0.8096  0.9833
 1233TIP3   OH2 3662   1.577   2.133   0.870 -0.6068 -0.2857  0.5984
 1233TIP3    H1 3663   1.569   2.177   0.955  0.8979 -0.5857  0.9258
 1233TIP3    H2 3664   1.578   2.040   0.892 -2.0398 -0.4563  0.0605
 1234TIP3   OH2 3665   2.891   2.352   1.468 -0.2488 -0.9225  0.1623
 1234TIP3    H1 3666   2.961   2.299   1.506  0.8423  0.9225  0.8350
 1234TIP3    H2 3667   2.860   2.406   1.540 -1.1851 -0.4947 -0.5422
 1235TIP3   OH2 3668   4.053   3.221   1.887 -0.4522  1.0029 -0.1369
 1235TIP3    H1 3669   4.066   3.295   1.828 -0.9193  0.3232 -1.1216
 1235TIP3    H2 3670   4.114   3.236   1.959  0.2386  1.7695 -0.8692
 1236TIP3   OH2 3671   3.780   0.677   3.101 -0.6154 -0.3198  0.5316
 1236TIP3    H1 3672   3.856   0.723   3.137 -0.4048  0.1930 -0.5325
 1236TIP3    H2 3673   3.766   0.717   3.015 -0.4750 -2.1750 -0.3950
 1237TIP3   OH2 3674   5.549   3.224   4.948 -0.2719  0.4126 -0.5211
 1237TIP3    H1 3675   5.548   3.286   4.875  3.7056  1.6176  0.1799
 1237TIP3    H2 3676   5.521   3.275   5.024 -2.4521 -0.3005 -0.7789
 1238TIP3   OH2 3677   6.452   5.174   2.634  0.4928  0.2783  0.5872
 1238TIP3    H1 3678   6.399   5.246   2.600  2.0180  2.1278  1.9009
 1238TIP3    H2 3679   6.470   5.198   2.725 -0.4504 -2.7151  1.6900
 1239TIP3   OH2 3680   3.197   3.082   4.493 -0.1535  0.0593 -0.0137
 1239TIP3    H1 3681   3.225   3.002   4.446 -1.2668  0.0312 -0.6593
 1239TIP3    H2 3682   3.251   3.083   4.572  0.4471 -0.9056 -0.3881
 1240TIP3   OH2 3683   6.175   6.320   2.384  0.4453  0.0518 -0.0558
 1240TIP3    H1 3684   6.107   6.273   2.431  0.6053  0.6506  0.8140
 1240TIP3    H2 3685   6.131   6.353   2.306 -0.7953  1.9232  1.3263
 1241TIP3   OH2 3686   2.384   3.916   0.517 -0.3856 -0.4970 -0.1875
 1241TIP3    H1 3687   2.386   4.011   0.502 -0.5094 -0.6226 -1.0177
 1241TIP3    H2 3688   2.316   3.884   0.459  0.7749 -1.3108 -1.1445
 1242TIP3   OH2 3689   5.452   5.587   2.813  0.0679  0.0506  0.3930
 1242TIP3    H1 3690   5.509   5.605   2.738 -0.4820 -0.0904 -0.0659
 1242TIP3    H2 3691   5.508   5.538   2.873  0.9206  1.3122  0.6842
 1243TIP3   OH2 3692   6.291   5.367   4.086 -0.0908 -0.4558 -0.3078
 1243TIP3    H1 3693   6.365   5.336   4.034 -1.1208 -1.0939 -1.4506
 1243TIP3    H2 3694   6.256   5.289   4.128 -0.1381 -0.1594  0.2193
 1244TIP3   OH2 3695   6.026   0.957   0.521 -0.2336  0.3075  0.0455
 1244TIP3    H1 3696   5.951   1.011   0.550 -0.3390 -0.4383  1.2045
 1244TIP3    H2 3697   6.087   1.021   0.484 -0.9707  1.0635  0.0793
 1245TIP3   OH2 3698   5.260   6.426   3.424 -0.8735  0.1447 -0.4749
 1245TIP3    H1 3699   5.273   6.333   3.409 -1.4868  0.2731 -1.9606
 1245TIP3    H2 3700   5.349   6.460   3.437 -0.6185 -0.5958 -0.2354
 1246TIP3   OH2 3701   1.255   6.040   2.719 -0.5038  0.1830 -0.0644
 1246TIP3    H1 3702   1.344   6.075   2.721 -0.1679 -0.6952  1.0600
 1246TIP3    H2 3703   1.201   6.110   2.757 -0.0316  0.0549  0.8837
 1247TIP3   OH2 3704   2.558   5.216   1.842  0.3318 -0.1146 -0.7554
 1247TIP3    H1 3705   2.571   5.164   1.763 -0.6395  2.3792 -2.6501
 1247TIP3    H2 3706   2.637   5.269   1.850 -0.2878  0.8832 -1.0787
 1248TIP3   OH2 3707   0.942   3.396   2.986  0.7569 -0.2245 -0.2684
 1248TIP3    H1 3708   0.854   3.432   2.988  0.2949 -1.3352  1.0445
 1248TIP3    H2 3709   0.982   3.434   2.908 -0.6814  0.7410 -0.5706
 1249TIP3   OH2 3710   1.548   0.794   1.919  0.0857 -0.5320  0.1927
 1249TIP3    H1 3711   1.627   0.803   1.865 -0.8611 -1.9969 -1.5839
 1249TIP3    H2 3712   1.494   0.869   1.895  1.3656  1.1631  2.3287
 1250TIP3   OH2 3713   0.429   3.399   2.727  0.1056  0.3533  0.2405
 1250TIP3    H1 3714   0.370   3.453   2.779 -1.4836 -0.2661 -0.8524
 1250TIP3    H2 3715   0.372   3.341   2.678  1.7370 -2.2754  1.2571
 1251TIP3   OH2 3716   7.182   4.298   2.517  0.6154 -0.2663 -0.4871
 1251TIP3    H1 3717   7.090   4.298   2.492  0.3470 -2.7054  0.2696
 1251TIP3    H2 3718   7.185   4.342   2.601  0.4684  1.5179 -1.3742
 1252TIP3   OH2 3719   6.565   5.421   1.624  0.3901  0.1628  0.2394
 1252TIP3    H1 3720   6.649   5.374   1.626  0.7569  0.8239  1.1294
 1252TIP3    H2 3721   6.584   5.505   1.665 -0.5965  0.5277 -0.0381
 1253TIP3   OH2 3722   0.395   4.119   3.383  0.1666  0.5284 -0.2187
 1253TIP3    H1 3723   0.331   4.047   3.381  2.0065 -1.1888 -1.5820
 1253TIP3    H2 3724   0.457   4.093   3.451  0.0443  1.6468  0.3457
 1254TIP3   OH2 3725   6.883   4.202   5.823 -0.7432 -0.0511  0.1946
 1254TIP3    H1 3726   6.867   4.231   5.732 -2.0439 -1.2439  0.0037
 1254TIP3    H2 3727   6.947   4.264   5.857  1.7316 -1.0372 -2.3275
 1255TIP3   OH2 3728   3.709   6.427   3.948 -0.1327  0.2304  0.6064
 1255TIP3    H1 3729   3.698   6.332   3.944 -1.1442  0.3570  0.1531
 1255TIP3    H2 3730   3.741   6.443   4.037  2.8149 -0.7612 -0.1594
 1256TIP3   OH2 3731   5.274   0.905   3.461 -0.8144 -0.1378 -0.6077
 1256TIP3    H1 3732   5.235   0.985   3.495  0.5317 -0.1669  1.1251
 1256TIP3    H2 3733   5.366   0.926   3.445 -0.8259 -0.8709 -1.8374
 1257TIP3   OH2 3734   4.926   4.713   1.330  0.2822  0.1683 -0.0726
 1257TIP3    H1 3735   4.961   4.641   1.278  2.1489  0.0097  1.2910
 1257TIP3    H2 3736   4.952   4.792   1.281 -2.3712  0.0184 -1.9366
 1258TIP3   OH2 3737   4.520   0.992   4.385 -0.1088 -0.3261 -0.3222
 1258TIP3    H1 3738   4.610   1.014   4.407 -0.3132  0.7241 -0.5053
 1258TIP3    H2 3739   4.526   0.946   4.301  0.1214  1.4436 -1.3335
 1259TIP3   OH2 3740   6.932   5.975   4.924 -0.3801  0.7040 -0.1334
 1259TIP3    H1 3741   6.990   5.912   4.880 -1.2226 -0.2066  0.0175
 1259TIP3    H2 3742   6.856   5.923   4.949 -0.9002  1.7049  0.4037
 1260TIP3   OH2 3743   4.533   1.495   4.881  0.2931 -0.1939  0.0725
 1260TIP3    H1 3744   4.492   1.418   4.842 -1.1693  0.1554  0.8386
 1260TIP3    H2 3745   4.603   1.460   4.936  0.6253 -0.8567 -0.7489
 1261TIP3   OH2 3746   4.695   5.153   5.634 -0.5559  0.0080 -0.1130
 1261TIP3    H1 3747   4.700   5.243   5.603  2.0332 -0.5372 -1.5761
 1261TIP3    H2 3748   4.687   5.100   5.555 -2.9445 -1.0853  0.7671
 1262TIP3   OH2 3749   4.781   3.757   1.328 -0.1130 -0.0618 -0.0344
 1262TIP3    H1 3750   4.687   3.768   1.338  0.0978  1.7828  0.2586
 1262TIP3    H2 3751   4.819   3.831   1.375  1.5676 -1.7142  1.3798
 1263TIP3   OH2 3752   5.702   6.518   5.667  0.3406 -0.1691  0.4511
 1263TIP3    H1 3753   5.679   6.563   5.586 -0.2021  2.0763  1.7856
 1263TIP3    H2 3754   5.642   6.443   5.671 -1.2559  1.0419 -0.0788
 1264TIP3   OH2 3755   6.962   6.714   4.925  0.0398  0.2965 -0.1506
 1264TIP3    H1 3756   6.968   6.732   4.831  0.7760 -0.3632 -0.2419
 1264TIP3    H2 3757   6.974   6.619   4.932 -0.3704  0.2937  0.5799
 1265TIP3   OH2 3758   4.909   6.457   0.831  0.6775 -0.1079  0.8520
 1265TIP3    H1 3759   4.851   6.522   0.790 -2.6955 -2.5968  1.2351
 1265TIP3    H2 3760   4.967   6.429   0.761  0.0079  0.9731 -0.1765
 1266TIP3   OH2 3761   1.178   2.687   5.037 -0.2424  0.4141  0.1900
 1266TIP3    H1 3762   1.120   2.645   5.100 -0.4159  0.4091  0.0268
 1266TIP3    H2 3763   1.156   2.646   4.953 -0.3684  0.7831  0.0407
 1267TIP3   OH2 3764   3.541   3.209   4.876 -0.3111  0.6001  0.5532
 1267TIP3    H1 3765   3.583   3.127   4.903 -2.2526 -0.4916  0.4990
 1267TIP3    H2 3766   3.612   3.273   4.874  1.3178 -1.1116  0.4063
 1268TIP3   OH2 3767   1.583   1.693   5.548  0.0676  0.0926  0.1342
 1268TIP3    H1 3768   1.674   1.689   5.579  0.3900  0.9158 -0.6552
 1268TIP3    H2 3769   1.572   1.613   5.498 -0.2102 -0.8624  1.6577
 1269TIP3   OH2 3770   3.328   3.854   5.051  0.1247  0.2447  0.1850
 1269TIP3    H1 3771   3.297   3.906   4.977 -0.4454 -0.7263 -0.2856
 1269TIP3    H2 3772   3.279   3.772   5.045  2.3304 -1.1384 -0.2556
 1270TIP3   OH2 3773   5.555   5.978   2.467  0.4224  0.5544 -0.3253
 1270TIP3    H1 3774   5.543   6.023   2.384 -0.1572 -1.4354 -1.3910
 1270TIP3    H2 3775   5.619   5.910   2.448 -1.0181 -1.0764  0.3196
 1271TIP3   OH2 3776   1.737   3.600   3.650 -0.5817  0.2443 -0.4211
 1271TIP3    H1 3777   1.693   3.515   3.651  1.5654 -0.9589  1.2106
 1271TIP3    H2 3778   1.803   3.591   3.581  2.1249 -0.9298  2.1107
 1272TIP3   OH2 3779   6.471   5.697   3.601 -0.1274  0.2233  0.3118
 1272TIP3    H1 3780   6.519   5.762   3.548  1.4643 -0.6907  0.5620
 1272TIP3    H2 3781   6.482   5.615   3.554 -1.1875 -0.0829  0.5744
 1273TIP3   OH2 3782   1.703   6.017   3.709  0.1492  0.1127 -0.1019
 1273TIP3    H1 3783   1.688   6.032   3.616  0.2948 -0.3325 -0.2006
 1273TIP3    H2 3784   1.713   6.104   3.747 -1.2816  0.3722 -0.2695
 1274TIP3   OH2 3785   0.123   4.018   4.042  0.2376 -0.0076  0.2738
 1274TIP3    H1 3786   0.099   3.927   4.026  3.4770 -0.8701 -0.3463
 1274TIP3    H2 3787   0.122   4.058   3.955  1.4961 -0.2352  0.1336
 1275TIP3   OH2 3788   2.431   1.259   0.365 -0.3512 -0.3457  0.4384
 1275TIP3    H1 3789   2.504   1.316   0.386  0.8773 -1.7229  0.0654
 1275TIP3    H2 3790   2.405   1.221   0.449 -1.1728  0.6939  0.6882
 1276TIP3   OH2 3791   2.296   4.751   0.935 -0.5618 -0.0486  0.1977
 1276TIP3    H1 3792   2.381   4.757   0.978 -0.6521  0.3273  0.3320
 1276TIP3    H2 3793   2.304   4.676   0.876  0.3406  0.8194 -0.8296
 1277TIP3   OH2 3794   2.735   5.416   2.829 -0.1047  0.4959 -0.3220
 1277TIP3    H1 3795   2.688   5.421   2.746 -0.7567  1.2561  0.0828
 1277TIP3    H2 3796   2.671   5.382   2.891  0.6129 -0.8746 -0.2814
 1278TIP3   OH2 3797   5.046   1.192   2.673  0.4219 -0.0717 -0.3626
 1278TIP3    H1 3798   5.114   1.254   2.645  0.1410  0.7387  0.6622
 1278TIP3    H2 3799   4.993   1.242   2.736  0.0841 -1.3104  0.3649
 1279TIP3   OH2 3800   4.381   1.854   5.635  0.0222  0.2078  0.1953
 1279TIP3    H1 3801   4.328   1.793   5.583 -0.0859  1.1969 -0.8930
 1279TIP3    H2 3802   4.421   1.799   5.701 -2.3063 -0.6111  1.0471
 1280TIP3   OH2 3803   2.291   5.436   5.804 -0.4843 -0.1333  0.4591
 1280TIP3    H1 3804   2.286   5.352   5.851  0.0119 -0.0088  0.7436
 1280TIP3    H2 3805   2.361   5.484   5.848 -0.3377  0.1819 -0.1035
 1281TIP3   OH2 3806   0.715   1.539   3.954 -0.7493 -0.8364 -0.4638
 1281TIP3    H1 3807   0.654   1.466   3.940  0.1781 -1.4811 -1.3433
 1281TIP3    H2 3808   0.684   1.582   4.033 -2.4345 -1.0436 -0.9728
 1282TIP3   OH2 3809   2.192   5.484   2.176  0.5637 -0.7215  0.5992
 1282TIP3    H1 3810   2.122   5.528   2.225 -1.4946 -1.4321 -1.4811
 1282TIP3    H2 3811   2.183   5.391   2.199 -0.1760 -1.0103 -0.7298
 1283TIP3   OH2 3812   4.949   0.703   3.857 -0.3306  0.5365 -0.4187
 1283TIP3    H1 3813   4.873   0.659   3.818 -0.2737 -1.3240  1.3555
 1283TIP3    H2 3814   4.989   0.751   3.785 -1.8436 -0.3585 -1.9359
 1284TIP3   OH2 3815   6.515   0.340   1.755  0.1647  0.1539 -0.8176
 1284TIP3    H1 3816   6.609   0.357   1.766 -0.1616  0.5255  2.5247
 1284TIP3    H2 3817   6.478   0.424   1.730  0.4735  0.5460  0.0137
 1285TIP3   OH2 3818   0.889   4.783   5.240 -0.1461 -0.8798  0.0289
 1285TIP3    H1 3819   0.975   4.808   5.208  0.3311 -2.5889 -0.1231
 1285TIP3    H2 3820   0.852   4.729   5.170 -0.7865 -1.2410  0.6251
 1286TIP3   OH2 3821   1.550   6.271   4.732 -0.0860  0.7483 -0.2899
 1286TIP3    H1 3822   1.549   6.176   4.717  0.5880  0.4727  1.2512
 1286TIP3    H2 3823   1.541   6.309   4.644 -3.1782 -0.6967 -0.7346
 1287TIP3   OH2 3824   2.508   5.526   4.901  0.0958 -0.3882 -0.4856
 1287TIP3    H1 3825   2.580   5.467   4.876  0.0066 -1.2897  1.1782
 1287TIP3    H2 3826   2.461   5.478   4.970 -0.4271  1.3273  0.4173
 1288TIP3   OH2 3827   3.582   6.591   1.893  0.2616  0.6697 -0.4220
 1288TIP3    H1 3828   3.589   6.579   1.988  0.1264 -1.6228 -0.6351
 1288TIP3    H2 3829   3.666   6.562   1.859  0.5433  2.0900 -0.9876
 1289TIP3   OH2 3830   4.427   0.419   4.443  0.2744 -0.2309 -0.2311
 1289TIP3    H1 3831   4.500   0.479   4.434  0.5896 -0.3652  1.1395
 1289TIP3    H2 3832   4.353   0.464   4.402  0.5904  0.9264  0.4367
 1290TIP3   OH2 3833   2.680   5.534   2.247  0.5662 -0.2248 -0.5673
 1290TIP3    H1 3834   2.714   5.619   2.277  1.0160  0.4975 -2.9311
 1290TIP3    H2 3835   2.591   5.530   2.284  1.0028  0.6628  0.6533
 1291TIP3   OH2 3836   4.136   0.256   4.856 -0.4649  0.3037  0.6430
 1291TIP3    H1 3837   4.057   0.295   4.819 -0.6083 -0.9691 -0.4677
 1291TIP3    H2 3838   4.202   0.264   4.787  0.2300  0.8688  1.3579
 1292TIP3   OH2 3839   2.383   2.713   3.170 -1.1397 -0.0395 -0.0897
 1292TIP3    H1 3840   2.423   2.628   3.194 -0.6395  0.1765 -0.1430
 1292TIP3    H2 3841   2.422   2.734   3.086 -3.1403 -0.9518 -1.3190
 1293TIP3   OH2 3842   7.153   2.053   5.265 -0.4988 -0.1043 -0.5361
 1293TIP3    H1 3843   7.151   1.958   5.258 -1.4053 -0.0132 -1.8585
 1293TIP3    H2 3844   7.140   2.085   5.176 -0.9011  1.2668 -0.0232
 1294TIP3   OH2 3845   2.770   6.212   2.694 -0.4302  0.4602 -0.6063
 1294TIP3    H1 3846   2.697   6.194   2.635 -0.5600  0.4107 -0.4300
 1294TIP3    H2 3847   2.738   6.186   2.780  0.5838 -1.8234 -0.8243
 1295TIP3   OH2 3848   1.843   1.861   4.109 -0.0111 -0.2979 -0.1859
 1295TIP3    H1 3849   1.807   1.853   4.020 -2.9727  0.9733  0.7737
 1295TIP3    H2 3850   1.925   1.909   4.097  0.0257 -0.7522 -2.2789
 1296TIP3   OH2 3851   0.800   5.123   1.816  0.4306  0.6501 -0.4537
 1296TIP3    H1 3852   0.887   5.124   1.775  0.9016  2.1194  0.5025
 1296TIP3    H2 3853   0.742   5.094   1.746  1.7055 -0.7232 -1.0215
 1297TIP3   OH2 3854   3.811   0.634   0.127  0.2026 -0.5305  0.1388
 1297TIP3    H1 3855   3.811   0.559   0.187 -2.5316  1.3246  2.7666
 1297TIP3    H2 3856   3.727   0.629   0.082 -0.0908  0.9490  0.4669
 1298TIP3   OH2 3857   4.406   4.481   4.454  0.2124  0.3255  0.2204
 1298TIP3    H1 3858   4.440   4.553   4.508  1.7495  1.1807 -1.7854
 1298TIP3    H2 3859   4.476   4.462   4.392 -2.6082  1.7906 -3.8389
 1299TIP3   OH2 3860   3.140   0.844   0.765 -0.3158 -1.0136  0.3307
 1299TIP3    H1 3861   3.104   0.846   0.854 -1.1901  0.0264 -0.0286
 1299TIP3    H2 3862   3.140   0.936   0.737  0.0299 -1.3211 -0.7166
 1300TIP3   OH2 3863   2.389   5.622   2.823  0.4834 -0.1604  0.2464
 1300TIP3    H1 3864   2.454   5.567   2.779  1.1924 -1.7549  3.0392
 1300TIP3    H2 3865   2.399   5.708   2.781  1.8393 -1.2405 -1.8549
 1301TIP3   OH2 3866   1.661   2.372   5.507  0.4642  0.1004 -0.2822
 1301TIP3    H1 3867   1.650   2.328   5.423  1.6736 -2.9177  0.9736
 1301TIP3    H2 3868   1.615   2.315   5.569  0.2651  1.8232  1.2384
 1302TIP3   OH2 3869   0.326   2.218   0.632  0.2941  0.4432  0.2208
 1302TIP3    H1 3870   0.415   2.202   0.662  0.0276 -2.3236 -0.2413
 1302TIP3    H2 3871   0.316   2.164   0.554 -1.2325  2.1338 -0.8630
 1303TIP3   OH2 3872   0.738   4.615   5.604  0.1831 -0.2466  0.3212
 1303TIP3    H1 3873   0.818   4.563   5.608  1.9121  1.9453 -2.3595
 1303TIP3    H2 3874   0.668   4.551   5.592  2.1044 -2.1167 -1.9256
 1304TIP3   OH2 3875   4.406   5.269   1.523 -0.7614  0.5716  0.4365
 1304TIP3    H1 3876   4.436   5.179   1.506 -0.5384  0.8412 -0.6943
 1304TIP3    H2 3877   4.325   5.258   1.572 -1.2414 -0.2925 -0.4987
 1305TIP3   OH2 3878   7.061   6.707   1.112 -0.2215 -0.3827  0.4406
 1305TIP3    H1 3879   7.067   6.795   1.151  2.2858 -0.5249  0.5374
 1305TIP3    H2 3880   7.105   6.650   1.175  1.4461 -1.0775 -1.2957
 1306TIP3   OH2 3881   0.851   4.008   4.143 -0.8266  0.6527 -0.2876
 1306TIP3    H1 3882   0.785   4.014   4.074 -1.5662 -2.7570 -0.0844
 1306TIP3    H2 3883   0.816   3.944   4.204  2.4763 -1.1525 -0.0138
 1307TIP3   OH2 3884   0.962   3.161   2.573  0.1069  0.3629 -0.1150
 1307TIP3    H1 3885   0.901   3.231   2.597  0.7054  0.9761 -0.3480
 1307TIP3    H2 3886   0.971   3.108   2.653 -1.6353 -0.4491 -0.4065
 1308TIP3   OH2 3887   4.504   3.173   0.485 -0.0993 -0.5490 -0.1643
 1308TIP3    H1 3888   4.510   3.252   0.431  0.1121 -1.0387 -0.8742
 1308TIP3    H2 3889   4.594   3.159   0.517 -0.4873  0.5477  1.5239
 1309TIP3   OH2 3890   1.898   0.831   5.468 -0.2688  0.1522  0.2295
 1309TIP3    H1 3891   1.856   0.916   5.458  3.4645  2.5202  2.2009
 1309TIP3    H2 3892   1.884   0.808   5.560 -1.9464 -1.9384 -0.4597
 1310TIP3   OH2 3893   5.859   6.456   4.244 -0.6990 -0.0218 -0.1212
 1310TIP3    H1 3894   5.846   6.417   4.331 -0.7422  1.9685  0.8221
 1310TIP3    H2 3895   5.770   6.466   4.209 -0.6478 -1.4028 -0.6947
 1311TIP3   OH2 3896   5.610   4.529   3.459  0.5213  0.5916  0.2160
 1311TIP3    H1 3897   5.567   4.612   3.478 -1.0581 -0.1774  0.1828
 1311TIP3    H2 3898   5.574   4.502   3.375 -0.9953 -1.3010  1.3606
 1312TIP3   OH2 3899   0.559   1.805   2.663 -0.8165  0.4172 -0.3984
 1312TIP3    H1 3900   0.581   1.713   2.654 -2.9116 -0.0520 -1.5021
 1312TIP3    H2 3901   0.545   1.818   2.757  0.3315 -0.1538 -0.1439
 1313TIP3   OH2 3902   4.762   4.023   0.461  0.3858  0.1499 -0.3721
 1313TIP3    H1 3903   4.799   4.100   0.416  2.1422 -1.1986 -1.3496
 1313TIP3    H2 3904   4.694   3.991   0.401 -0.0029  0.6298 -0.1958
 1314TIP3   OH2 3905   5.157   2.607   1.498 -0.3045  0.3107 -0.5503
 1314TIP3    H1 3906   5.253   2.599   1.492 -0.2161  0.8470  0.0443
 1314TIP3    H2 3907   5.131   2.645   1.414 -0.1108 -0.7381 -1.1023
 1315TIP3   OH2 3908   3.927   5.162   0.268  0.5248 -0.6469 -0.1821
 1315TIP3    H1 3909   4.001   5.105   0.292  0.5103 -0.8423 -0.5885
 1315TIP3    H2 3910   3.900   5.131   0.181 -1.1236 -1.6890  0.6590
 1316TIP3   OH2 3911   3.378   1.990   1.802 -0.3344 -0.0610 -0.2777
 1316TIP3    H1 3912   3.373   2.012   1.709 -0.9069  0.1896 -0.1977
 1316TIP3    H2 3913   3.377   1.894   1.804 -0.2543 -0.0686 -0.5332
 1317TIP3   OH2 3914   6.124   2.856   2.130  0.0118  0.6484 -0.0387
 1317TIP3    H1 3915   6.109   2.776   2.081  0.2911  1.2866 -1.1947
 1317TIP3    H2 3916   6.160   2.826   2.214 -0.4316 -0.4510 -0.2235
 1318TIP3   OH2 3917   4.165   3.696   5.681  0.4526  0.5603  0.0127
 1318TIP3    H1 3918   4.094   3.760   5.695 -0.8141 -0.4176 -1.5756
 1318TIP3    H2 3919   4.164   3.642   5.759 -0.3208  0.7873  0.1721
 1319TIP3   OH2 3920   6.082   0.755   5.826 -0.1943  0.2454  0.4093
 1319TIP3    H1 3921   6.040   0.839   5.807  1.0285  0.9823  0.8472
 1319TIP3    H2 3922   6.059   0.699   5.751 -1.1170  0.9157  0.1696
 1320TIP3   OH2 3923   4.116   4.020   2.187 -0.4948  0.3699 -0.5302
 1320TIP3    H1 3924   4.060   3.947   2.161 -0.2747  0.6776 -1.9534
 1320TIP3    H2 3925   4.134   4.066   2.106 -0.6961  2.0704  0.3522
 1321TIP3   OH2 3926   0.479   6.416   2.545  0.6485  0.6949  0.2209
 1321TIP3    H1 3927   0.478   6.478   2.618  0.7753  1.0831 -0.1045
 1321TIP3    H2 3928   0.389   6.412   2.514  0.5967  0.5374  0.3920
 1322TIP3   OH2 3929   4.416   4.084   5.531  0.3092 -0.0704  0.3434
 1322TIP3    H1 3930   4.425   4.027   5.608 -0.0553  1.5651  1.6688
 1322TIP3    H2 3931   4.331   4.061   5.493  0.6297 -1.1087  0.2347
 1323TIP3   OH2 3932   1.572   0.706   2.272 -0.3622  0.4115  0.4688
 1323TIP3    H1 3933   1.569   0.675   2.181  0.6292  0.7041  0.3322
 1323TIP3    H2 3934   1.642   0.656   2.313  0.6674  1.7838  0.4829
 1324TIP3   OH2 3935   1.831   5.563   5.086  0.2978 -0.2570 -0.2069
 1324TIP3    H1 3936   1.889   5.488   5.095 -1.0270 -1.4691 -1.4497
 1324TIP3    H2 3937   1.888   5.633   5.054  1.1816 -1.2864 -0.9595
 1325TIP3   OH2 3938   5.683   6.775   3.977  0.2295  0.4248  0.1633
 1325TIP3    H1 3939   5.736   6.841   4.021  1.4191  0.1079 -0.7535
 1325TIP3    H2 3940   5.739   6.698   3.972 -0.4185 -0.0189 -0.5647
 1326TIP3   OH2 3941   6.568   2.082   0.782 -0.5214 -0.2148  0.5023
 1326TIP3    H1 3942   6.595   2.004   0.733 -0.3494 -0.6365  1.2437
 1326TIP3    H2 3943   6.534   2.047   0.865  1.5338  0.5652  1.7571
 1327TIP3   OH2 3944   7.189   0.322   5.275  0.1238 -0.4770 -0.7276
 1327TIP3    H1 3945   7.116   0.292   5.222 -0.9514  0.2227  0.2916
 1327TIP3    H2 3946   7.189   0.418   5.265  1.4224 -0.5172 -1.3426
 1328TIP3   OH2 3947   6.555   1.703   1.373  0.3620 -0.0517  0.1230
 1328TIP3    H1 3948   6.512   1.618   1.376 -0.4489  0.3231 -0.7224
 1328TIP3    H2 3949   6.585   1.712   1.283 -1.4254  1.4512 -0.3664
 1329TIP3   OH2 3950   5.217   3.280   0.727 -0.4397  0.1068 -0.5593
 1329TIP3    H1 3951   5.266   3.361   0.713  1.3624 -1.0514 -1.3268
 1329TIP3    H2 3952   5.196   3.281   0.821 -0.9555  1.6900 -0.6519
 1330TIP3   OH2 3953   5.319   0.205   0.351 -0.3998 -0.2265  0.1024
 1330TIP3    H1 3954   5.338   0.284   0.401  0.3267 -0.9429  0.9852
 1330TIP3    H2 3955   5.231   0.179   0.380 -0.0365 -0.5649  0.9246
 1331TIP3   OH2 3956   0.019   4.037   2.970 -0.0154 -0.3865 -0.4436
 1331TIP3    H1 3957  -0.068   4.002   2.988  0.1508 -0.2054  0.8341
 1331TIP3    H2 3958   0.069   3.963   2.936 -0.4905 -0.6463 -0.5830
 1332TIP3   OH2 3959   4.483   4.202   3.357  0.2532 -0.3663  0.1685
 1332TIP3    H1 3960   4.388   4.214   3.351  0.2470  0.2832  1.3010
 1332TIP3    H2 3961   4.506   4.234   3.445  1.4745 -0.8104  0.0290
 1333TIP3   OH2 3962   0.146   1.644   4.866 -0.1526  0.2687  0.1672
 1333TIP3    H1 3963   0.153   1.734   4.899  0.0755  0.0929  0.6095
 1333TIP3    H2 3964   0.226   1.632   4.815 -0.2168  0.3376  0.0485
 1334TIP3   OH2 3965   5.626   4.572   0.194  0.1587 -0.3676 -0.2963
 1334TIP3    H1 3966   5.702   4.532   0.237 -0.5198  0.7798  2.1884
 1334TIP3    H2 3967   5.664   4.635   0.132  1.2654 -0.1517  0.5593
 1335TIP3   OH2 3968   2.035   0.059   5.509 -0.0725  0.5146  0.3589
 1335TIP3    H1 3969   2.061  -0.011   5.569  0.4319  1.2085  0.9680
 1335TIP3    H2 3970   2.034   0.017   5.422 -0.0674 -0.3133  0.7486
 1336TIP3   OH2 3971   3.930   0.895   1.760  0.2820 -0.2193  0.1329
 1336TIP3    H1 3972   3.962   0.855   1.680  0.2002 -0.3850  0.1819
 1336TIP3    H2 3973   4.005   0.895   1.819  0.4385  0.2339 -0.0692
 1337TIP3   OH2 3974   3.738   2.077   3.996 -0.4659  0.2355 -0.0553
 1337TIP3    H1 3975   3.728   2.018   4.071  0.7260  0.4043  0.2702
 1337TIP3    H2 3976   3.814   2.131   4.019 -0.5198  0.7716 -1.0804
 1338TIP3   OH2 3977   4.222   5.172   1.030  0.1556  0.7550 -0.0630
 1338TIP3    H1 3978   4.293   5.214   1.078 -0.1947  1.6326 -0.2821
 1338TIP3    H2 3979   4.255   5.085   1.008  0.9178  0.9273  0.3832
 1339TIP3   OH2 3980   4.974   4.506   0.556 -0.0219 -0.1927 -0.2430
 1339TIP3    H1 3981   4.900   4.561   0.530 -1.5672 -1.3640  1.3492
 1339TIP3    H2 3982   4.933   4.426   0.588  1.9468 -0.8151  0.8758
 1340TIP3   OH2 3983   6.969   0.341   0.387 -0.4573  0.5919 -0.3815
 1340TIP3    H1 3984   6.936   0.256   0.415 -0.1548  0.2443 -1.0718
 1340TIP3    H2 3985   6.961   0.340   0.292  0.1610  1.0816 -0.4460
 1341TIP3   OH2 3986   0.091   2.175   1.989 -0.1138  0.6238 -0.3559
 1341TIP3    H1 3987   0.185   2.158   1.999 -0.2524  0.0439 -0.0073
 1341TIP3    H2 3988   0.049   2.115   2.050 -0.7060  1.0360 -0.3516
 1342TIP3   OH2 3989   2.766   2.799   2.044  0.1939 -0.1560 -0.2048
 1342TIP3    H1 3990   2.857   2.791   2.072  0.8353  1.4179 -1.6444
 1342TIP3    H2 3991   2.727   2.861   2.107  0.7329  0.8339 -0.8160
 1343TIP3   OH2 3992   1.527   5.226   2.910  0.3153 -0.7173  0.7966
 1343TIP3    H1 3993   1.525   5.149   2.967 -0.1862 -1.4361 -0.1595
 1343TIP3    H2 3994   1.620   5.235   2.886  0.6979  0.1697  2.4391
 1344TIP3   OH2 3995   0.319   6.589   5.711  0.1359  0.8747 -0.3763
 1344TIP3    H1 3996   0.371   6.653   5.662  1.5069  0.2081  0.1691
 1344TIP3    H2 3997   0.379   6.555   5.778 -0.8144 -0.3976 -0.1379
 1345TIP3   OH2 3998   5.700   0.800   2.248 -0.4235  0.0959  0.3906
 1345TIP3    H1 3999   5.762   0.775   2.180  0.6960 -0.8577  1.6974
 1345TIP3    H2 4000   5.722   0.891   2.269  0.9349 -0.3802  1.1914
 1346TIP3   OH2 4001   4.219   6.509   1.479  0.6137 -0.2118  0.1528
 1346TIP3    H1 4002   4.241   6.421   1.449 -1.5683  0.0033 -2.5657
 1346TIP3    H2 4003   4.178   6.496   1.564  0.9845 -1.7535  0.1277
 1347TIP3   OH2 4004   2.469   3.664   1.862  0.0784  0.4294  0.5110
 1347TIP3    H1 4005   2.548   3.688   1.813 -0.6136  0.0574 -0.8508
 1347TIP3    H2 4006   2.402   3.652   1.794 -1.1253  0.6376  1.6284
 1348TIP3   OH2 4007   5.780   0.208   4.519  0.1358 -0.5361  0.2611
 1348TIP3    H1 4008   5.809   0.153   4.592  0.6763 -0.7936 -0.1435
 1348TIP3    H2 4009   5.756   0.147   4.450  0.0216 -0.2831  0.0744
 1349TIP3   OH2 4010   6.173   2.834   3.565 -0.0397  0.7673 -0.0490
 1349TIP3    H1 4011   6.253   2.837   3.513 -1.3145  0.1774 -2.1932
 1349TIP3    H2 4012   6.163   2.922   3.600  1.1078  1.0692 -0.4566
 1350TIP3   OH2 4013   3.219   3.002   1.605 -0.2056  0.0469  0.0637
 1350TIP3    H1 4014   3.212   2.916   1.647  1.6961  0.2287  0.8410
 1350TIP3    H2 4015   3.203   3.065   1.676  0.7506  0.3418  0.0258
 1351TIP3   OH2 4016   6.501   0.227   1.111  0.5128  0.1356  0.3314
 1351TIP3    H1 4017   6.584   0.272   1.098  0.1898  0.3963 -1.0301
 1351TIP3    H2 4018   6.499   0.160   1.043  0.8106 -1.7155  2.0828
 1352TIP3   OH2 4019   2.599   5.611   0.764  0.3948 -0.1914 -0.0103
 1352TIP3    H1 4020   2.680   5.561   0.754 -0.2652 -1.4152  0.5152
 1352TIP3    H2 4021   2.627   5.694   0.803  1.5658  0.0683 -1.3073
 1353TIP3   OH2 4022   4.414   4.710   1.688  0.5140 -0.1115  0.3531
 1353TIP3    H1 4023   4.454   4.653   1.622 -0.0651  0.2169 -0.3002
 1353TIP3    H2 4024   4.487   4.736   1.745  1.1488  0.1129 -0.5376
 1354TIP3   OH2 4025   1.240   0.726   2.127 -0.3903  0.2331  0.2061
 1354TIP3    H1 4026   1.278   0.640   2.143 -0.1009  0.3069 -0.0661
 1354TIP3    H2 4027   1.217   0.725   2.034  2.7939  1.6305 -0.7591
 1355TIP3   OH2 4028   0.887   1.602   4.652 -0.1662 -0.0503 -0.2480
 1355TIP3    H1 4029   0.877   1.595   4.747 -1.9714 -1.7630 -0.4805
 1355TIP3    H2 4030   0.870   1.513   4.620  1.1665  0.3241 -2.1288
 1356TIP3   OH2 4031   1.967   6.283   5.749 -0.0804  0.0415  0.6742
 1356TIP3    H1 4032   2.036   6.350   5.748 -1.8260  1.9631 -1.3899
 1356TIP3    H2 4033   1.958   6.258   5.657 -2.2871  0.0016  0.8633
 1357TIP3   OH2 4034   6.033   0.673   5.507  0.2280 -0.2516 -0.3235
 1357TIP3    H1 4035   6.043   0.753   5.456  0.3178  0.2365  0.4359
 1357TIP3    H2 4036   5.939   0.657   5.510  0.2360 -0.3737 -0.7810
 1358TIP3   OH2 4037   3.325   4.270   5.527  0.1731  0.3407  0.1779
 1358TIP3    H1 4038   3.338   4.320   5.447  1.0329  0.3013  0.2855
 1358TIP3    H2 4039   3.238   4.231   5.517  0.4423 -0.0113 -0.9200
 1359TIP3   OH2 4040   5.712   3.036   2.022 -0.2871 -0.2557 -0.0546
 1359TIP3    H1 4041   5.628   2.991   2.038 -0.1013 -0.4076  0.4981
 1359TIP3    H2 4042   5.725   3.027   1.927 -2.0090  1.7331 -0.5638
 1360TIP3   OH2 4043   2.939   0.433   5.203  0.4867  0.0842 -0.1869
 1360TIP3    H1 4044   2.951   0.478   5.287  1.3043 -0.6821  0.1280
 1360TIP3    H2 4045   2.948   0.502   5.137 -2.6688  1.2038  0.3722
 1361TIP3   OH2 4046   2.909   2.081   5.300 -0.0149 -0.0445 -0.5780
 1361TIP3    H1 4047   2.866   2.018   5.244  0.8951 -0.2502 -1.0554
 1361TIP3    H2 4048   2.920   2.159   5.245  1.6339 -0.5323 -0.9756
 1362TIP3   OH2 4049   6.612   4.975   4.527 -0.4154 -0.0926 -0.6662
 1362TIP3    H1 4050   6.550   4.907   4.554 -0.2611  0.0651  0.1081
 1362TIP3    H2 4051   6.673   4.930   4.468 -1.2040 -0.2686 -1.3763
 1363TIP3   OH2 4052   0.290   2.801   2.155 -0.1953 -0.4209  0.1370
 1363TIP3    H1 4053   0.223   2.741   2.186  1.3914 -2.5078 -0.2172
 1363TIP3    H2 4054   0.335   2.830   2.234 -0.3425 -0.4943  0.2477
 1364TIP3   OH2 4055   0.915   6.455   0.445 -0.0780 -0.1907  0.2531
 1364TIP3    H1 4056   0.826   6.471   0.413 -0.5065 -1.6051  0.6164
 1364TIP3    H2 4057   0.953   6.394   0.381  0.5465  0.2247  0.2228
 1365TIP3   OH2 4058   6.621   0.889   3.786  1.0186  0.9835  0.5272
 1365TIP3    H1 4059   6.688   0.882   3.717  0.4810  0.0273  0.0792
 1365TIP3    H2 4060   6.610   0.800   3.818 -1.1543  0.8132 -0.5057
 1366TIP3   OH2 4061   4.295   5.092   0.695  0.1658  0.2110 -0.1874
 1366TIP3    H1 4062   4.360   5.088   0.765  0.7249 -1.3280 -0.7530
 1366TIP3    H2 4063   4.337   5.144   0.626 -0.2486  1.4302  0.4525
 1367TIP3   OH2 4064   5.231   2.653   2.970  0.1525 -0.1126  0.2257
 1367TIP3    H1 4065   5.313   2.667   3.017  1.8879  0.3637 -2.7038
 1367TIP3    H2 4066   5.249   2.579   2.912 -1.2883  0.3695 -0.8985
 1368TIP3   OH2 4067   0.661   5.715   0.242  0.1269 -0.2959 -0.6113
 1368TIP3    H1 4068   0.568   5.728   0.225  0.2183  0.2259 -0.7533
 1368TIP3    H2 4069   0.700   5.706   0.155  0.6285  2.5831 -0.7754
 1369TIP3   OH2 4070   6.905   3.664   4.152 -0.2135  0.0245 -0.5413
 1369TIP3    H1 4071   6.898   3.611   4.231  0.2164 -0.3596 -0.7540
 1369TIP3    H2 4072   6.891   3.754   4.182 -1.2347 -0.2297 -0.2270
 1370TIP3   OH2 4073   3.242   0.476   0.840  0.1642 -0.1099 -0.5511
 1370TIP3    H1 4074   3.188   0.534   0.894 -1.2121 -1.2293 -0.6444
 1370TIP3    H2 4075   3.329   0.515   0.841 -0.7130  1.9919 -0.6954
 1371TIP3   OH2 4076   5.306   3.137   1.114 -0.0052 -0.3169 -0.3997
 1371TIP3    H1 4077   5.368   3.178   1.055 -0.3314 -1.5059 -1.6164
 1371TIP3    H2 4078   5.242   3.206   1.134 -0.0397  0.0375 -1.6636
 1372TIP3   OH2 4079   5.964   1.029   5.631 -0.0345 -0.2804 -0.1325
 1372TIP3    H1 4080   5.920   1.055   5.712 -0.7054  0.1770 -0.6321
 1372TIP3    H2 4081   5.932   0.941   5.614  0.0968 -0.3719  0.0930
 1373TIP3   OH2 4082   0.639   0.379   5.457  0.0067 -0.1239 -0.3606
 1373TIP3    H1 4083   0.703   0.315   5.488  0.8479  0.1632 -1.4338
 1373TIP3    H2 4084   0.556   0.351   5.496  0.4843 -1.4535 -0.2492
 1374TIP3   OH2 4085   6.755   3.179   0.351 -0.0017 -0.1908  0.0430
 1374TIP3    H1 4086   6.750   3.137   0.437 -1.6735 -2.5698 -1.0901
 1374TIP3    H2 4087   6.681   3.240   0.350 -0.0473 -0.2406  0.2450
 1375TIP3   OH2 4088   2.175   5.542   1.322  0.2218  0.0616  0.1594
 1375TIP3    H1 4089   2.209   5.492   1.248  0.6089 -0.2430  0.5387
 1375TIP3    H2 4090   2.252   5.563   1.374 -0.0600  0.1915  0.5298
 1376TIP3   OH2 4091   1.396   5.341   2.697 -0.2666  0.3254  0.3356
 1376TIP3    H1 4092   1.373   5.260   2.651  1.6929  0.4196 -0.8938
 1376TIP3    H2 4093   1.436   5.311   2.779 -1.9086  0.1376  1.1184
 1377TIP3   OH2 4094   3.391   6.233   5.574  0.6772 -0.4362  0.0023
 1377TIP3    H1 4095   3.331   6.302   5.602  0.3136 -0.8670  0.3025
 1377TIP3    H2 4096   3.407   6.182   5.653  2.3169  0.3099  0.1829
 1378TIP3   OH2 4097  -0.024   5.835   5.189  0.4976 -0.0324  0.6348
 1378TIP3    H1 4098   0.004   5.883   5.112 -0.3339  0.6294  0.7280
 1378TIP3    H2 4099   0.026   5.753   5.187 -0.7780 -0.8544 -1.5742
 1379TIP3   OH2 4100   3.014   3.983  -0.014  0.7715 -0.4453 -0.0493
 1379TIP3    H1 4101   3.002   3.969   0.079  0.3272 -1.6490 -0.2764
 1379TIP3    H2 4102   3.088   3.928  -0.038  0.8083 -0.2364 -0.4287
 1380TIP3   OH2 4103   0.938   5.671   0.050 -0.5560 -0.1624  0.1338
 1380TIP3    H1 4104   1.018   5.671   0.103  0.7443 -1.2945 -1.7269
 1380TIP3    H2 4105   0.927   5.580   0.023 -0.4176  0.5371 -2.5500
 1381TIP3   OH2 4106   1.521   1.906   4.546  0.0305  0.4383 -0.2252
 1381TIP3    H1 4107   1.446   1.846   4.543 -1.2538  1.9791 -0.2595
 1381TIP3    H2 4108   1.544   1.919   4.454 -0.7986  1.2905 -0.3309
 1382TIP3   OH2 4109   6.031   2.021   0.305  0.1894  0.5598  0.3724
 1382TIP3    H1 4110   6.047   1.997   0.397 -1.4541  0.2618  0.6091
 1382TIP3    H2 4111   6.077   2.104   0.294  1.8913 -0.2597  0.9381
 1383TIP3   OH2 4112   0.666   3.962   0.451 -0.1841  0.3274 -0.6443
 1383TIP3    H1 4113   0.732   3.910   0.405  0.3882 -0.7042  1.2247
 1383TIP3    H2 4114   0.594   3.900   0.466 -0.0330  0.4125  0.4867
 1384TIP3   OH2 4115   2.585   1.017   5.575  0.0560 -0.2583 -0.1279
 1384TIP3    H1 4116   2.560   1.106   5.548  1.0030 -0.2628 -1.1234
 1384TIP3    H2 4117   2.646   0.988   5.507  2.1372 -0.5142  1.7406
 1385TIP3   OH2 4118   4.591   0.617   4.334 -0.4141  0.0943  0.1304
 1385TIP3    H1 4119   4.664   0.575   4.288 -1.3662 -2.0457  0.4495
 1385TIP3    H2 4120   4.519   0.616   4.271 -0.6437  0.7036  0.3745
 1386TIP3   OH2 4121   0.827   2.031   0.109  0.0366  0.5230  0.2013
 1386TIP3    H1 4122   0.921   2.021   0.093  0.1354 -0.8780  1.4207
 1386TIP3    H2 4123   0.822   2.083   0.190 -0.1850 -0.4156  0.8068
 1387TIP3   OH2 4124   1.639   5.135   1.620  0.0196  0.4183 -0.2666
 1387TIP3    H1 4125   1.582   5.058   1.608 -2.1025  2.1161 -1.9059
 1387TIP3    H2 4126   1.585   5.197   1.668  1.8214  0.8452  1.3121
 1388TIP3   OH2 4127   2.432   2.974   5.857 -0.1259  0.4533 -0.0077
 1388TIP3    H1 4128   2.422   2.999   5.766  0.0257  2.3602  0.4496
 1388TIP3    H2 4129   2.358   2.916   5.876 -1.8664  2.3906 -0.5730
 1389TIP3   OH2 4130   6.076   5.481   2.476 -0.2340 -0.6329 -0.9976
 1389TIP3    H1 4131   6.144   5.540   2.443  0.9847  0.2298  2.5866
 1389TIP3    H2 4132   6.125   5.410   2.517 -1.6163 -1.4714 -0.7572
 1390TIP3   OH2 4133   3.512   5.477   1.581  0.1586  0.2270 -0.6737
 1390TIP3    H1 4134   3.454   5.404   1.559  1.3009 -1.4026  1.2952
 1390TIP3    H2 4135   3.452   5.549   1.603 -1.0500 -0.6457 -0.9701
 1391TIP3   OH2 4136   4.617   6.401   5.835  0.4116 -0.5450  0.4442
 1391TIP3    H1 4137   4.553   6.438   5.897 -0.2506 -0.6422 -0.1703
 1391TIP3    H2 4138   4.699   6.398   5.885 -0.4254 -2.0552  1.8629
 1392TIP3   OH2 4139   4.993   1.465   5.633 -0.5059  0.3911 -0.0805
 1392TIP3    H1 4140   4.923   1.476   5.697  0.1932  0.1827  0.7302
 1392TIP3    H2 4141   4.955   1.408   5.566 -0.8270 -0.4343  0.7896
 1393TIP3   OH2 4142   1.433   5.162   1.401  0.4754 -0.0730 -0.3128
 1393TIP3    H1 4143   1.494   5.097   1.366 -1.6360 -1.2583 -2.1107
 1393TIP3    H2 4144   1.481   5.245   1.396  1.7781 -0.8568 -2.1979
 1394TIP3   OH2 4145   2.909   4.713   1.091 -0.0187  0.0006  0.0144
 1394TIP3    H1 4146   2.849   4.673   1.155 -0.0751 -0.0184 -0.0501
 1394TIP3    H2 4147   2.920   4.803   1.122 -2.1168  0.8149 -1.3774
 1395TIP3   OH2 4148   6.595   3.016   2.676 -0.6122  0.1118  0.5142
 1395TIP3    H1 4149   6.670   2.958   2.686 -1.0070 -0.9496 -1.8991
 1395TIP3    H2 4150   6.566   3.033   2.766  1.3133 -1.0155  1.4194
 1396TIP3   OH2 4151   2.857   5.592   1.756 -0.2871  0.4452 -0.3570
 1396TIP3    H1 4152   2.828   5.621   1.842 -0.3268  1.1181 -0.5890
 1396TIP3    H2 4153   2.923   5.656   1.730 -0.3437  0.3026 -0.8696
 1397TIP3   OH2 4154   5.725   4.452   1.002  0.1485 -0.0444 -0.4851
 1397TIP3    H1 4155   5.803   4.490   0.961  1.3565 -0.7440  1.0594
 1397TIP3    H2 4156   5.680   4.527   1.042 -1.5401  0.8059 -3.6306
 1398TIP3   OH2 4157   6.933   2.919   2.121 -0.0456  0.1202  0.2119
 1398TIP3    H1 4158   6.994   2.890   2.054  0.1832  0.6323  0.1988
 1398TIP3    H2 4159   6.863   2.853   2.119 -0.6431  0.7585 -1.3515
 1399TIP3   OH2 4160   1.309   3.827   2.894  0.3131  0.3987 -0.0557
 1399TIP3    H1 4161   1.352   3.784   2.820  0.7803  0.6695  0.0586
 1399TIP3    H2 4162   1.250   3.760   2.929  0.5121  0.0820 -0.3228
 1400TIP3   OH2 4163   3.856   4.556   1.725 -0.2148 -0.0472 -0.6475
 1400TIP3    H1 4164   3.898   4.510   1.652  0.0122 -0.4761 -0.2514
 1400TIP3    H2 4165   3.764   4.563   1.699 -0.3090 -0.9598 -0.6023
 1401TIP3   OH2 4166   2.487   6.059   5.656 -0.0778 -0.1648  0.0192
 1401TIP3    H1 4167   2.547   6.109   5.712  1.0798 -1.8542  0.3466
 1401TIP3    H2 4168   2.482   6.109   5.575 -0.3958  1.4084  0.9521
 1402TIP3   OH2 4169   3.238   0.821   1.527  0.3610 -0.2805  0.2678
 1402TIP3    H1 4170   3.147   0.826   1.499  0.6666  0.2925 -0.6657
 1402TIP3    H2 4171   3.281   0.894   1.484  1.0484  0.1232  1.5800
 1403TIP3   OH2 4172   7.011   5.363   0.028  0.4084 -0.3997  0.2063
 1403TIP3    H1 4173   6.962   5.441   0.001 -0.5614 -1.3679 -0.9429
 1403TIP3    H2 4174   7.102   5.383   0.005 -0.0131 -0.1206 -1.3499
 1404TIP3   OH2 4175   2.543   6.327   0.035  0.3992  0.2848 -0.0210
 1404TIP3    H1 4176   2.522   6.308  -0.057 -0.6054 -1.0268  0.4541
 1404TIP3    H2 4177   2.595   6.251   0.064 -0.5000 -0.0051  0.8818
 1405TIP3   OH2 4178   0.684   5.171   0.337  0.9973  0.1743 -0.8198
 1405TIP3    H1 4179   0.662   5.134   0.252  1.5941  1.0585 -1.3716
 1405TIP3    H2 4180   0.780   5.165   0.342  0.9406 -0.2686 -0.0179
 1406TIP3   OH2 4181   1.058   0.381   2.161 -0.1624 -0.5619 -0.1219
 1406TIP3    H1 4182   1.028   0.463   2.199 -0.6502  0.0390 -1.7253
 1406TIP3    H2 4183   1.008   0.314   2.208 -2.5230  0.2911 -1.2250
 1407TIP3   OH2 4184   6.720   1.608   5.350  0.6746  0.1172  0.6092
 1407TIP3    H1 4185   6.767   1.571   5.425 -0.2494 -0.1154  1.0886
 1407TIP3    H2 4186   6.657   1.668   5.389  0.7671  0.6503 -0.0439
 1408TIP3   OH2 4187   5.245   0.543   3.089  0.1354  0.1371 -0.0870
 1408TIP3    H1 4188   5.186   0.528   3.163  0.5616 -1.1047  0.0168
 1408TIP3    H2 4189   5.190   0.584   3.022 -0.6640 -0.3281  0.2796
 1409TIP3   OH2 4190   5.909   5.195   1.317  0.3399  0.2662 -0.5938
 1409TIP3    H1 4191   5.924   5.204   1.411  1.7611 -1.6767 -0.5708
 1409TIP3    H2 4192   5.814   5.203   1.306  0.1234  0.1805  1.0462
 1410TIP3   OH2 4193   3.754   1.560   1.457  0.4457  0.3211 -0.1366
 1410TIP3    H1 4194   3.821   1.498   1.428  0.2529 -0.6517  1.3639
 1410TIP3    H2 4195   3.677   1.539   1.404  0.9988  0.7236 -1.1180
 1411TIP3   OH2 4196   3.559   2.528   0.360 -0.1874 -0.5523  0.5135
 1411TIP3    H1 4197   3.602   2.613   0.374 -0.3014 -0.5684  0.9991
 1411TIP3    H2 4198   3.631   2.466   0.351 -0.0560 -0.7822  2.5541
 1412TIP3   OH2 4199   2.855   2.446   4.588  1.0492 -0.4398  0.2407
 1412TIP3    H1 4200   2.811   2.387   4.527  1.9111 -1.7104  0.7811
 1412TIP3    H2 4201   2.884   2.520   4.535  0.9976 -1.0955 -0.7175
 1413TIP3   OH2 4202   2.409   3.130   3.952 -0.5062  0.5391 -0.0497
 1413TIP3    H1 4203   2.422   3.038   3.930 -0.5316  0.4434  0.3217
 1413TIP3    H2 4204   2.488   3.174   3.923 -0.0958  0.2481  0.6056
 1414TIP3   OH2 4205   0.025   6.053   1.005 -0.1136 -0.6559 -0.3553
 1414TIP3    H1 4206   0.114   6.033   1.033  0.6524  0.2588 -2.0120
 1414TIP3    H2 4207   0.006   5.989   0.937 -0.0796  0.1720 -1.1626
 1415TIP3   OH2 4208   1.318   0.440   5.638  0.2393  0.3132  0.0512
 1415TIP3    H1 4209   1.338   0.469   5.727 -0.0662  1.4063 -0.2212
 1415TIP3    H2 4210   1.355   0.352   5.632 -1.0138 -0.3883  1.7431
 1416TIP3   OH2 4211   3.500   1.008   1.017 -0.3994 -0.1484 -0.5688
 1416TIP3    H1 4212   3.561   1.036   1.085 -0.4966 -0.1053 -0.4992
 1416TIP3    H2 4213   3.544   0.934   0.975 -1.8347 -2.6424  1.9220
 1417TIP3   OH2 4214   0.932   1.471   0.584  0.4239 -0.1545  0.1979
 1417TIP3    H1 4215   0.920   1.471   0.489  1.4455  0.0540  0.0534
 1417TIP3    H2 4216   0.848   1.499   0.619  0.0289 -0.2504 -0.6443
 1418TIP3   OH2 4217   6.951   0.964   1.966  0.0060  0.3522  0.7380
 1418TIP3    H1 4218   7.041   0.976   1.997  0.6611  2.8999 -1.6726
 1418TIP3    H2 4219   6.896   0.987   2.040  1.2120 -2.4529  2.6694
 1419TIP3   OH2 4220   1.296   3.086   2.543 -0.1167  0.0643 -0.4288
 1419TIP3    H1 4221   1.272   3.174   2.570  2.0795  0.9775 -1.2552
 1419TIP3    H2 4222   1.283   3.086   2.448  0.7426 -0.1980 -0.5527
 1420TIP3   OH2 4223   2.408   5.779   2.411 -0.3674  0.6227  0.0503
 1420TIP3    H1 4224   2.383   5.784   2.503 -1.0647  0.9154 -0.1461
 1420TIP3    H2 4225   2.344   5.835   2.366  0.4241  1.0853 -0.5193
 1421TIP3   OH2 4226   0.484   1.863   3.639  0.0285  0.5495 -0.1960
 1421TIP3    H1 4227   0.517   1.940   3.591  1.0824  0.2178 -0.0362
 1421TIP3    H2 4228   0.492   1.791   3.576  0.5292  0.2851  0.1682
 1422TIP3   OH2 4229   5.052   6.105   4.351 -0.0864 -0.0889  0.3490
 1422TIP3    H1 4230   4.963   6.123   4.381 -1.2798 -0.6013 -2.4803
 1422TIP3    H2 4231   5.072   6.017   4.382 -0.1555  0.4014  1.8235
 1423TIP3   OH2 4232   5.689   2.797   5.254 -0.4091  0.1269  0.0809
 1423TIP3    H1 4233   5.670   2.873   5.199 -0.8760  0.5901  0.8649
 1423TIP3    H2 4234   5.639   2.726   5.214 -0.6428  0.4283 -0.1687
 1424TIP3   OH2 4235   2.687   0.810   2.170 -0.6306 -0.1618  0.4274
 1424TIP3    H1 4236   2.611   0.800   2.114 -1.0486  1.0211  0.7472
 1424TIP3    H2 4237   2.759   0.769   2.121 -1.1425  0.1566 -0.6199
 1425TIP3   OH2 4238   5.261   3.607   1.639 -0.3573 -0.1155 -0.0331
 1425TIP3    H1 4239   5.269   3.609   1.544  0.0845 -0.0846  0.0008
 1425TIP3    H2 4240   5.291   3.693   1.667  1.2219 -0.7248  0.2456
 1426TIP3   OH2 4241   1.692   0.118   2.210 -0.1351 -0.1174  0.5466
 1426TIP3    H1 4242   1.705   0.211   2.226 -0.7193 -0.0556  0.6962
 1426TIP3    H2 4243   1.646   0.086   2.288  1.5155 -0.8870  1.2542
 1427TIP3   OH2 4244   1.506   2.904   2.573 -0.4526 -0.2093  0.2802
 1427TIP3    H1 4245   1.483   2.989   2.537 -0.0945 -0.4235 -0.4866
 1427TIP3    H2 4246   1.427   2.875   2.619 -0.4038  0.7561  0.9901
 1428TIP3   OH2 4247   6.890   0.595   3.697  0.0330 -0.1266 -0.2636
 1428TIP3    H1 4248   6.924   0.629   3.780  4.2322 -1.1258 -1.3591
 1428TIP3    H2 4249   6.917   0.504   3.695 -1.8111 -0.7047 -1.9102
 1429TIP3   OH2 4250   6.794   3.180   1.182 -0.0540 -0.4009 -0.1417
 1429TIP3    H1 4251   6.717   3.156   1.130 -0.6596 -1.4905  1.2188
 1429TIP3    H2 4252   6.866   3.177   1.119 -0.6885 -2.1763 -0.8520
 1430TIP3   OH2 4253   0.132   0.545   4.406  0.4268  0.3261 -0.0420
 1430TIP3    H1 4254   0.126   0.476   4.340  0.3952  1.3502 -1.1448
 1430TIP3    H2 4255   0.215   0.589   4.387 -0.6292  2.0728 -0.9114
 1431TIP3   OH2 4256   6.881   1.574   0.853 -0.3996  0.2669  0.0358
 1431TIP3    H1 4257   6.841   1.568   0.766 -1.2227  2.8832  0.1600
 1431TIP3    H2 4258   6.976   1.573   0.836 -0.5491  1.1936 -0.9618
 1432TIP3   OH2 4259   6.902   3.239   3.461 -0.6668  0.3972  0.4676
 1432TIP3    H1 4260   6.807   3.247   3.471 -0.8349 -0.3815 -0.3081
 1432TIP3    H2 4261   6.913   3.161   3.406  0.4497  0.1163  1.0719
 1433TIP3   OH2 4262   2.338   0.504   0.565 -0.7707 -0.2068  0.0108
 1433TIP3    H1 4263   2.285   0.543   0.495 -0.3620  1.0679  0.3798
 1433TIP3    H2 4264   2.301   0.538   0.646 -0.4749 -0.6927  0.3587
 1434TIP3   OH2 4265   4.989   2.322   0.138  0.4358 -0.3725  0.7858
 1434TIP3    H1 4266   5.066   2.280   0.178  0.9390 -0.6379 -0.4170
 1434TIP3    H2 4267   4.974   2.272   0.058 -0.8017 -0.1056  0.8414
 1435TIP3   OH2 4268   6.819   3.738   3.108 -0.0890 -0.0953  0.2619
 1435TIP3    H1 4269   6.839   3.828   3.135  1.9061  0.1689 -1.7909
 1435TIP3    H2 4270   6.754   3.748   3.038 -0.9036 -0.3871  0.9539
 1436TIP3   OH2 4271   1.286   3.455   5.513 -0.1355 -0.7108 -0.2253
 1436TIP3    H1 4272   1.228   3.451   5.438  1.4569  0.3025 -1.5938
 1436TIP3    H2 4273   1.374   3.463   5.475  0.6891  0.2884  1.7397
 1437TIP3   OH2 4274   0.853   5.992   4.367 -0.5159  0.1542  0.2155
 1437TIP3    H1 4275   0.859   6.087   4.374  0.4362  0.1806 -0.7116
 1437TIP3    H2 4276   0.836   5.962   4.456  0.3237  1.1197  0.7137
 1438TIP3   OH2 4277   3.677   5.362   5.639 -0.8456  0.0649 -0.6106
 1438TIP3    H1 4278   3.741   5.297   5.670 -3.0537 -1.4912  1.0281
 1438TIP3    H2 4279   3.669   5.344   5.545  3.0424  2.2146 -1.6060
 1439TIP3   OH2 4280   6.452   4.396   5.095 -0.1571 -0.1753  0.3908
 1439TIP3    H1 4281   6.451   4.326   5.160  0.8795 -2.3069 -1.7308
 1439TIP3    H2 4282   6.496   4.469   5.139  0.7351 -1.6129  1.9915
 1440TIP3   OH2 4283   6.195   6.791   0.569  0.0384 -0.2932 -0.5153
 1440TIP3    H1 4284   6.132   6.817   0.501 -1.5254 -1.9112  0.2234
 1440TIP3    H2 4285   6.149   6.724   0.620  1.8150 -0.4095  1.0565
 1441TIP3   OH2 4286   2.616   5.058   0.841 -0.1715 -0.6158 -0.1482
 1441TIP3    H1 4287   2.639   5.010   0.761  1.1501 -1.5238  0.7281
 1441TIP3    H2 4288   2.522   5.045   0.851 -0.1716 -1.3691 -1.0040
 1442TIP3   OH2 4289   0.248   2.085   5.414 -0.2801  0.2117  0.3314
 1442TIP3    H1 4290   0.271   2.152   5.350 -0.8267  0.1174  0.0252
 1442TIP3    H2 4291   0.174   2.038   5.374  0.9642 -1.5079 -0.1098
 1443TIP3   OH2 4292   3.220   1.423   0.978 -0.4663  0.5824 -0.1891
 1443TIP3    H1 4293   3.259   1.500   1.018  0.2602 -0.0050  0.2475
 1443TIP3    H2 4294   3.281   1.398   0.909  0.4446 -0.8651  1.0691
 1444TIP3   OH2 4295   2.149   2.407   2.011  0.4122  0.6613 -0.1222
 1444TIP3    H1 4296   2.125   2.466   1.939  1.0253  0.3735 -0.5755
 1444TIP3    H2 4297   2.075   2.346   2.018  0.6366  0.2685 -0.9724
 1445TIP3   OH2 4298   4.332   1.250   5.739  0.3793  0.6396 -0.6583
 1445TIP3    H1 4299   4.304   1.165   5.705  0.7077  0.4600 -0.4891
 1445TIP3    H2 4300   4.267   1.271   5.807  0.6412  0.2290 -0.2723
 1446TIP3   OH2 4301   5.625   5.296   5.382  0.1452 -0.2715  0.0961
 1446TIP3    H1 4302   5.559   5.349   5.337 -0.3818 -0.2761  0.8386
 1446TIP3    H2 4303   5.685   5.268   5.313 -0.6018 -0.2269 -0.5861
 1447TIP3   OH2 4304   4.940   0.284   2.274  0.0960 -0.7569 -0.2447
 1447TIP3    H1 4305   4.853   0.257   2.245 -2.0806  3.9271  0.8842
 1447TIP3    H2 4306   4.983   0.316   2.194 -0.3162 -0.6460 -0.4239
 1448TIP3   OH2 4307   3.944   5.703   4.371  0.6495 -0.0269 -0.5245
 1448TIP3    H1 4308   3.866   5.656   4.344 -1.0145  0.8739  2.2960
 1448TIP3    H2 4309   3.989   5.725   4.289 -1.8171 -0.9158 -2.2266
 1449TIP3   OH2 4310   6.102   5.558   0.569  0.0638 -0.2970 -0.2433
 1449TIP3    H1 4311   6.187   5.586   0.603 -0.5008  0.0284  0.9437
 1449TIP3    H2 4312   6.040   5.578   0.639 -1.4168  1.7872 -2.0184
 1450TIP3   OH2 4313   1.207   5.172   4.832 -0.6497  0.1009  0.1550
 1450TIP3    H1 4314   1.277   5.225   4.870 -0.0628 -1.8089  1.9380
 1450TIP3    H2 4315   1.216   5.183   4.738  2.0048  0.0222  0.3315
 1451TIP3   OH2 4316   2.776   3.112   0.650 -0.6067 -0.1615 -0.8135
 1451TIP3    H1 4317   2.770   3.166   0.572  0.2845  1.5172  0.1983
 1451TIP3    H2 4318   2.695   3.129   0.698 -1.2829 -1.4131 -1.4796
 1452TIP3   OH2 4319   2.936   1.908   1.477 -0.0241 -0.2116 -0.4756
 1452TIP3    H1 4320   2.842   1.922   1.472  0.0290  0.2886 -0.0953
 1452TIP3    H2 4321   2.958   1.864   1.394 -0.6067 -0.4638 -0.5009
 1453TIP3   OH2 4322   3.470   3.755   5.577 -0.2337  0.3789 -0.1797
 1453TIP3    H1 4323   3.434   3.714   5.499 -1.3137  1.9239 -0.5445
 1453TIP3    H2 4324   3.506   3.683   5.629  1.9475 -0.5699 -2.7953
 1454TIP3   OH2 4325   2.285   6.129   3.078  0.3125  0.2511 -0.2977
 1454TIP3    H1 4326   2.342   6.206   3.086  1.3197 -0.1729 -2.5175
 1454TIP3    H2 4327   2.308   6.074   3.153  1.3436  1.0167 -0.0241
 1455TIP3   OH2 4328   1.231   5.886   1.430 -0.6468  0.8460 -0.2313
 1455TIP3    H1 4329   1.294   5.918   1.366 -0.1748  2.0862  0.8040
 1455TIP3    H2 4330   1.281   5.827   1.486 -1.1075 -0.4043 -1.0763
 1456TIP3   OH2 4331   7.158   0.478   2.786  0.3019 -0.6624 -0.0628
 1456TIP3    H1 4332   7.242   0.476   2.740 -0.0236 -1.0099 -0.6417
 1456TIP3    H2 4333   7.097   0.517   2.724 -0.1628 -1.2193  0.0445
 1457TIP3   OH2 4334   1.079   3.245   4.033 -0.2981  0.3886 -0.0845
 1457TIP3    H1 4335   1.061   3.247   4.127 -0.5762 -1.6823 -0.0588
 1457TIP3    H2 4336   1.091   3.152   4.013 -0.0809  0.8174 -2.0701
 1458TIP3   OH2 4337   2.335   6.344   4.039 -0.2121  0.1261 -0.1551
 1458TIP3    H1 4338   2.420   6.324   4.078 -0.2480  0.1777 -0.0474
 1458TIP3    H2 4339   2.327   6.439   4.045 -0.1301  0.1528 -0.4792
 1459TIP3   OH2 4340   5.503   4.274   5.573 -0.2306  0.4086  0.1121
 1459TIP3    H1 4341   5.563   4.348   5.579  0.0551  0.1588  0.4112
 1459TIP3    H2 4342   5.532   4.214   5.642  0.0781 -0.3596 -0.6561
 1460TIP3   OH2 4343   2.785   3.072   3.271 -0.0412  0.0011 -0.1026
 1460TIP3    H1 4344   2.707   3.126   3.286  0.5202  0.1194  3.2339
 1460TIP3    H2 4345   2.751   2.984   3.257 -0.8107  0.4920 -1.5758
 1461TIP3   OH2 4346   1.891   0.864   1.511 -0.3017 -0.0518 -0.5303
 1461TIP3    H1 4347   1.952   0.796   1.484 -0.9948 -0.7512 -0.3912
 1461TIP3    H2 4348   1.880   0.919   1.433  0.6446  0.1986 -0.4939
 1462TIP3   OH2 4349   4.576   6.653   0.013  0.6469 -0.6531  0.4144
 1462TIP3    H1 4350   4.558   6.712   0.087  1.5770 -0.6579  0.6534
 1462TIP3    H2 4351   4.491   6.614  -0.007  0.2781 -0.2487  1.1342
 1463TIP3   OH2 4352   6.920   0.081   2.407  0.3034  0.0924 -0.3839
 1463TIP3    H1 4353   6.850   0.101   2.469 -0.1081  1.6177 -1.3003
 1463TIP3    H2 4354   6.991   0.047   2.462 -1.6943 -3.2469  0.4209
 1464TIP3   OH2 4355   3.108   1.719   5.625  0.9937 -0.4938  0.1499
 1464TIP3    H1 4356   3.032   1.696   5.572  0.7727  0.2932  0.1166
 1464TIP3    H2 4357   3.183   1.702   5.567  0.8014 -0.4982 -0.0989
 1465TIP3   OH2 4358   2.837   3.865   0.510 -0.0050  0.6544 -0.0095
 1465TIP3    H1 4359   2.894   3.881   0.585 -0.3033 -1.1723  0.6544
 1465TIP3    H2 4360   2.754   3.836   0.548 -0.4222  0.4531 -1.0247
 1466TIP3   OH2 4361   2.875   1.292   2.026 -0.1795 -0.2340 -0.1338
 1466TIP3    H1 4362   2.963   1.286   1.989 -0.1376 -0.1873 -0.0416
 1466TIP3    H2 4363   2.819   1.313   1.951 -0.0873 -0.0864 -0.1629
 1467TIP3   OH2 4364   3.709   5.203   2.762  0.5053 -0.0054 -0.1482
 1467TIP3    H1 4365   3.758   5.197   2.680  2.7753 -0.5210  1.1553
 1467TIP3    H2 4366   3.762   5.260   2.818 -0.8833  0.1799  1.0466
 1468TIP3   OH2 4367   4.715   5.358   2.186 -0.0472 -0.1994  0.2609
 1468TIP3    H1 4368   4.640   5.302   2.165 -0.2015  0.6056 -1.4836
 1468TIP3    H2 4369   4.691   5.400   2.269 -1.4633 -0.0999 -0.1749
 1469TIP3   OH2 4370   3.923   4.880   0.951  0.3634  0.5616  0.3482
 1469TIP3    H1 4371   3.943   4.854   0.861  2.3328  1.2779  0.5370
 1469TIP3    H2 4372   3.969   4.817   1.005 -0.9684  0.0194  0.8907
 1470TIP3   OH2 4373   3.690   1.318   1.725  0.1302  0.6143 -0.0598
 1470TIP3    H1 4374   3.779   1.295   1.700 -0.3983  1.3218 -2.9425
 1470TIP3    H2 4375   3.694   1.412   1.744  0.1089  0.5056  0.5068
 1471TIP3   OH2 4376   6.072   0.912   5.329  0.3769  0.1737 -0.4662
 1471TIP3    H1 4377   6.033   0.954   5.252  1.5276 -0.1292 -1.2364
 1471TIP3    H2 4378   6.161   0.948   5.333 -0.0934  1.2157  1.5311
 1472TIP3   OH2 4379   6.902   1.423   2.713  0.2679  0.3068 -0.0470
 1472TIP3    H1 4380   6.943   1.381   2.789 -0.4038 -0.3859 -0.0495
 1472TIP3    H2 4381   6.868   1.506   2.747 -2.0889 -1.0048  1.0418
 1473TIP3   OH2 4382   7.189   1.967   1.573 -0.5161 -0.0491  0.3168
 1473TIP3    H1 4383   7.217   2.056   1.595  1.7209 -0.6591  0.2086
 1473TIP3    H2 4384   7.161   1.972   1.482  0.7857  0.3401 -0.0854
 1474TIP3   OH2 4385   2.565   3.163   1.946 -0.0744  0.7015 -0.1905
 1474TIP3    H1 4386   2.546   3.257   1.945  3.0621  1.4411 -0.7145
 1474TIP3    H2 4387   2.618   3.149   2.024 -1.9386 -1.0692  0.8684
 1475TIP3   OH2 4388   2.056   4.830   0.041 -0.3434 -0.4340 -0.1078
 1475TIP3    H1 4389   2.092   4.835  -0.047  1.4069  0.5291  0.6111
 1475TIP3    H2 4390   2.122   4.783   0.092 -0.6662  0.2488  0.9874
 1476TIP3   OH2 4391   0.647   4.549   1.960 -0.1772  0.2617  0.0321
 1476TIP3    H1 4392   0.591   4.471   1.964 -0.1963  0.3109  0.8030
 1476TIP3    H2 4393   0.724   4.526   2.012 -0.3501  0.8868  0.5799
 1477TIP3   OH2 4394   2.115   3.418   4.688  0.6596 -0.2386  0.2055
 1477TIP3    H1 4395   2.110   3.510   4.713  0.8498 -0.7658  2.4221
 1477TIP3    H2 4396   2.193   3.385   4.733 -0.2163 -1.8011  0.6705
 1478TIP3   OH2 4397   0.466   3.476   0.771  0.2535 -0.0970  0.4793
 1478TIP3    H1 4398   0.445   3.563   0.807 -0.2999 -0.5217  1.2009
 1478TIP3    H2 4399   0.466   3.489   0.677  3.5477  1.4881  0.5403
 1479TIP3   OH2 4400   3.038   4.813   5.529  0.0304 -0.1631  0.3202
 1479TIP3    H1 4401   3.099   4.845   5.595  0.4172 -1.7725  0.7934
 1479TIP3    H2 4402   3.072   4.726   5.506 -1.2019 -0.4312 -0.5753
 1480TIP3   OH2 4403   6.142   5.219   5.797 -0.1152 -0.4849 -0.4041
 1480TIP3    H1 4404   6.086   5.232   5.720  1.4145 -0.3253 -1.5345
 1480TIP3    H2 4405   6.170   5.307   5.821  0.9773 -0.6908 -0.8893
 1481TIP3   OH2 4406   0.407   6.115   3.314 -0.0172  0.1260  0.1397
 1481TIP3    H1 4407   0.373   6.188   3.263  0.7796  2.3452  2.5864
 1481TIP3    H2 4408   0.332   6.083   3.363 -0.1470  0.0132 -0.1327
 1482TIP3   OH2 4409   2.681   3.787   2.759  0.6527  0.1092  0.2056
 1482TIP3    H1 4410   2.607   3.735   2.727  0.2168  0.7659  0.1249
 1482TIP3    H2 4411   2.641   3.867   2.793  1.4560  1.2418 -1.4050
 1483TIP3   OH2 4412   6.090   2.669   5.662  0.3201 -0.1131 -0.7528
 1483TIP3    H1 4413   6.089   2.765   5.663 -0.5646 -0.1131  0.8042
 1483TIP3    H2 4414   5.999   2.644   5.643  0.2271 -0.6229  0.2910
 1484TIP3   OH2 4415   6.004   4.445   4.509  0.2775 -0.3675  0.6204
 1484TIP3    H1 4416   6.033   4.534   4.527 -0.0038  0.3077 -1.9036
 1484TIP3    H2 4417   6.052   4.418   4.430  0.4379 -2.5066  1.3684
 1485TIP3   OH2 4418   0.063   1.648   1.022  0.1529 -1.0310  0.4371
 1485TIP3    H1 4419   0.037   1.575   1.078 -3.0930 -0.6656 -0.4050
 1485TIP3    H2 4420   0.061   1.613   0.933 -3.5266  0.3940 -0.2087
 1486TIP3   OH2 4421   6.512   2.001   3.649  0.3244  0.7673  0.4019
 1486TIP3    H1 4422   6.553   1.991   3.564  0.5069  1.3772  0.4128
 1486TIP3    H2 4423   6.482   2.092   3.651 -0.1414  0.6163  0.7847
 1487TIP3   OH2 4424   2.447   4.405   3.852  0.5436  0.2370 -0.2347
 1487TIP3    H1 4425   2.466   4.313   3.869  1.0986  0.0638 -1.6839
 1487TIP3    H2 4426   2.369   4.403   3.797  0.7803  0.6106 -0.5872
 1488TIP3   OH2 4427   2.733   0.915   0.790 -0.0103  0.3276  0.1498
 1488TIP3    H1 4428   2.792   0.966   0.845  1.9096 -0.0228 -1.4585
 1488TIP3    H2 4429   2.775   0.829   0.783 -0.4048  0.2415 -1.4910
 1489TIP3   OH2 4430   1.036   2.958   0.062  0.4751 -0.3580 -0.1605
 1489TIP3    H1 4431   1.070   2.884   0.010 -0.1007 -1.8429  1.4632
 1489TIP3    H2 4432   0.991   2.916   0.135 -3.0810  1.5338 -1.0572
 1490TIP3   OH2 4433   5.560   1.673   4.657 -0.2124 -0.1792  0.5641
 1490TIP3    H1 4434   5.470   1.669   4.626  0.3174 -0.6401 -1.0252
 1490TIP3    H2 4435   5.580   1.583   4.684  0.3178 -0.4989 -0.8160
 1491TIP3   OH2 4436   0.877   4.869   3.321  0.4065  0.4776 -0.3607
 1491TIP3    H1 4437   0.904   4.955   3.353  1.4706  0.6725 -1.6610
 1491TIP3    H2 4438   0.783   4.878   3.303  0.4625  1.2926 -0.2658
 1492TIP3   OH2 4439   3.649   0.271   3.033  0.4553 -0.3054 -0.2580
 1492TIP3    H1 4440   3.658   0.180   3.003  0.6959 -0.2562 -0.3379
 1492TIP3    H2 4441   3.716   0.280   3.102 -0.8919 -0.7821  1.1825
 1493TIP3   OH2 4442   3.883   3.765   0.649 -0.1971 -0.5301  0.1172
 1493TIP3    H1 4443   3.910   3.806   0.567  0.0986 -0.1117  0.4170
 1493TIP3    H2 4444   3.896   3.671   0.634  0.9999 -0.3844  0.0795
 1494TIP3   OH2 4445   1.092   1.256   1.470 -0.4541  0.3994 -0.4437
 1494TIP3    H1 4446   0.996   1.255   1.474 -0.4425  0.9700  0.1840
 1494TIP3    H2 4447   1.114   1.346   1.444 -0.1663 -0.5387 -3.9186
 1495TIP3   OH2 4448   4.770  -0.022   5.838 -0.4543  0.3292 -0.4179
 1495TIP3    H1 4449   4.781  -0.024   5.933 -2.8420 -0.4232 -0.0978
 1495TIP3    H2 4450   4.749   0.069   5.818  3.0453  1.2299 -0.7378
 1496TIP3   OH2 4451   2.058   6.413   4.411  0.4944 -0.1955 -0.0702
 1496TIP3    H1 4452   2.124   6.344   4.416  0.3178 -0.3984 -0.4582
 1496TIP3    H2 4453   2.106   6.491   4.385  0.7734 -0.0556  0.8278
 1497TIP3   OH2 4454   3.397   4.115   0.490 -0.2897 -0.0472 -0.2765
 1497TIP3    H1 4455   3.452   4.155   0.558 -1.3413  0.6627  0.1819
 1497TIP3    H2 4456   3.363   4.189   0.441 -0.7763 -0.4814 -0.5968
 1498TIP3   OH2 4457   2.595   3.011   1.421  0.2637 -0.3644 -0.1744
 1498TIP3    H1 4458   2.576   3.077   1.487 -0.0577 -0.1893 -0.4389
 1498TIP3    H2 4459   2.600   2.929   1.470  0.0829 -0.2273  0.0761
 1499TIP3   OH2 4460   6.760   1.585   3.593 -0.1002 -0.3623 -0.1791
 1499TIP3    H1 4461   6.710   1.640   3.532 -1.6526 -0.5165  0.8932
 1499TIP3    H2 4462   6.712   1.502   3.593  1.5877 -1.3784 -0.9525
 1500TIP3   OH2 4463   6.087   5.825   1.170 -0.0680 -0.7432 -0.2724
 1500TIP3    H1 4464   6.010   5.773   1.194  0.1540 -0.4901  1.0574
 1500TIP3    H2 4465   6.052   5.912   1.151  0.0190 -0.1709  1.9352
 1501TIP3   OH2 4466   5.281   0.751   0.608  0.0205  0.1052 -0.1345
 1501TIP3    H1 4467   5.376   0.765   0.615  0.1450 -0.8550  0.1641
 1501TIP3    H2 4468   5.270   0.706   0.524 -0.0374 -0.8567  0.3742
 1502TIP3   OH2 4469   5.118   2.058   0.854  0.4839  0.7687  0.7241
 1502TIP3    H1 4470   5.178   2.100   0.916  0.0648  2.0172  0.3011
 1502TIP3    H2 4471   5.057   2.127   0.828 -0.9731 -0.4002  0.9149
 1503TIP3   OH2 4472   4.765   1.086   4.708  0.0293  0.3821  0.0899
 1503TIP3    H1 4473   4.671   1.101   4.722 -0.4722  0.4443 -2.7375
 1503TIP3    H2 4474   4.778   0.994   4.732 -0.4280  0.6961  1.6995
 1504TIP3   OH2 4475   4.618   1.007   0.744  0.1522  0.4832  0.0355
 1504TIP3    H1 4476   4.614   1.098   0.714 -0.1271  2.1098  4.3411
 1504TIP3    H2 4477   4.536   0.968   0.712 -0.7495  2.3809 -0.1000
 1505TIP3   OH2 4478   1.303   4.525   1.784 -0.5190 -0.2928  0.0152
 1505TIP3    H1 4479   1.245   4.556   1.854 -1.3870 -1.0527 -0.3416
 1505TIP3    H2 4480   1.371   4.591   1.777 -1.1367  0.4283  0.7131
 1506TIP3   OH2 4481   3.914   1.000   1.037  0.1310  0.4219  0.2649
 1506TIP3    H1 4482   3.890   1.090   1.013 -1.3978 -0.2286 -0.8218
 1506TIP3    H2 4483   3.879   0.946   0.966  2.5919 -0.9209 -0.0563
 1507TIP3   OH2 4484   5.228   4.003   5.719  0.1490  0.1102  0.1183
 1507TIP3    H1 4485   5.162   4.010   5.650  0.8477  0.7268 -0.4987
 1507TIP3    H2 4486   5.207   3.921   5.764  0.3714 -0.9229 -1.5637
 1508TIP3   OH2 4487   0.854   3.608   3.321 -0.9939 -0.4460  0.5368
 1508TIP3    H1 4488   0.844   3.690   3.273 -0.9070  0.7315  2.4443
 1508TIP3    H2 4489   0.770   3.595   3.364 -0.5759 -0.6593  1.3006
 1509TIP3   OH2 4490   0.599   1.510   1.839  0.5431  0.3769  0.0766
 1509TIP3    H1 4491   0.686   1.500   1.799  0.0543  1.9931 -1.5002
 1509TIP3    H2 4492   0.544   1.449   1.791  0.7809 -0.6706  1.0979
 1510TIP3   OH2 4493   6.195   2.397   0.470 -0.0486 -0.1022  0.2123
 1510TIP3    H1 4494   6.153   2.350   0.542  0.0467  0.3635  0.5760
 1510TIP3    H2 4495   6.124   2.446   0.428 -0.1299 -0.4901 -0.1018
 1511TIP3   OH2 4496   5.150   3.093   5.707 -0.4520  0.1627 -0.0775
 1511TIP3    H1 4497   5.150   3.103   5.612  0.1656  0.5654 -0.0420
 1511TIP3    H2 4498   5.062   3.120   5.734 -1.2419 -1.6445 -0.6817
 1512TIP3   OH2 4499   4.305   2.432   0.986  0.3628  0.4322  0.1961
 1512TIP3    H1 4500   4.401   2.423   0.982  0.2785 -0.8391  0.7497
 1512TIP3    H2 4501   4.289   2.480   1.067  0.4547 -1.1103  1.1683
 1513TIP3   OH2 4502   3.031   4.965   4.923 -0.1658 -0.1972 -0.3135
 1513TIP3    H1 4503   3.000   4.931   5.007 -0.2449  1.1147  0.2058
 1513TIP3    H2 4504   3.097   5.030   4.946  0.1337 -0.1298 -1.2934
 1514TIP3   OH2 4505   2.299   6.704   3.290 -0.1126  0.1533 -0.7442
 1514TIP3    H1 4506   2.354   6.783   3.289 -0.8066  0.6688 -2.4473
 1514TIP3    H2 4507   2.232   6.722   3.224 -0.4339 -1.7766 -0.9782
 1515TIP3   OH2 4508   1.437   3.041   1.349 -0.0054 -0.3583  0.5079
 1515TIP3    H1 4509   1.404   3.130   1.366 -0.6258 -0.7698  1.5327
 1515TIP3    H2 4510   1.453   3.005   1.436  1.5074 -0.7979  0.0719
 1516TIP3   OH2 4511   4.726   4.651   3.974  0.1482  0.5278  0.5935
 1516TIP3    H1 4512   4.786   4.624   4.043  0.2608 -0.9872 -0.0517
 1516TIP3    H2 4513   4.642   4.663   4.018  0.3759  0.2448  1.1120
 1517TIP3   OH2 4514   3.837   5.289   1.997  0.1491 -0.2071  0.2096
 1517TIP3    H1 4515   3.842   5.194   1.986  1.0404 -0.0294 -1.2206
 1517TIP3    H2 4516   3.925   5.315   2.025  0.7303  0.4312 -1.9689
 1518TIP3   OH2 4517   3.416   4.253   5.769 -0.5277 -0.4418  0.2944
 1518TIP3    H1 4518   3.421   4.161   5.793  2.0284 -0.4131  0.1426
 1518TIP3    H2 4519   3.374   4.253   5.682  2.2776 -1.8395 -1.1983
 1519TIP3   OH2 4520   0.861   3.128   0.246  0.6587  0.0351  0.6152
 1519TIP3    H1 4521   0.856   3.121   0.151  3.3579 -2.0401  0.4861
 1519TIP3    H2 4522   0.780   3.089   0.278  1.1092 -2.2856 -0.8672
 1520TIP3   OH2 4523   2.439   6.607   4.421 -0.4550  0.8791 -0.2908
 1520TIP3    H1 4524   2.505   6.676   4.419 -1.4203  1.8009 -1.2924
 1520TIP3    H2 4525   2.480   6.536   4.472  1.7916  0.9105 -1.9320
 1521TIP3   OH2 4526   2.441   3.514   0.671 -0.3763  0.0109  0.2508
 1521TIP3    H1 4527   2.500   3.458   0.723 -0.9603  0.7423  1.7631
 1521TIP3    H2 4528   2.364   3.525   0.727 -1.5381 -0.0875 -1.2686
 1522TIP3   OH2 4529   3.062   0.231   2.266  0.3311  0.2012  0.3893
 1522TIP3    H1 4530   3.122   0.160   2.245 -1.4294 -1.5191  0.8528
 1522TIP3    H2 4531   3.118   0.302   2.298  2.4751  0.3251 -3.1132
 1523TIP3   OH2 4532   6.696   2.760   4.278  0.8027  0.3012  0.1845
 1523TIP3    H1 4533   6.672   2.671   4.303  1.6333 -0.5669 -1.9197
 1523TIP3    H2 4534   6.726   2.753   4.188  0.8759  2.7360 -0.0546
 1524TIP3   OH2 4535   2.881   5.267   0.100 -0.5879 -0.4850 -0.3539
 1524TIP3    H1 4536   2.817   5.201   0.126 -0.2258 -0.9449 -0.6290
 1524TIP3    H2 4537   2.896   5.250   0.007  0.7209 -1.0398 -0.0519
 1525TIP3   OH2 4538   2.733   0.318   3.454  0.2158 -0.0783  0.1943
 1525TIP3    H1 4539   2.754   0.411   3.462  0.5577 -0.0171 -1.0839
 1525TIP3    H2 4540   2.704   0.308   3.363 -0.8216 -1.0403  0.6000
 1526TIP3   OH2 4541   1.414   0.559   1.899 -0.4873 -0.0574 -0.2921
 1526TIP3    H1 4542   1.452   0.490   1.954  0.5913 -0.1171 -1.0670
 1526TIP3    H2 4543   1.451   0.640   1.934 -1.2097  0.0664  0.1858
 1527TIP3   OH2 4544   3.437   1.317   4.975 -0.1368  0.2354  0.2470
 1527TIP3    H1 4545   3.480   1.272   4.903 -1.3411  0.3298 -0.5643
 1527TIP3    H2 4546   3.455   1.410   4.961  1.5249  0.1346  1.3742
 1528TIP3   OH2 4547   1.694   1.323   2.642  0.7294  0.5567 -0.0664
 1528TIP3    H1 4548   1.607   1.312   2.681  1.4246 -1.5774  1.0276
 1528TIP3    H2 4549   1.707   1.418   2.641 -1.2163  0.8930  0.6098
 1529TIP3   OH2 4550   4.469   6.281   5.308 -0.2158 -0.2927  0.2623
 1529TIP3    H1 4551   4.494   6.296   5.400  4.7020  0.2341 -0.8772
 1529TIP3    H2 4552   4.434   6.192   5.307  1.2601 -0.9841  2.4624
 1530TIP3   OH2 4553   6.510   6.755   3.429 -0.1450  0.1459 -0.4418
 1530TIP3    H1 4554   6.573   6.801   3.374 -0.8501  1.3856 -0.2488
 1530TIP3    H2 4555   6.426   6.796   3.409 -0.4734  0.4144  1.3203
 1531TIP3   OH2 4556   3.188   0.294   1.162  0.1082 -0.1716 -0.2585
 1531TIP3    H1 4557   3.201   0.387   1.179  0.3693 -0.2982  0.2232
 1531TIP3    H2 4558   3.168   0.256   1.247 -0.7222 -0.4364 -0.5634
 1532TIP3   OH2 4559   2.171   1.467   3.683 -0.1587  0.6644  0.3272
 1532TIP3    H1 4560   2.191   1.376   3.705  1.1206  0.2240 -2.2719
 1532TIP3    H2 4561   2.252   1.514   3.700 -0.3841  1.0349  0.3687
 1533TIP3   OH2 4562   1.206   2.041   3.218  0.1255  0.4364 -0.4730
 1533TIP3    H1 4563   1.120   2.084   3.212 -0.2774 -0.3223 -0.3176
 1533TIP3    H2 4564   1.269   2.109   3.194 -0.4524  1.2636  0.2941
 1534TIP3   OH2 4565   3.046   3.999   1.647 -0.2840 -0.0333  0.1570
 1534TIP3    H1 4566   2.991   4.002   1.726 -1.1163  0.0803 -0.4076
 1534TIP3    H2 4567   3.008   3.928   1.595  0.0412  0.1227 -0.2932
 1535TIP3   OH2 4568   0.937   2.557   3.453  0.2384  0.6183  0.1192
 1535TIP3    H1 4569   0.912   2.630   3.510 -0.4313 -0.0513  0.6899
 1535TIP3    H2 4570   0.861   2.499   3.453 -0.1528  1.0184 -2.1771
 1536TIP3   OH2 4571   6.013   1.272   5.498  0.0759 -0.4346 -0.7349
 1536TIP3    H1 4572   5.921   1.278   5.522 -0.1301 -1.4904 -1.2066
 1536TIP3    H2 4573   6.042   1.189   5.536  0.5117 -0.6971 -1.6212
 1537TIP3   OH2 4574   2.692   5.395   5.823 -0.3642  0.2881 -0.2151
 1537TIP3    H1 4575   2.654   5.482   5.835  0.4875  0.6872 -0.3367
 1537TIP3    H2 4576   2.693   5.357   5.911 -2.3702 -0.3141 -0.4151
 1538TIP3   OH2 4577   3.916   0.240   2.713  0.1681 -0.0807 -0.1708
 1538TIP3    H1 4578   3.873   0.167   2.670  0.7227 -0.1156 -0.6923
 1538TIP3    H2 4579   4.009   0.229   2.692  0.0956  1.6678 -1.6795
 1539TIP3   OH2 4580   6.981   2.352   4.166  0.3992  0.3150  0.1624
 1539TIP3    H1 4581   7.056   2.353   4.224 -1.0635  0.0248  2.1743
 1539TIP3    H2 4582   6.908   2.325   4.222 -1.4569  1.8371 -1.3872
 1540TIP3   OH2 4583   0.387   3.811   2.128  0.3209 -0.4336  0.1522
 1540TIP3    H1 4584   0.331   3.763   2.190  0.7265  2.0065  2.6168
 1540TIP3    H2 4585   0.466   3.758   2.120 -0.2733 -1.4305  0.7261
 1541TIP3   OH2 4586   3.275   5.940   4.309  0.1260  0.1075  0.1744
 1541TIP3    H1 4587   3.348   5.976   4.259  0.4765  0.9682  1.2613
 1541TIP3    H2 4588   3.299   5.849   4.325  1.2108  0.5047  0.9191
 1542TIP3   OH2 4589   5.276   1.631   4.539  0.0603 -0.5487  0.2181
 1542TIP3    H1 4590   5.256   1.719   4.570  0.1155  0.9218 -3.4752
 1542TIP3    H2 4591   5.192   1.586   4.535 -0.5862  0.7133 -1.4832
 1543TIP3   OH2 4592   0.753   0.426   1.363 -0.2592  0.0395  0.2165
 1543TIP3    H1 4593   0.829   0.445   1.308  1.3982 -2.0088  1.6414
 1543TIP3    H2 4594   0.714   0.348   1.323 -0.1137 -0.3820  0.8868
 1544TIP3   OH2 4595   1.361   3.797   0.187 -0.3647  1.3078 -0.2530
 1544TIP3    H1 4596   1.364   3.722   0.246  0.1061  1.6494  0.1653
 1544TIP3    H2 4597   1.281   3.784   0.136 -0.4509  0.6885  0.0298
 1545TIP3   OH2 4598   1.835   4.638   5.591 -0.0654 -0.0148  0.3932
 1545TIP3    H1 4599   1.861   4.591   5.512 -1.4083 -1.6410  0.8584
 1545TIP3    H2 4600   1.916   4.673   5.626  0.6697 -0.0113 -1.2306
 1546TIP3   OH2 4601   3.248   4.211   0.085  0.1874  0.1427 -0.0096
 1546TIP3    H1 4602   3.311   4.249   0.147 -0.5589 -1.0692  1.5716
 1546TIP3    H2 4603   3.163   4.220   0.129 -0.6924  1.1935 -1.8366
 1547TIP3   OH2 4604   6.986   1.924   0.372  0.3218  0.3359  0.6601
 1547TIP3    H1 4605   6.991   1.913   0.467 -2.9369  0.3083  0.9137
 1547TIP3    H2 4606   7.011   2.016   0.358  0.9171  0.3200  1.4867
 1548TIP3   OH2 4607   5.079   5.801   0.252 -0.4860  0.2980  0.3638
 1548TIP3    H1 4608   5.007   5.853   0.217  0.3133  0.0686 -1.7979
 1548TIP3    H2 4609   5.040   5.715   0.269 -1.0396  0.5913  0.6001
 1549TIP3   OH2 4610   1.767   1.974   3.337 -0.4505  0.2756  0.3554
 1549TIP3    H1 4611   1.795   1.887   3.309  2.0870  0.9475  0.5572
 1549TIP3    H2 4612   1.700   1.958   3.404  0.0101 -1.5034  0.4327
 1550TIP3   OH2 4613   1.816   1.972   4.835  0.1195 -0.1778 -0.2902
 1550TIP3    H1 4614   1.875   2.047   4.827 -0.0238  0.0442  0.6110
 1550TIP3    H2 4615   1.856   1.905   4.780 -0.1570  0.7911 -1.7321
 1551TIP3   OH2 4616   5.447   6.705   1.527  0.2080 -0.2193 -0.4848
 1551TIP3    H1 4617   5.494   6.788   1.540  1.9459 -1.0946 -0.8401
 1551TIP3    H2 4618   5.422   6.678   1.615  0.3329  0.2912 -0.2882
 1552TIP3   OH2 4619   0.283   0.924   5.703 -0.1606  0.0212 -0.2681
 1552TIP3    H1 4620   0.371   0.888   5.699 -0.1247 -0.0328  0.6853
 1552TIP3    H2 4621   0.285   1.000   5.646 -0.0001 -0.9870 -1.6507
 1553TIP3   OH2 4622   5.681   2.083   4.899 -0.2684  0.5597 -0.2353
 1553TIP3    H1 4623   5.680   2.097   4.994  1.2229 -3.2230  0.4908
 1553TIP3    H2 4624   5.767   2.114   4.871  0.0222 -0.0223 -0.0006
 1554TIP3   OH2 4625   6.947   1.285   0.253 -0.4242  0.1281  0.8814
 1554TIP3    H1 4626   6.899   1.367   0.258 -1.7309 -0.5727  0.2151
 1554TIP3    H2 4627   6.921   1.246   0.170  2.9287  0.6657 -0.5746
 1555TIP3   OH2 4628   4.294   1.397   5.168 -0.0847 -0.3801 -0.1189
 1555TIP3    H1 4629   4.253   1.345   5.237  0.6721  0.4169  0.9483
 1555TIP3    H2 4630   4.376   1.351   5.149  1.4120  1.2034  1.9942
 1556TIP3   OH2 4631   1.932   4.144   0.601  0.1279  0.5507 -0.5483
 1556TIP3    H1 4632   1.987   4.215   0.633  1.2955 -0.7963  0.5412
 1556TIP3    H2 4633   1.924   4.160   0.507  2.2678  0.8682 -0.7103
 1557TIP3   OH2 4634   0.694   1.083   3.070 -0.0492  0.0593 -0.4573
 1557TIP3    H1 4635   0.768   1.043   3.114 -1.3869 -1.8245  0.2250
 1557TIP3    H2 4636   0.681   1.030   2.992 -1.8727 -0.9784  0.4734
 1558TIP3   OH2 4637   1.332   1.114   0.861  0.1396  0.2282  0.4290
 1558TIP3    H1 4638   1.388   1.091   0.935 -0.8508 -0.1778  1.0681
 1558TIP3    H2 4639   1.389   1.105   0.784  0.6919 -1.1175  0.9738
 1559TIP3   OH2 4640   2.426   0.744   5.509  0.7031 -0.3112 -0.4856
 1559TIP3    H1 4641   2.442   0.828   5.465  1.4012  0.8140  1.7965
 1559TIP3    H2 4642   2.361   0.764   5.576  3.7774 -0.5021  2.8627
 1560TIP3   OH2 4643   0.112   6.458   1.556  0.5161 -0.0082  0.0472
 1560TIP3    H1 4644   0.187   6.437   1.612  0.3813  0.8080  0.5367
 1560TIP3    H2 4645   0.041   6.405   1.591  0.9220 -1.0289 -0.6139
 1561TIP3   OH2 4646   5.525   5.840   1.455 -0.5643  0.1954 -0.2487
 1561TIP3    H1 4647   5.520   5.857   1.361 -1.5313  0.8209 -0.0972
 1561TIP3    H2 4648   5.619   5.840   1.474 -0.3841  2.4520 -0.8257
 1562TIP3   OH2 4649   5.048   6.411   1.932 -0.2593 -0.1961  0.8246
 1562TIP3    H1 4650   5.126   6.376   1.975 -0.2443 -0.4618  0.5746
 1562TIP3    H2 4651   5.063   6.398   1.839  0.5246  2.0323  0.5887
 1563TIP3   OH2 4652   5.546   5.608   2.531 -0.0576  0.7107 -0.3926
 1563TIP3    H1 4653   5.479   5.593   2.464  1.1607 -0.6320 -1.3536
 1563TIP3    H2 4654   5.625   5.629   2.482  1.1558 -1.4286  0.5164
 1564TIP3   OH2 4655   2.923   5.319   4.209  0.6632  0.0977  0.2408
 1564TIP3    H1 4656   2.899   5.255   4.143  0.7836  0.1413  0.1543
 1564TIP3    H2 4657   2.929   5.269   4.291  1.1096 -0.0676  0.1086
 1565TIP3   OH2 4658   3.686   4.638   4.609 -0.1382 -0.0432  0.4452
 1565TIP3    H1 4659   3.676   4.611   4.700 -1.1569  0.9549  0.6572
 1565TIP3    H2 4660   3.604   4.613   4.567 -0.4005  1.0922  0.2447
 1566TIP3   OH2 4661   2.068   3.576   5.254 -0.3997  0.1239 -0.2447
 1566TIP3    H1 4662   2.006   3.530   5.311  0.1982  1.0912  1.2606
 1566TIP3    H2 4663   2.054   3.668   5.274  1.0954  0.3936 -0.3129
 1567TIP3   OH2 4664   4.757   3.581   0.580  0.1901 -0.0612  0.2409
 1567TIP3    H1 4665   4.820   3.550   0.515  0.6671  0.6465  0.3682
 1567TIP3    H2 4666   4.672   3.569   0.537  0.5512  1.3435 -0.9245
 1568TIP3   OH2 4667   4.113   4.988   0.310  0.3532 -0.1287  0.3426
 1568TIP3    H1 4668   4.153   4.914   0.264 -0.8709 -1.7509  1.7620
 1568TIP3    H2 4669   4.143   4.980   0.400 -0.6402  0.4695  0.7497
 1569TIP3   OH2 4670   5.487   1.518   2.577 -0.9997 -0.1960  0.0328
 1569TIP3    H1 4671   5.522   1.541   2.491  0.6964 -2.2989  0.0937
 1569TIP3    H2 4672   5.456   1.601   2.613  1.0007  1.2613 -1.3817
 1570TIP3   OH2 4673   4.742   0.831   0.140 -0.3571  0.0745  0.0814
 1570TIP3    H1 4674   4.711   0.817   0.230 -0.7556  0.0823 -0.0521
 1570TIP3    H2 4675   4.801   0.758   0.123 -0.5993 -0.1519  0.2088
 1571TIP3   OH2 4676   4.546   4.177   1.809  0.2371 -0.2831  0.1906
 1571TIP3    H1 4677   4.481   4.240   1.839  0.0242 -1.3494  2.2178
 1571TIP3    H2 4678   4.630   4.212   1.838  0.1828 -0.5697  0.7216
 1572TIP3   OH2 4679   1.955   3.633   3.131 -0.1665  0.0009 -0.6672
 1572TIP3    H1 4680   1.983   3.542   3.137  1.3985  0.4231 -1.1399
 1572TIP3    H2 4681   2.006   3.670   3.060  0.8103  1.7771  0.8538
 1573TIP3   OH2 4682   1.102   6.172   3.252  0.0781  0.8384 -0.1971
 1573TIP3    H1 4683   1.138   6.141   3.169 -1.5108  0.4398 -0.7753
 1573TIP3    H2 4684   1.031   6.111   3.271 -0.9602  2.1714  0.3514
 1574TIP3   OH2 4685   6.220   1.116   0.397  0.1662  0.0063  0.0233
 1574TIP3    H1 4686   6.209   1.209   0.378 -0.0250  0.7933  3.2964
 1574TIP3    H2 4687   6.306   1.095   0.362  0.7848  1.8013  0.3232
 1575TIP3   OH2 4688   2.996   4.384   2.508  0.2777 -0.5687 -0.0011
 1575TIP3    H1 4689   2.984   4.468   2.551  0.8880  0.0225 -0.9447
 1575TIP3    H2 4690   2.988   4.319   2.578 -0.7653  0.2319  0.6369
 1576TIP3   OH2 4691   2.837   1.225   5.559  0.5190 -0.1944 -0.2130
 1576TIP3    H1 4692   2.896   1.247   5.631  0.9901 -1.3343 -0.2206
 1576TIP3    H2 4693   2.840   1.129   5.554 -0.0078 -0.1736 -1.3231
 1577TIP3   OH2 4694   0.509   6.580   4.440 -0.3513 -0.0720  0.0738
 1577TIP3    H1 4695   0.527   6.584   4.534  2.1890 -0.4579 -0.3123
 1577TIP3    H2 4696   0.577   6.635   4.401 -0.3269 -1.2478 -1.6195
 1578TIP3   OH2 4697   6.895   4.521   5.826  0.1795 -0.5087 -0.0214
 1578TIP3    H1 4698   6.889   4.532   5.731  1.4737 -0.9639 -0.1744
 1578TIP3    H2 4699   6.980   4.558   5.849 -0.5547  0.5220  1.1261
 1579TIP3   OH2 4700   2.713   6.440   1.997  0.0944 -0.4888  0.4761
 1579TIP3    H1 4701   2.704   6.442   1.902  2.4522 -2.9989  0.0808
 1579TIP3    H2 4702   2.634   6.483   2.029 -1.7201 -1.2541 -2.5562
 1580TIP3   OH2 4703   4.774   1.114   4.426  0.0697  0.3493  0.3293
 1580TIP3    H1 4704   4.787   1.130   4.519  1.8703  0.8560  0.0277
 1580TIP3    H2 4705   4.814   1.190   4.383 -0.2284 -0.1484 -0.8658
 1581TIP3   OH2 4706   3.222   4.312   5.023  0.5732  0.5565  1.0293
 1581TIP3    H1 4707   3.169   4.236   4.995  0.3841  0.1280  2.4931
 1581TIP3    H2 4708   3.199   4.381   4.961  0.1229 -0.3415  0.1695
 1582TIP3   OH2 4709   1.785   5.230   2.829  0.0970 -0.2137  0.1223
 1582TIP3    H1 4710   1.831   5.150   2.803 -1.1995 -0.5686 -1.2559
 1582TIP3    H2 4711   1.854   5.292   2.850  1.1496 -1.8769  1.9216
 1583TIP3   OH2 4712   4.607   5.770   0.099 -0.5215  0.2312 -0.6082
 1583TIP3    H1 4713   4.584   5.747   0.189 -1.9009  1.2924 -0.6583
 1583TIP3    H2 4714   4.545   5.840   0.075 -0.3962 -0.2480 -2.4881
 1584TIP3   OH2 4715   0.973   5.205   0.338  0.0499  0.7212  0.2955
 1584TIP3    H1 4716   1.066   5.214   0.317  0.4816  1.4542  2.2798
 1584TIP3    H2 4717   0.966   5.120   0.381 -0.1810  0.6826  0.1826
 1585TIP3   OH2 4718   5.321   2.579   0.059  0.4067  0.4062  0.4605
 1585TIP3    H1 4719   5.249   2.574  -0.004  1.0539  0.7708 -0.3263
 1585TIP3    H2 4720   5.309   2.664   0.103 -0.1349  0.0829  0.9505
 1586TIP3   OH2 4721   2.085   3.983   3.292 -0.8079  0.5794  0.1785
 1586TIP3    H1 4722   2.018   4.041   3.328 -1.1163 -1.6542  3.7303
 1586TIP3    H2 4723   2.148   3.972   3.363 -0.1397 -2.3581 -0.7379
 1587TIP3   OH2 4724   2.387   6.443   3.283  0.2402 -0.9285  0.1455
 1587TIP3    H1 4725   2.378   6.538   3.290  0.0664 -0.9059 -0.3080
 1587TIP3    H2 4726   2.307   6.408   3.322 -0.6249 -0.8167 -1.4468
 1588TIP3   OH2 4727   3.645   1.139   1.224 -0.1677  0.1692  0.2260
 1588TIP3    H1 4728   3.708   1.154   1.154 -0.2967 -2.3594 -0.5040
 1588TIP3    H2 4729   3.690   1.168   1.303  0.7335  1.1859 -0.6241
 1589TIP3   OH2 4730   6.233   5.051   1.491  0.9991  0.2918 -0.3313
 1589TIP3    H1 4731   6.168   5.122   1.491  1.7116  1.0406 -2.4256
 1589TIP3    H2 4732   6.317   5.096   1.496  1.4113 -0.5795  0.7449
 1590TIP3   OH2 4733   6.927   2.130   2.167 -0.1050 -0.1749  0.1997
 1590TIP3    H1 4734   6.854   2.104   2.223 -0.0898  1.1909  0.9083
 1590TIP3    H2 4735   6.983   2.183   2.225  0.8123 -0.1861 -0.6547
 1591TIP3   OH2 4736   3.456   3.200   3.212 -0.1147  0.1005  0.5436
 1591TIP3    H1 4737   3.444   3.216   3.306 -2.3993 -1.0118  0.4975
 1591TIP3    H2 4738   3.388   3.253   3.170  0.4361  0.0391 -0.4422
 1592TIP3   OH2 4739   3.818   0.458   5.525  0.6713  0.7567 -0.5638
 1592TIP3    H1 4740   3.816   0.401   5.448 -0.9754 -1.9593  1.3095
 1592TIP3    H2 4741   3.736   0.506   5.521 -0.6506 -1.2856  0.7209
 1593TIP3   OH2 4742   1.434   6.455   5.323  0.8165 -0.0716 -0.4522
 1593TIP3    H1 4743   1.373   6.397   5.369 -0.0935  1.1937  0.0044
 1593TIP3    H2 4744   1.483   6.397   5.265  1.3533 -1.5906  1.4165
 1594TIP3   OH2 4745   3.911   0.471   3.623  0.5136  0.1413 -0.8449
 1594TIP3    H1 4746   3.830   0.425   3.645  0.3647 -0.1184 -1.8903
 1594TIP3    H2 4747   3.938   0.432   3.540  0.5302  1.7565 -1.6173
 1595TIP3   OH2 4748   5.832   3.376   1.444 -0.4976 -0.4678 -0.2051
 1595TIP3    H1 4749   5.874   3.457   1.413  0.6673 -0.8108  0.4363
 1595TIP3    H2 4750   5.740   3.400   1.452 -0.0342  1.1452  0.9824
 1596TIP3   OH2 4751   0.100   2.393   5.162 -0.3904 -0.3153  0.0301
 1596TIP3    H1 4752   0.112   2.460   5.094 -1.9454 -1.6747 -1.6903
 1596TIP3    H2 4753   0.051   2.436   5.231 -0.1144  0.6912 -0.3882
 1597TIP3   OH2 4754   4.781   4.131   5.120  0.0173 -0.1175  0.0694
 1597TIP3    H1 4755   4.719   4.127   5.192 -0.5547  1.4612 -0.3091
 1597TIP3    H2 4756   4.865   4.107   5.159 -0.5187 -0.6409  0.9344
 1598TIP3   OH2 4757   1.165   3.972   1.947  0.3381 -0.4864  0.3177
 1598TIP3    H1 4758   1.256   3.969   1.917  0.4054  0.4614  0.3921
 1598TIP3    H2 4759   1.160   4.052   1.999 -0.1279 -1.3482  1.6706
 1599TIP3   OH2 4760   3.104   3.034   4.130 -0.0614  0.1964 -0.5629
 1599TIP3    H1 4761   3.197   3.027   4.107 -0.2292  3.6675 -3.1047
 1599TIP3    H2 4762   3.101   3.102   4.197 -0.6254 -2.3212  2.1708
 1600TIP3   OH2 4763   2.881   2.840   0.602  0.5661 -0.2049  0.1184
 1600TIP3    H1 4764   2.881   2.904   0.530 -1.9523 -1.8674 -1.5614
 1600TIP3    H2 4765   2.822   2.877   0.667 -0.8140 -0.6538 -0.8097
 1601TIP3   OH2 4766   6.783   3.222   3.185  0.0248  0.0261 -0.7320
 1601TIP3    H1 4767   6.811   3.278   3.113 -1.1839  0.6037 -0.7690
 1601TIP3    H2 4768   6.855   3.159   3.196  1.6336  1.8359 -0.3712
 1602TIP3   OH2 4769   0.586   0.092   1.759  0.0239  0.5493 -0.5399
 1602TIP3    H1 4770   0.615   0.156   1.693  0.4811 -0.5711 -1.4462
 1602TIP3    H2 4771   0.651   0.100   1.829  2.4330 -1.5707 -2.3267
 1603TIP3   OH2 4772   5.616   2.593   0.162 -0.0373 -0.3214 -0.1796
 1603TIP3    H1 4773   5.685   2.646   0.123 -0.8805  1.7956  1.0058
 1603TIP3    H2 4774   5.535   2.631   0.129 -0.6816 -0.5348  1.0868
 1604TIP3   OH2 4775   5.894   4.919   0.869 -0.1119 -0.1590 -0.1069
 1604TIP3    H1 4776   5.923   4.935   0.959 -1.3268 -1.2214  0.5096
 1604TIP3    H2 4777   5.972   4.931   0.816  0.6718  0.2993  1.1118
 1605TIP3   OH2 4778   5.898   0.321   5.755  0.1848 -0.0156  0.0314
 1605TIP3    H1 4779   5.880   0.254   5.689  3.3577  0.4926 -1.5515
 1605TIP3    H2 4780   5.948   0.275   5.822  2.5510  0.6576 -1.1590
 1606TIP3   OH2 4781   1.264   0.442   2.483 -0.0716  0.2535  0.4100
 1606TIP3    H1 4782   1.274   0.362   2.431 -0.5302  0.4872 -0.0473
 1606TIP3    H2 4783   1.170   0.449   2.498  0.0750  0.0254  1.5475
 1607TIP3   OH2 4784   3.387   1.824   3.444 -0.2432 -0.3679  0.4098
 1607TIP3    H1 4785   3.308   1.772   3.452  0.3487 -1.0713  2.4991
 1607TIP3    H2 4786   3.427   1.820   3.531  1.5478  0.8269 -0.2891
 1608TIP3   OH2 4787   6.107   2.890   1.848 -0.1402 -0.0628  0.2996
 1608TIP3    H1 4788   6.122   2.967   1.902  0.2976 -0.4384  0.7284
 1608TIP3    H2 4789   6.194   2.865   1.816 -0.5547  1.1635 -2.0343
 1609TIP3   OH2 4790   0.461   2.700   4.121  0.1328  0.4678 -0.0187
 1609TIP3    H1 4791   0.425   2.675   4.206 -1.9773  0.9280 -0.7144
 1609TIP3    H2 4792   0.471   2.795   4.126 -1.1845  0.6648 -0.6585
 1610TIP3   OH2 4793   6.760   4.573   2.897  0.3107  0.2341  0.5378
 1610TIP3    H1 4794   6.681   4.520   2.897  0.2366  0.3405  0.8024
 1610TIP3    H2 4795   6.802   4.555   2.813  0.2427 -0.1782  0.5925
 1611TIP3   OH2 4796   5.372   5.381   0.846 -0.0636 -0.3044  0.2822
 1611TIP3    H1 4797   5.277   5.396   0.839  0.1808  0.5871 -2.4365
 1611TIP3    H2 4798   5.384   5.288   0.825 -0.3560 -0.5320  1.1012
 1612TIP3   OH2 4799   0.965   5.202   0.669  0.7927  0.3900  0.8166
 1612TIP3    H1 4800   1.003   5.258   0.736  2.1094 -0.4597  0.8324
 1612TIP3    H2 4801   1.041   5.170   0.619  0.1050 -1.3286  0.7891
 1613TIP3   OH2 4802   4.050   1.297   0.317 -0.3761  0.6903 -0.1038
 1613TIP3    H1 4803   3.957   1.313   0.304 -1.6008 -4.8536 -0.9920
 1613TIP3    H2 4804   4.056   1.265   0.407  0.8844  1.7675  0.2182
 1614TIP3   OH2 4805   3.985   2.906   2.503 -0.3914  0.4074  0.4041
 1614TIP3    H1 4806   3.983   2.860   2.587 -0.6001 -0.5004 -0.0806
 1614TIP3    H2 4807   3.918   2.974   2.511 -1.3688 -0.5307  0.5258
 1615TIP3   OH2 4808   7.062   2.341   0.734  0.2388  0.2546  0.1901
 1615TIP3    H1 4809   7.153   2.368   0.724  0.4877 -0.9039 -1.1387
 1615TIP3    H2 4810   7.015   2.421   0.757  1.5621  0.9022  0.7150
 1616TIP3   OH2 4811   1.879   5.673   3.742  0.1357  0.1286  0.2114
 1616TIP3    H1 4812   1.913   5.696   3.656 -1.7810  2.1322 -0.1024
 1616TIP3    H2 4813   1.880   5.755   3.791 -2.1947 -0.1424  0.8352
 1617TIP3   OH2 4814   5.245   5.142   5.496  0.2749  0.3609 -0.1157
 1617TIP3    H1 4815   5.175   5.076   5.501 -0.4626  1.1757  1.2436
 1617TIP3    H2 4816   5.326   5.092   5.501 -0.2569 -0.5063 -0.0102
 1618TIP3   OH2 4817   3.808   2.654   4.806 -0.2477  0.6772 -0.3158
 1618TIP3    H1 4818   3.738   2.662   4.741  0.4892  2.9381 -0.9285
 1618TIP3    H2 4819   3.770   2.687   4.887 -0.6128 -0.4473 -0.0090
 1619TIP3   OH2 4820   1.329   0.209   5.389  0.3361 -0.1537 -0.3828
 1619TIP3    H1 4821   1.247   0.164   5.369  0.6393 -1.6442  1.4829
 1619TIP3    H2 4822   1.305   0.302   5.393 -1.7466 -0.6917  2.0539
 1620TIP3   OH2 4823   2.424   4.830   0.635 -0.0773 -0.3509 -0.1062
 1620TIP3    H1 4824   2.519   4.842   0.633 -0.1478  0.1886 -0.3881
 1620TIP3    H2 4825   2.395   4.883   0.709 -0.1818 -0.3357 -0.1581
 1621TIP3   OH2 4826   0.323   0.378   0.517  0.0186 -0.2263 -0.1437
 1621TIP3    H1 4827   0.347   0.331   0.597  0.3755 -0.5231 -0.4220
 1621TIP3    H2 4828   0.230   0.361   0.505  0.3600 -1.8063 -0.8532
 1622TIP3   OH2 4829   1.140   3.594   5.862 -0.5830  0.0522 -0.3261
 1622TIP3    H1 4830   1.178   3.512   5.828  0.4970  0.8454 -1.1146
 1622TIP3    H2 4831   1.162   3.593   5.955 -0.1353 -0.3251 -0.4277
 1623TIP3   OH2 4832   0.635   3.265   0.838 -0.0342  0.1204  0.1748
 1623TIP3    H1 4833   0.608   3.355   0.817  1.1476  0.1958 -1.2025
 1623TIP3    H2 4834   0.554   3.215   0.835 -0.5589  0.9616 -0.1530
 1624TIP3   OH2 4835   4.434   5.018   3.704  0.0676  0.3135  0.2737
 1624TIP3    H1 4836   4.389   5.096   3.736 -0.4173 -0.0724  0.5457
 1624TIP3    H2 4837   4.442   4.961   3.781 -1.6800 -0.9034 -0.3862
 1625TIP3   OH2 4838   0.927   5.594   3.887 -0.2137  0.3105  0.2610
 1625TIP3    H1 4839   0.929   5.505   3.921 -1.2444  0.3967  0.5788
 1625TIP3    H2 4840   0.834   5.615   3.880  0.0135  1.2654 -0.0694
 1626TIP3   OH2 4841   5.769   1.637   5.023 -0.1779  0.1625  0.0012
 1626TIP3    H1 4842   5.697   1.580   4.996 -0.0564 -1.3585  2.5975
 1626TIP3    H2 4843   5.728   1.720   5.044 -1.1608 -0.5633  1.0677
 1627TIP3   OH2 4844   1.879   3.589   4.890  0.3438 -0.3294  0.0847
 1627TIP3    H1 4845   1.957   3.636   4.862 -0.3244  0.7781  0.0432
 1627TIP3    H2 4846   1.847   3.638   4.966 -0.5018 -0.5545 -0.1109
 1628TIP3   OH2 4847   4.984   1.393   3.169 -0.3644 -0.3138 -0.5399
 1628TIP3    H1 4848   5.069   1.350   3.171 -0.6846 -0.9371  0.7507
 1628TIP3    H2 4849   5.002   1.483   3.199 -0.2695 -0.6582  0.4543
 1629TIP3   OH2 4850   3.451   3.487   0.579  0.2724  0.3046  0.4920
 1629TIP3    H1 4851   3.362   3.516   0.559 -0.2929 -1.1680  0.8162
 1629TIP3    H2 4852   3.471   3.526   0.664 -0.3732 -0.0174  0.7941
 1630TIP3   OH2 4853   2.712   5.546   3.489 -0.8722  0.4393  0.3959
 1630TIP3    H1 4854   2.692   5.460   3.526 -2.6194 -0.1297 -1.6325
 1630TIP3    H2 4855   2.773   5.528   3.417 -2.3262  0.6352 -0.9456
 1631TIP3   OH2 4856   4.639   5.392   0.536  0.2755 -0.3068  0.4361
 1631TIP3    H1 4857   4.549   5.377   0.565 -0.6486  1.3932 -1.2843
 1631TIP3    H2 4858   4.679   5.305   0.536 -2.1240 -1.5399 -1.0380
 1632TIP3   OH2 4859   6.494   0.916   0.097  0.2015 -0.2086 -0.7186
 1632TIP3    H1 4860   6.443   0.901   0.017 -0.9594 -0.1479 -0.0104
 1632TIP3    H2 4861   6.538   0.833   0.114 -1.4848 -1.0258 -0.0966
 1633TIP3   OH2 4862   1.870   0.256   1.986 -0.0253  0.1773 -0.1717
 1633TIP3    H1 4863   1.932   0.263   1.913 -0.0553 -0.5595 -0.2744
 1633TIP3    H2 4864   1.806   0.191   1.957 -0.8009  0.8610 -0.0250
 1634TIP3   OH2 4865   7.152   5.488   5.528  0.2340  0.1389  0.8246
 1634TIP3    H1 4866   7.218   5.536   5.577 -0.0173 -0.1582  1.4809
 1634TIP3    H2 4867   7.085   5.467   5.593  0.0398 -0.5423  0.4197
 1635TIP3   OH2 4868   0.596   2.233   0.690  0.0825  0.1456  0.1480
 1635TIP3    H1 4869   0.680   2.192   0.709 -0.3392 -1.5150 -1.3381
 1635TIP3    H2 4870   0.605   2.268   0.601 -0.9163 -0.4148 -0.1889
 1636TIP3   OH2 4871   5.786   1.643   1.303  1.6509 -0.2698 -0.3588
 1636TIP3    H1 4872   5.786   1.723   1.250 -0.3757 -0.9776 -1.5609
 1636TIP3    H2 4873   5.772   1.674   1.392  0.9670  0.7517 -0.7927
 1637TIP3   OH2 4874   1.165   1.861   4.373 -0.0984  0.1867  0.1476
 1637TIP3    H1 4875   1.237   1.823   4.323  0.5242  1.9459 -0.3848
 1637TIP3    H2 4876   1.121   1.786   4.414 -1.4341 -1.5446 -3.9586
 1638TIP3   OH2 4877   2.557   1.982   3.255  0.0884 -0.5063  0.5381
 1638TIP3    H1 4878   2.646   1.964   3.225 -0.4747 -1.3199 -0.7122
 1638TIP3    H2 4879   2.538   1.912   3.317  0.3558 -0.2614  0.8997
 1639TIP3   OH2 4880   3.748   5.485   1.411  0.3668 -0.2201 -0.2617
 1639TIP3    H1 4881   3.825   5.454   1.459  0.4108 -0.0555 -0.2279
 1639TIP3    H2 4882   3.674   5.447   1.458  0.4211 -0.2877 -0.2293
 1640TIP3   OH2 4883   2.328   2.834   1.783  0.0921  0.5414  0.1547
 1640TIP3    H1 4884   2.366   2.773   1.721  0.0999  0.4228  0.2768
 1640TIP3    H2 4885   2.301   2.909   1.729  2.4602  1.6025  0.3183
 1641TIP3   OH2 4886   3.964   1.871   5.393  0.1809 -0.4140  0.1292
 1641TIP3    H1 4887   3.970   1.931   5.467 -0.4742  1.0666 -0.9516
 1641TIP3    H2 4888   3.941   1.787   5.431 -2.3555  0.7748  1.4677
 1642TIP3   OH2 4889   1.302   1.552   1.571  0.1678 -0.0835 -0.2640
 1642TIP3    H1 4890   1.298   1.547   1.476 -1.6787 -1.4412 -0.1654
 1642TIP3    H2 4891   1.264   1.638   1.592  3.2904  1.5613 -0.7899
 1643TIP3   OH2 4892   0.571   6.401   1.834 -0.4259 -0.3475 -0.3535
 1643TIP3    H1 4893   0.601   6.314   1.808  1.3267 -0.3138  1.3743
 1643TIP3    H2 4894   0.650   6.447   1.862 -1.6821  0.8217  1.4747
 1644TIP3   OH2 4895   3.754   5.477   2.885 -0.2406 -0.0889 -0.1158
 1644TIP3    H1 4896   3.659   5.473   2.895 -0.3512 -0.2512 -1.1807
 1644TIP3    H2 4897   3.769   5.544   2.818  0.2451 -1.7906 -1.7865
 1645TIP3   OH2 4898   3.307   1.567   5.457  0.0458 -0.3065  0.2386
 1645TIP3    H1 4899   3.350   1.531   5.534 -0.5676  0.5511  1.0000
 1645TIP3    H2 4900   3.354   1.529   5.383  0.0780 -1.8565  1.0143
 1646TIP3   OH2 4901   1.443   4.803   2.697 -0.3774  0.0199 -0.2589
 1646TIP3    H1 4902   1.531   4.811   2.661  0.4443  0.1943  1.6289
 1646TIP3    H2 4903   1.448   4.726   2.754 -0.3872  1.8770  2.4692
 1647TIP3   OH2 4904   5.243   2.540   1.991 -0.5765  0.4482 -0.1741
 1647TIP3    H1 4905   5.188   2.618   1.997  0.9137  1.5166  0.1163
 1647TIP3    H2 4906   5.182   2.467   2.000 -2.2011  1.5212 -1.7545
 1648TIP3   OH2 4907   7.032   4.153   1.459  0.1457  0.2113 -0.1489
 1648TIP3    H1 4908   6.995   4.087   1.401  2.2453 -0.9672 -0.2366
 1648TIP3    H2 4909   7.123   4.126   1.471  0.3791  1.6938  1.8736
 1649TIP3   OH2 4910   6.157   1.034   3.212  0.3622 -0.5878 -0.0997
 1649TIP3    H1 4911   6.140   0.943   3.189  0.6163 -1.1441  1.7172
 1649TIP3    H2 4912   6.148   1.036   3.307  2.7946  0.7287  0.1812
 1650TIP3   OH2 4913   4.690   5.006   5.403 -0.3387  0.0946  0.2067
 1650TIP3    H1 4914   4.768   4.967   5.365  0.6519  2.2638 -0.1288
 1650TIP3    H2 4915   4.635   5.029   5.327 -0.8984 -0.5847  0.3958
 1651TIP3   OH2 4916   6.738   3.439   2.322 -0.0994 -0.2471 -0.0026
 1651TIP3    H1 4917   6.665   3.379   2.340  0.4238 -1.3269 -1.2905
 1651TIP3    H2 4918   6.704   3.525   2.346 -2.1910 -0.5707 -1.4731
 1652TIP3   OH2 4919   4.236   5.009   2.353  0.1548  0.2750 -0.0778
 1652TIP3    H1 4920   4.182   5.038   2.279 -0.6731  0.0516  0.4296
 1652TIP3    H2 4921   4.315   4.974   2.312  0.6970  2.1616 -0.7640
 1653TIP3   OH2 4922   5.121   4.238   3.154 -0.5194 -0.9754  0.3657
 1653TIP3    H1 4923   5.183   4.303   3.188 -2.4976  0.9967  0.4378
 1653TIP3    H2 4924   5.146   4.227   3.062 -0.4713  0.3630  0.1936
 1654TIP3   OH2 4925   1.100   0.183   2.780 -0.1053 -0.5305 -0.0337
 1654TIP3    H1 4926   1.143   0.175   2.695 -0.6909  1.6755 -0.5876
 1654TIP3    H2 4927   1.006   0.180   2.760 -0.2689  0.9641  0.3651
 1655TIP3   OH2 4928   3.986   2.443  -0.009  0.2782  0.4584 -0.6752
 1655TIP3    H1 4929   3.938   2.526   0.000  2.9332  2.1391 -1.0221
 1655TIP3    H2 4930   4.040   2.438   0.070 -0.1846 -1.2529 -0.4216
 1656TIP3   OH2 4931   4.910   5.571   1.501  0.4051 -0.5272  0.2874
 1656TIP3    H1 4932   4.971   5.624   1.450  0.2615 -1.8303 -1.3295
 1656TIP3    H2 4933   4.866   5.516   1.436 -1.4257 -0.6939  1.5684
 1657TIP3   OH2 4934   4.953   0.202   0.229  0.4476  0.0104 -0.1451
 1657TIP3    H1 4935   4.901   0.167   0.301  1.0302 -1.2558 -0.3199
 1657TIP3    H2 4936   4.891   0.211   0.157 -0.2039  1.5590  0.5623
 1658TIP3   OH2 4937   6.104   2.421   3.876  0.1292 -0.1347  0.0967
 1658TIP3    H1 4938   6.098   2.334   3.915  0.1610 -0.6597 -1.0151
 1658TIP3    H2 4939   6.015   2.455   3.878 -0.1170 -0.7139 -0.5800
 1659TIP3   OH2 4940   6.353   1.492   1.745  0.4179  0.0720  1.1895
 1659TIP3    H1 4941   6.397   1.411   1.720  1.7200  1.1511 -0.1970
 1659TIP3    H2 4942   6.407   1.562   1.707 -0.9489  1.5791  1.8815
 1660TIP3   OH2 4943   4.842   0.985   1.923  0.2495  0.0771  0.2400
 1660TIP3    H1 4944   4.898   1.048   1.969 -0.1978  1.4129 -0.9762
 1660TIP3    H2 4945   4.763   1.035   1.901  0.7255 -0.2498 -2.5820
 1661TIP3   OH2 4946   0.350   4.134   4.699  0.4238 -0.0440  0.2326
 1661TIP3    H1 4947   0.372   4.170   4.614 -0.1090 -0.5641 -0.1326
 1661TIP3    H2 4948   0.321   4.044   4.681 -0.1322 -0.0138  0.9056
 1662TIP3   OH2 4949   6.340   0.800   1.202 -0.2955 -0.4002  0.3647
 1662TIP3    H1 4950   6.382   0.859   1.139 -2.7065 -0.3440 -1.3653
 1662TIP3    H2 4951   6.367   0.713   1.174  1.1917 -0.2752  1.3067
 1663TIP3   OH2 4952   1.249   5.757   2.719  0.8338  0.6828 -0.1458
 1663TIP3    H1 4953   1.253   5.852   2.709  2.4822  0.4315 -2.8666
 1663TIP3    H2 4954   1.189   5.729   2.650  0.1975 -0.2780  0.7674
 1664TIP3   OH2 4955   1.901   0.248   5.679  0.2867  0.0470  0.1611
 1664TIP3    H1 4956   1.878   0.182   5.745  1.1073  1.1677  1.6183
 1664TIP3    H2 4957   1.947   0.198   5.611 -2.2749 -1.4571 -0.6034
 1665TIP3   OH2 4958   3.050   2.143   3.070 -0.6841 -0.6567 -0.4327
 1665TIP3    H1 4959   3.022   2.140   2.979  1.4904 -1.5554 -1.1331
 1665TIP3    H2 4960   3.145   2.159   3.066 -0.8083  1.1609  1.7368
 1666TIP3   OH2 4961   4.050   3.986   3.731  0.5789  0.1308 -0.5188
 1666TIP3    H1 4962   3.989   3.922   3.769  0.7572 -1.9329 -3.3509
 1666TIP3    H2 4963   4.093   4.026   3.807 -1.0815 -1.5706  1.4654
 1667TIP3   OH2 4964   0.284   1.417   4.761  0.4586 -0.4189  0.1359
 1667TIP3    H1 4965   0.225   1.455   4.695  0.3581 -0.7808  0.0170
 1667TIP3    H2 4966   0.249   1.330   4.778 -0.8372  0.4407  2.3238
 1668TIP3   OH2 4967   4.254   3.158   4.322 -0.0928 -0.0331  0.2288
 1668TIP3    H1 4968   4.298   3.242   4.330 -0.0085  0.2136 -2.0571
 1668TIP3    H2 4969   4.164   3.174   4.351  0.4960  0.1962  2.0629
 1669TIP3   OH2 4970   4.415   4.091   0.189 -0.1119 -0.0130 -0.1566
 1669TIP3    H1 4971   4.498   4.094   0.142 -0.0078 -1.4004 -0.0906
 1669TIP3    H2 4972   4.438   4.066   0.278 -0.5219  0.4608  0.0876
 1670TIP3   OH2 4973   2.925   2.119   2.813  0.2173  0.9785 -0.1986
 1670TIP3    H1 4974   2.890   2.030   2.819 -0.6138  1.2728 -0.5467
 1670TIP3    H2 4975   2.868   2.162   2.749  0.0045  2.0451  0.6893
 1671TIP3   OH2 4976   6.031   1.057   2.536 -0.3641  0.1312  0.0028
 1671TIP3    H1 4977   5.996   1.020   2.617 -1.1809 -0.9173 -0.8147
 1671TIP3    H2 4978   6.014   0.991   2.469 -2.0512  2.0382 -1.5648
 1672TIP3   OH2 4979   0.696   3.667   0.218 -0.2556  0.2985 -0.6585
 1672TIP3    H1 4980   0.671   3.584   0.259 -0.3438  0.4397 -0.4231
 1672TIP3    H2 4981   0.766   3.701   0.274 -0.5109  0.5867 -0.5092
 1673TIP3   OH2 4982   4.755   2.651   2.175  0.4220  0.9043 -0.2748
 1673TIP3    H1 4983   4.797   2.700   2.104  1.8544 -1.3334 -1.0423
 1673TIP3    H2 4984   4.823   2.595   2.210 -1.2090 -0.7695  0.3733
 1674TIP3   OH2 4985   0.015   4.793   0.980  0.3990 -0.5780  0.2245
 1674TIP3    H1 4986   0.016   4.858   1.050  0.6316 -0.2022 -0.1291
 1674TIP3    H2 4987   0.107   4.779   0.958  0.2660  1.3763 -1.9137
 1675TIP3   OH2 4988   3.582   0.231   2.647  0.2767 -0.4568  0.0928
 1675TIP3    H1 4989   3.488   0.214   2.659  0.1869 -0.1869 -0.2366
 1675TIP3    H2 4990   3.620   0.144   2.638  0.5994 -0.8864  3.9583
 1676TIP3   OH2 4991   3.490   3.766   4.647 -0.2979  0.1974 -0.1226
 1676TIP3    H1 4992   3.534   3.787   4.564 -1.2407  0.4189 -0.5810
 1676TIP3    H2 4993   3.397   3.784   4.630 -0.9395 -2.5041  0.0518
 1677TIP3   OH2 4994   5.991   2.826   4.880  0.7682 -0.3101  0.4727
 1677TIP3    H1 4995   6.005   2.901   4.823 -0.6779 -0.1030  0.3584
 1677TIP3    H2 4996   6.010   2.858   4.968  2.1332 -0.3894  0.2334
 1678TIP3   OH2 4997   3.595   5.779   0.314  0.1058 -0.0455 -0.3333
 1678TIP3    H1 4998   3.635   5.828   0.386  1.4201  0.0055 -1.0656
 1678TIP3    H2 4999   3.663   5.718   0.286 -0.5691 -0.4249 -1.2003
 1679TIP3   OH2 5000   5.067   4.309   2.319 -0.0095  0.2918  0.1480
 1679TIP3    H1 5001   4.988   4.288   2.369 -0.6338  2.4000  0.1367
 1679TIP3    H2 5002   5.082   4.231   2.264 -2.2927 -0.0252 -0.1297
 1680TIP3   OH2 5003   6.547   1.139   2.918  0.1570 -0.3487  0.1139
 1680TIP3    H1 5004   6.607   1.213   2.908 -0.6789  0.2114 -1.0959
 1680TIP3    H2 5005   6.469   1.177   2.958  0.0976 -0.7868  0.4187
 1681TIP3   OH2 5006   5.044   3.748   0.677  0.0223  0.1450 -0.0765
 1681TIP3    H1 5007   4.986   3.824   0.672 -0.2172 -0.0764 -0.7374
 1681TIP3    H2 5008   5.076   3.737   0.587  0.4327 -0.2426  0.1153
 1682TIP3   OH2 5009   2.654   1.944   1.783 -0.0680  0.1298  0.0602
 1682TIP3    H1 5010   2.584   1.880   1.768  1.6330 -1.6738 -0.4935
 1682TIP3    H2 5011   2.651   2.000   1.705 -1.4190  0.6614  0.4472
 1683TIP3   OH2 5012   5.365   6.721   4.719  0.2272 -0.2456 -0.3791
 1683TIP3    H1 5013   5.347   6.699   4.628 -1.3546  0.9275 -0.3800
 1683TIP3    H2 5014   5.377   6.816   4.720  1.8653 -0.4123  0.4169
 1684TIP3   OH2 5015   2.252   1.998   2.028 -0.6451  0.0767  0.4543
 1684TIP3    H1 5016   2.348   1.995   2.034 -0.5014  1.8560 -0.2705
 1684TIP3    H2 5017   2.231   1.944   1.952 -0.2482 -0.5008  0.7453
 1685TIP3   OH2 5018   6.230   1.048   1.266  0.1933  0.3944 -0.4561
 1685TIP3    H1 5019   6.282   0.972   1.240 -1.8760 -0.6345 -1.8065
 1685TIP3    H2 5020   6.246   1.057   1.360  0.6306 -1.6059 -0.3013
 1686TIP3   OH2 5021   6.443   3.201   4.826  0.4585  0.1639 -0.2576
 1686TIP3    H1 5022   6.390   3.270   4.865 -0.5898 -0.3617 -0.7161
 1686TIP3    H2 5023   6.427   3.124   4.882 -0.1101 -0.2749 -1.0079
 1687TIP3   OH2 5024   1.925   6.473   3.564 -0.1764  0.1728 -0.0958
 1687TIP3    H1 5025   1.943   6.448   3.655  0.2285  1.3965  0.1730
 1687TIP3    H2 5026   1.839   6.436   3.546 -0.5935  0.5440  1.0421
 1688TIP3   OH2 5027   0.187   3.751   5.686 -0.6144 -0.4347 -0.0648
 1688TIP3    H1 5028   0.271   3.766   5.642 -0.7971 -0.2324 -0.3426
 1688TIP3    H2 5029   0.154   3.670   5.648 -1.2413  0.2528 -1.0257
 1689TIP3   OH2 5030   0.600   2.026   4.501  0.5532  0.0267 -0.7148
 1689TIP3    H1 5031   0.579   1.953   4.559  0.9282  1.4145  1.2349
 1689TIP3    H2 5032   0.692   2.013   4.478  0.6294 -0.0904 -0.3445
 1690TIP3   OH2 5033   5.936   5.675   0.744 -0.2634  0.3584  0.0011
 1690TIP3    H1 5034   5.944   5.751   0.802 -0.6540 -0.6197  1.3983
 1690TIP3    H2 5035   5.860   5.627   0.777  0.1270 -0.7841 -0.6680
 1691TIP3   OH2 5036   2.748   2.871   1.246  0.6188 -0.0745 -0.2362
 1691TIP3    H1 5037   2.683   2.879   1.316 -1.3393 -0.0096 -1.9674
 1691TIP3    H2 5038   2.802   2.950   1.255 -0.1093  0.3409  0.6758
 1692TIP3   OH2 5039   2.508   4.254   4.869  0.1897  0.0752  0.4245
 1692TIP3    H1 5040   2.530   4.329   4.923  0.5545  0.8022 -0.7050
 1692TIP3    H2 5041   2.589   4.205   4.860  0.3999  0.5699 -0.3983
 1693TIP3   OH2 5042   1.935   2.309   1.042 -0.3278  0.3844  0.3835
 1693TIP3    H1 5043   1.873   2.362   0.992 -0.3038 -0.3372 -0.4300
 1693TIP3    H2 5044   1.957   2.236   0.984 -0.5537 -0.6576  1.5720
 1694TIP3   OH2 5045   1.386   4.772   3.218  0.1453 -0.1720 -0.2002
 1694TIP3    H1 5046   1.291   4.761   3.212  0.1612 -1.3710  1.2294
 1694TIP3    H2 5047   1.408   4.829   3.144 -1.6868  0.2007 -0.5094
 1695TIP3   OH2 5048   5.058   5.240   5.847  0.8058  0.1391 -0.2446
 1695TIP3    H1 5049   5.110   5.225   5.926 -2.2201 -0.7148  1.7470
 1695TIP3    H2 5050   4.992   5.304   5.873 -1.7224 -1.8583 -1.2484
 1696TIP3   OH2 5051   4.426   4.710   0.603  0.3190 -0.6015 -0.3664
 1696TIP3    H1 5052   4.477   4.632   0.580  0.6317 -1.0440  1.6423
 1696TIP3    H2 5053   4.493   4.776   0.625  0.0508 -0.5773  0.4011
 1697TIP3   OH2 5054   2.003   4.144   1.118 -0.1065 -0.4859 -0.2106
 1697TIP3    H1 5055   2.026   4.203   1.046  1.6651  0.1774  0.8390
 1697TIP3    H2 5056   2.087   4.110   1.149 -0.4821  1.3649  3.3101
 1698TIP3   OH2 5057   2.773   6.258   3.807 -0.4090  0.0158  0.5625
 1698TIP3    H1 5058   2.784   6.214   3.892 -0.1274  2.1094  1.6722
 1698TIP3    H2 5059   2.776   6.351   3.828  0.8569  0.6122 -1.9107
 1699TIP3   OH2 5060   5.938   2.795   3.753  0.2822 -0.1141  0.7707
 1699TIP3    H1 5061   5.963   2.794   3.845  0.3541  0.6877  0.7672
 1699TIP3    H2 5062   6.020   2.812   3.706 -0.1484  2.1410  0.7342
 1700TIP3   OH2 5063   6.502   3.206   0.140 -0.5027  0.4157 -0.2579
 1700TIP3    H1 5064   6.525   3.116   0.117 -1.7610  0.5273 -2.1142
 1700TIP3    H2 5065   6.582   3.256   0.126  0.8088 -0.6529  2.7205
 1701TIP3   OH2 5066   4.921   5.811   0.951 -0.6385  0.0048  0.0794
 1701TIP3    H1 5067   4.970   5.814   0.869 -2.8328  0.0018 -1.3292
 1701TIP3    H2 5068   4.931   5.899   0.987 -0.5063  0.3511 -0.7609
 1702TIP3   OH2 5069   1.078   3.899   0.192 -0.2145 -0.7679 -0.5902
 1702TIP3    H1 5070   1.083   3.960   0.118 -0.6007 -2.2059 -1.8554
 1702TIP3    H2 5071   1.134   3.938   0.259 -0.7362  1.1541 -1.1935
 1703TIP3   OH2 5072   3.860   6.741   4.092 -0.3003 -0.4873  0.1416
 1703TIP3    H1 5073   3.833   6.781   4.009  0.6160  0.4589  0.2676
 1703TIP3    H2 5074   3.955   6.758   4.097 -0.4868  0.3177  1.8085
 1704TIP3   OH2 5075   4.084   4.842   5.113 -0.2561 -0.0594 -0.0313
 1704TIP3    H1 5076   3.989   4.853   5.122 -0.5110 -1.7917 -0.2953
 1704TIP3    H2 5077   4.104   4.762   5.161  1.0135  0.0500 -0.3405
 1705TIP3   OH2 5078   6.757   5.794   1.031 -0.1078 -0.2770 -0.3670
 1705TIP3    H1 5079   6.755   5.887   1.008  0.8124 -0.0768  0.3110
 1705TIP3    H2 5080   6.767   5.749   0.947  1.7609  0.3585 -0.5270
 1706TIP3   OH2 5081   6.565   5.433   5.551  0.8219 -0.3447 -0.2252
 1706TIP3    H1 5082   6.601   5.366   5.609  2.6553  1.0327  0.3539
 1706TIP3    H2 5083   6.514   5.490   5.609 -0.3643 -0.9582 -0.6375
 1707TIP3   OH2 5084   6.806   1.689   1.969 -0.4436 -0.0647  0.0313
 1707TIP3    H1 5085   6.822   1.648   2.055 -3.8072 -0.6745  0.5026
 1707TIP3    H2 5086   6.819   1.618   1.906  1.3002  0.2028  0.0250
 1708TIP3   OH2 5087   0.028   3.324   4.763 -0.0457 -0.2375  0.2250
 1708TIP3    H1 5088  -0.064   3.321   4.790  0.2237 -0.3582  1.1469
 1708TIP3    H2 5089   0.047   3.236   4.730 -0.0893 -0.3872  0.6005
 1709TIP3   OH2 5090   0.201   5.343   0.534 -0.7253 -0.4898 -0.7575
 1709TIP3    H1 5091   0.110   5.316   0.551 -0.5166 -1.7324 -1.5110
 1709TIP3    H2 5092   0.194   5.411   0.467 -1.1393 -0.0702 -0.2957
 1710TIP3   OH2 5093   4.633   5.683   3.894 -0.6177  0.1585 -0.3863
 1710TIP3    H1 5094   4.699   5.618   3.918 -0.0776  0.4575 -1.0401
 1710TIP3    H2 5095   4.635   5.686   3.799 -0.7547  1.0213 -0.3692
 1711TIP3   OH2 5096   5.325   2.157   3.075  0.4125 -0.0980  0.2063
 1711TIP3    H1 5097   5.330   2.209   2.995 -0.5397 -1.1228 -0.5573
 1711TIP3    H2 5098   5.393   2.192   3.132  0.3809  1.3603 -0.6317
 1712TIP3   OH2 5099   0.313   2.852   2.670 -0.8619  0.3132 -0.9119
 1712TIP3    H1 5100   0.333   2.946   2.672  0.3012  0.0850  0.8851
 1712TIP3    H2 5101   0.386   2.813   2.622  0.2738  0.0653  0.9088
 1713TIP3   OH2 5102   6.671   3.644   3.710  0.8201  0.2679  0.3207
 1713TIP3    H1 5103   6.699   3.691   3.789 -0.7692 -0.2148  1.2110
 1713TIP3    H2 5104   6.585   3.608   3.733  0.2987  0.1602 -1.6643
 1714TIP3   OH2 5105   4.977   4.304   5.300 -0.6325  0.4078  0.5430
 1714TIP3    H1 5106   5.003   4.391   5.329 -1.1289  0.9258 -0.5350
 1714TIP3    H2 5107   4.903   4.281   5.356  0.2193  0.1792  1.6032
 1715TIP3   OH2 5108   5.900   6.774   0.729  0.1220  0.0055  0.0298
 1715TIP3    H1 5109   5.862   6.804   0.811  0.6929 -0.1851  0.3704
 1715TIP3    H2 5110   5.953   6.698   0.753 -0.9172 -0.9986 -0.7436
 1716TIP3   OH2 5111   0.301   2.467   2.615  0.6622 -0.6207  0.1311
 1716TIP3    H1 5112   0.366   2.535   2.596  1.7869 -1.6604  0.1523
 1716TIP3    H2 5113   0.287   2.473   2.709 -1.2334  1.2798 -0.1901
 1717TIP3   OH2 5114   1.768   3.306   3.191  0.2230 -0.3014 -0.2082
 1717TIP3    H1 5115   1.737   3.396   3.198  0.2453 -0.2964 -0.1719
 1717TIP3    H2 5116   1.689   3.255   3.173 -0.0534 -0.4812  1.3905
 1718TIP3   OH2 5117   1.510   0.391   1.165  0.2464 -0.0546 -0.6122
 1718TIP3    H1 5118   1.460   0.470   1.146 -1.5114 -1.3099 -1.5240
 1718TIP3    H2 5119   1.543   0.362   1.080 -0.1925 -0.9484 -0.4968
 1719TIP3   OH2 5120   2.759   4.281   1.208  0.5914  0.0907 -0.2777
 1719TIP3    H1 5121   2.829   4.345   1.220  0.4776  0.0477  0.7353
 1719TIP3    H2 5122   2.708   4.286   1.289 -3.6215  3.6837 -2.6839
 1720TIP3   OH2 5123   3.349   2.834   1.104 -0.0507 -0.4464  0.3932
 1720TIP3    H1 5124   3.423   2.796   1.151  0.3399  0.3094  0.4079
 1720TIP3    H2 5125   3.356   2.800   1.015  0.6206  0.0105  0.2591
 1721TIP3   OH2 5126   5.172   1.447   4.947  0.4657 -0.3699 -0.0803
 1721TIP3    H1 5127   5.093   1.419   4.994 -0.1456  0.0898 -0.8201
 1721TIP3    H2 5128   5.189   1.376   4.885  0.7049 -0.5232  0.1593
 1722TIP3   OH2 5129   3.384   2.021   2.408 -0.4984 -0.1017  1.1199
 1722TIP3    H1 5130   3.422   2.011   2.320 -0.7087  1.7241  0.7637
 1722TIP3    H2 5131   3.363   1.932   2.436 -1.6752 -0.6604 -1.2583
 1723TIP3   OH2 5132   6.592   3.203   1.385  0.5759 -0.0410  0.2918
 1723TIP3    H1 5133   6.662   3.201   1.320  0.0129 -0.5920 -0.3147
 1723TIP3    H2 5134   6.603   3.121   1.434 -0.2976 -0.6646 -0.5267
 1724TIP3   OH2 5135   5.528   6.300   5.047 -0.1187 -0.4918  0.0428
 1724TIP3    H1 5136   5.448   6.277   5.000 -0.7272  1.5397 -0.0047
 1724TIP3    H2 5137   5.502   6.302   5.139  0.1978 -1.0540  0.1466
 1725TIP3   OH2 5138   6.767   2.099   2.382 -0.2483 -0.8822  0.4855
 1725TIP3    H1 5139   6.723   2.164   2.438 -1.6695 -1.0564 -0.3891
 1725TIP3    H2 5140   6.820   2.048   2.443  0.0255  0.3853  1.3511
 1726TIP3   OH2 5141   2.973   3.218   2.163  0.2864  0.5251  0.2076
 1726TIP3    H1 5142   3.020   3.299   2.143  1.0645  0.2806  1.0074
 1726TIP3    H2 5143   3.014   3.152   2.108 -0.8763  0.7961 -1.0484
 1727TIP3   OH2 5144   6.010   2.377   3.197 -0.1350  0.2213  0.1280
 1727TIP3    H1 5145   6.053   2.388   3.282 -0.2663 -1.1333  0.3981
 1727TIP3    H2 5146   5.984   2.465   3.171 -0.3176  0.6283  1.6177
 1728TIP3   OH2 5147   0.047   2.999   1.315 -0.1213  0.5543 -0.1022
 1728TIP3    H1 5148   0.052   2.970   1.224 -0.9599 -0.5413  0.1822
 1728TIP3    H2 5149   0.007   2.926   1.361  0.1296  1.1696  1.1231
 1729TIP3   OH2 5150   3.041   2.147   1.570 -0.5406  0.0099 -0.3057
 1729TIP3    H1 5151   3.111   2.157   1.506  1.0947 -0.8899  1.2527
 1729TIP3    H2 5152   2.985   2.079   1.534 -0.1566  0.1486 -1.1953
 1730TIP3   OH2 5153   6.736   5.084   2.932 -0.4141  0.0987  0.1813
 1730TIP3    H1 5154   6.738   5.165   2.983  1.2857  0.9249 -1.0833
 1730TIP3    H2 5155   6.786   5.104   2.853 -1.9929 -1.4656 -1.3202
 1731TIP3   OH2 5156   3.490   6.068   2.428 -0.0006 -0.3012  0.0090
 1731TIP3    H1 5157   3.517   6.015   2.353  1.9173 -0.6580  0.8847
 1731TIP3    H2 5158   3.543   6.035   2.501 -0.3466  1.3716  1.0708
 1732TIP3   OH2 5159   5.175   2.632   4.768 -0.2135  0.0815 -0.3555
 1732TIP3    H1 5160   5.166   2.707   4.710 -0.7619 -0.2282 -0.6796
 1732TIP3    H2 5161   5.086   2.612   4.797  0.0849  0.4846  0.9321
 1733TIP3   OH2 5162   1.741   6.775   0.233 -0.7142 -0.3389  0.1974
 1733TIP3    H1 5163   1.779   6.687   0.239 -0.4953 -0.2294  0.4329
 1733TIP3    H2 5164   1.755   6.801   0.142 -1.5710 -0.8994 -0.1157
 1734TIP3   OH2 5165   4.380   0.743   0.867  0.2181 -0.1165  0.5616
 1734TIP3    H1 5166   4.416   0.665   0.824  0.0903 -1.1872  2.2970
 1734TIP3    H2 5167   4.371   0.807   0.797 -2.2517 -2.5185 -1.5201
 1735TIP3   OH2 5168   3.620   4.796   5.746 -0.1537 -0.4229  1.0401
 1735TIP3    H1 5169   3.592   4.879   5.784 -0.7696 -0.0392 -0.1903
 1735TIP3    H2 5170   3.614   4.810   5.651  1.9021 -1.1337  0.7516
 1736TIP3   OH2 5171   4.606   1.303   5.260  0.0010 -0.5883 -0.1274
 1736TIP3    H1 5172   4.578   1.394   5.264 -1.2538 -0.8245 -2.2098
 1736TIP3    H2 5173   4.578   1.266   5.344 -1.8080  0.3301 -0.2790
 1737TIP3   OH2 5174   0.033   1.021   2.588 -0.0880  0.2848 -0.0521
 1737TIP3    H1 5175   0.101   1.081   2.619 -0.7861  2.4526 -2.3926
 1737TIP3    H2 5176  -0.016   0.999   2.667  1.7739  0.7010  1.2866
 1738TIP3   OH2 5177   4.267   1.577   4.296  0.1276 -0.4923 -1.0470
 1738TIP3    H1 5178   4.357   1.608   4.307  0.3021  0.3421 -3.8555
 1738TIP3    H2 5179   4.277   1.492   4.253 -0.4277 -1.0572 -0.0708
 1739TIP3   OH2 5180   2.041   3.345   3.124 -0.1603  0.0017 -0.2413
 1739TIP3    H1 5181   2.107   3.279   3.143  1.8802  2.1441  0.7222
 1739TIP3    H2 5182   1.965   3.320   3.176  0.0233 -2.2498 -0.9668
 1740TIP3   OH2 5183   5.401   0.421   1.043 -0.3667  0.6500  0.3495
 1740TIP3    H1 5184   5.452   0.391   1.118 -1.7989 -4.3251 -0.2426
 1740TIP3    H2 5185   5.465   0.438   0.975  0.7610 -1.5973  0.7641
 1741TIP3   OH2 5186   5.651   6.181   1.888 -0.1264  0.1790  0.0203
 1741TIP3    H1 5187   5.590   6.148   1.822  0.5390  3.2846 -2.3890
 1741TIP3    H2 5188   5.603   6.249   1.934  0.0969 -0.5561  1.4060
 1742TIP3   OH2 5189   1.517   3.352   0.809 -0.3865  0.1790  0.1936
 1742TIP3    H1 5190   1.434   3.392   0.836 -0.4523 -0.4010  0.8687
 1742TIP3    H2 5191   1.491   3.274   0.760 -0.2303 -0.2650  0.8234
 1743TIP3   OH2 5192   4.370   4.934   2.945 -0.2510  0.3301 -0.4620
 1743TIP3    H1 5193   4.388   4.844   2.970 -1.0520  0.3837  0.3896
 1743TIP3    H2 5194   4.454   4.970   2.918  0.7443  0.2745  2.2710
 1744TIP3   OH2 5195   6.033   4.284   1.608  0.7452 -0.1184 -0.8732
 1744TIP3    H1 5196   5.956   4.252   1.561  1.3358  0.5070 -2.3502
 1744TIP3    H2 5197   6.029   4.241   1.693 -1.8953  0.8060 -0.4203
 1745TIP3   OH2 5198   1.363   4.586   0.832  0.3251  0.3981  0.0226
 1745TIP3    H1 5199   1.331   4.499   0.855 -0.1399  0.6816  0.4648
 1745TIP3    H2 5200   1.452   4.589   0.868  0.1239  0.3226  0.5272
 1746TIP3   OH2 5201   2.927   0.796   0.416  0.1183  0.0923 -0.0824
 1746TIP3    H1 5202   2.981   0.875   0.409  0.7928 -0.1231  1.9260
 1746TIP3    H2 5203   2.983   0.726   0.384  0.1051  0.2047 -0.3547
 1747TIP3   OH2 5204   1.236   5.253   4.279 -0.0916  0.2174  0.0637
 1747TIP3    H1 5205   1.322   5.287   4.301 -1.1092  2.6114  0.6961
 1747TIP3    H2 5206   1.241   5.233   4.185  0.9400  1.0371 -0.0688
 1748TIP3   OH2 5207   2.471   2.966   5.332  0.1966  0.0423 -0.2388
 1748TIP3    H1 5208   2.408   2.949   5.261 -0.7913 -0.2624  0.6853
 1748TIP3    H2 5209   2.538   2.899   5.321 -0.9616 -1.2541  0.2479
 1749TIP3   OH2 5210   2.899   6.673   3.008  0.6622  0.5276  0.2257
 1749TIP3    H1 5211   2.806   6.689   3.022  0.3738 -0.1830 -0.7881
 1749TIP3    H2 5212   2.941   6.756   3.031 -0.1509  0.6893  1.2075
 1750TIP3   OH2 5213   6.607   1.776   0.883 -0.3306  0.5863  0.4680
 1750TIP3    H1 5214   6.519   1.764   0.919 -0.1272  0.0502  0.7928
 1750TIP3    H2 5215   6.601   1.744   0.793 -0.9072  2.1621 -0.0990
 1751TIP3   OH2 5216   0.152   2.515   4.543 -0.8240  0.0426 -0.2998
 1751TIP3    H1 5217   0.158   2.523   4.639 -0.2857 -0.3605 -0.2970
 1751TIP3    H2 5218   0.126   2.602   4.514  0.6240  0.6213  0.0843
 1752TIP3   OH2 5219   4.176   1.657   2.220  0.0476  0.1131 -0.2000
 1752TIP3    H1 5220   4.111   1.675   2.289  0.1711 -0.3519  0.0388
 1752TIP3    H2 5221   4.259   1.689   2.256 -0.0685  0.9013 -0.5893
 1753TIP3   OH2 5222   0.294   1.089   0.033 -0.0172 -0.5778  0.1679
 1753TIP3    H1 5223   0.217   1.139   0.062 -0.3348 -1.1696  0.3597
 1753TIP3    H2 5224   0.353   1.090   0.108 -0.3886 -1.2060  0.4808
 1754TIP3   OH2 5225   7.099   0.316   1.760  0.0375  0.2062  0.1345
 1754TIP3    H1 5226   7.181   0.274   1.787 -0.2706 -2.1563 -2.2305
 1754TIP3    H2 5227   7.127   0.398   1.719  1.3943 -0.9880 -1.4861
 1755TIP3   OH2 5228   1.620   1.137   0.672 -0.1303  0.0870  0.0995
 1755TIP3    H1 5229   1.632   1.042   0.675  0.8536  0.2155  0.2630
 1755TIP3    H2 5230   1.693   1.169   0.619 -0.9989  0.6686 -0.7923
 1756TIP3   OH2 5231   1.979   1.701   1.016  0.3911  0.8927  0.7003
 1756TIP3    H1 5232   1.953   1.790   1.038  1.1567  0.7794  2.1497
 1756TIP3    H2 5233   2.054   1.712   0.958 -0.2873  1.1746 -0.1549
 1757TIP3   OH2 5234   0.456   2.379   0.893 -0.4074 -0.1110  0.3047
 1757TIP3    H1 5235   0.519   2.324   0.846  0.0375  0.8831 -0.3081
 1757TIP3    H2 5236   0.388   2.318   0.922 -0.6388 -0.8091 -1.5406
 1758TIP3   OH2 5237   5.198   6.239   0.896  0.5348 -0.6289  0.0609
 1758TIP3    H1 5238   5.240   6.199   0.972 -0.3760 -0.6027  0.5971
 1758TIP3    H2 5239   5.191   6.168   0.833 -1.1697 -1.4182  1.0472
 1759TIP3   OH2 5240   5.842   0.736   0.715  0.2376  0.1905  0.4270
 1759TIP3    H1 5241   5.806   0.812   0.668  0.9160 -0.4379 -1.1733
 1759TIP3    H2 5242   5.818   0.752   0.807  0.0492  2.1563  0.0914
 1760TIP3   OH2 5243   6.097   6.106   5.560  0.1144  0.7187 -0.0490
 1760TIP3    H1 5244   6.069   6.191   5.593  0.3200  0.1161  1.7608
 1760TIP3    H2 5245   6.040   6.043   5.603  1.6769 -0.2384  0.6992
 1761TIP3   OH2 5246   3.354   1.041   1.404 -0.3542  0.2412  0.5571
 1761TIP3    H1 5247   3.333   1.092   1.326 -0.5898 -0.1778  0.3501
 1761TIP3    H2 5248   3.406   1.102   1.458  1.0186  0.0903 -0.5239
 1762TIP3   OH2 5249   6.720   1.582   3.201 -0.0828 -0.2287  0.0861
 1762TIP3    H1 5250   6.649   1.615   3.257 -0.0480  0.2682 -0.1573
 1762TIP3    H2 5251   6.705   1.487   3.197  0.1038 -0.3206  1.1921
 1763TIP3   OH2 5252   1.035   0.784   2.931 -0.0697  0.1520  0.2981
 1763TIP3    H1 5253   1.109   0.749   2.982  0.5425 -1.5681 -1.6208
 1763TIP3    H2 5254   1.011   0.712   2.872 -1.4545  1.6578 -1.0539
 1764TIP3   OH2 5255   3.674   6.340   5.652  0.1803  0.4809  0.1834
 1764TIP3    H1 5256   3.615   6.399   5.700 -2.5366 -1.9258  0.0902
 1764TIP3    H2 5257   3.616   6.289   5.595  2.8509  0.5569 -2.9155
 1765TIP3   OH2 5258   5.779   2.539   4.583  0.4400 -0.0821  0.3392
 1765TIP3    H1 5259   5.863   2.583   4.567  0.8703 -1.1534 -0.4720
 1765TIP3    H2 5260   5.753   2.569   4.670  3.1037 -1.9142  1.9108
 1766TIP3   OH2 5261   3.543   0.546   4.528  0.0035 -0.3926 -0.0189
 1766TIP3    H1 5262   3.590   0.466   4.552  1.2017 -0.1922 -1.5553
 1766TIP3    H2 5263   3.499   0.523   4.446 -1.1104  0.0139  0.4367
 1767TIP3   OH2 5264   0.701   0.639   2.863  0.3444  0.1021  0.2079
 1767TIP3    H1 5265   0.640   0.575   2.827  0.8325  0.0154 -0.4954
 1767TIP3    H2 5266   0.787   0.610   2.832  0.5802  1.0604 -0.0856
 1768TIP3   OH2 5267   5.944   4.051   4.796 -0.2606 -0.2497  0.3137
 1768TIP3    H1 5268   6.039   4.042   4.808  0.0082  0.0075 -1.3867
 1768TIP3    H2 5269   5.932   4.051   4.701 -1.9393  0.0654  0.5024
 1769TIP3   OH2 5270   3.953   4.449   3.954  0.3523  0.3830  0.3064
 1769TIP3    H1 5271   4.030   4.467   4.008  0.2125  0.9743  0.3135
 1769TIP3    H2 5272   3.907   4.532   3.949  0.2865  0.2996 -0.6101
 1770TIP3   OH2 5273   3.632   1.813   4.462 -0.2345  0.3107  0.2000
 1770TIP3    H1 5274   3.542   1.789   4.480 -0.2898  0.3650  0.0014
 1770TIP3    H2 5275   3.680   1.792   4.542 -0.4955  0.6668  0.4483
 1771TIP3   OH2 5276   5.218   4.806   0.362 -0.1957  0.4552 -0.2469
 1771TIP3    H1 5277   5.169   4.819   0.280 -0.0020  3.5416  0.0004
 1771TIP3    H2 5278   5.153   4.823   0.431  0.3903  1.1151  0.1513
 1772TIP3   OH2 5279   0.102   6.636   4.632  0.2260 -0.3540  0.0987
 1772TIP3    H1 5280   0.096   6.681   4.716  0.3607  0.4498 -0.3206
 1772TIP3    H2 5281   0.013   6.639   4.597  0.5142  0.8748 -0.5822
 1773TIP3   OH2 5282   6.645   0.687   2.157  0.9471  0.4693 -0.0217
 1773TIP3    H1 5283   6.648   0.614   2.095  1.9727 -0.9638  1.6271
 1773TIP3    H2 5284   6.732   0.689   2.196  0.1758  0.9486  1.7686
 1774TIP3   OH2 5285   4.106   6.000   5.721  0.4016 -0.2002  0.5751
 1774TIP3    H1 5286   4.018   6.016   5.687 -0.0165 -0.9638  1.2541
 1774TIP3    H2 5287   4.164   6.035   5.654 -0.4163 -0.0395 -0.0721
 1775TIP3   OH2 5288   5.907   0.115   4.090  0.7967  0.0409  0.7998
 1775TIP3    H1 5289   5.946   0.064   4.160  0.2964  0.9089  1.7276
 1775TIP3    H2 5290   5.964   0.098   4.014  1.5057 -0.6758  1.4700
 1776TIP3   OH2 5291   0.184   4.491   1.222 -0.2313 -0.2895  0.3240
 1776TIP3    H1 5292   0.199   4.547   1.146  1.5703  0.5103  1.2047
 1776TIP3    H2 5293   0.272   4.475   1.257 -0.7228 -3.3476  0.3664
 1777TIP3   OH2 5294   6.907   5.355   5.424 -0.1822  0.2323  0.3201
 1777TIP3    H1 5295   6.884   5.345   5.332  1.2634 -0.5131  0.0176
 1777TIP3    H2 5296   6.910   5.449   5.438  0.3222  0.3646 -0.6007
 1778TIP3   OH2 5297   0.681   1.446   3.533  0.3988 -0.1968 -0.0713
 1778TIP3    H1 5298   0.660   1.472   3.443  1.0278  0.9385  0.0800
 1778TIP3    H2 5299   0.665   1.352   3.535 -0.2036 -0.1468 -1.2017
 1779TIP3   OH2 5300   0.789   1.895   2.249 -0.6936 -0.0124 -0.3339
 1779TIP3    H1 5301   0.855   1.941   2.300 -1.5841 -0.0673  0.9099
 1779TIP3    H2 5302   0.827   1.808   2.234 -0.4135  0.0091  0.2311
 1780TIP3   OH2 5303   5.394   3.411   3.291  0.0797  0.0408 -0.4615
 1780TIP3    H1 5304   5.316   3.425   3.237  0.5963 -0.3277 -1.3360
 1780TIP3    H2 5305   5.400   3.316   3.301  1.6663 -0.1517 -2.4011
 1781TIP3   OH2 5306   4.188   6.313   2.977 -0.2905 -0.7181  0.0701
 1781TIP3    H1 5307   4.153   6.385   3.029  0.4938 -0.4469  0.2365
 1781TIP3    H2 5308   4.276   6.342   2.952  0.6292 -2.2316  1.4181
 1782TIP3   OH2 5309   3.923   2.423   2.466 -0.1114  0.1520 -0.1781
 1782TIP3    H1 5310   3.850   2.451   2.521  0.7744  0.5220  0.8513
 1782TIP3    H2 5311   3.909   2.468   2.382 -0.5501  0.9903  0.3349
 1783TIP3   OH2 5312   4.748   5.146   0.585 -0.4195  0.0729  0.6432
 1783TIP3    H1 5313   4.738   5.054   0.611  1.4454 -0.5802 -0.7838
 1783TIP3    H2 5314   4.785   5.189   0.661 -0.8865 -0.4322  1.1661
 1784TIP3   OH2 5315   5.750   4.703   2.752  0.3057  0.6557  0.2074
 1784TIP3    H1 5316   5.830   4.651   2.747  1.2150  2.0853 -0.7212
 1784TIP3    H2 5317   5.685   4.643   2.790  2.0534 -0.1892  1.9953
 1785TIP3   OH2 5318   1.087   0.644   3.729  0.2621 -0.0339 -0.1928
 1785TIP3    H1 5319   1.067   0.737   3.718  1.2748  0.2164  0.0032
 1785TIP3    H2 5320   1.026   0.615   3.797 -0.3360  0.3822 -0.5362
 1786TIP3   OH2 5321   1.467   2.188   3.197 -0.6069 -0.1945 -0.2391
 1786TIP3    H1 5322   1.421   2.259   3.153 -0.3978  1.1225  1.5275
 1786TIP3    H2 5323   1.470   2.215   3.289  1.9114 -1.1616  0.0542
 1787TIP3   OH2 5324   0.749   4.883   5.485 -0.3020  0.0762 -0.2428
 1787TIP3    H1 5325   0.734   4.806   5.540  1.0122  0.3304  0.5123
 1787TIP3    H2 5326   0.794   4.849   5.408 -0.7142 -0.0619 -0.4234
 1788TIP3   OH2 5327   3.413   5.897   5.183 -0.3142 -0.1282 -0.0806
 1788TIP3    H1 5328   3.393   5.943   5.102 -1.1135  0.7581  0.5870
 1788TIP3    H2 5329   3.454   5.964   5.239 -1.7132 -0.1240  1.0017
 1789TIP3   OH2 5330   7.045   2.081   4.809 -0.4716  0.2572 -0.0073
 1789TIP3    H1 5331   7.065   2.128   4.728 -1.6453  1.8305  0.5726
 1789TIP3    H2 5332   7.069   2.142   4.879 -0.1247 -0.8068  0.8402
 1790TIP3   OH2 5333   6.460   6.463   3.412  0.3360 -0.1068  0.5393
 1790TIP3    H1 5334   6.371   6.457   3.376  0.2031 -1.0849  0.9982
 1790TIP3    H2 5335   6.480   6.557   3.408 -0.1817 -0.0247 -0.8101
 1791TIP3   OH2 5336   0.433   2.490   4.562 -0.7409  0.0805  0.0424
 1791TIP3    H1 5337   0.350   2.442   4.563 -2.1762  2.3897  1.9175
 1791TIP3    H2 5338   0.498   2.428   4.596 -1.9409 -1.3550 -0.1901
 1792TIP3   OH2 5339   2.091   0.677   5.331 -0.6071 -0.1539  0.4678
 1792TIP3    H1 5340   2.036   0.735   5.384  0.6415  1.6066 -0.0629
 1792TIP3    H2 5341   2.163   0.654   5.388 -1.5778 -2.0463  0.9942
 1793TIP3   OH2 5342   5.457   5.796   2.201  0.4629 -0.2797  0.0017
 1793TIP3    H1 5343   5.481   5.776   2.111  1.7137  0.3343  0.1795
 1793TIP3    H2 5344   5.365   5.770   2.208  0.9675 -2.4826 -0.7863
 1794TIP3   OH2 5345   3.161   6.509   5.022 -0.3909 -0.0334  0.4188
 1794TIP3    H1 5346   3.185   6.578   5.084  0.5337  0.5741 -0.5832
 1794TIP3    H2 5347   3.066   6.502   5.029 -0.4926  1.3374  0.5438
 1795TIP3   OH2 5348   4.296   2.694   1.636  0.2675  0.0446  0.2522
 1795TIP3    H1 5349   4.219   2.713   1.583 -0.5254 -0.5940  1.1402
 1795TIP3    H2 5350   4.354   2.646   1.578 -0.7566 -0.9932  0.0613
 1796TIP3   OH2 5351   5.878   6.260   1.720  0.7691 -0.1576 -0.1003
 1796TIP3    H1 5352   5.876   6.179   1.669 -1.1602  0.1242 -0.5629
 1796TIP3    H2 5353   5.802   6.253   1.778  1.8747  0.3498  1.4496
 1797TIP3   OH2 5354   3.554   4.040   5.547  0.2546 -0.1010  0.1648
 1797TIP3    H1 5355   3.498   3.974   5.588 -1.0052  0.8861  0.0945
 1797TIP3    H2 5356   3.496   4.114   5.533  0.4889 -0.4573 -3.6650
 1798TIP3   OH2 5357   2.224   0.528   2.020 -0.0016  0.8301  0.2718
 1798TIP3    H1 5358   2.152   0.588   2.002  0.5302  1.1930 -0.7950
 1798TIP3    H2 5359   2.235   0.530   2.115 -0.9847  1.2419  0.3832
 1799TIP3   OH2 5360   5.561   4.711   4.876  0.7462  0.7366  0.2216
 1799TIP3    H1 5361   5.572   4.629   4.925  1.4270 -0.7834 -2.3143
 1799TIP3    H2 5362   5.645   4.756   4.886  1.7247 -0.6421 -1.3144
 1800TIP3   OH2 5363   2.475   4.934   1.913 -0.0438 -0.2389 -0.3220
 1800TIP3    H1 5364   2.453   5.012   1.964 -1.0480 -2.0303  2.2269
 1800TIP3    H2 5365   2.564   4.912   1.940 -0.1163 -0.4898 -0.2828
 1801TIP3   OH2 5366   4.132   1.564   0.199 -0.2302 -0.5973  0.1467
 1801TIP3    H1 5367   4.101   1.480   0.233 -1.2108 -0.2101  0.2457
 1801TIP3    H2 5368   4.164   1.544   0.111 -0.0576 -1.1518  0.3353
 1802TIP3   OH2 5369   4.190   1.300   4.359  0.1936 -0.6146  0.0624
 1802TIP3    H1 5370   4.170   1.206   4.364  1.0883 -0.7767  0.9142
 1802TIP3    H2 5371   4.225   1.321   4.446 -1.4328  0.8605  0.4105
 1803TIP3   OH2 5372   1.709   1.171   1.924  0.1282  0.6235 -0.6389
 1803TIP3    H1 5373   1.626   1.218   1.939  0.3687  0.6445  0.6969
 1803TIP3    H2 5374   1.697   1.130   1.838 -0.7857  1.6445 -1.0306
 1804TIP3   OH2 5375   0.236   3.147   2.381 -0.0121 -0.1376  0.5099
 1804TIP3    H1 5376   0.143   3.168   2.393  0.0833  0.2535  0.5829
 1804TIP3    H2 5377   0.263   3.201   2.307 -0.3394 -1.7737 -0.8686
 1805TIP3   OH2 5378   2.506   2.063   5.540  0.4720 -0.2911  0.2594
 1805TIP3    H1 5379   2.559   2.111   5.604 -0.1519 -0.5646  0.9947
 1805TIP3    H2 5380   2.456   2.130   5.495 -0.7378 -0.2480  1.5956
 1806TIP3   OH2 5381   0.529   0.709   1.851 -0.2868  0.5808 -0.2969
 1806TIP3    H1 5382   0.441   0.686   1.879  0.0855 -0.9342 -0.2547
 1806TIP3    H2 5383   0.525   0.802   1.831 -1.7194  0.6776  0.3398
 1807TIP3   OH2 5384   1.444   2.704   4.398  0.4878  0.3551  0.4338
 1807TIP3    H1 5385   1.375   2.735   4.456 -0.0579  0.1529 -0.0990
 1807TIP3    H2 5386   1.403   2.701   4.311  1.1783  0.2839  0.1013
 1808TIP3   OH2 5387   6.481   3.178   1.848 -0.1111 -1.0571 -0.0218
 1808TIP3    H1 5388   6.464   3.090   1.881 -0.4541 -0.7810  0.5554
 1808TIP3    H2 5389   6.576   3.188   1.853 -0.2031 -0.7181  1.7161
 1809TIP3   OH2 5390   4.540   2.325   3.178 -0.0750 -0.0559  0.3926
 1809TIP3    H1 5391   4.448   2.352   3.177 -0.1464 -0.2685  0.7237
 1809TIP3    H2 5392   4.589   2.405   3.196 -0.2849 -0.1277  1.3857
 1810TIP3   OH2 5393   5.998   1.338   2.569  0.1534  0.1043 -0.5379
 1810TIP3    H1 5394   5.991   1.405   2.501  1.3042 -0.1638 -0.9392
 1810TIP3    H2 5395   6.036   1.262   2.524 -1.3880 -0.9481 -0.1669
 1811TIP3   OH2 5396   2.404   4.548   0.397 -0.1001  0.1077  0.3393
 1811TIP3    H1 5397   2.478   4.607   0.411  0.4756  0.2291 -2.4781
 1811TIP3    H2 5398   2.443   4.460   0.400  0.2426  0.1712 -1.1383
 1812TIP3   OH2 5399   4.845   2.556   4.275  0.0728  0.2244 -0.6805
 1812TIP3    H1 5400   4.928   2.563   4.228  0.0850 -2.2581 -1.2151
 1812TIP3    H2 5401   4.779   2.576   4.209  0.1700 -1.0852 -1.2088
 1813TIP3   OH2 5402   1.792   6.185   3.099 -0.6153  0.5607 -0.1779
 1813TIP3    H1 5403   1.869   6.156   3.147 -0.7080  1.9908  0.8939
 1813TIP3    H2 5404   1.778   6.118   3.032  2.3902  0.9617 -1.3540
 1814TIP3   OH2 5405   6.366   1.580   4.197  0.0087  0.1695  0.4279
 1814TIP3    H1 5406   6.407   1.501   4.233 -1.1057 -1.5311 -1.7460
 1814TIP3    H2 5407   6.341   1.555   4.108 -1.8587  2.4739  0.2146
 1815TIP3   OH2 5408   6.763   6.407   5.814  0.5152 -0.0407  0.1387
 1815TIP3    H1 5409   6.836   6.437   5.760  0.5239 -0.7893 -0.2924
 1815TIP3    H2 5410   6.699   6.374   5.750  0.8521 -1.6736  0.5810
 1816TIP3   OH2 5411   4.553   0.354   3.583  0.0553  0.3987 -0.9534
 1816TIP3    H1 5412   4.511   0.268   3.575 -3.2475  1.9055 -1.6062
 1816TIP3    H2 5413   4.528   0.385   3.670 -0.0685  1.2482 -1.2777
 1817TIP3   OH2 5414   1.453   4.126   2.511 -0.0128 -0.2472  0.2646
 1817TIP3    H1 5415   1.515   4.124   2.438  0.5616 -0.7773  0.7455
 1817TIP3    H2 5416   1.397   4.049   2.497  0.4796 -0.6940  0.6889
 1818TIP3   OH2 5417   2.855   0.825   4.743 -0.2948  0.0509 -0.0964
 1818TIP3    H1 5418   2.853   0.751   4.682 -1.2058  0.1222 -0.1586
 1818TIP3    H2 5419   2.948   0.848   4.748  0.3268 -2.4246  1.5406
 1819TIP3   OH2 5420   1.219   1.026   0.476 -0.4924 -0.5149 -0.5514
 1819TIP3    H1 5421   1.124   1.033   0.485 -0.2851  0.2985  1.5405
 1819TIP3    H2 5422   1.250   1.116   0.490  0.5295 -0.4814 -2.6703
 1820TIP3   OH2 5423   0.035   0.685   5.501 -0.4911  0.0972  0.2194
 1820TIP3    H1 5424   0.028   0.757   5.439 -1.7736  0.9581  1.3021
 1820TIP3    H2 5425   0.028   0.727   5.587 -0.1920 -1.2087  0.9053
 1821TIP3   OH2 5426   4.904   0.342   1.040  0.4108 -0.2165 -0.0754
 1821TIP3    H1 5427   4.963   0.411   1.010  1.0012 -1.2332 -1.2900
 1821TIP3    H2 5428   4.936   0.320   1.128  0.6098  0.5945  0.0659
 1822TIP3   OH2 5429   6.330   5.231   4.477  0.1033  0.3226  0.0365
 1822TIP3    H1 5430   6.331   5.326   4.461 -0.7400  0.1218 -1.3678
 1822TIP3    H2 5431   6.368   5.193   4.398 -0.8369 -0.5654 -0.0095
 1823TIP3   OH2 5432   4.350   6.111   4.040  0.2756 -0.1778  0.2233
 1823TIP3    H1 5433   4.400   6.191   4.029  0.2548 -0.1693  0.1887
 1823TIP3    H2 5434   4.335   6.080   3.950 -1.5563  0.9000  0.1088
 1824TIP3   OH2 5435   7.140   5.145   3.689 -0.3512  0.6316 -0.3067
 1824TIP3    H1 5436   7.202   5.214   3.714  0.3469 -0.1678  0.1997
 1824TIP3    H2 5437   7.097   5.120   3.770 -1.6866  1.4638 -0.7079
 1825TIP3   OH2 5438   0.506   1.500   2.346  0.0281 -0.1167  0.4418
 1825TIP3    H1 5439   0.518   1.470   2.256  2.4918 -1.6834  1.2002
 1825TIP3    H2 5440   0.499   1.596   2.339 -3.1381 -0.3434 -1.5987
 1826TIP3   OH2 5441   3.124   4.060   5.802  0.5558 -0.2545  0.2236
 1826TIP3    H1 5442   3.079   4.022   5.878  0.3526  2.2026  1.4062
 1826TIP3    H2 5443   3.178   3.988   5.769 -1.7257 -2.3470  0.7219
 1827TIP3   OH2 5444   0.555   5.682   0.780 -0.1005 -0.0085  0.3531
 1827TIP3    H1 5445   0.602   5.606   0.812  0.1717  0.5990  1.4334
 1827TIP3    H2 5446   0.585   5.693   0.690  0.1327 -0.9528  0.3114
 1828TIP3   OH2 5447   1.793   5.441   0.031 -0.1646 -0.4465  0.1115
 1828TIP3    H1 5448   1.859   5.372   0.036  0.4165  0.0739 -0.1619
 1828TIP3    H2 5449   1.729   5.419   0.098 -0.2169 -1.4835 -0.2748
 1829TIP3   OH2 5450   4.064   3.502   2.136  0.0144  0.2241 -0.4425
 1829TIP3    H1 5451   4.036   3.474   2.049  0.7268 -2.3912  0.0931
 1829TIP3    H2 5452   3.994   3.473   2.195  1.2025 -1.4086  0.2432
 1830TIP3   OH2 5453   1.137   0.092   4.105 -0.1575  0.0769  0.3804
 1830TIP3    H1 5454   1.171   0.003   4.105 -0.1001  0.0896 -0.6123
 1830TIP3    H2 5455   1.169   0.130   4.187  1.0700 -0.3406  0.1166
 1831TIP3   OH2 5456   3.432   5.285   4.528  0.5753 -0.1842 -0.1955
 1831TIP3    H1 5457   3.489   5.274   4.452  1.9361 -1.5957  0.9728
 1831TIP3    H2 5458   3.428   5.198   4.568  1.3306  0.8703  2.3428
 1832TIP3   OH2 5459   2.457   2.520   2.508  0.1162 -0.5882  0.2800
 1832TIP3    H1 5460   2.449   2.541   2.601  3.7544  0.3966  0.4910
 1832TIP3    H2 5461   2.471   2.605   2.465  1.1564 -1.2602 -0.7746
 1833TIP3   OH2 5462   4.073   0.728   4.691 -0.6176 -0.0500 -0.4237
 1833TIP3    H1 5463   4.030   0.804   4.730 -1.1199 -0.2804 -0.5172
 1833TIP3    H2 5464   4.126   0.691   4.762  0.4606  0.9944 -0.6741
 1834TIP3   OH2 5465   1.129   2.499   4.818  0.2328 -0.7218  0.1869
 1834TIP3    H1 5466   1.215   2.477   4.856  0.5069  1.0316  0.6362
 1834TIP3    H2 5467   1.131   2.458   4.731  2.0285  0.2691 -0.2992
 1835TIP3   OH2 5468   3.415   2.069   1.556 -0.2204 -0.5079 -0.0778
 1835TIP3    H1 5469   3.366   2.121   1.493  1.0215  0.7161 -0.0845
 1835TIP3    H2 5470   3.458   2.002   1.504  0.0074 -0.1071 -0.4170
 1836TIP3   OH2 5471   5.497   2.899   2.978  0.0235 -0.2316 -0.0247
 1836TIP3    H1 5472   5.486   2.858   2.892  1.9429 -0.7534 -0.0559
 1836TIP3    H2 5473   5.489   2.826   3.040  2.4661 -0.5835 -0.0271
 1837TIP3   OH2 5474   7.099   0.326   3.940  0.3290 -0.5546  0.1005
 1837TIP3    H1 5475   7.087   0.231   3.947  0.0083 -0.5814 -0.7381
 1837TIP3    H2 5476   7.026   0.355   3.886  1.4161 -0.0855 -1.1870
 1838TIP3   OH2 5477   0.337   0.475   0.051 -0.6680  0.4903 -0.5914
 1838TIP3    H1 5478   0.311   0.468   0.143  1.2032 -1.3566 -0.1106
 1838TIP3    H2 5479   0.426   0.511   0.054 -0.2926 -0.2972 -1.6058
 1839TIP3   OH2 5480   1.436   2.413   2.338 -0.2013  0.6075 -0.3057
 1839TIP3    H1 5481   1.488   2.444   2.413  1.2072 -1.0930 -0.5073
 1839TIP3    H2 5482   1.375   2.350   2.376  0.2673  0.0186 -0.5046
 1840TIP3   OH2 5483   1.885   2.561   5.355 -0.6638  0.3931  0.1907
 1840TIP3    H1 5484   1.844   2.496   5.298 -1.7949 -1.3246  2.7533
 1840TIP3    H2 5485   1.856   2.645   5.321 -1.3244 -0.5319 -1.6808
 1841TIP3   OH2 5486   6.161   3.718   4.540 -0.0223 -0.1067 -0.1048
 1841TIP3    H1 5487   6.147   3.716   4.445  0.2348 -1.8608 -0.1338
 1841TIP3    H2 5488   6.252   3.746   4.550  0.0297 -0.1738 -0.3908
 1842TIP3   OH2 5489   6.287   1.846   3.725 -0.3247 -0.2953 -0.6491
 1842TIP3    H1 5490   6.378   1.856   3.697 -0.3764  1.3149 -0.3676
 1842TIP3    H2 5491   6.249   1.934   3.714 -1.3622 -0.5089  0.8958
 1843TIP3   OH2 5492   5.770   4.345   2.702 -0.2568 -0.0083  0.2473
 1843TIP3    H1 5493   5.810   4.263   2.729  0.0305 -0.3351 -1.1162
 1843TIP3    H2 5494   5.839   4.410   2.713  0.2438 -0.3400 -0.7771
 1844TIP3   OH2 5495   1.000   1.768   2.673  0.3670  0.0098  0.1257
 1844TIP3    H1 5496   0.936   1.728   2.615  0.4893  1.9760 -1.4778
 1844TIP3    H2 5497   0.961   1.762   2.760 -1.0632 -0.6078 -0.5344
 1845TIP3   OH2 5498   1.034   6.420   1.922  0.0699 -0.3085 -0.2920
 1845TIP3    H1 5499   0.952   6.466   1.939  1.0869  1.7154 -0.5566
 1845TIP3    H2 5500   1.008   6.329   1.910 -2.1267  0.2592 -0.3415
 1846TIP3   OH2 5501   5.363   2.157   4.083  0.3276 -0.0539  0.4879
 1846TIP3    H1 5502   5.318   2.093   4.028 -0.3628 -0.0893  1.0819
 1846TIP3    H2 5503   5.429   2.196   4.025 -0.5724  0.1205 -0.4520
 1847TIP3   OH2 5504   0.202   2.666   3.476  0.3580  0.7936 -0.3976
 1847TIP3    H1 5505   0.222   2.622   3.559  0.7802  0.1872 -0.8155
 1847TIP3    H2 5506   0.250   2.617   3.410 -0.6266  0.7597 -1.1179
 1848TIP3   OH2 5507   4.382   2.964   2.099  1.0335  0.3417 -0.4610
 1848TIP3    H1 5508   4.401   3.055   2.123  0.7331 -0.0032  1.1383
 1848TIP3    H2 5509   4.461   2.916   2.123  0.9663  0.0822 -0.7571
 1849TIP3   OH2 5510   1.712   3.312   1.337  0.5894  0.6165  0.5362
 1849TIP3    H1 5511   1.694   3.320   1.244  0.1986  2.9275  0.7444
 1849TIP3    H2 5512   1.787   3.253   1.342 -0.5024 -1.0029 -1.0756
 1850TIP3   OH2 5513   3.248   4.050   3.385 -0.3534  0.3268 -0.1263
 1850TIP3    H1 5514   3.163   4.077   3.348  0.5139  1.3609 -1.4402
 1850TIP3    H2 5515   3.259   3.960   3.355 -0.7140  0.3841 -0.4457
 1851TIP3   OH2 5516   6.574   3.331   1.013  0.4848  0.7745 -0.0465
 1851TIP3    H1 5517   6.598   3.388   0.940  0.7323 -0.2874 -0.8159
 1851TIP3    H2 5518   6.485   3.358   1.036 -0.1547  0.2123 -1.6835
 1852TIP3   OH2 5519   6.182   6.561   1.561 -0.6995  0.1283  0.5929
 1852TIP3    H1 5520   6.237   6.602   1.494 -1.4918 -0.7408 -0.6343
 1852TIP3    H2 5521   6.095   6.555   1.520 -0.9434 -1.4120  1.2702
 1853TIP3   OH2 5522   1.996   2.223   4.301  0.4712 -0.3819 -0.3597
 1853TIP3    H1 5523   2.088   2.198   4.315  0.8350  0.7345 -0.6034
 1853TIP3    H2 5524   2.001   2.292   4.235 -0.5039  0.1042  0.0659
 1854TIP3   OH2 5525   7.199   2.234   1.293 -0.3191  0.1925  0.4834
 1854TIP3    H1 5526   7.176   2.147   1.328  2.2200 -0.7492 -0.0102
 1854TIP3    H2 5527   7.174   2.229   1.201  1.2710 -0.6481  0.0648
 1855TIP3   OH2 5528   4.824   4.292   0.611  0.1843  0.1563 -0.4070
 1855TIP3    H1 5529   4.900   4.250   0.572  1.0448  1.1471  0.1391
 1855TIP3    H2 5530   4.749   4.258   0.562  1.0387 -0.3114 -1.4140
 1856TIP3   OH2 5531   0.318   2.555   3.272  0.2849 -0.2578 -0.3158
 1856TIP3    H1 5532   0.339   2.464   3.248  2.3918 -0.1779  0.9417
 1856TIP3    H2 5533   0.379   2.607   3.221 -0.5720  0.4328 -0.6478
 1857TIP3   OH2 5534   0.765   6.081   3.156  0.0547 -0.3729  0.4324
 1857TIP3    H1 5535   0.814   6.014   3.203  1.3558 -0.6874 -1.2728
 1857TIP3    H2 5536   0.786   6.067   3.064 -1.4320  0.9738 -0.1736
 1858TIP3   OH2 5537   0.485   0.071   0.185  0.2651 -0.3755  0.2676
 1858TIP3    H1 5538   0.404   0.123   0.176  0.5150  0.8474  3.6271
 1858TIP3    H2 5539   0.553   0.127   0.149 -0.0583 -0.4483 -0.4881
 1859TIP3   OH2 5540   0.373   0.136   1.460 -0.3770  0.0482  0.1272
 1859TIP3    H1 5541   0.282   0.127   1.488 -0.4676 -0.6239 -0.3528
 1859TIP3    H2 5542   0.417   0.058   1.494 -0.3467 -0.4502 -0.9857
 1860TIP3   OH2 5543   3.926   2.623   4.531 -0.7752 -0.5418  0.0291
 1860TIP3    H1 5544   3.839   2.601   4.566 -0.9343  0.0322  0.0085
 1860TIP3    H2 5545   3.957   2.694   4.588 -0.4831 -0.4802 -0.2051
 1861TIP3   OH2 5546   3.339   4.721   2.315  0.4411 -0.2567  0.5076
 1861TIP3    H1 5547   3.279   4.679   2.376  0.3998 -1.2277 -0.1859
 1861TIP3    H2 5548   3.375   4.796   2.364 -0.3994 -0.3818  1.3380
 1862TIP3   OH2 5549   0.432   6.483   3.450 -0.2258 -0.7237  0.2892
 1862TIP3    H1 5550   0.354   6.525   3.485 -0.3943 -1.0869  0.3511
 1862TIP3    H2 5551   0.436   6.398   3.494  1.0785 -0.0769  1.4882
 1863TIP3   OH2 5552   7.100   4.845   0.740 -0.2018 -0.1654 -0.1818
 1863TIP3    H1 5553   7.178   4.814   0.694 -0.9996 -0.5233 -1.3237
 1863TIP3    H2 5554   7.127   4.852   0.832  1.0329 -0.7226 -0.4903
 1864TIP3   OH2 5555   2.427   1.896   2.567  0.6336  0.0514  0.1793
 1864TIP3    H1 5556   2.371   1.953   2.619 -1.1739 -2.0323  0.6524
 1864TIP3    H2 5557   2.457   1.828   2.629 -0.8259 -1.9615 -1.2023
 1865TIP3   OH2 5558   3.677   4.406   5.269  0.6810  0.2820 -0.0671
 1865TIP3    H1 5559   3.770   4.422   5.254  1.2764 -1.5933  1.2638
 1865TIP3    H2 5560   3.665   4.422   5.362  0.0413 -1.0189  0.0926
 1866TIP3   OH2 5561   3.971   5.186   4.769 -0.1832 -0.0036 -0.4101
 1866TIP3    H1 5562   3.883   5.224   4.768  0.2960  1.2534  1.0541
 1866TIP3    H2 5563   4.028   5.256   4.737  0.3700 -0.5607 -0.6658
 1867TIP3   OH2 5564   0.727   6.771   5.784 -0.1688  0.0905  0.1355
 1867TIP3    H1 5565   0.806   6.717   5.789  0.9261  1.6447  0.7585
 1867TIP3    H2 5566   0.723   6.814   5.869 -4.1242 -3.0481  1.8486
 1868TIP3   OH2 5567   0.622   6.499   2.320  0.0294 -0.1934  0.2626
 1868TIP3    H1 5568   0.566   6.471   2.393 -0.8523  1.0651  0.1272
 1868TIP3    H2 5569   0.568   6.485   2.242  0.1656  0.3699  0.0603
 1869TIP3   OH2 5570   2.036   5.055   1.475  0.3666 -0.2078 -0.2360
 1869TIP3    H1 5571   2.123   5.030   1.506 -0.3302 -1.1878  1.0134
 1869TIP3    H2 5572   2.001   4.977   1.434 -0.4218 -0.2251  0.4404
 1870TIP3   OH2 5573   6.489   0.109   1.902 -0.2621 -0.5554  0.4238
 1870TIP3    H1 5574   6.406   0.072   1.873 -0.1364 -0.5887  0.1080
 1870TIP3    H2 5575   6.489   0.199   1.869  0.1891 -0.8129 -0.2855
 1871TIP3   OH2 5576   5.786   6.069   5.522 -0.4201  0.1225  0.2135
 1871TIP3    H1 5577   5.699   6.028   5.523 -0.6549  0.5724 -0.8833
 1871TIP3    H2 5578   5.846   5.997   5.542 -1.0309 -0.2070  0.9178
 1872TIP3   OH2 5579   4.476   3.889   4.153 -0.0985  0.0674  0.0658
 1872TIP3    H1 5580   4.526   3.945   4.213 -1.0694  1.5043 -0.4175
 1872TIP3    H2 5581   4.462   3.943   4.076 -0.6554 -1.0332 -0.6281
 1873TIP3   OH2 5582   0.043   3.529   0.407  0.0926 -0.0021 -0.0084
 1873TIP3    H1 5583  -0.034   3.502   0.455  0.0659  1.9190  1.1129
 1873TIP3    H2 5584   0.057   3.459   0.342 -1.8107 -0.9879  0.5884
 1874TIP3   OH2 5585   5.938   0.308   1.393  0.2220  0.3463 -0.1162
 1874TIP3    H1 5586   5.849   0.339   1.411  0.0164 -0.7481  0.8652
 1874TIP3    H2 5587   5.926   0.232   1.336  0.3171 -1.2378  1.8456
 1875TIP3   OH2 5588   6.135   2.838   3.036  0.2827 -0.1365 -0.0386
 1875TIP3    H1 5589   6.103   2.917   3.079 -2.4329 -1.0531 -0.1432
 1875TIP3    H2 5590   6.148   2.775   3.107 -0.2263 -0.3976 -0.1665
 1876TIP3   OH2 5591   6.950   5.293   4.779  0.2469  0.2149 -0.4169
 1876TIP3    H1 5592   6.930   5.216   4.726 -2.2924  0.4376  0.0703
 1876TIP3    H2 5593   6.962   5.363   4.716  1.0542 -0.2691 -0.8110
 1877TIP3   OH2 5594   0.701   4.592   1.343 -0.0737  0.4061 -0.4263
 1877TIP3    H1 5595   0.647   4.664   1.375 -0.6362  0.3008 -1.1246
 1877TIP3    H2 5596   0.752   4.631   1.271  0.2025  0.2990 -0.2917
 1878TIP3   OH2 5597   2.430   3.647   2.834  0.3162 -0.2529  0.8475
 1878TIP3    H1 5598   2.448   3.586   2.762 -0.5305 -2.3864  2.3153
 1878TIP3    H2 5599   2.359   3.702   2.803 -0.3362 -1.4358  0.1629
 1879TIP3   OH2 5600   0.716   6.429   1.467  0.4310  0.5489  0.1402
 1879TIP3    H1 5601   0.685   6.340   1.452 -1.0002  1.1171 -0.4475
 1879TIP3    H2 5602   0.801   6.433   1.422  0.4059 -0.4421 -0.0127
 1880TIP3   OH2 5603   6.201   6.028   4.025 -0.0254  0.6671  0.1916
 1880TIP3    H1 5604   6.166   6.109   4.063  0.9617  0.6436  1.2056
 1880TIP3    H2 5605   6.296   6.041   4.024  0.0453  0.1124 -1.0393
 1881TIP3   OH2 5606   0.481   6.508   1.356  0.3138  0.4555 -0.3303
 1881TIP3    H1 5607   0.565   6.510   1.402  1.0856 -0.4900 -1.6115
 1881TIP3    H2 5608   0.500   6.546   1.270 -0.3734 -0.4414 -0.9031
 1882TIP3   OH2 5609   3.139   2.829   1.828 -0.3663 -0.3267  0.4548
 1882TIP3    H1 5610   3.056   2.788   1.806 -0.0383  0.3861 -2.5575
 1882TIP3    H2 5611   3.196   2.756   1.855 -1.1725 -1.1960 -0.1382
 1883TIP3   OH2 5612   4.617   1.314   5.793 -0.1170  0.5278  0.1159
 1883TIP3    H1 5613   4.621   1.226   5.757 -0.8933  0.5439 -0.0474
 1883TIP3    H2 5614   4.542   1.312   5.853 -0.3250  1.1392 -0.1075
 1884TIP3   OH2 5615   5.076   5.928   4.934 -0.0701  0.2861  0.0657
 1884TIP3    H1 5616   5.075   5.876   4.854  1.0134  1.3322 -0.6553
 1884TIP3    H2 5617   5.039   6.012   4.909  0.0949  0.5574  0.7067
 1885TIP3   OH2 5618   1.737   6.439   1.400 -0.2743 -0.3516  0.0266
 1885TIP3    H1 5619   1.677   6.479   1.338 -0.2224 -0.3950 -0.0522
 1885TIP3    H2 5620   1.783   6.513   1.441  0.2116 -0.3455 -0.5104
 1886TIP3   OH2 5621   0.156   5.552   4.025 -0.2744 -0.0066 -0.6198
 1886TIP3    H1 5622   0.218   5.482   4.002  0.0747  0.2324 -0.4152
 1886TIP3    H2 5623   0.125   5.528   4.113  0.4742  0.5258 -0.1997
 1887TIP3   OH2 5624   0.233   6.653   3.092 -0.6732 -0.4048 -0.1497
 1887TIP3    H1 5625   0.138   6.650   3.089 -0.6388 -2.3851 -0.8012
 1887TIP3    H2 5626   0.260   6.664   3.001 -0.2653  1.4291  0.1614
 1888TIP3   OH2 5627   3.995   2.335   5.724 -0.3293  0.1680  0.1303
 1888TIP3    H1 5628   4.058   2.377   5.782  1.2332 -0.7419 -0.8499
 1888TIP3    H2 5629   4.004   2.381   5.641 -0.3626 -0.5124 -0.2558
 1889TIP3   OH2 5630   1.285   6.273   4.684 -0.1906 -0.8216  0.0521
 1889TIP3    H1 5631   1.254   6.262   4.594 -0.9745 -2.4116  0.4972
 1889TIP3    H2 5632   1.376   6.245   4.681  0.1657  0.3050 -0.4721
 1890TIP3   OH2 5633   4.394   1.923   3.257  0.4188 -0.0510  0.1464
 1890TIP3    H1 5634   4.313   1.877   3.280  0.2192  1.6543  3.5911
 1890TIP3    H2 5635   4.367   1.989   3.193 -0.6738 -0.2566  0.3697
 1891TIP3   OH2 5636   3.251   1.795   0.090  0.3562 -0.6907 -0.1556
 1891TIP3    H1 5637   3.263   1.715   0.039  0.8384 -0.0892 -0.9974
 1891TIP3    H2 5638   3.326   1.850   0.066  0.3516 -0.2213  0.8675
 1892TIP3   OH2 5639   1.893   5.411   3.592  0.2132 -0.2026  0.0819
 1892TIP3    H1 5640   1.825   5.471   3.562 -0.7532 -1.4758 -0.3432
 1892TIP3    H2 5641   1.925   5.450   3.673 -0.2216  1.0015 -0.3016
 1893TIP3   OH2 5642   1.143   5.400   0.038  0.3636 -0.2378 -0.1950
 1893TIP3    H1 5643   1.092   5.420  -0.041  2.5802  0.1201 -1.6263
 1893TIP3    H2 5644   1.161   5.306   0.031  2.5130  0.2075 -1.4225
 1894TIP3   OH2 5645   5.497   0.462   3.053 -0.1722 -0.0226 -0.6128
 1894TIP3    H1 5646   5.506   0.443   3.146 -1.8197 -0.0946 -0.4433
 1894TIP3    H2 5647   5.411   0.503   3.044  0.4630  1.1141 -1.9432
 1895TIP3   OH2 5648   5.520   0.714   3.582  0.1096 -0.6247  0.3318
 1895TIP3    H1 5649   5.467   0.779   3.627 -0.2268 -0.8080  0.2061
 1895TIP3    H2 5650   5.474   0.698   3.499  1.0955  0.2404 -0.4100
 1896TIP3   OH2 5651   0.310   0.536   2.426  0.0290  0.1463  0.3415
 1896TIP3    H1 5652   0.402   0.512   2.438 -0.0952 -0.0901  0.8882
 1896TIP3    H2 5653   0.311   0.607   2.362  0.5381 -0.2818 -0.1319
 1897TIP3   OH2 5654   6.615   6.578   1.589  1.0755  0.1536  0.7168
 1897TIP3    H1 5655   6.595   6.507   1.528  0.0825  1.4065 -0.4672
 1897TIP3    H2 5656   6.702   6.608   1.563  1.5129 -0.6187  1.2414
 1898TIP3   OH2 5657   6.208   4.170   5.101  0.3292  0.0180  0.1955
 1898TIP3    H1 5658   6.129   4.117   5.106 -0.1692  0.7880  0.7502
 1898TIP3    H2 5659   6.266   4.134   5.168  0.8808 -1.1942 -0.8847
 1899TIP3   OH2 5660   7.143   5.828   0.884  0.1118 -0.1437  0.0057
 1899TIP3    H1 5661   7.100   5.748   0.913  1.8723 -0.9513  0.4953
 1899TIP3    H2 5662   7.172   5.809   0.795  1.6313 -0.5615  0.5503
 1900TIP3   OH2 5663   3.601   3.702   2.316 -0.4407  0.0203 -0.5645
 1900TIP3    H1 5664   3.571   3.764   2.382  0.2953  0.6470 -0.8192
 1900TIP3    H2 5665   3.598   3.750   2.233  2.0164  0.3920 -0.5120
 1901TIP3   OH2 5666   5.519   3.508   2.989  0.3039  0.1936  0.7628
 1901TIP3    H1 5667   5.566   3.524   3.071  0.5898 -2.1734  1.1167
 1901TIP3    H2 5668   5.584   3.525   2.920  1.3586 -1.7253  1.2076
 1902TIP3   OH2 5669   0.604   3.531   2.572 -0.1576  0.0278 -0.0721
 1902TIP3    H1 5670   0.545   3.482   2.629 -0.8965 -0.1090 -0.9166
 1902TIP3    H2 5671   0.597   3.621   2.602 -2.4289  0.3821 -1.4175
 1903TIP3   OH2 5672   6.743   5.679   3.776  0.4107  0.3030 -0.2082
 1903TIP3    H1 5673   6.744   5.764   3.732  0.1788  0.4318  0.0300
 1903TIP3    H2 5674   6.696   5.695   3.858 -0.2251 -0.2018 -0.4635
 1904TIP3   OH2 5675   3.961   2.320   2.741  0.2215  0.7175  0.0014
 1904TIP3    H1 5676   3.957   2.381   2.668  1.1785  0.0131 -0.6612
 1904TIP3    H2 5677   3.906   2.246   2.714  1.2049  0.1043 -0.3605
 1905TIP3   OH2 5678   6.446   6.805   3.101  1.0181 -0.0823  0.0209
 1905TIP3    H1 5679   6.502   6.737   3.064 -0.6193 -1.4417 -0.0957
 1905TIP3    H2 5680   6.357   6.773   3.086  0.2195  1.4115  1.2848
 1906TIP3   OH2 5681   6.316   5.956   3.140 -0.2346  0.1421 -0.0415
 1906TIP3    H1 5682   6.314   5.954   3.236 -0.5354  1.3873 -0.0130
 1906TIP3    H2 5683   6.224   5.953   3.114 -0.1491 -0.3771 -0.3085
 1907TIP3   OH2 5684   0.043   1.759   5.506  0.3414  0.4391 -0.0336
 1907TIP3    H1 5685   0.116   1.711   5.545  0.1057  0.6142  0.6443
 1907TIP3    H2 5686  -0.021   1.766   5.577 -0.0250  0.9189 -0.4059
 1908TIP3   OH2 5687   0.221   4.336   3.540  0.4669  0.1107  0.0272
 1908TIP3    H1 5688   0.134   4.360   3.507  0.4487  1.1670  0.7945
 1908TIP3    H2 5689   0.257   4.280   3.471 -0.2503  0.8326 -0.9801
 1909TIP3   OH2 5690   0.670   5.532   5.748 -0.4228 -0.3176  0.0672
 1909TIP3    H1 5691   0.586   5.486   5.750 -1.1780  0.9048 -1.2414
 1909TIP3    H2 5692   0.654   5.612   5.798  0.1713 -0.3765  0.3616
 1910TIP3   OH2 5693   1.310   4.447   0.089 -0.3468  0.3322 -0.5765
 1910TIP3    H1 5694   1.227   4.418   0.127  0.0821  0.6546  0.6534
 1910TIP3    H2 5695   1.329   4.530   0.132  0.5353  0.3436 -0.9578
 1911TIP3   OH2 5696   1.441   5.538   1.163  0.0406 -0.4606  0.0373
 1911TIP3    H1 5697   1.519   5.592   1.148  0.1972 -0.0488  1.9688
 1911TIP3    H2 5698   1.367   5.597   1.150  0.1970  0.1410  1.5874
 1912TIP3   OH2 5699   3.157   5.133   2.781 -0.4287 -0.2786  0.3685
 1912TIP3    H1 5700   3.191   5.142   2.870  1.9654 -0.3201 -0.4983
 1912TIP3    H2 5701   3.065   5.108   2.794 -0.6242  1.3174  2.8027
 1913TIP3   OH2 5702   1.178   1.607   0.055  0.3121 -0.4393 -0.2927
 1913TIP3    H1 5703   1.251   1.657   0.020 -0.4938 -0.2220 -1.7639
 1913TIP3    H2 5704   1.196   1.600   0.148  1.1171  1.4630 -0.2565
 1914TIP3   OH2 5705   6.441   0.498   1.171  0.2114  0.3686  0.1692
 1914TIP3    H1 5706   6.409   0.412   1.143  1.4183 -0.4897  1.3233
 1914TIP3    H2 5707   6.512   0.518   1.109  1.6803 -0.7049  1.4458
 1915TIP3   OH2 5708   6.128   4.687   2.983 -0.0244 -0.8879 -0.4767
 1915TIP3    H1 5709   6.117   4.625   3.055  1.0617 -0.7537 -0.1838
 1915TIP3    H2 5710   6.222   4.700   2.976 -0.1088 -0.8443 -1.8873
 1916TIP3   OH2 5711   6.865   0.240   0.971  0.3140 -0.1787  0.3763
 1916TIP3    H1 5712   6.782   0.245   0.923  1.3291 -0.8568 -1.5446
 1916TIP3    H2 5713   6.891   0.332   0.983 -1.2476  0.0901  2.0466
 1917TIP3   OH2 5714   7.095   3.414   3.351 -0.3420  0.1503  0.4033
 1917TIP3    H1 5715   7.084   3.501   3.312 -0.8204  0.2585  0.7779
 1917TIP3    H2 5716   7.012   3.397   3.395 -0.3403 -0.5983  0.1320
 1918TIP3   OH2 5717   1.664   0.316   1.556  0.2327 -0.0976  0.4092
 1918TIP3    H1 5718   1.700   0.228   1.563 -0.0533 -0.1779  0.9801
 1918TIP3    H2 5719   1.571   0.302   1.536  0.5679  0.1119 -1.4116
 1919TIP3   OH2 5720   0.294   2.603   3.713 -0.1108 -0.7280 -0.2094
 1919TIP3    H1 5721   0.334   2.663   3.775  0.5737 -0.6869 -0.6845
 1919TIP3    H2 5722   0.277   2.524   3.764  0.3640 -0.6609  0.0594
 1920TIP3   OH2 5723   5.740   1.289   5.521 -0.3350 -0.4838  0.1622
 1920TIP3    H1 5724   5.687   1.329   5.590 -0.1152  0.0828  0.0132
 1920TIP3    H2 5725   5.686   1.296   5.442  0.6592  1.8093 -0.3939
 1921TIP3   OH2 5726   1.132   3.182   5.548 -0.0518  0.8037 -0.2038
 1921TIP3    H1 5727   1.063   3.247   5.541  1.3723  2.2511 -1.5235
 1921TIP3    H2 5728   1.152   3.158   5.457 -0.1184 -1.0291  0.2303
 1922TIP3   OH2 5729   6.256   1.395   4.463  0.3870 -0.3863 -0.1609
 1922TIP3    H1 5730   6.345   1.360   4.467  1.4792  2.1142 -0.8805
 1922TIP3    H2 5731   6.238   1.427   4.552  1.6274  2.1891 -0.7512
 1923TIP3   OH2 5732   5.819   4.165   3.912  0.5490 -0.1086  0.0452
 1923TIP3    H1 5733   5.733   4.149   3.950  1.1140 -1.8729  0.6662
 1923TIP3    H2 5734   5.855   4.078   3.894  1.8962  0.5942 -0.9312
 1924TIP3   OH2 5735   4.104   5.406   2.200 -0.1236 -0.1636 -0.1844
 1924TIP3    H1 5736   4.069   5.383   2.287  1.1685  0.9461  0.6514
 1924TIP3    H2 5737   4.129   5.322   2.162 -0.8493 -0.6795  0.4326
 1925TIP3   OH2 5738   4.732   0.085   4.118  0.4275  0.0149  0.3241
 1925TIP3    H1 5739   4.676   0.114   4.190  0.4241 -0.1292  0.3799
 1925TIP3    H2 5740   4.671   0.050   4.053  0.4615 -0.2618  0.4405
 1926TIP3   OH2 5741   1.720   6.292   0.824 -0.4013  0.4076 -0.6839
 1926TIP3    H1 5742   1.696   6.268   0.734  0.7054  0.4796 -1.0121
 1926TIP3    H2 5743   1.792   6.233   0.846 -1.3866 -0.3688  0.5836
 1927TIP3   OH2 5744   0.301   3.886   3.050  0.0937  0.1603 -0.3677
 1927TIP3    H1 5745   0.307   3.968   3.099  1.5599 -0.1708  0.0683
 1927TIP3    H2 5746   0.243   3.831   3.103 -2.0284  1.3387 -1.3603
 1928TIP3   OH2 5747   0.551   4.340   0.985  0.1028  0.1118 -0.6025
 1928TIP3    H1 5748   0.501   4.278   0.932  2.1847 -1.5083 -0.7947
 1928TIP3    H2 5749   0.570   4.412   0.925 -1.7160  0.6418 -0.5925
 1929TIP3   OH2 5750   4.491   3.975   0.791  0.3020  0.6323 -0.1134
 1929TIP3    H1 5751   4.540   4.027   0.728  0.4678 -0.1445 -0.6455
 1929TIP3    H2 5752   4.419   3.937   0.740 -0.8733  1.7453  0.6516
 1930TIP3   OH2 5753   7.155   1.783   5.245  0.8241  0.8027 -0.0743
 1930TIP3    H1 5754   7.185   1.759   5.333  2.1235  1.8877 -0.1910
 1930TIP3    H2 5755   7.129   1.701   5.205  2.5899 -0.0649  0.4625
 1931TIP3   OH2 5756   6.755   1.055   0.307 -0.2427 -0.4577  0.1402
 1931TIP3    H1 5757   6.719   1.085   0.223 -1.4481 -1.8324  0.1336
 1931TIP3    H2 5758   6.843   1.026   0.286 -0.4951 -0.6826 -0.6478
 1932TIP3   OH2 5759   1.586   6.431   1.683 -0.0132  0.3407 -0.4556
 1932TIP3    H1 5760   1.604   6.399   1.594 -1.3650 -0.5146 -0.4503
 1932TIP3    H2 5761   1.640   6.377   1.740  1.5901  1.5245 -0.7910
 1933TIP3   OH2 5762   1.237   0.778   4.271  0.5650 -0.1521 -0.6478
 1933TIP3    H1 5763   1.291   0.790   4.349 -0.4197 -0.5457  0.1100
 1933TIP3    H2 5764   1.215   0.867   4.242 -0.8450  0.0136  0.8043
 1934TIP3   OH2 5765   1.629   4.761   3.897 -0.1645 -0.8726 -0.2498
 1934TIP3    H1 5766   1.677   4.679   3.902  0.1277 -0.8128 -1.7581
 1934TIP3    H2 5767   1.680   4.816   3.838  0.0646  0.7059  1.3513
 1935TIP3   OH2 5768   0.922   4.141   2.140 -0.4224  0.1538 -0.3503
 1935TIP3    H1 5769   0.899   4.083   2.067 -0.7490  0.2061 -0.2916
 1935TIP3    H2 5770   1.008   4.110   2.169  0.1924  0.7974 -1.4267
 1936TIP3   OH2 5771   3.904   6.488   5.561 -0.4187 -0.0892 -0.0837
 1936TIP3    H1 5772   3.846   6.561   5.537  1.5875  1.0835 -1.8046
 1936TIP3    H2 5773   3.969   6.528   5.620  0.1003 -0.7155 -0.2182
 1937TIP3   OH2 5774   6.943   5.006   2.301 -0.3280  0.0984 -0.2498
 1937TIP3    H1 5775   6.851   5.030   2.291 -0.1966  1.0597  0.6437
 1937TIP3    H2 5776   6.971   5.052   2.380  0.8138 -0.5220 -0.2725
 1938TIP3   OH2 5777   3.249   4.818   1.048 -0.2513 -0.6612 -0.2451
 1938TIP3    H1 5778   3.259   4.877   0.972  0.3851 -0.7907 -0.2737
 1938TIP3    H2 5779   3.275   4.872   1.123  0.8387 -1.0349 -0.3283
 1939TIP3   OH2 5780   7.010   5.628   0.994 -0.0344 -0.3733  0.3552
 1939TIP3    H1 5781   6.946   5.657   1.058  0.0287 -0.6172  0.5287
 1939TIP3    H2 5782   6.985   5.537   0.974  0.6723 -0.7027  0.9451
 1940TIP3   OH2 5783   1.616   4.549   0.330 -0.1819  0.9317  0.4780
 1940TIP3    H1 5784   1.703   4.541   0.292  0.3348  1.0299  1.5824
 1940TIP3    H2 5785   1.604   4.467   0.378 -1.2500  0.3593 -0.7281
 1941TIP3   OH2 5786   6.299   3.569   0.187  0.0056  0.1357 -0.2961
 1941TIP3    H1 5787   6.250   3.611   0.116  0.7491  1.0182 -0.3050
 1941TIP3    H2 5788   6.379   3.537   0.146  0.6657  1.0747  0.2056
 1942TIP3   OH2 5789   6.657   1.353   1.293  0.1859  0.0351  0.7532
 1942TIP3    H1 5790   6.708   1.415   1.241  1.5611 -0.0527  1.9619
 1942TIP3    H2 5791   6.566   1.372   1.268  0.6366  1.7498  0.2448
 1943TIP3   OH2 5792   3.297   6.247   0.563  0.0189 -0.8310  0.3583
 1943TIP3    H1 5793   3.288   6.281   0.651  1.0780 -1.4062  0.7103
 1943TIP3    H2 5794   3.392   6.243   0.548 -0.1396  0.5074 -1.3026
 1944TIP3   OH2 5795   5.337   6.490   4.887  0.2606  0.3281  0.0781
 1944TIP3    H1 5796   5.256   6.483   4.835  1.3222 -0.7741 -1.5391
 1944TIP3    H2 5797   5.382   6.566   4.850  1.0413 -0.4875 -0.7159
 1945TIP3   OH2 5798   5.911   2.556   0.422 -0.8103  0.0426 -0.0210
 1945TIP3    H1 5799   5.896   2.644   0.388 -1.2054  1.3768  3.2063
 1945TIP3    H2 5800   5.852   2.500   0.371  0.5813  1.2565 -3.2462
 1946TIP3   OH2 5801   3.651   2.356   4.070 -0.1223 -0.4582 -0.0016
 1946TIP3    H1 5802   3.669   2.320   3.984 -0.3125 -0.3499 -0.0876
 1946TIP3    H2 5803   3.703   2.303   4.130 -0.8950 -1.3104 -0.0560
 1947TIP3   OH2 5804   1.953   4.216   3.352 -0.4957 -0.1771  0.0823
 1947TIP3    H1 5805   1.915   4.303   3.339 -0.8794 -0.5048 -1.0375
 1947TIP3    H2 5806   1.968   4.211   3.447  0.9606  1.6801  0.0029
 1948TIP3   OH2 5807   2.052   4.873   4.783  0.2977  0.0340 -0.2226
 1948TIP3    H1 5808   2.061   4.787   4.823  0.2364 -0.1768 -0.6480
 1948TIP3    H2 5809   2.006   4.926   4.848  0.8466 -0.0892  0.2683
 1949TIP3   OH2 5810   2.987   6.351   1.924  0.0324  0.4786  0.4302
 1949TIP3    H1 5811   2.909   6.398   1.957 -0.4451 -0.2494  0.3630
 1949TIP3    H2 5812   3.019   6.405   1.852 -0.4241  0.7780  0.4454
 1950TIP3   OH2 5813   0.644   1.110   2.026 -0.2741 -0.6027 -0.8017
 1950TIP3    H1 5814   0.727   1.069   2.050 -0.3187 -0.2676 -0.0455
 1950TIP3    H2 5815   0.648   1.197   2.064 -1.2800 -0.8481 -0.0959
 1951TIP3   OH2 5816   1.216   2.397   3.495  0.1452  0.3073 -0.3910
 1951TIP3    H1 5817   1.169   2.319   3.525 -0.6232  0.5667 -0.8726
 1951TIP3    H2 5818   1.152   2.467   3.502  0.9392  0.9813  0.3766
 1952TIP3   OH2 5819   5.909   3.921   0.418 -0.2089 -0.2457  0.0303
 1952TIP3    H1 5820   5.955   4.004   0.409 -0.0820  0.1464  3.1824
 1952TIP3    H2 5821   5.830   3.931   0.365  0.3068  1.4681 -0.4792
 1953TIP3   OH2 5822   2.210   6.726   4.871 -0.0009 -0.0449  0.4889
 1953TIP3    H1 5823   2.265   6.717   4.794  0.5303  0.5602  0.7921
 1953TIP3    H2 5824   2.174   6.638   4.886  1.0122 -0.4878  0.3876
 1954TIP3   OH2 5825   5.361   1.036   0.979  0.2899 -0.1222 -0.2682
 1954TIP3    H1 5826   5.416   1.113   0.994 -0.5632  0.7025 -1.2328
 1954TIP3    H2 5827   5.282   1.051   1.031 -0.0452 -0.1626 -0.7631
 1955TIP3   OH2 5828   6.231   4.794   4.003 -0.6235 -0.6038 -0.3672
 1955TIP3    H1 5829   6.176   4.862   3.965 -0.3365  1.7100  2.9543
 1955TIP3    H2 5830   6.181   4.762   4.079  0.2633 -2.4667 -0.5100
 1956TIP3   OH2 5831   2.176   3.732   3.884  0.7507 -0.0884  0.2655
 1956TIP3    H1 5832   2.246   3.728   3.950  1.6547  1.3981 -0.5368
 1956TIP3    H2 5833   2.179   3.823   3.853  0.8778 -0.9183 -2.3346
 1957TIP3   OH2 5834   1.425   5.598   5.275 -0.4931  0.3289 -0.3052
 1957TIP3    H1 5835   1.473   5.655   5.334 -0.3261  0.1088 -0.2252
 1957TIP3    H2 5836   1.479   5.596   5.195  0.9025 -1.7925  0.6001
 1958TIP3   OH2 5837   6.147   1.724   0.815  0.3322 -0.3978 -0.0515
 1958TIP3    H1 5838   6.117   1.702   0.903 -0.5386 -0.3678 -0.3373
 1958TIP3    H2 5839   6.238   1.695   0.813  1.3552  2.2522  1.8500
 1959TIP3   OH2 5840   7.095   4.468   0.795  0.2832  0.0266 -0.6438
 1959TIP3    H1 5841   7.182   4.471   0.755  1.4686  0.5193  1.7985
 1959TIP3    H2 5842   7.055   4.552   0.773  1.1289  0.5212 -0.3327
 1960TIP3   OH2 5843   3.545   0.367   5.112  0.0171 -0.1101  0.8032
 1960TIP3    H1 5844   3.487   0.295   5.134 -0.6374  0.0033 -0.4834
 1960TIP3    H2 5845   3.487   0.443   5.102  0.1707 -0.2807 -1.8320
 1961TIP3   OH2 5846   4.060   6.308   3.325 -0.4283  0.1936  0.3052
 1961TIP3    H1 5847   4.100   6.349   3.402  0.7078  2.6627 -1.4653
 1961TIP3    H2 5848   4.132   6.262   3.282 -0.0604  2.1135 -1.2807
 1962TIP3   OH2 5849   4.278   3.936   2.394  0.1209 -0.4120  0.3062
 1962TIP3    H1 5850   4.270   4.013   2.451 -1.9932 -2.1472  2.5817
 1962TIP3    H2 5851   4.225   3.958   2.318  2.2654  1.6116 -0.7235
 1963TIP3   OH2 5852   0.689   2.031   0.912 -0.1148  0.0439  0.0662
 1963TIP3    H1 5853   0.622   2.070   0.858  0.0156 -0.2699 -0.3276
 1963TIP3    H2 5854   0.748   1.987   0.850 -0.4867 -1.1157  0.5122
 1964TIP3   OH2 5855   0.865   3.220   3.840  0.3045  0.4077 -0.5823
 1964TIP3    H1 5856   0.880   3.271   3.760 -0.8733  2.0771  0.2015
 1964TIP3    H2 5857   0.914   3.266   3.907 -1.0237  0.7155  0.2089
 1965TIP3   OH2 5858   4.996   3.888   1.467 -1.0874  0.3835 -1.3276
 1965TIP3    H1 5859   5.020   3.958   1.528 -0.2968 -0.7207 -0.3315
 1965TIP3    H2 5860   5.079   3.854   1.435 -1.1640 -2.4253  0.9499
 1966TIP3   OH2 5861   5.329   0.254   2.680  0.1601 -0.6781  0.3478
 1966TIP3    H1 5862   5.389   0.271   2.753 -1.0039  0.2299  1.1490
 1966TIP3    H2 5863   5.339   0.330   2.622 -1.9396  0.8170  1.7585
 1967TIP3   OH2 5864   5.311   2.927   1.280 -0.5244 -0.3255  0.1016
 1967TIP3    H1 5865   5.272   2.982   1.349 -1.5377 -0.5104 -0.2996
 1967TIP3    H2 5866   5.321   2.987   1.206  0.7412 -0.0806  0.4577
 1968TIP3   OH2 5867   5.654   2.663   3.371  0.0795 -0.6672  0.1711
 1968TIP3    H1 5868   5.670   2.711   3.452  2.0484 -2.1765  0.7322
 1968TIP3    H2 5869   5.591   2.718   3.323  0.1027  1.0471  1.9801
 1969TIP3   OH2 5870   0.302   0.823   2.813 -0.1759 -0.0890  0.0127
 1969TIP3    H1 5871   0.244   0.886   2.855 -1.6670 -2.1237  1.1573
 1969TIP3    H2 5872   0.368   0.803   2.879 -0.4555 -0.6646  0.1236
 1970TIP3   OH2 5873   0.614   4.070   1.963 -0.1898  0.1760 -0.2463
 1970TIP3    H1 5874   0.707   4.082   1.942 -0.5580  1.5458 -1.1932
 1970TIP3    H2 5875   0.584   4.005   1.899 -0.1515  0.6483 -0.7553
 1971TIP3   OH2 5876   2.986   1.351   0.790 -0.0943  0.6682  0.2934
 1971TIP3    H1 5877   3.014   1.263   0.764 -0.4514  0.1991  1.4322
 1971TIP3    H2 5878   3.054   1.409   0.757 -0.9621  0.2415 -2.4667
 1972TIP3   OH2 5879   3.556   5.288   0.718  0.1243 -0.1711  0.5076
 1972TIP3    H1 5880   3.630   5.301   0.776  0.6904 -1.5363  0.1270
 1972TIP3    H2 5881   3.483   5.331   0.763  1.3228  2.1629  0.3651
 1973TIP3   OH2 5882   6.885   3.636   0.406  0.2584  0.4211 -0.1994
 1973TIP3    H1 5883   6.825   3.707   0.426 -1.3760 -0.0920 -2.8503
 1973TIP3    H2 5884   6.909   3.649   0.315  1.4482 -1.3427 -0.1871
 1974TIP3   OH2 5885   5.997   1.685   0.196  0.1962 -0.5323  0.2567
 1974TIP3    H1 5886   6.070   1.715   0.142 -0.6700  0.5046 -0.3629
 1974TIP3    H2 5887   5.973   1.600   0.158  1.7557 -1.4221  1.1510
 1975TIP3   OH2 5888   6.092   3.423   0.642  0.0111  0.5918  0.1786
 1975TIP3    H1 5889   6.095   3.342   0.693 -2.1379  0.4759  0.2403
 1975TIP3    H2 5890   6.039   3.483   0.696  1.4345  2.0166  0.0708
 1976TIP3   OH2 5891   3.317   2.294   4.589 -0.0467  0.2265  0.6997
 1976TIP3    H1 5892   3.410   2.284   4.572 -0.0111  2.4094 -0.8017
 1976TIP3    H2 5893   3.302   2.389   4.585 -2.1174  0.0415  2.1855
 1977TIP3   OH2 5894   6.151   0.131   4.438 -0.1735 -0.2669  0.1192
 1977TIP3    H1 5895   6.087   0.196   4.409  0.2365  0.5044  0.8671
 1977TIP3    H2 5896   6.114   0.095   4.518 -0.0436 -0.3893  0.1250
 1978TIP3   OH2 5897   3.557   3.064   5.482 -0.0505 -0.1076  0.0196
 1978TIP3    H1 5898   3.482   3.038   5.429 -0.3179 -0.2070  0.4371
 1978TIP3    H2 5899   3.524   3.136   5.536  0.6792  1.1228 -1.1174
 1979TIP3   OH2 5900   4.668   0.212   5.634 -0.6382 -0.1273 -0.0782
 1979TIP3    H1 5901   4.654   0.245   5.545 -1.0959  0.3301  0.1571
 1979TIP3    H2 5902   4.656   0.118   5.627  1.8054 -0.4400 -0.9886
 1980TIP3   OH2 5903   4.996   4.597   2.610  0.2091  0.3694  0.1325
 1980TIP3    H1 5904   4.999   4.585   2.705  2.6818 -3.0098 -0.1686
 1980TIP3    H2 5905   5.033   4.684   2.595  3.9071 -0.6347  2.2215
 1981TIP3   OH2 5906   3.886   0.233   4.617  0.0956 -0.8357 -0.1028
 1981TIP3    H1 5907   3.848   0.151   4.649 -1.9748  0.0447 -0.1457
 1981TIP3    H2 5908   3.810   0.288   4.597  1.3033 -0.1485 -3.4510
 1982TIP3   OH2 5909   6.104   3.271   1.238  0.2372  1.0800 -0.1238
 1982TIP3    H1 5910   6.088   3.275   1.143 -0.3117 -0.9741 -0.1641
 1982TIP3    H2 5911   6.022   3.237   1.275  1.6661 -2.0120  0.5617
 1983TIP3   OH2 5912   4.776   4.414   5.071 -0.5169  0.2198 -0.3014
 1983TIP3    H1 5913   4.764   4.323   5.098  0.4721  0.4872  1.1548
 1983TIP3    H2 5914   4.860   4.415   5.026  1.2476  0.9632  2.7608
 1984TIP3   OH2 5915   5.536   0.797   1.450 -0.1903 -0.1501 -0.4829
 1984TIP3    H1 5916   5.564   0.733   1.516  0.0714 -0.3354 -0.7692
 1984TIP3    H2 5917   5.441   0.786   1.446 -0.4900  1.2726  1.3097
 1985TIP3   OH2 5918   4.271   3.001   2.831 -0.0024  0.1779 -0.2199
 1985TIP3    H1 5919   4.205   3.050   2.880 -0.1883 -0.8295  0.5552
 1985TIP3    H2 5920   4.285   3.053   2.752 -2.1213  0.1530 -0.6714
 1986TIP3   OH2 5921   0.022   4.560   2.373  0.5916  0.3240  0.3227
 1986TIP3    H1 5922   0.022   4.530   2.282 -0.8218 -0.7336  0.6418
 1986TIP3    H2 5923   0.001   4.482   2.425  1.8927  0.7957  1.6220
 1987TIP3   OH2 5924   6.783   0.049   4.273 -0.4121 -0.4632  0.6228
 1987TIP3    H1 5925   6.787   0.091   4.359 -0.5463  1.7359 -0.3699
 1987TIP3    H2 5926   6.869   0.067   4.234 -0.5417 -0.9649  0.0982
 1988TIP3   OH2 5927   0.042   3.178   3.295  0.3494  0.1092 -0.6263
 1988TIP3    H1 5928   0.053   3.164   3.389 -0.9483 -1.4594 -0.6547
 1988TIP3    H2 5929  -0.008   3.260   3.288 -0.1230 -0.1126  0.0908
 1989TIP3   OH2 5930   2.003   5.033   1.145 -0.0206  0.7201  0.0135
 1989TIP3    H1 5931   1.926   5.060   1.096 -0.4846 -0.4738  0.0482
 1989TIP3    H2 5932   1.968   5.006   1.230  0.2143 -1.2471 -0.4750
 1990TIP3   OH2 5933   1.098   5.782   3.078  0.2654 -0.0669  0.4598
 1990TIP3    H1 5934   1.129   5.720   3.012 -0.3606 -1.5363  1.4996
 1990TIP3    H2 5935   1.004   5.767   3.084  0.2745  0.1759  1.5276
 1991TIP3   OH2 5936   2.732   5.985   5.118  0.3114  0.1217  0.2114
 1991TIP3    H1 5937   2.774   6.071   5.113  2.1184 -0.7534 -1.0532
 1991TIP3    H2 5938   2.764   5.939   5.040 -2.4896 -0.9175 -0.4443
 1992TIP3   OH2 5939   0.444   0.402   5.665  0.7049  0.3871 -1.0833
 1992TIP3    H1 5940   0.460   0.470   5.730 -0.8539 -0.1016 -0.1084
 1992TIP3    H2 5941   0.378   0.439   5.607 -1.9008 -0.9814  0.8029
 1993TIP3   OH2 5942   6.524   5.352   0.315  0.4903  0.4182 -0.2672
 1993TIP3    H1 5943   6.546   5.308   0.397  2.0658  1.4292 -0.1028
 1993TIP3    H2 5944   6.608   5.365   0.272 -0.0467  2.0742 -0.9108
 1994TIP3   OH2 5945   4.469   1.804   1.445  0.0221 -0.6362 -0.1113
 1994TIP3    H1 5946   4.521   1.834   1.370  2.1833  0.7185  1.8143
 1994TIP3    H2 5947   4.477   1.874   1.509 -0.9851 -2.1650  1.7892
 1995TIP3   OH2 5948   4.419   5.418   0.877 -0.0382 -0.1747 -1.2820
 1995TIP3    H1 5949   4.442   5.325   0.874  0.6093 -0.0200 -1.1287
 1995TIP3    H2 5950   4.398   5.440   0.786  2.2635  0.1366 -1.7846
 1996TIP3   OH2 5951   4.081   3.166   5.609  0.1887  0.3213  0.3835
 1996TIP3    H1 5952   4.078   3.140   5.517 -2.0978  1.6782 -0.0134
 1996TIP3    H2 5953   4.166   3.137   5.640  0.4545 -1.4297 -1.7724
 1997TIP3   OH2 5954   6.964   2.169   1.619 -0.3050 -0.1720 -0.6456
 1997TIP3    H1 5955   7.060   2.168   1.620 -0.3026 -2.0579 -0.2432
 1997TIP3    H2 5956   6.939   2.174   1.711 -0.5567 -1.4474 -0.6229
 1998TIP3   OH2 5957   4.111   1.953   0.635  0.3575  0.4695 -0.3603
 1998TIP3    H1 5958   4.072   1.881   0.586  0.5806  0.0518  0.0798
 1998TIP3    H2 5959   4.144   2.013   0.567  0.8275 -0.1936 -0.7202
 1999TIP3   OH2 5960   6.031   3.046   3.179 -0.4324 -0.4920 -0.2093
 1999TIP3    H1 5961   6.010   3.074   3.268 -2.0599 -1.2083 -0.3442
 1999TIP3    H2 5962   5.970   3.093   3.123  2.0545  1.7440 -1.2588
 2000TIP3   OH2 5963   0.566   0.982   2.606 -0.0431 -0.0664 -0.1357
 2000TIP3    H1 5964   0.605   0.985   2.519  0.1151 -1.5223 -0.1394
 2000TIP3    H2 5965   0.485   1.034   2.598 -0.9679 -1.6363 -1.6617
 2001TIP3   OH2 5966   6.425   6.178   5.280 -0.7106 -0.8941 -0.0175
 2001TIP3    H1 5967   6.361   6.247   5.259  0.1399  0.0659  0.4701
 2001TIP3    H2 5968   6.509   6.222   5.280 -0.1082 -2.0080  0.0204
 2002TIP3   OH2 5969   5.549   3.804   5.592 -0.0118 -0.0521  0.3497
 2002TIP3    H1 5970   5.530   3.732   5.652 -0.5285 -0.3512 -0.1654
 2002TIP3    H2 5971   5.495   3.787   5.515  0.2262  0.6242  0.0188
 2003TIP3   OH2 5972   3.524   3.549   4.403 -0.3091 -0.1574 -0.3757
 2003TIP3    H1 5973   3.465   3.498   4.459 -0.9339  0.4098 -0.4926
 2003TIP3    H2 5974   3.601   3.494   4.391  0.9302  0.6008  3.0137
 2004TIP3   OH2 5975   7.172   5.856   2.229  0.2872  0.3822 -0.0902
 2004TIP3    H1 5976   7.138   5.767   2.227  0.3752  0.3283  0.8280
 2004TIP3    H2 5977   7.104   5.907   2.184 -0.7462  0.1663  1.1543
 2005TIP3   OH2 5978   1.156   6.106   0.745 -0.2970  0.3661  0.4648
 2005TIP3    H1 5979   1.101   6.106   0.666 -0.0283 -1.5793  0.2224
 2005TIP3    H2 5980   1.173   6.199   0.762  1.1548  0.8809 -2.8313
 2006TIP3   OH2 5981   3.033   6.641   1.721  0.1877  0.0279 -0.0772
 2006TIP3    H1 5982   3.029   6.730   1.755 -1.3746 -0.0692  0.0851
 2006TIP3    H2 5983   2.968   6.639   1.650 -1.0156 -1.3848  0.9940
 2007TIP3   OH2 5984   6.698   6.274   3.490 -0.3604  0.1968  0.1519
 2007TIP3    H1 5985   6.606   6.299   3.477 -0.3328  0.5818  0.6439
 2007TIP3    H2 5986   6.696   6.218   3.568 -0.5263 -2.0605 -1.3765
 2008TIP3   OH2 5987   0.133   0.109   2.542  0.2543  0.1732  0.0486
 2008TIP3    H1 5988   0.151   0.132   2.451 -1.9315 -0.5566 -0.6372
 2008TIP3    H2 5989   0.189   0.166   2.594  1.5459  0.5941 -1.7541
 2009TIP3   OH2 5990   0.045   1.406   5.445 -0.0190  1.1393  0.1090
 2009TIP3    H1 5991  -0.024   1.344   5.469  0.5751  0.8684  1.1647
 2009TIP3    H2 5992   0.051   1.400   5.350 -1.0856  0.7772  0.0574
 2010TIP3   OH2 5993   1.899   5.174   4.471  0.2245  0.3483  0.2225
 2010TIP3    H1 5994   1.924   5.206   4.385 -0.6717  0.0670 -0.1483
 2010TIP3    H2 5995   1.912   5.079   4.466  2.2434  0.5093  1.1105
 2011TIP3   OH2 5996   1.460   5.328   3.811 -0.3254  0.1583 -0.1761
 2011TIP3    H1 5997   1.497   5.241   3.830  0.4302  0.5296  0.1268
 2011TIP3    H2 5998   1.378   5.310   3.766 -0.1068 -0.7161 -0.2532
 2012TIP3   OH2 5999   2.164   2.426   0.154  0.2193  0.0326 -0.4519
 2012TIP3    H1 6000   2.164   2.331   0.169  0.7951  0.0634 -0.2430
 2012TIP3    H2 6001   2.111   2.437   0.075 -1.7336 -0.2554  0.7504
 2013TIP3   OH2 6002   5.942   0.194   0.241  0.2549 -0.1047 -0.1526
 2013TIP3    H1 6003   5.919   0.230   0.327 -2.1162 -0.3951 -0.6210
 2013TIP3    H2 6004   5.914   0.102   0.245  0.5023 -0.2288 -1.1002
 2014TIP3   OH2 6005   3.033   3.761   5.360 -0.4705  0.2981  0.6861
 2014TIP3    H1 6006   3.058   3.850   5.386  2.0057 -0.0675 -0.1606
 2014TIP3    H2 6007   2.995   3.722   5.439 -1.3244  1.9862  1.1513
 2015TIP3   OH2 6008   1.780   1.402   0.503 -1.1793  0.5396 -0.3603
 2015TIP3    H1 6009   1.828   1.394   0.586 -2.5363 -0.0100  0.4092
 2015TIP3    H2 6010   1.758   1.311   0.480 -3.9455  0.8518  0.6427
 2016TIP3   OH2 6011   0.736   4.018   3.416 -0.2125  0.2849  0.1954
 2016TIP3    H1 6012   0.681   3.995   3.341 -0.4252  1.2317  0.0390
 2016TIP3    H2 6013   0.756   3.935   3.459 -3.5676  0.0319  1.5416
 2017TIP3   OH2 6014   5.411   5.018   3.254  0.3788 -0.5172  0.4619
 2017TIP3    H1 6015   5.319   5.029   3.228 -0.4256 -0.6593  2.9258
 2017TIP3    H2 6016   5.419   4.924   3.272  1.3157 -0.6707 -0.6819
 2018TIP3   OH2 6017   3.033   5.210   5.494 -0.0608 -0.0346 -0.1140
 2018TIP3    H1 6018   3.000   5.299   5.507 -0.8574 -0.2487 -0.5692
 2018TIP3    H2 6019   3.010   5.165   5.575 -1.9279 -0.4645 -0.8187
 2019TIP3   OH2 6020   4.426   2.041   0.774  0.3259 -0.3305 -0.2192
 2019TIP3    H1 6021   4.466   1.985   0.708  1.7940 -2.4759  2.2964
 2019TIP3    H2 6022   4.485   2.116   0.781  0.4581 -0.3665 -0.8850
 2020TIP3   OH2 6023   3.947   5.410   4.539 -0.5944 -0.3653 -0.0422
 2020TIP3    H1 6024   3.964   5.375   4.452  0.3023 -0.2091  0.0640
 2020TIP3    H2 6025   4.033   5.439   4.571 -1.2686  1.8947 -0.1164
 2021TIP3   OH2 6026   6.125   5.790   1.581  0.4902 -0.0231  0.1239
 2021TIP3    H1 6027   6.138   5.880   1.549  2.4932  0.4242  1.9369
 2021TIP3    H2 6028   6.185   5.783   1.655 -2.0168 -1.8036  2.1511
 2022TIP3   OH2 6029   1.950   3.838   1.069 -0.3202 -0.0811 -0.6626
 2022TIP3    H1 6030   1.873   3.787   1.046 -0.3951 -0.0704 -0.4337
 2022TIP3    H2 6031   1.973   3.884   0.988 -0.2385 -0.4902 -0.8743
 2023TIP3   OH2 6032   3.368   2.427   2.233  0.1984 -0.3195  0.5523
 2023TIP3    H1 6033   3.309   2.414   2.159  0.6774 -0.8822  0.2618
 2023TIP3    H2 6034   3.330   2.374   2.304  1.1189 -1.8532 -0.0645
 2024TIP3   OH2 6035   1.008   0.443   1.139  0.3174 -0.2158 -0.8533
 2024TIP3    H1 6036   1.092   0.429   1.097  0.2990  0.3370 -1.0798
 2024TIP3    H2 6037   0.943   0.424   1.071  0.2704 -0.1260 -0.8336
 2025TIP3   OH2 6038   5.582   5.855   0.983  0.5625  0.0628  0.0173
 2025TIP3    H1 6039   5.643   5.917   0.944  0.8594 -0.4271 -0.2969
 2025TIP3    H2 6040   5.497   5.879   0.946  0.1209  2.2162  2.1499
 2026TIP3   OH2 6041   3.389   4.377   0.323  0.1734  0.3954 -0.1168
 2026TIP3    H1 6042   3.477   4.408   0.300 -0.1265 -0.6550 -3.1057
 2026TIP3    H2 6043   3.333   4.453   0.308  0.3946  0.6996  0.5531
 2027TIP3   OH2 6044   1.692   1.441   2.213 -0.1583  0.1900 -0.0476
 2027TIP3    H1 6045   1.652   1.378   2.273 -0.7200  0.0124 -0.5883
 2027TIP3    H2 6046   1.786   1.422   2.218 -0.3616 -1.1511 -0.6812
 2028TIP3   OH2 6047   3.983   4.800   2.281  0.2372  0.3469 -0.2575
 2028TIP3    H1 6048   3.984   4.728   2.219 -0.2960  0.1306 -0.0180
 2028TIP3    H2 6049   4.049   4.777   2.347  0.3588  0.2807 -0.4026
 2029TIP3   OH2 6050   3.521   0.912   3.553 -0.3217  0.1532  0.0540
 2029TIP3    H1 6051   3.566   0.880   3.475 -2.8307  0.1678 -1.5111
 2029TIP3    H2 6052   3.514   1.006   3.539 -0.5432  0.1880  0.3952
 2030TIP3   OH2 6053   1.027   5.175   1.386 -0.1724 -0.5331  0.3998
 2030TIP3    H1 6054   1.035   5.088   1.349 -1.4911 -0.5757  0.1441
 2030TIP3    H2 6055   0.961   5.218   1.332  0.3960  0.6025  0.5689
 2031TIP3   OH2 6056   7.137   5.814   4.809  0.6772 -0.5293  0.2651
 2031TIP3    H1 6057   7.226   5.834   4.779  1.2357 -0.5293  1.7987
 2031TIP3    H2 6058   7.132   5.719   4.810  1.2374 -0.5755  1.6345
 2032TIP3   OH2 6059   6.040   6.199   4.523  0.4200  0.4137  0.4881
 2032TIP3    H1 6060   6.058   6.168   4.611  0.2082  0.0741  0.4121
 2032TIP3    H2 6061   5.969   6.262   4.533  1.0222  1.0778  0.6755
 2033TIP3   OH2 6062   3.356   0.200   3.965 -0.3392  0.4518 -0.6781
 2033TIP3    H1 6063   3.364   0.292   3.991 -1.9443  0.5000 -0.2573
 2033TIP3    H2 6064   3.418   0.190   3.893 -1.0669  2.2163 -1.6154
 2034TIP3   OH2 6065   0.671   3.207   2.780  0.3184  0.1862  0.1301
 2034TIP3    H1 6066   0.701   3.224   2.691 -1.5234  0.0032 -0.5685
 2034TIP3    H2 6067   0.609   3.277   2.798  1.0204  0.4900  1.4656
 2035TIP3   OH2 6068   1.427  -0.011   5.896 -0.5918  0.3046 -0.4599
 2035TIP3    H1 6069   1.477   0.034   5.828 -0.0931  0.5339  0.0541
 2035TIP3    H2 6070   1.337   0.020   5.883 -0.0659  2.5351  0.7129
 2036TIP3   OH2 6071   7.148   2.820   4.364 -0.4799  0.2140  0.2049
 2036TIP3    H1 6072   7.126   2.742   4.314  0.0081  0.3034 -0.1634
 2036TIP3    H2 6073   7.073   2.834   4.422 -2.0706  1.3022 -1.9546
 2037TIP3   OH2 6074   5.198   6.093   0.649 -0.1595 -0.8477 -0.0729
 2037TIP3    H1 6075   5.166   6.025   0.590 -0.0320 -1.8998  1.0489
 2037TIP3    H2 6076   5.281   6.121   0.610 -1.1029  0.0495 -1.5678
 2038TIP3   OH2 6077   6.581   2.985   3.979  0.5026  0.0674  0.0957
 2038TIP3    H1 6078   6.569   2.947   4.066  0.9988  0.7734  0.4888
 2038TIP3    H2 6079   6.665   3.030   3.985  1.0761 -0.8044 -1.1001
 2039TIP3   OH2 6080   1.160   2.490   2.666  0.5605 -0.5499 -0.2585
 2039TIP3    H1 6081   1.115   2.496   2.582 -1.3696 -1.6034  0.6449
 2039TIP3    H2 6082   1.166   2.396   2.683  1.6348 -0.3737  0.4437
 2040TIP3   OH2 6083   3.803   0.485   5.110 -0.0622 -0.3922 -0.3236
 2040TIP3    H1 6084   3.795   0.554   5.175  0.2090 -0.7537  0.1023
 2040TIP3    H2 6085   3.715   0.448   5.103 -0.3106  0.2981 -0.8983
 2041TIP3   OH2 6086   4.393   5.264   1.214  0.5862  0.2079  0.6349
 2041TIP3    H1 6087   4.462   5.327   1.194 -0.7214  1.7715  0.8231
 2041TIP3    H2 6088   4.383   5.268   1.309  0.4625 -0.2646  0.6455
 2042TIP3   OH2 6089   3.865   0.434   1.172  0.1683  0.2199 -0.7791
 2042TIP3    H1 6090   3.833   0.384   1.247  1.2228 -0.9049 -1.0494
 2042TIP3    H2 6091   3.868   0.371   1.101  3.9312 -0.0949 -0.5346
 2043TIP3   OH2 6092   3.430   5.440   4.064  0.2130  0.0887  0.4501
 2043TIP3    H1 6093   3.427   5.382   3.988  1.0516 -0.7400  1.0273
 2043TIP3    H2 6094   3.351   5.418   4.114  1.6009 -2.1997  1.7971
 2044TIP3   OH2 6095   2.760   1.611   4.690  0.1548 -0.0348 -0.1851
 2044TIP3    H1 6096   2.709   1.556   4.629  0.9633 -3.3735  1.9053
 2044TIP3    H2 6097   2.846   1.619   4.649 -0.2319  0.4376 -0.9192
 2045TIP3   OH2 6098   1.933   2.306   3.575  0.5986  0.4939 -0.1600
 2045TIP3    H1 6099   1.922   2.400   3.587  0.2229  0.5784 -1.0196
 2045TIP3    H2 6100   1.893   2.288   3.489  1.2345 -0.3408 -0.2988
 2046TIP3   OH2 6101   1.625   4.032   3.308  0.0061  0.6249 -0.5977
 2046TIP3    H1 6102   1.689   4.001   3.243 -2.1554 -1.2890 -1.9456
 2046TIP3    H2 6103   1.540   4.022   3.265 -1.3023  2.4275  1.3830
 2047TIP3   OH2 6104   3.083   2.934   4.793  0.5114 -0.1936  0.5955
 2047TIP3    H1 6105   3.159   2.967   4.840  1.2965  1.0942 -1.4262
 2047TIP3    H2 6106   3.046   3.011   4.750 -0.5105 -1.1838 -0.3847
 2048TIP3   OH2 6107   0.043   0.706   3.912 -0.0134  0.3960  0.5428
 2048TIP3    H1 6108   0.100   0.747   3.977  1.5818  0.3909 -0.7793
 2048TIP3    H2 6109   0.087   0.623   3.891 -0.9905 -0.0353  0.1418
 2049TIP3   OH2 6110   5.602   4.636   3.902 -0.3031  0.2303 -0.3326
 2049TIP3    H1 6111   5.583   4.545   3.878  0.7004 -0.0440 -0.1680
 2049TIP3    H2 6112   5.698   4.641   3.900 -0.2401  0.6867  1.8056
 2050TIP3   OH2 6113   5.200   6.487   2.643  0.0277 -0.0617 -0.3806
 2050TIP3    H1 6114   5.155   6.557   2.691 -1.1750  0.3258 -2.0161
 2050TIP3    H2 6115   5.185   6.409   2.696  0.8303  0.7424  1.1400
 2051TIP3   OH2 6116   1.665   0.401   5.584  0.1908 -0.1648 -0.0463
 2051TIP3    H1 6117   1.747   0.368   5.619 -0.4442 -0.3666  1.3208
 2051TIP3    H2 6118   1.656   0.358   5.499  1.3309 -0.3917 -0.0663
 2052TIP3   OH2 6119   4.246   5.597   5.794 -0.4220 -0.3796 -0.0050
 2052TIP3    H1 6120   4.165   5.641   5.818 -0.5831 -0.5300 -0.2690
 2052TIP3    H2 6121   4.218   5.524   5.738 -0.1764 -0.9323  0.5855
 2053TIP3   OH2 6122   4.470   0.246   4.665  1.2221 -0.2443 -0.1974
 2053TIP3    H1 6123   4.443   0.297   4.589  1.2284 -1.1643 -0.8276
 2053TIP3    H2 6124   4.417   0.166   4.661  2.0549 -0.8251  0.1045
 2054TIP3   OH2 6125   0.122   2.005   3.452  0.4393  0.5735  0.1704
 2054TIP3    H1 6126   0.073   2.085   3.471 -0.9731 -0.2175 -0.0525
 2054TIP3    H2 6127   0.188   2.002   3.522 -0.9368  0.7661  1.5511
 2055TIP3   OH2 6128   2.836   4.577   4.946  0.1809 -0.1084 -0.1836
 2055TIP3    H1 6129   2.758   4.591   4.892  0.6397  0.1800 -0.7766
 2055TIP3    H2 6130   2.893   4.651   4.926  0.4435 -0.1032  0.5514
 2056TIP3   OH2 6131   6.660   1.885   4.200 -0.3069  0.3551 -0.1131
 2056TIP3    H1 6132   6.723   1.814   4.186 -0.7167  0.1152 -0.7642
 2056TIP3    H2 6133   6.612   1.892   4.118 -0.5309  1.1385  0.0710
 2057TIP3   OH2 6134   6.380   2.003   1.007  0.0959 -0.1319  0.4164
 2057TIP3    H1 6135   6.437   2.038   1.075  0.2349 -1.0045  0.7682
 2057TIP3    H2 6136   6.360   1.914   1.036  0.9919 -0.8997 -1.1685
 2058TIP3   OH2 6137   5.450   0.489   0.508  0.4720  0.2369 -0.5603
 2058TIP3    H1 6138   5.505   0.567   0.506  0.5746  0.3540  2.4277
 2058TIP3    H2 6139   5.366   0.517   0.472  0.3904  1.9002  0.7899
 2059TIP3   OH2 6140   4.099   2.220   3.281 -0.3806  0.2954  0.3943
 2059TIP3    H1 6141   4.127   2.138   3.239  1.1426 -0.4330  2.6488
 2059TIP3    H2 6142   4.046   2.192   3.355 -0.2112  1.3868  0.9448
 2060TIP3   OH2 6143   4.678   5.426   4.330  0.8097  0.2976  0.4689
 2060TIP3    H1 6144   4.694   5.405   4.422  1.3389  1.9450  0.7895
 2060TIP3    H2 6145   4.603   5.485   4.332  1.2500  0.8878 -0.0739
 2061TIP3   OH2 6146   0.530   6.641   1.077  0.0299  0.1811  0.2203
 2061TIP3    H1 6147   0.600   6.688   1.121 -0.4873  0.9241  0.2605
 2061TIP3    H2 6148   0.521   6.684   0.992  0.5621 -0.8113 -0.3586
 2062TIP3   OH2 6149   2.098   2.039   0.846 -0.4824 -0.1502 -0.0580
 2062TIP3    H1 6150   2.146   1.961   0.876 -1.8566 -1.3767 -0.9130
 2062TIP3    H2 6151   2.007   2.010   0.839 -0.9629  1.4302 -0.7987
 2063TIP3   OH2 6152   1.162   6.537   4.678 -0.0100 -0.1415  0.2976
 2063TIP3    H1 6153   1.213   6.458   4.696  1.7927  0.6613 -0.9288
 2063TIP3    H2 6154   1.216   6.586   4.616 -2.0065  1.1145 -0.5394
 2064TIP3   OH2 6155   4.441   5.782   0.794  0.4655 -0.1673  0.1049
 2064TIP3    H1 6156   4.410   5.823   0.713  0.9320  1.5703  0.7586
 2064TIP3    H2 6157   4.536   5.784   0.786  0.5896  1.6708  1.4092
 2065TIP3   OH2 6158   0.305   3.456   2.430 -0.1844 -0.4055  0.5763
 2065TIP3    H1 6159   0.332   3.368   2.405 -4.1344 -1.8985  0.8192
 2065TIP3    H2 6160   0.262   3.445   2.514  0.7719  2.1556  1.4930
 2066TIP3   OH2 6161   3.304   1.398   3.481 -0.0779 -0.1718  0.5573
 2066TIP3    H1 6162   3.390   1.369   3.510 -0.0792 -2.2963 -1.2404
 2066TIP3    H2 6163   3.304   1.383   3.387 -1.9454  1.1132  0.2988
 2067TIP3   OH2 6164   2.633   0.563   5.461 -0.4801 -0.1769 -0.0578
 2067TIP3    H1 6165   2.557   0.619   5.473 -0.9701 -0.4307 -1.8362
 2067TIP3    H2 6166   2.696   0.595   5.526 -1.6569  0.7917  0.6437
 2068TIP3   OH2 6167   1.470   3.164   4.562 -0.1106  0.2092  0.6828
 2068TIP3    H1 6168   1.442   3.254   4.578  0.7526  0.3177  1.6810
 2068TIP3    H2 6169   1.520   3.169   4.480 -0.0186  0.6541  0.7617
 2069TIP3   OH2 6170   4.628   0.205   4.878  0.8573  0.5180 -0.2625
 2069TIP3    H1 6171   4.605   0.112   4.888  0.0786  0.7480  0.1546
 2069TIP3    H2 6172   4.565   0.238   4.815 -0.0803  1.1837  0.9760
 2070TIP3   OH2 6173   5.406   1.630   5.692  0.2476 -0.8406 -0.2323
 2070TIP3    H1 6174   5.364   1.640   5.606  1.1964  0.2469 -0.5943
 2070TIP3    H2 6175   5.499   1.614   5.672  0.5610 -0.1460  0.5908
 2071TIP3   OH2 6176   2.797   1.333   4.242  0.3679  0.3140  0.2658
 2071TIP3    H1 6177   2.711   1.296   4.261  0.9261 -1.7366 -0.9305
 2071TIP3    H2 6178   2.781   1.398   4.174 -0.3505  0.6888  0.7820
 2072TIP3   OH2 6179   0.278   1.860   1.933  0.2399  0.1957 -0.5520
 2072TIP3    H1 6180   0.313   1.771   1.925 -0.0736 -0.2809  2.3033
 2072TIP3    H2 6181   0.190   1.848   1.969 -0.0085  1.6609 -0.5967
 2073TIP3   OH2 6182   3.522   2.578   5.425 -0.5780  0.0283 -0.2118
 2073TIP3    H1 6183   3.473   2.513   5.374 -0.0915 -1.3186  0.9691
 2073TIP3    H2 6184   3.573   2.526   5.487  2.0006  1.4082 -1.0601
 2074TIP3   OH2 6185   3.480   3.223   5.241  0.7027 -0.4092  0.0832
 2074TIP3    H1 6186   3.567   3.252   5.267  0.2219  1.8699 -0.6523
 2074TIP3    H2 6187   3.487   3.128   5.235  2.8070 -0.3743  1.1518
 2075TIP3   OH2 6188   6.917   1.165   0.850  0.0337  0.2065  0.1144
 2075TIP3    H1 6189   6.864   1.173   0.929  0.6224 -0.2764  0.5743
 2075TIP3    H2 6190   6.972   1.088   0.866  0.2094  0.1413 -0.7392
 2076TIP3   OH2 6191   0.390   5.732   1.424  0.5044 -0.1046 -0.3635
 2076TIP3    H1 6192   0.370   5.823   1.405 -0.2687 -0.0399  0.7093
 2076TIP3    H2 6193   0.361   5.685   1.345 -0.6992  0.3843 -0.2325
 2077TIP3   OH2 6194   5.569   0.305   1.258  0.0899  0.2809 -0.3467
 2077TIP3    H1 6195   5.524   0.223   1.279  3.0282 -1.1611  0.8195
 2077TIP3    H2 6196   5.620   0.325   1.336  3.3534  0.4484 -2.3383
 2078TIP3   OH2 6197   5.222   0.269   4.730  0.3863 -0.3705  0.7989
 2078TIP3    H1 6198   5.202   0.249   4.822  0.3560  1.0125  1.1045
 2078TIP3    H2 6199   5.295   0.211   4.709 -0.2234 -1.3883  1.3945
 2079TIP3   OH2 6200   6.763   4.788   1.177 -0.0333  0.2118 -0.8134
 2079TIP3    H1 6201   6.816   4.783   1.097 -2.4632 -1.2242 -2.4538
 2079TIP3    H2 6202   6.694   4.851   1.156 -2.1806 -2.0286 -0.8847
 2080TIP3   OH2 6203   6.558   4.635   5.209  0.2854  0.4997 -0.1003
 2080TIP3    H1 6204   6.653   4.634   5.213  0.3077  0.7910 -0.5094
 2080TIP3    H2 6205   6.535   4.727   5.193 -0.0275  0.3183 -0.7480
 2081TIP3   OH2 6206   0.860   4.614   1.778 -0.2563 -0.6439 -0.1707
 2081TIP3    H1 6207   0.912   4.676   1.830 -0.5535  0.3855 -1.0451
 2081TIP3    H2 6208   0.784   4.593   1.832 -0.4307  0.2048 -0.0766
 2082TIP3   OH2 6209   4.682   0.353   0.273  0.0870 -0.1668  0.2971
 2082TIP3    H1 6210   4.674   0.258   0.275  1.4131 -0.2992 -0.0669
 2082TIP3    H2 6211   4.717   0.373   0.187  0.4682  0.5940  0.6176
 2083TIP3   OH2 6212   4.500   2.977   4.319  0.0132  0.9010  0.1244
 2083TIP3    H1 6213   4.426   3.038   4.327  0.4208  1.7338 -1.7972
 2083TIP3    H2 6214   4.575   3.034   4.304  0.7481 -0.0257  0.2763
 2084TIP3   OH2 6215   0.064   5.172   1.777  0.3094 -0.3679  0.3941
 2084TIP3    H1 6216  -0.010   5.112   1.763 -1.4105  1.8499 -0.7397
 2084TIP3    H2 6217   0.024   5.250   1.817  2.0681  0.8280 -0.0677
 2085TIP3   OH2 6218   3.308   2.172   0.332  0.2128 -0.1366  0.3503
 2085TIP3    H1 6219   3.352   2.086   0.339  0.8637  0.1629  0.0333
 2085TIP3    H2 6220   3.221   2.152   0.297  0.5967 -0.6115 -0.3682
 2086TIP3   OH2 6221   1.160   2.081   1.992 -1.3948  0.2396  0.1162
 2086TIP3    H1 6222   1.159   2.108   2.083 -1.1938 -2.3277  0.9515
 2086TIP3    H2 6223   1.155   2.163   1.942 -2.5052  1.6372  2.3977
 2087TIP3   OH2 6224   5.435   3.196   2.101 -0.4437  0.5684 -0.1494
 2087TIP3    H1 6225   5.428   3.291   2.106 -1.2595  0.4892  0.3611
 2087TIP3    H2 6226   5.475   3.170   2.184 -2.1335  0.3131  0.6250
 2088TIP3   OH2 6227   2.824   5.521   3.232  0.5145  0.4238  0.0437
 2088TIP3    H1 6228   2.738   5.552   3.205  1.0952  2.6089  0.5244
 2088TIP3    H2 6229   2.857   5.472   3.157 -1.3059 -0.8972  0.0310
 2089TIP3   OH2 6230   2.499   2.701   4.467 -0.2506 -0.1222  0.2735
 2089TIP3    H1 6231   2.501   2.612   4.432  1.3608 -0.7405  1.8385
 2089TIP3    H2 6232   2.570   2.747   4.422 -1.5431  0.6723 -1.0908
 2090TIP3   OH2 6233   4.653   0.270   2.973 -0.3768 -0.0881  0.0242
 2090TIP3    H1 6234   4.679   0.308   3.056 -0.6297 -1.4377  0.7507
 2090TIP3    H2 6235   4.717   0.303   2.910  0.1818  0.4621  0.8675
 2091TIP3   OH2 6236   4.389   5.370   4.573 -0.1706  0.1793  0.0153
 2091TIP3    H1 6237   4.391   5.278   4.546 -0.2459 -0.2943  1.5777
 2091TIP3    H2 6238   4.352   5.415   4.497  1.0220 -0.8910 -1.2591
 2092TIP3   OH2 6239   2.299   0.534   4.455 -0.5498 -0.4246 -0.3732
 2092TIP3    H1 6240   2.284   0.628   4.459  1.4579 -0.0929  0.7795
 2092TIP3    H2 6241   2.212   0.495   4.468 -1.1046  1.2685  1.4593
 2093TIP3   OH2 6242   6.639   4.140   4.372 -0.1816 -0.2615 -0.2756
 2093TIP3    H1 6243   6.630   4.208   4.438 -1.9107 -0.6632 -0.0523
 2093TIP3    H2 6244   6.604   4.180   4.292  0.5032 -0.2888 -0.5980
 2094TIP3   OH2 6245   2.733   5.942   4.329 -0.1255  0.6430 -0.0672
 2094TIP3    H1 6246   2.766   5.853   4.316 -2.0409 -0.1530  0.1410
 2094TIP3    H2 6247   2.800   5.984   4.383  1.5619 -0.1526 -1.4405
 2095TIP3   OH2 6248   5.012   4.334   1.394  0.0361 -0.6971  0.7211
 2095TIP3    H1 6249   4.961   4.382   1.328  0.9810 -0.1473  0.3630
 2095TIP3    H2 6250   5.104   4.355   1.372  0.3535  0.1561  2.6707
 2096TIP3   OH2 6251   0.490   6.576   2.787  0.1131  0.4491 -0.1883
 2096TIP3    H1 6252   0.494   6.661   2.745 -2.4129  0.2928 -0.8914
 2096TIP3    H2 6253   0.399   6.567   2.815 -0.0002 -2.4698 -1.1419
 2097TIP3   OH2 6254   5.294   0.462   4.058  0.1538  0.0454  0.8750
 2097TIP3    H1 6255   5.207   0.442   4.025  0.0295 -0.0806  1.2733
 2097TIP3    H2 6256   5.346   0.384   4.040  0.1097  0.0125  0.8911
 2098TIP3   OH2 6257   2.591   1.897   4.168 -0.7499  0.2518  0.6223
 2098TIP3    H1 6258   2.535   1.907   4.091 -0.8514  1.0271  0.7862
 2098TIP3    H2 6259   2.563   1.815   4.208  0.2629 -0.8927 -0.9368
 2099TIP3   OH2 6260   6.345   3.530   2.698  0.6508  0.5104  0.1720
 2099TIP3    H1 6261   6.254   3.503   2.708  1.0347 -1.2117 -0.6296
 2099TIP3    H2 6262   6.343   3.625   2.703 -1.0106  0.4547  1.5007
 2100TIP3   OH2 6263   1.214   0.006   0.193 -0.1486  0.7291  0.2750
 2100TIP3    H1 6264   1.212   0.074   0.126 -0.0229 -0.8885 -1.4286
 2100TIP3    H2 6265   1.157  -0.063   0.160 -0.8467  0.2555  2.3026
 2101TIP3   OH2 6266   4.976   3.237   2.581 -0.3481 -0.0185 -0.2284
 2101TIP3    H1 6267   4.882   3.238   2.567 -0.3631  3.0982 -0.6310
 2101TIP3    H2 6268   5.006   3.158   2.535 -2.5542 -0.1529 -1.6071
 2102TIP3   OH2 6269   3.542   2.037   5.500  0.2983 -0.4303  0.7141
 2102TIP3    H1 6270   3.603   1.981   5.453  0.8006  0.3945  0.3666
 2102TIP3    H2 6271   3.470   2.051   5.439 -0.5732 -1.9109  1.3455
 2103TIP3   OH2 6272   6.676   2.177   0.496 -0.7794 -0.3805 -0.1172
 2103TIP3    H1 6273   6.721   2.104   0.538 -0.4267 -1.2459 -1.8936
 2103TIP3    H2 6274   6.624   2.136   0.427  0.6940  1.1153 -2.2332
 2104TIP3   OH2 6275   4.209   1.134   0.805 -0.2013  0.5763 -0.2888
 2104TIP3    H1 6276   4.283   1.195   0.809  0.9302 -0.7870  2.3718
 2104TIP3    H2 6277   4.200   1.102   0.895 -1.4345 -2.3484 -1.3269
 2105TIP3   OH2 6278   0.163   2.908   4.224 -0.1066 -0.0169 -0.4125
 2105TIP3    H1 6279   0.161   2.864   4.139 -0.3328  0.9812 -0.9546
 2105TIP3    H2 6280   0.079   2.887   4.265  0.0059 -0.5069 -0.4377
 2106TIP3   OH2 6281   3.456   1.862   2.186  0.1737 -0.1381 -0.1646
 2106TIP3    H1 6282   3.475   1.821   2.101 -1.0612  0.4367 -0.7493
 2106TIP3    H2 6283   3.381   1.814   2.220 -0.1157  0.4231  0.0157
 2107TIP3   OH2 6284   1.369   1.326   1.741  0.2015 -0.0391 -0.1567
 2107TIP3    H1 6285   1.358   1.406   1.689  2.9369  0.0025 -0.8077
 2107TIP3    H2 6286   1.361   1.255   1.678 -1.4021 -0.2940  0.2851
 2108TIP3   OH2 6287   6.708   2.135   1.143  0.2223  0.3020 -0.4691
 2108TIP3    H1 6288   6.781   2.114   1.200  0.6424 -0.4259 -1.2558
 2108TIP3    H2 6289   6.735   2.214   1.096  0.1064  0.5778 -0.0751
 2109TIP3   OH2 6290   4.894   6.399   1.485  0.4872 -0.1016 -0.4401
 2109TIP3    H1 6291   4.881   6.367   1.574  2.5909 -0.2909 -0.1651
 2109TIP3    H2 6292   4.805   6.416   1.453 -0.3665 -0.9741  1.3236
 2110TIP3   OH2 6293   1.862   2.853   3.535  0.0674 -0.2164 -0.3855
 2110TIP3    H1 6294   1.832   2.911   3.465 -0.9871  0.2556  0.4216
 2110TIP3    H2 6295   1.936   2.900   3.574  0.2120 -0.1497 -0.7365
 2111TIP3   OH2 6296   0.001   3.236   0.986  0.3329  0.3100  0.0720
 2111TIP3    H1 6297   0.080   3.283   0.961 -0.9618  1.6672 -1.7814
 2111TIP3    H2 6298  -0.026   3.276   1.068  0.6678  0.9900 -0.1452
 2112TIP3   OH2 6299   3.447   1.908   0.362 -0.1401  0.6859 -0.7780
 2112TIP3    H1 6300   3.518   1.879   0.419 -2.0889 -1.7528  0.5861
 2112TIP3    H2 6301   3.477   1.885   0.274  0.9941  0.2543 -0.3036
 2113TIP3   OH2 6302   1.991   0.157   2.208  0.2856  0.7553 -0.6683
 2113TIP3    H1 6303   1.945   0.085   2.251  0.0763  0.3277 -1.5780
 2113TIP3    H2 6304   1.927   0.191   2.146  1.2125  0.0723 -2.0404
 2114TIP3   OH2 6305   5.939   5.443   2.877 -0.0510 -0.3114  0.2817
 2114TIP3    H1 6306   5.974   5.531   2.864  1.9759 -1.0476  0.4488
 2114TIP3    H2 6307   5.905   5.443   2.966 -0.1255  0.3214  0.2520
 2115TIP3   OH2 6308   6.620   4.791   2.709  0.0783  0.3257 -0.2490
 2115TIP3    H1 6309   6.580   4.707   2.731  0.1627  0.2020 -0.5655
 2115TIP3    H2 6310   6.570   4.822   2.633  0.4630  0.2570 -0.5307
 2116TIP3   OH2 6311   1.596   3.825   2.691  0.9114  0.3363 -0.0860
 2116TIP3    H1 6312   1.583   3.737   2.728  1.4325  0.4569  0.4062
 2116TIP3    H2 6313   1.609   3.811   2.598 -1.0754  0.0715 -0.3704
 2117TIP3   OH2 6314   0.280   3.645   0.309 -0.0102  0.4372 -0.1031
 2117TIP3    H1 6315   0.286   3.735   0.341 -0.5340  0.3539  0.2408
 2117TIP3    H2 6316   0.189   3.620   0.326 -0.7902  0.9134 -3.0543
 2118TIP3   OH2 6317   5.479   6.512   0.448 -0.6510 -0.1749 -0.5767
 2118TIP3    H1 6318   5.540   6.447   0.483 -0.0954  1.2261  1.2816
 2118TIP3    H2 6319   5.425   6.536   0.523 -0.6268  1.6830 -1.1062
 2119TIP3   OH2 6320   0.620   6.245   4.194  0.4499  0.2412 -0.2852
 2119TIP3    H1 6321   0.697   6.287   4.156  0.5626  1.1058  0.8606
 2119TIP3    H2 6322   0.656   6.180   4.255  0.3453  1.9600  1.7105
 2120TIP3   OH2 6323   2.314   4.066   2.329  0.2657  0.3938  0.5361
 2120TIP3    H1 6324   2.233   4.022   2.304  1.2143 -0.6176 -0.9109
 2120TIP3    H2 6325   2.375   4.045   2.259  1.2250  2.7725  0.5772
 2121TIP3   OH2 6326   5.034   5.327   1.148  0.7165 -0.1887 -0.1568
 2121TIP3    H1 6327   5.043   5.412   1.103 -2.4658 -0.0639 -0.7825
 2121TIP3    H2 6328   4.979   5.346   1.224 -0.3931 -1.7144 -0.5353
 2122TIP3   OH2 6329   3.202   4.700   4.541  0.0734 -0.6665 -0.0861
 2122TIP3    H1 6330   3.107   4.688   4.548 -0.0205 -1.1301 -1.6827
 2122TIP3    H2 6331   3.214   4.741   4.455  1.3334 -0.7784  0.0205
 2123TIP3   OH2 6332   6.289   5.035   2.383  0.3619  0.2953 -0.5074
 2123TIP3    H1 6333   6.238   5.028   2.303 -0.7165  0.2718  0.1744
 2123TIP3    H2 6334   6.228   5.014   2.453  1.5925 -0.8646  0.2535
 2124TIP3   OH2 6335   6.742   6.152   4.318  0.1312  0.1017  0.1160
 2124TIP3    H1 6336   6.670   6.112   4.269  0.4103  0.1294 -0.3165
 2124TIP3    H2 6337   6.698   6.207   4.383 -0.2556 -0.7063  0.5583
 2125TIP3   OH2 6338   6.965   6.235   0.234  0.9276  0.0328  0.0392
 2125TIP3    H1 6339   7.021   6.274   0.302  0.1876 -0.4586  0.9562
 2125TIP3    H2 6340   7.000   6.147   0.222  0.0095 -0.5018  1.0703
 2126TIP3   OH2 6341   3.639   0.296   4.577  0.3702  0.0619 -0.3143
 2126TIP3    H1 6342   3.604   0.259   4.658  0.5364  0.8022  0.1093
 2126TIP3    H2 6343   3.577   0.268   4.509  0.2156 -0.5415  0.0699
 2127TIP3   OH2 6344   7.060   1.195   0.486  0.1604  0.6422  0.5494
 2127TIP3    H1 6345   7.041   1.230   0.398  0.6445  0.2240  0.2720
 2127TIP3    H2 6346   7.027   1.105   0.483  0.7444  0.4208  0.5832
 2128TIP3   OH2 6347   4.112   4.618   5.279  0.2523  0.7274  0.3219
 2128TIP3    H1 6348   4.135   4.528   5.302  0.2577  0.9743  1.3173
 2128TIP3    H2 6349   4.176   4.672   5.326  1.4164  1.2107 -1.7089
 2129TIP3   OH2 6350   4.790   6.564   1.822  0.2459 -0.4990  0.2945
 2129TIP3    H1 6351   4.809   6.610   1.739  2.7498 -2.0885 -0.1120
 2129TIP3    H2 6352   4.842   6.611   1.887 -0.6677 -0.0878  0.7458
 2130TIP3   OH2 6353   0.998   4.850   4.630 -0.7214  0.0860  0.0807
 2130TIP3    H1 6354   0.954   4.777   4.588  0.7567 -1.0275  0.3862
 2130TIP3    H2 6355   1.052   4.889   4.560 -0.3775 -0.0489  0.2661
 2131TIP3   OH2 6356   5.405   4.943   3.858  0.2884 -0.1861 -0.5905
 2131TIP3    H1 6357   5.401   5.033   3.827 -0.9548 -0.5859 -1.6779
 2131TIP3    H2 6358   5.315   4.911   3.851  0.7300 -1.5474 -0.3429
 2132TIP3   OH2 6359   1.614   0.666   5.406 -0.6463 -0.0318 -0.2335
 2132TIP3    H1 6360   1.694   0.647   5.455 -1.1002 -1.9364 -0.1481
 2132TIP3    H2 6361   1.640   0.735   5.345  0.8432 -0.0470  0.3297
 2133TIP3   OH2 6362   0.960   0.097   1.289 -0.3583 -0.1181 -0.3954
 2133TIP3    H1 6363   1.032   0.109   1.228  1.0633  0.6047  1.3306
 2133TIP3    H2 6364   0.883   0.133   1.244  0.3938 -0.6537 -2.1593
 2134TIP3   OH2 6365   6.214   2.949   0.955  0.2921 -0.6986 -0.7231
 2134TIP3    H1 6366   6.300   2.929   0.991 -0.2999 -0.4869  0.8642
 2134TIP3    H2 6367   6.153   2.901   1.010 -0.7157  0.4888 -0.7674
 2135TIP3   OH2 6368   5.769   0.142   3.122  0.4786 -0.3381  0.0568
 2135TIP3    H1 6369   5.709   0.090   3.175 -0.2908 -0.7881 -1.2027
 2135TIP3    H2 6370   5.811   0.079   3.064 -0.0541  0.3292 -1.1046
 2136TIP3   OH2 6371   3.684   1.853   3.396  0.2260 -0.1781  0.2264
 2136TIP3    H1 6372   3.703   1.823   3.307  0.9910  1.4815 -0.2168
 2136TIP3    H2 6373   3.603   1.902   3.388  0.5119  0.3215  0.3619
 2137TIP3   OH2 6374   3.104   6.165   5.616 -0.2250 -0.2330  0.0762
 2137TIP3    H1 6375   3.187   6.117   5.613  1.2494  2.1885 -1.1104
 2137TIP3    H2 6376   3.060   6.143   5.534  0.8074  0.9368 -0.8325
 2138TIP3   OH2 6377   3.985   5.989   4.136  0.0147 -0.3072  0.6165
 2138TIP3    H1 6378   4.081   5.989   4.136  0.0860  0.5789 -2.0006
 2138TIP3    H2 6379   3.962   5.905   4.096 -0.3645 -0.8604  1.9439
 2139TIP3   OH2 6380   6.731   5.500   1.393 -0.9294  0.8106 -0.4296
 2139TIP3    H1 6381   6.653   5.483   1.445 -1.1499 -0.2708 -1.0885
 2139TIP3    H2 6382   6.716   5.587   1.354 -0.7864  1.6209  1.2147
 2140TIP3   OH2 6383   6.476   4.114   0.099  0.0396  0.1344  0.1616
 2140TIP3    H1 6384   6.424   4.086   0.024  0.8917  1.5387 -1.0103
 2140TIP3    H2 6385   6.455   4.051   0.168 -1.2697 -0.8051 -1.0401
 2141TIP3   OH2 6386   2.282   4.328   2.415 -0.5800  0.0945  0.1924
 2141TIP3    H1 6387   2.215   4.365   2.357  0.2056  0.8481 -0.2412
 2141TIP3    H2 6388   2.293   4.238   2.384 -1.4838 -0.0814  0.3549
 2142TIP3   OH2 6389   1.596   4.088   0.660  0.5139  0.2136 -0.0894
 2142TIP3    H1 6390   1.639   4.166   0.696 -0.1658  0.9107 -0.7500
 2142TIP3    H2 6391   1.503   4.109   0.663  0.0833 -1.6568  2.2135
 2143TIP3   OH2 6392   2.337   2.454   1.170 -0.0101 -0.2074 -0.0743
 2143TIP3    H1 6393   2.300   2.366   1.169 -0.6429  0.0486  0.5781
 2143TIP3    H2 6394   2.331   2.483   1.261  0.4328  0.4150 -0.2304
 2144TIP3   OH2 6395   5.624   2.568   5.137 -0.1005 -0.4568 -0.4028
 2144TIP3    H1 6396   5.700   2.539   5.187 -0.6597 -0.2918  0.5723
 2144TIP3    H2 6397   5.571   2.489   5.126 -0.3513 -0.3424 -0.0465
 2145TIP3   OH2 6398   4.003   0.741   3.597  0.3142  0.0783 -0.1900
 2145TIP3    H1 6399   4.042   0.754   3.683 -0.1105  0.7215 -0.0900
 2145TIP3    H2 6400   3.974   0.649   3.597  0.5717 -0.0022  0.2433
 2146TIP3   OH2 6401   6.942   3.068   2.599 -0.4603  0.2455  0.1119
 2146TIP3    H1 6402   6.969   3.025   2.517 -0.4166  1.4531 -0.5219
 2146TIP3    H2 6403   6.859   3.111   2.578 -0.2459  0.9054  0.5859
 2147TIP3   OH2 6404   1.415   0.101   0.997 -0.2902 -0.2149  0.1760
 2147TIP3    H1 6405   1.507   0.120   1.014  0.1283 -1.2914 -0.7432
 2147TIP3    H2 6406   1.404   0.115   0.903 -0.8145 -0.9924  0.1084
 2148TIP3   OH2 6407   5.910   1.122   0.712  0.1027 -0.4107  0.3438
 2148TIP3    H1 6408   5.821   1.117   0.746 -1.2221 -0.9764 -2.8332
 2148TIP3    H2 6409   5.930   1.215   0.710 -1.0420 -0.1587 -0.2479
 2149TIP3   OH2 6410   3.952   4.269   1.325 -0.5277  0.3716  0.1960
 2149TIP3    H1 6411   4.019   4.206   1.298 -0.8553 -0.4345  1.2222
 2149TIP3    H2 6412   3.957   4.271   1.420 -0.7035  1.7177  0.2032
 2150TIP3   OH2 6413   6.766   5.828   0.329 -0.3729  0.2291 -0.2020
 2150TIP3    H1 6414   6.748   5.915   0.295 -3.1334  0.8061  2.3010
 2150TIP3    H2 6415   6.814   5.843   0.410 -0.9352 -0.5445  0.2902
 2151TIP3   OH2 6416   0.496   1.786   5.033  0.3553 -0.4499  0.3142
 2151TIP3    H1 6417   0.471   1.720   5.098  0.8923  0.5399  1.5621
 2151TIP3    H2 6418   0.415   1.832   5.012  0.1835 -0.7568  0.2977
 2152TIP3   OH2 6419   0.410   2.130   0.381 -0.4439  0.2106 -0.8050
 2152TIP3    H1 6420   0.375   2.159   0.297 -1.4568  1.7011  0.0728
 2152TIP3    H2 6421   0.484   2.189   0.398 -0.8747  0.5968 -0.2109
 2153TIP3   OH2 6422   4.098   2.827   5.819 -0.0118  0.0688 -0.2506
 2153TIP3    H1 6423   4.089   2.856   5.728  0.8643  1.3689  0.0409
 2153TIP3    H2 6424   4.167   2.762   5.818  0.2317  0.3291 -0.4786
 2154TIP3   OH2 6425   6.463   2.107   5.658 -0.4505  0.1198 -0.2193
 2154TIP3    H1 6426   6.506   2.057   5.727 -0.0653  0.4147 -0.2427
 2154TIP3    H2 6427   6.397   2.047   5.623 -0.4108 -0.1547  0.1646
 2155TIP3   OH2 6428   6.463   4.893   4.072 -0.0185 -0.7510 -0.0489
 2155TIP3    H1 6429   6.544   4.847   4.052 -0.2886 -1.2925  0.0825
 2155TIP3    H2 6430   6.394   4.837   4.036 -0.3307 -0.2392 -0.2646
 2156TIP3   OH2 6431   6.198   0.555   5.262 -0.2267  0.5584  0.3741
 2156TIP3    H1 6432   6.127   0.608   5.227 -1.0095 -0.4280  0.4313
 2156TIP3    H2 6433   6.160   0.509   5.336  0.0925 -0.9113 -0.3250
 2157TIP3   OH2 6434   6.438   4.448   0.630 -0.1797  0.3652  0.0613
 2157TIP3    H1 6435   6.519   4.400   0.649  0.7780  0.6510 -2.7860
 2157TIP3    H2 6436   6.455   4.537   0.659 -0.3261 -0.0336  1.4272
 2158TIP3   OH2 6437   2.277   0.412   1.632  0.1298  0.5500  0.0671
 2158TIP3    H1 6438   2.190   0.428   1.596  0.3882  0.9753 -0.3790
 2158TIP3    H2 6439   2.329   0.486   1.603  0.4941  0.6096  0.8447
 2159TIP3   OH2 6440   6.560   5.876   0.731 -0.0698 -0.4145  0.1342
 2159TIP3    H1 6441   6.543   5.959   0.775 -0.9169  0.0349 -0.9735
 2159TIP3    H2 6442   6.585   5.901   0.642  1.1860 -1.3071  0.2081
 2160TIP3   OH2 6443   0.900   2.045   1.321 -0.2689 -0.3354  0.1667
 2160TIP3    H1 6444   0.839   1.973   1.303 -0.4574 -0.4180  1.0593
 2160TIP3    H2 6445   0.862   2.121   1.276  0.4939 -1.0110 -1.6789
 2161TIP3   OH2 6446   3.823   6.594   5.867  0.6996  0.8471  0.3910
 2161TIP3    H1 6447   3.911   6.583   5.831 -0.3493  1.5246 -2.7415
 2161TIP3    H2 6448   3.779   6.511   5.848  0.0721  1.2621  0.0210
 2162TIP3   OH2 6449   5.001   1.523   3.998 -0.7271 -0.0285  0.4071
 2162TIP3    H1 6450   5.018   1.600   3.943 -0.6702 -0.1440  0.2608
 2162TIP3    H2 6451   5.033   1.548   4.085 -0.0672 -0.1349  0.2033
 2163TIP3   OH2 6452   6.897   5.639   5.077 -0.0173  0.1036  0.1497
 2163TIP3    H1 6453   6.945   5.559   5.053  1.7623  0.4945  2.0891
 2163TIP3    H2 6454   6.919   5.653   5.169 -0.9739  2.3814  0.0958
 2164TIP3   OH2 6455   1.016   1.287   2.573  0.0784 -0.4479 -0.0160
 2164TIP3    H1 6456   0.969   1.216   2.617 -0.3830 -0.2802 -0.2311
 2164TIP3    H2 6457   1.079   1.243   2.517 -1.4438 -0.7660 -1.5661
 2165TIP3   OH2 6458   1.507   6.459   3.854 -0.4818  0.5578 -0.0542
 2165TIP3    H1 6459   1.512   6.413   3.938  0.8370 -2.3317 -1.5683
 2165TIP3    H2 6460   1.460   6.398   3.796 -1.2503  2.4013 -1.4728
 2166TIP3   OH2 6461   4.608   6.011   0.361  0.2850  0.6587 -0.1121
 2166TIP3    H1 6462   4.537   5.976   0.306 -0.8799 -0.2421  1.8797
 2166TIP3    H2 6463   4.598   6.106   0.353 -1.8038  0.5758  0.8579
 2167TIP3   OH2 6464   2.703   3.021   5.795 -0.5340  0.1213  0.2761
 2167TIP3    H1 6465   2.754   3.006   5.875 -0.3630  0.2034  0.1825
 2167TIP3    H2 6466   2.616   2.988   5.816 -0.4775  0.1006  0.4816
 2168TIP3   OH2 6467   2.540   1.236   0.743 -0.0418 -0.4222 -0.0706
 2168TIP3    H1 6468   2.473   1.195   0.689  0.6649 -1.9533  0.1724
 2168TIP3    H2 6469   2.507   1.229   0.832  0.1596 -0.6436 -0.0114
 2169TIP3   OH2 6470   7.055   4.061   3.498  0.5642 -0.1574 -0.4863
 2169TIP3    H1 6471   7.105   4.137   3.468  2.4196 -0.3549  1.7814
 2169TIP3    H2 6472   7.120   4.008   3.546 -1.4674 -1.3008  1.1461
 2170TIP3   OH2 6473   5.539   1.151   1.955 -0.0642  0.1916 -0.2275
 2170TIP3    H1 6474   5.525   1.074   2.012 -0.7899  0.7229  0.3434
 2170TIP3    H2 6475   5.537   1.116   1.866  1.2801 -0.6897  0.0566
 2171TIP3   OH2 6476   6.154   2.325   3.510 -0.6565  1.0259 -0.2541
 2171TIP3    H1 6477   6.131   2.411   3.545 -0.5127  0.6201  0.8958
 2171TIP3    H2 6478   6.084   2.267   3.541 -0.9791  0.7891 -1.3692
 2172TIP3   OH2 6479   3.836   3.745   4.144 -0.1123  0.6513  0.1256
 2172TIP3    H1 6480   3.775   3.680   4.111  0.7026 -0.6203  1.0457
 2172TIP3    H2 6481   3.794   3.779   4.223  0.5115 -0.4953  0.9685
 2173TIP3   OH2 6482   6.408   2.604   4.028 -0.1218  0.0497  0.5175
 2173TIP3    H1 6483   6.371   2.659   3.959 -0.9210 -0.9759  0.0950
 2173TIP3    H2 6484   6.456   2.536   3.981  1.4406  0.7608  1.0491
 2174TIP3   OH2 6485   0.601   1.467   3.244  0.1300 -0.1841 -0.4378
 2174TIP3    H1 6486   0.640   1.473   3.157 -0.9637 -1.3649 -1.0287
 2174TIP3    H2 6487   0.562   1.380   3.248 -0.9057  0.2987  0.7829
 2175TIP3   OH2 6488   5.196   4.739   0.695  0.2048  1.1696  0.1558
 2175TIP3    H1 6489   5.174   4.646   0.690  1.7767  0.7560  0.1467
 2175TIP3    H2 6490   5.291   4.741   0.679  0.3166  2.7076  0.8593
 2176TIP3   OH2 6491   6.395   5.628   2.625 -0.4787 -0.2466 -0.2226
 2176TIP3    H1 6492   6.364   5.713   2.656  0.3224 -0.7986  2.2927
 2176TIP3    H2 6493   6.427   5.646   2.536  2.9458  2.9438  1.3738
 2177TIP3   OH2 6494   7.136   3.852   4.870  0.3966 -0.4363 -0.1830
 2177TIP3    H1 6495   7.095   3.837   4.955 -0.2299  1.0657 -0.1934
 2177TIP3    H2 6496   7.156   3.764   4.837 -1.4817 -1.1561  0.4827
 2178TIP3   OH2 6497   2.742   2.249   3.332  0.5801 -0.5071 -0.4803
 2178TIP3    H1 6498   2.776   2.299   3.258 -0.7507 -1.2123 -1.6270
 2178TIP3    H2 6499   2.684   2.184   3.292 -1.1719 -0.1058  1.2490
 2179TIP3   OH2 6500   4.424   3.148   1.840  0.3418 -0.3826  0.5122
 2179TIP3    H1 6501   4.369   3.106   1.774  1.8859 -0.0692 -1.0643
 2179TIP3    H2 6502   4.371   3.149   1.919 -1.3061 -1.4677 -0.5221
 2180TIP3   OH2 6503   4.026   3.509   5.235 -0.0848  0.1180  0.4471
 2180TIP3    H1 6504   4.081   3.586   5.243  0.9426 -0.7249  1.9587
 2180TIP3    H2 6505   4.078   3.438   5.272 -1.8459 -0.8679  1.1846
 2181TIP3   OH2 6506   5.364   2.934   4.582  0.3525 -0.0897  0.3992
 2181TIP3    H1 6507   5.406   2.866   4.634  1.9650  1.2738  0.9787
 2181TIP3    H2 6508   5.434   2.968   4.526 -0.0253  1.9748  1.0833
 2182TIP3   OH2 6509   2.967   3.855   4.328 -0.2390  0.3101  0.0243
 2182TIP3    H1 6510   2.954   3.763   4.307 -0.0899  0.5471 -1.1834
 2182TIP3    H2 6511   3.034   3.885   4.266  1.1643  0.7664  1.6684
 2183TIP3   OH2 6512   4.599   0.810   1.054 -0.4776 -0.3125  0.2706
 2183TIP3    H1 6513   4.688   0.834   1.028  0.0527  0.5970  2.6424
 2183TIP3    H2 6514   4.556   0.783   0.973  1.2556  1.4258 -1.3062
 2184TIP3   OH2 6515   4.864   2.013   5.858 -0.3840  0.1462  0.0699
 2184TIP3    H1 6516   4.940   1.989   5.910 -0.1255  1.1496  0.1715
 2184TIP3    H2 6517   4.881   1.977   5.771  0.3451  0.6122  0.0144
 2185TIP3   OH2 6518   6.666   0.597   2.690 -0.5641 -0.5989 -0.0733
 2185TIP3    H1 6519   6.600   0.625   2.627 -1.5453  1.1232  1.6235
 2185TIP3    H2 6520   6.745   0.645   2.665 -0.9099 -0.0238 -0.0827
 2186TIP3   OH2 6521   2.295   1.952   5.247  0.1446  0.2757 -0.4411
 2186TIP3    H1 6522   2.240   1.883   5.284  1.8073 -0.8337  0.0873
 2186TIP3    H2 6523   2.246   2.033   5.261 -0.5551 -0.4578  1.6220
 2187TIP3   OH2 6524   4.237   3.719   5.293  0.3996 -0.2944  0.3265
 2187TIP3    H1 6525   4.282   3.689   5.372 -0.1429 -0.5942  0.5341
 2187TIP3    H2 6526   4.221   3.812   5.307  0.7949 -0.2248  0.3245
 2188TIP3   OH2 6527   1.363   3.133   4.238 -0.3768 -0.5481  0.7077
 2188TIP3    H1 6528   1.319   3.209   4.276 -0.1436 -1.0529  2.0569
 2188TIP3    H2 6529   1.336   3.132   4.146 -1.1459  0.6003  0.9085
 2189TIP3   OH2 6530   3.341   3.564   5.874  0.3210 -0.3282  0.1664
 2189TIP3    H1 6531   3.368   3.523   5.792  0.6100  0.7321 -0.2806
 2189TIP3    H2 6532   3.423   3.591   5.915  0.2838 -1.9654  1.4339
 2190TIP3   OH2 6533   0.165   0.170   5.525  0.5669  0.2229  0.2167
 2190TIP3    H1 6534   0.110   0.099   5.494  1.1487  0.0728 -0.4787
 2190TIP3    H2 6535   0.134   0.187   5.614 -1.2827  0.8125 -0.4880
 2191TIP3   OH2 6536   6.715   1.036   3.206 -0.2743  0.3623 -0.5361
 2191TIP3    H1 6537   6.776   0.971   3.239 -0.2483  1.2807  1.3445
 2191TIP3    H2 6538   6.655   0.986   3.150  0.2182 -1.1140  0.2062
 2192TIP3   OH2 6539   1.956   0.751   2.613 -0.3686  0.0715  0.0421
 2192TIP3    H1 6540   1.942   0.822   2.551  1.4910  0.8183  0.4177
 2192TIP3    H2 6541   1.955   0.794   2.699  2.2572 -0.0387  0.1918
 2193TIP3   OH2 6542   6.561   5.256   0.583  0.2129 -0.0532  0.1875
 2193TIP3    H1 6543   6.588   5.292   0.668  0.0702  0.9114 -0.1656
 2193TIP3    H2 6544   6.470   5.283   0.574  0.3651  0.2399 -0.4795
 2194TIP3   OH2 6545   4.295   5.745   3.628 -0.1193 -0.1266 -0.2395
 2194TIP3    H1 6546   4.225   5.787   3.578  0.2878 -1.7747 -2.3309
 2194TIP3    H2 6547   4.375   5.787   3.598  0.0589 -0.5314 -0.3341
 2195TIP3   OH2 6548   7.077   6.453   0.082 -0.2652 -0.5381 -0.0239
 2195TIP3    H1 6549   7.089   6.517   0.152  0.5590  2.0975 -2.3691
 2195TIP3    H2 6550   6.988   6.422   0.092 -0.8402  1.2963  1.0395
 2196TIP3   OH2 6551   2.744   6.434   4.368 -0.9624  0.4261 -0.2504
 2196TIP3    H1 6552   2.768   6.522   4.397 -1.1642  0.3241  0.2197
 2196TIP3    H2 6553   2.820   6.405   4.316 -0.0025  0.0752  1.2886
 2197TIP3   OH2 6554   3.770   1.962   1.642 -0.3302 -0.2547  0.7019
 2197TIP3    H1 6555   3.751   1.977   1.735  1.5729  3.0818  0.6864
 2197TIP3    H2 6556   3.862   1.936   1.641 -0.4630 -0.7096 -0.2326
 2198TIP3   OH2 6557   6.308   3.512   1.293 -0.0843  0.1870  0.0473
 2198TIP3    H1 6558   6.258   3.438   1.326 -1.3006  0.5249 -0.9506
 2198TIP3    H2 6559   6.310   3.499   1.198  0.9928  0.6447 -0.0029
 2199TIP3   OH2 6560   2.554   4.990   3.575  0.1523  0.2837 -0.2286
 2199TIP3    H1 6561   2.613   4.998   3.500 -0.7077  0.1391 -0.9441
 2199TIP3    H2 6562   2.487   5.057   3.560  0.5881  1.0303  1.0163
 2200TIP3   OH2 6563   3.951   0.095   4.158  0.4534  0.2214 -0.5982
 2200TIP3    H1 6564   3.917   0.006   4.165  0.1973  0.4072  0.6063
 2200TIP3    H2 6565   3.998   0.111   4.240 -0.4097  1.5604 -0.3187
 2201TIP3   OH2 6566   3.777   6.356   3.672  0.2063  0.3258 -0.1068
 2201TIP3    H1 6567   3.812   6.273   3.705  2.0223  0.5339 -1.3905
 2201TIP3    H2 6568   3.719   6.386   3.742 -2.0634 -2.8913 -0.3620
 2202TIP3   OH2 6569   1.079   0.648   5.415 -0.2994  0.0317 -0.6461
 2202TIP3    H1 6570   1.122   0.634   5.331 -0.3717  2.2433 -1.1269
 2202TIP3    H2 6571   1.149   0.681   5.472 -0.6759  0.5978 -0.4989
 2203TIP3   OH2 6572   4.270   1.676   0.814  0.0285 -0.0765 -0.0135
 2203TIP3    H1 6573   4.207   1.623   0.863  0.4907 -0.1828  0.4818
 2203TIP3    H2 6574   4.267   1.762   0.857  0.7553 -0.2967  0.4963
 2204TIP3   OH2 6575   5.869   2.373   2.081 -0.3079 -0.7312  0.3121
 2204TIP3    H1 6576   5.878   2.288   2.123  1.3098 -0.5015  0.5037
 2204TIP3    H2 6577   5.930   2.370   2.007 -0.6380  0.0545 -0.0010
 2205TIP3   OH2 6578   5.019   1.490   3.514 -0.1304  0.3049 -0.0139
 2205TIP3    H1 6579   4.930   1.504   3.482 -0.3040 -0.0429  0.2986
 2205TIP3    H2 6580   5.050   1.577   3.539 -0.6726  0.3314  0.6079
 2206TIP3   OH2 6581   2.198   3.152   3.266 -0.6809 -0.1893  0.7963
 2206TIP3    H1 6582   2.141   3.166   3.342 -2.1846 -0.0936 -0.3222
 2206TIP3    H2 6583   2.162   3.074   3.224 -0.8437  0.6632 -0.6879
 2207TIP3   OH2 6584   1.085   3.495   3.927  0.1663  0.2235 -0.4213
 2207TIP3    H1 6585   1.090   3.413   3.977 -2.5406  1.5249  2.2698
 2207TIP3    H2 6586   1.156   3.549   3.964  0.0688  0.1240 -0.0814
 2208TIP3   OH2 6587   0.143   5.625   5.012 -0.6659 -0.0875 -0.0538
 2208TIP3    H1 6588   0.221   5.575   4.987 -0.7566  0.4794 -1.5605
 2208TIP3    H2 6589   0.088   5.623   4.935 -0.7610  2.1930 -0.1041
 2209TIP3   OH2 6590   0.884   6.243   5.265  0.4819 -0.0240  0.4253
 2209TIP3    H1 6591   0.820   6.173   5.268  0.4730 -0.1361 -1.3285
 2209TIP3    H2 6592   0.896   6.269   5.357 -0.6830 -1.2270  0.9476
 2210TIP3   OH2 6593   3.574   4.939   5.140 -0.0881 -0.8525 -0.3941
 2210TIP3    H1 6594   3.518   4.964   5.213  0.0917 -0.9688 -0.2174
 2210TIP3    H2 6595   3.576   5.017   5.084 -0.5087 -0.8811 -0.4545
 2211TIP3   OH2 6596   0.388   4.369   0.636  0.1371 -0.7839  0.2893
 2211TIP3    H1 6597   0.477   4.342   0.657  0.3346 -0.5651 -0.2504
 2211TIP3    H2 6598   0.342   4.287   0.617 -0.2004 -1.0564  2.0539
 2212TIP3   OH2 6599   2.631   1.368   5.666 -0.2845  0.1355  0.8239
 2212TIP3    H1 6600   2.578   1.309   5.719  0.6126  0.6792  2.4220
 2212TIP3    H2 6601   2.687   1.310   5.614 -1.2601 -0.4133  0.3560
 2213TIP3   OH2 6602   2.161   5.101   4.048 -0.5220 -0.1099  0.4566
 2213TIP3    H1 6603   2.197   5.020   4.083 -0.9514  0.2146  1.6854
 2213TIP3    H2 6604   2.192   5.103   3.957 -2.2361 -2.6739 -0.2932
 2214TIP3   OH2 6605   3.947   3.633   1.884 -0.1070 -0.2329  0.0783
 2214TIP3    H1 6606   3.958   3.705   1.822  2.5524  0.6904  1.4636
 2214TIP3    H2 6607   3.951   3.554   1.830  1.4870  0.5479 -1.0377
 2215TIP3   OH2 6608   0.931   4.840   0.897 -0.1476 -0.0039 -0.5118
 2215TIP3    H1 6609   0.851   4.825   0.948 -1.0632 -0.3597 -2.0147
 2215TIP3    H2 6610   0.973   4.915   0.941 -1.3361  0.2531  0.2434
 2216TIP3   OH2 6611   2.407   1.418   1.464 -0.4930  0.0374 -0.3614
 2216TIP3    H1 6612   2.424   1.365   1.543 -0.5989 -2.8885 -2.1519
 2216TIP3    H2 6613   2.313   1.432   1.464 -0.3030  1.6561  0.8918
 2217TIP3   OH2 6614   5.529   4.320   2.581  0.5829 -0.5738  0.1260
 2217TIP3    H1 6615   5.615   4.323   2.622 -0.2511 -1.8974  2.1062
 2217TIP3    H2 6616   5.490   4.238   2.612 -1.4998  0.1146 -0.5023
 2218TIP3   OH2 6617   2.444   5.256   4.109  0.5280 -0.3215 -0.1700
 2218TIP3    H1 6618   2.349   5.258   4.117  0.3905  3.1360 -0.9067
 2218TIP3    H2 6619   2.460   5.278   4.017  2.0108 -0.2253  0.0918
 2219TIP3   OH2 6620   6.614   4.023   4.828  0.1321  0.6711  0.0738
 2219TIP3    H1 6621   6.593   4.114   4.849  0.7048  0.7159  0.5051
 2219TIP3    H2 6622   6.686   4.001   4.887  1.0322  0.4199 -1.0717
 2220TIP3   OH2 6623   0.177   0.809   5.280  0.4721 -0.3159 -0.7361
 2220TIP3    H1 6624   0.268   0.794   5.305  0.5886  1.0186 -0.3284
 2220TIP3    H2 6625   0.175   0.793   5.185  1.7057  2.0817 -1.2286
 2221TIP3   OH2 6626   2.335   4.562   4.484 -0.3976  0.0465 -0.1051
 2221TIP3    H1 6627   2.356   4.628   4.417 -0.0079  0.4154  0.3773
 2221TIP3    H2 6628   2.412   4.505   4.486 -0.7246 -0.4173 -0.5039
 2222TIP3   OH2 6629   3.920   2.864   1.431 -0.0705 -0.5020  0.8486
 2222TIP3    H1 6630   3.868   2.881   1.509 -0.6428 -0.3119  0.4314
 2222TIP3    H2 6631   3.858   2.870   1.358 -0.0137 -2.8215  0.5345
 2223TIP3   OH2 6632   6.598   1.996   4.463  0.3447 -0.2940  0.0918
 2223TIP3    H1 6633   6.627   1.906   4.472 -1.5426 -1.2512 -2.2493
 2223TIP3    H2 6634   6.628   2.022   4.375 -2.3455 -0.0402 -0.8465
 2224TIP3   OH2 6635   4.166   5.552   4.977  0.3412 -0.2282 -1.2549
 2224TIP3    H1 6636   4.174   5.638   5.019  1.5698 -0.9926  0.1991
 2224TIP3    H2 6637   4.198   5.491   5.043 -2.0901 -2.0117 -1.6164
 2225TIP3   OH2 6638   6.804   6.075   4.693 -0.0812  0.2439  0.3839
 2225TIP3    H1 6639   6.816   6.064   4.787 -0.2149 -0.2800  0.3480
 2225TIP3    H2 6640   6.844   5.997   4.655  0.1692  0.5607 -0.0083
 2226TIP3   OH2 6641   6.460   6.158   2.294  0.9284  0.6048  0.6174
 2226TIP3    H1 6642   6.542   6.134   2.337  0.6562  0.8153  1.2625
 2226TIP3    H2 6643   6.476   6.143   2.201  1.4792  0.0158  0.8055
 2227TIP3   OH2 6644   2.840   1.215   3.173 -0.1797 -0.4305 -0.1871
 2227TIP3    H1 6645   2.895   1.186   3.246  1.3660  0.1892 -1.0496
 2227TIP3    H2 6646   2.780   1.278   3.212 -0.4524 -1.2933  0.8334
 2228TIP3   OH2 6647   4.710   1.304   2.627 -0.1070  0.0006  0.6582
 2228TIP3    H1 6648   4.628   1.351   2.637 -0.4159 -0.8128  2.4198
 2228TIP3    H2 6649   4.774   1.355   2.678  1.0092  1.6522 -2.1879
 2229TIP3   OH2 6650   3.124   4.813   2.791  0.3296 -0.5586  0.6839
 2229TIP3    H1 6651   3.188   4.764   2.842 -0.9900 -1.2937  1.6848
 2229TIP3    H2 6652   3.128   4.902   2.826  1.2316 -0.4281  0.2954
 2230TIP3   OH2 6653   0.583   5.393   2.701 -0.1141 -0.0397 -0.3159
 2230TIP3    H1 6654   0.508   5.444   2.671  0.0948  1.6849  1.9153
 2230TIP3    H2 6655   0.545   5.327   2.759 -0.0860 -0.6829 -1.0014
 2231TIP3   OH2 6656   6.450   2.987   5.573 -0.0220  0.2893  0.3827
 2231TIP3    H1 6657   6.496   2.948   5.499 -0.1914  0.0355  0.4109
 2231TIP3    H2 6658   6.478   3.079   5.573 -0.3526  0.3975 -0.2562
 2232TIP3   OH2 6659   5.452   3.347   1.737 -0.1363 -0.6956  0.6730
 2232TIP3    H1 6660   5.395   3.418   1.768 -0.7804 -0.4936 -0.8879
 2232TIP3    H2 6661   5.527   3.350   1.796  0.8472  2.6597 -0.4677
 2233TIP3   OH2 6662   0.981   3.311   0.405 -0.1145 -0.3869 -0.2651
 2233TIP3    H1 6663   1.013   3.388   0.358 -4.2413  0.9660 -1.3245
 2233TIP3    H2 6664   0.937   3.259   0.338  0.2327 -2.2837  0.9267
 2234TIP3   OH2 6665   6.160   4.186   3.633 -0.1285 -0.5472 -0.1643
 2234TIP3    H1 6666   6.154   4.171   3.727  2.2183 -0.6431  0.0357
 2234TIP3    H2 6667   6.226   4.124   3.603  2.2475  2.1722 -1.0939
 2235TIP3   OH2 6668   5.355   1.209   4.556  0.0354 -0.4527  0.1783
 2235TIP3    H1 6669   5.446   1.182   4.545  0.0192 -0.6026  0.4072
 2235TIP3    H2 6670   5.328   1.238   4.469  0.0127 -1.3028 -0.1068
 2236TIP3   OH2 6671   0.717   3.476   4.163  0.3142 -0.2072 -0.1881
 2236TIP3    H1 6672   0.687   3.484   4.073 -2.8922 -0.7625  0.7301
 2236TIP3    H2 6673   0.698   3.561   4.202 -0.2201 -0.6166  0.4620
 2237TIP3   OH2 6674   0.012   2.645   3.273  0.0643 -0.3612  0.1455
 2237TIP3    H1 6675   0.004   2.550   3.283 -0.5175 -0.2635  0.6800
 2237TIP3    H2 6676   0.076   2.672   3.338 -0.1232 -0.3308  0.3188
 2238TIP3   OH2 6677   3.269   4.426   2.712  0.7592  0.1187 -0.4818
 2238TIP3    H1 6678   3.231   4.499   2.662  1.0938  0.6310 -0.0045
 2238TIP3    H2 6679   3.357   4.457   2.736  0.7153 -0.2374  0.1611
 2239TIP3   OH2 6680   1.224   1.853   5.398 -0.4940  0.3235  0.1956
 2239TIP3    H1 6681   1.220   1.794   5.323  0.2607  1.4542 -0.7800
 2239TIP3    H2 6682   1.168   1.926   5.374  2.7588  2.6218 -1.1196
 2240TIP3   OH2 6683   4.977   6.601   5.677 -0.0001 -0.0440  0.3626
 2240TIP3    H1 6684   5.043   6.660   5.715  0.1420  0.1929 -0.2505
 2240TIP3    H2 6685   4.895   6.632   5.714  0.1357  0.1900  0.4741
 2241TIP3   OH2 6686   3.682   0.468   3.930  0.2621  0.0414  0.0593
 2241TIP3    H1 6687   3.682   0.407   3.857  1.1622  1.1955 -0.9441
 2241TIP3    H2 6688   3.590   0.473   3.957  0.2690 -2.3339  0.7089
 2242TIP3   OH2 6689   6.998   2.974   1.758  0.0149  0.2892  0.1037
 2242TIP3    H1 6690   6.995   2.879   1.771 -1.3957  0.2649 -0.2724
 2242TIP3    H2 6691   7.070   3.003   1.814 -0.1864 -0.8740  1.0185
 2243TIP3   OH2 6692   2.912   4.560   3.654 -0.0162  0.0118  0.1493
 2243TIP3    H1 6693   2.817   4.571   3.658  0.3028  3.7270  2.2273
 2243TIP3    H2 6694   2.939   4.548   3.746  1.5296 -2.3400 -0.5001
 2244TIP3   OH2 6695   3.042   0.012   2.684 -0.5011  0.1384  0.2007
 2244TIP3    H1 6696   3.126   0.033   2.643 -1.2340  3.2323  0.0471
 2244TIP3    H2 6697   2.978   0.019   2.613 -1.1916  0.3347  0.8383
 2245TIP3   OH2 6698   2.424   1.070   0.566  0.0586  0.3713 -0.4555
 2245TIP3    H1 6699   2.501   1.039   0.614  0.3990 -0.6187 -1.5920
 2245TIP3    H2 6700   2.350   1.048   0.623  0.5927  1.3484  0.6543
 2246TIP3   OH2 6701   5.539   2.861   2.637  0.4051  0.1076 -0.0400
 2246TIP3    H1 6702   5.624   2.867   2.593 -0.7341  0.2009 -2.3620
 2246TIP3    H2 6703   5.496   2.944   2.619 -0.4984 -0.2529  0.3976
 2247TIP3   OH2 6704   6.219   4.062   0.781 -0.7045  0.0759  0.1365
 2247TIP3    H1 6705   6.225   3.972   0.747  1.6629  0.1922  0.0587
 2247TIP3    H2 6706   6.126   4.082   0.781 -1.2571 -2.2318 -0.2576
 2248TIP3   OH2 6707   1.334   2.388   4.974  0.2416  0.0882 -0.0228
 2248TIP3    H1 6708   1.285   2.307   4.956 -1.5173  0.1457  3.5504
 2248TIP3    H2 6709   1.415   2.357   5.014  0.1496  0.0689  0.1501
 2249TIP3   OH2 6710   2.701   2.777   2.523  0.4960 -0.4018  0.4516
 2249TIP3    H1 6711   2.786   2.787   2.480 -0.4806  1.3256 -1.2606
 2249TIP3    H2 6712   2.638   2.791   2.453 -1.2069 -0.2137  1.9637
 2250TIP3   OH2 6713   2.246   3.683   5.653  0.2092  0.2067 -0.5590
 2250TIP3    H1 6714   2.210   3.761   5.610 -0.8667 -0.8862 -1.7273
 2250TIP3    H2 6715   2.168   3.634   5.681  0.8751  0.0169  1.1022
 2251TIP3   OH2 6716   6.574   3.049   2.967  0.5267 -0.0898 -0.5812
 2251TIP3    H1 6717   6.633   2.986   3.008  1.0686 -0.8003 -2.3867
 2251TIP3    H2 6718   6.627   3.127   2.953  0.3690  0.1170 -0.0649
 2252TIP3   OH2 6719   7.077   1.285   3.662  0.2509 -0.9322 -0.2234
 2252TIP3    H1 6720   7.156   1.233   3.649  1.6101  1.0223 -0.3071
 2252TIP3    H2 6721   7.028   1.276   3.580  0.6879 -1.6568 -0.4132
 2253TIP3   OH2 6722   1.344   5.965   5.235  0.4229 -0.1576 -0.1935
 2253TIP3    H1 6723   1.266   5.953   5.181  1.9673  3.8685 -4.0001
 2253TIP3    H2 6724   1.411   5.913   5.191  1.4518  2.3288 -1.8081
 2254TIP3   OH2 6725   7.050   6.164   4.555  0.1362 -0.1836 -0.1946
 2254TIP3    H1 6726   6.960   6.133   4.545 -0.2282  0.1030  1.8599
 2254TIP3    H2 6727   7.047   6.255   4.527 -0.0229 -0.3882 -0.8672
 2255TIP3   OH2 6728   0.035   4.082   3.289  0.0614 -0.2970 -0.4576
 2255TIP3    H1 6729   0.035   4.174   3.262  0.5112 -0.3980 -0.8123
 2255TIP3    H2 6730   0.007   4.034   3.212 -0.8501 -0.4131 -0.0704
 2256TIP3   OH2 6731   1.360   5.664   0.598 -0.0171 -0.1125  0.1260
 2256TIP3    H1 6732   1.330   5.737   0.651 -0.7694  1.0439 -1.8102
 2256TIP3    H2 6733   1.288   5.646   0.538  0.4506 -1.9661  0.0505
 2257TIP3   OH2 6734   2.230   1.621   0.358 -0.4026 -0.0629 -0.3809
 2257TIP3    H1 6735   2.156   1.629   0.299 -1.3216 -1.2402  0.5458
 2257TIP3    H2 6736   2.214   1.539   0.405  1.2734 -0.1295  0.1468
 2258TIP3   OH2 6737   0.075   0.344   4.209 -0.1050  0.5723  0.0636
 2258TIP3    H1 6738   0.051   0.366   4.118 -1.8265 -1.5800 -0.0902
 2258TIP3    H2 6739   0.145   0.279   4.200 -0.2277  0.4090  0.2921
 2259TIP3   OH2 6740   1.287   6.761   1.369 -0.1172 -0.1136 -0.5671
 2259TIP3    H1 6741   1.299   6.673   1.336  0.5036 -0.6211  0.9195
 2259TIP3    H2 6742   1.361   6.775   1.428 -0.6839  1.0645 -0.1020
 2260TIP3   OH2 6743   3.203   3.997   2.976 -0.1103  0.3782  0.1362
 2260TIP3    H1 6744   3.144   4.017   3.048 -0.3108  1.7142 -0.3564
 2260TIP3    H2 6745   3.148   4.002   2.898  0.4288  0.5862 -0.2400
 2261TIP3   OH2 6746   1.247   3.316   2.694 -0.0472 -0.1224 -0.0638
 2261TIP3    H1 6747   1.218   3.361   2.614 -0.0987  0.0556  0.0532
 2261TIP3    H2 6748   1.296   3.383   2.742  0.7415 -0.4768 -0.3550
 2262TIP3   OH2 6749   7.064   2.685   5.725  0.5468 -0.5164  0.2603
 2262TIP3    H1 6750   7.087   2.629   5.799  1.2954 -0.3377  0.1687
 2262TIP3    H2 6751   7.037   2.625   5.656 -1.2709 -0.6545  1.0185
 2263TIP3   OH2 6752   3.488   3.723   0.821  0.2723  0.0163 -0.2110
 2263TIP3    H1 6753   3.500   3.767   0.737 -2.5655  0.1004 -0.6620
 2263TIP3    H2 6754   3.559   3.659   0.825  1.9274  1.6541 -1.5027
 2264TIP3   OH2 6755   1.777   1.059   5.405 -0.3637  0.1182  0.2308
 2264TIP3    H1 6756   1.719   1.122   5.447 -1.0857  0.2655 -0.9446
 2264TIP3    H2 6757   1.740   1.047   5.318 -0.0834 -1.7373  0.3374
 2265TIP3   OH2 6758   1.603   5.552   3.917 -0.5284  0.5085  0.2963
 2265TIP3    H1 6759   1.635   5.578   3.830  1.1776  1.6236  1.2076
 2265TIP3    H2 6760   1.541   5.481   3.899  0.2222  0.3026 -1.8021
 2266TIP3   OH2 6761   0.747   1.338   3.032  0.0463  0.2654  0.9195
 2266TIP3    H1 6762   0.732   1.245   3.047  0.3993  0.0969  0.2605
 2266TIP3    H2 6763   0.691   1.360   2.957  0.9593  0.2737  0.2296
 2267TIP3   OH2 6764   5.996   6.522   2.252 -0.2764 -0.0956 -0.0130
 2267TIP3    H1 6765   5.924   6.477   2.297 -0.5017 -0.9639 -1.1760
 2267TIP3    H2 6766   5.954   6.593   2.205 -0.3292 -0.3906 -0.4149
 2268TIP3   OH2 6767   0.627   2.507   1.802 -0.4761 -0.5323  0.3128
 2268TIP3    H1 6768   0.551   2.518   1.860 -1.9947 -1.4247 -1.4056
 2268TIP3    H2 6769   0.593   2.458   1.727  1.6913 -0.4735 -0.7828
 2269TIP3   OH2 6770   3.686   2.799   2.484 -0.4781  0.5323 -0.3017
 2269TIP3    H1 6771   3.642   2.812   2.401  0.0995 -0.8736 -0.8468
 2269TIP3    H2 6772   3.771   2.842   2.473  0.1018 -0.7312 -0.9094
 2270TIP3   OH2 6773   3.624   1.964   4.217  0.5135  0.3680  0.3966
 2270TIP3    H1 6774   3.598   1.893   4.276 -2.3114  0.7050 -0.2754
 2270TIP3    H2 6775   3.599   2.044   4.263  1.6256  0.8341  0.2170
 2271TIP3   OH2 6776   0.924   1.662   0.095  0.5124  0.3174  0.4363
 2271TIP3    H1 6777   0.901   1.596   0.030  1.4037  0.6513 -0.2464
 2271TIP3    H2 6778   1.018   1.676   0.082  0.8290 -0.0005  2.1759
 2272TIP3   OH2 6779   0.068   2.855   5.679 -0.0366 -0.0592  0.0035
 2272TIP3    H1 6780   0.083   2.854   5.585  1.2154 -2.0768  0.1628
 2272TIP3    H2 6781   0.003   2.786   5.693  0.9484 -0.8575  0.7499
 2273TIP3   OH2 6782   4.764   5.250   0.301 -0.1028 -0.0433 -0.3609
 2273TIP3    H1 6783   4.801   5.170   0.261  1.5809  0.6044 -0.1984
 2273TIP3    H2 6784   4.772   5.235   0.395 -0.5887 -0.0245 -0.3138
 2274TIP3   OH2 6785   1.962   4.904   5.521  0.3555 -0.1656  0.5432
 2274TIP3    H1 6786   2.038   4.852   5.493  0.7232  0.0404  1.1366
 2274TIP3    H2 6787   1.888   4.864   5.476  1.0116  0.6763 -1.4473
 2275TIP3   OH2 6788   0.270   1.050   3.457  0.5800  0.4461 -0.3378
 2275TIP3    H1 6789   0.323   0.977   3.424  0.3835 -0.0294  0.3567
 2275TIP3    H2 6790   0.267   1.112   3.385  1.7182  0.2872 -0.5489
 2276TIP3   OH2 6791   0.850   4.538   0.378 -0.1756  0.2536  0.6031
 2276TIP3    H1 6792   0.811   4.621   0.350  0.3304  0.8393  1.5885
 2276TIP3    H2 6793   0.907   4.512   0.305  1.0418  1.6936  1.0063
 2277TIP3   OH2 6794   1.060   6.431   4.286  0.1863 -0.2559  0.0265
 2277TIP3    H1 6795   1.009   6.499   4.330  1.2913  0.3494  0.4187
 2277TIP3    H2 6796   1.151   6.449   4.312  0.4720 -2.0888  0.4030
 2278TIP3   OH2 6797   2.974   3.468   0.899  0.8870 -0.4116  0.0665
 2278TIP3    H1 6798   3.039   3.533   0.873  2.0847 -0.6599  2.2313
 2278TIP3    H2 6799   3.024   3.401   0.946 -0.7522 -1.3311  0.5856
 2279TIP3   OH2 6800   4.337   0.040   1.215  0.2236  0.6156  0.4202
 2279TIP3    H1 6801   4.300   0.034   1.127  0.5514  1.7235  0.1993
 2279TIP3    H2 6802   4.264   0.067   1.270 -0.1615 -0.7757  0.6409
 2280TIP3   OH2 6803   5.669   4.717   0.958 -0.0152  0.2861 -0.5544
 2280TIP3    H1 6804   5.684   4.763   0.876  0.8003  1.0991  0.0429
 2280TIP3    H2 6805   5.752   4.721   1.005 -0.2173 -0.9126 -0.0424
 2281TIP3   OH2 6806   4.977   6.562   1.270  0.1498 -0.8113  0.4890
 2281TIP3    H1 6807   4.940   6.511   1.342 -0.5985 -1.9037 -0.6280
 2281TIP3    H2 6808   5.070   6.568   1.290  0.3034 -2.7923  0.5912
 2282TIP3   OH2 6809   3.588   6.071   4.875 -0.0339 -0.1328 -0.5588
 2282TIP3    H1 6810   3.584   5.984   4.914  1.1816 -0.2662 -0.7134
 2282TIP3    H2 6811   3.595   6.055   4.781  1.6221  0.0799 -0.4951
 2283TIP3   OH2 6812   2.232   5.801   3.771  0.2916 -0.2237  0.4636
 2283TIP3    H1 6813   2.150   5.844   3.746  0.2625 -0.3405  0.3586
 2283TIP3    H2 6814   2.262   5.850   3.847  0.3706  0.1263  0.2120
 2284TIP3   OH2 6815   3.195   5.402   4.187 -0.1054 -0.6448 -0.4793
 2284TIP3    H1 6816   3.140   5.469   4.229 -1.5270 -0.9310 -1.7953
 2284TIP3    H2 6817   3.173   5.321   4.232  1.5724 -0.3162  1.0740
 2285TIP3   OH2 6818   2.983   1.808   2.398 -0.0841 -0.0334  0.2896
 2285TIP3    H1 6819   2.993   1.882   2.338  1.0328  0.7637  1.3767
 2285TIP3    H2 6820   2.910   1.758   2.363 -1.5954  2.1625  0.0735
 2286TIP3   OH2 6821   2.492   0.022   5.144  0.0456 -0.5234  0.6254
 2286TIP3    H1 6822   2.519   0.113   5.133 -2.1373  0.0167 -0.8626
 2286TIP3    H2 6823   2.574  -0.025   5.159  1.5685  1.2824 -1.3140
 2287TIP3   OH2 6824   6.668   0.761   0.786  0.0009 -0.2591  0.2090
 2287TIP3    H1 6825   6.681   0.692   0.721 -0.0684  0.6771 -0.8164
 2287TIP3    H2 6826   6.610   0.824   0.743 -0.5812  0.0675  1.4184
 2288TIP3   OH2 6827   5.557   0.354   4.531  0.2412 -0.6506 -0.3050
 2288TIP3    H1 6828   5.621   0.286   4.508  0.1189 -0.6936 -0.5232
 2288TIP3    H2 6829   5.491   0.308   4.583  0.3994 -0.6013 -0.0599
 2289TIP3   OH2 6830   4.977   1.532   1.060 -0.1191  0.2860 -0.4235
 2289TIP3    H1 6831   4.933   1.554   0.978  0.5479 -0.1648 -0.9125
 2289TIP3    H2 6832   5.070   1.532   1.038  0.1211  0.8860  0.5137
 2290TIP3   OH2 6833   6.334   4.354   4.020  0.3312  0.4729  0.3161
 2290TIP3    H1 6834   6.320   4.280   3.960  0.4108  0.9373 -0.2845
 2290TIP3    H2 6835   6.303   4.430   3.971  1.3004  0.9917  0.4863
 2291TIP3   OH2 6836   6.789   0.317   5.511 -0.0677  0.2528  0.1734
 2291TIP3    H1 6837   6.778   0.397   5.562 -0.4724  0.3651 -0.0822
 2291TIP3    H2 6838   6.883   0.298   5.515  0.3922  1.8703 -1.4253
 2292TIP3   OH2 6839   4.088   6.385   1.702  0.3960  0.0018  0.3602
 2292TIP3    H1 6840   4.150   6.337   1.756 -0.4391  0.4583  1.7805
 2292TIP3    H2 6841   4.033   6.317   1.663 -0.3308 -0.2862  1.8010
 2293TIP3   OH2 6842   3.408   6.462   2.665  0.1184  0.1187 -0.2779
 2293TIP3    H1 6843   3.334   6.427   2.616  1.3450 -1.6071 -0.9861
 2293TIP3    H2 6844   3.455   6.385   2.697  0.9249  1.1815  1.2246
 2294TIP3   OH2 6845   2.635   4.943   1.576 -0.4545 -0.2594  0.4023
 2294TIP3    H1 6846   2.544   4.924   1.597  0.0368 -1.9515  1.1460
 2294TIP3    H2 6847   2.635   4.954   1.480 -1.7630  1.9756  0.5963
 2295TIP3   OH2 6848   4.590   5.428   5.747 -0.1676 -0.0466 -0.3261
 2295TIP3    H1 6849   4.564   5.450   5.837 -0.9890  0.8803 -0.7729
 2295TIP3    H2 6850   4.571   5.335   5.738 -0.3647 -0.0768  0.3570
 2296TIP3   OH2 6851   4.203   5.666   2.874  0.2565 -0.4342 -0.0849
 2296TIP3    H1 6852   4.297   5.658   2.890  0.3230 -0.3324 -0.4166
 2296TIP3    H2 6853   4.171   5.575   2.876  0.7657 -0.7183 -2.3438
 2297TIP3   OH2 6854   6.002   1.137   4.578 -0.1133  0.1686 -0.4744
 2297TIP3    H1 6855   6.009   1.178   4.491  0.8163  0.4307 -0.2933
 2297TIP3    H2 6856   6.092   1.139   4.612 -0.2648 -0.9533  0.0328
 2298TIP3   OH2 6857   4.569   2.985   0.719 -0.5030 -0.0558 -0.1655
 2298TIP3    H1 6858   4.499   2.927   0.692  0.6417 -1.2663 -0.6274
 2298TIP3    H2 6859   4.532   3.034   0.793 -2.1948  0.1898 -1.1259
 2299TIP3   OH2 6860   4.572   1.484   1.959  0.4036  0.3619  0.4479
 2299TIP3    H1 6861   4.650   1.510   1.910  0.4246  0.9998  0.8133
 2299TIP3    H2 6862   4.530   1.566   1.981  1.0269  0.1617  2.5381
 2300TIP3   OH2 6863   1.869   2.662   2.979 -0.4718 -0.6725 -0.3814
 2300TIP3    H1 6864   1.901   2.645   3.068  0.3156 -0.0115 -0.5359
 2300TIP3    H2 6865   1.839   2.753   2.981 -0.4809 -0.6652 -0.7906
 2301TIP3   OH2 6866   0.326   1.648   0.923 -0.2585 -0.7606 -0.1997
 2301TIP3    H1 6867   0.319   1.552   0.930  2.1050 -0.9786  0.0293
 2301TIP3    H2 6868   0.244   1.680   0.959 -1.1972 -2.7042 -0.4476
 2302TIP3   OH2 6869   5.754   4.483   0.647  0.0647 -0.3283 -0.1242
 2302TIP3    H1 6870   5.685   4.425   0.681  0.0674 -0.1828  0.1372
 2302TIP3    H2 6871   5.714   4.526   0.571 -0.0099 -0.5118 -0.1892
 2303TIP3   OH2 6872   2.939   2.852   0.978 -0.1378 -0.2426 -0.3555
 2303TIP3    H1 6873   2.965   2.800   1.055 -0.5446 -1.5553 -1.0684
 2303TIP3    H2 6874   2.859   2.809   0.948 -1.9525  2.3001  0.4678
 2304TIP3   OH2 6875   5.225   0.921   5.857  0.2788  0.1733  0.8433
 2304TIP3    H1 6876   5.280   0.999   5.864  1.0361  0.1123 -2.6764
 2304TIP3    H2 6877   5.141   0.954   5.824  0.7813 -0.4423 -1.2145
 2305TIP3   OH2 6878   6.510   4.022   2.707  0.1558 -0.1692  0.3042
 2305TIP3    H1 6879   6.435   4.056   2.659  0.8096 -0.4869 -0.9764
 2305TIP3    H2 6880   6.525   4.087   2.776  0.1511  1.1321 -0.8766
 2306TIP3   OH2 6881   1.438   1.452   5.088  0.3637  0.6302  0.1951
 2306TIP3    H1 6882   1.490   1.519   5.041 -0.9160  2.0367  0.7011
 2306TIP3    H2 6883   1.360   1.441   5.034 -0.1355  0.6724  0.9063
 2307TIP3   OH2 6884   5.959   5.819   4.674 -0.2693 -0.7144  0.5102
 2307TIP3    H1 6885   5.941   5.741   4.621  0.3333 -0.3898 -0.2041
 2307TIP3    H2 6886   5.873   5.851   4.700 -0.7106 -0.0448 -1.5407
 2308TIP3   OH2 6887   5.666   5.303   4.008 -0.0560  0.0270 -0.0004
 2308TIP3    H1 6888   5.575   5.277   4.024 -0.1557 -0.5338 -1.3421
 2308TIP3    H2 6889   5.686   5.268   3.921  1.1599  0.9109 -0.1041
 2309TIP3   OH2 6890   0.705   4.928   2.351 -0.0717  0.8739 -0.5665
 2309TIP3    H1 6891   0.682   4.837   2.334  0.3223  0.7143 -0.2620
 2309TIP3    H2 6892   0.650   4.978   2.291  1.4653  0.3352 -2.5354
 2310TIP3   OH2 6893   4.851   4.223   0.303  0.3183 -0.7319 -0.2053
 2310TIP3    H1 6894   4.891   4.197   0.220  1.9887 -1.4381  0.7458
 2310TIP3    H2 6895   4.869   4.317   0.310 -1.3078 -0.2985 -1.3674
 2311TIP3   OH2 6896   5.478   5.028   0.071 -0.4393 -0.4927 -0.4473
 2311TIP3    H1 6897   5.392   5.007   0.037 -0.8738  1.4063 -0.6619
 2311TIP3    H2 6898   5.503   5.108   0.025  0.5162  0.1419  1.0948
 2312TIP3   OH2 6899   3.160   3.324   0.581 -0.5244 -0.5405 -0.0045
 2312TIP3    H1 6900   3.120   3.276   0.653 -2.6310  0.7301 -0.2585
 2312TIP3    H2 6901   3.250   3.340   0.610 -1.3899  0.2342  2.5453
 2313TIP3   OH2 6902   3.921   5.787   3.960  0.5663 -0.4645 -0.3054
 2313TIP3    H1 6903   3.912   5.694   3.940  2.1037 -0.3825 -1.6096
 2313TIP3    H2 6904   3.907   5.830   3.875  0.5209  0.4469  0.1575
 2314TIP3   OH2 6905   6.699   3.781   1.316  0.1956  0.1917 -0.1691
 2314TIP3    H1 6906   6.618   3.743   1.351  0.5409 -0.0247  0.4094
 2314TIP3    H2 6907   6.679   3.874   1.306 -0.1494  0.1276 -0.0954
 2315TIP3   OH2 6908   3.661   0.792   5.021  0.0375  0.1925  0.2541
 2315TIP3    H1 6909   3.684   0.874   4.977  0.5866  0.1167  0.4054
 2315TIP3    H2 6910   3.701   0.798   5.107 -0.4401  0.0274  0.4957
 2316TIP3   OH2 6911   2.086   6.441   3.331  0.3687  0.1990 -0.6930
 2316TIP3    H1 6912   2.103   6.350   3.355  1.9947  0.6220 -0.1254
 2316TIP3    H2 6913   2.016   6.468   3.390  0.8068 -0.2906  0.0708
 2317TIP3   OH2 6914   1.550   3.665   4.856  0.0929  0.1082  0.1731
 2317TIP3    H1 6915   1.559   3.758   4.875 -0.6786 -0.0932  1.6827
 2317TIP3    H2 6916   1.478   3.659   4.794  0.4862  0.5442 -0.3331
 2318TIP3   OH2 6917   6.005   1.380   4.373  0.4113  0.2192 -0.1438
 2318TIP3    H1 6918   6.086   1.365   4.422 -0.1485  1.3792  1.2197
 2318TIP3    H2 6919   6.034   1.398   4.284  1.4633 -1.9956 -0.3187
 2319TIP3   OH2 6920   1.611   0.096   0.726 -0.3226  0.0300  0.4191
 2319TIP3    H1 6921   1.643   0.126   0.641  1.9012 -1.5352  0.6247
 2319TIP3    H2 6922   1.521   0.067   0.708 -0.2026  0.5371 -1.1941
 2320TIP3   OH2 6923   4.839   1.977   4.884 -0.4033  0.4315 -0.4892
 2320TIP3    H1 6924   4.927   2.013   4.897 -0.9386  1.0145  2.2162
 2320TIP3    H2 6925   4.851   1.883   4.891  0.3420  0.2846 -2.9196
 2321TIP3   OH2 6926   6.289   3.749   2.057 -0.2573 -0.4134 -0.3439
 2321TIP3    H1 6927   6.351   3.799   2.005  1.1185 -0.9615  0.7198
 2321TIP3    H2 6928   6.279   3.799   2.138  0.1253 -1.1638  0.1833
 2322TIP3   OH2 6929   4.535   1.450   0.106 -0.1133  0.0674 -0.0343
 2322TIP3    H1 6930   4.458   1.397   0.124  0.8520 -1.2374  0.3909
 2322TIP3    H2 6931   4.603   1.387   0.084  0.8524  1.1853 -0.3536
 2323TIP3   OH2 6932   4.770   5.936   5.713 -0.0179 -0.0435  0.2953
 2323TIP3    H1 6933   4.709   5.879   5.666 -0.9761 -1.0782  2.6008
 2323TIP3    H2 6934   4.716   6.009   5.744  0.5185  0.4574  0.0646
 2324TIP3   OH2 6935   6.235   1.258   4.968  0.3856 -0.0784  0.0142
 2324TIP3    H1 6936   6.248   1.269   5.062  0.0611  1.0900 -0.0726
 2324TIP3    H2 6937   6.270   1.170   4.949 -0.4507 -0.7268  1.3756
 2325TIP3   OH2 6938   5.252   6.697   4.254  0.0920 -0.0635  0.4153
 2325TIP3    H1 6939   5.280   6.776   4.208 -0.3507  0.1767  0.5493
 2325TIP3    H2 6940   5.281   6.625   4.198 -0.1116  0.2137 -0.0588
 2326TIP3   OH2 6941   3.938   3.430   1.157 -0.1377  0.7476 -0.1070
 2326TIP3    H1 6942   3.997   3.433   1.082  0.2629  1.0221  0.2189
 2326TIP3    H2 6943   3.933   3.520   1.188 -2.3852  1.1577 -1.3907
 2327TIP3   OH2 6944   6.050   6.299   3.639  0.0653 -0.0358  0.4476
 2327TIP3    H1 6945   6.126   6.332   3.685 -0.2477 -0.9295  1.6613
 2327TIP3    H2 6946   6.031   6.365   3.571  1.1224  0.8144  0.9652
 2328TIP3   OH2 6947   4.104   5.323   1.291  0.0845 -0.2420 -0.5234
 2328TIP3    H1 6948   4.092   5.260   1.362  1.2194 -0.2281 -0.3058
 2328TIP3    H2 6949   4.122   5.406   1.334  0.7386 -0.2238 -0.8152
 2329TIP3   OH2 6950   4.284   2.162   3.557 -0.3392  0.1309  0.2399
 2329TIP3    H1 6951   4.315   2.098   3.621  0.3058  0.3733  0.1721
 2329TIP3    H2 6952   4.220   2.114   3.505  0.7194 -0.7027 -0.3273
 2330TIP3   OH2 6953   4.314   1.660   5.455 -0.4216 -0.0793 -0.4604
 2330TIP3    H1 6954   4.281   1.603   5.386  0.7628 -0.5941 -0.6213
 2330TIP3    H2 6955   4.324   1.603   5.531 -0.3330  0.1690 -0.2826
 2331TIP3   OH2 6956   5.029   3.766   1.133  0.3752  0.5859 -0.3325
 2331TIP3    H1 6957   5.039   3.677   1.167 -0.8415  0.5916  0.0989
 2331TIP3    H2 6958   4.974   3.756   1.056  0.2388  0.9645 -0.2850
 2332TIP3   OH2 6959   0.170   0.103   4.397 -0.0752  0.3636  0.6480
 2332TIP3    H1 6960   0.184   0.126   4.489 -1.4757 -1.1945  1.3196
 2332TIP3    H2 6961   0.246   0.050   4.373  0.5453  1.1952  0.7193
 2333TIP3   OH2 6962   6.935   3.920   0.720 -0.0862  0.0391  0.4336
 2333TIP3    H1 6963   6.925   3.855   0.789  1.7010 -0.6948  0.0541
 2333TIP3    H2 6964   6.972   3.996   0.765  0.8821 -0.3666  0.3459
 2334TIP3   OH2 6965   5.048   2.904   3.561  0.0479  0.1446 -0.7069
 2334TIP3    H1 6966   4.964   2.935   3.595 -0.3259  1.3666 -2.5745
 2334TIP3    H2 6967   5.104   2.981   3.562  0.8893 -0.4633 -0.2485
 2335TIP3   OH2 6968   2.554   3.879   4.231  0.0398  0.2930  0.5125
 2335TIP3    H1 6969   2.482   3.941   4.221  0.3682  1.4938  4.0052
 2335TIP3    H2 6970   2.631   3.934   4.244  0.9240 -0.9014  0.4777
 2336TIP3   OH2 6971   2.207   0.909   3.092  0.6671  0.0666  0.3634
 2336TIP3    H1 6972   2.155   0.835   3.123 -0.0548  0.9574  1.3628
 2336TIP3    H2 6973   2.274   0.921   3.159  1.9917 -0.8589 -0.7512
 2337TIP3   OH2 6974   2.242   5.735   5.054  0.4393 -0.3370 -0.2474
 2337TIP3    H1 6975   2.299   5.811   5.052 -0.9818  0.9519  2.5279
 2337TIP3    H2 6976   2.286   5.674   5.114 -0.0335 -0.2936  0.1416
 2338TIP3   OH2 6977   7.021   4.094   4.325  0.2237  0.3984  0.1008
 2338TIP3    H1 6978   6.996   4.144   4.403  2.3122  1.6217  0.0752
 2338TIP3    H2 6979   7.114   4.074   4.338  0.9243  1.4950 -2.4340
 2339TIP3   OH2 6980   0.100   2.224   4.046  0.0667  0.3338  0.5567
 2339TIP3    H1 6981   0.194   2.212   4.057  0.4390  1.8369 -0.5793
 2339TIP3    H2 6982   0.082   2.310   4.084 -0.4987  0.8488 -0.7954
 2340TIP3   OH2 6983   2.014   6.694   0.447 -0.0778 -0.3771 -0.1958
 2340TIP3    H1 6984   1.961   6.688   0.527  1.8938 -3.8034  1.0864
 2340TIP3    H2 6985   1.983   6.622   0.392 -0.2761  0.9158 -1.8481
 2341TIP3   OH2 6986   4.352   3.212   4.797 -0.0288 -0.7100  0.1955
 2341TIP3    H1 6987   4.323   3.275   4.862 -0.4375 -1.3770  0.6715
 2341TIP3    H2 6988   4.358   3.262   4.715 -2.4113 -0.5061  0.0853
 2342TIP3   OH2 6989   2.983   2.799   5.439 -0.6890 -0.1598  0.5593
 2342TIP3    H1 6990   2.976   2.889   5.473 -1.6790  1.3828 -3.2553
 2342TIP3    H2 6991   3.075   2.776   5.452 -0.3264  1.5177  1.2870
 2343TIP3   OH2 6992   5.452   0.161   3.596  0.3509  0.3800  0.1243
 2343TIP3    H1 6993   5.431   0.145   3.688 -0.8920 -2.3966 -0.5501
 2343TIP3    H2 6994   5.547   0.153   3.591  0.2768 -1.4514  0.8694
 2344TIP3   OH2 6995   2.391   3.244   2.890  0.1691 -0.4378  0.4744
 2344TIP3    H1 6996   2.449   3.288   2.952  0.6095 -1.1512  0.5786
 2344TIP3    H2 6997   2.347   3.315   2.843  0.3116  0.1087  1.1552
 2345TIP3   OH2 6998   4.627   0.675   5.338 -0.4123  0.5005  0.3932
 2345TIP3    H1 6999   4.695   0.720   5.387 -0.6336  1.3635 -0.0731
 2345TIP3    H2 7000   4.547   0.688   5.390 -0.3630  0.1278  0.5635
 2346TIP3   OH2 7001   4.302   2.177   1.105 -0.9660 -0.1050  0.5702
 2346TIP3    H1 7002   4.395   2.194   1.118 -0.0863 -1.5380 -2.7945
 2346TIP3    H2 7003   4.269   2.255   1.062 -1.2261  0.1686  1.2469
 2347TIP3   OH2 7004   5.074   5.088   0.735 -0.3926  0.2204  0.2828
 2347TIP3    H1 7005   5.158   5.103   0.692  0.6619 -1.1565  1.7283
 2347TIP3    H2 7006   5.020   5.045   0.668  0.5354 -0.1353 -0.2570
 2348TIP3   OH2 7007   0.344   1.391   0.982 -0.1890 -0.6841  0.0442
 2348TIP3    H1 7008   0.381   1.393   1.070  0.8814  0.5477 -0.4163
 2348TIP3    H2 7009   0.387   1.317   0.939  1.3523  0.3754 -0.2954
 2349TIP3   OH2 7010   0.674   1.793   0.144  0.8218  0.4934  0.2016
 2349TIP3    H1 7011   0.710   1.881   0.134 -1.4019  1.2237 -2.9177
 2349TIP3    H2 7012   0.746   1.735   0.122  1.5980  1.6759 -0.4792
 2350TIP3   OH2 7013   3.176   5.989   2.217  0.3670 -0.5413 -0.0459
 2350TIP3    H1 7014   3.171   6.073   2.170 -0.1974  0.4525  1.6791
 2350TIP3    H2 7015   3.265   5.985   2.250  0.7662 -1.2448 -1.1388
 2351TIP3   OH2 7016   3.402   3.944   5.790  0.1502  0.1087  0.4970
 2351TIP3    H1 7017   3.389   3.866   5.736 -0.2505 -0.1003  0.8890
 2351TIP3    H2 7018   3.493   3.938   5.819  0.9154  1.1092 -1.5372
 2352TIP3   OH2 7019   0.180   0.691   3.507  0.4496 -0.1344 -0.5111
 2352TIP3    H1 7020   0.128   0.617   3.537 -1.6041  0.9675 -1.1988
 2352TIP3    H2 7021   0.148   0.766   3.557  1.8159  0.4989 -0.5215
 2353TIP3   OH2 7022   6.203   0.711   1.569 -0.9816 -0.2651  0.0811
 2353TIP3    H1 7023   6.218   0.622   1.599  1.2963 -0.3558 -1.1458
 2353TIP3    H2 7024   6.253   0.766   1.630 -1.1820  0.0523 -0.0368
 2354TIP3   OH2 7025   1.588   4.452   4.448 -0.2259 -0.2643 -0.1856
 2354TIP3    H1 7026   1.666   4.508   4.441 -0.8047  0.8474  1.5881
 2354TIP3    H2 7027   1.615   4.381   4.506 -0.2202 -0.4659 -0.4356
 2355TIP3   OH2 7028   2.046   6.076   3.202  0.1905 -1.0097  0.3475
 2355TIP3    H1 7029   2.047   5.999   3.145  0.7676 -0.5849 -0.2239
 2355TIP3    H2 7030   2.114   6.133   3.167  0.5466 -0.7306  1.4583
 2356TIP3   OH2 7031   3.222   2.106   1.339 -0.4012  0.3050  0.0055
 2356TIP3    H1 7032   3.305   2.079   1.298  0.2329  0.0732  1.3940
 2356TIP3    H2 7033   3.168   2.136   1.266 -0.0109 -1.8620 -1.2645
 2357TIP3   OH2 7034   2.215   3.255   1.012 -1.0034  0.0843 -0.1994
 2357TIP3    H1 7035   2.123   3.259   0.985 -0.6709 -0.4547 -1.5223
 2357TIP3    H2 7036   2.233   3.340   1.052 -1.5996  0.8938 -1.5937
 2358TIP3   OH2 7037   2.513   1.102   4.947  0.0384 -0.0317 -0.4597
 2358TIP3    H1 7038   2.609   1.100   4.945  0.0227 -0.4152 -2.2428
 2358TIP3    H2 7039   2.488   1.139   4.862 -1.4047 -0.2387 -0.1519
 2359TIP3   OH2 7040   2.958   5.458   5.539 -0.3302 -0.1312 -0.5347
 2359TIP3    H1 7041   2.865   5.443   5.557  0.3016 -5.0980 -0.2152
 2359TIP3    H2 7042   2.998   5.470   5.626 -0.1528 -3.0951 -0.0934
 2360TIP3   OH2 7043   7.155   5.738   4.000 -0.5072 -0.1688 -0.2629
 2360TIP3    H1 7044   7.232   5.682   3.994 -0.5917 -0.2375 -0.7578
 2360TIP3    H2 7045   7.112   5.710   4.080  0.1507  0.0877  0.1892
 2361TIP3   OH2 7046   5.368   0.543   4.428  0.3623  0.2315  0.0658
 2361TIP3    H1 7047   5.297   0.482   4.406 -0.7318  0.9273  1.5063
 2361TIP3    H2 7048   5.443   0.486   4.446 -0.0032 -0.5559 -0.7990
 2362TIP3   OH2 7049   2.567   3.745   3.060 -0.1387  0.0630  0.2015
 2362TIP3    H1 7050   2.552   3.685   2.986  1.8524 -1.5228  0.9857
 2362TIP3    H2 7051   2.482   3.785   3.076 -0.6739  0.4160 -2.8882
 2363TIP3   OH2 7052   0.881   4.734   1.516 -0.4001  0.8041  0.3974
 2363TIP3    H1 7053   0.915   4.692   1.595  1.0559 -1.7374 -1.4422
 2363TIP3    H2 7054   0.819   4.671   1.479  0.2306  1.1599 -1.3759
 2364TIP3   OH2 7055   6.935   0.094   1.749  0.0475 -0.9953 -0.8501
 2364TIP3    H1 7056   6.972   0.181   1.735 -2.2510 -0.0207 -1.4702
 2364TIP3    H2 7057   6.996   0.050   1.807  0.9710  1.2738  0.0060
 2365TIP3   OH2 7058   6.422   2.422   0.778 -0.4500 -0.1886 -0.3613
 2365TIP3    H1 7059   6.514   2.396   0.771 -0.7723 -1.6697  0.4626
 2365TIP3    H2 7060   6.423   2.517   0.768  1.2679 -0.0824  0.4386
 2366TIP3   OH2 7061   4.597   5.628   1.422 -0.1838 -0.1124  0.3660
 2366TIP3    H1 7062   4.679   5.602   1.380 -0.4642 -0.9644  0.3239
 2366TIP3    H2 7063   4.580   5.715   1.388  1.5898  0.8145  1.6957
 2367TIP3   OH2 7064   5.734   2.176   0.957 -0.0797  0.2136 -0.2850
 2367TIP3    H1 7065   5.671   2.155   0.887 -0.7332  1.5328 -0.1208
 2367TIP3    H2 7066   5.817   2.185   0.912 -0.4936  1.0337 -0.9091
 2368TIP3   OH2 7067   5.797   0.983   1.428 -0.0645 -0.2801 -0.0646
 2368TIP3    H1 7068   5.706   0.984   1.399  0.3529  0.3934 -1.4487
 2368TIP3    H2 7069   5.797   1.031   1.511 -1.0563 -0.8613  0.2886
 2369TIP3   OH2 7070   0.516   4.850   2.608 -0.7308 -0.3741  0.8125
 2369TIP3    H1 7071   0.506   4.894   2.524 -2.3783  0.2648  1.2879
 2369TIP3    H2 7072   0.525   4.921   2.672  0.9048 -0.8577  1.1519
 2370TIP3   OH2 7073   0.020   4.805   4.650  0.4755  0.1014 -0.0816
 2370TIP3    H1 7074   0.096   4.852   4.615  2.5257 -2.5136  0.5079
 2370TIP3    H2 7075   0.009   4.730   4.591 -2.1363  0.7458 -0.5212
 2371TIP3   OH2 7076   5.363   1.626   1.039 -0.1944  0.1900 -0.0988
 2371TIP3    H1 7077   5.408   1.546   1.065 -0.3544  0.1776  0.1485
 2371TIP3    H2 7078   5.307   1.600   0.966  2.9345  0.9472 -3.0252
 2372TIP3   OH2 7079   1.158   1.439   5.021  0.2901 -0.1363 -0.3945
 2372TIP3    H1 7080   1.106   1.519   5.019  1.6864  0.8043 -2.0027
 2372TIP3    H2 7081   1.102   1.373   4.979  0.0476  0.6283 -1.3052
 2373TIP3   OH2 7082   5.138   1.214   4.748  0.4327  0.3102  0.1057
 2373TIP3    H1 7083   5.135   1.123   4.778  0.0607 -0.2704 -1.5848
 2373TIP3    H2 7084   5.207   1.215   4.682 -1.8047  0.3904 -2.4127
 2374TIP3   OH2 7085   1.609   5.816   3.967  0.0992 -0.1377 -0.4715
 2374TIP3    H1 7086   1.695   5.803   3.927  0.0064 -2.9463  0.0316
 2374TIP3    H2 7087   1.567   5.730   3.962 -2.5919  1.0647 -0.4212
 2375TIP3   OH2 7088   2.173   3.279   5.213 -0.2328 -0.3416 -0.4579
 2375TIP3    H1 7089   2.165   3.212   5.145  1.3604  0.8033 -1.8459
 2375TIP3    H2 7090   2.088   3.323   5.213 -0.3011 -0.4324 -1.6584
 2376TIP3   OH2 7091   0.564   5.573   3.143  0.2120  0.1138 -0.2997
 2376TIP3    H1 7092   0.623   5.503   3.118 -0.5360 -1.2845  1.5855
 2376TIP3    H2 7093   0.499   5.531   3.200 -2.4199  1.6115 -1.9445
 2377TIP3   OH2 7094   3.540   3.829   2.076 -0.1445  0.3702 -0.5854
 2377TIP3    H1 7095   3.519   3.905   2.131  0.5024  0.3814 -0.3403
 2377TIP3    H2 7096   3.627   3.847   2.042 -0.4059  0.2059 -1.3663
 2378TIP3   OH2 7097   7.096   1.920   1.008 -0.0461  0.0845  0.2275
 2378TIP3    H1 7098   7.016   1.900   0.959 -0.1852  0.1954  0.4061
 2378TIP3    H2 7099   7.085   1.875   1.092 -0.9474  1.9063  1.1522
 2379TIP3   OH2 7100   4.492   5.198   2.504 -0.2558  0.4546 -0.1057
 2379TIP3    H1 7101   4.488   5.268   2.439 -1.4147  0.0091 -0.5343
 2379TIP3    H2 7102   4.441   5.127   2.466  1.8727 -1.1061 -0.2290
 2380TIP3   OH2 7103   3.924   1.514   2.058 -0.0184  0.2117 -0.3774
 2380TIP3    H1 7104   3.895   1.600   2.028 -2.5493 -0.0864  0.9282
 2380TIP3    H2 7105   3.974   1.478   1.985  1.3153  2.8411 -0.8778
 2381TIP3   OH2 7106   3.747   5.560   4.251  0.1536 -0.0613  0.1270
 2381TIP3    H1 7107   3.733   5.477   4.297 -0.4742 -0.2692 -0.4240
 2381TIP3    H2 7108   3.660   5.600   4.245  0.6370  1.3291  1.6396
 2382TIP3   OH2 7109   1.198   0.702   4.953 -0.4150  0.3647  0.0038
 2382TIP3    H1 7110   1.226   0.661   5.034  0.0532 -0.5883 -0.6359
 2382TIP3    H2 7111   1.272   0.756   4.925 -0.2687  0.0569 -0.2088
 2383TIP3   OH2 7112   5.313   2.089   5.171  0.3053  0.4672 -0.3075
 2383TIP3    H1 7113   5.310   1.998   5.139 -0.6380  0.4379 -0.1616
 2383TIP3    H2 7114   5.223   2.107   5.199  1.0107  0.5287  2.2181
 2384TIP3   OH2 7115   2.330   6.472   4.720 -0.3053  0.4970 -0.1071
 2384TIP3    H1 7116   2.388   6.452   4.646  1.7239 -0.6899  1.6669
 2384TIP3    H2 7117   2.260   6.408   4.713  0.6531 -0.5874 -0.2348
 2385TIP3   OH2 7118   0.879   2.173   1.585 -0.1708  0.2618 -0.2915
 2385TIP3    H1 7119   0.898   2.098   1.641  0.1985 -0.3296 -1.1770
 2385TIP3    H2 7120   0.784   2.172   1.574 -0.3341  0.8278  0.9027
 2386TIP3   OH2 7121   1.663   5.498   0.360 -0.4254 -0.0905  0.4923
 2386TIP3    H1 7122   1.699   5.508   0.448 -0.3947 -0.6327  0.5446
 2386TIP3    H2 7123   1.738   5.471   0.307 -0.3396  0.7153  0.1969
 2387TIP3   OH2 7124   1.905   2.583   0.587  0.9122 -0.6408  0.0110
 2387TIP3    H1 7125   1.992   2.620   0.578  0.6413  0.0793  0.2438
 2387TIP3    H2 7126   1.864   2.636   0.656 -0.1503 -0.1220 -0.9921
 2388TIP3   OH2 7127   1.447   0.247   1.398 -0.1621  0.8669  0.5287
 2388TIP3    H1 7128   1.368   0.288   1.433  1.3576  2.3332  2.4544
 2388TIP3    H2 7129   1.461   0.292   1.314 -1.0710  0.9427  0.4017
 2389TIP3   OH2 7130   4.649   2.056   2.356 -0.0123  0.3831  0.4154
 2389TIP3    H1 7131   4.614   2.091   2.438 -0.8783  0.2790  0.1039
 2389TIP3    H2 7132   4.573   2.051   2.298  1.0053  3.0790 -1.3483
 2390TIP3   OH2 7133   2.045   6.540   3.059  0.1598  0.2558  0.4132
 2390TIP3    H1 7134   2.067   6.633   3.058 -1.9574  0.8264  1.1637
 2390TIP3    H2 7135   2.059   6.512   3.149  1.0843 -0.2574  0.1248
 2391TIP3   OH2 7136   1.968   5.014   2.785  0.2022 -0.5005 -0.4572
 2391TIP3    H1 7137   1.916   4.934   2.775  0.5459 -0.7446 -0.2974
 2391TIP3    H2 7138   1.991   5.017   2.877  0.7534 -0.5714 -0.5889
 2392TIP3   OH2 7139   6.292   5.822   3.772  0.5342 -0.0277  0.1514
 2392TIP3    H1 7140   6.353   5.765   3.724  0.5489 -0.2598  0.4418
 2392TIP3    H2 7141   6.285   5.781   3.858 -0.8491 -0.5910 -0.2079
 2393TIP3   OH2 7142   1.120   4.649   0.969 -0.3122 -0.3733 -0.1775
 2393TIP3    H1 7143   1.068   4.709   0.917  0.6967  2.1353  1.5056
 2393TIP3    H2 7144   1.211   4.667   0.945  0.2826  1.6977  3.0354
 2394TIP3   OH2 7145   6.976   2.700   1.769  0.1055 -0.1903 -0.3307
 2394TIP3    H1 7146   6.980   2.677   1.862  1.2136  2.2341  0.2970
 2394TIP3    H2 7147   7.062   2.675   1.734 -0.2268 -0.8828 -0.6837
 2395TIP3   OH2 7148   6.300   3.986   4.237 -0.4864 -0.1864 -0.0222
 2395TIP3    H1 7149   6.279   3.964   4.146  1.9847  0.1137 -0.7539
 2395TIP3    H2 7150   6.386   3.945   4.251 -0.4049  0.5614  1.8864
 2396TIP3   OH2 7151   2.843   2.652   3.629 -0.6033  0.0627 -0.0442
 2396TIP3    H1 7152   2.870   2.586   3.566  0.6926  1.1588 -0.7043
 2396TIP3    H2 7153   2.911   2.651   3.696 -0.5564  0.7430 -0.0759
 2397TIP3   OH2 7154   5.501   3.964   3.803 -0.5998 -0.4563 -0.6547
 2397TIP3    H1 7155   5.517   4.002   3.717 -0.8529  1.1088 -0.0421
 2397TIP3    H2 7156   5.411   3.987   3.823 -0.6156 -1.0031 -0.0646
 2398TIP3   OH2 7157   4.005   5.625   0.829 -0.2006 -0.6192 -0.0056
 2398TIP3    H1 7158   4.025   5.556   0.892 -0.6908 -1.8510 -1.1331
 2398TIP3    H2 7159   3.984   5.701   0.883  0.9221 -1.1669  1.2707
 2399TIP3   OH2 7160   5.702   4.486   5.531  0.5352  0.2152  0.2600
 2399TIP3    H1 7161   5.632   4.539   5.492  1.4479  0.8249 -0.5903
 2399TIP3    H2 7162   5.780   4.507   5.480  1.2388 -0.8614  0.8463
 2400TIP3   OH2 7163   6.576   3.053   3.288 -0.0011 -0.4394  0.4645
 2400TIP3    H1 7164   6.604   2.983   3.229  2.7954 -0.4088  1.6064
 2400TIP3    H2 7165   6.574   3.131   3.233 -1.6822 -1.0779 -0.4780
 2401TIP3   OH2 7166   0.706   6.342   3.141 -0.1065 -0.2251  1.0803
 2401TIP3    H1 7167   0.701   6.247   3.154  0.1156  0.1083  4.0586
 2401TIP3    H2 7168   0.614   6.370   3.135 -0.1938 -0.5194  1.0451
 2402TIP3   OH2 7169   5.259   0.162   2.326 -0.5532 -0.2575  0.4751
 2402TIP3    H1 7170   5.287   0.093   2.386  1.2677  0.6092  0.6996
 2402TIP3    H2 7171   5.274   0.243   2.374  0.7535  0.4495 -1.0308
 2403TIP3   OH2 7172   5.653   0.994   2.561  0.0071  0.5324 -0.8839
 2403TIP3    H1 7173   5.595   0.918   2.566 -0.3683  0.8784  0.7418
 2403TIP3    H2 7174   5.722   0.975   2.625 -0.9393  2.1942  0.7433
 2404TIP3   OH2 7175   4.294   4.172   4.282  0.4005 -0.0635 -0.0892
 2404TIP3    H1 7176   4.311   4.258   4.244  2.2153  0.6150  2.0468
 2404TIP3    H2 7177   4.219   4.185   4.341  0.2500 -0.1354 -0.2605
 2405TIP3   OH2 7178   3.197   2.043   2.048  0.0508  0.2443  0.0949
 2405TIP3    H1 7179   3.286   2.016   2.025  0.6130  1.3624  0.8737
 2405TIP3    H2 7180   3.156   2.064   1.964  0.3851 -0.6189 -0.3021
 2406TIP3   OH2 7181   5.252   2.206   2.205  0.4237 -0.2740 -0.3044
 2406TIP3    H1 7182   5.202   2.245   2.134  1.6950  2.1607  0.0242
 2406TIP3    H2 7183   5.342   2.203   2.172  0.4584 -2.7936 -0.1911
 2407TIP3   OH2 7184   6.281   6.569   3.009 -0.4765  0.6767  0.8473
 2407TIP3    H1 7185   6.338   6.501   2.972  1.7101  1.8890  1.8159
 2407TIP3    H2 7186   6.196   6.526   3.019  0.6954 -1.7864  0.9931
 2408TIP3   OH2 7187   2.753   0.364   1.645  0.6629  0.2934  0.2476
 2408TIP3    H1 7188   2.701   0.355   1.724  1.1044  1.8946  0.7723
 2408TIP3    H2 7189   2.843   0.345   1.673  0.8577  1.1158  0.2098
 2409TIP3   OH2 7190   4.331   6.716   0.607 -0.0153 -0.3774 -0.2056
 2409TIP3    H1 7191   4.409   6.703   0.553  1.2543 -2.2470  1.9365
 2409TIP3    H2 7192   4.258   6.704   0.546  1.1769  2.8848 -2.6116
 2410TIP3   OH2 7193   3.980   3.346   3.564 -0.2898 -0.0680  0.5598
 2410TIP3    H1 7194   3.989   3.315   3.475  1.4798 -0.8139  0.9673
 2410TIP3    H2 7195   3.998   3.270   3.619 -3.7307 -0.2955  1.6387
 2411TIP3   OH2 7196   0.940   5.960   3.574  0.5031 -0.0961 -0.2053
 2411TIP3    H1 7197   0.937   5.953   3.478 -0.0913 -1.9333 -0.0926
 2411TIP3    H2 7198   1.033   5.950   3.595  0.4188 -1.6860 -0.4989
 2412TIP3   OH2 7199   3.983   0.788   2.702  0.1263 -0.3727  0.9031
 2412TIP3    H1 7200   3.895   0.756   2.725  0.2128 -0.0382  1.7387
 2412TIP3    H2 7201   4.035   0.708   2.691 -0.0277 -0.5606  1.4774
 2413TIP3   OH2 7202   1.494   4.134   4.043  0.6293  0.6239 -0.2361
 2413TIP3    H1 7203   1.415   4.184   4.024  1.9733  2.1274 -2.3810
 2413TIP3    H2 7204   1.553   4.197   4.083  1.1439 -0.1890  0.3134
 2414TIP3   OH2 7205   4.230   0.758   1.354 -0.6746  0.3640  0.0637
 2414TIP3    H1 7206   4.225   0.716   1.268  0.4690  0.2852  0.0301
 2414TIP3    H2 7207   4.295   0.827   1.344 -2.1956  1.9113  0.2422
 2415TIP3   OH2 7208   1.969   0.038   2.817 -0.0572  0.2913 -0.2581
 2415TIP3    H1 7209   2.022   0.085   2.881 -0.8518 -0.3047  0.8640
 2415TIP3    H2 7210   1.928  -0.033   2.866 -1.3913  0.3420 -1.2238
 2416TIP3   OH2 7211   3.149   2.517   0.127 -0.4254 -0.1026 -0.3682
 2416TIP3    H1 7212   3.225   2.481   0.173  1.4125  3.5302 -0.1715
 2416TIP3    H2 7213   3.081   2.523   0.194 -0.1970 -1.3553  0.0124
 2417TIP3   OH2 7214   3.995   4.284   1.595 -0.6168  0.1277  0.0543
 2417TIP3    H1 7215   4.052   4.355   1.627  0.9563  0.2825 -2.7023
 2417TIP3    H2 7216   3.954   4.248   1.673  3.1735  0.1450  2.2965
 2418TIP3   OH2 7217   0.237   1.136   4.737  0.1884 -0.0148  0.1119
 2418TIP3    H1 7218   0.155   1.091   4.715 -0.5305  0.7680  1.0921
 2418TIP3    H2 7219   0.252   1.114   4.829  0.6405  0.5073  0.1675
 2419TIP3   OH2 7220   2.953   3.032   0.413 -0.5908  0.1259 -0.2274
 2419TIP3    H1 7221   3.037   3.069   0.441 -1.0411  0.9825  0.0154
 2419TIP3    H2 7222   2.894   3.107   0.407 -0.8808 -0.1993 -2.1904
 2420TIP3   OH2 7223   3.003   4.313   0.202  0.3426  0.8762  0.0196
 2420TIP3    H1 7224   2.937   4.252   0.170  0.4668  0.0892  1.2220
 2420TIP3    H2 7225   2.957   4.397   0.209 -1.0874 -0.0096  2.5227
 2421TIP3   OH2 7226   6.505   1.177   3.756  0.3736 -0.2415  0.1100
 2421TIP3    H1 7227   6.598   1.174   3.734  0.2722 -0.2089 -0.3324
 2421TIP3    H2 7228   6.502   1.164   3.851  0.7522 -1.5463 -0.0366
 2422TIP3   OH2 7229   6.244   5.163   3.530  0.2393  0.3664 -0.3745
 2422TIP3    H1 7230   6.278   5.246   3.563  1.1107 -0.1527  0.0647
 2422TIP3    H2 7231   6.307   5.098   3.560 -1.2578 -0.6682  0.6384
 2423TIP3   OH2 7232   0.421   4.984   4.230 -0.3511  0.2518 -0.6930
 2423TIP3    H1 7233   0.459   4.905   4.267 -3.0607 -1.5471 -1.3972
 2423TIP3    H2 7234   0.495   5.032   4.193  1.6032 -1.0222  1.3488
 2424TIP3   OH2 7235   0.669   5.686   5.174  0.0485 -0.7077 -0.1120
 2424TIP3    H1 7236   0.709   5.769   5.200 -0.4973 -1.3005  2.9993
 2424TIP3    H2 7237   0.576   5.699   5.190 -0.0763 -1.8056  0.0690
 2425TIP3   OH2 7238   5.324   6.083   5.535 -0.2039  0.5314 -0.5610
 2425TIP3    H1 7239   5.413   6.118   5.546 -0.3424  0.4429  1.0622
 2425TIP3    H2 7240   5.328   6.035   5.452  1.2980  0.4754 -0.4908
 2426TIP3   OH2 7241   6.475   1.503   2.839 -0.0712  0.5213 -0.5206
 2426TIP3    H1 7242   6.389   1.544   2.844  0.8395  2.4205  3.0330
 2426TIP3    H2 7243   6.492   1.471   2.927  2.8828  0.2592 -1.0803
 2427TIP3   OH2 7244   0.352   3.449   1.277  0.4004 -0.7955  0.3873
 2427TIP3    H1 7245   0.285   3.517   1.285  0.2135 -0.8036 -0.9053
 2427TIP3    H2 7246   0.317   3.388   1.211  2.1134 -0.2249 -1.1441
 2428TIP3   OH2 7247   2.881   6.538   1.045 -0.2904  0.2624  0.0834
 2428TIP3    H1 7248   2.971   6.527   1.076 -0.4744  1.2969  1.0646
 2428TIP3    H2 7249   2.889   6.582   0.961  0.1605 -0.8040 -0.4393
 2429TIP3   OH2 7250   0.496   3.111   4.742 -0.2991  0.1446 -0.4046
 2429TIP3    H1 7251   0.492   3.146   4.654  0.8698 -0.4229 -0.7083
 2429TIP3    H2 7252   0.570   3.050   4.740  0.1887  0.6461  1.1469
 2430TIP3   OH2 7253   5.932   6.114   5.823 -0.2002 -0.1061  0.3539
 2430TIP3    H1 7254   5.878   6.123   5.902 -0.9714 -0.3777 -0.1291
 2430TIP3    H2 7255   5.908   6.189   5.769  0.4186  0.1472  0.4250
 2431TIP3   OH2 7256   2.343   1.088   4.119  0.3118 -0.0433 -0.0148
 2431TIP3    H1 7257   2.424   1.040   4.138  0.7553  1.0559  1.0332
 2431TIP3    H2 7258   2.275   1.020   4.115  0.6688 -0.7155  2.8358
 2432TIP3   OH2 7259   6.604   0.324   0.038  0.0265 -0.6061 -0.2667
 2432TIP3    H1 7260   6.699   0.324   0.046  0.0193  2.7158  2.6864
 2432TIP3    H2 7261   6.583   0.405  -0.009 -1.3070 -0.6515  0.1769
 2433TIP3   OH2 7262   4.475   0.499   2.993 -0.4413 -0.4723  0.4581
 2433TIP3    H1 7263   4.540   0.562   2.963 -1.6593  0.9919  0.7671
 2433TIP3    H2 7264   4.518   0.414   2.986  2.5338  0.6115  3.2279
 2434TIP3   OH2 7265   0.823   1.017   0.656  0.0580 -0.6017 -0.7416
 2434TIP3    H1 7266   0.907   1.055   0.683 -0.5355 -0.8954  1.8239
 2434TIP3    H2 7267   0.844   0.926   0.634  0.4707 -0.6371 -0.2374
 2435TIP3   OH2 7268   0.744   3.344   1.322  0.4760 -0.1151 -0.0923
 2435TIP3    H1 7269   0.737   3.431   1.282  0.4796 -0.0901 -0.0384
 2435TIP3    H2 7270   0.793   3.292   1.259  1.4229  0.2121  0.3556
 2436TIP3   OH2 7271   2.572   4.671   1.772 -0.0583 -0.3328 -0.7644
 2436TIP3    H1 7272   2.550   4.746   1.827 -0.1849 -0.1227 -1.1004
 2436TIP3    H2 7273   2.616   4.610   1.831 -2.3871 -1.1986  0.1765
 2437TIP3   OH2 7274   6.899   1.291   4.974 -0.0243  0.0484 -0.3757
 2437TIP3    H1 7275   6.859   1.350   5.038  0.6921 -0.0652  0.1909
 2437TIP3    H2 7276   6.879   1.203   5.006 -1.5873 -0.0558 -1.5284
 2438TIP3   OH2 7277   1.087   2.953   0.901 -0.0863 -0.6616  0.1758
 2438TIP3    H1 7278   1.135   2.896   0.841 -0.3805 -3.0653  2.0462
 2438TIP3    H2 7279   1.142   2.956   0.980 -1.1966 -0.3069  0.9601
 2439TIP3   OH2 7280   2.871   2.114   3.964  0.1465 -0.7819 -0.4925
 2439TIP3    H1 7281   2.853   2.021   3.948 -0.2039 -0.7711 -0.1865
 2439TIP3    H2 7282   2.858   2.124   4.059 -0.7322 -0.2279 -0.6574
 2440TIP3   OH2 7283   6.310   0.095   5.145 -0.3864  0.0176 -0.3898
 2440TIP3    H1 7284   6.372   0.023   5.154 -1.0983 -0.4032  2.4400
 2440TIP3    H2 7285   6.355   0.171   5.182 -1.3355 -0.2092  1.3517
 2441TIP3   OH2 7286   5.374   0.919   5.014  0.0348 -0.9591 -0.2812
 2441TIP3    H1 7287   5.368   1.014   5.008 -0.5980 -1.0337 -1.0793
 2441TIP3    H2 7288   5.283   0.890   5.024  0.0281 -1.5587 -1.7829
 2442TIP3   OH2 7289   6.843   3.466   4.325  0.3326  0.3448  0.0233
 2442TIP3    H1 7290   6.761   3.446   4.370  0.6141 -1.0941 -0.0617
 2442TIP3    H2 7291   6.911   3.434   4.384  0.9019  2.2588  0.4667
 2443TIP3   OH2 7292   4.686   2.822   4.731  0.3117 -0.1158  0.1068
 2443TIP3    H1 7293   4.753   2.889   4.742  1.6376 -1.4237  0.1952
 2443TIP3    H2 7294   4.671   2.818   4.637 -1.7109  2.0770  0.2169
 2444TIP3   OH2 7295   6.827   5.981   2.748  0.2542  0.0436 -0.7080
 2444TIP3    H1 7296   6.800   6.060   2.795 -0.9188  0.9450 -2.7292
 2444TIP3    H2 7297   6.921   5.976   2.762  0.2840  1.5363 -0.1349
 2445TIP3   OH2 7298   4.366   5.688   2.458  0.1717 -0.0690  0.1473
 2445TIP3    H1 7299   4.315   5.699   2.377  0.7207  1.0493 -0.0584
 2445TIP3    H2 7300   4.311   5.728   2.526  0.2567  0.0974  0.1184
 2446TIP3   OH2 7301   1.604   3.644   5.352 -0.1097 -0.1503  0.1645
 2446TIP3    H1 7302   1.625   3.599   5.434 -0.8196 -0.9774 -0.0965
 2446TIP3    H2 7303   1.510   3.658   5.354 -0.3513 -1.3487 -1.0640
 2447TIP3   OH2 7304   3.962   6.200   2.865 -0.0613 -0.5164  0.4895
 2447TIP3    H1 7305   4.042   6.251   2.855  0.8501 -2.2614 -2.4531
 2447TIP3    H2 7306   3.926   6.227   2.949  2.7959  1.4427  1.2141
 2448TIP3   OH2 7307   1.436   4.842   5.193 -0.3317 -0.3839  0.0511
 2448TIP3    H1 7308   1.389   4.840   5.110  0.3469  1.3900 -0.4249
 2448TIP3    H2 7309   1.381   4.896   5.250 -0.2430 -0.6420  0.3788
 2449TIP3   OH2 7310   6.436   0.041   4.422  0.2965  0.2684 -0.1540
 2449TIP3    H1 7311   6.471  -0.028   4.478  1.8374  0.3534 -0.9629
 2449TIP3    H2 7312   6.383   0.095   4.481  1.5627  0.1481  1.1551
 2450TIP3   OH2 7313   0.653   2.072   2.624  0.9128 -0.3741 -0.1334
 2450TIP3    H1 7314   0.573   2.022   2.606  0.9930 -0.6658  0.3082
 2450TIP3    H2 7315   0.687   2.035   2.706  0.8993  0.4905  0.2743
 2451TIP3   OH2 7316   3.738   3.344   5.421  0.2510  0.1357 -0.7164
 2451TIP3    H1 7317   3.696   3.326   5.505 -2.9592 -0.9161 -2.3627
 2451TIP3    H2 7318   3.738   3.439   5.414 -2.3068  0.1957 -0.7329
 2452TIP3   OH2 7319   6.032   6.291   0.537 -0.4126  0.0854 -0.6219
 2452TIP3    H1 7320   6.127   6.283   0.529 -0.2756  0.5989  0.3078
 2452TIP3    H2 7321   6.004   6.337   0.458  0.6503  3.5830  0.8181
 2453TIP3   OH2 7322   4.305   1.011   0.085  0.4528  0.4048  0.1047
 2453TIP3    H1 7323   4.337   1.019   0.175  1.2033 -2.1285  0.1448
 2453TIP3    H2 7324   4.375   1.050   0.032  1.6696 -1.1609  0.4693
 2454TIP3   OH2 7325   0.620   6.741   0.598 -0.4388 -0.2834 -0.3751
 2454TIP3    H1 7326   0.653   6.715   0.512 -0.3225 -0.8093 -0.1706
 2454TIP3    H2 7327   0.671   6.690   0.661 -0.1987  0.4294  0.0341
 2455TIP3   OH2 7328   3.344   0.854   4.577  0.2428  0.0453  0.0705
 2455TIP3    H1 7329   3.319   0.869   4.486 -0.1424  1.8583  0.4404
 2455TIP3    H2 7330   3.263   0.825   4.619  0.4836 -1.0700 -0.1839
 2456TIP3   OH2 7331   4.396   3.723   0.091  0.4373  0.4392  0.3223
 2456TIP3    H1 7332   4.300   3.717   0.092  0.3771  0.0154 -2.0843
 2456TIP3    H2 7333   4.416   3.775   0.013  2.1729  0.4837  0.7700
 2457TIP3   OH2 7334   5.352   0.481   1.498  0.3576 -0.3305 -0.1342
 2457TIP3    H1 7335   5.411   0.524   1.561  0.7370  1.3982 -1.5973
 2457TIP3    H2 7336   5.294   0.551   1.468 -0.6328 -1.4072 -0.7994
 2458TIP3   OH2 7337   2.828   5.857   5.346 -0.7420  0.5785  0.3080
 2458TIP3    H1 7338   2.893   5.790   5.324 -1.7816 -0.6031  0.6764
 2458TIP3    H2 7339   2.784   5.874   5.262 -1.5989 -0.4841  0.5134
 2459TIP3   OH2 7340   4.857   5.445   5.887  0.1642 -0.1181 -0.0732
 2459TIP3    H1 7341   4.877   5.495   5.808 -1.2527  0.5459 -0.0481
 2459TIP3    H2 7342   4.769   5.411   5.872  0.4218 -1.1364  0.6541
 2460TIP3   OH2 7343   1.948   3.214   4.042 -0.4074 -0.1529  0.0071
 2460TIP3    H1 7344   1.953   3.206   4.137  1.0078 -1.4273 -0.1475
 2460TIP3    H2 7345   1.857   3.240   4.025 -1.8464 -3.5444  1.5093
 2461TIP3   OH2 7346   6.728   0.226   5.228  0.2358  0.4290 -0.6867
 2461TIP3    H1 7347   6.680   0.280   5.165 -1.3248 -0.1906 -0.1024
 2461TIP3    H2 7348   6.710   0.268   5.313  0.9671  0.3342 -0.4840
 2462TIP3   OH2 7349   4.130   6.276   0.813 -0.1943  0.2901 -0.0149
 2462TIP3    H1 7350   4.209   6.291   0.865 -0.5493  0.5335  0.4689
 2462TIP3    H2 7351   4.134   6.341   0.744 -0.3697  0.8388  0.4839
 2463TIP3   OH2 7352   4.179   5.605   3.863  0.3974 -0.0009  0.1397
 2463TIP3    H1 7353   4.199   5.646   3.779 -0.9418 -0.2250 -0.3150
 2463TIP3    H2 7354   4.249   5.635   3.921 -0.0238  2.1906 -0.4007
 2464TIP3   OH2 7355   2.948   0.702   5.067 -0.4741  0.6199 -0.0896
 2464TIP3    H1 7356   2.866   0.725   5.112 -0.1249  2.3226 -0.2461
 2464TIP3    H2 7357   3.013   0.761   5.105  0.8256 -1.0613  0.4068
 2465TIP3   OH2 7358   1.416   4.760   1.147 -0.1762  0.2290 -0.1870
 2465TIP3    H1 7359   1.418   4.811   1.227 -1.2480  1.4594 -0.9087
 2465TIP3    H2 7360   1.377   4.676   1.172 -1.2016  0.8814  0.4454
 2466TIP3   OH2 7361   3.383   6.413   2.239  0.3613 -0.2407 -0.7037
 2466TIP3    H1 7362   3.326   6.486   2.216  0.7183  0.6622  1.1104
 2466TIP3    H2 7363   3.350   6.383   2.324  0.9614 -1.4295 -0.8758
 2467TIP3   OH2 7364   2.673   1.886   1.394  0.2920  0.1398  0.2546
 2467TIP3    H1 7365   2.680   1.823   1.322  1.1028  0.6963 -0.1670
 2467TIP3    H2 7366   2.586   1.869   1.431 -0.0720 -0.2788 -0.7343
 2468TIP3   OH2 7367   3.870   3.660   3.275  0.0286 -0.0578 -0.0941
 2468TIP3    H1 7368   3.890   3.731   3.336 -0.1557  0.6531 -0.8428
 2468TIP3    H2 7369   3.790   3.688   3.230  0.8118  0.0389 -1.5180
 2469TIP3   OH2 7370   2.679   4.230   3.697  0.1242  0.4394  0.4719
 2469TIP3    H1 7371   2.649   4.191   3.779  0.2229 -1.4923 -0.3650
 2469TIP3    H2 7372   2.692   4.323   3.719 -2.3536  0.5400  1.9336
 2470TIP3   OH2 7373   0.992   6.267   4.656 -0.4499 -0.6741  0.4651
 2470TIP3    H1 7374   0.949   6.321   4.722  0.5811 -0.7034  1.1918
 2470TIP3    H2 7375   1.066   6.227   4.702  1.6773  1.0769 -1.1859
 2471TIP3   OH2 7376   0.754   6.204   0.923 -0.1707 -0.4024 -0.0595
 2471TIP3    H1 7377   0.813   6.144   0.968  0.0920  0.1422  0.3366
 2471TIP3    H2 7378   0.769   6.188   0.830  2.3133  1.2993 -0.0466
 2472TIP3   OH2 7379   5.281   1.552   3.774  0.0457 -0.1819  0.2793
 2472TIP3    H1 7380   5.328   1.490   3.830  1.7450  0.3634 -0.4769
 2472TIP3    H2 7381   5.236   1.610   3.835  0.4567 -0.6427  1.0400
 2473TIP3   OH2 7382   1.219   1.927   2.736 -0.2368 -0.1112 -0.0880
 2473TIP3    H1 7383   1.132   1.886   2.741 -0.3292 -0.4789 -2.8193
 2473TIP3    H2 7384   1.274   1.861   2.693  0.8072  0.9521 -0.4542
 2474TIP3   OH2 7385   5.228   1.700   0.586 -0.2238  0.1639  0.3420
 2474TIP3    H1 7386   5.296   1.664   0.529 -0.0944  0.5392  0.2603
 2474TIP3    H2 7387   5.160   1.729   0.526 -1.6319 -2.5067  0.4884
 2475TIP3   OH2 7388   4.265   3.419   1.544  0.1020 -0.1450  0.3129
 2475TIP3    H1 7389   4.304   3.447   1.461 -0.8606 -1.3654 -0.5909
 2475TIP3    H2 7390   4.311   3.338   1.565  0.5235  0.2985  1.1185
 2476TIP3   OH2 7391   6.641   3.136   0.653  0.4294 -0.5286  0.2834
 2476TIP3    H1 7392   6.560   3.115   0.608  0.1280 -0.7159  0.8993
 2476TIP3    H2 7393   6.626   3.108   0.743  0.3215  1.5559  0.9697
 2477TIP3   OH2 7394   6.818   3.966   3.387 -0.3251  0.4972 -0.2279
 2477TIP3    H1 7395   6.764   3.912   3.445 -0.7589  1.1134 -0.0565
 2477TIP3    H2 7396   6.896   3.985   3.438 -1.8277  3.2526  1.2124
 2478TIP3   OH2 7397   4.510   2.503   4.475  0.1386  0.0162 -0.3839
 2478TIP3    H1 7398   4.436   2.480   4.531  0.2772 -0.1816 -0.2770
 2478TIP3    H2 7399   4.586   2.500   4.534  0.3635 -0.7611 -0.7037
 2479TIP3   OH2 7400   1.392   6.438   1.417 -0.5667  0.0038  0.4036
 2479TIP3    H1 7401   1.361   6.420   1.506  0.9574  1.0695  1.1818
 2479TIP3    H2 7402   1.429   6.354   1.388  0.3636  0.0461  1.3989
 2480TIP3   OH2 7403   4.964   2.272   2.746 -0.2131  0.4414  0.6007
 2480TIP3    H1 7404   4.978   2.178   2.732 -1.0079  0.3835  0.1472
 2480TIP3    H2 7405   5.051   2.310   2.738  0.0117 -0.1678  0.0134
 2481TIP3   OH2 7406   0.028   6.326   3.475 -0.2610 -0.1158  0.0319
 2481TIP3    H1 7407   0.072   6.411   3.485  0.1594 -0.1413 -1.3395
 2481TIP3    H2 7408  -0.035   6.323   3.547  0.1891  1.0618  0.5059
 2482TIP3   OH2 7409   6.277   6.738   4.670  0.3156 -0.0250 -0.6389
 2482TIP3    H1 7410   6.345   6.681   4.633 -1.0694 -1.5756 -0.8902
 2482TIP3    H2 7411   6.276   6.715   4.763 -0.2153 -0.3940 -0.7336
 2483TIP3   OH2 7412   4.817   3.243   5.679  0.0517  0.5457  0.1261
 2483TIP3    H1 7413   4.867   3.240   5.597 -0.6053  0.2679 -0.2785
 2483TIP3    H2 7414   4.881   3.266   5.746  0.0659  3.8833 -0.8908
 2484TIP3   OH2 7415   3.764   3.422   0.389 -0.2972 -0.5756  0.2084
 2484TIP3    H1 7416   3.796   3.357   0.452 -1.4395 -1.2029  0.1742
 2484TIP3    H2 7417   3.727   3.370   0.317 -0.9583  0.1050  0.0383
 2485TIP3   OH2 7418   4.123   1.032   4.330 -0.1307  0.4141 -0.6018
 2485TIP3    H1 7419   4.176   0.961   4.365 -0.0198  0.6272 -0.3398
 2485TIP3    H2 7420   4.099   1.003   4.242  0.1623  0.1833 -0.6047
 2486TIP3   OH2 7421   0.714   0.778   5.461 -0.2210 -0.0879 -0.3191
 2486TIP3    H1 7422   0.764   0.750   5.538  0.6667  2.2228  0.0080
 2486TIP3    H2 7423   0.715   0.702   5.403  0.1958 -1.4488  1.3871
 2487TIP3   OH2 7424   5.340   0.674   0.075 -0.5326 -0.9504 -0.3872
 2487TIP3    H1 7425   5.288   0.720   0.009 -1.2656 -0.5621  0.4393
 2487TIP3    H2 7426   5.404   0.740   0.105 -0.8882 -0.7945  0.0361
 2488TIP3   OH2 7427   1.927   2.276   2.766 -0.5113  0.4106  0.4220
 2488TIP3    H1 7428   1.899   2.257   2.856  0.2965  0.6812  0.7436
 2488TIP3    H2 7429   2.014   2.235   2.760 -0.6724  0.1735 -0.3232
 2489TIP3   OH2 7430   0.853   2.559   5.455 -0.3823  0.3901  0.6681
 2489TIP3    H1 7431   0.849   2.509   5.373  1.3259  0.1375  0.7074
 2489TIP3    H2 7432   0.890   2.644   5.429 -0.7106  0.6518  1.0394
 2490TIP3   OH2 7433   0.854   4.183   0.024  0.5074  0.7823 -0.0026
 2490TIP3    H1 7434   0.921   4.115   0.009  0.1146  0.7238 -1.6765
 2490TIP3    H2 7435   0.773   4.144  -0.009  0.0046  1.5557  0.3001
 2491TIP3   OH2 7436   6.408   3.167   5.218 -0.6101  0.0859 -0.2576
 2491TIP3    H1 7437   6.459   3.238   5.179 -0.6889 -0.0014 -0.5214
 2491TIP3    H2 7438   6.318   3.201   5.220 -1.1415 -0.9605 -2.7982
 2492TIP3   OH2 7439   0.561   2.443   3.643  0.6557 -0.3111 -0.1983
 2492TIP3    H1 7440   0.540   2.532   3.670 -1.0877 -0.6513 -0.3239
 2492TIP3    H2 7441   0.622   2.412   3.710  1.7269  1.1216 -0.4442
 2493TIP3   OH2 7442   7.028   6.683   4.520  0.3520 -0.1451  0.3240
 2493TIP3    H1 7443   6.978   6.730   4.587 -1.2771 -0.6242 -0.5171
 2493TIP3    H2 7444   6.968   6.616   4.488  1.0945  0.0617 -1.6025
 2494TIP3   OH2 7445   2.856   5.972   0.705 -0.3046 -0.9951  0.6523
 2494TIP3    H1 7446   2.878   6.064   0.688 -3.1088 -0.5666 -1.3641
 2494TIP3    H2 7447   2.921   5.922   0.655 -0.4047 -0.0043 -0.5063
 2495TIP3   OH2 7448   0.010   0.498   0.174  0.3233 -0.7246  0.0481
 2495TIP3    H1 7449   0.086   0.510   0.232  0.4018  1.8169 -0.4698
 2495TIP3    H2 7450  -0.041   0.578   0.185 -1.7566 -1.9126 -0.4507
 2496TIP3   OH2 7451   4.484   1.813   4.340  0.4741  0.4489 -0.5415
 2496TIP3    H1 7452   4.499   1.799   4.246  1.7587  1.9832 -0.6124
 2496TIP3    H2 7453   4.569   1.841   4.374  0.0790 -0.2954  1.1412
 2497TIP3   OH2 7454   3.305   2.824   4.408 -0.1863 -0.0971 -0.0770
 2497TIP3    H1 7455   3.257   2.744   4.387 -0.9246  0.6897 -1.5318
 2497TIP3    H2 7456   3.383   2.820   4.353  0.0158 -0.0382  0.2030
 2498TIP3   OH2 7457   6.719   2.300   0.756 -0.1405 -0.0345  0.1732
 2498TIP3    H1 7458   6.742   2.315   0.665  0.7956  2.4016  0.7221
 2498TIP3    H2 7459   6.640   2.246   0.753 -0.3096  0.2596 -2.0743
 2499TIP3   OH2 7460   6.944   2.945   5.143 -0.0905  0.1569  0.6314
 2499TIP3    H1 7461   6.866   2.965   5.092  0.0921 -1.6067 -0.4347
 2499TIP3    H2 7462   7.016   2.984   5.093 -0.0312 -0.5896  0.1134
 2500TIP3   OH2 7463   5.625   6.067   0.452 -0.2830  0.4222  0.4667
 2500TIP3    H1 7464   5.612   5.986   0.502 -4.5276  1.6907  1.8716
 2500TIP3    H2 7465   5.661   6.129   0.516  0.4102  0.3920  0.1193
 2501TIP3   OH2 7466   2.079   0.537   5.719 -0.1167  0.0541  0.1510
 2501TIP3    H1 7467   2.050   0.524   5.629 -0.9095 -0.3638  0.4524
 2501TIP3    H2 7468   2.083   0.632   5.729  1.3673  0.1233 -0.7337
 2502TIP3   OH2 7469   4.554   2.935   5.093  1.0292 -0.0828  0.7038
 2502TIP3    H1 7470   4.629   2.894   5.136  2.0670  0.9031 -0.1171
 2502TIP3    H2 7471   4.592   2.987   5.022 -0.3809  0.9363  0.6572
 2503TIP3   OH2 7472   4.157   0.191   2.517  0.5523  0.6642 -0.0222
 2503TIP3    H1 7473   4.145   0.157   2.428  0.7989  1.6562 -0.4451
 2503TIP3    H2 7474   4.222   0.133   2.556  0.2935  0.0965 -0.4183
 2504TIP3   OH2 7475   4.077   4.475   2.949 -0.5516 -0.6402  0.1087
 2504TIP3    H1 7476   4.021   4.539   2.904 -0.7085 -0.6149  0.3411
 2504TIP3    H2 7477   4.119   4.524   3.019  0.1039 -0.5543 -0.3350
 2505TIP3   OH2 7478   6.403   4.462   2.498 -0.2362 -0.1833  0.1223
 2505TIP3    H1 7479   6.485   4.499   2.467 -0.0396  0.4375  1.3179
 2505TIP3    H2 7480   6.335   4.516   2.457 -0.0177 -0.0287 -0.0359
 2506TIP3   OH2 7481   6.228   5.676   3.055  0.7079 -0.4920 -0.3032
 2506TIP3    H1 7482   6.149   5.692   3.002  0.5778 -0.5124 -0.1148
 2506TIP3    H2 7483   6.205   5.707   3.142  0.8580 -0.6416 -0.2108
 2507TIP3   OH2 7484   5.942   4.891   3.719  0.2569  0.7406  0.2040
 2507TIP3    H1 7485   6.024   4.935   3.745 -0.2031  1.1111  1.0767
 2507TIP3    H2 7486   5.930   4.823   3.785 -0.9642  1.7320  1.0554
 2508TIP3   OH2 7487   1.319   2.873   4.616 -0.3630 -0.0023  0.4738
 2508TIP3    H1 7488   1.337   2.947   4.558 -2.0995 -1.3591 -1.9927
 2508TIP3    H2 7489   1.405   2.841   4.642  0.8090 -1.1787 -3.9840
 2509TIP3   OH2 7490   1.349   3.851   2.432 -0.1750 -0.2290  0.5842
 2509TIP3    H1 7491   1.386   3.777   2.478  1.0725 -0.1187 -0.1999
 2509TIP3    H2 7492   1.273   3.815   2.386  0.8190 -1.1912 -0.3507
 2510TIP3   OH2 7493   3.217   2.643   2.981 -0.4226 -0.2495  0.3827
 2510TIP3    H1 7494   3.253   2.660   3.068 -1.7803 -1.7304  1.2694
 2510TIP3    H2 7495   3.138   2.697   2.977 -0.2559 -0.0296 -0.0264
 2511TIP3   OH2 7496   3.847   5.525   3.973 -0.3192 -0.5503 -0.0879
 2511TIP3    H1 7497   3.880   5.436   3.982 -0.2346 -0.4227  1.0254
 2511TIP3    H2 7498   3.801   5.542   4.056  1.8367  1.3368  0.8145
 2512TIP3   OH2 7499   3.517   4.685   5.497  0.1847 -0.3547 -0.0735
 2512TIP3    H1 7500   3.474   4.625   5.557 -0.1081 -0.3495 -0.2788
 2512TIP3    H2 7501   3.452   4.703   5.429  0.0058  0.7687  0.3710
 2513TIP3   OH2 7502   0.935   2.728   2.779  0.0458  0.5779 -0.1397
 2513TIP3    H1 7503   0.963   2.647   2.823 -0.9320  1.3464  2.0502
 2513TIP3    H2 7504   0.924   2.703   2.687 -1.4281 -2.1193  0.6607
 2514TIP3   OH2 7505   2.322   1.231   5.185 -0.1620 -0.3932 -0.2196
 2514TIP3    H1 7506   2.350   1.213   5.095 -1.3582 -0.1341 -0.6651
 2514TIP3    H2 7507   2.244   1.178   5.197  0.3934 -0.9823  0.9301
 2515TIP3   OH2 7508   3.922   6.597   5.200  0.2767  0.3562  0.1756
 2515TIP3    H1 7509   3.854   6.567   5.260  3.5131 -0.3496  3.9233
 2515TIP3    H2 7510   3.980   6.521   5.190  2.0491  1.7206 -0.4154
 2516TIP3   OH2 7511   4.932   3.533   1.614  0.3923  0.5624  0.0309
 2516TIP3    H1 7512   4.974   3.581   1.686  1.2840  0.0552 -0.1330
 2516TIP3    H2 7513   4.953   3.584   1.536 -0.3828  0.9879  0.0854
 2517TIP3   OH2 7514   1.641   0.786   3.086  0.7064 -0.1593 -0.6611
 2517TIP3    H1 7515   1.618   0.813   2.997  1.0495  0.0665 -0.6825
 2517TIP3    H2 7516   1.695   0.857   3.119 -0.8413  0.5990  0.3642
 2518TIP3   OH2 7517   0.573   0.261   5.068  0.3229 -0.3990 -0.3128
 2518TIP3    H1 7518   0.512   0.206   5.118  1.7517 -1.8448 -0.0813
 2518TIP3    H2 7519   0.554   0.350   5.098 -2.0049 -0.7156 -0.6343
 2519TIP3   OH2 7520   6.585   3.829   3.506  0.4417 -0.7123  0.4304
 2519TIP3    H1 7521   6.619   3.756   3.455  1.3540  0.4086 -0.6185
 2519TIP3    H2 7522   6.620   3.814   3.594  0.4314 -1.6475  0.2929
 2520TIP3   OH2 7523   5.394   6.211   3.198  0.2514  0.3697 -0.0332
 2520TIP3    H1 7524   5.327   6.274   3.173 -0.5181 -0.0932  0.7964
 2520TIP3    H2 7525   5.375   6.133   3.145  1.3079  0.8574 -1.1883
 2521TIP3   OH2 7526   4.118   0.631   3.239 -0.1763 -0.6068  0.6208
 2521TIP3    H1 7527   4.107   0.648   3.146 -1.1634 -1.9969  0.4494
 2521TIP3    H2 7528   4.069   0.700   3.283  1.1056  0.6422  0.1788
 2522TIP3   OH2 7529   4.602   3.415   5.533 -0.3092 -0.2458  0.0835
 2522TIP3    H1 7530   4.529   3.369   5.575 -0.8596 -1.8253 -2.4215
 2522TIP3    H2 7531   4.625   3.360   5.459  2.5846  0.9118  0.0081
 2523TIP3   OH2 7532   5.785   6.289   4.518  0.1748  0.1696 -0.4767
 2523TIP3    H1 7533   5.747   6.207   4.485 -1.0647  0.2037  0.7832
 2523TIP3    H2 7534   5.709   6.341   4.546  1.0969 -0.4199  3.7123
 2524TIP3   OH2 7535   4.462   0.468   0.821  0.3670 -0.4452  0.0674
 2524TIP3    H1 7536   4.453   0.437   0.911 -0.4051 -1.9707 -0.5120
 2524TIP3    H2 7537   4.533   0.415   0.784  1.4615  0.9401  0.0617
 2525TIP3   OH2 7538   3.157   3.113   1.353  0.5613  0.1321  0.6562
 2525TIP3    H1 7539   3.246   3.113   1.319  1.2118  0.1757  2.2579
 2525TIP3    H2 7540   3.165   3.075   1.441 -0.8501  0.9809  1.1892
 2526TIP3   OH2 7541   0.435   6.459   2.112  0.6425  0.0562  0.3377
 2526TIP3    H1 7542   0.339   6.451   2.115  0.2469  2.5722 -1.5611
 2526TIP3    H2 7543   0.459   6.421   2.027  1.4533 -1.0828  1.0485
 2527TIP3   OH2 7544   2.155   2.764   3.902  0.8350  0.4022  0.6594
 2527TIP3    H1 7545   2.107   2.847   3.900 -0.6149 -0.3524  1.9115
 2527TIP3    H2 7546   2.124   2.721   3.981  1.8045 -1.2086  0.2013
 2528TIP3   OH2 7547   7.188   3.841   1.250  0.2702  0.1712 -0.1944
 2528TIP3    H1 7548   7.109   3.804   1.288  2.2080 -1.4085  2.7165
 2528TIP3    H2 7549   7.207   3.918   1.305  2.1347 -1.0602  0.9927
 2529TIP3   OH2 7550   4.889   6.444   2.445 -0.2580 -0.5850 -0.1171
 2529TIP3    H1 7551   4.921   6.450   2.535 -0.4469 -1.6618  0.0368
 2529TIP3    H2 7552   4.802   6.483   2.448  1.5892  4.2912 -0.9526
 2530TIP3   OH2 7553   2.369   1.724   2.094  0.1274 -0.3959 -0.1408
 2530TIP3    H1 7554   2.459   1.751   2.075 -0.2707  0.6370 -0.6286
 2530TIP3    H2 7555   2.345   1.774   2.173 -0.5205  0.5126 -0.8882
 2531TIP3   OH2 7556   3.913   0.651   5.763 -0.1060  0.0377  0.3793
 2531TIP3    H1 7557   3.861   0.571   5.771 -1.2021  0.6650 -0.2970
 2531TIP3    H2 7558   3.974   0.633   5.691 -0.3108 -0.1992  0.2662
 2532TIP3   OH2 7559   4.373   0.169   1.773  0.1038  0.2411 -0.0670
 2532TIP3    H1 7560   4.462   0.133   1.781 -0.0059  0.2646  1.8567
 2532TIP3    H2 7561   4.385   0.256   1.737  0.6023 -0.6859 -2.3174
 2533TIP3   OH2 7562   4.541   1.965   2.712 -0.0939 -0.6835 -0.8564
 2533TIP3    H1 7563   4.538   1.941   2.805  1.2309 -2.8653 -1.3204
 2533TIP3    H2 7564   4.617   1.918   2.677 -1.4575 -1.1809 -3.3769
 2534TIP3   OH2 7565   6.129   0.451   2.787  0.0447  0.1930 -0.5375
 2534TIP3    H1 7566   6.094   0.444   2.699  0.1259 -0.3662 -0.5298
 2534TIP3    H2 7567   6.064   0.409   2.843  0.3550 -0.1402 -0.4251
 2535TIP3   OH2 7568   6.848   5.058   1.807  0.0130 -0.0281 -0.1453
 2535TIP3    H1 7569   6.790   4.996   1.851  0.8238  0.1794  1.2685
 2535TIP3    H2 7570   6.936   5.034   1.837  0.6779 -0.2512 -2.1422
 2536TIP3   OH2 7571   3.674   5.889   4.664  0.2449 -0.3676  0.6572
 2536TIP3    H1 7572   3.650   5.834   4.590 -0.5745 -2.2570  2.2236
 2536TIP3    H2 7573   3.736   5.836   4.714  0.2089  0.5460  1.7056
 2537TIP3   OH2 7574   4.100   2.145   4.609 -0.3166  0.4280  0.4644
 2537TIP3    H1 7575   4.067   2.151   4.699 -0.0705  0.6901  0.5399
 2537TIP3    H2 7576   4.193   2.165   4.617 -0.1998 -0.0029  0.2104
 2538TIP3   OH2 7577   0.576   1.418   2.091 -0.2179 -0.3082 -0.1497
 2538TIP3    H1 7578   0.546   1.456   2.008  0.0886  4.4008  1.6094
 2538TIP3    H2 7579   0.667   1.394   2.074 -0.6294 -0.9983 -1.5695
 2539TIP3   OH2 7580   6.078   2.462   4.331 -0.0554  0.6143 -0.0318
 2539TIP3    H1 7581   6.153   2.515   4.304 -0.7872  1.0977 -1.1657
 2539TIP3    H2 7582   6.094   2.445   4.424  0.4606  2.4292  0.2650
 2540TIP3   OH2 7583   4.205   4.317   1.186  0.1517 -0.1138 -0.0280
 2540TIP3    H1 7584   4.246   4.246   1.136  2.0977  0.3485  0.8044
 2540TIP3    H2 7585   4.205   4.391   1.126  1.0427  0.0165  0.1187
 2541TIP3   OH2 7586   6.467   4.862   2.068  0.2482 -0.0448  0.1945
 2541TIP3    H1 7587   6.382   4.854   2.024  0.6099  1.4029 -0.8397
 2541TIP3    H2 7588   6.468   4.952   2.101  0.9951 -0.3556  1.0283
 2542TIP3   OH2 7589   5.147   2.663   4.331  0.0272  0.1579 -0.3845
 2542TIP3    H1 7590   5.149   2.585   4.387 -0.7608 -0.1000 -0.6925
 2542TIP3    H2 7591   5.218   2.649   4.269 -0.7913 -0.8947 -1.1474
 2543TIP3   OH2 7592   0.679   4.051   0.941 -0.1466  0.2279 -0.0313
 2543TIP3    H1 7593   0.744   3.991   0.975  1.2724  1.0728 -1.1297
 2543TIP3    H2 7594   0.711   4.138   0.964 -2.5715  0.6295  2.2467
 2544TIP3   OH2 7595   6.183   2.298   5.239  0.4318  0.1136 -0.6287
 2544TIP3    H1 7596   6.163   2.205   5.232 -1.4232  0.4398  0.0043
 2544TIP3    H2 7597   6.179   2.318   5.332  0.7586  0.8590 -0.7577
 2545TIP3   OH2 7598   4.456   5.448   2.376 -0.3772  0.1859 -0.2643
 2545TIP3    H1 7599   4.375   5.401   2.359  0.2891 -0.1699 -2.7738
 2545TIP3    H2 7600   4.427   5.533   2.411 -1.8489  0.1242 -1.2305
 2546TIP3   OH2 7601   1.146   0.705   1.550 -0.6992 -0.4415 -0.0928
 2546TIP3    H1 7602   1.233   0.679   1.581  0.0048  0.7719 -0.9709
 2546TIP3    H2 7603   1.113   0.628   1.503  0.6730 -0.3245 -1.3060
 2547TIP3   OH2 7604   2.933   3.264   2.424 -0.1321  1.0072  0.4944
 2547TIP3    H1 7605   3.021   3.250   2.459 -0.8015  0.4934  2.1027
 2547TIP3    H2 7606   2.942   3.257   2.329  1.2024 -1.2448  0.7279
 2548TIP3   OH2 7607   2.730   2.954   3.943  0.3547 -0.2574  0.2032
 2548TIP3    H1 7608   2.753   3.047   3.944  1.0730 -0.4344  0.4461
 2548TIP3    H2 7609   2.726   2.932   3.850 -0.8220  0.2466  0.1084
 2549TIP3   OH2 7610   3.728   5.638   1.658 -0.2020 -0.1785  0.2892
 2549TIP3    H1 7611   3.794   5.618   1.591  0.2372  0.0812  0.6341
 2549TIP3    H2 7612   3.654   5.582   1.637  0.5481 -1.2984  0.5433
 2550TIP3   OH2 7613   4.419   0.299   2.338  0.1744 -0.5850 -0.5524
 2550TIP3    H1 7614   4.396   0.257   2.421  2.3738  1.0024  0.9928
 2550TIP3    H2 7615   4.357   0.372   2.331  0.5816 -0.1453  0.2408
 2551TIP3   OH2 7616   0.967   0.902   0.339  0.7219 -0.7154  0.4919
 2551TIP3    H1 7617   0.987   0.850   0.417  0.1076 -0.5700  0.7556
 2551TIP3    H2 7618   1.044   0.892   0.283  1.0791 -1.0016  1.0205
 2552TIP3   OH2 7619   0.771   3.268   5.000  0.6439  0.1190  0.1041
 2552TIP3    H1 7620   0.720   3.215   5.061  0.5294  1.3322  1.0961
 2552TIP3    H2 7621   0.848   3.296   5.049 -0.3556  2.6609  0.3870
 2553TIP3   OH2 7622   3.944   5.152   1.038 -1.3554  0.4225  0.1245
 2553TIP3    H1 7623   4.032   5.170   1.070 -1.6849  0.1090  1.2711
 2553TIP3    H2 7624   3.947   5.061   1.009 -0.7351  1.0488 -1.9676
 2554TIP3   OH2 7625   3.144   2.357   4.107 -0.0098 -0.1109 -0.0757
 2554TIP3    H1 7626   3.090   2.363   4.027 -0.5224 -0.6230  0.2205
 2554TIP3    H2 7627   3.229   2.390   4.080  0.1101 -1.1770 -1.1138
 2555TIP3   OH2 7628   5.592   3.378   1.184 -0.1146 -0.3658  0.1895
 2555TIP3    H1 7629   5.557   3.459   1.221  0.6521 -0.1620  0.4992
 2555TIP3    H2 7630   5.598   3.318   1.259  0.0689 -0.4345  0.1219
 2556TIP3   OH2 7631   4.248   1.793   0.076  0.3216  0.3112 -0.1912
 2556TIP3    H1 7632   4.196   1.723   0.116 -0.6970  1.7539  1.1330
 2556TIP3    H2 7633   4.333   1.789   0.120  0.0044  0.3763  0.4352
 2557TIP3   OH2 7634   3.778   1.626   0.339  0.2316 -0.4520  0.3094
 2557TIP3    H1 7635   3.697   1.622   0.391 -0.6619 -1.0757 -1.0772
 2557TIP3    H2 7636   3.791   1.536   0.308  0.9685 -0.1781 -0.1984
 2558TIP3   OH2 7637   3.383   1.713   1.891  0.5681 -0.1951 -0.0056
 2558TIP3    H1 7638   3.357   1.659   1.965  0.0674  0.1494  0.0752
 2558TIP3    H2 7639   3.408   1.650   1.823  4.0415 -0.5555  1.4401
 2559TIP3   OH2 7640   4.651   4.466   2.430 -0.1889 -0.3928  0.5283
 2559TIP3    H1 7641   4.735   4.511   2.419 -1.3880  2.1401  0.8020
 2559TIP3    H2 7642   4.624   4.443   2.341  0.7596 -1.2011  0.4362
 2560TIP3   OH2 7643   1.757   3.954   5.799  0.1022  0.1217 -0.1617
 2560TIP3    H1 7644   1.823   4.022   5.793  0.6342 -0.1891  1.6029
 2560TIP3    H2 7645   1.674   4.001   5.806 -0.1004  0.5214 -3.3905
 2561TIP3   OH2 7646   1.103   2.160   3.565 -0.7092 -0.0559 -0.2486
 2561TIP3    H1 7647   1.151   2.127   3.641  0.1028 -0.3639 -0.8792
 2561TIP3    H2 7648   1.070   2.082   3.522 -1.3511  0.1298 -0.0995
 2562TIP3   OH2 7649   1.168   4.444   0.563 -0.1035 -0.0698  0.0668
 2562TIP3    H1 7650   1.154   4.522   0.509  0.2242  0.4603  0.7277
 2562TIP3    H2 7651   1.263   4.441   0.575 -0.2014  0.0247  0.9041
 2563TIP3   OH2 7652   2.796   4.245   3.445  0.4911  0.5038  0.0714
 2563TIP3    H1 7653   2.821   4.314   3.383 -0.1158  0.4250 -0.2755
 2563TIP3    H2 7654   2.717   4.280   3.487  1.3040  0.8658  1.3300
 2564TIP3   OH2 7655   1.770   0.351   0.138 -0.6485 -0.1939 -0.0761
 2564TIP3    H1 7656   1.776   0.403   0.058 -0.7608  0.5216  0.3726
 2564TIP3    H2 7657   1.718   0.275   0.114  0.0007 -0.3863 -0.8912
 2565TIP3   OH2 7658   4.222   0.548   1.789  0.4253 -0.3261  0.1910
 2565TIP3    H1 7659   4.289   0.612   1.766  1.1652 -0.0120  2.9149
 2565TIP3    H2 7660   4.140   0.597   1.787  0.6305 -0.0061 -0.4739
 2566TIP3   OH2 7661   3.359   0.166   1.568 -0.4800 -0.0496  0.5309
 2566TIP3    H1 7662   3.353   0.112   1.490 -0.2242 -0.4526  0.7868
 2566TIP3    H2 7663   3.274   0.210   1.573  0.2679  1.7533 -1.2283
 2567TIP3   OH2 7664   0.517   2.723   3.124  0.6828  0.0367 -0.0374
 2567TIP3    H1 7665   0.539   2.631   3.106  1.1891 -0.0229  0.8443
 2567TIP3    H2 7666   0.582   2.751   3.188 -1.4504  0.0034  2.2846
 2568TIP3   OH2 7667   0.617   0.271   0.553 -0.1807 -0.6308  0.1221
 2568TIP3    H1 7668   0.557   0.275   0.627 -0.7051 -1.9473 -0.2029
 2568TIP3    H2 7669   0.605   0.183   0.517  1.9991 -0.9676  0.0919
 2569TIP3   OH2 7670   1.624   3.779   0.080  0.0362 -0.7835  0.2660
 2569TIP3    H1 7671   1.541   3.787   0.128  0.1523  0.9307  0.2424
 2569TIP3    H2 7672   1.598   3.745  -0.006 -0.7367  0.3355  0.0388
 2570TIP3   OH2 7673   6.382   1.780   0.532  0.0268  0.4042  0.7043
 2570TIP3    H1 7674   6.373   1.718   0.461  2.7573  0.6711  0.0151
 2570TIP3    H2 7675   6.368   1.728   0.611  0.1126 -0.6061  0.0741
 2571TIP3   OH2 7676   0.363   6.744   5.215 -0.0583 -0.0034  0.2532
 2571TIP3    H1 7677   0.414   6.669   5.244 -0.9479 -0.1816  1.4173
 2571TIP3    H2 7678   0.422   6.819   5.228  0.4741 -0.3733  0.0301
 2572TIP3   OH2 7679   6.655   3.692   2.361  0.6907  0.1813  0.3805
 2572TIP3    H1 7680   6.693   3.737   2.286 -1.1130 -1.8238 -1.8774
 2572TIP3    H2 7681   6.635   3.763   2.423  1.6906  1.9889 -1.2477
 2573TIP3   OH2 7682   1.932   3.502   1.149  0.0178  0.3641  0.1358
 2573TIP3    H1 7683   1.864   3.550   1.196 -2.1230  0.1510 -2.4730
 2573TIP3    H2 7684   2.006   3.562   1.145 -0.0835  0.7813  2.6796
 2574TIP3   OH2 7685   2.275   2.219   4.740 -0.0846  0.2638 -0.5219
 2574TIP3    H1 7686   2.334   2.290   4.712  1.7942 -0.6432  0.9033
 2574TIP3    H2 7687   2.334   2.147   4.762 -1.8897 -1.3639 -0.8303
 2575TIP3   OH2 7688   0.736   6.587   3.039 -0.8077  0.1225  0.5152
 2575TIP3    H1 7689   0.782   6.570   2.957  1.5732  2.3480  1.2519
 2575TIP3    H2 7690   0.729   6.502   3.081 -0.5141 -0.7975 -1.2032
 2576TIP3   OH2 7691   3.558   1.871   1.468  0.1258  0.3790 -0.1602
 2576TIP3    H1 7692   3.637   1.913   1.503 -0.4845  1.4775 -0.0775
 2576TIP3    H2 7693   3.559   1.783   1.507  1.0050  0.5686  0.2800
 2577TIP3   OH2 7694   5.705   2.823   3.588 -0.5387 -0.0606 -0.2779
 2577TIP3    H1 7695   5.793   2.827   3.625  0.1939  0.2315 -1.9542
 2577TIP3    H2 7696   5.647   2.837   3.662  0.8090 -0.7524  0.9473
 2578TIP3   OH2 7697   1.203   1.131   4.914 -0.6727  0.6844 -0.1294
 2578TIP3    H1 7698   1.291   1.161   4.893 -0.6312  0.3002 -0.5309
 2578TIP3    H2 7699   1.205   1.037   4.895 -1.1236  0.6462 -0.0010
 2579TIP3   OH2 7700   4.096   2.777   2.277  0.6074 -0.5008  0.5294
 2579TIP3    H1 7701   4.030   2.795   2.344 -0.6603 -2.1913 -0.1803
 2579TIP3    H2 7702   4.131   2.691   2.301 -0.0838 -1.2670 -1.1278
 2580TIP3   OH2 7703   4.150   1.124   3.070  0.3990  0.1573  0.2796
 2580TIP3    H1 7704   4.189   1.168   2.995  0.5712 -0.8554 -0.2361
 2580TIP3    H2 7705   4.098   1.192   3.114  1.2520  1.0468 -0.0742
 2581TIP3   OH2 7706   3.252   1.765   2.438  0.0292 -0.1262 -0.0935
 2581TIP3    H1 7707   3.158   1.773   2.423  0.1102  0.2904 -0.3947
 2581TIP3    H2 7708   3.269   1.671   2.439 -0.7657 -0.3104  2.3290
 2582TIP3   OH2 7709   0.960   3.025   5.235 -0.1584  0.0607  0.2893
 2582TIP3    H1 7710   0.894   3.053   5.298  0.0436 -0.5920  0.8079
 2582TIP3    H2 7711   1.043   3.060   5.269  0.0210 -0.7042  0.6668
 2583TIP3   OH2 7712   5.216   6.511   0.931 -0.7208 -1.0318 -0.4846
 2583TIP3    H1 7713   5.210   6.417   0.951 -0.4313 -0.7708  1.0117
 2583TIP3    H2 7714   5.295   6.539   0.977 -0.7356 -0.0710 -1.0257
 2584TIP3   OH2 7715   3.065   3.689   2.950  0.0688  0.0441 -0.0229
 2584TIP3    H1 7716   2.976   3.669   2.922 -0.0742  1.3779 -0.5660
 2584TIP3    H2 7717   3.106   3.731   2.874  0.1034  2.4958  1.2749
 2585TIP3   OH2 7718   1.239   2.561   0.723  0.2770 -0.2045 -0.1379
 2585TIP3    H1 7719   1.308   2.510   0.766  0.6816  0.6844  0.2730
 2585TIP3    H2 7720   1.161   2.505   0.730  0.6958 -0.7419  0.3677
 2586TIP3   OH2 7721   0.287   1.745   1.486  0.0034  0.1824  0.3150
 2586TIP3    H1 7722   0.323   1.832   1.472 -2.3587  1.1154 -0.3993
 2586TIP3    H2 7723   0.279   1.708   1.398  1.1110 -0.8508  0.6195
 2587TIP3   OH2 7724   6.558   5.252   4.048 -0.3508  0.3383  0.3105
 2587TIP3    H1 7725   6.534   5.231   4.138  1.1931  1.4428  1.0251
 2587TIP3    H2 7726   6.607   5.175   4.018 -2.4738 -0.8430 -0.2916
 2588TIP3   OH2 7727   3.647   5.766   3.988 -0.3704  0.3430 -0.0755
 2588TIP3    H1 7728   3.644   5.682   3.942 -0.9795 -0.6661  1.6789
 2588TIP3    H2 7729   3.733   5.802   3.967 -0.2665 -0.5080 -1.2059
 2589TIP3   OH2 7730   0.498   1.941   1.551  0.3723 -0.0023 -0.1114
 2589TIP3    H1 7731   0.532   1.898   1.630  0.1945  1.7674  0.9729
 2589TIP3    H2 7732   0.404   1.948   1.566 -0.0718 -1.9113 -1.6468
 2590TIP3   OH2 7733   1.454   3.978   3.107  0.5174  0.0716  0.4533
 2590TIP3    H1 7734   1.366   3.967   3.070 -0.6526 -1.6160  3.3453
 2590TIP3    H2 7735   1.506   3.909   3.066  0.6604  1.3147 -1.5581
 2591TIP3   OH2 7736   1.946   1.813   5.145  0.1076  0.3756 -0.2548
 2591TIP3    H1 7737   1.948   1.904   5.173  0.0219 -0.1408  1.5353
 2591TIP3    H2 7738   2.032   1.798   5.106  0.1503  1.1827 -0.4894
 2592TIP3   OH2 7739   0.141   5.300   1.185 -0.8512  0.9565  0.4597
 2592TIP3    H1 7740   0.097   5.368   1.133 -0.9939 -0.1658 -0.9556
 2592TIP3    H2 7741   0.231   5.300   1.152 -0.8464  0.4966  0.4622
 2593TIP3   OH2 7742   0.205   5.087   0.901 -0.3372 -0.3078 -0.0840
 2593TIP3    H1 7743   0.262   5.135   0.962  0.2015 -0.8388 -0.1700
 2593TIP3    H2 7744   0.137   5.050   0.958  0.6749 -1.5731  0.3409
 2594TIP3   OH2 7745   1.746   6.512   1.002 -0.0961  0.2804  0.1830
 2594TIP3    H1 7746   1.785   6.456   1.070 -0.7648 -1.9732 -1.2029
 2594TIP3    H2 7747   1.719   6.451   0.933 -1.3695  2.2859 -1.1814
 2595TIP3   OH2 7748   6.316   1.419   5.828  0.2043 -0.3492 -0.1209
 2595TIP3    H1 7749   6.391   1.365   5.801 -0.0282  0.3293 -2.2912
 2595TIP3    H2 7750   6.324   1.499   5.777 -0.3097  1.1108  1.9397
 2596TIP3   OH2 7751   6.887   5.866   0.603 -0.3093 -0.2531  0.2394
 2596TIP3    H1 7752   6.981   5.884   0.603 -0.3918  0.3273 -1.1967
 2596TIP3    H2 7753   6.873   5.807   0.677  1.2303 -0.6149  0.2595
 2597TIP3   OH2 7754   2.557   0.280   0.768  0.3640 -0.1184  0.4757
 2597TIP3    H1 7755   2.508   0.316   0.842  0.9294  2.3801 -0.2861
 2597TIP3    H2 7756   2.648   0.280   0.797  0.3182 -1.5478  0.6673
 2598TIP3   OH2 7757   3.085   5.083   5.242  0.3993 -0.3184 -0.4597
 2598TIP3    H1 7758   3.181   5.088   5.240  0.3707  2.4305  0.5352
 2598TIP3    H2 7759   3.060   5.137   5.317 -1.9780 -0.2569 -1.2140
 2599TIP3   OH2 7760   7.161   4.357   3.425  0.1332 -0.3542 -0.5884
 2599TIP3    H1 7761   7.193   4.433   3.377  0.0532  1.1520  1.5608
 2599TIP3    H2 7762   7.069   4.349   3.400 -0.6802  2.0953  1.1772
 2600TIP3   OH2 7763   4.835   6.180   4.492 -0.2489 -0.4587 -0.5669
 2600TIP3    H1 7764   4.798   6.249   4.437 -0.0358 -0.6985 -1.0208
 2600TIP3    H2 7765   4.797   6.195   4.578  0.6218  0.8817 -0.3869
 2601TIP3   OH2 7766   6.809   0.659   4.264 -0.2153  0.3322 -0.1299
 2601TIP3    H1 7767   6.763   0.613   4.335  0.6118 -0.0527  0.1679
 2601TIP3    H2 7768   6.874   0.596   4.234 -0.5595  0.4917 -1.2463
 2602TIP3   OH2 7769   3.746   1.035   5.539  0.2187 -0.2604  0.7012
 2602TIP3    H1 7770   3.731   1.037   5.444  1.2876 -1.0594  0.4999
 2602TIP3    H2 7771   3.662   1.006   5.575  0.1809 -1.2711 -0.1185
 2603TIP3   OH2 7772   6.489   0.104   3.162 -0.1538  0.3078 -0.0442
 2603TIP3    H1 7773   6.442   0.056   3.231  0.4326  1.0869  0.9381
 2603TIP3    H2 7774   6.421   0.138   3.105 -0.6902  0.1135  0.4747
 2604TIP3   OH2 7775   2.732   2.079   1.138  0.3469  0.3640 -0.3115
 2604TIP3    H1 7776   2.751   2.035   1.221  0.1478  1.2440  0.2100
 2604TIP3    H2 7777   2.700   2.009   1.081  2.0955 -0.5714 -0.2131
 2605TIP3   OH2 7778   4.227   3.328   0.219  0.0182 -0.1930  0.0460
 2605TIP3    H1 7779   4.181   3.249   0.190 -1.5509  0.9767 -0.8140
 2605TIP3    H2 7780   4.292   3.344   0.150  1.8236 -1.8651  1.2779
 2606TIP3   OH2 7781   5.273   5.214   0.208  0.0157  0.0937 -0.9814
 2606TIP3    H1 7782   5.240   5.268   0.136 -0.8433  0.9401  0.0103
 2606TIP3    H2 7783   5.276   5.125   0.172 -1.3598  0.3369 -1.7809
 2607TIP3   OH2 7784   1.333   1.518   5.514  0.5498  0.1350 -0.1560
 2607TIP3    H1 7785   1.326   1.587   5.580  0.6188  1.3570 -1.3904
 2607TIP3    H2 7786   1.384   1.450   5.557 -0.4021  0.3839  1.4559
 2608TIP3   OH2 7787   2.035   4.381   3.935 -0.0016  0.3285 -0.1629
 2608TIP3    H1 7788   2.099   4.372   3.865  1.0931  1.2419  0.6863
 2608TIP3    H2 7789   2.080   4.351   4.014 -1.9863 -3.0741 -0.1222
 2609TIP3   OH2 7790   6.358   4.117   4.651 -0.0746 -0.0807  0.2793
 2609TIP3    H1 7791   6.450   4.142   4.643 -0.0231 -0.1950  0.5298
 2609TIP3    H2 7792   6.321   4.180   4.712 -0.0347 -0.3775  0.6089
 2610TIP3   OH2 7793   5.258   0.199   5.588  0.3050  0.9850  0.2141
 2610TIP3    H1 7794   5.330   0.228   5.644  0.2901  2.2902 -0.4110
 2610TIP3    H2 7795   5.278   0.235   5.502 -0.4315  0.2428 -0.2853
 2611TIP3   OH2 7796   1.687   2.601   4.455 -0.1157  0.0514 -0.6938
 2611TIP3    H1 7797   1.674   2.545   4.378 -2.4158 -0.6408  0.1232
 2611TIP3    H2 7798   1.600   2.633   4.476  0.1529 -0.9746  2.4898
 2612TIP3   OH2 7799   0.670   0.827   0.301  0.2370  0.5694 -0.8043
 2612TIP3    H1 7800   0.630   0.866   0.379  0.7822 -1.0435  0.3470
 2612TIP3    H2 7801   0.763   0.845   0.310  0.1677  1.4232 -1.7337
 2613TIP3   OH2 7802   2.761   4.589   1.303 -0.3427  0.9276 -0.0606
 2613TIP3    H1 7803   2.825   4.566   1.370 -0.1601 -1.7139 -1.0562
 2613TIP3    H2 7804   2.682   4.612   1.353  0.3057  0.7775  1.0752
 2614TIP3   OH2 7805   1.089   3.848   5.455 -0.3099 -0.0592 -0.4050
 2614TIP3    H1 7806   1.042   3.765   5.444 -1.0361  0.2563  0.2252
 2614TIP3    H2 7807   1.087   3.888   5.369 -0.6722 -0.3306 -0.5280
 2615TIP3   OH2 7808   4.325   2.828   3.848  0.2447  0.4211 -0.0804
 2615TIP3    H1 7809   4.233   2.803   3.834  0.1220  0.2287  0.9592
 2615TIP3    H2 7810   4.330   2.848   3.942  0.9938  1.6199 -0.3620
 2616TIP3   OH2 7811   2.910   4.563   0.216 -0.2241  0.3992  0.3779
 2616TIP3    H1 7812   2.830   4.578   0.165  0.8315  1.2147 -1.1476
 2616TIP3    H2 7813   2.931   4.649   0.252  0.2095  0.2988  0.3688
 2617TIP3   OH2 7814   2.720   6.169   2.046 -0.2063 -0.4165 -0.4446
 2617TIP3    H1 7815   2.710   6.253   2.002 -2.4484 -0.0922  0.5139
 2617TIP3    H2 7816   2.803   6.134   2.014  0.9128  2.2434 -0.6906
 2618TIP3   OH2 7817   1.124   0.348   2.992  0.3027 -0.0444 -0.3988
 2618TIP3    H1 7818   1.156   0.429   2.951 -0.8025  0.7038  0.1684
 2618TIP3    H2 7819   1.127   0.283   2.922 -0.3980  0.9084 -1.3391
 2619TIP3   OH2 7820   7.219   1.408   3.456  0.2849 -0.7112  0.3156
 2619TIP3    H1 7821   7.141   1.459   3.480 -0.0755 -0.5897 -1.0162
 2619TIP3    H2 7822   7.219   1.334   3.516 -0.5056 -0.3709  0.7466
 2620TIP3   OH2 7823   5.802   6.048   2.082 -0.6898 -0.1674  0.3732
 2620TIP3    H1 7824   5.753   6.098   2.016 -0.2443 -0.2005  0.0100
 2620TIP3    H2 7825   5.863   5.995   2.031  0.9199  1.1261  0.8701
 2621TIP3   OH2 7826   6.601   1.636   5.814  0.1869  0.0706  0.2452
 2621TIP3    H1 7827   6.665   1.702   5.841  0.2681  0.0700  0.0569
 2621TIP3    H2 7828   6.523   1.686   5.789  0.0560  0.0616  0.6324
 2622TIP3   OH2 7829   6.248   4.602   5.431  0.3104 -0.0016 -0.2182
 2622TIP3    H1 7830   6.302   4.681   5.434 -0.5550  0.6073 -0.4035
 2622TIP3    H2 7831   6.160   4.633   5.450 -0.2722 -0.7156 -1.6205
 2623TIP3   OH2 7832   4.225   5.569   1.392 -0.0793 -0.0332  0.4924
 2623TIP3    H1 7833   4.319   5.556   1.380 -0.3949  0.5180 -4.7679
 2623TIP3    H2 7834   4.215   5.664   1.392 -0.6808 -0.0971  0.4176
 2624TIP3   OH2 7835   5.651   4.908   3.990 -0.2121 -0.3778  0.1231
 2624TIP3    H1 7836   5.567   4.918   3.945 -0.5201  2.7977  1.1847
 2624TIP3    H2 7837   5.698   4.842   3.938 -1.0831  1.9214 -4.0355
 2625TIP3   OH2 7838   1.535   2.301   1.769 -0.2303 -0.6704  0.4226
 2625TIP3    H1 7839   1.621   2.261   1.780  1.4340  2.3531 -0.4837
 2625TIP3    H2 7840   1.498   2.301   1.858  1.1018 -1.2345  1.0135
 2626TIP3   OH2 7841   0.051   2.366   3.367  0.6752 -0.0443 -0.1602
 2626TIP3    H1 7842  -0.004   2.308   3.420 -0.1639  1.0608  0.2361
 2626TIP3    H2 7843   0.115   2.401   3.429 -0.3625  1.3183  0.2083
 2627TIP3   OH2 7844   5.617   3.512   4.333 -0.4192  0.8537 -0.0174
 2627TIP3    H1 7845   5.612   3.585   4.395  0.0687  0.2238  0.7913
 2627TIP3    H2 7846   5.666   3.548   4.259  1.2207  0.9272  1.0427
 2628TIP3   OH2 7847   1.377   4.220   3.208  0.3631  0.3117  0.3824
 2628TIP3    H1 7848   1.353   4.139   3.162  0.2819  1.0081 -0.8335
 2628TIP3    H2 7849   1.347   4.206   3.298 -0.0959 -0.8136  0.0720
 2629TIP3   OH2 7850   2.146   1.564   2.018 -0.0731  0.0609  0.1415
 2629TIP3    H1 7851   2.227   1.614   2.031 -0.9043  1.7692 -0.8764
 2629TIP3    H2 7852   2.140   1.508   2.096  0.7245  1.8288  1.5600
 2630TIP3   OH2 7853   3.005   4.373   1.106 -0.5517  0.1630  0.5999
 2630TIP3    H1 7854   3.069   4.310   1.074 -1.7844 -1.4333  1.1203
 2630TIP3    H2 7855   2.941   4.380   1.035 -1.2709 -0.4423  1.1693
 2631TIP3   OH2 7856   5.072   2.487   4.118 -0.1710  0.2191 -0.4046
 2631TIP3    H1 7857   5.059   2.449   4.031 -1.3977 -0.4081  0.0295
 2631TIP3    H2 7858   5.155   2.534   4.112  0.1449 -0.4765 -1.6785
 2632TIP3   OH2 7859   5.835   3.289   2.096 -0.3333  0.0857  0.3938
 2632TIP3    H1 7860   5.810   3.299   2.188 -2.5383  0.8323 -0.2188
 2632TIP3    H2 7861   5.804   3.202   2.072  0.6052 -0.2709  0.4443
 2633TIP3   OH2 7862   4.914   6.686   4.722  0.5338 -0.5509 -0.3961
 2633TIP3    H1 7863   4.841   6.731   4.764  1.4921  2.0286 -1.3146
 2633TIP3    H2 7864   4.889   6.679   4.630  0.9033 -0.8550 -0.4748
 2634TIP3   OH2 7865   6.704   2.138   3.962 -0.7684 -0.4366 -0.8163
 2634TIP3    H1 7866   6.773   2.096   3.910  0.2450 -3.2452  2.4326
 2634TIP3    H2 7867   6.637   2.072   3.971 -0.1671 -0.7292  2.6176
 2635TIP3   OH2 7868   5.369   5.555   5.322  0.3014  0.0977  0.1061
 2635TIP3    H1 7869   5.349   5.584   5.411 -1.4576  1.8073 -0.7705
 2635TIP3    H2 7870   5.307   5.483   5.307  1.2680 -0.8667  0.5460
 2636TIP3   OH2 7871   7.079   3.011   0.016  0.0395  0.7210  0.7299
 2636TIP3    H1 7872   7.037   2.993   0.100 -1.5241 -0.5915 -0.2757
 2636TIP3    H2 7873   7.128   2.931  -0.005 -1.0119  0.3434 -0.3935
 2637TIP3   OH2 7874   2.818   3.536   2.861 -0.7485  0.5967  0.6822
 2637TIP3    H1 7875   2.854   3.570   2.779 -0.3183 -0.5995  0.3461
 2637TIP3    H2 7876   2.736   3.584   2.874  0.2350  2.3295  0.6964
 2638TIP3   OH2 7877   3.214   2.581   4.300  0.3231  0.1480  0.0806
 2638TIP3    H1 7878   3.306   2.556   4.296  0.1440 -0.5125  0.0203
 2638TIP3    H2 7879   3.166   2.499   4.292 -0.3391  0.6764 -2.4355
 2639TIP3   OH2 7880   4.106   4.337   0.794 -0.1167  0.4788 -0.1021
 2639TIP3    H1 7881   4.087   4.399   0.865 -0.1333 -0.2690  0.5646
 2639TIP3    H2 7882   4.059   4.257   0.819 -0.2789  0.2673 -1.0621
 2640TIP3   OH2 7883   5.502   2.754   4.776  0.3873  0.1881  0.5728
 2640TIP3    H1 7884   5.426   2.696   4.772  1.1176 -0.8175  0.7355
 2640TIP3    H2 7885   5.576   2.695   4.790  1.4862  0.9167 -1.6886
 2641TIP3   OH2 7886   2.906   4.552   3.079 -0.3060 -0.6945 -0.6138
 2641TIP3    H1 7887   2.989   4.519   3.046  0.1343  0.3943 -0.6228
 2641TIP3    H2 7888   2.866   4.477   3.122  0.7237 -1.2008 -0.5156
 2642TIP3   OH2 7889   1.569   5.856   3.320  0.4756 -0.3264 -0.1946
 2642TIP3    H1 7890   1.653   5.854   3.274  1.0193  0.7116  0.7017
 2642TIP3    H2 7891   1.591   5.835   3.411 -0.4592 -1.5037 -0.2169
 2643TIP3   OH2 7892   5.305   6.226   4.912  0.0983 -0.0567 -0.2335
 2643TIP3    H1 7893   5.322   6.317   4.887  0.0798 -0.3532 -1.4056
 2643TIP3    H2 7894   5.210   6.215   4.901  0.2768 -0.5846 -1.5075
 2644TIP3   OH2 7895   2.063   1.792   3.083 -0.1183  0.2696  0.4407
 2644TIP3    H1 7896   2.114   1.814   3.005  1.7235  0.0410  1.5391
 2644TIP3    H2 7897   1.972   1.812   3.058  0.6195  1.9212 -1.1426
 2645TIP3   OH2 7898   2.750   1.545   1.575  0.8841  0.2920 -0.2251
 2645TIP3    H1 7899   2.670   1.588   1.545  0.8834 -0.2454 -1.0191
 2645TIP3    H2 7900   2.816   1.569   1.510  1.1435 -0.0288 -0.0826
 2646TIP3   OH2 7901   3.003   0.877   2.574  0.0173 -0.5910  0.3025
 2646TIP3    H1 7902   2.911   0.861   2.593 -0.7788  1.1553 -1.7560
 2646TIP3    H2 7903   3.015   0.845   2.485  1.5632 -1.2130  0.6937
 2647TIP3   OH2 7904   2.661   5.496   5.564 -0.3116  0.0682 -0.2726
 2647TIP3    H1 7905   2.566   5.489   5.575 -0.4060  2.8562  1.8059
 2647TIP3    H2 7906   2.698   5.454   5.641  0.2074 -1.2012 -1.1832
 2648TIP3   OH2 7907   1.230   4.881   4.111 -0.0636 -0.4672 -0.8856
 2648TIP3    H1 7908   1.187   4.953   4.063 -1.3712 -0.7320 -0.1642
 2648TIP3    H2 7909   1.321   4.909   4.119  0.0271 -0.0551 -2.8195
 2649TIP3   OH2 7910   7.089   3.749   3.225 -0.1137 -0.2191  0.1959
 2649TIP3    H1 7911   7.060   3.736   3.315 -1.6028 -2.8681 -0.5617
 2649TIP3    H2 7912   7.008   3.750   3.174  0.8168 -1.3436 -1.3689
 2650TIP3   OH2 7913   4.391   3.665   1.692 -0.1131  0.4142  0.0757
 2650TIP3    H1 7914   4.456   3.607   1.653 -0.4415  0.0667  0.0362
 2650TIP3    H2 7915   4.425   3.753   1.676 -0.3706  0.2928 -1.2501
 2651TIP3   OH2 7916   3.156   4.448   4.772  0.0705  0.0854  0.3639
 2651TIP3    H1 7917   3.074   4.458   4.723  0.2653  2.8043  0.4390
 2651TIP3    H2 7918   3.222   4.433   4.705 -0.0781  0.9742  0.0001
 2652TIP3   OH2 7919   5.762   2.566   1.674 -0.4009 -0.1994  0.1539
 2652TIP3    H1 7920   5.791   2.563   1.583 -1.5021  1.5138 -0.3145
 2652TIP3    H2 7921   5.763   2.475   1.704  1.4906 -0.6176 -1.0548
 2653TIP3   OH2 7922   0.567   5.902   1.260  0.3354  0.0495  0.0388
 2653TIP3    H1 7923   0.590   5.859   1.178  0.8868 -1.6257  1.0116
 2653TIP3    H2 7924   0.594   5.993   1.249  2.9043 -0.7186 -0.6762
 2654TIP3   OH2 7925   5.935   2.711   0.064  0.6035  0.0822 -0.4985
 2654TIP3    H1 7926   5.895   2.797   0.049 -2.5975 -0.9634  1.1270
 2654TIP3    H2 7927   5.900   2.657  -0.007 -0.2361 -0.6448  0.4467
 2655TIP3   OH2 7928   1.000   6.025   5.699 -0.0849 -0.0887  0.0181
 2655TIP3    H1 7929   1.011   5.991   5.610  1.1816 -0.0471  0.1416
 2655TIP3    H2 7930   0.918   6.076   5.695 -0.8184 -1.2730 -0.7350
 2656TIP3   OH2 7931   4.763   2.467   0.239 -0.1786  0.1473  0.1582
 2656TIP3    H1 7932   4.858   2.457   0.231  0.0961  0.7367  2.2994
 2656TIP3    H2 7933   4.738   2.408   0.309 -0.7160  2.9853  2.5473
 2657TIP3   OH2 7934   6.618   0.557   0.969 -0.0036 -0.2785  0.7120
 2657TIP3    H1 7935   6.637   0.634   0.917 -2.1113  0.5948  1.1387
 2657TIP3    H2 7936   6.701   0.535   1.011  0.7976  1.3426  0.0535
 2658TIP3   OH2 7937   0.326   2.298   0.185 -0.0795  0.0816  0.0518
 2658TIP3    H1 7938   0.331   2.374   0.242 -0.7069  0.0977  0.0882
 2658TIP3    H2 7939   0.363   2.327   0.102 -1.4489  0.8054 -0.3307
 2659TIP3   OH2 7940   4.037   6.658   2.811 -0.4228 -0.7589  0.3948
 2659TIP3    H1 7941   4.049   6.737   2.758 -0.4656 -1.8117 -1.2569
 2659TIP3    H2 7942   3.956   6.674   2.860 -0.1347  0.4297  0.5166
 2660TIP3   OH2 7943   5.179   5.399   5.606  0.1255  0.5136 -0.0367
 2660TIP3    H1 7944   5.206   5.337   5.539  0.9866  1.4039 -0.5372
 2660TIP3    H2 7945   5.181   5.349   5.688  0.4681 -0.1976 -0.4715
 2661TIP3   OH2 7946   1.301   4.857   0.731  0.3629 -0.0046 -0.6457
 2661TIP3    H1 7947   1.273   4.892   0.816  0.3806  0.2769 -0.7552
 2661TIP3    H2 7948   1.346   4.775   0.753  1.9207  0.9174 -0.2050
 2662TIP3   OH2 7949   3.803   1.357   0.713 -0.6795  0.4979  0.3115
 2662TIP3    H1 7950   3.863   1.423   0.678 -0.7035  0.5117  0.2970
 2662TIP3    H2 7951   3.732   1.353   0.650 -0.0313 -0.4931 -0.3900
 2663TIP3   OH2 7952   2.473   4.505   5.506  0.1913 -0.3257 -0.5307
 2663TIP3    H1 7953   2.443   4.466   5.588  1.5099 -0.9308 -0.3103
 2663TIP3    H2 7954   2.558   4.463   5.489  1.3560  1.9386 -0.6361
 2664TIP3   OH2 7955   4.005   3.910   2.607 -0.8392  0.3278  0.1704
 2664TIP3    H1 7956   4.075   3.918   2.672 -0.6726  1.8117 -0.1494
 2664TIP3    H2 7957   3.960   3.829   2.630 -0.2421  0.3711  1.5943
 2665TIP3   OH2 7958   0.631   0.930   4.428 -0.3386  0.5751 -0.3549
 2665TIP3    H1 7959   0.640   0.983   4.349 -0.5594  1.2063  0.0331
 2665TIP3    H2 7960   0.576   0.982   4.486 -1.0161 -0.3323 -0.1680
 2666TIP3   OH2 7961   4.331   6.483   3.159  0.1239  0.1589 -0.1513
 2666TIP3    H1 7962   4.423   6.490   3.183  0.0926 -0.4807  0.1798
 2666TIP3    H2 7963   4.311   6.566   3.117  0.9887  0.1010 -0.7078
 2667TIP3   OH2 7964   7.109   2.218   3.539  0.3111  0.4316  0.1134
 2667TIP3    H1 7965   7.049   2.293   3.547 -1.0553 -0.6332  0.2114
 2667TIP3    H2 7966   7.125   2.191   3.629 -2.3498 -1.7450  0.0647
 2668TIP3   OH2 7967   4.744   3.754   2.571 -0.4409 -0.4282 -0.4025
 2668TIP3    H1 7968   4.724   3.836   2.617  0.7477  0.1024 -0.8005
 2668TIP3    H2 7969   4.728   3.773   2.479  0.6403 -0.3841 -0.5867
 2669TIP3   OH2 7970   3.636   0.064   0.037  0.1645  0.2214 -0.7450
 2669TIP3    H1 7971   3.638   0.072   0.132 -0.1556 -0.2795 -0.6895
 2669TIP3    H2 7972   3.726   0.041   0.012  0.3824  0.9261 -0.6245
 2670TIP3   OH2 7973   6.214   6.329   4.785  0.8836 -0.0569  0.3283
 2670TIP3    H1 7974   6.179   6.240   4.782 -0.1374  0.3645 -0.4904
 2670TIP3    H2 7975   6.142   6.382   4.819  0.4794  0.9025 -1.8717
 2671TIP3   OH2 7976   1.834   5.818   4.306  0.4288  0.3327  0.1910
 2671TIP3    H1 7977   1.841   5.722   4.302 -2.3113  0.0736 -0.9869
 2671TIP3    H2 7978   1.897   5.850   4.242  0.9282 -0.7338  0.1318
 2672TIP3   OH2 7979   5.877   5.351   3.124  0.6045 -0.8177 -0.4808
 2672TIP3    H1 7980   5.892   5.258   3.107  1.6185 -0.4082 -1.9748
 2672TIP3    H2 7981   5.916   5.367   3.210  0.0349 -1.8405 -0.0088
 2673TIP3   OH2 7982   3.374   3.815   3.288 -0.1898  0.3611  0.0788
 2673TIP3    H1 7983   3.371   3.813   3.193 -0.1268  0.7378  0.0692
 2673TIP3    H2 7984   3.467   3.819   3.310 -0.2126  0.5042  0.1513
 2674TIP3   OH2 7985   0.306   1.540   1.264 -0.2746 -0.1886 -0.5215
 2674TIP3    H1 7986   0.347   1.454   1.274 -0.5320 -0.1740  0.8156
 2674TIP3    H2 7987   0.227   1.523   1.213 -0.8125 -0.9118  0.5254
 2675TIP3   OH2 7988   2.152   1.185   3.713 -0.1701  0.1683 -0.1114
 2675TIP3    H1 7989   2.103   1.121   3.766  0.4893  0.5646  1.0002
 2675TIP3    H2 7990   2.228   1.136   3.682  0.1441  0.3058  0.4345
 2676TIP3   OH2 7991   5.098   3.255   2.202 -0.5689 -0.2169 -0.4433
 2676TIP3    H1 7992   5.123   3.187   2.140  1.7011  1.2707 -1.3178
 2676TIP3    H2 7993   5.111   3.337   2.153  0.2965  0.9717  1.6665
 2677TIP3   OH2 7994   2.293   6.091   5.904  0.2821  0.6921  0.0013
 2677TIP3    H1 7995   2.209   6.047   5.902 -1.6724  4.0600 -2.2640
 2677TIP3    H2 7996   2.344   6.050   5.834 -0.2164 -0.0544  0.0696
 2678TIP3   OH2 7997   6.855   1.169   5.791  0.0274  0.0875  0.3206
 2678TIP3    H1 7998   6.820   1.247   5.833 -0.4341  0.1577 -0.1830
 2678TIP3    H2 7999   6.841   1.099   5.855 -0.9128  0.1406  0.1784
 2679TIP3   OH2 8000   1.810   0.842   4.265  0.0440 -0.2398 -0.0002
 2679TIP3    H1 8001   1.783   0.885   4.184 -0.7311  0.6057  0.6889
 2679TIP3    H2 8002   1.733   0.792   4.293 -0.0909  0.4066  0.8139
 2680TIP3   OH2 8003   5.932   5.203   4.065  0.7558  0.0864 -0.5285
 2680TIP3    H1 8004   5.983   5.280   4.089 -0.8021  0.7538  0.8473
 2680TIP3    H2 8005   5.877   5.233   3.992  0.6646  0.0484 -0.4750
 2681TIP3   OH2 8006   6.841   5.874   3.587 -0.0145 -0.3018  0.4597
 2681TIP3    H1 8007   6.864   5.918   3.505  0.2315 -2.0467 -0.4526
 2681TIP3    H2 8008   6.925   5.856   3.628 -0.1602  1.2131  1.4900
 2682TIP3   OH2 8009   4.600   2.517   0.977  0.2942  0.0969 -0.0378
 2682TIP3    H1 8010   4.687   2.555   0.994  0.8883 -1.3018  0.1745
 2682TIP3    H2 8011   4.573   2.482   1.062 -0.0288 -0.3888 -0.3403
 2683TIP3   OH2 8012   2.404   2.360   5.605  0.0657 -0.2401  0.4600
 2683TIP3    H1 8013   2.386   2.292   5.670  1.0214 -0.2744  0.6967
 2683TIP3    H2 8014   2.436   2.435   5.655  1.4927 -0.5096 -0.0174
 2684TIP3   OH2 8015   2.319   6.248   4.438 -0.1467  0.4703  0.1760
 2684TIP3    H1 8016   2.366   6.317   4.391  0.2820 -0.3414 -0.6196
 2684TIP3    H2 8017   2.384   6.179   4.451 -1.0241 -0.5656 -0.7012
 2685TIP3   OH2 8018   2.281   3.374   2.200  0.2040 -0.2875 -0.8828
 2685TIP3    H1 8019   2.244   3.353   2.285  0.9858  0.0281 -0.4554
 2685TIP3    H2 8020   2.219   3.435   2.160  0.0391 -0.1199 -0.3698
 2686TIP3   OH2 8021   0.699   2.217   1.176 -0.0065 -0.0112 -0.0332
 2686TIP3    H1 8022   0.651   2.213   1.258 -2.3817  3.5487 -1.0252
 2686TIP3    H2 8023   0.664   2.145   1.124 -2.5221  0.9224  0.2347
 2687TIP3   OH2 8024   6.808   2.934   4.777  0.0049 -0.0247 -0.0480
 2687TIP3    H1 8025   6.814   2.964   4.687 -1.4579 -3.1641 -1.3175
 2687TIP3    H2 8026   6.898   2.931   4.808  1.0593 -2.7865 -2.9055
 2688TIP3   OH2 8027   6.967   3.328   4.837 -0.0407  0.2029 -0.3952
 2688TIP3    H1 8028   6.952   3.421   4.819  0.7244  0.4831  0.3581
 2688TIP3    H2 8029   6.879   3.292   4.847 -0.3894  1.6405  3.1156
 2689TIP3   OH2 8030   1.705   0.192   2.743 -0.1908  0.2799  0.8114
 2689TIP3    H1 8031   1.733   0.128   2.677 -1.0434 -0.0019  0.7056
 2689TIP3    H2 8032   1.649   0.253   2.694 -0.8020  0.0850  1.2605
 2690TIP3   OH2 8033   5.838   4.743   0.332 -0.2452 -0.3253 -0.3169
 2690TIP3    H1 8034   5.929   4.768   0.318 -0.1575 -0.1436  0.5042
 2690TIP3    H2 8035   5.838   4.647   0.328  0.6491 -0.5948  3.0551
 2691TIP3   OH2 8036   2.291   1.542   1.166  0.0521  1.1404 -0.4374
 2691TIP3    H1 8037   2.225   1.524   1.233 -0.3218  1.2483 -0.7741
 2691TIP3    H2 8038   2.322   1.631   1.186 -1.2100  1.8258 -1.3400
 2692TIP3   OH2 8039   5.284   3.217   5.178  0.2579  0.3962  0.0029
 2692TIP3    H1 8040   5.321   3.128   5.178 -1.7964 -0.6005 -3.0220
 2692TIP3    H2 8041   5.229   3.220   5.256 -2.8192 -2.6141 -1.7967
 2693TIP3   OH2 8042   4.460   1.525   1.123 -0.8150  0.6641 -0.2292
 2693TIP3    H1 8043   4.409   1.532   1.204 -0.8560 -0.4507 -0.1452
 2693TIP3    H2 8044   4.534   1.583   1.137  1.3065 -2.2796  2.2750
 2694TIP3   OH2 8045   6.089   3.773   4.284 -0.1744  0.2884  0.5646
 2694TIP3    H1 8046   6.156   3.837   4.261  0.0709  0.7328  2.3257
 2694TIP3    H2 8047   6.009   3.804   4.241  0.6433 -0.0972 -1.3365
 2695TIP3   OH2 8048   1.533   1.874   0.952 -0.2184 -0.1603 -0.2076
 2695TIP3    H1 8049   1.440   1.883   0.970  0.4483 -0.2413  4.5548
 2695TIP3    H2 8050   1.548   1.780   0.947 -0.2296 -0.1745  0.0529
 2696TIP3   OH2 8051   2.009   1.275   0.051 -0.3753  0.2308 -0.2537
 2696TIP3    H1 8052   1.988   1.339   0.119  2.5405  0.8882  0.1601
 2696TIP3    H2 8053   2.099   1.248   0.070  0.5308  0.3306 -3.7538
 2697TIP3   OH2 8054   0.468   2.431   3.988  0.5487  0.1265  0.0217
 2697TIP3    H1 8055   0.478   2.526   3.985 -0.9125  0.3002  0.0604
 2697TIP3    H2 8056   0.434   2.412   4.075  0.6747 -0.4212 -0.0401
 2698TIP3   OH2 8057   5.888   0.548   1.061  0.4961  0.0950  0.8162
 2698TIP3    H1 8058   5.837   0.583   1.134 -1.8235  0.5274 -0.8886
 2698TIP3    H2 8059   5.864   0.603   0.986  2.2743 -0.7291 -0.4344
 2699TIP3   OH2 8060   2.716   2.436   2.559  0.0790 -0.4219 -0.2596
 2699TIP3    H1 8061   2.775   2.468   2.490  0.3201 -2.3535 -1.0334
 2699TIP3    H2 8062   2.629   2.461   2.529  0.3474  0.9056 -0.0008
 2700TIP3   OH2 8063   5.283   4.900   5.894  0.0518 -0.6331 -0.1798
 2700TIP3    H1 8064   5.195   4.917   5.860  0.2832  0.4324 -0.2737
 2700TIP3    H2 8065   5.338   4.891   5.816  0.0912 -0.9675 -0.1156
 2701TIP3   OH2 8066   2.535   3.679   0.916  0.1636  0.1123 -0.0377
 2701TIP3    H1 8067   2.533   3.604   0.975  0.0454  0.6671  0.6820
 2701TIP3    H2 8068   2.568   3.751   0.969 -0.0438  0.6516 -0.6197
 2702TIP3   OH2 8069   6.416   5.417   3.468  0.3179 -0.4360 -0.1526
 2702TIP3    H1 8070   6.414   5.398   3.374  1.8827 -0.5532 -0.1935
 2702TIP3    H2 8071   6.505   5.395   3.495  0.0328  0.0381  1.2713
 2703TIP3   OH2 8072   2.752   5.867   1.873 -0.0865  0.0371  0.1873
 2703TIP3    H1 8073   2.760   5.862   1.778 -1.2011  0.2841  0.0636
 2703TIP3    H2 8074   2.825   5.923   1.900  0.0943  0.1694 -0.5494
 2704TIP3   OH2 8075   5.936   0.260   2.932 -0.2972 -0.4752  0.6492
 2704TIP3    H1 8076   5.875   0.241   3.004 -1.2781 -0.1889 -0.0890
 2704TIP3    H2 8077   5.883   0.250   2.853  0.4679  0.3395  0.0251
 2705TIP3   OH2 8078   1.147   2.150   1.273  0.9543 -0.0694 -0.6305
 2705TIP3    H1 8079   1.073   2.092   1.291  1.1046 -0.3841 -1.0155
 2705TIP3    H2 8080   1.222   2.108   1.315  1.0214 -0.0433 -0.7226
 2706TIP3   OH2 8081   5.819   1.706   4.656 -0.3516 -0.1895 -0.0262
 2706TIP3    H1 8082   5.838   1.616   4.629  1.3633 -1.0745  3.5592
 2706TIP3    H2 8083   5.724   1.708   4.665 -0.3338 -2.1531  1.2532
 2707TIP3   OH2 8084   6.274   2.590   5.403 -0.1098 -0.1787 -0.0116
 2707TIP3    H1 8085   6.223   2.513   5.427  0.6169 -0.8080 -0.4611
 2707TIP3    H2 8086   6.260   2.652   5.476 -1.6576 -0.2479 -0.2139
 2708TIP3   OH2 8087   3.408   3.473   2.288  0.4746 -0.5989  0.3746
 2708TIP3    H1 8088   3.483   3.417   2.274  1.7747  0.6917  1.8690
 2708TIP3    H2 8089   3.444   3.555   2.321 -1.5339  0.2907  0.5478
 2709TIP3   OH2 8090   3.208   2.902   0.206 -0.3325  0.3972 -0.1805
 2709TIP3    H1 8091   3.227   2.980   0.259 -1.0349  0.4993 -0.0654
 2709TIP3    H2 8092   3.144   2.853   0.258  1.4358 -1.2235  0.6327
 2710TIP3   OH2 8093   6.799   5.460   0.267  0.1440  0.3523 -0.0694
 2710TIP3    H1 8094   6.779   5.371   0.236 -1.3329  1.0400 -1.2481
 2710TIP3    H2 8095   6.869   5.448   0.330  0.7943 -1.5407 -1.0568
 2711TIP3   OH2 8096   3.539   3.725   4.066 -0.1364  0.2518  0.4223
 2711TIP3    H1 8097   3.548   3.632   4.087 -0.0598  0.3203  0.6921
 2711TIP3    H2 8098   3.576   3.770   4.141  1.8794  0.5017 -0.6762
 2712TIP3   OH2 8099   1.332   2.857   5.163  0.2429 -0.4689 -0.2542
 2712TIP3    H1 8100   1.421   2.849   5.128  0.4806 -0.7983  0.4151
 2712TIP3    H2 8101   1.277   2.812   5.098  0.7477 -1.5545  0.0417
 2713TIP3   OH2 8102   1.573   5.119   4.517  0.8745  0.2553 -0.0674
 2713TIP3    H1 8103   1.664   5.136   4.541  0.7969 -1.4175  1.5472
 2713TIP3    H2 8104   1.559   5.027   4.537 -0.8377  0.1411 -1.5026
 2714TIP3   OH2 8105   3.410   3.352   3.965  0.2483  0.4437  0.1889
 2714TIP3    H1 8106   3.374   3.413   3.901  0.9215  0.0942 -0.5379
 2714TIP3    H2 8107   3.463   3.291   3.914  0.1152 -0.3603  0.9831
 2715TIP3   OH2 8108   1.736   6.505   1.935 -0.2446 -0.2099  0.5721
 2715TIP3    H1 8109   1.667   6.571   1.936  0.8067  0.9543  0.0910
 2715TIP3    H2 8110   1.808   6.544   1.986 -0.2046 -1.7263  1.7667
 2716TIP3   OH2 8111   2.306   3.358   4.863 -0.3208  0.2015 -0.4462
 2716TIP3    H1 8112   2.324   3.265   4.857 -1.0392  0.1234 -1.5624
 2716TIP3    H2 8113   2.307   3.376   4.957  0.9063 -0.6943 -0.2614
 2717TIP3   OH2 8114   1.238   0.711   0.379  0.7543 -0.2572  0.2072
 2717TIP3    H1 8115   1.313   0.672   0.334  1.4914  0.9077  0.3967
 2717TIP3    H2 8116   1.162   0.685   0.326  1.2597 -1.5406  0.0756
 2718TIP3   OH2 8117   4.299   2.248   5.597  0.0491 -0.4703 -0.3561
 2718TIP3    H1 8118   4.241   2.217   5.667  0.9976 -0.8665  0.2756
 2718TIP3    H2 8119   4.249   2.317   5.554 -1.4469 -1.7396 -0.7376
 2719TIP3   OH2 8120   1.793   5.498   4.692  0.2130  0.1401 -0.2199
 2719TIP3    H1 8121   1.727   5.567   4.685  0.7872  0.8322  0.8218
 2719TIP3    H2 8122   1.871   5.536   4.651  0.1196 -0.4707 -0.9756
 2720TIP3   OH2 8123   6.657   2.924   1.474  0.0644  0.3844 -0.4881
 2720TIP3    H1 8124   6.630   2.940   1.565 -0.7168  0.1529 -0.6719
 2720TIP3    H2 8125   6.640   2.831   1.461 -1.4740  0.7423 -1.3908
 2721TIP3   OH2 8126   5.670   3.363   3.215 -0.3149 -0.2516  0.0722
 2721TIP3    H1 8127   5.737   3.411   3.262  0.8195 -0.8984 -0.8399
 2721TIP3    H2 8128   5.589   3.381   3.264  0.4830  0.6123  1.1285
 2722TIP3   OH2 8129   1.664   2.612   0.188  0.1372  0.2383  0.1109
 2722TIP3    H1 8130   1.684   2.705   0.176  0.8435  0.0062 -0.5527
 2722TIP3    H2 8131   1.740   2.577   0.234  0.0793 -0.1117 -0.0611
 2723TIP3   OH2 8132   6.017   0.992   2.140  0.0586  0.6661  0.1853
 2723TIP3    H1 8133   5.935   0.984   2.092  1.0076 -0.8377 -1.2784
 2723TIP3    H2 8134   6.057   1.072   2.106 -0.3655  0.9039  0.2394
 2724TIP3   OH2 8135   6.114   6.066   1.788 -0.7684 -0.0160  0.1281
 2724TIP3    H1 8136   6.209   6.072   1.773 -0.7924 -1.0668 -0.5589
 2724TIP3    H2 8137   6.081   6.154   1.770 -0.0500  0.1068 -0.6668
 2725TIP3   OH2 8138   6.285   6.569   5.665 -0.3362  0.2596  0.2818
 2725TIP3    H1 8139   6.261   6.489   5.619 -3.9165  0.4752  1.4923
 2725TIP3    H2 8140   6.262   6.640   5.605 -0.3323  0.4509  0.5031
 2726TIP3   OH2 8141   0.995   6.805   1.337  0.2534  0.0703  0.0334
 2726TIP3    H1 8142   1.048   6.776   1.411 -0.3779 -1.0067  0.0811
 2726TIP3    H2 8143   1.048   6.784   1.260  0.7559  0.8689  0.1419
 2727TIP3   OH2 8144   5.277   6.555   3.825 -0.2192  0.2740  0.0304
 2727TIP3    H1 8145   5.318   6.642   3.828 -0.7277  0.5002  1.0057
 2727TIP3    H2 8146   5.338   6.501   3.775 -0.1059  1.3007 -0.9671
 2728TIP3   OH2 8147   2.925   3.566   1.392  0.2295  0.0629  0.2798
 2728TIP3    H1 8148   3.002   3.509   1.388 -1.5539 -2.4838 -0.3872
 2728TIP3    H2 8149   2.890   3.565   1.302 -0.9352  0.5832  0.7035
 2729TIP3   OH2 8150   3.665   5.830   3.575  0.0018  0.4592  0.0658
 2729TIP3    H1 8151   3.624   5.909   3.609 -2.2836 -1.2292  1.5141
 2729TIP3    H2 8152   3.611   5.804   3.501 -0.0517 -0.4122  0.3962
 2730TIP3   OH2 8153   4.767   2.910   0.103 -0.0454  0.7443  0.2339
 2730TIP3    H1 8154   4.770   2.965   0.181  1.0103 -0.6564  1.2396
 2730TIP3    H2 8155   4.841   2.939   0.050  0.6323  0.1794  0.8559
 2731TIP3   OH2 8156   2.397   4.096   4.212  0.5305 -0.4307  0.2433
 2731TIP3    H1 8157   2.316   4.097   4.263 -0.5351  0.1680 -1.3468
 2731TIP3    H2 8158   2.423   4.188   4.205  0.6025 -0.4902 -0.3461
 2732TIP3   OH2 8159   0.260   5.513   3.053 -0.0932 -0.2632  0.0260
 2732TIP3    H1 8160   0.167   5.497   3.035  0.1824 -1.0470 -0.7243
 2732TIP3    H2 8161   0.288   5.571   2.983  0.4570 -1.6240 -0.9240
 2733TIP3   OH2 8162   4.443   3.013   0.960  0.0216 -0.0816  0.7591
 2733TIP3    H1 8163   4.530   3.020   0.999  1.2889  0.7893 -2.0477
 2733TIP3    H2 8164   4.415   2.924   0.981  3.0925 -1.6330 -1.0718
 2734TIP3   OH2 8165   4.557   1.588   3.836 -0.1789 -0.1152 -0.3136
 2734TIP3    H1 8166   4.609   1.636   3.773 -2.3690  1.8566 -0.7875
 2734TIP3    H2 8167   4.468   1.623   3.825 -1.1750 -1.6812  1.9374
 2735TIP3   OH2 8168   3.698   5.007   3.479 -0.0320 -0.2133 -0.7829
 2735TIP3    H1 8169   3.755   5.081   3.456  0.8479 -0.2156  1.1711
 2735TIP3    H2 8170   3.610   5.036   3.455  0.2219  1.6924  0.3374
 2736TIP3   OH2 8171   5.334   0.292   5.349 -0.2965  0.0555  0.3186
 2736TIP3    H1 8172   5.273   0.247   5.291  0.5393  1.5774 -1.8528
 2736TIP3    H2 8173   5.420   0.280   5.308  0.0390  3.0335 -0.0823
 2737TIP3   OH2 8174   6.002   4.504   1.980  0.0186 -0.0953 -0.1772
 2737TIP3    H1 8175   5.926   4.499   1.921 -0.4671 -0.0698  0.4375
 2737TIP3    H2 8176   5.964   4.499   2.068  0.7023  0.3186  0.1444
 2738TIP3   OH2 8177   3.293   5.992   1.505  0.1298  0.1443 -0.0039
 2738TIP3    H1 8178   3.239   6.057   1.550 -1.1511 -0.2344 -0.9355
 2738TIP3    H2 8179   3.236   5.916   1.493  0.2334  0.3554 -2.5843
 2739TIP3   OH2 8180   4.872   0.417   2.877 -0.1105  0.9038  0.5094
 2739TIP3    H1 8181   4.861   0.489   2.815 -1.1897  1.4185  1.2637
 2739TIP3    H2 8182   4.937   0.360   2.836  0.8444  2.3369 -0.0630
 2740TIP3   OH2 8183   6.721   4.834   1.923  0.3375  0.3525 -0.0971
 2740TIP3    H1 8184   6.721   4.778   1.846  0.0142  1.0334 -0.6047
 2740TIP3    H2 8185   6.628   4.839   1.949  0.6500 -1.7303  1.7423
 2741TIP3   OH2 8186   2.515   4.185   0.246 -0.9647 -0.8629  0.1013
 2741TIP3    H1 8187   2.559   4.197   0.330  1.4834  3.0983 -1.4530
 2741TIP3    H2 8188   2.580   4.140   0.191 -2.2918 -2.8246  0.0496
 2742TIP3   OH2 8189   3.452   3.012   2.345 -0.0183 -0.7141  0.2202
 2742TIP3    H1 8190   3.415   2.982   2.263 -0.1268  1.5662 -0.6467
 2742TIP3    H2 8191   3.405   3.093   2.365  1.9519  0.3133  0.9985
 2743TIP3   OH2 8192   3.329   5.162   1.677 -0.2570 -0.8069 -0.0715
 2743TIP3    H1 8193   3.340   5.199   1.590  0.1014 -0.3936  0.1453
 2743TIP3    H2 8194   3.413   5.122   1.698 -0.1000 -0.2690  0.3721
 2744TIP3   OH2 8195   0.207   2.201   2.287 -0.0264 -0.1242 -0.4024
 2744TIP3    H1 8196   0.174   2.112   2.277  0.1529 -0.2060 -0.2606
 2744TIP3    H2 8197   0.277   2.208   2.222 -1.8538  0.8087 -2.4062
 2745TIP3   OH2 8198   4.487   3.405   2.392  0.0646  0.5290  0.1958
 2745TIP3    H1 8199   4.538   3.325   2.379  1.1563  0.8521  2.1799
 2745TIP3    H2 8200   4.400   3.384   2.359  0.2771 -1.5562  0.8668
 2746TIP3   OH2 8201   4.731   1.063   5.104  0.4404  0.5947 -0.3079
 2746TIP3    H1 8202   4.766   1.016   5.028 -0.0126  0.2755 -0.3214
 2746TIP3    H2 8203   4.803   1.119   5.132  1.1918 -0.4920  0.0364
 2747TIP3   OH2 8204   2.542   6.659   4.143 -0.1765 -0.2378 -0.5409
 2747TIP3    H1 8205   2.527   6.604   4.220 -0.4393 -1.2079 -1.2793
 2747TIP3    H2 8206   2.466   6.717   4.141 -1.5816 -2.0437 -1.6109
 2748TIP3   OH2 8207   0.548   5.287   2.048 -0.0561 -0.0915  0.6341
 2748TIP3    H1 8208   0.540   5.347   1.974  0.2306 -1.8405 -0.8853
 2748TIP3    H2 8209   0.634   5.306   2.085  0.8217 -0.7365 -0.9634
 2749TIP3   OH2 8210   0.351   3.513   4.773 -0.5211  0.0311 -0.0881
 2749TIP3    H1 8211   0.331   3.447   4.840 -1.2483  0.0843 -0.2448
 2749TIP3    H2 8212   0.447   3.516   4.770 -0.4828 -0.4564  0.4719
 2750TIP3   OH2 8213   0.685   6.006   4.876 -0.0944 -0.0062  0.9314
 2750TIP3    H1 8214   0.700   6.098   4.896 -1.6218  0.5472 -0.2264
 2750TIP3    H2 8215   0.767   5.962   4.897  1.0839  1.8180  0.3323
 2751TIP3   OH2 8216   1.917   6.224   4.696 -0.1107  0.2039 -0.2970
 2751TIP3    H1 8217   2.011   6.209   4.692 -0.3159 -0.8764 -1.6899
 2751TIP3    H2 8218   1.878   6.149   4.650 -1.5121  1.8350 -1.9465
 2752TIP3   OH2 8219   2.535   6.356   2.375 -0.1359  0.2568  0.3858
 2752TIP3    H1 8220   2.461   6.409   2.347 -1.3376 -0.8391  1.3949
 2752TIP3    H2 8221   2.611   6.412   2.362 -0.8469  0.6819 -2.7231
 2753TIP3   OH2 8222   6.564   6.583   3.915 -0.2867 -0.4399 -0.5866
 2753TIP3    H1 8223   6.539   6.641   3.842 -1.4316  1.1661  0.9994
 2753TIP3    H2 8224   6.481   6.556   3.954  0.3109 -0.5656  0.6457
 2754TIP3   OH2 8225   1.285   4.807   3.771  0.0047 -0.5768  0.1167
 2754TIP3    H1 8226   1.318   4.775   3.688 -1.3331 -0.9180 -0.3067
 2754TIP3    H2 8227   1.229   4.736   3.804 -1.8315  0.6819 -0.1362
 2755TIP3   OH2 8228   6.930   6.533   2.482 -0.0866  0.0383 -0.5333
 2755TIP3    H1 8229   6.940   6.522   2.388 -1.9344 -1.4416 -0.5982
 2755TIP3    H2 8230   6.839   6.557   2.495  0.5314  1.8762  0.7856
 2756TIP3   OH2 8231   2.210   0.178   5.142 -0.3994  0.0615  0.0246
 2756TIP3    H1 8232   2.233   0.233   5.217  1.4329  0.3200 -0.6740
 2756TIP3    H2 8233   2.163   0.236   5.083 -1.8035 -0.1272  0.9089
 2757TIP3   OH2 8234   7.029   0.241   2.849  0.2182 -0.4815 -0.1847
 2757TIP3    H1 8235   6.941   0.263   2.817  0.0409 -0.0942  0.5284
 2757TIP3    H2 8236   7.070   0.326   2.864 -0.6411 -0.4988  3.0846
 2758TIP3   OH2 8237   7.134   1.256   4.846  0.0141 -0.3653  0.3256
 2758TIP3    H1 8238   7.188   1.278   4.922 -0.4556  3.3153 -0.2337
 2758TIP3    H2 8239   7.044   1.265   4.876 -0.1839  0.1101 -0.3808
 2759TIP3   OH2 8240   3.338   2.927   3.836 -0.1423  0.5659  0.2452
 2759TIP3    H1 8241   3.300   2.863   3.776 -0.5788  1.3744 -0.3685
 2759TIP3    H2 8242   3.432   2.911   3.832 -0.2853 -0.3834  0.5177
 2760TIP3   OH2 8243   1.239   4.285   4.406 -0.4789  0.1962  0.0012
 2760TIP3    H1 8244   1.173   4.251   4.346  0.8209 -2.1631 -0.2233
 2760TIP3    H2 8245   1.293   4.342   4.352 -1.1075  0.4897 -0.3218
 2761TIP3   OH2 8246   1.083   1.651   0.756  0.0620  0.7450  0.1811
 2761TIP3    H1 8247   1.047   1.615   0.675  1.9766  0.5113 -0.5972
 2761TIP3    H2 8248   1.072   1.746   0.747 -0.6091  0.6685  0.1025
 2762TIP3   OH2 8249   4.711   5.026   4.174 -0.5867  0.3712  0.2523
 2762TIP3    H1 8250   4.674   4.983   4.251 -2.0246  0.9776 -0.0667
 2762TIP3    H2 8251   4.799   4.990   4.166  0.3943  1.7449  3.3431
 2763TIP3   OH2 8252   3.399   0.244   0.769  0.3365  0.6790  0.4503
 2763TIP3    H1 8253   3.323   0.297   0.793  0.6241  0.9376  0.8008
 2763TIP3    H2 8254   3.473   0.285   0.814  0.8526  1.0028 -0.6470
 2764TIP3   OH2 8255   0.887   5.835   4.955  0.5958 -0.3539 -0.0631
 2764TIP3    H1 8256   0.894   5.740   4.954  0.0585 -0.3946 -0.1501
 2764TIP3    H2 8257   0.898   5.860   5.047  1.1923 -0.4592 -0.0994
 2765TIP3   OH2 8258   0.552   2.977   4.090 -0.6151 -0.3217 -0.3230
 2765TIP3    H1 8259   0.487   3.025   4.040  0.2765 -0.0359 -1.2516
 2765TIP3    H2 8260   0.634   2.993   4.044  0.2183 -0.1904  1.1543
 2766TIP3   OH2 8261   7.170   3.616   2.545  0.2272 -0.0907  0.0392
 2766TIP3    H1 8262   7.220   3.543   2.584  1.1109  0.6400  0.2999
 2766TIP3    H2 8263   7.224   3.693   2.562 -1.9337  1.0847  2.1946
 2767TIP3   OH2 8264   4.183   2.930   0.120 -0.3295  0.0448  0.2561
 2767TIP3    H1 8265   4.261   2.954   0.070  0.3358  2.2910  2.1706
 2767TIP3    H2 8266   4.122   3.002   0.106 -0.9282 -0.2937  1.0376
 2768TIP3   OH2 8267   7.109   2.899   3.904 -0.1425 -0.5240 -0.1476
 2768TIP3    H1 8268   7.020   2.868   3.923  0.4659 -2.8464 -0.7710
 2768TIP3    H2 8269   7.102   2.994   3.907 -2.6923 -0.6306 -0.3779
 2769TIP3   OH2 8270   0.656   3.832   4.779 -0.2451 -0.2680  0.1167
 2769TIP3    H1 8271   0.661   3.927   4.780 -0.8681 -0.2293  0.2756
 2769TIP3    H2 8272   0.727   3.804   4.721  0.4224  0.2566  0.6622
 2770TIP3   OH2 8273   6.060   5.983   3.004 -0.8582  0.5637  0.2932
 2770TIP3    H1 8274   6.055   6.079   2.996 -0.6322  0.7134  1.7151
 2770TIP3    H2 8275   6.053   5.952   2.914 -0.9595  1.9174 -0.2003
 2771TIP3   OH2 8276   5.303   0.958   3.003 -0.1795  0.0527  0.0394
 2771TIP3    H1 8277   5.243   0.908   3.057  0.6906 -2.6667 -1.3233
 2771TIP3    H2 8278   5.373   0.985   3.063 -1.4985  1.2121  1.1370
 2772TIP3   OH2 8279   4.877   6.639   3.044 -0.5707  0.2946 -0.6718
 2772TIP3    H1 8280   4.950   6.686   3.084  0.1445 -0.0298 -1.5614
 2772TIP3    H2 8281   4.843   6.699   2.977 -0.3019 -0.0596 -1.1251
 2773TIP3   OH2 8282   5.333   0.414   5.037 -0.3588 -0.0688  0.3363
 2773TIP3    H1 8283   5.414   0.366   5.054 -0.3308  0.0181  0.4499
 2773TIP3    H2 8284   5.329   0.423   4.942  0.0964  0.4940  0.3678
 2774TIP3   OH2 8285   4.224   1.225   1.193  0.3773 -0.0749 -1.0807
 2774TIP3    H1 8286   4.212   1.167   1.268  2.2368 -0.4774 -1.0610
 2774TIP3    H2 8287   4.209   1.168   1.117  0.7905 -0.2320 -1.0444
 2775TIP3   OH2 8288   6.406   2.245   3.640 -0.2284 -0.3219  0.3403
 2775TIP3    H1 8289   6.322   2.274   3.603 -0.2857 -2.5726 -1.5349
 2775TIP3    H2 8290   6.471   2.282   3.580 -0.0395 -0.5850  0.3841
 2776TIP3   OH2 8291   1.976   4.079   2.045  0.3910 -0.3364 -0.3191
 2776TIP3    H1 8292   2.053   4.120   2.005 -0.5559  0.7588 -1.0971
 2776TIP3    H2 8293   1.920   4.152   2.070 -1.2094 -1.1068 -1.4552
 2777TIP3   OH2 8294   4.849   4.811   4.503  0.3618  0.6162 -0.0412
 2777TIP3    H1 8295   4.827   4.866   4.579  0.9336  2.7481 -1.3269
 2777TIP3    H2 8296   4.934   4.844   4.474  0.7441 -1.0125 -0.8727
 2778TIP3   OH2 8297   1.148   0.035   2.250  0.6759  0.1968 -0.4669
 2778TIP3    H1 8298   1.143   0.028   2.154  1.9827  1.3316 -0.6417
 2778TIP3    H2 8299   1.214   0.102   2.266 -0.1667  0.6683  1.2352
 2779TIP3   OH2 8300   4.377   1.762   0.367  0.0123  0.1516  0.6460
 2779TIP3    H1 8301   4.421   1.760   0.282  2.1798  0.6310  1.6589
 2779TIP3    H2 8302   4.403   1.680   0.409 -0.6910  0.1102  1.0103
 2780TIP3   OH2 8303   3.324   3.368   0.794 -0.6075  0.4986 -0.0489
 2780TIP3    H1 8304   3.361   3.426   0.860 -3.5385  0.1779  2.0641
 2780TIP3    H2 8305   3.381   3.291   0.794  0.3826  1.2063  0.8933
 2781TIP3   OH2 8306   0.249   5.050   0.642  0.0932 -0.9869 -0.2324
 2781TIP3    H1 8307   0.220   5.136   0.611  0.5465 -0.9542 -0.5864
 2781TIP3    H2 8308   0.248   5.057   0.737  2.0066  0.0937 -0.2284
 2782TIP3   OH2 8309   6.492   5.547   2.339  0.1712  0.1624 -0.1128
 2782TIP3    H1 8310   6.435   5.482   2.380  1.7201 -0.5500  0.9962
 2782TIP3    H2 8311   6.507   5.514   2.251 -2.8587  1.4963 -1.2634
 2783TIP3   OH2 8312   6.041   0.385   2.522  0.5621 -0.0048 -0.0820
 2783TIP3    H1 8313   6.043   0.311   2.461  0.0909 -0.3942  0.3629
 2783TIP3    H2 8314   5.950   0.389   2.551  0.6204  0.6597  0.0119
 2784TIP3   OH2 8315   2.638   0.639   3.074 -0.5126  0.1869  0.0018
 2784TIP3    H1 8316   2.638   0.734   3.065 -1.5988  0.5138  2.4678
 2784TIP3    H2 8317   2.721   0.619   3.117 -0.2517  0.0089 -0.5829
 2785TIP3   OH2 8318   0.672   4.010   3.939 -0.5127 -0.1697 -0.0637
 2785TIP3    H1 8319   0.597   4.039   3.887  0.1412  2.4180  0.2934
 2785TIP3    H2 8320   0.748   4.042   3.890  0.2746 -1.0619  0.5497
 2786TIP3   OH2 8321   6.732   0.695   0.160  0.3431  0.8033 -0.4533
 2786TIP3    H1 8322   6.695   0.666   0.243  0.1394 -4.1605 -1.8980
 2786TIP3    H2 8323   6.797   0.761   0.183  0.6395 -0.6729  3.7154
 2787TIP3   OH2 8324   6.604   4.235   1.799 -0.2431  0.1316  0.2898
 2787TIP3    H1 8325   6.658   4.203   1.726  0.6505  2.0646  0.0413
 2787TIP3    H2 8326   6.657   4.304   1.839 -0.4247 -1.2853  3.2444
 2788TIP3   OH2 8327   1.197   5.442   5.012  0.5487 -0.5044 -0.2865
 2788TIP3    H1 8328   1.153   5.470   5.093  1.8668  0.2859  0.1868
 2788TIP3    H2 8329   1.265   5.382   5.042  0.7985 -0.5029 -0.8451
 2789TIP3   OH2 8330   2.981   0.186   1.792 -0.3828 -0.0981  0.1287
 2789TIP3    H1 8331   3.019   0.273   1.784 -0.1363 -0.2878 -0.7985
 2789TIP3    H2 8332   2.946   0.184   1.881 -0.3497  0.9263  0.1752
 2790TIP3   OH2 8333   4.360   4.832   0.237  0.2136 -0.1676 -0.2777
 2790TIP3    H1 8334   4.445   4.846   0.279 -0.0811 -0.8771  0.5940
 2790TIP3    H2 8335   4.372   4.754   0.183  0.3886  0.3164 -0.9443
 2791TIP3   OH2 8336   3.001   5.042   1.505 -0.5011 -0.0203  0.0218
 2791TIP3    H1 8337   2.924   4.993   1.533  0.5552 -0.9377  1.4476
 2791TIP3    H2 8338   3.040   5.074   1.586  1.0595 -0.2501 -0.6054
 2792TIP3   OH2 8339   5.766   2.638   4.865  0.2043  0.1645  0.6658
 2792TIP3    H1 8340   5.763   2.600   4.953 -0.7239  1.7618  1.3772
 2792TIP3    H2 8341   5.851   2.681   4.861 -0.3825  1.4380  1.4145
 2793TIP3   OH2 8342   5.241   4.457   2.697 -0.0150 -0.4349 -0.0818
 2793TIP3    H1 8343   5.167   4.516   2.686  0.6039  0.8516  2.0869
 2793TIP3    H2 8344   5.264   4.431   2.608 -2.6028 -0.3350 -0.8651
 2794TIP3   OH2 8345   7.088   5.449   2.694 -0.3798 -0.6240 -0.4822
 2794TIP3    H1 8346   7.038   5.505   2.754  0.2056 -1.1796  0.5471
 2794TIP3    H2 8347   7.037   5.449   2.613 -0.1539  1.8181 -0.7108
 2795TIP3   OH2 8348   0.359   5.439   3.302 -0.5985 -0.3094  0.2088
 2795TIP3    H1 8349   0.305   5.475   3.231  0.0773 -0.9782 -0.6753
 2795TIP3    H2 8350   0.348   5.344   3.293 -0.5175 -0.4022  1.0284
 2796TIP3   OH2 8351   5.320   3.677   1.359 -0.2421 -0.5284 -0.7564
 2796TIP3    H1 8352   5.338   3.771   1.359  0.0868 -0.5489 -2.4416
 2796TIP3    H2 8353   5.405   3.636   1.344 -0.5434 -1.0309 -1.1286
 2797TIP3   OH2 8354   6.858   2.908   2.825 -0.4099  0.4417 -0.0329
 2797TIP3    H1 8355   6.865   2.818   2.791  0.3880  0.5626 -0.2238
 2797TIP3    H2 8356   6.878   2.963   2.749 -1.0764  0.7887  0.0396
 2798TIP3   OH2 8357   5.594   6.607   4.433  0.1028 -0.4525  0.1412
 2798TIP3    H1 8358   5.592   6.565   4.347 -0.0177 -0.0691 -0.0457
 2798TIP3    H2 8359   5.521   6.567   4.480 -1.1673  0.8390 -0.6581
 2799TIP3   OH2 8360   2.840   1.738   3.397  0.5565  0.1807 -0.1601
 2799TIP3    H1 8361   2.932   1.737   3.426  0.9101 -0.1706 -1.2553
 2799TIP3    H2 8362   2.844   1.771   3.307 -0.0486 -2.6198 -1.2930
 2800TIP3   OH2 8363   5.096   3.659   3.339  0.2125  0.0801 -0.6233
 2800TIP3    H1 8364   5.190   3.674   3.329  0.7147 -2.3408 -0.1945
 2800TIP3    H2 8365   5.067   3.631   3.252  0.0398  0.1207 -0.5796
 2801TIP3   OH2 8366   2.998   3.188   0.070  0.3713  0.8040  0.1474
 2801TIP3    H1 8367   3.062   3.123   0.100 -0.2759  0.3925  0.6735
 2801TIP3    H2 8368   3.015   3.265   0.124  0.4666  0.7240  0.2334
 2802TIP3   OH2 8369   3.470   6.734   1.096  0.0584 -0.0099 -0.3548
 2802TIP3    H1 8370   3.529   6.659   1.096  1.8508  1.3062 -0.8754
 2802TIP3    H2 8371   3.492   6.782   1.176  0.2449  0.9020 -0.9432
 2803TIP3   OH2 8372   5.899   3.140   2.446 -0.3333 -0.2201  0.1921
 2803TIP3    H1 8373   5.894   3.079   2.520  1.4424  0.2687  0.7713
 2803TIP3    H2 8374   5.911   3.084   2.370  1.3594 -0.6372  0.7271
 2804TIP3   OH2 8375   2.748   0.886   3.555  0.8419  0.4646  0.5201
 2804TIP3    H1 8376   2.728   0.950   3.624 -1.1416  1.2592 -0.7095
 2804TIP3    H2 8377   2.690   0.910   3.483  0.1380 -2.6267 -0.0743
 2805TIP3   OH2 8378   3.798   2.717   3.555  0.1924 -0.0541 -0.0038
 2805TIP3    H1 8379   3.773   2.809   3.569 -0.2636 -0.3282  1.1662
 2805TIP3    H2 8380   3.894   2.718   3.554  0.2850  0.1727  2.4121
 2806TIP3   OH2 8381   3.994   5.656   0.220  0.2460  0.0265  0.4356
 2806TIP3    H1 8382   3.973   5.603   0.296  2.8731 -1.7380  0.0601
 2806TIP3    H2 8383   3.960   5.606   0.146  2.0922 -0.9134  0.1423
 2807TIP3   OH2 8384   3.716   2.372   0.065 -0.2247  0.3657 -0.3277
 2807TIP3    H1 8385   3.801   2.387   0.024 -0.2712  1.3923 -0.0784
 2807TIP3    H2 8386   3.727   2.402   0.155 -0.2906 -1.3384  0.2792
 2808TIP3   OH2 8387   6.798   2.389   3.959  0.4757 -0.0396  0.9166
 2808TIP3    H1 8388   6.767   2.300   3.972  0.5975 -0.3265 -0.6139
 2808TIP3    H2 8389   6.884   2.391   4.001  0.4205 -0.6061  1.0570
 2809TIP3   OH2 8390   2.746   0.893   2.449  0.1434 -0.0803 -0.1406
 2809TIP3    H1 8391   2.663   0.858   2.481 -0.6982  1.3577 -0.6749
 2809TIP3    H2 8392   2.750   0.866   2.357 -0.2867  0.8097 -0.4260
 2810TIP3   OH2 8393   1.740   2.768   2.677 -0.5956  0.3366  0.3718
 2810TIP3    H1 8394   1.794   2.705   2.725  0.9888  1.5720  0.2847
 2810TIP3    H2 8395   1.654   2.725   2.670  0.5048 -1.9757 -0.0293
 2811TIP3   OH2 8396   1.432   2.510   3.366 -0.0838 -0.3976 -0.2617
 2811TIP3    H1 8397   1.351   2.469   3.395 -1.6047  1.4603 -1.6548
 2811TIP3    H2 8398   1.448   2.579   3.431  0.3500 -0.6976 -0.0429
 2812TIP3   OH2 8399   2.563   0.654   0.654 -0.2613 -0.3933  0.2383
 2812TIP3    H1 8400   2.550   0.685   0.743 -0.5012  2.0563 -0.5855
 2812TIP3    H2 8401   2.482   0.605   0.634 -0.7072  0.0230  0.9741
 2813TIP3   OH2 8402   4.791   0.042   2.117 -0.2722 -0.0901 -0.2956
 2813TIP3    H1 8403   4.785   0.086   2.032 -0.8691  0.5261  0.0584
 2813TIP3    H2 8404   4.741   0.098   2.177  0.3330 -0.3948  0.5160
 2814TIP3   OH2 8405   5.762   2.583   4.279  0.0347 -0.4513 -0.0637
 2814TIP3    H1 8406   5.746   2.536   4.361 -1.5270 -0.5316 -0.3715
 2814TIP3    H2 8407   5.747   2.675   4.300  2.0630 -0.1730  0.2939
 2815TIP3   OH2 8408   5.757   6.057   1.565  0.2355  0.2248  0.4485
 2815TIP3    H1 8409   5.796   5.971   1.548  0.9529  0.7730 -0.7320
 2815TIP3    H2 8410   5.691   6.040   1.633  1.3395 -1.0103  1.2481
 2816TIP3   OH2 8411   1.864   4.508   0.531 -0.5704 -0.0553  0.1077
 2816TIP3    H1 8412   1.939   4.463   0.571 -0.8055 -0.8245 -0.2887
 2816TIP3    H2 8413   1.869   4.485   0.438 -0.5055  1.0362 -0.1643
 2817TIP3   OH2 8414   0.327   2.730   1.091 -0.2110 -0.3130  0.4867
 2817TIP3    H1 8415   0.255   2.787   1.066  0.2329  0.8024  1.6637
 2817TIP3    H2 8416   0.370   2.775   1.163  0.0870 -2.2111  1.5603
 2818TIP3   OH2 8417   1.137   3.512   1.253 -0.1557  0.9546  0.1577
 2818TIP3    H1 8418   1.184   3.547   1.177 -0.7782  1.3916 -0.0353
 2818TIP3    H2 8419   1.137   3.417   1.239 -0.9196  1.0836 -0.7820
 2819TIP3   OH2 8420   0.423   3.130   0.664 -0.2742  0.3224  0.0996
 2819TIP3    H1 8421   0.360   3.184   0.615 -1.6997 -2.1402 -0.9542
 2819TIP3    H2 8422   0.370   3.062   0.704  1.6601 -1.8483 -0.7952
 2820TIP3   OH2 8423   2.925   0.746   2.040 -0.1927 -0.3295  0.4819
 2820TIP3    H1 8424   2.911   0.747   1.945 -1.6369  3.3942  0.5565
 2820TIP3    H2 8425   3.009   0.791   2.052 -0.4330  0.0035  0.9572
 2821TIP3   OH2 8426   2.281   3.823   0.917 -0.3239 -0.2707  0.8020
 2821TIP3    H1 8427   2.371   3.795   0.936 -1.0496 -1.8441  2.2256
 2821TIP3    H2 8428   2.267   3.900   0.973 -0.2580 -0.8072  1.5704
 2822TIP3   OH2 8429   1.992   5.206   4.219  0.1190 -0.1178 -0.2191
 2822TIP3    H1 8430   2.002   5.300   4.207  0.3311 -0.1469 -0.2776
 2822TIP3    H2 8431   2.060   5.167   4.165  0.3821 -0.2873  0.2280
 2823TIP3   OH2 8432   6.311   6.389   1.266  0.4098 -0.0431  0.4919
 2823TIP3    H1 8433   6.342   6.479   1.280 -0.7682  0.5343 -0.4745
 2823TIP3    H2 8434   6.344   6.365   1.180 -0.5600  0.0404  0.0861
 2824TIP3   OH2 8435   1.503   3.841   1.190  0.1508 -0.1062  0.6870
 2824TIP3    H1 8436   1.431   3.863   1.249  0.8409  3.5992  0.3468
 2824TIP3    H2 8437   1.578   3.890   1.223  2.3751 -3.0593  0.4471
 2825TIP3   OH2 8438   4.577   4.328   5.822  0.3898 -0.2663 -0.0703
 2825TIP3    H1 8439   4.626   4.255   5.862  0.7143 -0.5841 -1.0206
 2825TIP3    H2 8440   4.638   4.366   5.759 -0.2805 -0.0819 -0.6137
 2826TIP3   OH2 8441   6.095   0.622   1.293 -0.5557 -0.1968 -0.2992
 2826TIP3    H1 8442   6.146   0.699   1.269 -1.7088  1.4201  2.0843
 2826TIP3    H2 8443   6.107   0.614   1.388 -2.7091 -1.2476 -0.0563
 2827TIP3   OH2 8444   6.918   6.547   5.640  0.0923  0.2733  0.1696
 2827TIP3    H1 8445   6.988   6.482   5.640  0.3076  0.5004  0.2378
 2827TIP3    H2 8446   6.876   6.537   5.555 -0.1043 -0.1923  0.3190
 2828TIP3   OH2 8447   3.263   5.678   2.573  0.7402  0.1046  0.1702
 2828TIP3    H1 8448   3.265   5.617   2.647  0.6351  0.8188  0.7833
 2828TIP3    H2 8449   3.242   5.624   2.497 -0.3380 -0.4738  0.8573
 2829TIP3   OH2 8450   0.708   1.372   4.359 -0.1345 -0.2317 -0.8302
 2829TIP3    H1 8451   0.756   1.368   4.442  0.0648 -0.0038 -0.9315
 2829TIP3    H2 8452   0.711   1.282   4.325  0.7978 -0.1007 -1.1505
 2830TIP3   OH2 8453   0.304   5.331   3.999  0.0380  0.2999 -0.1114
 2830TIP3    H1 8454   0.283   5.337   4.092  0.0252  2.2102 -0.1894
 2830TIP3    H2 8455   0.396   5.306   3.996  0.1669  0.7068  0.4250
 2831TIP3   OH2 8456   2.994   5.503   1.375 -0.3841  0.6697  0.3737
 2831TIP3    H1 8457   3.031   5.581   1.416  3.1122  0.2328 -1.5505
 2831TIP3    H2 8458   2.968   5.531   1.288 -1.5945  0.2158  0.5744
 2832TIP3   OH2 8459   4.383   2.922   0.434  0.3162  0.3698 -0.3439
 2832TIP3    H1 8460   4.289   2.928   0.415  0.4932 -0.5461 -1.6427
 2832TIP3    H2 8461   4.405   3.008   0.469 -0.9257  0.7339 -0.3882
 2833TIP3   OH2 8462   2.607   6.719   3.068  0.1174  0.3338 -0.2413
 2833TIP3    H1 8463   2.534   6.696   3.010 -0.6407  2.5422 -0.2360
 2833TIP3    H2 8464   2.593   6.811   3.089  1.5262  0.1421  1.8123
 2834TIP3   OH2 8465   3.537   5.175   0.218  0.3044  0.4119 -0.4779
 2834TIP3    H1 8466   3.557   5.220   0.301  0.9324 -3.5749  1.8017
 2834TIP3    H2 8467   3.606   5.204   0.158  1.0394  1.9260  1.0246
 2835TIP3   OH2 8468   6.271   5.225   1.107  0.3364 -0.0587 -0.1302
 2835TIP3    H1 8469   6.237   5.179   1.030 -1.3003  0.4451  0.2557
 2835TIP3    H2 8470   6.326   5.295   1.071  2.0867 -1.6460 -0.7359
 2836TIP3   OH2 8471   2.136   5.620   2.488 -0.5413 -0.6069  0.0748
 2836TIP3    H1 8472   2.150   5.579   2.574  0.3732  0.8961  0.6780
 2836TIP3    H2 8473   2.123   5.713   2.508  0.8288 -0.0412 -1.4869
 2837TIP3   OH2 8474   1.810   2.212   1.804  0.1351 -0.5514 -0.2577
 2837TIP3    H1 8475   1.874   2.234   1.872 -0.2329 -0.8536  0.1941
 2837TIP3    H2 8476   1.856   2.226   1.722  0.7855 -0.7703  0.0637
 2838TIP3   OH2 8477   5.571   4.252   0.848 -0.1153  0.0685 -0.1973
 2838TIP3    H1 8478   5.627   4.307   0.902  0.8659 -2.9735  2.2025
 2838TIP3    H2 8479   5.492   4.239   0.900  0.0806 -1.4662 -0.2185
 2839TIP3   OH2 8480   2.606   2.149   0.561  0.2280  0.0545  0.2864
 2839TIP3    H1 8481   2.531   2.192   0.520  0.2462  1.1645  1.3679
 2839TIP3    H2 8482   2.677   2.161   0.498 -0.1131  0.4130 -0.0358
 2840TIP3   OH2 8483   4.156   5.299   5.750 -0.1374 -0.5772 -0.0719
 2840TIP3    H1 8484   4.224   5.297   5.817 -0.7323  2.0834  0.7335
 2840TIP3    H2 8485   4.203   5.286   5.668  1.3187  0.7978  0.4904
 2841TIP3   OH2 8486   4.558   6.231   3.031 -0.4856 -0.8786 -0.7915
 2841TIP3    H1 8487   4.573   6.286   3.108  1.5174 -2.5720  0.1483
 2841TIP3    H2 8488   4.503   6.284   2.973 -0.2745  1.2912  0.8725
 2842TIP3   OH2 8489   4.980   3.267   1.241  0.2772  0.4495 -0.3553
 2842TIP3    H1 8490   4.931   3.285   1.160  1.7176  0.0053 -1.3629
 2842TIP3    H2 8491   5.055   3.326   1.236  1.2445 -0.7406 -0.1530
 2843TIP3   OH2 8492   1.778   3.895   0.549 -0.6892 -0.0517 -0.0847
 2843TIP3    H1 8493   1.845   3.954   0.583 -0.8171  1.5197 -2.3330
 2843TIP3    H2 8494   1.695   3.938   0.568 -0.9772 -1.0202  0.9325
 2844TIP3   OH2 8495   5.889   2.325   5.654 -0.9621 -0.8509 -0.2284
 2844TIP3    H1 8496   5.840   2.347   5.733 -1.9796  2.2166 -1.5666
 2844TIP3    H2 8497   5.913   2.233   5.665 -2.1988 -0.8964  3.0069
 2845TIP3   OH2 8498   6.051   2.106   5.615  0.0138  0.4443 -0.1103
 2845TIP3    H1 8499   6.010   2.028   5.578 -0.1611  0.3958  0.1858
 2845TIP3    H2 8500   6.144   2.086   5.617 -0.0837  0.0474  0.4405
 2846TIP3   OH2 8501   3.274   0.083   2.167 -0.1882  0.3970 -0.9053
 2846TIP3    H1 8502   3.290   0.087   2.073  1.9809  0.6378 -0.5709
 2846TIP3    H2 8503   3.284  -0.010   2.189  1.2429  0.5919 -0.6442
 2847TIP3   OH2 8504   5.642   2.797   2.314  0.2412 -0.1323 -0.1301
 2847TIP3    H1 8505   5.549   2.809   2.296  0.0077 -1.5614  0.0456
 2847TIP3    H2 8506   5.675   2.748   2.239  0.3518 -1.6067  0.8435
 2848TIP3   OH2 8507   0.747   2.714   4.065  0.0540 -0.3263  0.6861
 2848TIP3    H1 8508   0.654   2.690   4.064  0.1358 -0.6710 -0.5877
 2848TIP3    H2 8509   0.750   2.803   4.032  0.3247 -1.0610 -1.4177
 2849TIP3   OH2 8510   2.239   4.928   2.156  0.3718 -0.2618  0.1542
 2849TIP3    H1 8511   2.250   4.935   2.251 -2.2828 -2.8107  0.7856
 2849TIP3    H2 8512   2.191   4.846   2.143 -1.2139  1.0106 -3.2339
 2850TIP3   OH2 8513   5.079   0.447   5.249  0.6991 -0.7999  0.3007
 2850TIP3    H1 8514   5.155   0.491   5.211  1.3284 -2.4132 -0.4086
 2850TIP3    H2 8515   5.058   0.377   5.186 -2.4478  0.6110 -0.4084
 2851TIP3   OH2 8516   1.027   1.270   5.346  0.2187 -0.0995  0.3409
 2851TIP3    H1 8517   1.083   1.344   5.368  0.6162  0.4505 -2.2604
 2851TIP3    H2 8518   1.024   1.218   5.426  1.7820  1.5332  1.5351
 2852TIP3   OH2 8519   4.119   1.432   4.921  0.0442 -0.2854 -0.2757
 2852TIP3    H1 8520   4.179   1.487   4.973  1.6548 -0.6672 -1.6589
 2852TIP3    H2 8521   4.160   1.428   4.835 -1.6862 -1.1000 -1.0846
 2853TIP3   OH2 8522   6.546   1.699   2.381  0.0173 -0.0532 -0.0747
 2853TIP3    H1 8523   6.625   1.651   2.406 -0.6710 -1.3389 -0.2773
 2853TIP3    H2 8524   6.473   1.642   2.407 -0.8777  1.3813  0.6685
 2854TIP3   OH2 8525   2.625   2.471   3.975  0.3038  0.0514  0.2694
 2854TIP3    H1 8526   2.711   2.509   3.993  0.5270 -0.0291 -0.5851
 2854TIP3    H2 8527   2.608   2.494   3.883 -0.1310 -0.7938  0.1302
 2855TIP3   OH2 8528   2.032   4.466   1.429  0.3666 -0.6642  0.0235
 2855TIP3    H1 8529   2.045   4.497   1.339  1.6926 -1.2652 -0.0022
 2855TIP3    H2 8530   2.008   4.374   1.419  2.2341 -1.2171  0.3284
 2856TIP3   OH2 8531   0.167   3.015   0.063 -0.7821  0.4949 -0.5945
 2856TIP3    H1 8532   0.136   3.092   0.015 -0.5679  1.9530  1.4949
 2856TIP3    H2 8533   0.159   3.039   0.155  0.8273 -1.3843  0.1035
 2857TIP3   OH2 8534   3.807   6.670   0.123  0.3963 -0.3304 -0.3728
 2857TIP3    H1 8535   3.821   6.760   0.154 -0.0053 -0.4982  0.3205
 2857TIP3    H2 8536   3.766   6.680   0.037 -0.8253  0.1610  0.2461
 2858TIP3   OH2 8537   7.102   2.264   5.770  0.4188 -0.0487 -0.2364
 2858TIP3    H1 8538   7.040   2.232   5.705 -0.6813 -0.5836  1.0330
 2858TIP3    H2 8539   7.186   2.266   5.724 -0.3029 -0.5083 -1.6291
 2859TIP3   OH2 8540   6.148   2.003   1.907 -1.1238 -0.5612  0.1280
 2859TIP3    H1 8541   6.147   2.068   1.977 -1.2355 -1.3362  0.8588
 2859TIP3    H2 8542   6.062   2.011   1.866 -0.3266  1.3422 -1.3129
 2860TIP3   OH2 8543   0.177   3.248   2.861 -0.1493 -0.8668  0.9946
 2860TIP3    H1 8544   0.107   3.183   2.872 -0.3456 -0.4646  2.1768
 2860TIP3    H2 8545   0.254   3.207   2.900 -0.4378 -0.1376  2.3939
 2861TIP3   OH2 8546   5.969   4.951   4.371 -0.1725 -0.2715  0.3566
 2861TIP3    H1 8547   6.039   4.982   4.429  0.1074  1.5326 -0.8570
 2861TIP3    H2 8548   5.903   4.916   4.430  0.1408  1.4109  1.8068
 2862TIP3   OH2 8549   3.658   2.961   2.702  0.6685  0.5000  0.0991
 2862TIP3    H1 8550   3.694   2.906   2.633 -0.5624 -0.2669  0.0513
 2862TIP3    H2 8551   3.564   2.946   2.699  0.4670  1.4048  1.1348
 2863TIP3   OH2 8552   6.348   2.342   4.892  0.1208 -0.2537  0.3834
 2863TIP3    H1 8553   6.348   2.342   4.988 -2.9990  0.0314  0.4861
 2863TIP3    H2 8554   6.310   2.258   4.868 -0.9649  0.4651 -0.5155
 2864TIP3   OH2 8555   2.269   5.135   1.122 -0.3393 -0.3557  0.6577
 2864TIP3    H1 8556   2.187   5.086   1.129  1.5853 -4.1030 -0.0871
 2864TIP3    H2 8557   2.299   5.143   1.212 -1.6236  1.3801  0.9717
 2865TIP3   OH2 8558   5.006   4.006   2.819  0.1325 -0.5542  0.5928
 2865TIP3    H1 8559   4.954   4.005   2.739 -0.4990 -0.9874  1.0053
 2865TIP3    H2 8560   4.944   4.026   2.889  0.9264  1.3387  0.8143
 2866TIP3   OH2 8561   1.371   5.736   3.697 -0.2714  0.4899  0.0335
 2866TIP3    H1 8562   1.373   5.640   3.698 -1.0427  0.4245 -1.1974
 2866TIP3    H2 8563   1.281   5.758   3.722 -0.0739  0.8926  0.3865
 2867TIP3   OH2 8564   5.045   4.623   5.266  0.2910  0.0475  0.4376
 2867TIP3    H1 8565   5.130   4.579   5.263 -0.5338 -1.5807 -0.1848
 2867TIP3    H2 8566   5.034   4.659   5.178 -0.4555 -1.3802 -0.0844
 2868TIP3   OH2 8567   2.760   3.897   3.869 -0.4240  0.8300 -0.1158
 2868TIP3    H1 8568   2.808   3.834   3.815 -0.0837  0.8345  0.1772
 2868TIP3    H2 8569   2.669   3.867   3.866 -0.2095  0.1314  0.2982
 2869TIP3   OH2 8570   3.960   3.431   5.681 -0.0289 -0.0676 -0.5368
 2869TIP3    H1 8571   3.879   3.380   5.685  0.3245 -0.6594 -0.7198
 2869TIP3    H2 8572   4.021   3.375   5.632  0.6778  0.1102  0.1261
 2870TIP3   OH2 8573   3.931   1.402   5.124  0.1535 -0.6934  0.3613
 2870TIP3    H1 8574   3.987   1.452   5.183  0.4945  0.9538 -1.2543
 2870TIP3    H2 8575   3.974   1.408   5.039 -1.8254 -0.3887 -0.6907
 2871TIP3   OH2 8576   0.301   4.011   1.271  0.4890 -0.2115  0.1666
 2871TIP3    H1 8577   0.233   4.043   1.331 -0.1765 -1.1757 -0.0475
 2871TIP3    H2 8578   0.252   3.975   1.197  1.2928  1.8726 -1.4830
 2872TIP3   OH2 8579   3.561   1.399   0.863 -0.5502 -0.2475 -0.2841
 2872TIP3    H1 8580   3.596   1.457   0.932 -0.8182 -0.5899  0.1401
 2872TIP3    H2 8581   3.637   1.381   0.807  0.0469 -1.2525  0.8187
 2873TIP3   OH2 8582   7.122   3.151   5.015  0.1469  0.1065 -0.2632
 2873TIP3    H1 8583   7.196   3.170   5.072  1.6171  0.3038 -2.1503
 2873TIP3    H2 8584   7.078   3.235   5.004 -0.0398  0.1016  0.4044
 2874TIP3   OH2 8585   4.201   0.050   3.132 -0.5288  0.4606  0.5013
 2874TIP3    H1 8586   4.110   0.048   3.102  0.1316 -0.0484 -1.5923
 2874TIP3    H2 8587   4.236   0.133   3.101  0.2583 -0.2050 -0.4640
 2875TIP3   OH2 8588   6.031   1.594   4.885 -0.4968 -0.4744  0.0864
 2875TIP3    H1 8589   5.980   1.555   4.956 -1.6041  0.1642 -0.3398
 2875TIP3    H2 8590   5.967   1.642   4.832  0.3681 -0.5971 -1.1184
 2876TIP3   OH2 8591   5.881   5.831   5.319  0.1074 -0.1123  0.3694
 2876TIP3    H1 8592   5.929   5.770   5.263  0.3466 -0.4639  0.9423
 2876TIP3    H2 8593   5.794   5.792   5.329  0.9705 -1.6912  2.6997
 2877TIP3   OH2 8594   4.185   1.008   1.064 -0.3340  0.4965  0.2444
 2877TIP3    H1 8595   4.090   1.001   1.069 -0.1907 -2.7790  1.1458
 2877TIP3    H2 8596   4.215   0.917   1.066  2.9354  1.4567  2.6863
 2878TIP3   OH2 8597   1.456   5.446   5.816 -0.5417  0.0690 -0.3121
 2878TIP3    H1 8598   1.474   5.494   5.897  0.5638  0.9689 -1.0681
 2878TIP3    H2 8599   1.520   5.478   5.754 -0.2672 -1.8396 -1.0868
 2879TIP3   OH2 8600   4.955   2.673   1.662 -0.1495 -0.3824 -0.1457
 2879TIP3    H1 8601   5.003   2.652   1.581  0.0297  1.4879 -0.5562
 2879TIP3    H2 8602   5.022   2.668   1.731  0.1640  0.0945 -0.4127
 2880TIP3   OH2 8603   5.094   0.087   1.981  0.5530 -0.0378  0.0795
 2880TIP3    H1 8604   5.046   0.170   1.980 -0.2995 -0.4988  1.1462
 2880TIP3    H2 8605   5.056   0.037   1.908 -0.7071 -0.4433  0.9845
 2881TIP3   OH2 8606   0.971   6.327   0.196 -0.4791  0.0050  0.0282
 2881TIP3    H1 8607   1.064   6.332   0.175 -0.1718  2.0611  1.5942
 2881TIP3    H2 8608   0.929   6.385   0.132 -0.6697 -0.7106 -0.5056
 2882TIP3   OH2 8609   4.090   2.175   2.933  0.0874 -0.1939  0.1734
 2882TIP3    H1 8610   4.067   2.236   2.863  0.7166 -0.6000 -0.4047
 2882TIP3    H2 8611   4.186   2.172   2.930  0.0874 -0.7107  0.6255
 2883TIP3   OH2 8612   5.617   1.647   2.351  0.4141 -0.1446  0.0700
 2883TIP3    H1 8613   5.645   1.581   2.288  0.3710  0.1040 -0.2099
 2883TIP3    H2 8614   5.603   1.726   2.299  1.2865  0.3233  0.5156
 2884TIP3   OH2 8615   0.562   4.814   1.909 -0.2150 -0.1616 -0.2123
 2884TIP3    H1 8616   0.600   4.837   1.824  0.7785  1.6821  0.6395
 2884TIP3    H2 8617   0.583   4.722   1.921  0.3794 -0.2318 -1.6097
 2885TIP3   OH2 8618   6.175   3.118   3.671 -0.7258  0.2275 -0.1167
 2885TIP3    H1 8619   6.231   3.177   3.622 -0.1412 -0.6248 -0.5085
 2885TIP3    H2 8620   6.228   3.089   3.745 -0.9496  0.0925 -0.0078
 2886TIP3   OH2 8621   2.564   6.374   4.555 -0.2332 -0.3020  0.7844
 2886TIP3    H1 8622   2.657   6.392   4.539  0.4724 -0.9792  3.5635
 2886TIP3    H2 8623   2.551   6.284   4.523  0.2038 -0.3850  0.8380
 2887TIP3   OH2 8624   6.709   2.671   4.807  0.6072  0.1595 -0.3530
 2887TIP3    H1 8625   6.738   2.763   4.805 -0.1631  0.4097 -0.1891
 2887TIP3    H2 8626   6.667   2.661   4.892  0.4591 -0.2776 -0.4767
 2888TIP3   OH2 8627   4.987   1.451   0.548 -0.0024  0.6526  1.0368
 2888TIP3    H1 8628   4.928   1.378   0.567  0.2535  0.1340 -0.0768
 2888TIP3    H2 8629   4.958   1.521   0.606 -2.1074  0.6089  0.1249
 2889TIP3   OH2 8630   1.264   2.752   2.681 -0.1558  0.1468 -0.0942
 2889TIP3    H1 8631   1.174   2.785   2.692 -0.9742 -1.8309 -0.3523
 2889TIP3    H2 8632   1.254   2.657   2.684  2.2629 -0.1163  2.1470
 2890TIP3   OH2 8633   5.145   3.585   2.539 -1.0788 -0.3441  0.1730
 2890TIP3    H1 8634   5.186   3.657   2.491 -1.8100  0.2127  0.3506
 2890TIP3    H2 8635   5.193   3.507   2.512  0.2786  0.3096  0.5922
 2891TIP3   OH2 8636   6.322   6.435   2.593  0.1731  0.1245  0.6153
 2891TIP3    H1 8637   6.293   6.377   2.522  1.8852  0.4585 -0.4058
 2891TIP3    H2 8638   6.243   6.483   2.617 -0.4341  0.1104 -1.1799
 2892TIP3   OH2 8639   0.166   6.714   0.439 -0.5981 -0.3481  0.8187
 2892TIP3    H1 8640   0.204   6.705   0.526 -1.8799 -0.5883  1.3729
 2892TIP3    H2 8641   0.158   6.624   0.407 -2.0973 -0.4377  1.3541
 2893TIP3   OH2 8642   6.177   5.783   2.137 -0.7932  0.2868  0.5094
 2893TIP3    H1 8643   6.197   5.743   2.221  2.3223  1.3789  0.4197
 2893TIP3    H2 8644   6.174   5.877   2.155 -3.3815  0.3932 -0.0940
 2894TIP3   OH2 8645   1.708   6.014   2.912 -0.3356 -0.4386 -0.2874
 2894TIP3    H1 8646   1.625   6.041   2.953  0.3984 -0.6252  1.4049
 2894TIP3    H2 8647   1.682   5.958   2.839 -1.7124 -0.0124 -0.1507
 2895TIP3   OH2 8648   5.878   1.944   4.556 -0.0828 -0.8464 -0.2545
 2895TIP3    H1 8649   5.886   1.941   4.461  0.0929  1.0580 -0.3418
 2895TIP3    H2 8650   5.855   1.854   4.581 -0.3618 -1.3345 -2.0936
 2896TIP3   OH2 8651   4.057   2.935   4.956 -0.6416  0.5561 -0.2345
 2896TIP3    H1 8652   4.052   2.874   4.883  0.5818  0.0274  0.0842
 2896TIP3    H2 8653   4.151   2.947   4.970 -0.8543  1.0020  0.9543
 2897TIP3   OH2 8654   6.305   3.102   1.269 -0.2828  0.2810  0.4480
 2897TIP3    H1 8655   6.232   3.158   1.244 -0.7449 -0.3675  0.3269
 2897TIP3    H2 8656   6.377   3.163   1.288 -0.3337  0.8690 -1.0698
 2898TIP3   OH2 8657   3.886   3.024   1.984 -0.1376 -0.0348 -0.0021
 2898TIP3    H1 8658   3.933   2.943   1.965 -1.0760 -0.4240 -0.7475
 2898TIP3    H2 8659   3.934   3.091   1.936 -1.2218 -0.6747 -2.0572
 2899TIP3   OH2 8660   4.766   0.168   2.649  0.0573  0.1565  0.5095
 2899TIP3    H1 8661   4.857   0.151   2.624  0.0404 -1.7370  1.5851
 2899TIP3    H2 8662   4.717   0.094   2.614 -1.2663  1.5728 -0.8065
 2900TIP3   OH2 8663   0.267   0.821   4.751  0.0257 -0.4032  0.3607
 2900TIP3    H1 8664   0.346   0.860   4.788 -0.5937 -0.6927  2.1019
 2900TIP3    H2 8665   0.274   0.835   4.657  0.9883  1.7278  0.7054
 2901TIP3   OH2 8666   1.479   2.583   5.282 -0.2052 -0.4003  0.3101
 2901TIP3    H1 8667   1.562   2.566   5.237  1.6484 -1.8199  3.8576
 2901TIP3    H2 8668   1.479   2.677   5.298 -1.6359  0.4271 -3.6243
 2902TIP3   OH2 8669   6.298   4.075   5.643  0.1596 -0.3260  0.0543
 2902TIP3    H1 8670   6.339   4.158   5.619  0.8095 -0.5937  0.1984
 2902TIP3    H2 8671   6.271   4.037   5.560  0.2962 -0.1845 -0.0554
 2903TIP3   OH2 8672   1.595   1.723   1.283  0.2287 -0.3719 -0.1847
 2903TIP3    H1 8673   1.604   1.702   1.375  0.6749 -0.5961 -0.2758
 2903TIP3    H2 8674   1.621   1.814   1.276 -2.0020  0.3593  0.2596
 2904TIP3   OH2 8675   7.209   5.813   1.271 -0.0878  0.1792 -0.4102
 2904TIP3    H1 8676   7.129   5.825   1.220  0.6411 -1.7845 -2.1771
 2904TIP3    H2 8677   7.280   5.839   1.213  0.7215 -1.1243 -0.0608
 2905TIP3   OH2 8678   4.762   3.686   5.316  0.2710  0.0409  0.0091
 2905TIP3    H1 8679   4.723   3.610   5.273  2.2859  0.7835 -3.5914
 2905TIP3    H2 8680   4.691   3.750   5.320 -0.1813 -0.2533 -1.9750
 2906TIP3   OH2 8681   0.284   4.909   3.164 -0.2146  0.5369 -0.1679
 2906TIP3    H1 8682   0.204   4.857   3.168  0.8687 -1.3686 -1.5604
 2906TIP3    H2 8683   0.328   4.893   3.247 -1.1001  1.3860  0.4961
 2907TIP3   OH2 8684   1.164   2.413   4.562  0.3859 -0.2416  0.0825
 2907TIP3    H1 8685   1.254   2.410   4.530  0.6075  2.0147  0.3007
 2907TIP3    H2 8686   1.118   2.346   4.511  2.2050 -1.6297  0.1611
 2908TIP3   OH2 8687   5.688   2.645   0.846  0.2885 -0.2541  0.2762
 2908TIP3    H1 8688   5.624   2.575   0.862 -0.1067 -0.2589 -1.1686
 2908TIP3    H2 8689   5.751   2.605   0.786  1.2436 -0.0031  1.0891
 2909TIP3   OH2 8690   2.652   2.397   2.837 -0.3812 -0.3052 -0.3211
 2909TIP3    H1 8691   2.658   2.435   2.749 -1.4507 -1.0489 -0.7259
 2909TIP3    H2 8692   2.617   2.467   2.891 -0.3598 -0.0541 -0.6282
 2910TIP3   OH2 8693   2.573   3.871   1.098 -0.1921 -0.2893 -0.2361
 2910TIP3    H1 8694   2.552   3.851   1.189  1.1906 -1.6337 -0.1604
 2910TIP3    H2 8695   2.646   3.933   1.103  0.0019 -0.4992 -0.4225
 2911TIP3   OH2 8696   5.729   5.740   5.573 -0.6911 -0.3060 -0.6409
 2911TIP3    H1 8697   5.821   5.766   5.568 -1.3899  2.1812 -2.6622
 2911TIP3    H2 8698   5.710   5.738   5.667  1.3147 -0.5649 -0.1927
 2912TIP3   OH2 8699   2.424   3.553   4.705 -0.2259 -0.4820 -0.7213
 2912TIP3    H1 8700   2.369   3.515   4.773 -0.1244 -0.1536 -0.4572
 2912TIP3    H2 8701   2.500   3.587   4.751 -0.6103  0.6162 -0.8752
 2913TIP3   OH2 8702   3.034   2.428   0.466 -0.0121 -0.3217 -0.1406
 2913TIP3    H1 8703   2.989   2.466   0.390 -0.5718  1.0674  0.8579
 2913TIP3    H2 8704   3.127   2.437   0.445 -0.1530 -0.9714 -1.1366
 2914TIP3   OH2 8705   3.836   1.428   5.758  0.4376  0.1933 -0.2459
 2914TIP3    H1 8706   3.799   1.366   5.821 -1.1587  0.4847 -0.8534
 2914TIP3    H2 8707   3.847   1.509   5.809 -0.9100  0.4476 -0.3165
 2915TIP3   OH2 8708   3.300   2.518   3.791 -0.2551 -0.2843  0.6866
 2915TIP3    H1 8709   3.392   2.519   3.768  0.0190 -0.0603  1.7253
 2915TIP3    H2 8710   3.297   2.559   3.878 -1.1744 -1.4246  1.2204
 2916TIP3   OH2 8711   3.439   2.302   5.609 -0.6135 -0.1751  0.4316
 2916TIP3    H1 8712   3.414   2.290   5.517  1.1294  1.1870 -0.2824
 2916TIP3    H2 8713   3.515   2.246   5.621 -0.6230 -0.0853  0.9424
 2917TIP3   OH2 8714   1.545   3.150   3.274 -0.3681  0.0841 -0.4516
 2917TIP3    H1 8715   1.475   3.212   3.296  0.3033  0.2695  1.3202
 2917TIP3    H2 8716   1.500   3.078   3.229 -1.5289  0.6942 -0.3075
 2918TIP3   OH2 8717   1.578   0.828   5.914 -0.3579  0.3798 -0.0421
 2918TIP3    H1 8718   1.598   0.751   5.862 -1.3225  0.2054 -0.1846
 2918TIP3    H2 8719   1.546   0.892   5.850  0.0445  0.7499  0.1279
 2919TIP3   OH2 8720   3.908   5.245   3.990 -0.0227  0.2560  0.4182
 2919TIP3    H1 8721   4.003   5.240   4.002  0.2010 -0.9355 -1.4551
 2919TIP3    H2 8722   3.896   5.240   3.895 -2.0500 -1.3137  0.7030
 2920TIP3   OH2 8723   2.378   0.111   4.455  0.1987 -0.2517  0.5295
 2920TIP3    H1 8724   2.362   0.085   4.364  1.9475 -0.8673  0.3656
 2920TIP3    H2 8725   2.337   0.043   4.507  0.3050 -0.5888  0.1757
 2921TIP3   OH2 8726   4.386   0.503   2.674  1.0203 -0.0688  0.1084
 2921TIP3    H1 8727   4.396   0.462   2.760 -0.4718 -0.1133  0.2854
 2921TIP3    H2 8728   4.472   0.495   2.634  1.3909 -1.2491  1.0701
 2922TIP3   OH2 8729   6.353   5.939   5.504 -0.7767 -0.5924 -0.3555
 2922TIP3    H1 8730   6.305   6.008   5.550  3.4728  1.9018  0.9113
 2922TIP3    H2 8731   6.386   5.982   5.425  2.0959 -0.9480  0.5264
 2923TIP3   OH2 8732   5.290   2.446   1.069 -0.0240  0.4479 -0.3965
 2923TIP3    H1 8733   5.287   2.541   1.076  2.5411  0.5693  0.0744
 2923TIP3    H2 8734   5.375   2.428   1.029 -1.5174 -1.5753 -2.9997
 2924TIP3   OH2 8735   0.235   3.238   0.507 -0.1976 -0.6923 -0.1993
 2924TIP3    H1 8736   0.222   3.274   0.419 -0.7581 -1.2241 -0.3425
 2924TIP3    H2 8737   0.172   3.286   0.562 -0.7944 -1.3036 -0.3489
 2925TIP3   OH2 8738   6.894   1.946   5.764  0.1065 -0.1404 -0.2778
 2925TIP3    H1 8739   6.808   1.912   5.743 -0.3218  0.5089  0.3594
 2925TIP3    H2 8740   6.922   1.992   5.685  0.7399 -2.0070 -1.1821
 2926TIP3   OH2 8741   5.478   5.266   2.488 -0.0835 -0.2620 -0.2282
 2926TIP3    H1 8742   5.403   5.218   2.524 -2.0397  0.4038 -3.0838
 2926TIP3    H2 8743   5.440   5.322   2.420  2.7504  1.8565 -0.2127
 2927TIP3   OH2 8744   0.266   3.792   4.929  0.0098  0.4401  0.4377
 2927TIP3    H1 8745   0.271   3.861   4.863 -0.3292  0.3194  0.2869
 2927TIP3    H2 8746   0.358   3.772   4.949  0.1358  1.7493  1.3455
 2928TIP3   OH2 8747   6.865   1.542   0.235  0.1245 -0.3129 -0.2275
 2928TIP3    H1 8748   6.844   1.625   0.277 -0.2879 -0.4758 -0.1105
 2928TIP3    H2 8749   6.827   1.548   0.148 -1.5189 -1.0780  0.3870
 2929TIP3   OH2 8750   4.194   6.183   2.506 -0.0107 -0.1301 -0.7938
 2929TIP3    H1 8751   4.232   6.123   2.570 -1.2517 -0.3662 -0.2543
 2929TIP3    H2 8752   4.250   6.261   2.510  1.4967 -1.1266 -1.3585
 2930TIP3   OH2 8753   4.372   2.095   2.296 -0.0540 -0.3868  0.1515
 2930TIP3    H1 8754   4.287   2.051   2.310  0.1935 -1.0335 -0.3161
 2930TIP3    H2 8755   4.389   2.140   2.378 -1.4738  0.8465 -0.1831
 2931TIP3   OH2 8756   3.637   1.872   0.568  0.3227 -0.3753 -0.2606
 2931TIP3    H1 8757   3.614   1.793   0.616 -0.9003  0.3206  0.3279
 2931TIP3    H2 8758   3.681   1.927   0.632 -1.0616  0.4378  0.0261
 2932TIP3   OH2 8759   5.052   3.950   4.295  0.2872  0.4525  0.2436
 2932TIP3    H1 8760   5.066   3.858   4.274  1.7037  0.7137 -0.0575
 2932TIP3    H2 8761   5.108   3.965   4.372  1.4896  1.4708 -0.7862
 2933TIP3   OH2 8762   1.515   4.703   1.835  0.2834 -0.4457  0.3620
 2933TIP3    H1 8763   1.607   4.680   1.849  0.6298 -0.8162 -2.0667
 2933TIP3    H2 8764   1.517   4.765   1.762 -1.2437  1.5083  1.8716
 2934TIP3   OH2 8765   2.792   5.281   4.990  0.0062 -0.0041  0.3286
 2934TIP3    H1 8766   2.737   5.307   4.917  0.8053 -0.9737 -0.6621
 2934TIP3    H2 8767   2.776   5.187   5.000  1.0825 -0.2039  0.3374
 2935TIP3   OH2 8768   5.289   2.739   1.070  0.3687  0.3591 -0.3546
 2935TIP3    H1 8769   5.297   2.776   1.158  2.0979 -1.4022  0.3041
 2935TIP3    H2 8770   5.329   2.804   1.013  1.4623  0.4445  0.4880
 2936TIP3   OH2 8771   1.150   4.894   5.155  0.0182  0.5080  0.0109
 2936TIP3    H1 8772   1.116   4.981   5.179  0.0177  0.5257 -0.0535
 2936TIP3    H2 8773   1.143   4.891   5.060 -0.0644  0.4019  0.0204
 2937TIP3   OH2 8774   7.174   5.516   3.315  0.2453 -0.2615  0.1831
 2937TIP3    H1 8775   7.150   5.461   3.240 -2.6176 -0.9115  1.4373
 2937TIP3    H2 8776   7.229   5.459   3.369  1.7755 -0.0067 -1.0515
 2938TIP3   OH2 8777   6.835   5.773   3.044 -0.5774  0.0941 -0.7036
 2938TIP3    H1 8778   6.751   5.818   3.057 -0.7129 -0.1297 -0.7979
 2938TIP3    H2 8779   6.901   5.839   3.067 -0.7934 -0.3913  1.6129
 2939TIP3   OH2 8780   5.180   3.528   3.067  0.0621 -0.3289  0.2207
 2939TIP3    H1 8781   5.132   3.610   3.075 -1.2217 -1.1339  1.0196
 2939TIP3    H2 8782   5.118   3.467   3.030  0.5160 -1.3413  1.0839
 2940TIP3   OH2 8783   3.563   2.166   2.574 -0.1184  0.2049 -0.6623
 2940TIP3    H1 8784   3.506   2.118   2.514 -0.7820  1.4597 -1.0812
 2940TIP3    H2 8785   3.507   2.235   2.609  0.3313 -0.3105  1.2035
 2941TIP3   OH2 8786   0.914   6.338   5.513 -0.1964 -0.3310  0.0484
 2941TIP3    H1 8787   0.912   6.310   5.604  0.0427  0.1208  0.1987
 2941TIP3    H2 8788   0.893   6.432   5.517  0.8978 -0.0531 -0.2413
 2942TIP3   OH2 8789   4.712   6.728   5.115  0.0999  0.6417 -0.3534
 2942TIP3    H1 8790   4.677   6.684   5.193 -2.0467  1.2662 -0.9052
 2942TIP3    H2 8791   4.680   6.677   5.042  0.7316  0.9989 -0.8901
 2943TIP3   OH2 8792   2.866   5.685   5.090  0.3624  0.1820 -0.1619
 2943TIP3    H1 8793   2.817   5.638   5.158 -0.3903  0.4932 -0.4797
 2943TIP3    H2 8794   2.811   5.677   5.012  0.1309  1.7278 -0.1884
 2944TIP3   OH2 8795   0.783   6.119   0.290 -0.4498  0.3518  0.4514
 2944TIP3    H1 8796   0.699   6.146   0.252 -0.0810  2.9691  1.2559
 2944TIP3    H2 8797   0.849   6.156   0.230  0.1894 -1.6829 -0.1837
 2945TIP3   OH2 8798   2.935   4.781   2.135 -0.4856 -0.5313 -0.6783
 2945TIP3    H1 8799   3.001   4.829   2.183  1.2887 -0.8822 -2.6241
 2945TIP3    H2 8800   2.955   4.689   2.151 -0.6855 -0.6405 -1.0379
 2946TIP3   OH2 8801   3.818   3.224   1.704 -0.3223  0.1533 -0.0002
 2946TIP3    H1 8802   3.877   3.255   1.772  0.1673 -0.5534 -0.1014
 2946TIP3    H2 8803   3.795   3.303   1.655 -0.9422  0.7252  1.1709
 2947TIP3   OH2 8804   7.043   6.754   2.083  0.3339 -0.1828  0.6447
 2947TIP3    H1 8805   7.019   6.830   2.135 -3.1715 -1.1290  0.6675
 2947TIP3    H2 8806   7.057   6.789   1.995 -4.3833  0.4404 -0.1637
 2948TIP3   OH2 8807   7.068   5.034   4.093  0.0669 -0.8292  0.0981
 2948TIP3    H1 8808   7.144   4.990   4.130 -0.3805  0.5320  2.8839
 2948TIP3    H2 8809   7.099   5.121   4.070 -0.3409 -0.7260 -0.0800
 2949TIP3   OH2 8810   6.636   2.556   5.061  0.0339 -0.7232  0.0575
 2949TIP3    H1 8811   6.638   2.607   5.143 -0.1893  0.2306 -0.5107
 2949TIP3    H2 8812   6.569   2.490   5.076 -1.2990  0.5670  0.0219
 2950TIP3   OH2 8813   2.553   4.664   1.473 -0.1342 -0.1969  0.5561
 2950TIP3    H1 8814   2.466   4.690   1.503 -0.8351 -2.7931  1.0209
 2950TIP3    H2 8815   2.610   4.682   1.547 -0.4403  0.5100  0.6378
 2951TIP3   OH2 8816   3.523   3.400   2.893  0.9592 -0.1498  0.0251
 2951TIP3    H1 8817   3.598   3.349   2.923  1.5777 -0.0975 -1.3271
 2951TIP3    H2 8818   3.479   3.344   2.829  2.1117  1.1924 -2.0985
 2952TIP3   OH2 8819   1.466   4.562   2.152  0.1368  0.8981  0.0133
 2952TIP3    H1 8820   1.484   4.504   2.078 -0.3617  0.0926  0.5124
 2952TIP3    H2 8821   1.398   4.517   2.202  1.7762  0.4706  2.0146
 2953TIP3   OH2 8822   3.240   5.450   1.223 -0.1730  0.0564 -0.0555
 2953TIP3    H1 8823   3.193   5.532   1.209  0.2514  0.3695  0.3475
 2953TIP3    H2 8824   3.329   5.476   1.247 -0.3608 -0.4700  1.3566
 2954TIP3   OH2 8825   1.909   4.842   1.386 -0.4628  0.4844 -0.7019
 2954TIP3    H1 8826   1.867   4.800   1.311 -0.4422  0.7058 -0.8378
 2954TIP3    H2 8827   1.846   4.831   1.458 -1.0161  1.3235 -1.0467
 2955TIP3   OH2 8828   3.087   5.754   3.311  0.1669  0.3001  0.3906
 2955TIP3    H1 8829   3.055   5.772   3.400  4.0612  2.5777  1.6099
 2955TIP3    H2 8830   3.016   5.782   3.254 -1.9927 -0.0144  2.7048
 2956TIP3   OH2 8831   7.089   0.135   4.320 -0.1070  0.3889 -0.4124
 2956TIP3    H1 8832   7.086   0.117   4.226 -0.6122 -1.6480 -0.0367
 2956TIP3    H2 8833   7.172   0.181   4.332 -0.1478  0.9021 -1.8758
 2957TIP3   OH2 8834   0.639   0.232   1.522 -0.0414  0.1518 -0.1751
 2957TIP3    H1 8835   0.546   0.215   1.504 -0.3981  0.5305  1.1727
 2957TIP3    H2 8836   0.657   0.315   1.478 -0.5068  0.3666  0.0226
 2958TIP3   OH2 8837   1.901   0.188   3.645 -0.1564 -0.1525 -0.2886
 2958TIP3    H1 8838   1.982   0.144   3.669  1.0031  0.8472 -2.0920
 2958TIP3    H2 8839   1.832   0.133   3.680  1.2905 -1.2634  0.9294
 2959TIP3   OH2 8840   6.575   0.158   5.555 -0.0992 -0.0179  0.5488
 2959TIP3    H1 8841   6.653   0.211   5.537 -1.8284  2.4398 -0.2194
 2959TIP3    H2 8842   6.585   0.131   5.646  0.7258  2.0044  1.1173
 2960TIP3   OH2 8843   2.154   5.527   5.250  0.1026 -0.1446  0.1615
 2960TIP3    H1 8844   2.149   5.462   5.320 -3.6974  0.7683  0.9401
 2960TIP3    H2 8845   2.154   5.475   5.169 -2.7163 -1.2372  0.7599
 2961TIP3   OH2 8846   2.174   5.469   4.123  0.0356 -0.0724  0.3483
 2961TIP3    H1 8847   2.099   5.459   4.064  0.2381 -2.0641  0.3408
 2961TIP3    H2 8848   2.251   5.464   4.066  0.2221 -1.5351  0.6949
 2962TIP3   OH2 8849   3.178   1.709   4.325 -0.0520  0.1573 -0.1350
 2962TIP3    H1 8850   3.149   1.797   4.350  1.3048  1.2448 -2.1428
 2962TIP3    H2 8851   3.124   1.687   4.249  0.0498 -0.5150 -0.0221
 2963TIP3   OH2 8852   2.420   5.992   3.291  0.1184  0.5770 -0.6238
 2963TIP3    H1 8853   2.495   6.052   3.292  0.9157 -0.3833 -1.0709
 2963TIP3    H2 8854   2.411   5.963   3.381  1.2269 -0.4179 -0.8129
 2964TIP3   OH2 8855   6.928   4.511   3.666  0.2490 -0.4794  0.3669
 2964TIP3    H1 8856   6.958   4.453   3.736  1.8090 -0.2647 -0.0741
 2964TIP3    H2 8857   6.940   4.600   3.701  1.7451 -0.3434 -0.3731
 2965TIP3   OH2 8858   5.671   0.400   1.489 -0.3856  0.5534 -0.3483
 2965TIP3    H1 8859   5.665   0.471   1.553 -2.7338  0.9729 -0.9373
 2965TIP3    H2 8860   5.662   0.320   1.541  1.2872  0.6959  0.2064
 2966TIP3   OH2 8861   6.353   0.164   2.297  0.1837 -0.1420 -0.4532
 2966TIP3    H1 8862   6.344   0.257   2.318  1.0762  0.0588 -0.9182
 2966TIP3    H2 8863   6.311   0.154   2.211  1.3177  0.1218 -1.0537
 2967TIP3   OH2 8864   2.868   0.088   2.429 -0.8033  0.5485  0.0295
 2967TIP3    H1 8865   2.806   0.023   2.395  0.7252 -0.8409 -0.2374
 2967TIP3    H2 8866   2.926   0.106   2.354  0.3448  0.2455  0.8107
 2968TIP3   OH2 8867   0.010   5.233   5.123 -0.2958  0.5780 -0.6676
 2968TIP3    H1 8868   0.092   5.215   5.075 -0.3122  1.1539 -0.9226
 2968TIP3    H2 8869   0.028   5.204   5.212 -1.0212 -2.6957 -1.4270
 2969TIP3   OH2 8870   6.763   0.825   5.367  0.6491  0.4037 -0.5946
 2969TIP3    H1 8871   6.700   0.875   5.317  1.3857  1.0174 -0.9277
 2969TIP3    H2 8872   6.751   0.853   5.457 -1.3397 -1.3952 -0.2253
 2970TIP3   OH2 8873   2.604   0.144   1.190  0.2355  0.3112 -0.2205
 2970TIP3    H1 8874   2.554   0.213   1.146 -1.3221 -0.0226  0.9506
 2970TIP3    H2 8875   2.610   0.173   1.281  1.7818  0.0914 -0.2365
 2971TIP3   OH2 8876   0.582   4.765   3.282 -1.3173 -0.1909 -0.3348
 2971TIP3    H1 8877   0.533   4.816   3.347 -0.3462  1.1596 -0.5990
 2971TIP3    H2 8878   0.563   4.808   3.198  0.6531  0.7493 -0.3867
 2972TIP3   OH2 8879   1.857   4.581   3.976  0.1431  0.3722  0.0179
 2972TIP3    H1 8880   1.924   4.515   3.958  0.0633  0.3316 -0.1301
 2972TIP3    H2 8881   1.891   4.661   3.934 -0.1059  0.2450 -0.4322
 2973TIP3   OH2 8882   7.087   5.698   5.804  0.0938  0.4173 -0.3450
 2973TIP3    H1 8883   7.176   5.670   5.820 -0.1127  0.4405  0.9337
 2973TIP3    H2 8884   7.046   5.625   5.757  0.5733  0.1159 -0.2941
 2974TIP3   OH2 8885   4.861   5.031   2.127 -0.5908 -0.6517  0.1559
 2974TIP3    H1 8886   4.854   5.121   2.159  0.3383  0.4406 -2.4528
 2974TIP3    H2 8887   4.908   4.984   2.196  1.5423  1.5898  0.3440
 2975TIP3   OH2 8888   0.256   4.707   0.218 -0.8192 -0.3455  0.0718
 2975TIP3    H1 8889   0.287   4.690   0.307 -0.2697  0.6104  0.0718
 2975TIP3    H2 8890   0.203   4.630   0.196  1.7941 -2.2479 -0.0527
 2976TIP3   OH2 8891   5.964   5.236   5.189 -0.1884 -0.2038 -0.4502
 2976TIP3    H1 8892   5.910   5.157   5.193 -0.5964  0.1159  0.6644
 2976TIP3    H2 8893   6.033   5.221   5.253  0.4570 -0.1727 -1.1282
 2977TIP3   OH2 8894   5.628   3.308   3.735  0.2343  0.7118 -0.0500
 2977TIP3    H1 8895   5.637   3.396   3.700  2.3142  0.8712  0.7853
 2977TIP3    H2 8896   5.537   3.284   3.715  0.2773  2.1479 -2.2810
 2978TIP3   OH2 8897   2.765   1.312   0.153 -0.6475  0.5920  0.1045
 2978TIP3    H1 8898   2.822   1.374   0.107 -0.1806 -1.0233 -1.5840
 2978TIP3    H2 8899   2.704   1.281   0.086 -0.0979 -1.6772  0.5798
 2979TIP3   OH2 8900   1.836   1.921   1.702 -0.4049  0.4240  0.2251
 2979TIP3    H1 8901   1.753   1.886   1.734  0.1557 -0.9623  0.2196
 2979TIP3    H2 8902   1.858   1.991   1.763  0.0414 -1.3653  2.2134
 2980TIP3   OH2 8903   6.975   0.699   3.949  0.4615  0.5058 -0.1360
 2980TIP3    H1 8904   6.967   0.737   4.037 -0.2522  0.4293 -0.1640
 2980TIP3    H2 8905   7.067   0.710   3.927  0.7233  0.2384  0.7612
 2981TIP3   OH2 8906   0.091   1.693   0.151 -0.3367  0.3316 -0.3288
 2981TIP3    H1 8907   0.118   1.732   0.234  0.4803  0.9736 -0.8774
 2981TIP3    H2 8908   0.005   1.731   0.133 -0.1369  0.8495 -0.1941
 2982TIP3   OH2 8909   2.878   0.417   3.857  0.3251  0.3765  0.1663
 2982TIP3    H1 8910   2.870   0.450   3.946  1.4248  0.2285  0.3294
 2982TIP3    H2 8911   2.857   0.493   3.802 -1.6637  0.1457  0.5074
 2983TIP3   OH2 8912   6.990   2.899   3.067 -0.0425 -0.0667  0.1243
 2983TIP3    H1 8913   6.929   2.913   2.995 -0.7937 -0.7714  0.6016
 2983TIP3    H2 8914   7.015   2.807   3.060  0.8078  0.1548  0.0721
 2984TIP3   OH2 8915   0.401   1.933   4.697 -0.1753 -0.0180  0.3729
 2984TIP3    H1 8916   0.315   1.974   4.685 -0.3228 -1.0727 -3.2101
 2984TIP3    H2 8917   0.382   1.839   4.705  0.5507 -0.0477  2.6536
 2985TIP3   OH2 8918   3.800   3.087   5.028  0.2685  0.3605  0.1729
 2985TIP3    H1 8919   3.889   3.054   5.042  1.1136  2.2125 -0.4838
 2985TIP3    H2 8920   3.799   3.172   5.073 -1.1453  0.4124  0.0777
 2986TIP3   OH2 8921   4.787   4.247   5.472  0.1376  0.4174 -0.6192
 2986TIP3    H1 8922   4.704   4.200   5.476  0.0495  0.5710 -0.6595
 2986TIP3    H2 8923   4.765   4.338   5.492  0.2675  0.4930 -0.8156
 2987TIP3   OH2 8924   0.099   4.747   1.757 -0.1837  0.0260  0.5282
 2987TIP3    H1 8925   0.124   4.813   1.823  0.7162  0.1681  0.0604
 2987TIP3    H2 8926   0.031   4.696   1.799 -0.2463  0.6816  1.2478
 2988TIP3   OH2 8927   1.944   4.194   4.186 -0.2067 -0.1083 -0.6324
 2988TIP3    H1 8928   1.977   4.274   4.227 -1.2726  0.7584 -1.4120
 2988TIP3    H2 8929   1.947   4.129   4.256 -0.1175  0.8187  0.2642
 2989TIP3   OH2 8930   6.599   3.396   0.377  0.3221 -0.2244 -0.7947
 2989TIP3    H1 8931   6.563   3.436   0.298  0.6581 -0.3354 -1.0050
 2989TIP3    H2 8932   6.682   3.442   0.392  0.0403  0.1145 -0.2438
 2990TIP3   OH2 8933   6.588   2.861   0.565 -0.0912 -0.5634  0.3958
 2990TIP3    H1 8934   6.533   2.885   0.490 -0.8603  1.7733  1.6010
 2990TIP3    H2 8935   6.645   2.793   0.531 -1.3552 -0.6018 -1.9150
 2991TIP3   OH2 8936   5.411   4.977   5.317 -0.2601 -0.6525 -0.1457
 2991TIP3    H1 8937   5.397   5.060   5.272 -0.4452 -0.7641 -0.2967
 2991TIP3    H2 8938   5.397   4.911   5.249  0.0579 -0.8009 -0.0683
 2992TIP3   OH2 8939   4.402   5.829   5.804  0.3737 -0.2132 -0.4117
 2992TIP3    H1 8940   4.336   5.761   5.797 -0.0707 -0.0019  1.2259
 2992TIP3    H2 8941   4.408   5.867   5.716 -0.1802 -1.5928 -1.0663
 2993TIP3   OH2 8942   4.145   4.007   0.869 -0.4760  0.4248  0.6866
 2993TIP3    H1 8943   4.227   4.007   0.919 -1.1285  2.5398  1.9022
 2993TIP3    H2 8944   4.169   3.972   0.784  1.7025  0.9611  1.0204
 2994TIP3   OH2 8945   5.040   5.829   4.686 -0.0789  0.4554 -0.2142
 2994TIP3    H1 8946   5.065   5.738   4.671  2.1059  1.0774 -0.6704
 2994TIP3    H2 8947   5.118   5.879   4.664 -0.6378  2.3267  1.7241
 2995TIP3   OH2 8948   4.292   3.795   1.935  0.4177 -0.0854 -0.5949
 2995TIP3    H1 8949   4.205   3.817   1.903 -0.3455 -1.2884  0.5388
 2995TIP3    H2 8950   4.333   3.747   1.863  0.4625  1.1637 -1.4268
 2996TIP3   OH2 8951   2.708   2.242   3.724  0.3582  0.7170  0.7076
 2996TIP3    H1 8952   2.743   2.219   3.809 -0.1123 -1.0776  0.4544
 2996TIP3    H2 8953   2.744   2.176   3.664 -0.2677  1.2287 -0.2643
 2997TIP3   OH2 8954   5.193   6.326   3.031  0.0810  0.8098  0.2966
 2997TIP3    H1 8955   5.108   6.312   3.073  2.0977 -2.4023  3.9760
 2997TIP3    H2 8956   5.185   6.284   2.945 -1.7901 -0.3658  0.9868
 2998TIP3   OH2 8957   6.501   4.199   5.289  0.4960  0.2757  0.2752
 2998TIP3    H1 8958   6.482   4.107   5.272  1.0528  0.4956 -1.8246
 2998TIP3    H2 8959   6.569   4.198   5.356  1.0150 -0.8713 -0.2472
 2999TIP3   OH2 8960   6.733   1.789   4.822  0.0675  0.2663  0.0236
 2999TIP3    H1 8961   6.672   1.852   4.784 -0.6928  0.5073  1.5500
 2999TIP3    H2 8962   6.682   1.746   4.892  1.5559  0.3175  1.1873
 3000TIP3   OH2 8963   1.365   0.511   1.636 -0.3984  0.2363  0.2033
 3000TIP3    H1 8964   1.403   0.518   1.724  1.4594 -1.3752 -0.3819
 3000TIP3    H2 8965   1.318   0.427   1.638 -1.3979  0.7855  0.0088
 3001TIP3   OH2 8966   2.957   5.316   3.734  0.1052 -0.0826  0.6812
 3001TIP3    H1 8967   2.909   5.384   3.782  0.3412  0.7216 -0.1957
 3001TIP3    H2 8968   3.047   5.324   3.765  0.9494  2.4573 -1.8904
 3002TIP3   OH2 8969   5.912   4.825   3.214  0.0446 -0.4809  0.1159
 3002TIP3    H1 8970   5.939   4.879   3.140  0.2009  0.4864  0.8475
 3002TIP3    H2 8971   5.923   4.882   3.290 -0.0797 -1.4578  0.8891
 3003TIP3   OH2 8972   2.787   2.715   2.784 -0.3517 -0.4752 -0.2075
 3003TIP3    H1 8973   2.757   2.754   2.702  1.4505 -0.1800 -0.7784
 3003TIP3    H2 8974   2.832   2.634   2.757 -1.9084 -1.7292  0.7469
 3004TIP3   OH2 8975   0.780   1.999   5.544  0.7645 -0.2625  0.3077
 3004TIP3    H1 8976   0.839   2.064   5.507 -0.6804  0.7872 -0.2501
 3004TIP3    H2 8977   0.790   1.922   5.488  3.2220 -0.9385  1.5617
 3005TIP3   OH2 8978   3.361   6.457   0.764 -1.0145 -0.0298 -0.0595
 3005TIP3    H1 8979   3.327   6.547   0.764 -1.3747 -0.1439 -1.3481
 3005TIP3    H2 8980   3.409   6.450   0.682 -1.2339 -1.1133 -0.1003
 3006TIP3   OH2 8981   2.530   1.027   0.247  0.3456 -0.1340 -0.3193
 3006TIP3    H1 8982   2.511   1.120   0.253 -0.5392 -0.3491  0.5285
 3006TIP3    H2 8983   2.590   1.010   0.320 -2.2993 -0.8522  1.8219
 3007TIP3   OH2 8984   5.011   0.894   2.798  0.0100  0.4554  0.2083
 3007TIP3    H1 8985   4.998   0.945   2.878  0.9835  0.8096  0.1632
 3007TIP3    H2 8986   4.935   0.913   2.745 -0.8698 -0.1245  1.2262
 3008TIP3   OH2 8987   5.146   1.166   0.494  0.1247  0.2247  0.4690
 3008TIP3    H1 8988   5.055   1.181   0.518  0.2070  0.3369  0.7143
 3008TIP3    H2 8989   5.189   1.140   0.576  0.4476  0.8072  0.4868
 3009TIP3   OH2 8990   5.265   4.551   3.018  0.2068 -0.5857  0.2082
 3009TIP3    H1 8991   5.236   4.504   2.940 -0.9603  0.5098 -0.0422
 3009TIP3    H2 8992   5.293   4.637   2.985  0.1586 -0.2834  0.9328
 3010TIP3   OH2 8993   3.881   1.983   2.151  0.1282  0.0142 -0.1385
 3010TIP3    H1 8994   3.855   1.901   2.108 -0.9521  1.0911 -1.6219
 3010TIP3    H2 8995   3.836   1.980   2.235  0.4131 -1.0858 -0.0039
 3011TIP3   OH2 8996   3.314   0.955   2.364 -0.2271  0.1253  0.5339
 3011TIP3    H1 8997   3.384   0.944   2.300 -1.1635  0.1334 -0.5437
 3011TIP3    H2 8998   3.358   0.961   2.448  1.0949  0.6184 -0.1614
 3012TIP3   OH2 8999   3.496   3.427   1.353 -0.7134  0.0218 -0.7915
 3012TIP3    H1 9000   3.461   3.388   1.273 -0.2600  0.0381 -0.9964
 3012TIP3    H2 9001   3.574   3.473   1.325  0.1993 -1.0834 -0.1307
 3013TIP3   OH2 9002   0.048   6.344   4.861  0.6208  0.7640 -0.2430
 3013TIP3    H1 9003  -0.045   6.366   4.863  1.1595  3.3850 -0.5569
 3013TIP3    H2 9004   0.054   6.270   4.800 -1.1238  1.2702 -1.0956
 3014TIP3   OH2 9005   5.608   4.714   4.231  0.0677 -0.5733 -0.0927
 3014TIP3    H1 9006   5.616   4.797   4.183  1.9714 -0.7211 -0.1296
 3014TIP3    H2 9007   5.699   4.688   4.248 -0.4945 -2.4830  0.2164
 3015TIP3   OH2 9008   6.470   2.851   4.468  0.4985 -0.3556 -0.9617
 3015TIP3    H1 9009   6.538   2.798   4.425  0.5925 -0.2352 -0.9606
 3015TIP3    H2 9010   6.517   2.901   4.535  0.1507 -1.6355  0.3082
 3016TIP3   OH2 9011   0.675   2.695   0.926  0.0762 -0.4290 -0.6575
 3016TIP3    H1 9012   0.599   2.650   0.891 -1.1786  0.8868  0.2762
 3016TIP3    H2 9013   0.662   2.787   0.904  1.7073 -0.2416 -0.9889
 3017TIP3   OH2 9014   3.270   5.326   0.694 -0.2421  0.2759 -0.6787
 3017TIP3    H1 9015   3.303   5.392   0.754 -0.7532  0.8775 -1.0422
 3017TIP3    H2 9016   3.293   5.359   0.607 -1.2169  0.3864 -0.9046
 3018TIP3   OH2 9017   5.373   5.588   1.504 -0.2725  0.8075  0.3817
 3018TIP3    H1 9018   5.432   5.658   1.474  2.8746 -1.4485  0.7966
 3018TIP3    H2 9019   5.323   5.628   1.576  0.3803  3.0021 -0.3047
 3019TIP3   OH2 9020   6.650   2.639   1.465  0.0722  0.7104 -0.1282
 3019TIP3    H1 9021   6.681   2.573   1.528 -1.9447  0.1704  0.3981
 3019TIP3    H2 9022   6.604   2.588   1.398 -0.3471  1.4917 -0.4471
 3020TIP3   OH2 9023   0.833   1.353   2.060 -0.1249 -0.3071  0.0003
 3020TIP3    H1 9024   0.876   1.344   1.975 -0.6577 -1.1495 -0.1974
 3020TIP3    H2 9025   0.882   1.296   2.119 -1.3298 -1.7929 -0.3831
 3021TIP3   OH2 9026   0.275   6.390   1.756 -0.1069 -0.7265  0.1384
 3021TIP3    H1 9027   0.253   6.440   1.834 -1.9431 -2.3560  0.7713
 3021TIP3    H2 9028   0.295   6.302   1.789 -0.5050 -1.3384 -1.1785
 3022TIP3   OH2 9029   4.691   1.316   1.457 -0.6618 -0.6929 -0.2802
 3022TIP3    H1 9030   4.618   1.372   1.430  0.8944  1.6462  0.0683
 3022TIP3    H2 9031   4.764   1.344   1.402  0.8525 -0.4594  1.7445
 3023TIP3   OH2 9032   2.314   3.492   1.133  0.1673 -0.0371 -0.3920
 3023TIP3    H1 9033   2.406   3.506   1.114  0.4650 -0.0499  0.9237
 3023TIP3    H2 9034   2.285   3.573   1.176  0.0693 -0.6937  0.8470
 3024TIP3   OH2 9035   5.756   0.541   4.176 -0.2905  0.2028  0.0410
 3024TIP3    H1 9036   5.700   0.486   4.121  1.7215 -0.3098 -1.6177
 3024TIP3    H2 9037   5.844   0.506   4.163  0.3047 -0.1471  3.9021
 3025TIP3   OH2 9038   4.296   4.844   4.666 -0.0321  0.1752 -0.7402
 3025TIP3    H1 9039   4.241   4.793   4.606  1.8445 -1.1051 -1.4549
 3025TIP3    H2 9040   4.360   4.781   4.699  0.9841  1.6043  0.1104
 3026TIP3   OH2 9041   1.735   0.516   1.402  0.5787 -0.1614  0.0045
 3026TIP3    H1 9042   1.655   0.552   1.361  1.1050  1.1588  0.0724
 3026TIP3    H2 9043   1.703   0.467   1.477 -0.2275 -0.3849 -0.4657
 3027TIP3   OH2 9044   4.237   1.328   2.871 -0.1844 -0.0481  0.5075
 3027TIP3    H1 9045   4.189   1.311   2.790  0.1832 -0.0482  0.2833
 3027TIP3    H2 9046   4.201   1.410   2.904 -1.0466 -0.5720  0.8906
 3028TIP3   OH2 9047   0.112   1.364   0.570 -0.4498 -0.4618  0.1299
 3028TIP3    H1 9048   0.084   1.392   0.483  0.8117 -1.3092 -0.5889
 3028TIP3    H2 9049   0.205   1.344   0.560 -0.0299  0.3897  1.9358
 3029TIP3   OH2 9050   5.253   1.026   2.157 -0.0135 -1.0065  0.1306
 3029TIP3    H1 9051   5.297   1.103   2.192 -1.3203 -1.3735  2.8613
 3029TIP3    H2 9052   5.322   0.979   2.109  0.5469  2.3269 -2.7281
 3030TIP3   OH2 9053   2.249   3.167   2.014 -0.4329  0.6080 -0.2564
 3030TIP3    H1 9054   2.248   3.239   2.077 -1.5802  0.4935 -0.1261
 3030TIP3    H2 9055   2.335   3.172   1.973 -0.2810  1.6864  0.1739
 3031TIP3   OH2 9056   3.772   1.175   3.069  0.0452 -0.5347  0.1193
 3031TIP3    H1 9057   3.688   1.135   3.091  0.0849 -0.8314 -0.2560
 3031TIP3    H2 9058   3.754   1.224   2.988  0.3804 -1.1080 -0.3066
 3032TIP3   OH2 9059   7.000   2.654   3.447 -0.0582  0.7954  0.0948
 3032TIP3    H1 9060   7.073   2.679   3.390  1.1046 -1.2899  0.5529
 3032TIP3    H2 9061   7.030   2.676   3.535  0.3609 -0.7446  0.3561
 3033TIP3   OH2 9062   4.176   3.751   1.495 -0.0404 -0.2674 -0.1398
 3033TIP3    H1 9063   4.205   3.717   1.580  1.3880  0.7810 -0.1618
 3033TIP3    H2 9064   4.227   3.701   1.431  0.8907  0.7473 -0.2324
 3034TIP3   OH2 9065   1.071   4.588   3.439 -0.6251  0.3691  0.2598
 3034TIP3    H1 9066   1.133   4.631   3.497 -2.2137  1.3481  1.3235
 3034TIP3    H2 9067   1.072   4.640   3.359 -0.0409  0.3548  0.2606
 3035TIP3   OH2 9068   3.285   4.805   0.418  0.5083  0.7373 -0.0784
 3035TIP3    H1 9069   3.314   4.882   0.468  0.8339  0.0444  0.8185
 3035TIP3    H2 9070   3.343   4.735   0.446 -1.6461 -0.5829  1.3619
 3036TIP3   OH2 9071   5.843   3.194   3.066  0.6684  0.1620  0.4531
 3036TIP3    H1 9072   5.815   3.270   3.118  0.4570 -0.1211  0.7568
 3036TIP3    H2 9073   5.763   3.166   3.021  0.6653 -0.1104  0.6314
 3037TIP3   OH2 9074   6.019   6.060   5.020 -0.4691  0.0867 -0.2229
 3037TIP3    H1 9075   5.924   6.064   5.006 -0.4571  0.9135 -0.1531
 3037TIP3    H2 9076   6.028   6.046   5.114 -0.5334  1.7055  0.0546
 3038TIP3   OH2 9077   0.067   2.446   2.011 -0.4514 -0.4289 -0.0501
 3038TIP3    H1 9078   0.068   2.350   2.006  1.7890 -0.4522 -0.1913
 3038TIP3    H2 9079   0.069   2.475   1.920  0.3669 -0.2953  0.0001
 3039TIP3   OH2 9080   5.774   5.979   3.540 -0.4104  0.1289 -1.1689
 3039TIP3    H1 9081   5.761   5.936   3.455 -1.6506  0.2474 -1.0638
 3039TIP3    H2 9082   5.839   6.047   3.523 -2.1179  1.5289 -2.5574
 3040TIP3   OH2 9083   7.177   0.566   1.699  0.4090  0.3220 -0.9155
 3040TIP3    H1 9084   7.110   0.592   1.636 -1.1785 -0.9418  0.1887
 3040TIP3    H2 9085   7.179   0.638   1.762 -1.3515 -0.4687  0.1117
 3041TIP3   OH2 9086   4.633   3.791   5.833 -0.0975 -0.0315  0.0271
 3041TIP3    H1 9087   4.648   3.775   5.926  1.3435 -2.6871 -0.5707
 3041TIP3    H2 9088   4.699   3.739   5.788 -0.9353  0.9290 -2.5302
 3042TIP3   OH2 9089   5.156   3.983   4.617  0.1443 -0.2182  0.2298
 3042TIP3    H1 9090   5.215   4.034   4.562 -1.2007  4.6032  2.6997
 3042TIP3    H2 9091   5.214   3.936   4.677  1.5017  0.4922 -0.4852
 3043TIP3   OH2 9092   5.422   4.712   3.266  0.0446  0.6697 -0.3345
 3043TIP3    H1 9093   5.418   4.617   3.262 -1.3940  0.7164 -0.5375
 3043TIP3    H2 9094   5.505   4.735   3.224  0.4099 -0.4860 -0.2637
 3044TIP3   OH2 9095   3.379   3.604   2.563  0.2271  0.0452  0.1855
 3044TIP3    H1 9096   3.411   3.522   2.600  1.4417 -0.5873 -2.0553
 3044TIP3    H2 9097   3.456   3.642   2.521 -1.0887  0.5077 -1.9370
 3045TIP3   OH2 9098   7.048   5.261   1.528  0.1090  0.3698  0.1901
 3045TIP3    H1 9099   7.124   5.316   1.548  1.1189  1.2870 -4.8137
 3045TIP3    H2 9100   7.085   5.179   1.496 -0.9514  0.3858 -1.1918
 3046TIP3   OH2 9101   1.849   3.040   0.929 -0.1174 -0.0922 -0.0613
 3046TIP3    H1 9102   1.943   3.052   0.912 -0.2413 -1.1067 -1.6703
 3046TIP3    H2 9103   1.841   3.049   1.024  1.6712 -0.3726  0.1609
 3047TIP3   OH2 9104   2.343   3.862   3.149 -0.6989  0.2299  0.1769
 3047TIP3    H1 9105   2.384   3.935   3.196 -2.5652  1.1563  0.4182
 3047TIP3    H2 9106   2.299   3.811   3.217  0.6929 -1.2541  0.0313
 3048TIP3   OH2 9107   4.782   0.540   3.731  0.1053 -0.8255 -0.3414
 3048TIP3    H1 9108   4.717   0.611   3.721  0.1805 -0.7830 -0.5307
 3048TIP3    H2 9109   4.786   0.499   3.645  0.9849 -0.2605 -0.5856
 3049TIP3   OH2 9110   2.739   1.589   5.547  0.2723  0.0887  0.1789
 3049TIP3    H1 9111   2.675   1.599   5.477 -0.0908  0.9301  0.6133
 3049TIP3    H2 9112   2.696   1.534   5.612  2.4230 -5.3033 -2.3969
 3050TIP3   OH2 9113   4.860   4.582   0.972  0.2213 -0.2987  0.6055
 3050TIP3    H1 9114   4.814   4.524   0.912 -0.1224 -0.7183  1.2554
 3050TIP3    H2 9115   4.826   4.669   0.954  0.1805 -0.4105  0.1399
 3051TIP3   OH2 9116   1.802   3.148   2.169 -0.0860  0.6889 -0.1992
 3051TIP3    H1 9117   1.797   3.196   2.251 -1.9183 -0.0809  0.1780
 3051TIP3    H2 9118   1.725   3.175   2.120 -0.2320 -0.5614 -0.6986
 3052TIP3   OH2 9119   2.290   2.933   0.683 -0.1090  0.3412  0.1347
 3052TIP3    H1 9120   2.327   3.017   0.711 -0.0828  0.3909 -0.0508
 3052TIP3    H2 9121   2.361   2.891   0.634 -0.5905  0.8251 -1.0132
 3053TIP3   OH2 9122   0.340   6.152   1.926  0.3690  0.1234  0.0066
 3053TIP3    H1 9123   0.360   6.126   2.016  0.9435  1.3626  0.2667
 3053TIP3    H2 9124   0.370   6.079   1.872  0.1712 -0.5559  0.8126
 3054TIP3   OH2 9125   3.140   1.972   5.430 -0.0617  0.2080  0.2146
 3054TIP3    H1 9126   3.053   1.985   5.393 -0.2750 -1.3121  0.1232
 3054TIP3    H2 9127   3.128   1.983   5.525 -0.6477 -1.2657  0.3365
 3055TIP3   OH2 9128   4.911   1.041   5.448  0.0818  0.5034 -0.1301
 3055TIP3    H1 9129   4.866   0.963   5.416 -0.5678  0.7888  0.0735
 3055TIP3    H2 9130   4.853   1.113   5.426  1.2021  1.0747 -1.3476
 3056TIP3   OH2 9131   0.636   3.469   4.802  0.0571 -0.5346  0.3371
 3056TIP3    H1 9132   0.686   3.475   4.721 -1.5070 -0.8994 -0.7184
 3056TIP3    H2 9133   0.640   3.377   4.826 -0.3227 -0.6221  0.0831
 3057TIP3   OH2 9134   5.517   2.317   1.382 -0.0848 -0.9290 -0.1572
 3057TIP3    H1 9135   5.443   2.260   1.358  0.1333 -0.7168 -1.4110
 3057TIP3    H2 9136   5.593   2.276   1.341  0.4741 -1.0142  0.9321
 3058TIP3   OH2 9137   6.070   0.192   1.599 -0.5358 -0.4920 -0.4535
 3058TIP3    H1 9138   6.006   0.158   1.662 -0.6571  0.1805 -0.2030
 3058TIP3    H2 9139   6.018   0.239   1.534 -0.3751 -0.8222 -0.8249
 3059TIP3   OH2 9140   4.668   1.849   1.762 -0.1881 -0.2858  0.4401
 3059TIP3    H1 9141   4.726   1.781   1.796 -1.5694 -1.4370  0.5627
 3059TIP3    H2 9142   4.667   1.915   1.832 -1.4989 -1.7522  1.9005
 3060TIP3   OH2 9143   5.810   3.610   5.824 -0.3193 -0.2388  0.4990
 3060TIP3    H1 9144   5.892   3.573   5.856 -0.3274  1.3331  2.5430
 3060TIP3    H2 9145   5.754   3.618   5.901 -2.1056 -0.4834 -0.6996
 3061TIP3   OH2 9146   3.147   2.926   2.724  0.0951  0.7522 -0.2073
 3061TIP3    H1 9147   3.133   2.836   2.695 -1.3574  0.3485  1.5150
 3061TIP3    H2 9148   3.071   2.944   2.780  1.3978  2.3249  1.1402
 3062TIP3   OH2 9149   7.156   4.847   4.956  0.0352 -0.3826  0.6198
 3062TIP3    H1 9150   7.217   4.916   4.932  0.7546 -0.6975  1.4687
 3062TIP3    H2 9151   7.131   4.807   4.873 -0.4376  0.9153  0.1084
 3063TIP3   OH2 9152   0.821   5.862   0.391 -0.0999  0.0259 -0.3093
 3063TIP3    H1 9153   0.756   5.812   0.341  0.0049 -0.9030  0.4522
 3063TIP3    H2 9154   0.818   5.950   0.354 -1.0863 -0.2662 -0.9468
 3064TIP3   OH2 9155   3.124   0.680   1.020 -0.0925  0.8263  1.2340
 3064TIP3    H1 9156   3.175   0.761   1.013  1.3132 -0.1201 -0.5009
 3064TIP3    H2 9157   3.137   0.651   1.110  1.2386  1.4067  1.2501
 3065TIP3   OH2 9158   1.503   3.092   3.952  0.6043 -1.0674  0.1467
 3065TIP3    H1 9159   1.456   3.009   3.940  0.1989 -0.8742  0.3883
 3065TIP3    H2 9160   1.478   3.145   3.877 -0.1068 -0.7142  0.6215
 3066TIP3   OH2 9161   1.507   0.257   5.759  0.1778 -0.0586 -1.1645
 3066TIP3    H1 9162   1.456   0.311   5.820  0.0776 -0.3895 -0.9529
 3066TIP3    H2 9163   1.596   0.291   5.766  0.8451 -1.9814  1.4371
 3067TIP3   OH2 9164   2.531   0.817   1.325  0.0632  0.0928 -0.3499
 3067TIP3    H1 9165   2.584   0.852   1.396  1.6970  0.2641 -1.5909
 3067TIP3    H2 9166   2.541   0.722   1.331 -1.5737 -0.0412  0.9223
 3068TIP3   OH2 9167   2.340   5.494   1.612 -0.0513  0.1447 -0.8336
 3068TIP3    H1 9168   2.434   5.504   1.595  0.1170 -0.4806 -0.2964
 3068TIP3    H2 9169   2.323   5.400   1.604 -0.8392  0.3584 -1.9292
 3069TIP3   OH2 9170   2.799   2.506   3.178 -0.1839  0.1209  0.1116
 3069TIP3    H1 9171   2.821   2.527   3.087 -0.4915  0.6801  0.1598
 3069TIP3    H2 9172   2.881   2.519   3.226  0.6186 -2.4481 -0.4123
 3070TIP3   OH2 9173   5.344   0.071   4.252 -0.0302  0.8794 -0.5058
 3070TIP3    H1 9174   5.282   0.012   4.209 -1.0041  2.0127 -0.7012
 3070TIP3    H2 9175   5.427   0.057   4.206 -0.5432  0.5323 -1.3435
 3071TIP3   OH2 9176   4.463   4.565   2.821 -0.3582  0.6336 -0.2050
 3071TIP3    H1 9177   4.400   4.492   2.823  0.0271  0.2933 -0.4075
 3071TIP3    H2 9178   4.432   4.621   2.750 -0.3314  0.3715 -0.4280
 3072TIP3   OH2 9179   3.809   4.550   0.948  0.2096 -0.5876  0.0437
 3072TIP3    H1 9180   3.850   4.559   1.034 -1.5765 -3.5455  1.3665
 3072TIP3    H2 9181   3.722   4.589   0.959  0.3787  0.0945 -0.8486
 3073TIP3   OH2 9182   7.126   6.375   5.645  0.2492 -0.5937 -0.0533
 3073TIP3    H1 9183   7.135   6.293   5.693 -0.7166  0.0180  1.2210
 3073TIP3    H2 9184   7.176   6.439   5.696  1.1427 -0.3945 -1.1296
 3074TIP3   OH2 9185   4.299   0.163   4.226  0.1133  0.3831  0.3031
 3074TIP3    H1 9186   4.264   0.180   4.139  0.8445  1.2896  0.1643
 3074TIP3    H2 9187   4.221   0.159   4.283 -0.3733 -0.3417 -0.3916
 3075TIP3   OH2 9188   3.040   4.295   3.829  0.3371  0.4644  0.1076
 3075TIP3    H1 9189   3.055   4.263   3.740  0.3584  0.3788  0.1412
 3075TIP3    H2 9190   3.003   4.219   3.875 -2.7158  1.3538 -0.6356
 3076TIP3   OH2 9191   1.080   5.548   1.856  0.0443 -0.0944 -0.5770
 3076TIP3    H1 9192   1.005   5.536   1.798 -1.1429 -1.1551  1.0786
 3076TIP3    H2 9193   1.133   5.469   1.844 -0.4685 -0.5608  0.0891
 3077TIP3   OH2 9194   0.400   2.441   2.902  0.1228 -0.5945 -0.2450
 3077TIP3    H1 9195   0.396   2.350   2.931 -1.2503 -0.2696  0.6556
 3077TIP3    H2 9196   0.493   2.460   2.896  0.4329 -1.5297  1.2392
 3078TIP3   OH2 9197   6.104   6.073   4.768 -0.5678 -0.3434  0.7909
 3078TIP3    H1 9198   6.092   5.983   4.737 -2.0840  0.2853 -0.6292
 3078TIP3    H2 9199   6.070   6.072   4.857 -2.5107 -0.7968  0.1105
 3079TIP3   OH2 9200   1.318   1.269   3.601 -0.3739 -0.0287 -0.2055
 3079TIP3    H1 9201   1.282   1.346   3.556 -2.4764  0.0485  1.4844
 3079TIP3    H2 9202   1.310   1.198   3.537 -0.2975  0.7202 -1.0652
 3080TIP3   OH2 9203   3.347   2.867   4.932 -0.0697 -0.4908  0.3551
 3080TIP3    H1 9204   3.298   2.826   5.003 -0.5066 -0.2328  0.2111
 3080TIP3    H2 9205   3.427   2.815   4.924 -0.9648 -1.8115 -0.3422
 3081TIP3   OH2 9206   6.487   2.521   1.797  0.2762 -0.1162 -0.1758
 3081TIP3    H1 9207   6.455   2.481   1.715  1.2530 -0.4867 -0.3871
 3081TIP3    H2 9208   6.581   2.532   1.783  0.2382  1.0232  0.4087
 3082TIP3   OH2 9209   3.342   2.217   5.039 -0.4860  0.3369 -0.1678
 3082TIP3    H1 9210   3.307   2.149   4.981  0.3189  1.4488 -2.0563
 3082TIP3    H2 9211   3.366   2.289   4.980  0.4651  1.5123  1.5577
 3083TIP3   OH2 9212   2.398   1.273   1.037  0.3053  0.4921  0.3211
 3083TIP3    H1 9213   2.364   1.321   1.112  0.8482  1.2542  0.0909
 3083TIP3    H2 9214   2.412   1.184   1.069  0.9293  0.9166  1.2382
 3084TIP3   OH2 9215   3.541   4.401   2.342  0.6247 -0.1138  0.8027
 3084TIP3    H1 9216   3.579   4.314   2.355  0.1290 -0.7008 -1.2324
 3084TIP3    H2 9217   3.450   4.392   2.371  1.3810  0.7176  3.7263
 3085TIP3   OH2 9218   1.480   0.394   2.854  0.0287 -0.0275  0.1163
 3085TIP3    H1 9219   1.459   0.358   2.768  1.3507 -0.7642  0.0674
 3085TIP3    H2 9220   1.555   0.452   2.837 -2.5696  3.6929  0.0122
 3086TIP3   OH2 9221   5.155   3.724   4.801 -0.1060 -0.5049 -0.0253
 3086TIP3    H1 9222   5.092   3.792   4.822  0.9389  0.5219 -0.1128
 3086TIP3    H2 9223   5.179   3.686   4.886  0.6107  0.4513  0.2192
 3087TIP3   OH2 9224   4.304   3.238   2.683 -0.0506  0.2878 -0.0249
 3087TIP3    H1 9225   4.328   3.276   2.599  0.2245  1.4385  0.5548
 3087TIP3    H2 9226   4.208   3.247   2.687  0.0269  1.1174  0.1833
 3088TIP3   OH2 9227   0.287   6.308   1.363  0.4540 -0.0189 -0.2130
 3088TIP3    H1 9228   0.214   6.337   1.418  0.7823  0.7923 -0.1884
 3088TIP3    H2 9229   0.356   6.373   1.380  0.5196  0.3092 -1.6706
 3089TIP3   OH2 9230   0.548   0.984   1.793 -0.4499  0.4153  0.0246
 3089TIP3    H1 9231   0.584   1.024   1.872  1.5642 -1.0546 -0.0651
 3089TIP3    H2 9232   0.468   1.033   1.775 -0.3775  1.4999  2.3359
 3090TIP3   OH2 9233   2.692   3.136   2.417 -0.4123  0.1607  0.4637
 3090TIP3    H1 9234   2.764   3.198   2.414  0.7562 -1.2075 -1.4043
 3090TIP3    H2 9235   2.686   3.111   2.509  0.0263  1.9103  1.0031
 3091TIP3   OH2 9236   4.338   0.809   2.825 -0.1145  0.0220  0.2667
 3091TIP3    H1 9237   4.433   0.794   2.829 -0.1354  0.2032  2.1586
 3091TIP3    H2 9238   4.302   0.745   2.886 -1.0752  1.0667  0.8067
 3092TIP3   OH2 9239   0.765   5.780   3.721 -0.7410  0.2705  0.2963
 3092TIP3    H1 9240   0.827   5.830   3.668 -1.3116  0.6318 -0.0384
 3092TIP3    H2 9241   0.767   5.823   3.806  0.2431 -0.3640  0.6121
 3093TIP3   OH2 9242   0.155   6.492   5.066 -0.0834 -0.5420  0.3244
 3093TIP3    H1 9243   0.147   6.436   4.988 -0.0541 -0.8996  0.5756
 3093TIP3    H2 9244   0.203   6.438   5.129  1.6079  0.4347 -0.0738
 3094TIP3   OH2 9245   6.183   3.506   3.075  0.4214  0.0908  0.5676
 3094TIP3    H1 9246   6.256   3.563   3.052  0.7789 -0.2292  0.8888
 3094TIP3    H2 9247   6.131   3.499   2.995  0.3954  0.8354  0.5167
 3095TIP3   OH2 9248   4.653   5.111   2.826  0.7598  0.5234  0.7148
 3095TIP3    H1 9249   4.638   5.195   2.783  0.5111 -0.3654 -1.0136
 3095TIP3    H2 9250   4.729   5.074   2.781  0.2612 -0.5982  0.7600
 3096TIP3   OH2 9251   1.882   1.370   5.760  0.3355  0.2331  0.1627
 3096TIP3    H1 9252   1.820   1.307   5.795  2.2202 -1.7219  0.1967
 3096TIP3    H2 9253   1.878   1.358   5.665 -0.7771  1.5807  0.0112
 3097TIP3   OH2 9254   0.162   0.091   1.634 -0.0637  0.0300 -0.1983
 3097TIP3    H1 9255   0.161   0.187   1.634  2.4336  0.1384  0.7078
 3097TIP3    H2 9256   0.088   0.066   1.579 -2.0843  2.4022  1.2387
 3098TIP3   OH2 9257   3.844   6.174   1.688 -0.1305  0.5319 -0.0247
 3098TIP3    H1 9258   3.867   6.144   1.600  0.0657  1.7353 -0.4032
 3098TIP3    H2 9259   3.851   6.096   1.743 -0.0131 -0.1822 -1.0305
 3099TIP3   OH2 9260   4.690   6.765   5.715 -0.3000  0.1359 -0.4185
 3099TIP3    H1 9261   4.632   6.717   5.656 -1.3374  1.5510 -0.5978
 3099TIP3    H2 9262   4.651   6.751   5.802 -1.2399  1.4604 -0.5896
 3100TIP3   OH2 9263   3.408   1.318   2.111  0.0508  0.0343 -0.3395
 3100TIP3    H1 9264   3.465   1.265   2.055  1.3117  0.9519  0.0368
 3100TIP3    H2 9265   3.427   1.288   2.200  0.2683  0.6282 -0.1806
 3101TIP3   OH2 9266   1.722   1.017   5.697 -0.3559 -0.1902  0.3857
 3101TIP3    H1 9267   1.627   1.014   5.683 -0.4144 -0.7171  0.8465
 3101TIP3    H2 9268   1.734   1.083   5.764 -0.3472  0.2473 -0.0432
 3102TIP3   OH2 9269   5.916   4.373   4.855 -0.1726 -0.4435 -0.3125
 3102TIP3    H1 9270   5.980   4.347   4.789 -0.0654 -2.0601  0.3889
 3102TIP3    H2 9271   5.877   4.291   4.885 -2.1948  0.4455 -0.3067
 3103TIP3   OH2 9272   2.719   6.762   5.533  0.2681  0.2952 -0.3260
 3103TIP3    H1 9273   2.629   6.779   5.563  0.1641 -1.4992  0.5487
 3103TIP3    H2 9274   2.771   6.833   5.571 -0.2361 -0.6524  2.4107
 3104TIP3   OH2 9275   5.991   5.562   1.520  0.3957 -0.3688 -0.4205
 3104TIP3    H1 9276   6.042   5.533   1.445  1.3617  0.2661 -0.0178
 3104TIP3    H2 9277   6.029   5.646   1.545 -1.5078  0.6656 -0.7557
 3105TIP3   OH2 9278   5.974   0.749   0.348  0.2149 -0.1834 -0.0603
 3105TIP3    H1 9279   5.961   0.803   0.426 -1.1930 -0.1681 -0.2821
 3105TIP3    H2 9280   5.924   0.793   0.280 -0.1239 -1.2097 -0.4950
 3106TIP3   OH2 9281   1.405   0.694   5.173  0.4516  0.0347 -0.6927
 3106TIP3    H1 9282   1.450   0.698   5.257  0.2712  1.2078 -0.6325
 3106TIP3    H2 9283   1.475   0.690   5.108  0.6869  1.5892 -0.5891
 3107TIP3   OH2 9284   4.982   3.953   1.783  0.2533  0.3940 -0.4066
 3107TIP3    H1 9285   4.953   3.950   1.874 -1.1257 -1.3583 -0.8525
 3107TIP3    H2 9286   4.949   4.037   1.750 -2.0413 -0.3579 -0.1402
 3108TIP3   OH2 9287   1.795   2.227   1.287  0.9958 -0.0529 -0.6782
 3108TIP3    H1 9288   1.747   2.305   1.257  2.9713  0.9031 -1.5089
 3108TIP3    H2 9289   1.857   2.208   1.217 -0.3705 -3.3300 -1.1829
 3109TIP3   OH2 9290   5.740   3.228   5.826 -0.1951  0.2370 -0.0334
 3109TIP3    H1 9291   5.817   3.253   5.877 -0.5503  2.4351 -0.4688
 3109TIP3    H2 9292   5.742   3.132   5.824  2.4867  0.2190  0.0081
 3110TIP3   OH2 9293   6.485   1.560   2.098 -0.9518 -0.3827  0.2638
 3110TIP3    H1 9294   6.557   1.591   2.153 -0.4373  0.4434 -0.8318
 3110TIP3    H2 9295   6.406   1.588   2.144 -0.5288  2.9365 -0.7311
 3111TIP3   OH2 9296   5.756   5.517   0.069  0.1140  0.1342 -0.1491
 3111TIP3    H1 9297   5.797   5.479  -0.009 -0.9647  0.2286 -0.7881
 3111TIP3    H2 9298   5.688   5.454   0.093 -0.2067  0.5840  0.1285
 3112TIP3   OH2 9299   5.904   3.283   2.791 -0.5921 -0.6552  0.3614
 3112TIP3    H1 9300   5.971   3.226   2.754 -1.2736 -0.6798 -0.8868
 3112TIP3    H2 9301   5.883   3.243   2.876  0.5332 -0.9765  0.4977
 3113TIP3   OH2 9302   5.604   1.327   4.349  0.0615 -0.2039  0.0717
 3113TIP3    H1 9303   5.656   1.343   4.271  1.6793 -0.0112  1.1341
 3113TIP3    H2 9304   5.537   1.395   4.348  0.5537  0.2826 -0.7192
 3114TIP3   OH2 9305   4.747   6.502   3.615 -0.4158 -0.0941 -0.1293
 3114TIP3    H1 9306   4.828   6.490   3.565  0.0589  0.1555  0.5647
 3114TIP3    H2 9307   4.683   6.446   3.571  0.4396 -1.2240  0.0083
 3115TIP3   OH2 9308   5.831   5.949   1.133 -0.3082  0.0120 -0.2766
 3115TIP3    H1 9309   5.749   5.900   1.134 -0.9702  1.0306  2.0880
 3115TIP3    H2 9310   5.812   6.029   1.181  2.6548 -0.8344  2.6775
 3116TIP3   OH2 9311   0.326   1.312   3.033 -0.0025  0.3815 -0.2334
 3116TIP3    H1 9312   0.294   1.382   3.090  1.1406  1.1451 -0.4854
 3116TIP3    H2 9313   0.396   1.270   3.083  0.1990  0.2762 -0.5940
 3117TIP3   OH2 9314   3.385   1.079   3.298 -0.0198 -0.4007 -0.3992
 3117TIP3    H1 9315   3.479   1.092   3.313 -0.6106  2.4031  1.8169
 3117TIP3    H2 9316   3.351   1.168   3.282 -2.5433 -1.1035  0.6252
 3118TIP3   OH2 9317   2.543   4.668   3.962  0.5056 -0.3292  0.5410
 3118TIP3    H1 9318   2.512   4.759   3.964  0.7529 -0.1949 -0.8123
 3118TIP3    H2 9319   2.466   4.618   3.933  0.5279 -0.4763  0.7379
 3119TIP3   OH2 9320   0.828   0.554   5.302  0.1196  0.5594  0.0552
 3119TIP3    H1 9321   0.916   0.572   5.334  0.9788 -1.9021 -0.7316
 3119TIP3    H2 9322   0.791   0.494   5.366 -0.0028 -0.4492 -0.9398
 3120TIP3   OH2 9323   1.783   4.029   5.295  0.3140 -0.0858  0.2981
 3120TIP3    H1 9324   1.733   3.949   5.310  0.2040 -0.2420 -0.7901
 3120TIP3    H2 9325   1.874   4.003   5.310  0.2041 -0.1595  0.8806
 3121TIP3   OH2 9326   3.775   2.366   0.363  0.0025  0.7071  0.3723
 3121TIP3    H1 9327   3.781   2.270   0.365 -1.1093  0.6330  1.2624
 3121TIP3    H2 9328   3.802   2.393   0.451 -1.1336  1.0931  0.6114
 3122TIP3   OH2 9329   0.173   0.514   5.725 -0.0340 -0.6915 -0.5370
 3122TIP3    H1 9330   0.091   0.487   5.768 -0.8946 -0.4817 -1.9868
 3122TIP3    H2 9331   0.145   0.564   5.649  1.4843  0.5345 -0.3440
 3123TIP3   OH2 9332   6.542   0.881   0.535 -0.1630  0.2568  0.2637
 3123TIP3    H1 9333   6.471   0.887   0.598 -0.9696  0.2157 -0.6110
 3123TIP3    H2 9334   6.539   0.965   0.488 -0.1309 -0.0412 -0.2811
 3124TIP3   OH2 9335   3.416   0.957   2.620 -0.1950 -0.1737 -0.1872
 3124TIP3    H1 9336   3.345   0.913   2.667 -0.6016  0.0950 -0.5309
 3124TIP3    H2 9337   3.484   0.971   2.685 -0.5620 -0.2274  0.2095
 3125TIP3   OH2 9338   3.517   2.327   5.257 -0.4158 -0.2159 -0.2595
 3125TIP3    H1 9339   3.470   2.247   5.282  0.5439 -0.3818  1.1052
 3125TIP3    H2 9340   3.600   2.322   5.304 -1.0767  2.4898  1.4646
 3126TIP3   OH2 9341   3.176   6.429   1.724 -0.2015  0.3318  0.1966
 3126TIP3    H1 9342   3.116   6.503   1.719  0.5494  1.0134  1.0217
 3126TIP3    H2 9343   3.261   6.466   1.702  0.0892 -0.4175  0.0296
 3127TIP3   OH2 9344   3.918   2.793   1.722 -0.3563  0.1323  0.2265
 3127TIP3    H1 9345   3.999   2.758   1.684 -0.3502  1.5742 -1.2262
 3127TIP3    H2 9346   3.906   2.743   1.802  1.3372 -0.9350 -0.1142
 3128TIP3   OH2 9347   7.208   5.045   1.080  0.0490 -0.5061 -0.4909
 3128TIP3    H1 9348   7.193   5.053   1.174  1.4581  0.0558 -0.2858
 3128TIP3    H2 9349   7.200   5.134   1.046 -0.7058 -0.7428 -0.9564
 3129TIP3   OH2 9350   3.360   3.360   5.031 -0.1421 -0.0570 -0.1992
 3129TIP3    H1 9351   3.404   3.349   5.115 -1.0742  0.9677  0.4491
 3129TIP3    H2 9352   3.415   3.312   4.969  0.9011 -0.3066  0.8731
 3130TIP3   OH2 9353   0.746   1.045   3.998  0.1229  0.2509  0.3974
 3130TIP3    H1 9354   0.841   1.035   3.990  0.0424 -0.2592  0.0380
 3130TIP3    H2 9355   0.710   0.962   3.965 -0.5409  1.1855 -1.3169
 3131TIP3   OH2 9356   1.317   4.803   2.310 -0.5765  0.4934 -0.0446
 3131TIP3    H1 9357   1.318   4.899   2.320 -1.2948  0.3855  1.2773
 3131TIP3    H2 9358   1.329   4.789   2.216  0.6475  1.8447 -0.1257
 3132TIP3   OH2 9359   0.280   0.861   2.522  0.0867  0.1160  0.0203
 3132TIP3    H1 9360   0.308   0.852   2.613  0.0667  1.1594  0.1467
 3132TIP3    H2 9361   0.202   0.915   2.527  0.5087  0.8108 -0.6672
 3133TIP3   OH2 9362   6.201   6.270   1.522 -0.1312  0.8033  0.0731
 3133TIP3    H1 9363   6.212   6.268   1.427  2.8255  1.0958  0.3286
 3133TIP3    H2 9364   6.150   6.349   1.539 -0.7613  0.7060 -1.2553
 3134TIP3   OH2 9365   5.219   6.159   1.584  0.3133 -0.4610  0.2109
 3134TIP3    H1 9366   5.199   6.178   1.675  1.9305 -0.8969  0.6938
 3134TIP3    H2 9367   5.187   6.070   1.571 -1.2312  0.1166 -0.0972
 3135TIP3   OH2 9368   5.941   5.298   5.612 -0.4296 -0.1118  0.0142
 3135TIP3    H1 9369   5.884   5.240   5.563 -0.3198 -0.8621  0.7443
 3135TIP3    H2 9370   5.946   5.378   5.560 -1.0754 -0.5334 -0.7028
 3136TIP3   OH2 9371   6.431   4.988   0.327 -0.4754 -0.0412  0.3903
 3136TIP3    H1 9372   6.480   4.951   0.254  0.0814 -0.5488  1.0068
 3136TIP3    H2 9373   6.341   4.961   0.312 -0.4612  0.3161 -0.3929
 3137TIP3   OH2 9374   6.727   6.108   3.728  0.0545 -0.4865  0.3107
 3137TIP3    H1 9375   6.761   6.072   3.811  2.2870 -0.4265 -0.5207
 3137TIP3    H2 9376   6.750   6.042   3.663 -0.1389  0.2777 -0.5383
 3138TIP3   OH2 9377   1.483   5.335   1.710  0.0140 -0.1535  0.0256
 3138TIP3    H1 9378   1.437   5.322   1.793 -0.2901  0.2341 -0.0775
 3138TIP3    H2 9379   1.481   5.430   1.697  1.7049 -0.0162  0.5155
 3139TIP3   OH2 9380   7.224   6.119   1.515 -0.2850  0.4868 -0.4484
 3139TIP3    H1 9381   7.244   6.120   1.608 -0.7187  1.9896 -0.3573
 3139TIP3    H2 9382   7.131   6.098   1.510 -0.2826  0.4967 -0.5479
 3140TIP3   OH2 9383   5.713   0.894   3.683  0.2591  0.2865 -0.1488
 3140TIP3    H1 9384   5.650   0.825   3.661 -0.0018 -0.3419  2.2595
 3140TIP3    H2 9385   5.665   0.976   3.666 -1.2918 -0.1773  1.5540
 3141TIP3   OH2 9386   1.251   6.144   4.421 -0.8022  0.2397  0.4569
 3141TIP3    H1 9387   1.268   6.180   4.334  0.6463 -1.7591 -0.1660
 3141TIP3    H2 9388   1.214   6.057   4.404  0.3658 -0.5632  1.7763
 3142TIP3   OH2 9389   3.505   4.391   5.022 -0.0591  0.7082  0.4575
 3142TIP3    H1 9390   3.415   4.358   5.026  0.6621 -1.6872 -0.8911
 3142TIP3    H2 9391   3.542   4.369   5.108  0.1386 -1.4045 -0.1018
 3143TIP3   OH2 9392   3.691   2.640   2.872 -0.0998 -0.1030  0.2033
 3143TIP3    H1 9393   3.684   2.701   2.946  2.1622  3.0123 -1.9199
 3143TIP3    H2 9394   3.752   2.573   2.903 -0.1489  0.4245  1.5414
 3144TIP3   OH2 9395   3.546   5.241   1.391  0.0541  0.3846 -0.8729
 3144TIP3    H1 9396   3.486   5.248   1.316 -0.9117  0.4575 -0.1233
 3144TIP3    H2 9397   3.628   5.208   1.354 -0.2179  0.9753 -2.0460
 3145TIP3   OH2 9398   2.081   2.019   4.009 -0.3190 -0.0526  0.1987
 3145TIP3    H1 9399   2.038   2.091   3.963 -0.4967  0.4238  1.0947
 3145TIP3    H2 9400   2.151   2.060   4.059  1.5618 -0.8864 -1.6264
 3146TIP3   OH2 9401   3.058   1.013   2.951 -0.4618  0.2192 -0.0980
 3146TIP3    H1 9402   2.963   0.999   2.945 -0.6497  1.3790 -0.0062
 3146TIP3    H2 9403   3.068   1.100   2.988  0.6032  1.0506 -2.1333
 3147TIP3   OH2 9404   0.524   0.742   0.624  0.6846  0.0225  0.0552
 3147TIP3    H1 9405   0.432   0.727   0.647  1.1485  0.4618  2.5482
 3147TIP3    H2 9406   0.524   0.827   0.580 -0.2375 -0.5909 -1.1715
 3148TIP3   OH2 9407   4.217   0.417   1.203  0.4309  0.0525  0.1322
 3148TIP3    H1 9408   4.178   0.330   1.190 -2.0215  1.3736 -2.2162
 3148TIP3    H2 9409   4.172   0.452   1.280  1.2130 -0.5871  0.9045
 3149TIP3   OH2 9410   4.072   3.140   1.436  0.6210  0.4356 -0.1974
 3149TIP3    H1 9411   4.162   3.150   1.407  0.6267  1.7158  0.1735
 3149TIP3    H2 9412   4.029   3.089   1.367  1.2877  1.0580 -1.0899
 3150TIP3   OH2 9413   7.091   1.608   4.580  0.2957 -0.0688 -0.2754
 3150TIP3    H1 9414   7.155   1.648   4.521 -1.2603  0.8916 -1.4095
 3150TIP3    H2 9415   7.037   1.681   4.611  0.4509 -0.6914  1.6021
 3151TIP3   OH2 9416   6.511   4.614   0.388  0.1652  0.8619 -0.0216
 3151TIP3    H1 9417   6.604   4.636   0.383 -0.0395  1.8605  0.3435
 3151TIP3    H2 9418   6.508   4.521   0.366  1.4659  0.3158  1.8489
 3152TIP3   OH2 9419   3.354   3.378   1.589  0.2622 -0.5411  1.1194
 3152TIP3    H1 9420   3.393   3.299   1.628  0.8877 -0.4140  0.7646
 3152TIP3    H2 9421   3.426   3.419   1.541  0.1697  0.7257  2.0282
 3153TIP3   OH2 9422   2.223   3.158   4.190  0.0150  0.3392 -0.1608
 3153TIP3    H1 9423   2.214   3.252   4.177  0.6771  0.8491  2.6080
 3153TIP3    H2 9424   2.296   3.133   4.133 -0.2220  1.4597 -0.9904
 3154TIP3   OH2 9425   1.587   1.535   4.638 -0.1019 -0.3165 -0.0685
 3154TIP3    H1 9426   1.675   1.573   4.632 -0.9601  2.2940  2.0246
 3154TIP3    H2 9427   1.529   1.611   4.634 -2.2022 -1.8520  0.1642
 3155TIP3   OH2 9428   1.202   6.365   0.402  0.2818  0.5187 -0.7164
 3155TIP3    H1 9429   1.251   6.366   0.484 -0.3248  4.0350 -0.2487
 3155TIP3    H2 9430   1.114   6.336   0.426  0.8259 -1.2688 -0.7263
 3156TIP3   OH2 9431   1.254   6.002   3.571 -0.2893 -0.1880 -0.3347
 3156TIP3    H1 9432   1.335   6.052   3.571  0.5137 -1.3724 -2.1989
 3156TIP3    H2 9433   1.249   5.963   3.658  2.6192 -2.3063 -0.9784
 3157TIP3   OH2 9434   6.044   6.615   4.376 -0.2233  0.1665 -0.0119
 3157TIP3    H1 9435   5.992   6.568   4.310  0.3395  1.8886 -1.7729
 3157TIP3    H2 9436   5.990   6.613   4.455 -3.5353  2.6165 -1.9574
 3158TIP3   OH2 9437   3.871   4.606   3.176 -0.2770  0.1641  0.4671
 3158TIP3    H1 9438   3.872   4.651   3.091 -1.0024 -0.7310 -0.0396
 3158TIP3    H2 9439   3.826   4.667   3.235 -1.3056  0.1057 -0.2175
 3159TIP3   OH2 9440   3.715   3.239   3.570  0.2286  0.0500  0.1315
 3159TIP3    H1 9441   3.652   3.308   3.549 -0.5230 -0.5932  0.2042
 3159TIP3    H2 9442   3.799   3.283   3.573 -0.3933  1.2174  1.4855
 3160TIP3   OH2 9443   3.819   2.625   5.884 -0.4386 -0.2187  0.5543
 3160TIP3    H1 9444   3.898   2.678   5.876 -1.1543  0.9744  1.1024
 3160TIP3    H2 9445   3.777   2.630   5.798 -1.1851  1.2469  0.9827
 3161TIP3   OH2 9446   5.363   2.848   2.248  0.5100 -0.4632 -0.1439
 3161TIP3    H1 9447   5.316   2.913   2.300 -0.1391 -1.3549  0.4419
 3161TIP3    H2 9448   5.304   2.772   2.247  1.2685 -1.0634 -0.7360
 3162TIP3   OH2 9449   5.238   4.005   0.166 -0.2529  0.7563 -0.5768
 3162TIP3    H1 9450   5.319   3.998   0.116 -0.6340  0.5682 -1.1847
 3162TIP3    H2 9451   5.266   4.014   0.257  0.4238 -1.3093 -0.5344
 3163TIP3   OH2 9452   5.013   6.175   3.765 -0.0900  0.4187 -0.0955
 3163TIP3    H1 9453   4.996   6.121   3.843 -0.5709 -0.3333 -0.6993
 3163TIP3    H2 9454   5.014   6.265   3.797  0.8141  0.0487  0.9557
 3164TIP3   OH2 9455   0.103   2.762   5.195 -0.0560  0.2152 -0.3312
 3164TIP3    H1 9456   0.054   2.724   5.268  2.6011 -1.1053  0.8767
 3164TIP3    H2 9457   0.104   2.693   5.129  1.0780 -0.2088  0.1085
 3165TIP3   OH2 9458   0.822   0.387   4.372 -0.8184 -0.7430 -0.0061
 3165TIP3    H1 9459   0.798   0.296   4.357 -0.0312 -1.3153  1.8808
 3165TIP3    H2 9460   0.826   0.396   4.467 -0.8845  1.2734 -0.1449
 3166TIP3   OH2 9461   1.056   5.261   3.227 -0.2649 -0.0643  0.1623
 3166TIP3    H1 9462   0.968   5.235   3.255 -0.6724 -0.3616 -1.2760
 3166TIP3    H2 9463   1.109   5.182   3.237 -0.6301 -0.4378 -0.7548
 3167TIP3   OH2 9464   4.430   0.918   1.274 -0.0805 -0.1397  0.4295
 3167TIP3    H1 9465   4.518   0.903   1.237  0.0863  0.1595  0.7051
 3167TIP3    H2 9466   4.440   0.995   1.330 -0.5008 -0.1583  0.5322
 3168TIP3   OH2 9467   6.205   4.744   5.806  0.0735  0.1609  0.0890
 3168TIP3    H1 9468   6.156   4.662   5.810 -2.2244  1.3028 -2.0602
 3168TIP3    H2 9469   6.295   4.718   5.784  0.2058 -1.8984  2.5970
 3169TIP3   OH2 9470   0.144   1.213   4.258  0.6249  0.4834  0.3063
 3169TIP3    H1 9471   0.167   1.289   4.205 -0.5322  1.5533  1.2690
 3169TIP3    H2 9472   0.198   1.222   4.337  1.6210 -0.5710 -0.2128
 3170TIP3   OH2 9473   5.110   2.709   5.435 -0.1669 -0.6129 -0.2323
 3170TIP3    H1 9474   5.132   2.617   5.420 -0.5738 -0.5976 -0.9474
 3170TIP3    H2 9475   5.087   2.743   5.349 -0.2420  0.1031  0.0621
 3171TIP3   OH2 9476   6.929   5.547   1.808 -0.2350  0.3617 -0.3399
 3171TIP3    H1 9477   6.905   5.639   1.825 -0.6286  0.0845  0.6582
 3171TIP3    H2 9478   6.967   5.549   1.720  2.2940  1.9635  0.6406
 3172TIP3   OH2 9479   4.229   0.435   3.415 -0.5021 -0.5088  0.2742
 3172TIP3    H1 9480   4.210   0.508   3.356  1.6426 -0.7396 -0.7945
 3172TIP3    H2 9481   4.165   0.368   3.390  0.3160 -0.5932 -1.8613
 3173TIP3   OH2 9482   2.297   0.044   0.116 -0.5679 -0.1917 -0.6285
 3173TIP3    H1 9483   2.308   0.079   0.028 -0.0945  0.5756 -0.2704
 3173TIP3    H2 9484   2.203   0.047   0.132 -0.6525 -0.3204 -1.1025
 3174TIP3   OH2 9485   6.555   3.490   4.545  0.4010 -0.3594  0.0906
 3174TIP3    H1 9486   6.471   3.499   4.591 -1.1728  1.1047 -2.7515
 3174TIP3    H2 9487   6.573   3.579   4.513  0.3925 -1.5417 -3.5350
 3175TIP3   OH2 9488   6.333   0.885   2.061  0.1450  0.3697 -0.4869
 3175TIP3    H1 9489   6.276   0.810   2.078  0.1167  0.6355  0.6672
 3175TIP3    H2 9490   6.391   0.888   2.137 -0.6328  2.2416  0.0736
 3176TIP3   OH2 9491   5.110   3.146   1.949 -0.3130  0.0201  0.1056
 3176TIP3    H1 9492   5.095   3.068   1.896  1.7309  0.2000 -0.8552
 3176TIP3    H2 9493   5.126   3.216   1.886  0.1252  0.7007  0.9392
 3177TIP3   OH2 9494   6.927   3.876   1.967 -0.1726  0.0439  0.2262
 3177TIP3    H1 9495   6.973   3.808   2.015  0.0061 -0.5199 -0.7201
 3177TIP3    H2 9496   6.993   3.944   1.953  0.8992 -1.3983 -2.4332
 3178TIP3   OH2 9497   1.134   3.990   5.228 -0.3733  0.1834  0.4891
 3178TIP3    H1 9498   1.168   4.065   5.181  0.3759 -0.6849 -0.3915
 3178TIP3    H2 9499   1.164   3.914   5.178 -1.8839 -0.6833  0.8354
 3179TIP3   OH2 9500   4.837   5.896   0.421 -0.0859  0.2232 -0.0949
 3179TIP3    H1 9501   4.750   5.932   0.401  0.5618  1.6521 -0.4950
 3179TIP3    H2 9502   4.822   5.803   0.435 -1.5268  0.2568 -1.2111
 3180TIP3   OH2 9503   3.716   3.405   4.735  0.3091  0.1427 -0.6372
 3180TIP3    H1 9504   3.764   3.437   4.659 -1.2207 -1.0543 -2.1727
 3180TIP3    H2 9505   3.636   3.457   4.737  0.4202  0.3092  0.3283
 3181TIP3   OH2 9506   5.413   6.618   2.061  0.0636  0.3868 -0.2164
 3181TIP3    H1 9507   5.427   6.585   1.972  0.4193  0.8177 -0.3190
 3181TIP3    H2 9508   5.483   6.682   2.075  1.1918 -1.0322  1.0649
 3182TIP3   OH2 9509   5.462   1.081   3.197 -0.1281  0.3382  0.0834
 3182TIP3    H1 9510   5.544   1.129   3.206  0.3400 -0.0180 -1.7674
 3182TIP3    H2 9511   5.474   1.003   3.251  0.6291  0.4490  0.0841
 3183TIP3   OH2 9512   0.972   5.154   5.105 -0.0019  0.0419  0.9823
 3183TIP3    H1 9513   0.883   5.128   5.130  0.4705 -1.9762  0.7427
 3183TIP3    H2 9514   0.964   5.182   5.014 -0.0632 -2.3998  0.1675
 3184TIP3   OH2 9515   2.011   0.825   2.042 -0.3838 -0.1194 -0.0796
 3184TIP3    H1 9516   1.941   0.889   2.026 -0.7573 -0.6022 -0.3938
 3184TIP3    H2 9517   1.971   0.740   2.023 -0.4523 -0.6375  2.0722
 3185TIP3   OH2 9518   6.838   6.741   5.265 -0.2583 -0.4860 -0.0638
 3185TIP3    H1 9519   6.830   6.652   5.299 -0.9673 -0.4266 -0.0634
 3185TIP3    H2 9520   6.788   6.741   5.184 -0.6401  0.0253  0.1633
 3186TIP3   OH2 9521   6.317   1.852   3.254  0.1816 -0.2117 -0.1482
 3186TIP3    H1 9522   6.355   1.773   3.294 -0.5484 -0.3249  0.3429
 3186TIP3    H2 9523   6.308   1.913   3.327  1.8367  0.7843 -0.7253
 3187TIP3   OH2 9524   1.144   5.369   1.549  0.2048 -0.2448  0.1795
 3187TIP3    H1 9525   1.196   5.425   1.492 -0.3207  0.6949  0.6047
 3187TIP3    H2 9526   1.091   5.316   1.489 -1.0383  1.3876 -0.2462
 3188TIP3   OH2 9527   2.862   6.653   2.087  0.2972  0.4068 -0.2300
 3188TIP3    H1 9528   2.819   6.724   2.040 -0.4568 -0.3760 -0.7404
 3188TIP3    H2 9529   2.809   6.576   2.069  0.8084 -0.1946  0.7464
 3189TIP3   OH2 9530   5.238   0.531   4.788  0.4869 -0.1724 -0.1880
 3189TIP3    H1 9531   5.214   0.445   4.753  0.2329  0.1996 -0.9475
 3189TIP3    H2 9532   5.260   0.583   4.711  0.2963  0.5529  0.2381
 3190TIP3   OH2 9533   2.798   0.125   4.870 -0.3525  0.7652 -0.2246
 3190TIP3    H1 9534   2.877   0.137   4.816 -1.5260 -0.4537 -2.3368
 3190TIP3    H2 9535   2.725   0.143   4.810 -1.7214  0.7594  1.3776
 3191TIP3   OH2 9536   0.537   0.420   3.450 -0.0246  0.8693  0.1634
 3191TIP3    H1 9537   0.625   0.452   3.433  0.8680 -0.5539  1.6564
 3191TIP3    H2 9538   0.507   0.384   3.367  1.7216 -0.5757  0.1040
 3192TIP3   OH2 9539   0.780   3.263   4.323  0.2027 -0.4768 -0.6758
 3192TIP3    H1 9540   0.875   3.252   4.332 -0.0621 -1.5338  1.3659
 3192TIP3    H2 9541   0.770   3.322   4.248  2.5118  0.6239 -0.2161
 3193TIP3   OH2 9542   0.010   0.076   3.250  0.2884 -0.0796  0.2510
 3193TIP3    H1 9543   0.053  -0.009   3.240 -1.0378 -0.7363  0.0150
 3193TIP3    H2 9544  -0.063   0.074   3.188  0.8213  1.6346 -0.4889
 3194TIP3   OH2 9545   5.325   3.057   0.522 -0.5490  0.0203  0.1487
 3194TIP3    H1 9546   5.297   3.147   0.538  0.0065  0.5300 -1.6324
 3194TIP3    H2 9547   5.243   3.007   0.523 -0.8557  0.5116  1.1953
 3195TIP3   OH2 9548   1.776   3.720   4.627 -0.1913  0.0631  0.2726
 3195TIP3    H1 9549   1.724   3.654   4.672  0.8190 -1.1655 -0.3114
 3195TIP3    H2 9550   1.867   3.700   4.650  0.1189  1.6173  0.5540
 3196TIP3   OH2 9551   4.763   2.448   4.524 -0.0834  0.8348 -0.3126
 3196TIP3    H1 9552   4.757   2.378   4.459  0.2910 -0.9892  1.5105
 3196TIP3    H2 9553   4.786   2.526   4.474 -0.2542 -0.3993 -2.4026
 3197TIP3   OH2 9554   1.208   4.115   4.084  0.1839 -0.3109 -0.1376
 3197TIP3    H1 9555   1.229   4.040   4.140  0.4775 -0.8996 -1.0174
 3197TIP3    H2 9556   1.135   4.158   4.128  0.1005 -1.0349  0.4475
 3198TIP3   OH2 9557   0.883   4.408   1.388  0.0198  0.0964 -0.0611
 3198TIP3    H1 9558   0.817   4.477   1.384  0.1045  0.2519  0.8977
 3198TIP3    H2 9559   0.873   4.360   1.306  0.2365  1.4813 -0.9194
 3199TIP3   OH2 9560   0.276   2.243   4.550 -0.0389  0.1330  0.1582
 3199TIP3    H1 9561   0.353   2.192   4.525 -2.4077 -3.0551 -1.4265
 3199TIP3    H2 9562   0.203   2.201   4.503 -2.8280  2.7138  1.8009
 3200TIP3   OH2 9563   1.987   5.905   2.155 -0.7434  0.0990 -0.1250
 3200TIP3    H1 9564   1.976   5.912   2.060 -2.7994  1.6315  0.1354
 3200TIP3    H2 9565   1.903   5.936   2.191  0.1498  0.0459  2.2036
 3201TIP3   OH2 9566   4.174   4.095   3.056 -0.0670  0.0732  0.2442
 3201TIP3    H1 9567   4.164   4.003   3.078 -1.1502  0.5230  1.8416
 3201TIP3    H2 9568   4.085   4.124   3.033 -0.3351  1.3327  2.5447
 3202TIP3   OH2 9569   6.368   0.905   2.895 -0.1400  0.3703  0.5082
 3202TIP3    H1 9570   6.372   0.908   2.799  0.9648 -0.2798  0.5199
 3202TIP3    H2 9571   6.410   0.987   2.922 -0.1375  0.3897  0.4475
 3203TIP3   OH2 9572   3.750   2.327   1.794  0.2746  0.1059 -0.8381
 3203TIP3    H1 9573   3.654   2.328   1.788  0.1500 -1.6653  0.1123
 3203TIP3    H2 9574   3.768   2.287   1.879  1.8507 -1.9524 -2.0533
 3204TIP3   OH2 9575   6.879   0.753   5.111  0.1225  0.2185  0.0933
 3204TIP3    H1 9576   6.820   0.738   5.036 -0.0696  0.2955  0.2272
 3204TIP3    H2 9577   6.825   0.733   5.187  0.7662 -1.3924  0.1718
 3205TIP3   OH2 9578   4.418   4.558   1.259  0.2173  0.0499 -0.6275
 3205TIP3    H1 9579   4.446   4.471   1.230  0.2535 -0.9510  2.1427
 3205TIP3    H2 9580   4.499   4.606   1.273  0.2890 -0.1971 -0.1643
 3206TIP3   OH2 9581   5.802   5.729   4.329  0.2145  0.2594  0.2503
 3206TIP3    H1 9582   5.871   5.742   4.263 -0.5412 -1.9537 -1.0843
 3206TIP3    H2 9583   5.841   5.669   4.392 -0.2677 -0.5260 -0.1880
 3207TIP3   OH2 9584   6.153   2.072   2.721 -0.3428 -0.2494  0.1000
 3207TIP3    H1 9585   6.080   2.122   2.684  0.8171  1.5076  0.1021
 3207TIP3    H2 9586   6.179   2.122   2.799  0.0981 -1.5192  0.7942
 3208TIP3   OH2 9587   3.962   4.602   4.643 -0.3890  0.5938  0.7061
 3208TIP3    H1 9588   3.987   4.668   4.707 -2.7791  1.6112  0.7044
 3208TIP3    H2 9589   3.868   4.616   4.630 -0.7506 -2.0635 -0.1733
 3209TIP3   OH2 9590   1.399   4.428   3.013 -0.1670  0.2897 -0.1540
 3209TIP3    H1 9591   1.437   4.488   3.078 -0.3950 -0.1837  0.4324
 3209TIP3    H2 9592   1.380   4.348   3.063  0.5529 -0.4395 -1.0184
 3210TIP3   OH2 9593   3.267   3.471   3.764  0.4333  0.4795  0.0339
 3210TIP3    H1 9594   3.221   3.392   3.793  1.3860 -0.4684 -0.9335
 3210TIP3    H2 9595   3.212   3.543   3.793  0.1182 -0.4808  2.0234
 3211TIP3   OH2 9596   5.774   5.446   1.027 -0.6241 -0.0593  0.0536
 3211TIP3    H1 9597   5.727   5.363   1.015 -0.7792 -0.3104  2.0356
 3211TIP3    H2 9598   5.742   5.502   0.956 -2.5353 -0.8403  0.2270
 3212TIP3   OH2 9599   1.661   0.465   3.085  0.1968 -0.1564 -0.1262
 3212TIP3    H1 9600   1.649   0.497   2.996 -1.0364  1.3047  0.5151
 3212TIP3    H2 9601   1.726   0.395   3.077  0.3071  0.1140 -2.1154
 3213TIP3   OH2 9602   4.256   5.062   4.274  0.1281 -0.3507  0.4976
 3213TIP3    H1 9603   4.303   5.068   4.191  1.8360 -1.1715  1.3518
 3213TIP3    H2 9604   4.314   5.102   4.338 -0.6840 -0.6999  1.4816
 3214TIP3   OH2 9605   1.507   6.119   5.577 -0.3447  0.5197 -0.4993
 3214TIP3    H1 9606   1.466   6.040   5.613  0.9678  0.3296  0.6472
 3214TIP3    H2 9607   1.581   6.135   5.634  0.3720  1.6526 -1.7113
 3215TIP3   OH2 9608   6.711   4.120   0.784  0.5239  0.5598  0.5129
 3215TIP3    H1 9609   6.800   4.148   0.803  0.3980  0.6459  0.9916
 3215TIP3    H2 9610   6.668   4.116   0.870  0.3690 -0.5152  0.4032
 3216TIP3   OH2 9611   1.143   2.007   5.748 -0.1090 -0.0002  0.6962
 3216TIP3    H1 9612   1.205   2.038   5.682  0.1568 -0.1311  0.8815
 3216TIP3    H2 9613   1.104   2.086   5.784 -0.5955  0.0604  0.0624
 3217TIP3   OH2 9614   2.693   5.490   5.209  0.0945  0.0840  0.3228
 3217TIP3    H1 9615   2.703   5.455   5.297 -1.4494  1.1892  0.9859
 3217TIP3    H2 9616   2.710   5.416   5.151  0.3756 -0.8521  1.5662
 3218TIP3   OH2 9617   0.847   0.570   2.341 -0.4672 -0.4468  0.0582
 3218TIP3    H1 9618   0.831   0.607   2.254 -0.5654 -1.6712 -0.4627
 3218TIP3    H2 9619   0.826   0.641   2.402 -0.3753  0.4314 -0.9131
 3219TIP3   OH2 9620   0.396   6.230   3.619 -0.1233  0.2479  0.6050
 3219TIP3    H1 9621   0.443   6.183   3.687  0.1618 -0.7164 -0.2339
 3219TIP3    H2 9622   0.361   6.162   3.562 -1.5600  0.9797  0.5520
 3220TIP3   OH2 9623   2.671   1.526   0.302  0.3454 -0.2911 -0.6432
 3220TIP3    H1 9624   2.650   1.493   0.390  1.6021 -0.3004 -0.3263
 3220TIP3    H2 9625   2.694   1.448   0.252  2.1741 -0.0644 -0.2226
 3221TIP3   OH2 9626   5.705   0.207   1.030 -0.0048  0.2168 -0.4388
 3221TIP3    H1 9627   5.664   0.242   1.109  0.2647  0.4432 -0.3946
 3221TIP3    H2 9628   5.638   0.151   0.990  0.4682 -1.4042  0.9260
 3222TIP3   OH2 9629   1.034   6.354   5.866 -0.2189  0.0806  0.1602
 3222TIP3    H1 9630   1.055   6.426   5.924  0.3869 -0.4967  0.6753
 3222TIP3    H2 9631   1.084   6.372   5.786 -0.9128  0.7807 -0.1244
 3223TIP3   OH2 9632   0.693   2.394   3.413  0.3167  0.2690  0.3733
 3223TIP3    H1 9633   0.628   2.411   3.481 -0.5006  0.5536 -0.4619
 3223TIP3    H2 9634   0.756   2.334   3.454 -1.7802 -2.0022  0.4586
 3224TIP3   OH2 9635   3.902   4.769   3.718 -0.3434  0.1239  0.2332
 3224TIP3    H1 9636   3.919   4.864   3.715  0.9950 -0.1118 -0.2296
 3224TIP3    H2 9637   3.948   4.734   3.641 -2.2584 -0.7044 -0.5817
 3225TIP3   OH2 9638   1.336   5.873   0.787 -0.2539  0.3546 -0.1323
 3225TIP3    H1 9639   1.264   5.936   0.783 -0.6362 -0.1058 -0.6158
 3225TIP3    H2 9640   1.408   5.921   0.829 -0.2917  1.3548 -1.1755
 3226TIP3   OH2 9641   3.830   6.747   5.484  0.0818 -0.0812  0.1146
 3226TIP3    H1 9642   3.805   6.701   5.404 -2.3731 -0.0729  0.8092
 3226TIP3    H2 9643   3.874   6.826   5.454 -1.0094  0.0317 -1.2559
 3227TIP3   OH2 9644   4.549   4.236   3.630 -0.6784 -0.6564  0.1380
 3227TIP3    H1 9645   4.459   4.244   3.661 -0.6349  0.2417  0.0414
 3227TIP3    H2 9646   4.595   4.311   3.667  0.3503 -1.7744  1.2218
 3228TIP3   OH2 9647   7.209   1.035   4.697 -0.3371  0.1047 -0.6470
 3228TIP3    H1 9648   7.143   0.966   4.701  1.2968 -1.4656  1.7461
 3228TIP3    H2 9649   7.179   1.101   4.759 -0.0121 -0.2766 -0.0823
 3229TIP3   OH2 9650   6.286   1.949   5.527 -0.0971  0.0376 -0.2194
 3229TIP3    H1 9651   6.352   1.890   5.489 -1.5957 -0.7988 -1.6478
 3229TIP3    H2 9652   6.224   1.964   5.456 -2.7676 -1.1513  1.7215
 3230TIP3   OH2 9653   2.952   5.931   1.181  0.2687  0.0749  0.2277
 3230TIP3    H1 9654   3.004   5.897   1.254  0.6795 -0.4279 -0.2875
 3230TIP3    H2 9655   2.862   5.936   1.215  0.5481  0.4015  0.9417
 3231TIP3   OH2 9656   2.081   3.850   2.988  0.2067  0.2578  0.0123
 3231TIP3    H1 9657   2.011   3.894   3.036 -0.5875 -1.5049  0.5358
 3231TIP3    H2 9658   2.160   3.897   3.014 -0.6072  1.4774  0.4044
 3232TIP3   OH2 9659   2.025   5.396   3.860 -0.2593 -0.6596  0.3392
 3232TIP3    H1 9660   2.085   5.456   3.817 -0.8506  1.0456  1.7418
 3232TIP3    H2 9661   2.045   5.310   3.823  1.1538  0.2702 -1.1806
 3233TIP3   OH2 9662   0.297   6.404   4.686 -0.7038  0.8421  0.2004
 3233TIP3    H1 9663   0.291   6.372   4.776 -0.5721  0.2370 -0.0012
 3233TIP3    H2 9664   0.219   6.459   4.674 -0.5501  1.1931  0.7841
 3234TIP3   OH2 9665   1.105   5.104   3.940 -0.9260  0.0512 -0.8674
 3234TIP3    H1 9666   1.140   5.150   3.864 -1.7831  1.9342 -0.2057
 3234TIP3    H2 9667   1.073   5.021   3.906  0.8824 -0.1978 -2.0970
 3235TIP3   OH2 9668   0.947   2.880   1.227  0.4190  0.0106 -0.2195
 3235TIP3    H1 9669   0.896   2.857   1.305 -0.1089 -0.6485 -0.7491
 3235TIP3    H2 9670   1.018   2.816   1.225 -1.6148 -2.3642 -2.2465
 3236TIP3   OH2 9671   0.272   5.731   1.686 -0.4210 -0.1788  0.2407
 3236TIP3    H1 9672   0.289   5.819   1.721  1.1237 -1.7172  3.7939
 3236TIP3    H2 9673   0.320   5.729   1.603 -0.2278  2.1803  0.2114
 3237TIP3   OH2 9674   1.287   5.006   3.434 -0.1067 -0.3700  0.5045
 3237TIP3    H1 9675   1.333   5.089   3.428 -0.7245  0.2094  2.7976
 3237TIP3    H2 9676   1.357   4.940   3.436  0.6449  0.4127  2.7062
 3238TIP3   OH2 9677   2.831   3.803   4.875  0.4385  0.1160 -0.1609
 3238TIP3    H1 9678   2.858   3.791   4.784  0.3044  2.1312 -0.4958
 3238TIP3    H2 9679   2.911   3.829   4.921  0.8899 -2.4829  0.7123
 3239TIP3   OH2 9680   2.459   3.004   0.073  0.3401  0.8306 -0.0120
 3239TIP3    H1 9681   2.433   3.072   0.135  1.1649 -0.5565  1.9775
 3239TIP3    H2 9682   2.555   3.006   0.073  0.3652  0.1162 -0.4451
 3240TIP3   OH2 9683   2.471   4.079   2.936  0.1194 -0.8117  0.0936
 3240TIP3    H1 9684   2.415   4.108   2.864  0.0072  2.5404  1.3348
 3240TIP3    H2 9685   2.417   4.019   2.987 -0.3789 -1.8791 -1.6337
 3241TIP3   OH2 9686   7.085   3.786   5.135  0.5568  0.1492 -0.1393
 3241TIP3    H1 9687   7.028   3.710   5.144 -0.1617  0.6632 -0.2589
 3241TIP3    H2 9688   7.160   3.767   5.191  0.7984 -1.0304 -0.8303
 3242TIP3   OH2 9689   0.590   5.602   1.560 -0.0436 -0.0193 -0.6822
 3242TIP3    H1 9690   0.501   5.626   1.536 -0.5054 -1.4487 -0.4940
 3242TIP3    H2 9691   0.645   5.669   1.520 -1.1299  0.3357 -1.6240
 3243TIP3   OH2 9692   4.784   5.979   3.702  1.0475  0.2375  0.6241
 3243TIP3    H1 9693   4.782   5.887   3.729  1.8914 -0.0825 -0.3141
 3243TIP3    H2 9694   4.877   5.999   3.695  0.8651  1.1271  0.6698
 3244TIP3   OH2 9695   5.766   0.653   5.563  0.2079  0.1203 -0.5879
 3244TIP3    H1 9696   5.718   0.733   5.585 -1.4472 -1.2448  1.1972
 3244TIP3    H2 9697   5.786   0.613   5.648  1.0651 -1.3174 -1.4335
 3245TIP3   OH2 9698   1.312   5.968   3.269 -0.1388  0.2375 -0.3893
 3245TIP3    H1 9699   1.395   5.925   3.292  0.1020  0.2961 -1.1270
 3245TIP3    H2 9700   1.278   6.000   3.352  1.0031  0.9529 -0.1849
 3246TIP3   OH2 9701   1.633   3.025   2.810  0.2466  0.0688 -0.7686
 3246TIP3    H1 9702   1.660   2.947   2.762  0.0953  0.0250 -0.7842
 3246TIP3    H2 9703   1.552   2.999   2.855 -1.5762  1.1077 -3.2325
 3247TIP3   OH2 9704   2.460   2.656   2.039  0.2611 -0.3506  0.5063
 3247TIP3    H1 9705   2.485   2.748   2.031  1.1052 -0.5862  0.3027
 3247TIP3    H2 9706   2.367   2.654   2.017  0.0611  0.5507  1.2281
 3248TIP3   OH2 9707   3.245   5.856   3.759 -0.3225  0.4345  0.2634
 3248TIP3    H1 9708   3.205   5.942   3.767 -1.1071  0.4404 -2.7696
 3248TIP3    H2 9709   3.246   5.837   3.665  0.8557 -2.3968  0.7202
 3249TIP3   OH2 9710   5.488   3.869   2.797  0.1745  0.3543 -0.1081
 3249TIP3    H1 9711   5.405   3.844   2.755  0.9813 -2.9051 -0.0077
 3249TIP3    H2 9712   5.485   3.826   2.883  1.6278  0.8573  0.2166
 3250TIP3   OH2 9713   5.886   5.630   1.221  0.4682  0.0108  0.4414
 3250TIP3    H1 9714   5.830   5.590   1.154 -0.0737  1.9609 -0.3341
 3250TIP3    H2 9715   5.960   5.570   1.229  0.0870 -0.7469 -1.2367
 3251TIP3   OH2 9716   3.929   6.337   5.816  0.1162  0.0412 -0.2256
 3251TIP3    H1 9717   3.863   6.333   5.886 -0.4124 -2.3838 -0.7842
 3251TIP3    H2 9718   3.878   6.348   5.736  0.7479  3.4218 -0.3126
 3252TIP3   OH2 9719   6.425   5.573   5.752 -0.0753  0.1076 -0.3909
 3252TIP3    H1 9720   6.378   5.517   5.814  2.1699 -1.8162 -0.2776
 3252TIP3    H2 9721   6.425   5.660   5.792 -0.7372 -0.5602  1.1234
 3253TIP3   OH2 9722   6.509   4.801   2.997 -0.1969 -0.3040 -0.3118
 3253TIP3    H1 9723   6.483   4.712   2.972 -0.1984  0.0234 -1.5296
 3253TIP3    H2 9724   6.451   4.858   2.947 -1.5199  0.4202  1.8852
 3254TIP3   OH2 9725   4.041   1.100   4.859  0.6510 -0.1513 -0.3249
 3254TIP3    H1 9726   4.100   1.026   4.875  0.4207 -0.7037 -1.7879
 3254TIP3    H2 9727   4.098   1.168   4.822  0.6965  0.0227  0.0706
 3255TIP3   OH2 9728   5.721   5.118   0.218  0.1067 -0.0376 -0.1625
 3255TIP3    H1 9729   5.687   5.207   0.226 -1.3519 -0.5627 -0.1972
 3255TIP3    H2 9730   5.642   5.062   0.214  0.9135 -1.1490 -2.2951
 3256TIP3   OH2 9731   5.764   1.790   3.439 -0.0208 -0.0311 -0.0189
 3256TIP3    H1 9732   5.848   1.772   3.482  0.5090  1.6292 -0.3155
 3256TIP3    H2 9733   5.775   1.876   3.400 -1.0228 -0.8393 -2.2251
 3257TIP3   OH2 9734   3.187   4.816   1.495  0.0187  0.1164 -0.3117
 3257TIP3    H1 9735   3.200   4.773   1.580 -1.1571  0.8541  0.2648
 3257TIP3    H2 9736   3.103   4.860   1.503 -0.0484  0.3041 -1.8366
 3258TIP3   OH2 9737   3.162   3.195   3.842 -0.6589  0.2056 -0.2984
 3258TIP3    H1 9738   3.114   3.117   3.818 -1.8457  0.0185  2.3617
 3258TIP3    H2 9739   3.219   3.168   3.915  0.6203  1.3152 -0.8230
 3259TIP3   OH2 9740   0.079   3.367   0.680 -0.5718 -0.1941  0.5118
 3259TIP3    H1 9741  -0.011   3.397   0.694 -0.0730  1.0843  1.1182
 3259TIP3    H2 9742   0.122   3.381   0.765  0.2410 -0.6285  0.1805
 3260TIP3   OH2 9743   3.088   1.611   3.003 -0.1363 -0.0789 -0.1567
 3260TIP3    H1 9744   3.057   1.694   2.966 -0.4927  0.0019  0.3176
 3260TIP3    H2 9745   3.177   1.631   3.033  0.0981 -0.1019 -0.8064
 3261TIP3   OH2 9746   4.794   3.755   0.954  0.7302 -0.0492  0.3913
 3261TIP3    H1 9747   4.706   3.763   0.992  0.7799 -0.1068  0.5205
 3261TIP3    H2 9748   4.781   3.769   0.860  0.5098 -0.5403  0.3455
 3262TIP3   OH2 9749   4.874   1.875   3.387  0.2382  0.0915  0.2914
 3262TIP3    H1 9750   4.790   1.847   3.424  0.8789 -0.3064  1.4786
 3262TIP3    H2 9751   4.855   1.890   3.295 -0.6355 -2.1635  0.0421
 3263TIP3   OH2 9752   3.050   4.574   3.914  0.6090 -0.1085  0.7644
 3263TIP3    H1 9753   3.033   4.480   3.908 -1.5507  0.2877 -0.0464
 3263TIP3    H2 9754   2.978   4.608   3.967  0.2537  1.3502 -0.5977
 3264TIP3   OH2 9755   0.251   1.965   1.682 -0.1951  0.1898 -0.1373
 3264TIP3    H1 9756   0.177   1.919   1.643 -0.2260  1.0234 -1.1110
 3264TIP3    H2 9757   0.260   1.927   1.769 -1.5777 -0.1434 -0.1180
 3265TIP3   OH2 9758   2.879   4.437   1.519 -0.1861  0.9519  0.3754
 3265TIP3    H1 9759   2.969   4.407   1.533 -1.1876 -1.2429  3.1366
 3265TIP3    H2 9760   2.863   4.498   1.592 -0.9203  1.3873 -0.1328
 3266TIP3   OH2 9761   3.820   6.001   2.210 -0.1588 -0.0878  0.0903
 3266TIP3    H1 9762   3.856   6.053   2.282  0.2232 -0.3907  0.1163
 3266TIP3    H2 9763   3.821   6.061   2.135  1.2686 -0.3595 -0.1420
 3267TIP3   OH2 9764   5.881   3.905   1.820  0.5878  0.4730  0.0093
 3267TIP3    H1 9765   5.872   3.891   1.726  0.0830  1.0583 -0.0384
 3267TIP3    H2 9766   5.950   3.845   1.848  0.7845  0.3474 -0.7490
 3268TIP3   OH2 9767   5.210   6.328   1.324 -1.5369  0.2095  0.1634
 3268TIP3    H1 9768   5.216   6.424   1.330  0.9680  0.3760 -2.8017
 3268TIP3    H2 9769   5.223   6.298   1.414 -3.2838  2.5920  1.3442
 3269TIP3   OH2 9770   3.512   3.680   1.724 -0.2965 -0.1038  0.3824
 3269TIP3    H1 9771   3.426   3.676   1.767 -0.4664 -1.6090 -0.0197
 3269TIP3    H2 9772   3.495   3.650   1.634  0.3636  1.2886 -0.2437
 3270TIP3   OH2 9773   0.924   3.819   2.947  0.1685 -0.0535 -0.5873
 3270TIP3    H1 9774   0.908   3.900   2.995  0.4090 -0.0842 -0.4531
 3270TIP3    H2 9775   0.923   3.845   2.854  0.6894  0.1826 -0.5281
 3271TIP3   OH2 9776   5.941   2.192   2.573  0.0293 -0.0537  0.4811
 3271TIP3    H1 9777   5.886   2.255   2.622 -1.9626 -1.3494  0.0179
 3271TIP3    H2 9778   5.881   2.123   2.547  1.5985 -0.7503 -1.5136
 3272TIP3   OH2 9779   6.359   5.585   3.912  0.2318 -0.4601  0.0359
 3272TIP3    H1 9780   6.382   5.512   3.855  1.9776 -1.1791  1.5368
 3272TIP3    H2 9781   6.306   5.546   3.981 -0.1769 -0.0019 -0.0197
 3273TIP3   OH2 9782   5.323   1.643   3.239  0.7159 -0.1703 -0.2393
 3273TIP3    H1 9783   5.324   1.738   3.243  1.5395 -0.1681 -0.3444
 3273TIP3    H2 9784   5.325   1.615   3.331 -1.7194 -0.1128 -0.0882
 3274TIP3   OH2 9785   5.560   1.281   2.729  0.1602 -0.4287 -0.0657
 3274TIP3    H1 9786   5.485   1.232   2.761  0.0846  0.3019  0.9287
 3274TIP3    H2 9787   5.539   1.301   2.638 -0.1830 -1.4714 -0.2284
 3275TIP3   OH2 9788   5.153   1.682   5.801 -0.5783  0.0821 -0.0217
 3275TIP3    H1 9789   5.245   1.659   5.787  0.0955  2.5571 -0.1640
 3275TIP3    H2 9790   5.104   1.606   5.769  1.3537 -0.5275 -1.7722
 3276TIP3   OH2 9791   4.882   6.245   2.945  0.1228  0.0446 -0.3546
 3276TIP3    H1 9792   4.868   6.162   2.900  0.7530 -0.8005  0.9381
 3276TIP3    H2 9793   4.812   6.248   3.011 -1.2326  1.6024 -1.7891
 3277TIP3   OH2 9794   3.519   4.007   4.437  0.5782  0.7150 -0.0698
 3277TIP3    H1 9795   3.437   4.018   4.390 -1.0940  1.2179  2.7575
 3277TIP3    H2 9796   3.566   4.089   4.424  0.8367  0.3059 -1.9604
 3278TIP3   OH2 9797   1.002   5.612   2.755 -0.1601  0.1051  0.2282
 3278TIP3    H1 9798   0.974   5.537   2.807 -0.6759 -0.4956 -0.8896
 3278TIP3    H2 9799   1.068   5.577   2.695 -0.3295  0.5702 -0.2371
 3279TIP3   OH2 9800   3.074   4.321   5.767  0.1172  0.1762 -0.0513
 3279TIP3    H1 9801   3.129   4.346   5.842 -1.7237  0.8415  1.1670
 3279TIP3    H2 9802   3.080   4.226   5.764  0.7022  0.1829  0.5724
 3280TIP3   OH2 9803   3.209   1.789   1.427 -0.2231  0.1260 -0.2640
 3280TIP3    H1 9804   3.263   1.862   1.399 -1.2411  0.3124 -1.8763
 3280TIP3    H2 9805   3.128   1.829   1.460 -0.1852 -0.2166  0.2591
 3281TIP3   OH2 9806   3.531   2.781   4.238 -0.3052  0.2089  0.1537
 3281TIP3    H1 9807   3.565   2.856   4.286 -0.9921  1.9687 -1.9540
 3281TIP3    H2 9808   3.603   2.754   4.181  0.3429 -1.5525  1.7240
 3282TIP3   OH2 9809   1.494   0.524   4.587  0.4352 -0.2023 -0.0628
 3282TIP3    H1 9810   1.483   0.430   4.572  1.2214  0.0090 -2.2672
 3282TIP3    H2 9811   1.415   0.549   4.636  0.9360 -2.2348  1.9609
 3283TIP3   OH2 9812   1.242   1.659   2.675  0.2769 -0.1280  0.1347
 3283TIP3    H1 9813   1.150   1.682   2.662  0.6326  1.1622 -0.2912
 3283TIP3    H2 9814   1.241   1.595   2.746 -1.2047 -2.5847 -1.9210
 3284TIP3   OH2 9815   6.414   3.811   4.522  0.0765 -0.5516 -0.1047
 3284TIP3    H1 9816   6.470   3.831   4.447  1.3568  0.4948  1.0640
 3284TIP3    H2 9817   6.475   3.796   4.595 -1.1343  0.5722  1.2097
 3285TIP3   OH2 9818   4.865   0.605   0.191 -0.1066  0.1312  0.0196
 3285TIP3    H1 9819   4.949   0.563   0.175  0.4358  1.0122  0.5012
 3285TIP3    H2 9820   4.816   0.542   0.244  1.2410  0.6430  1.9840
 3286TIP3   OH2 9821   1.913   3.188   5.883 -0.2029  0.2349  0.4362
 3286TIP3    H1 9822   1.875   3.248   5.819 -0.3939  0.6641  0.9491
 3286TIP3    H2 9823   1.904   3.102   5.843  2.4127  0.7297 -1.5087
 3287TIP3   OH2 9824   5.938   2.152   3.570  0.1738 -0.0017  0.1746
 3287TIP3    H1 9825   5.848   2.139   3.540  0.0349  1.1903  0.0476
 3287TIP3    H2 9826   5.962   2.067   3.609 -0.6065 -0.6811 -0.7714
 3288TIP3   OH2 9827   5.691   4.006   3.294  0.1239  0.2603  0.2441
 3288TIP3    H1 9828   5.621   4.056   3.254  0.5472  1.0985  0.5236
 3288TIP3    H2 9829   5.705   3.932   3.235 -0.4442  0.5222 -0.2259
 3289TIP3   OH2 9830   2.748   5.167   5.678  0.0687 -0.0118  0.5576
 3289TIP3    H1 9831   2.720   5.233   5.741  0.5634 -0.2771  1.0669
 3289TIP3    H2 9832   2.815   5.116   5.724 -1.6562 -2.1335  0.9210
 3290TIP3   OH2 9833   4.053   2.018   0.222  0.0113  0.2961 -0.2444
 3290TIP3    H1 9834   4.081   2.098   0.267  1.0932 -1.1155  1.7254
 3290TIP3    H2 9835   4.132   1.987   0.178  0.7510 -1.6774  2.2127
 3291TIP3   OH2 9836   5.025   3.165   0.216  0.4571  0.1937 -0.1659
 3291TIP3    H1 9837   5.058   3.191   0.302  2.3713  0.2655 -0.8648
 3291TIP3    H2 9838   5.045   3.240   0.160  0.7589 -0.5031 -1.0111
 3292TIP3   OH2 9839   0.792   5.935   1.718  0.2114  0.2739  0.2258
 3292TIP3    H1 9840   0.880   5.905   1.743  0.0337 -0.8341 -0.3906
 3292TIP3    H2 9841   0.763   5.870   1.654 -1.0135  0.6989  0.3367
 3293TIP3   OH2 9842   1.134   1.288   3.857  0.2911  0.4051  0.3874
 3293TIP3    H1 9843   1.171   1.366   3.899  0.1819  0.7086 -0.0649
 3293TIP3    H2 9844   1.124   1.314   3.765 -0.1647  0.0064  0.3231
 3294TIP3   OH2 9845   3.023   3.544   2.669  0.3811  0.1222 -0.4705
 3294TIP3    H1 9846   3.069   3.484   2.728 -1.9265  0.0393  1.3840
 3294TIP3    H2 9847   3.083   3.619   2.659  1.3715 -0.4532  0.9170
 3295TIP3   OH2 9848   4.104   1.094   1.404  0.4427 -1.0263  0.2094
 3295TIP3    H1 9849   4.059   1.013   1.379 -0.3206 -0.6890  0.4625
 3295TIP3    H2 9850   4.048   1.133   1.471  1.2184 -0.6842  0.6668
 3296TIP3   OH2 9851   0.218   5.839   3.680  0.2183  0.2197 -0.3234
 3296TIP3    H1 9852   0.189   5.921   3.719 -1.1668 -0.0192 -0.8093
 3296TIP3    H2 9853   0.293   5.863   3.626  0.7226  0.9153  0.6458
 3297TIP3   OH2 9854   1.533   1.632   3.272  0.0284 -0.1200 -0.6507
 3297TIP3    H1 9855   1.478   1.705   3.300 -0.4609 -0.5111 -0.5891
 3297TIP3    H2 9856   1.585   1.610   3.349 -0.4554 -0.4098 -0.4062
 3298TIP3   OH2 9857   1.954   0.882   4.488 -0.1252  0.4091  0.7646
 3298TIP3    H1 9858   1.919   0.835   4.412 -1.0991  1.1277  0.7583
 3298TIP3    H2 9859   1.904   0.964   4.492  0.0904  0.5085  2.0144
 3299TIP3   OH2 9860   1.869   6.204   0.503  0.6443  0.3513  0.0301
 3299TIP3    H1 9861   1.864   6.114   0.534  1.3306  0.0673 -0.6528
 3299TIP3    H2 9862   1.938   6.203   0.436 -0.4416  1.0318 -1.1562
 3300TIP3   OH2 9863   4.854   5.883   0.127 -0.3765  0.2520 -0.3618
 3300TIP3    H1 9864   4.767   5.843   0.121 -0.2296 -0.0653 -0.3854
 3300TIP3    H2 9865   4.844   5.951   0.194 -1.1482  1.5480 -1.7348
 3301TIP3   OH2 9866   5.568   2.154   2.379  0.0415  0.2720  0.8185
 3301TIP3    H1 9867   5.548   2.208   2.456  1.0537  0.7444  0.7675
 3301TIP3    H2 9868   5.650   2.190   2.346  0.1239 -0.5638  0.0921
 3302TIP3   OH2 9869   0.070   4.059   1.442 -0.2679  0.2221 -0.2415
 3302TIP3    H1 9870   0.126   4.132   1.469  0.4696  0.0569 -1.2465
 3302TIP3    H2 9871   0.094   3.987   1.500 -0.5412  0.5825  0.3314
 3303TIP3   OH2 9872   5.730   1.005   4.372 -0.2488  0.2927  0.2923
 3303TIP3    H1 9873   5.697   0.948   4.302  1.0924 -0.4583  0.2352
 3303TIP3    H2 9874   5.652   1.049   4.406 -1.4628 -1.9702  0.6809
 3304TIP3   OH2 9875   4.420   1.072   3.545  0.0025  0.9131  0.3141
 3304TIP3    H1 9876   4.364   0.997   3.529  0.6672  0.8511 -1.9804
 3304TIP3    H2 9877   4.509   1.041   3.527  0.2056  2.4205 -1.6198
 3305TIP3   OH2 9878   1.086   4.288   2.473  0.2104 -0.0786 -0.2070
 3305TIP3    H1 9879   1.016   4.353   2.479  0.6546  0.6268 -2.1319
 3305TIP3    H2 9880   1.143   4.309   2.547 -0.6040  0.5553  0.2701
 3306TIP3   OH2 9881   1.994   5.736   4.932 -0.6752 -0.0212 -0.3699
 3306TIP3    H1 9882   2.017   5.759   4.841 -0.9064 -0.8060 -0.6344
 3306TIP3    H2 9883   2.078   5.733   4.977 -0.4568 -0.6163 -0.7985
 3307TIP3   OH2 9884   4.052   0.361   0.418  0.2612  0.3248  0.3373
 3307TIP3    H1 9885   4.125   0.299   0.416 -1.0116 -1.1912 -0.4520
 3307TIP3    H2 9886   4.006   0.342   0.499  0.8086  1.4164  0.9337
 3308TIP3   OH2 9887   7.207   0.715   2.161 -0.0415  0.5169  0.0911
 3308TIP3    H1 9888   7.161   0.636   2.191  0.8320  0.1425  0.5105
 3308TIP3    H2 9889   7.192   0.779   2.230 -0.2957  0.5300  0.0212
 3309TIP3   OH2 9890   0.870   0.418   5.868 -0.1728  0.0681 -0.5657
 3309TIP3    H1 9891   0.937   0.428   5.801 -0.7872 -3.5115 -1.9046
 3309TIP3    H2 9892   0.919   0.413   5.950  1.0509 -0.5906 -1.3121
 3310TIP3   OH2 9893   6.824   2.685   5.383 -0.7910  0.0732  0.2043
 3310TIP3    H1 9894   6.821   2.780   5.394 -0.4795  0.3515 -1.7312
 3310TIP3    H2 9895   6.732   2.660   5.370 -0.6914  0.4609 -1.5065
 3311TIP3   OH2 9896   2.698   5.085   2.157 -0.3484 -0.4449  0.0599
 3311TIP3    H1 9897   2.762   5.043   2.099  1.0135  1.8464 -0.1885
 3311TIP3    H2 9898   2.660   5.012   2.206  2.0592 -1.9856 -0.1697
 3312TIP3   OH2 9899   6.686   5.084   2.186 -0.1124 -0.3669 -0.2912
 3312TIP3    H1 9900   6.632   5.115   2.113  1.2948 -0.3640 -1.3756
 3312TIP3    H2 9901   6.715   5.164   2.230 -1.7476 -0.3905  0.9111
 3313TIP3   OH2 9902   3.161   6.572   2.147 -0.4366  0.2522 -0.6335
 3313TIP3    H1 9903   3.201   6.659   2.149 -2.0605  1.0236  0.9447
 3313TIP3    H2 9904   3.082   6.583   2.094 -1.6630  0.2610  1.1203
 3314TIP3   OH2 9905   5.519   4.595   1.410  0.3010 -0.2652 -0.4403
 3314TIP3    H1 9906   5.537   4.520   1.468 -0.5317  0.5263  0.8761
 3314TIP3    H2 9907   5.541   4.672   1.463 -2.8493  0.5967 -0.2076
 3315TIP3   OH2 9908   2.250   0.792   0.780  0.0136 -0.2314  0.0807
 3315TIP3    H1 9909   2.322   0.855   0.787 -0.2926  0.0564  0.6897
 3315TIP3    H2 9910   2.261   0.735   0.855  1.5988 -2.3276 -1.6163
 3316TIP3   OH2 9911   1.709   5.146   2.093  0.1926  0.2484 -0.4871
 3316TIP3    H1 9912   1.699   5.241   2.088  2.5262  0.5021 -1.2052
 3316TIP3    H2 9913   1.624   5.112   2.063 -0.0350  2.1103 -2.1788
 3317TIP3   OH2 9914   1.655   1.232   1.241 -0.6893  0.6905  0.2981
 3317TIP3    H1 9915   1.664   1.172   1.166 -3.1533 -0.4385  0.7985
 3317TIP3    H2 9916   1.670   1.319   1.204 -1.0092  0.0890 -1.3242
 3318TIP3   OH2 9917   7.150   0.315   2.495  0.1436 -0.0363  0.1394
 3318TIP3    H1 9918   7.060   0.282   2.498  0.0980 -0.0213 -0.8637
 3318TIP3    H2 9919   7.204   0.238   2.515  0.0589 -0.8864 -2.5668
 3319TIP3   OH2 9920   0.804   2.707   1.899 -0.2809 -0.0414  0.8914
 3319TIP3    H1 9921   0.861   2.730   1.825 -0.4382 -0.3525  0.6651
 3319TIP3    H2 9922   0.758   2.628   1.868 -3.0476  1.8397 -0.1216
 3320TIP3   OH2 9923   7.164   3.165   5.507  0.2550  0.0633  0.2730
 3320TIP3    H1 9924   7.143   3.086   5.457 -1.3194  0.5199  0.1434
 3320TIP3    H2 9925   7.226   3.136   5.573  0.6549 -1.0170 -0.5394
 3321TIP3   OH2 9926   1.027   4.114   4.885 -0.2677  0.2139  0.4863
 3321TIP3    H1 9927   1.070   4.132   4.802  0.0609 -0.6155  0.4729
 3321TIP3    H2 9928   0.936   4.094   4.862 -0.3231  0.5842  0.3851
 3322TIP3   OH2 9929   4.316   0.167   5.560  0.5323 -0.0648  0.4604
 3322TIP3    H1 9930   4.383   0.118   5.608 -0.3578 -0.9912  0.7993
 3322TIP3    H2 9931   4.324   0.135   5.470  1.5028  0.9063  0.1801
 3323TIP3   OH2 9932   4.050   0.794   1.543 -0.3554 -0.2665 -0.4409
 3323TIP3    H1 9933   3.981   0.843   1.498  0.7546  1.5998 -0.1980
 3323TIP3    H2 9934   4.115   0.776   1.474  0.1522  0.3567 -0.1370
 3324TIP3   OH2 9935   1.729   2.807   1.884  0.0534 -0.1397 -0.5520
 3324TIP3    H1 9936   1.768   2.737   1.832  1.5386 -0.0031  0.3146
 3324TIP3    H2 9937   1.799   2.834   1.944 -1.4552 -0.0269  1.2551
 3325TIP3   OH2 9938   5.370   6.344   0.175  0.1454  0.2088 -0.3849
 3325TIP3    H1 9939   5.357   6.439   0.173 -1.3505  0.0651  0.5823
 3325TIP3    H2 9940   5.409   6.328   0.261  1.4546  0.0383 -0.9938
 3326TIP3   OH2 9941   1.826   2.622   4.028  0.0987 -0.4121  0.3168
 3326TIP3    H1 9942   1.818   2.648   3.936  2.4260  0.9701  0.4275
 3326TIP3    H2 9943   1.778   2.690   4.076  1.6200  0.7517  0.2672
 3327TIP3   OH2 9944   1.100   6.567   4.014  0.1627  0.6921  0.3715
 3327TIP3    H1 9945   1.029   6.606   4.064 -0.2089 -0.2385  0.6064
 3327TIP3    H2 9946   1.078   6.473   4.012  1.8021  0.2586  1.1374
 3328TIP3   OH2 9947   7.102   5.574   3.620  0.0881 -0.4474 -0.1781
 3328TIP3    H1 9948   7.191   5.556   3.653  0.4984 -0.1962 -1.1232
 3328TIP3    H2 9949   7.081   5.661   3.655 -0.0082 -0.7331  0.4915
 3329TIP3   OH2 9950   5.587   2.876   0.095 -0.7530  0.1645  0.0111
 3329TIP3    H1 9951   5.527   2.937   0.138  0.9845 -0.1118  3.1158
 3329TIP3    H2 9952   5.671   2.921   0.095 -0.2157 -0.7768 -1.1506
 3330TIP3   OH2 9953   0.738   4.839   1.179 -0.0620 -0.7040  0.0048
 3330TIP3    H1 9954   0.675   4.910   1.176  0.5125 -0.1382  0.9130
 3330TIP3    H2 9955   0.820   4.881   1.207  0.1320 -1.8227  1.1938
 3331TIP3   OH2 9956   6.895   2.770   4.474 -0.3428 -0.4958  0.3850
 3331TIP3    H1 9957   6.837   2.768   4.398  0.5313 -0.9270 -0.2800
 3331TIP3    H2 9958   6.873   2.852   4.519  0.9469  1.1349 -1.7775
 3332TIP3   OH2 9959   4.492   5.748   4.279 -0.5145 -0.3100  0.4978
 3332TIP3    H1 9960   4.413   5.753   4.332 -0.5151 -0.5687  0.5238
 3332TIP3    H2 9961   4.557   5.799   4.327 -0.4174 -0.8303  0.9306
 3333TIP3   OH2 9962   2.594   2.498   1.033  0.3077  0.7559 -0.1419
 3333TIP3    H1 9963   2.577   2.406   1.052  3.3666 -0.0050 -0.5944
 3333TIP3    H2 9964   2.583   2.506   0.939 -0.1175  0.9388 -0.0837
 3334TIP3   OH2 9965   5.674   0.164   0.094  1.3011 -0.3608 -0.2330
 3334TIP3    H1 9966   5.769   0.162   0.087  1.3998 -1.1646  1.0410
 3334TIP3    H2 9967   5.655   0.242   0.147  1.2457 -0.1739 -0.5269
 3335TIP3   OH2 9968   0.815   3.799   3.593  0.4622  0.2525 -0.4219
 3335TIP3    H1 9969   0.802   3.783   3.686 -0.3755  0.1266 -0.5576
 3335TIP3    H2 9970   0.911   3.804   3.583  0.5533  0.5666  0.4876
 3336TIP3   OH2 9971   6.917   2.137   1.903 -0.0305 -0.2662 -0.1284
 3336TIP3    H1 9972   6.871   2.061   1.867  1.7687 -1.9259  0.8831
 3336TIP3    H2 9973   6.890   2.141   1.994  0.4276 -0.1530  0.0074
 3337TIP3   OH2 9974   3.920   5.792   3.655 -0.0569 -0.1898  0.1337
 3337TIP3    H1 9975   3.840   5.796   3.603  0.9748  1.3361 -1.4445
 3337TIP3    H2 9976   3.961   5.878   3.643  2.0917 -1.1110  0.4368
 3338TIP3   OH2 9977   4.691   4.283   4.135  0.8923 -0.2478 -0.5193
 3338TIP3    H1 9978   4.609   4.294   4.086  0.3576 -2.3308 -0.2181
 3338TIP3    H2 9979   4.737   4.366   4.124 -1.7054  1.4099  0.1784
 3339TIP3   OH2 9980   5.898   3.251   5.203 -0.3033  0.0603 -0.0823
 3339TIP3    H1 9981   5.807   3.232   5.227 -0.7807  1.0787 -1.0026
 3339TIP3    H2 9982   5.903   3.347   5.204  0.8303  0.0132  0.1602
 3340TIP3   OH2 9983   0.040   2.063   0.418 -0.3121  0.7328 -0.1986
 3340TIP3    H1 9984  -0.019   2.060   0.493  1.7164  0.1990  1.4756
 3340TIP3    H2 9985   0.072   2.154   0.417 -0.9978  0.9755 -0.9917
 3341TIP3   OH2 9986   5.990   3.583   2.844  0.0426 -0.4032 -0.2395
 3341TIP3    H1 9987   6.027   3.657   2.796 -0.1921 -2.1763 -3.4821
 3341TIP3    H2 9988   5.897   3.585   2.823  0.1114 -1.8556 -0.7945
 3342TIP3   OH2 9989   6.703   4.501   1.147  0.2302  0.1388 -0.3648
 3342TIP3    H1 9990   6.714   4.596   1.144  0.4472  0.1750  1.1238
 3342TIP3    H2 9991   6.649   4.481   1.070 -0.8228  1.6071 -0.0377
 3343TIP3   OH2 9992   7.121   5.582   2.203 -0.5228 -0.0651  0.3498
 3343TIP3    H1 9993   7.077   5.499   2.191  1.4635 -1.1177 -0.0976
 3343TIP3    H2 9994   7.205   5.572   2.158 -0.8219  2.7285 -1.1128
 3344TIP3   OH2 9995   3.460   4.263   4.226  0.4811 -0.5325  0.0386
 3344TIP3    H1 9996   3.372   4.265   4.265  0.5823 -1.3266  0.3369
 3344TIP3    H2 9997   3.519   4.269   4.300  0.6914  0.2829 -0.1843
 3345TIP3   OH2 9998   1.789   4.279   2.104 -0.0414  0.4211 -0.4506
 3345TIP3    H1 9999   1.732   4.341   2.057  0.8657  2.1781  0.6299
 3345TIP3    H210000   1.747   4.268   2.189  0.9831  1.4341  0.2167
 3346TIP3   OH210001   1.658   6.773   4.804 -0.0217  0.5466  0.0058
 3346TIP3    H110002   1.601   6.850   4.798  0.1013  0.5427 -1.6033
 3346TIP3    H210003   1.603   6.700   4.777 -0.0803  0.0708  1.3456
 3347TIP3   OH210004   1.623   1.260   0.921  0.1363 -0.7847 -0.1929
 3347TIP3    H110005   1.608   1.200   0.848  0.2997 -1.2538  0.1530
 3347TIP3    H210006   1.691   1.319   0.889 -0.2419 -0.5841 -0.6463
 3348TIP3   OH210007   1.747   0.837   3.981  0.0034  0.5789 -0.2273
 3348TIP3    H110008   1.788   0.753   4.003 -0.1074  0.1549 -1.5617
 3348TIP3    H210009   1.781   0.859   3.895 -0.0411  1.8824  0.0595
 3349TIP3   OH210010   0.578   4.107   3.640 -0.1446 -0.0707 -0.2799
 3349TIP3    H110011   0.597   4.200   3.647 -2.0072  0.5021 -1.8641
 3349TIP3    H210012   0.635   4.075   3.570  1.8881 -0.6317  1.5203
 3350TIP3   OH210013   0.763   6.182   5.716  0.1048  0.0191 -0.2412
 3350TIP3    H110014   0.750   6.192   5.811  0.7546 -0.7441 -0.0689
 3350TIP3    H210015   0.696   6.239   5.678  0.4015  1.0230  0.6748
 3351TIP3   OH210016   2.052   3.950   5.361 -0.1815  0.1497  0.2070
 3351TIP3    H110017   2.127   3.935   5.304 -0.2435  2.2951 -0.5313
 3351TIP3    H210018   2.078   3.913   5.445  0.9903 -0.6787 -0.4977
 3352TIP3   OH210019   5.029   1.816   0.369 -0.3021  0.0685 -0.5061
 3352TIP3    H110020   5.046   1.764   0.292  3.8607  0.6656 -0.2218
 3352TIP3    H210021   4.997   1.900   0.335 -0.6509 -0.4052 -1.3762
 3353TIP3   OH210022   6.370   0.760   4.386 -0.1742 -0.4222 -0.0995
 3353TIP3    H110023   6.415   0.800   4.311 -2.7316  1.6441 -0.7055
 3353TIP3    H210024   6.331   0.681   4.351 -1.1773  0.4223 -0.9633
 3354TIP3   OH210025   6.628   3.070   3.557 -0.4975 -0.0945  0.2564
 3354TIP3    H110026   6.543   3.110   3.577 -0.4721 -0.7892  1.9567
 3354TIP3    H210027   6.634   3.073   3.462 -1.6126  1.6105  0.2044
 3355TIP3   OH210028   2.470   6.018   1.881  0.5093  0.0093  0.4323
 3355TIP3    H110029   2.479   5.925   1.860  0.5331 -0.3402  1.8722
 3355TIP3    H210030   2.559   6.046   1.902  0.6036  0.5337 -0.6150
 3356TIP3   OH210031   2.951   6.499   0.653  0.4619 -0.0104  0.4185
 3356TIP3    H110032   2.875   6.552   0.677  0.2705 -0.0978  0.0193
 3356TIP3    H210033   3.006   6.558   0.602 -0.2008 -0.4502 -0.8368
 3357TIP3   OH210034   3.061   3.248   4.333  0.2159 -0.1348  0.1016
 3357TIP3    H110035   3.049   3.325   4.388  0.9743 -0.3497  0.5716
 3357TIP3    H210036   3.124   3.194   4.380 -0.1705 -0.9619 -0.3134
 3358TIP3   OH210037   6.189   0.444   2.144  0.4056  0.5196  0.6566
 3358TIP3    H110038   6.190   0.487   2.229 -0.0471 -1.7684  1.8976
 3358TIP3    H210039   6.279   0.450   2.113  0.4787  1.7585  1.0766
 3359TIP3   OH210040   4.581   0.408   5.834  0.2271 -0.1433  0.0511
 3359TIP3    H110041   4.557   0.358   5.912 -0.6256  0.4538  0.1834
 3359TIP3    H210042   4.606   0.342   5.769 -0.4186 -0.7114  0.3779
 3360TIP3   OH210043   4.852   6.774   0.427 -0.1814 -0.0014 -0.1258
 3360TIP3    H110044   4.829   6.701   0.370 -1.5630 -0.0381  0.4275
 3360TIP3    H210045   4.767   6.811   0.454  0.4815  1.4317  0.0805
 3361TIP3   OH210046   3.547   6.191   3.406 -0.2580 -0.7752 -0.3691
 3361TIP3    H110047   3.469   6.135   3.400 -1.5558  0.9708 -0.6316
 3361TIP3    H210048   3.544   6.246   3.328  1.5229 -0.9900 -0.6229
 3362TIP3   OH210049   0.850   1.118   1.025  0.1725 -0.0653 -0.1454
 3362TIP3    H110050   0.902   1.037   1.022  0.7463  0.2825  0.1087
 3362TIP3    H210051   0.916   1.188   1.025 -0.3133  0.3939 -0.1721
 3363TIP3   OH210052   1.849   6.763   5.036 -0.0032  0.4588  0.0942
 3363TIP3    H110053   1.809   6.719   4.961  1.9437 -0.9472 -0.1981
 3363TIP3    H210054   1.932   6.799   5.002 -0.2682  2.0336  0.9949
 3364TIP3   OH210055   3.986   2.964   3.014  0.8454  0.4309 -0.2392
 3364TIP3    H110056   3.947   2.953   3.101  1.2199  0.7390 -0.0312
 3364TIP3    H210057   3.967   3.055   2.991 -1.1635 -0.2264 -1.4242
 3365TIP3   OH210058   6.282   6.716   0.214 -0.4100  0.0113  0.4782
 3365TIP3    H110059   6.286   6.638   0.268 -0.0632 -0.5298 -0.3096
 3365TIP3    H210060   6.189   6.730   0.196 -0.4307 -0.6267  0.0594
 3366TIP3   OH210061   1.879   4.514   0.231 -0.3808 -0.0148 -0.4451
 3366TIP3    H110062   1.908   4.604   0.213  1.6165 -0.3049  1.0235
 3366TIP3    H210063   1.927   4.461   0.167  1.4955 -0.3672  1.1665
 3367TIP3   OH210064   5.567   0.702   4.303  0.0184  0.6353 -0.3752
 3367TIP3    H110065   5.502   0.639   4.335 -1.1953  0.9128 -2.1445
 3367TIP3    H210066   5.631   0.648   4.256  2.2545  0.1221  2.8585
 3368TIP3   OH210067   2.725   1.433   0.831 -0.3197  0.7145 -0.4223
 3368TIP3    H110068   2.668   1.376   0.778 -0.2903  1.7110 -1.5566
 3368TIP3    H210069   2.814   1.408   0.805 -0.1522 -1.0408  1.5565
 3369TIP3   OH210070   4.888   1.342   2.059 -0.3676  0.3436  0.3566
 3369TIP3    H110071   4.817   1.288   2.092 -0.1694 -1.2794 -1.6011
 3369TIP3    H210072   4.855   1.431   2.060 -1.2927  0.0079  2.2684
 3370TIP3   OH210073   7.110   1.609   0.449 -0.1771 -0.4748 -0.5703
 3370TIP3    H110074   7.135   1.551   0.377 -0.3630 -1.7587  0.3464
 3370TIP3    H210075   7.016   1.623   0.437 -0.0835 -0.1479 -0.9374
 3371TIP3   OH210076   1.210   1.723   1.357 -0.0025 -0.8098  0.5473
 3371TIP3    H110077   1.267   1.661   1.312  0.6833  0.1529  0.0665
 3371TIP3    H210078   1.122   1.698   1.330  0.4164  0.6826 -2.6700
 3372TIP3   OH210079   6.478   6.442   2.268  0.0690  0.1649 -0.1728
 3372TIP3    H110080   6.402   6.497   2.282  0.1269  0.0195  0.7558
 3372TIP3    H210081   6.444   6.352   2.269 -0.1057  0.1535 -2.1672
 3373TIP3   OH210082   0.325   0.042   4.918 -0.5273  0.6534  0.1684
 3373TIP3    H110083   0.242   0.089   4.912  0.0950  1.7364 -0.3499
 3373TIP3    H210084   0.360   0.044   4.828 -0.2919 -0.4502  0.2249
 3374TIP3   OH210085   0.950   6.485   4.857  0.1692  0.3246  0.0103
 3374TIP3    H110086   1.032   6.521   4.822 -1.0406  2.5236 -0.7882
 3374TIP3    H210087   0.895   6.562   4.872 -2.2545 -1.1391 -0.8040
 3375TIP3   OH210088   0.066   4.129   3.799 -0.6224  0.3252 -0.2349
 3375TIP3    H110089   0.018   4.061   3.752 -0.6593  0.4541 -0.3817
 3375TIP3    H210090   0.081   4.197   3.734  1.9488 -0.7751 -0.9305
 3376TIP3   OH210091   6.350   2.085   3.009  0.1219  0.0352  0.2627
 3376TIP3    H110092   6.290   2.082   3.083  0.5642 -1.9375  0.6126
 3376TIP3    H210093   6.411   2.012   3.025 -0.4961 -1.2706 -2.6203
 3377TIP3   OH210094   6.210   0.365   3.394 -0.4785  0.2388 -0.0777
 3377TIP3    H110095   6.134   0.323   3.354 -0.1659 -0.6100  0.2152
 3377TIP3    H210096   6.241   0.425   3.326 -0.9490  0.0325 -0.4854
 3378TIP3   OH210097   2.748   2.761   4.343  0.4913 -0.0360 -0.1154
 3378TIP3    H110098   2.823   2.718   4.385 -0.1984 -1.7659 -0.5654
 3378TIP3    H210099   2.779   2.782   4.255  0.5121 -0.5823 -0.2418
 3379TIP3   OH210100   4.485   4.342   5.543 -1.0203  0.2721 -0.2396
 3379TIP3    H110101   4.460   4.249   5.537 -0.3911  0.0831 -0.0287
 3379TIP3    H210102   4.437   4.375   5.618  0.9705 -0.6394  1.5374
 3380TIP3   OH210103   4.916   5.635   4.854  0.3285  0.1639  0.1981
 3380TIP3    H110104   4.870   5.551   4.860  2.2117 -1.0046 -1.0063
 3380TIP3    H210105   4.920   5.653   4.761  1.1146  0.9387  0.3768
 3381TIP3   OH210106   6.777   1.134   3.699 -0.0153 -0.1998 -0.4687
 3381TIP3    H110107   6.863   1.175   3.707  0.3772 -1.0642 -0.1555
 3381TIP3    H210108   6.796   1.044   3.672 -0.9138  0.1340 -2.3654
 3382TIP3   OH210109   5.766   5.066   1.692 -1.1142 -0.1330  0.0691
 3382TIP3    H110110   5.714   5.111   1.758 -0.2151  0.5420  0.3410
 3382TIP3    H210111   5.801   5.136   1.637  0.6261 -0.4241  0.7303
 3383TIP3   OH210112   2.105   2.899   3.154  0.3331 -0.0300 -0.0268
 3383TIP3    H110113   2.023   2.932   3.116 -0.0640  0.2168  1.0174
 3383TIP3    H210114   2.145   2.848   3.083 -0.4891  0.2414 -0.7047
 3384TIP3   OH210115   5.088   4.369   4.329 -0.0731 -0.1445  0.3381
 3384TIP3    H110116   5.054   4.384   4.418 -0.0404  0.0880  0.3138
 3384TIP3    H210117   5.130   4.283   4.334  0.1427 -0.0268  0.6152
 3385TIP3   OH210118   3.203   0.508   5.866 -0.2066 -0.8798 -0.5488
 3385TIP3    H110119   3.126   0.490   5.812 -1.2706 -0.8996  0.9001
 3385TIP3    H210120   3.240   0.421   5.883 -1.3928 -1.1597  0.8458
 3386TIP3   OH210121   1.050   5.784   5.491 -0.0939  0.0194 -0.3449
 3386TIP3    H110122   1.069   5.715   5.427 -0.1273 -0.6881  0.3795
 3386TIP3    H210123   0.992   5.741   5.555  0.5137  0.4893  0.5437
 3387TIP3   OH210124   4.371   5.059   4.832  0.2966  0.1062  0.0358
 3387TIP3    H110125   4.419   5.013   4.901 -1.1435  1.2831  1.8706
 3387TIP3    H210126   4.379   5.001   4.756  3.4469 -0.3886  0.5905
 3388TIP3   OH210127   6.915   0.712   1.171  0.1504 -0.4323  0.1932
 3388TIP3    H110128   6.996   0.742   1.212  1.1558 -0.4479 -1.6702
 3388TIP3    H210129   6.894   0.780   1.107 -1.4294 -0.3396  0.7798
 3389TIP3   OH210130   0.103   4.503   3.193  0.2346  0.4364 -0.0778
 3389TIP3    H110131   0.194   4.513   3.221  0.3908  0.0618 -0.4240
 3389TIP3    H210132   0.106   4.430   3.130 -0.4258 -0.0799  0.4721
 3390TIP3   OH210133   0.135   2.764   3.989 -0.4877 -0.8437 -0.7089
 3390TIP3    H110134   0.054   2.800   3.952 -0.8632 -0.0336  0.8213
 3390TIP3    H210135   0.202   2.782   3.923 -1.4057 -0.8433 -1.6644
 3391TIP3   OH210136   0.190   4.132   2.511 -0.3127 -0.3361  0.5385
 3391TIP3    H110137   0.115   4.189   2.495 -1.5285 -2.1620 -0.7510
 3391TIP3    H210138   0.266   4.189   2.507 -1.4805  1.2081 -0.4976
 3392TIP3   OH210139   0.960   3.457   0.817 -0.6872  0.0586  0.1522
 3392TIP3    H110140   1.048   3.481   0.847 -0.9350  1.9163 -0.4749
 3392TIP3    H210141   0.951   3.365   0.840  1.3563 -0.1243  0.3974
 3393TIP3   OH210142   2.224   3.807   1.542  0.0774  0.0745 -0.8233
 3393TIP3    H110143   2.308   3.761   1.543  1.5465  2.4860 -2.5528
 3393TIP3    H210144   2.185   3.786   1.627  1.4467 -2.7411 -0.7501
 3394TIP3   OH210145   4.981   3.309   3.041 -0.2165  0.2917 -0.1712
 3394TIP3    H110146   4.993   3.241   3.106 -0.5474 -0.5629 -0.9835
 3394TIP3    H210147   4.913   3.366   3.077  0.4297  0.5085  0.7448
 3395TIP3   OH210148   3.195   3.649   0.874 -0.0885 -0.3090  0.2091
 3395TIP3    H110149   3.271   3.608   0.831 -0.5939  1.5057 -2.7006
 3395TIP3    H210150   3.229   3.730   0.912 -0.3267 -0.0676 -0.0841
 3396TIP3   OH210151   2.182   1.121   0.837 -0.4229  0.0939 -0.2943
 3396TIP3    H110152   2.180   1.213   0.864 -0.9676  0.2719 -0.9265
 3396TIP3    H210153   2.147   1.074   0.913 -0.6879  0.4687 -0.1796
 3397TIP3   OH210154   3.882   3.430   4.183 -0.0976 -0.0689  0.3780
 3397TIP3    H110155   3.925   3.431   4.097 -0.9282  0.4314 -0.0395
 3397TIP3    H210156   3.789   3.415   4.163 -0.3739  0.5712  1.1576
 3398TIP3   OH210157   2.778   4.981   3.390 -0.2198  0.4920  0.0532
 3398TIP3    H110158   2.816   4.897   3.415  0.4082  0.1351 -1.9077
 3398TIP3    H210159   2.853   5.039   3.378 -0.6012  1.1058  0.6014
 3399TIP3   OH210160   3.757   2.716   0.393 -0.0146  0.6146  0.5092
 3399TIP3    H110161   3.796   2.719   0.306  0.9280 -0.3063  0.8670
 3399TIP3    H210162   3.747   2.808   0.418 -0.7623  0.8912 -0.7538
 3400TIP3   OH210163   2.178   3.446   3.879 -0.1917  0.2886 -0.6944
 3400TIP3    H110164   2.116   3.431   3.807 -2.9536  0.0190  1.5356
 3400TIP3    H210165   2.161   3.536   3.906  0.9732  0.4603 -0.5182
 3401TIP3   OH210166   2.531   2.510   0.371 -0.4524  0.4212  0.1906
 3401TIP3    H110167   2.579   2.427   0.361  1.0982  1.1604  1.0726
 3401TIP3    H210168   2.551   2.559   0.291 -0.3788  0.4219  0.2094
 3402TIP3   OH210169   0.327   3.867   5.281 -0.3126  0.4387 -0.5752
 3402TIP3    H110170   0.408   3.900   5.242 -0.5958 -0.5760 -2.1025
 3402TIP3    H210171   0.297   3.937   5.339  1.4091  1.0034 -0.3219
 3403TIP3   OH210172   4.263   6.030   1.519  0.2434  0.6727 -0.1872
 3403TIP3    H110173   4.340   6.082   1.543  1.5989 -1.2679 -0.1003
 3403TIP3    H210174   4.248   5.974   1.595  0.4820 -0.8934 -1.2548
 3404TIP3   OH210175   5.647   1.945   0.741  0.0704 -0.2813 -0.2568
 3404TIP3    H110176   5.734   1.907   0.726  0.5242  0.2170  0.9275
 3404TIP3    H210177   5.616   1.901   0.820  0.2417  1.1634  0.6429
 3405TIP3   OH210178   4.919   0.887   1.663 -0.7323 -0.0567  0.5112
 3405TIP3    H110179   4.906   0.957   1.600 -0.4892 -0.6242 -0.1733
 3405TIP3    H210180   4.961   0.929   1.738  0.7172  0.2772 -0.4505
 3406TIP3   OH210181   1.460   0.920   1.556 -0.1925 -0.0043 -0.8014
 3406TIP3    H110182   1.450   0.976   1.479 -3.4848  0.5801 -0.1230
 3406TIP3    H210183   1.529   0.961   1.607 -0.1162  1.4170 -1.9749
 3407TIP3   OH210184   4.278   6.411   5.608  0.8213 -0.3046 -0.2609
 3407TIP3    H110185   4.246   6.498   5.584 -0.0573 -0.3523  0.7078
 3407TIP3    H210186   4.264   6.405   5.702 -0.7834 -2.1545 -0.5627
 3408TIP3   OH210187   1.694   3.710   2.478 -0.4170 -0.0269  0.3008
 3408TIP3    H110188   1.675   3.699   2.384 -1.1608  0.6112  0.3663
 3408TIP3    H210189   1.679   3.623   2.515 -0.8195 -0.1172 -0.0611
 3409TIP3   OH210190   3.470   4.866   4.482  0.2758  0.2343 -0.2792
 3409TIP3    H110191   3.403   4.817   4.434  1.2864 -1.5660  0.0482
 3409TIP3    H210192   3.426   4.897   4.561 -0.3292 -0.4304 -0.3480
 3410TIP3   OH210193   2.829   4.354   5.674 -0.1903  0.2855  0.0647
 3410TIP3    H110194   2.799   4.407   5.747 -1.8808  0.1760 -0.5161
 3410TIP3    H210195   2.920   4.334   5.695 -0.5988  0.3487  2.0798
 3411TIP3   OH210196   2.440   6.668   2.821  0.2541  0.1785 -0.3537
 3411TIP3    H110197   2.401   6.755   2.820 -0.3167  0.0448  2.4668
 3411TIP3    H210198   2.392   6.620   2.754 -0.5929  1.5710 -0.7947
 3412TIP3   OH210199   4.760   3.800   5.025 -0.8083  0.3727  0.1146
 3412TIP3    H110200   4.822   3.823   5.095 -2.2379 -1.6242  2.1782
 3412TIP3    H210201   4.802   3.727   4.980 -0.4608  0.8291 -0.3177
 3413TIP3   OH210202   1.847   6.027   0.168  0.0329  0.0404  0.2483
 3413TIP3    H110203   1.913   6.036   0.237  0.6988  1.8560 -0.5650
 3413TIP3    H210204   1.880   6.079   0.096 -1.9713  0.4445 -0.4520
 3414TIP3   OH210205   2.274   6.588   1.956 -0.1229  0.4630  0.4334
 3414TIP3    H110206   2.306   6.545   1.876  1.2459  1.8177  0.2107
 3414TIP3    H210207   2.235   6.670   1.925  0.5528  1.0694  1.1731
 3415TIP3   OH210208   4.127   5.391   5.235 -0.1316  0.0141 -0.0153
 3415TIP3    H110209   4.088   5.304   5.221 -0.0320 -0.2346  1.1740
 3415TIP3    H210210   4.200   5.375   5.295 -0.8025  1.0586  1.1217
 3416TIP3   OH210211   5.370   3.865   1.649 -0.3885 -0.2238 -0.1158
 3416TIP3    H110212   5.379   3.959   1.636  0.2212 -0.5016 -2.1714
 3416TIP3    H210213   5.428   3.845   1.723  0.0990  0.9028 -0.1708
 3417TIP3   OH210214   0.347   0.412   2.944 -0.0168 -0.2295  0.3055
 3417TIP3    H110215   0.362   0.447   3.032 -0.5860 -0.8125  0.6431
 3417TIP3    H210216   0.334   0.318   2.957 -0.0846 -0.3290 -0.4066
 3418TIP3   OH210217   0.158   0.051   0.716 -0.4970  0.7428  0.2033
 3418TIP3    H110218   0.129   0.007   0.636 -0.0287 -1.3633  1.1018
 3418TIP3    H210219   0.077   0.085   0.754 -1.3712 -1.6616  0.7235
 3419TIP3   OH210220   0.568   0.576   0.169 -0.7154 -0.2512 -0.1692
 3419TIP3    H110221   0.543   0.531   0.250 -0.2425  0.6123  0.4772
 3419TIP3    H210222   0.574   0.668   0.194 -1.3135  0.1381 -1.3766
 3420TIP3   OH210223   2.779   6.524   3.799  0.2450 -0.2892  0.0208
 3420TIP3    H110224   2.817   6.612   3.802 -2.0352  0.7454  0.6602
 3420TIP3    H210225   2.755   6.511   3.707 -1.3661  0.6921  0.2714
 3421TIP3   OH210226   2.482   1.584   0.511 -0.1945  0.2071  0.0710
 3421TIP3    H110227   2.435   1.594   0.427 -0.9048 -0.8938  0.3159
 3421TIP3    H210228   2.419   1.539   0.568  0.3478  0.7902  1.1465
 3422TIP3   OH210229   0.806   4.009   0.693  0.2672  0.4043  0.0023
 3422TIP3    H110230   0.810   3.938   0.757 -0.7764  0.9382  0.6970
 3422TIP3    H210231   0.752   3.975   0.622 -1.0179  0.7752  0.7537
 3423TIP3   OH210232   3.982   2.014   1.212  0.2256 -0.3642 -0.3112
 3423TIP3    H110233   4.013   2.080   1.150 -1.0903  0.6586  0.0623
 3423TIP3    H210234   4.025   2.038   1.295 -0.7948  0.4903 -0.0088
 3424TIP3   OH210235   3.833   2.537   2.223  0.4020 -0.0645  0.0187
 3424TIP3    H110236   3.759   2.478   2.209  0.8252  0.0018 -3.3725
 3424TIP3    H210237   3.800   2.624   2.199  1.4548 -0.0076 -1.3773
 3425TIP3   OH210238   0.500   3.467   5.527 -0.0213 -0.2363  0.4083
 3425TIP3    H110239   0.556   3.440   5.600  0.3079 -3.3255 -0.8492
 3425TIP3    H210240   0.482   3.560   5.544  3.4026  0.2646  2.2164
 3426TIP3   OH210241   3.112   3.443   5.610  0.0654 -0.4953 -0.5486
 3426TIP3    H110242   3.197   3.475   5.642 -1.1431  1.6668  0.7048
 3426TIP3    H210243   3.107   3.353   5.642  0.7523  0.2193  1.7337
 3427TIP3   OH210244   1.316   1.849   0.700  0.4546 -0.2980  0.7323
 3427TIP3    H110245   1.372   1.889   0.766  0.7609  0.7014 -0.1100
 3427TIP3    H210246   1.235   1.900   0.702  0.0844 -0.8812  1.0009
 3428TIP3   OH210247   4.730   1.928   5.495  0.0023  0.2922 -0.1590
 3428TIP3    H110248   4.662   1.899   5.435  0.4216  1.8873 -1.4883
 3428TIP3    H210249   4.784   1.851   5.510 -0.2223 -0.1860 -1.7095
 3429TIP3   OH210250   6.501   0.608   1.731  1.3501  0.1336 -0.0786
 3429TIP3    H110251   6.544   0.651   1.657  0.6033  0.8195 -0.1244
 3429TIP3    H210252   6.471   0.681   1.786  0.3360 -0.3431 -0.0005
 3430TIP3   OH210253   6.815   4.741   3.130 -0.3034  0.5792  0.2222
 3430TIP3    H110254   6.804   4.646   3.133 -1.5131  0.7073  0.3265
 3430TIP3    H210255   6.872   4.760   3.205 -0.8453  0.0232  0.7954
 3431TIP3   OH210256   1.967   0.693   1.031 -0.1307 -0.3682  0.0378
 3431TIP3    H110257   1.980   0.618   0.972  2.6560 -0.2189  0.3589
 3431TIP3    H210258   2.001   0.663   1.115  1.3993  1.3196  0.0838
 3432TIP3   OH210259   5.073   2.805   4.553 -0.3122 -0.3139 -0.1846
 3432TIP3    H110260   5.069   2.891   4.511 -1.0161  0.8287  2.0879
 3432TIP3    H210261   5.109   2.747   4.485  2.0093  2.1166 -1.1965
 3433TIP3   OH210262   3.319   0.412   2.691  0.8645  0.2465  0.2411
 3433TIP3    H110263   3.367   0.491   2.670  3.6108 -0.7224  2.1958
 3433TIP3    H210264   3.295   0.422   2.783 -1.6279  0.0898 -0.3110
 3434TIP3   OH210265   1.591   1.643   0.506  0.1730  0.2341 -0.0903
 3434TIP3    H110266   1.649   1.568   0.515  0.1776  0.3576  0.9992
 3434TIP3    H210267   1.529   1.635   0.578  0.2047  1.2946  0.0736
 3435TIP3   OH210268   6.199   2.863   4.578  0.0371  0.3601 -0.3749
 3435TIP3    H110269   6.188   2.953   4.610 -0.1710 -0.1668  1.1398
 3435TIP3    H210270   6.293   2.852   4.570  0.1983  0.1423  1.3269
 3436TIP3   OH210271   2.742   4.394   2.034 -0.1150 -0.3011 -0.6219
 3436TIP3    H110272   2.793   4.371   2.111  0.0523 -0.1181 -0.6772
 3436TIP3    H210273   2.655   4.358   2.051  0.4737 -2.1461 -1.2827
 3437TIP3   OH210274   6.265   6.734   2.051 -0.7035 -0.0678 -0.2829
 3437TIP3    H110275   6.249   6.677   1.976 -2.5257  0.1884 -0.1361
 3437TIP3    H210276   6.258   6.822   2.016 -0.4535  0.0546 -0.0248
 3438TIP3   OH210277   4.197   5.704   0.471  0.1201  0.0295  0.5570
 3438TIP3    H110278   4.208   5.759   0.548  1.4632  0.3190  0.1769
 3438TIP3    H210279   4.167   5.620   0.505  0.8915  0.0931  1.4267
 3439TIP3   OH210280   2.301   2.355   2.326  0.0067 -0.2221 -0.5531
 3439TIP3    H110281   2.245   2.425   2.292 -0.0018 -0.4134 -0.9381
 3439TIP3    H210282   2.358   2.398   2.389  0.0239  0.1382 -0.8126
 3440TIP3   OH210283   4.429   3.636   5.522 -0.0596 -0.0302 -0.2468
 3440TIP3    H110284   4.496   3.700   5.498  0.0539  0.3647  1.0399
 3440TIP3    H210285   4.477   3.553   5.527 -0.2912 -0.3568 -2.3601
 3441TIP3   OH210286   6.048   2.222   1.418 -0.1705  0.0402 -0.0895
 3441TIP3    H110287   6.120   2.227   1.354  0.0186  1.5653  0.2137
 3441TIP3    H210288   6.071   2.287   1.485 -0.9777 -0.6752  0.9095
 3442TIP3   OH210289   3.743   6.036   1.092 -0.2996  0.1749 -0.3781
 3442TIP3    H110290   3.706   6.121   1.116  0.2452 -0.1074  1.6891
 3442TIP3    H210291   3.679   5.972   1.124 -0.5937 -0.2212 -1.7018
 3443TIP3   OH210292   5.787   0.318   1.904 -0.1777  0.9203 -0.4200
 3443TIP3    H110293   5.831   0.234   1.888  2.2860  1.0263  4.1373
 3443TIP3    H210294   5.810   0.372   1.829  0.6835 -1.5080 -2.0448
 3444TIP3   OH210295   2.021   3.294   1.288 -0.2876  0.1320  0.4388
 3444TIP3    H110296   2.057   3.348   1.358  1.1870  0.5625 -0.5944
 3444TIP3    H210297   1.980   3.356   1.228 -1.1711 -0.1918  0.7016
 3445TIP3   OH210298   3.162   0.962   1.015 -0.0869  0.1353 -0.5316
 3445TIP3    H110299   3.191   1.053   1.024  2.1017 -0.6147  0.6409
 3445TIP3    H210300   3.102   0.949   1.089 -2.4476  1.2504 -2.1042
 3446TIP3   OH210301   7.138   5.556   4.824 -0.4947  0.1622 -0.5323
 3446TIP3    H110302   7.087   5.486   4.866 -0.4110 -0.0664 -0.8088
 3446TIP3    H210303   7.176   5.515   4.747 -0.2625  0.4574 -0.5763
 3447TIP3   OH210304   6.343   6.049   4.583  0.2603 -0.0515  0.1658
 3447TIP3    H110305   6.389   5.997   4.648  1.1397  1.2935  0.6534
 3447TIP3    H210306   6.270   6.089   4.631 -0.1370 -0.4522 -0.0967
 3448TIP3   OH210307   4.203   3.642   3.792 -0.0526  0.1100 -0.5510
 3448TIP3    H110308   4.195   3.702   3.867  0.3101 -1.8220  1.1388
 3448TIP3    H210309   4.184   3.696   3.716  1.3391  2.6466  0.7478
 3449TIP3   OH210310   0.341   1.325   3.480 -0.1343 -0.1253 -0.1364
 3449TIP3    H110311   0.257   1.299   3.519 -0.8526 -0.7671 -2.0100
 3449TIP3    H210312   0.391   1.243   3.475 -0.6910 -0.4015 -1.9839
 3450TIP3   OH210313   6.670   6.071   0.225 -0.9690 -0.1258 -0.0227
 3450TIP3    H110314   6.576   6.060   0.214 -1.1474  1.9815 -1.1724
 3450TIP3    H210315   6.692   6.145   0.169  1.2298  0.0087  0.9137
 3451TIP3   OH210316   5.328   3.896   2.133 -0.0643 -0.6776 -0.1623
 3451TIP3    H110317   5.393   3.934   2.074  0.5643 -0.4155  0.6746
 3451TIP3    H210318   5.275   3.840   2.078 -1.3216  1.7424 -1.5712
 3452TIP3   OH210319   2.081   6.712   2.361 -0.0247  0.2182  0.1453
 3452TIP3    H110320   1.996   6.755   2.351 -1.3854 -2.1296  0.7911
 3452TIP3    H210321   2.065   6.621   2.335  2.7665  0.0638 -1.4673
 3453TIP3   OH210322   3.112   6.315   1.445 -0.2050 -0.0580  0.5394
 3453TIP3    H110323   3.033   6.335   1.394  0.6181 -0.1881 -0.8336
 3453TIP3    H210324   3.081   6.311   1.536 -1.8402 -0.4561  0.0065
 3454TIP3   OH210325   5.858   2.691   5.802  0.1133  0.1359 -0.4121
 3454TIP3    H110326   5.820   2.641   5.874  0.6849 -1.6414 -1.2827
 3454TIP3    H210327   5.933   2.737   5.840  0.9963 -1.5433 -0.0294
 3455TIP3   OH210328   1.335   3.321   3.326  0.4954 -0.2002  0.7097
 3455TIP3    H110329   1.282   3.286   3.397 -0.5616 -0.5273 -0.2141
 3455TIP3    H210330   1.280   3.389   3.285  1.3797  0.5166  0.6660
 3456TIP3   OH210331   2.399   4.894   5.863 -0.1333 -0.5457  0.3498
 3456TIP3    H110332   2.412   4.976   5.911 -0.3272 -0.2166 -0.1477
 3456TIP3    H210333   2.460   4.899   5.790 -0.7767 -0.4309 -0.1942
 3457TIP3   OH210334   3.070   3.626  -0.004  0.1775 -0.3649  0.7442
 3457TIP3    H110335   3.120   3.693  -0.052 -1.0923  0.4436  0.4836
 3457TIP3    H210336   3.063   3.661   0.085 -0.1053 -0.3644  0.7226
 3458TIP3   OH210337   6.146   4.647   4.256 -0.2491 -0.6239 -0.4386
 3458TIP3    H110338   6.182   4.560   4.274 -1.0665 -0.6581  1.2221
 3458TIP3    H210339   6.123   4.682   4.342 -1.8804  0.3802 -1.2251
 3459TIP3   OH210340   2.861   4.454   0.477  0.3876  0.2936 -0.3073
 3459TIP3    H110341   2.859   4.476   0.383  1.9470  0.6319 -0.2948
 3459TIP3    H210342   2.953   4.469   0.502 -0.3565  1.9997  1.6920
 3460TIP3   OH210343   5.026   5.059   0.996  0.0539 -0.3933  0.2459
 3460TIP3    H110344   5.010   5.147   1.029  0.9835 -0.7830  1.8483
 3460TIP3    H210345   5.046   5.072   0.903  1.3468  1.2457  0.6915
 3461TIP3   OH210346   6.179   4.416   3.485 -0.1979  0.0298  0.1967
 3461TIP3    H110347   6.181   4.352   3.557 -0.1629  0.8519  0.9419
 3461TIP3    H210348   6.176   4.501   3.529 -0.4750  0.5374 -0.7827
 3462TIP3   OH210349   2.727   6.559   2.349  0.2749 -0.4570  0.1892
 3462TIP3    H110350   2.755   6.589   2.436 -2.3667  0.5187  0.7875
 3462TIP3    H210351   2.700   6.639   2.303 -0.9740 -1.2281 -0.4851
 3463TIP3   OH210352   2.464   1.759   1.734  0.2901 -0.5706 -0.3960
 3463TIP3    H110353   2.480   1.736   1.642 -0.9936  0.4534 -0.9089
 3463TIP3    H210354   2.372   1.739   1.748  0.4652 -0.6783  0.6679
 3464TIP3   OH210355   5.511   6.249   2.802 -0.7245  0.2862  0.1420
 3464TIP3    H110356   5.451   6.228   2.731  0.2194  1.1859 -0.9755
 3464TIP3    H210357   5.477   6.201   2.878 -0.6822 -2.3102 -1.3605
 3465TIP3   OH210358   4.825   5.465   3.618  0.2639  0.1500  0.2545
 3465TIP3    H110359   4.797   5.395   3.677  0.8223  0.7682  1.2977
 3465TIP3    H210360   4.906   5.498   3.657 -0.2702  1.7376  0.1184
 3466TIP3   OH210361   6.953   4.888   4.634 -0.0030  0.4621 -0.2873
 3466TIP3    H110362   7.041   4.916   4.659  0.1108 -1.5185  1.9083
 3466TIP3    H210363   6.965   4.797   4.606 -1.7719 -1.4642  4.3223
 3467TIP3   OH210364   1.081   1.014   1.858  0.4363  0.3952  0.2259
 3467TIP3    H110365   1.154   1.014   1.797 -0.2665 -0.0422 -0.6451
 3467TIP3    H210366   1.078   1.104   1.893  1.0176  0.5681 -0.1582
 3468TIP3   OH210367   3.168   4.504   2.971 -0.4018 -0.1510 -0.5846
 3468TIP3    H110368   3.218   4.477   2.895  1.0693  0.7490  0.0259
 3468TIP3    H210369   3.230   4.553   3.025 -1.5091 -0.3972  0.9933
 3469TIP3   OH210370   5.710   4.509   5.018  0.2929  0.0358 -0.0241
 3469TIP3    H110371   5.749   4.498   5.105 -0.7654 -0.1472  0.4335
 3469TIP3    H210372   5.778   4.479   4.957  0.2226 -1.9698  0.8391
 3470TIP3   OH210373   3.813   4.025   2.044 -0.0131  0.2141  0.2147
 3470TIP3    H110374   3.778   3.980   1.967 -3.1213 -1.5854  2.4417
 3470TIP3    H210375   3.870   3.962   2.085 -0.2704  0.2496  0.6305
 3471TIP3   OH210376   4.797   3.315   1.708 -0.3708 -0.7532  0.7626
 3471TIP3    H110377   4.863   3.381   1.691 -0.8811 -0.1976  0.9266
 3471TIP3    H210378   4.741   3.354   1.775 -1.0328 -1.1060  0.4182
 3472TIP3   OH210379   1.135   1.738   5.670 -0.2593  0.2524 -0.7040
 3472TIP3    H110380   1.059   1.792   5.688 -0.2078  1.0771 -2.6517
 3472TIP3    H210381   1.203   1.800   5.645  0.9020 -0.5155  0.4566
 3473TIP3   OH210382   4.020   5.176   0.717 -0.3012  0.7340  0.0971
 3473TIP3    H110383   4.026   5.204   0.808 -1.5134  1.6869 -0.0982
 3473TIP3    H210384   4.096   5.118   0.705 -0.8897 -0.5701  2.0954
 3474TIP3   OH210385   3.954   4.346   3.245  0.4502  0.6669  0.4211
 3474TIP3    H110386   3.935   4.425   3.195  2.7802 -0.3363 -2.3160
 3474TIP3    H210387   3.880   4.288   3.227 -1.1753  1.9901  2.2854
 3475TIP3   OH210388   6.914   4.498   2.644  0.1706  0.0820  0.0417
 3475TIP3    H110389   6.913   4.487   2.549  0.6164  2.4702 -0.3079
 3475TIP3    H210390   6.995   4.545   2.662 -0.3414  0.4651  1.5016
 3476TIP3   OH210391   0.028   4.217   0.522 -0.5476 -0.5672 -0.4642
 3476TIP3    H110392   0.095   4.271   0.479  1.0803 -0.7129  1.7241
 3476TIP3    H210393  -0.050   4.229   0.468  0.1847  2.6389 -1.0332
 3477TIP3   OH210394   6.607   3.750   0.265 -0.1474 -0.3035 -0.2234
 3477TIP3    H110395   6.602   3.721   0.174 -0.2100  0.2410 -0.3977
 3477TIP3    H210396   6.681   3.810   0.266 -0.1336 -0.3257  0.0943
 3478TIP3   OH210397   2.208   6.068   2.813 -0.3121 -0.5011  0.1405
 3478TIP3    H110398   2.123   6.031   2.791 -0.8074  0.2951  0.6794
 3478TIP3    H210399   2.205   6.083   2.907  0.0910  0.3660  0.0238
 3479TIP3   OH210400   2.165   1.211   0.495 -0.0301  0.0536  0.1461
 3479TIP3    H110401   2.072   1.224   0.514 -0.0236  2.1790 -0.9286
 3479TIP3    H210402   2.168   1.132   0.440 -0.9758 -0.9909  1.5406
 3480TIP3   OH210403   6.895   1.654   1.399  0.6212  0.3481  0.0335
 3480TIP3    H110404   6.953   1.578   1.395  0.8125  0.5209 -0.5647
 3480TIP3    H210405   6.835   1.635   1.471 -0.4619 -1.1724 -1.2332
 3481TIP3   OH210406   5.253   4.015   1.006 -0.1716  0.9211 -0.2366
 3481TIP3    H110407   5.315   4.086   0.991 -0.5018  1.0739 -0.8880
 3481TIP3    H210408   5.167   4.057   1.006 -0.3068  0.6558  0.2905
 3482TIP3   OH210409   2.146   2.588   5.031  0.0417  0.3027  0.1411
 3482TIP3    H110410   2.124   2.659   4.969  0.0585  0.0481 -0.1595
 3482TIP3    H210411   2.160   2.633   5.114  1.9407  0.8981 -0.4411
 3483TIP3   OH210412   4.020   4.396   0.232 -0.3500 -0.1785  0.2813
 3483TIP3    H110413   3.996   4.345   0.155  0.0799  0.1235 -0.0611
 3483TIP3    H210414   3.990   4.344   0.306 -0.4924 -0.6175 -0.0809
 3484TIP3   OH210415   3.064   0.025   0.285  0.1623 -0.4464  0.1950
 3484TIP3    H110416   3.100   0.039   0.197  2.2413  1.1370  1.2018
 3484TIP3    H210417   3.017   0.106   0.305 -1.8968 -1.5065 -0.0916
 3485TIP3   OH210418   6.301   1.818   1.181  0.4708  0.2258 -0.2753
 3485TIP3    H110419   6.342   1.753   1.237 -0.1998 -1.2836 -1.4421
 3485TIP3    H210420   6.234   1.858   1.236  1.3191  0.4001  0.6570
 3486TIP3   OH210421   4.245   3.761   0.397  0.4683 -0.1404  0.0793
 3486TIP3    H110422   4.224   3.668   0.406  1.0693 -0.2599  0.2752
 3486TIP3    H210423   4.191   3.791   0.324  1.0470 -0.8879 -0.6617
 3487TIP3   OH210424   0.936   4.662   4.960 -0.6191  0.4124 -0.6639
 3487TIP3    H110425   0.969   4.622   4.879  3.3131 -1.5190  1.5672
 3487TIP3    H210426   0.940   4.756   4.943  1.9064  0.1397 -2.2554
 3488TIP3   OH210427   4.182   3.052   1.713  0.2080 -0.1182  0.1041
 3488TIP3    H110428   4.141   3.116   1.771  0.4642 -0.2163  0.3969
 3488TIP3    H210429   4.123   3.046   1.638  0.2785  0.6013 -0.0176
 3489TIP3   OH210430   6.568   6.435   5.571  0.1920  0.4913 -0.2684
 3489TIP3    H110431   6.567   6.473   5.483 -2.0641  0.8419 -0.1513
 3489TIP3    H210432   6.497   6.371   5.570 -0.0056  0.6616  1.3513
 3490TIP3   OH210433   0.092   5.971   4.076  0.2993  0.1479 -0.2723
 3490TIP3    H110434   0.058   5.962   4.165  1.2420 -0.1912  0.0659
 3490TIP3    H210435   0.048   5.903   4.026  0.5990 -0.4003  0.2020
 3491TIP3   OH210436   6.395   1.839   4.304  0.3731  0.1976 -0.5234
 3491TIP3    H110437   6.490   1.849   4.310  0.8085 -0.6583 -3.9892
 3491TIP3    H210438   6.382   1.747   4.279 -1.3734  0.3126 -0.1552
 3492TIP3   OH210439   5.316   3.974   0.495 -0.0363 -0.3195 -0.2378
 3492TIP3    H110440   5.383   4.016   0.549  0.3276  0.1813 -1.0766
 3492TIP3    H210441   5.346   3.883   0.487  0.3200 -0.1996 -0.2667
 3493TIP3   OH210442   3.684   0.221   0.750  0.1122 -0.4944 -0.6792
 3493TIP3    H110443   3.675   0.165   0.672 -0.0188 -0.4925 -0.6663
 3493TIP3    H210444   3.748   0.287   0.725 -0.2943 -0.2022 -0.9538
 3494TIP3   OH210445   5.658   2.140   5.174  0.8970  0.3382  0.0700
 3494TIP3    H110446   5.587   2.204   5.173  0.2562 -0.3549 -0.2077
 3494TIP3    H210447   5.733   2.187   5.209  1.2466  2.0468 -2.6640
 3495TIP3   OH210448   1.167   2.767   3.668  0.1225  0.3481  0.6007
 3495TIP3    H110449   1.091   2.806   3.711 -1.5906 -0.1988 -1.7052
 3495TIP3    H210450   1.174   2.815   3.585  3.3808  1.4929  1.4194
 3496TIP3   OH210451   6.260   1.104   4.307 -0.5142  0.0581  0.5323
 3496TIP3    H110452   6.165   1.110   4.298 -0.3641  1.7452 -0.4637
 3496TIP3    H210453   6.294   1.160   4.237  1.2684 -1.9285 -0.3037
 3497TIP3   OH210454   5.857   2.300   4.254  0.5677 -0.1225 -0.5933
 3497TIP3    H110455   5.814   2.363   4.196  0.4329  1.1767  0.8377
 3497TIP3    H210456   5.943   2.337   4.270  0.5414 -0.3754  0.1564
 3498TIP3   OH210457   2.390   0.080   4.856 -0.0142 -0.6362 -0.4637
 3498TIP3    H110458   2.311   0.104   4.904  1.1471  1.5166  0.5082
 3498TIP3    H210459   2.455   0.062   4.923  1.1677  0.7325 -1.1908
 3499TIP3   OH210460   4.853   2.238   2.217 -0.0228  0.1213  0.3548
 3499TIP3    H110461   4.832   2.314   2.163 -0.4389  0.0202  0.3708
 3499TIP3    H210462   4.784   2.237   2.284 -0.4909 -0.7346 -0.1230
 3500TIP3   OH210463   3.064   1.967   4.342  0.1682 -0.1637 -0.1649
 3500TIP3    H110464   2.973   1.996   4.354 -0.2087  0.2093 -3.0911
 3500TIP3    H210465   3.112   2.046   4.319  0.7135 -0.7247 -1.0141
 3501TIP3   OH210466   2.413   6.711   5.548 -0.0491  0.0515 -0.7045
 3501TIP3    H110467   2.400   6.738   5.639  0.2176 -2.2990  0.1039
 3501TIP3    H210468   2.343   6.648   5.533  0.9893 -0.9376 -1.5153
 3502TIP3   OH210469   0.484   0.348   4.784 -0.1938 -0.1279  0.0298
 3502TIP3    H110470   0.509   0.341   4.876  1.7661  1.2422 -0.3212
 3502TIP3    H210471   0.416   0.416   4.783 -1.6531 -1.5235  0.6390
 3503TIP3   OH210472   1.843   5.952   4.709 -0.2849 -0.0788 -0.2929
 3503TIP3    H110473   1.898   5.880   4.680 -0.4579 -0.2344 -0.2384
 3503TIP3    H210474   1.878   5.975   4.796 -1.8454 -1.8396  0.8825
 3504TIP3   OH210475   3.539   5.912   2.190  0.2289 -0.0016  0.0867
 3504TIP3    H110476   3.512   5.923   2.099 -0.6987  1.7773  0.5254
 3504TIP3    H210477   3.634   5.917   2.187  0.1730  2.7527 -0.5730
 3505TIP3   OH210478   2.932   5.192   2.519 -0.5985 -0.5310 -0.1431
 3505TIP3    H110479   2.994   5.265   2.521  0.7410 -1.5805 -1.1445
 3505TIP3    H210480   2.865   5.220   2.457 -0.2787  0.0136 -0.2505
 3506TIP3   OH210481   2.307   3.698   4.454  0.4760  0.1286 -0.7939
 3506TIP3    H110482   2.309   3.793   4.441  1.9444  0.2215 -0.1300
 3506TIP3    H210483   2.344   3.685   4.541  0.2629 -1.0568 -0.8611
 3507TIP3   OH210484   0.630   5.410   4.171 -0.3442  0.6622 -0.2907
 3507TIP3    H110485   0.603   5.460   4.094  1.1329 -0.7804 -1.8206
 3507TIP3    H210486   0.699   5.463   4.211 -1.8278  1.9247  0.7320
 3508TIP3   OH210487   2.992   0.044   3.056 -0.4500 -0.5771 -0.0117
 3508TIP3    H110488   3.057   0.081   2.996 -0.5878 -1.2672 -0.6005
 3508TIP3    H210489   3.007  -0.051   3.052 -1.4662 -0.7484 -0.1392
 3509TIP3   OH210490   2.760   5.861   5.832 -0.2676  0.2337  0.3797
 3509TIP3    H110491   2.831   5.827   5.778  0.9904  0.8928  1.5456
 3509TIP3    H210492   2.714   5.924   5.776 -0.3685 -0.6976 -0.6054
 3510TIP3   OH210493   2.204   6.207   4.691 -0.4054  0.2486  0.2513
 3510TIP3    H110494   2.221   6.216   4.597 -1.0947 -0.6638  0.0206
 3510TIP3    H210495   2.272   6.148   4.723  0.8090  1.7931  0.6782
 3511TIP3   OH210496   6.827   4.142   2.932  0.3731 -0.2523 -0.0572
 3511TIP3    H110497   6.846   4.108   2.844 -0.9023 -2.2002  0.3483
 3511TIP3    H210498   6.732   4.151   2.934  0.2661 -1.3652  1.4806
 3512TIP3   OH210499   6.571   6.511   4.306  0.3355  0.2180 -0.4144
 3512TIP3    H110500   6.501   6.554   4.256  0.2174  0.4131 -0.0849
 3512TIP3    H210501   6.544   6.419   4.311  0.2598  0.2326 -0.5557
 3513TIP3   OH210502   4.142   1.217   0.550 -0.5523 -0.1560 -0.0482
 3513TIP3    H110503   4.143   1.180   0.639  0.0241  0.0160  0.0175
 3513TIP3    H210504   4.170   1.307   0.561 -0.1616 -0.2253 -0.4447
 3514TIP3   OH210505   2.438   4.010   5.228 -0.0215  0.0707 -0.4252
 3514TIP3    H110506   2.413   4.044   5.314  0.5038 -2.9520  1.0740
 3514TIP3    H210507   2.528   4.039   5.215  0.2755 -0.3464  0.6049
 3515TIP3   OH210508   1.542   1.326   4.447 -0.1382  0.2265 -0.2071
 3515TIP3    H110509   1.547   1.409   4.495 -2.6134  0.3212  0.0177
 3515TIP3    H210510   1.545   1.259   4.514  0.0985  0.2035 -0.2405
 3516TIP3   OH210511   2.216   6.507   5.220 -0.5145 -0.2493 -0.1812
 3516TIP3    H110512   2.263   6.586   5.192  0.7428 -0.7267  0.5055
 3516TIP3    H210513   2.162   6.484   5.145 -0.5521  1.0020 -0.5636
 3517TIP3   OH210514   6.389   2.192   1.606 -0.0612 -0.0080  0.2842
 3517TIP3    H110515   6.330   2.117   1.602 -0.8171  0.6207 -0.7141
 3517TIP3    H210516   6.475   2.154   1.622 -0.8849 -0.8574  3.3265
 3518TIP3   OH210517   1.460   0.253   0.395  0.5911  0.1801  0.2748
 3518TIP3    H110518   1.393   0.315   0.425 -0.1794  0.5781 -2.0505
 3518TIP3    H210519   1.411   0.176   0.368  1.0950  0.2465 -0.8979
 3519TIP3   OH210520   0.158   4.268   3.036 -0.1088  0.0003 -0.1385
 3519TIP3    H110521   0.246   4.232   3.036 -0.1087 -0.0680 -1.7845
 3519TIP3    H210522   0.103   4.198   3.000 -0.7062  0.3346  0.1060
 3520TIP3   OH210523   6.360   1.603   0.322  0.5836 -0.5799  0.2203
 3520TIP3    H110524   6.304   1.658   0.267  0.7467 -0.8760 -0.2426
 3520TIP3    H210525   6.430   1.574   0.264  1.0453 -0.4724  0.7204
 3521TIP3   OH210526   7.113   4.576   4.272 -0.6459  0.7262 -0.1073
 3521TIP3    H110527   7.135   4.499   4.220  1.2850  0.5186  0.9650
 3521TIP3    H210528   7.156   4.649   4.226 -0.8880  0.8932 -0.0727
 3522TIP3   OH210529   1.244   3.080   5.312 -0.3602 -0.1105  0.6614
 3522TIP3    H110530   1.256   2.991   5.279 -0.3691  0.1945 -0.2075
 3522TIP3    H210531   1.310   3.132   5.266  1.5016 -0.0992  3.1487
 3523TIP3   OH210532   6.497   3.920   0.711 -0.1610 -0.0701 -0.5320
 3523TIP3    H110533   6.578   3.890   0.669  1.1275 -0.7286  2.2022
 3523TIP3    H210534   6.498   4.015   0.701  0.5763 -0.1327 -1.1386
 3524TIP3   OH210535   3.567   3.816   2.590 -0.1689 -0.0705  0.8029
 3524TIP3    H110536   3.636   3.882   2.591 -0.6355  0.4199  1.3545
 3524TIP3    H210537   3.564   3.782   2.679 -0.9439  0.2461  0.9095
 3525TIP3   OH210538   4.187   2.963   5.296 -0.2100 -0.2118 -0.3266
 3525TIP3    H110539   4.128   2.993   5.227 -0.1938 -0.7039 -0.5578
 3525TIP3    H210540   4.265   3.018   5.288 -1.5119  2.1385  1.4932
 3526TIP3   OH210541   7.118   6.305   5.374  0.5306 -0.3397  0.0137
 3526TIP3    H110542   7.054   6.234   5.368  0.4813 -0.2141 -0.9748
 3526TIP3    H210543   7.095   6.350   5.456 -0.2174 -0.7007  0.0113
 3527TIP3   OH210544   3.197   3.748   2.708 -0.3506  0.0260 -0.1157
 3527TIP3    H110545   3.203   3.839   2.680 -1.3003  0.4950  1.1285
 3527TIP3    H210546   3.257   3.701   2.650  1.8837  1.7699  0.6707
 3528TIP3   OH210547   1.457   6.517   5.690 -0.0807 -0.0052  0.6425
 3528TIP3    H110548   1.551   6.534   5.681 -0.2554 -0.1816 -2.8587
 3528TIP3    H210549   1.451   6.452   5.760  2.4825 -0.4214  0.5616
 3529TIP3   OH210550   5.053   1.676   1.963  0.3571  0.0657  0.1245
 3529TIP3    H110551   5.134   1.662   1.914  0.4700 -0.6813  0.5161
 3529TIP3    H210552   5.066   1.631   2.046 -0.6341 -0.4675  0.0084
 3530TIP3   OH210553   5.802   3.542   1.053  0.1739 -0.0010  0.3508
 3530TIP3    H110554   5.729   3.483   1.072  0.5503 -0.4833  0.3159
 3530TIP3    H210555   5.812   3.538   0.958 -0.9111  1.4609  0.1489
 3531TIP3   OH210556   0.960   6.616   4.475  0.5012  0.4940 -0.3393
 3531TIP3    H110557   1.013   6.583   4.548 -1.2004  1.0061  1.1996
 3531TIP3    H210558   1.013   6.687   4.439  1.5854 -0.0659  0.0831
 3532TIP3   OH210559   6.955   5.989   3.383 -0.0466 -0.4350 -0.4492
 3532TIP3    H110560   6.945   6.011   3.290  1.3596 -1.9832 -1.0183
 3532TIP3    H210561   7.009   5.910   3.384  1.7673  0.6863  1.7421
 3533TIP3   OH210562   6.674   6.288   1.227  0.0252  0.6184  0.2865
 3533TIP3    H110563   6.758   6.300   1.181 -0.7131 -1.5455 -1.8469
 3533TIP3    H210564   6.648   6.376   1.254  2.6034  1.4323  0.3691
 3534TIP3   OH210565   0.852   4.613   2.218 -0.0939  0.9466 -0.1821
 3534TIP3    H110566   0.889   4.686   2.169 -1.0381  2.2720  0.9921
 3534TIP3    H210567   0.764   4.643   2.242 -0.5462 -0.6297  0.2223
 3535TIP3   OH210568   4.250   2.192   2.665  0.6584 -0.2263 -0.1553
 3535TIP3    H110569   4.345   2.179   2.657  0.7042 -0.7830  1.0989
 3535TIP3    H210570   4.219   2.193   2.574  1.8372 -0.2044 -0.5827
 3536TIP3   OH210571   2.584   4.906   2.349 -0.3339 -0.0931  0.1169
 3536TIP3    H110572   2.497   4.928   2.381 -0.3537 -0.6664  0.4716
 3536TIP3    H210573   2.569   4.836   2.284 -0.2776  0.9041 -1.0022
 3537TIP3   OH210574   2.202   0.290   0.994  0.1221 -0.1408  0.5346
 3537TIP3    H110575   2.238   0.211   0.954 -0.8935 -0.3196 -0.0715
 3537TIP3    H210576   2.177   0.262   1.082  1.6023  0.0392  1.0397
 3538TIP3   OH210577   1.251   5.228   0.348  1.3795 -0.4526  0.1559
 3538TIP3    H110578   1.294   5.153   0.307 -2.2766 -0.9868 -3.3021
 3538TIP3    H210579   1.309   5.302   0.330  2.5277 -1.6350 -1.2268
 3539TIP3   OH210580   4.697   6.431   1.282 -0.3218 -0.5982  0.6688
 3539TIP3    H110581   4.622   6.440   1.223  0.4379  0.8174 -0.1216
 3539TIP3    H210582   4.769   6.403   1.226  0.2692  0.1945  1.0180
 3540TIP3   OH210583   3.604   5.122   1.610  0.0502  0.0976 -0.1754
 3540TIP3    H110584   3.570   5.033   1.599  0.3626 -0.3142  1.8268
 3540TIP3    H210585   3.589   5.164   1.525 -1.7800 -1.2828 -0.5915
 3541TIP3   OH210586   4.938   6.108   0.991  0.0641  0.2380 -0.0409
 3541TIP3    H110587   4.902   6.195   1.008  1.1033  0.7812 -0.5406
 3541TIP3    H210588   5.025   6.110   1.031  0.0737 -0.5997  0.0016
 3542TIP3   OH210589   2.138   1.187   2.504 -0.6370  0.2354  0.2822
 3542TIP3    H110590   2.227   1.154   2.501 -1.2324 -1.4285 -0.6595
 3542TIP3    H210591   2.145   1.274   2.542  1.3558  0.0764  0.3472
 3543TIP3   OH210592   0.697   1.780   4.592  0.2149 -0.3401  0.0680
 3543TIP3    H110593   0.776   1.726   4.593  0.6557  0.2477 -1.0539
 3543TIP3    H210594   0.685   1.807   4.683  2.3485  1.0165  0.0002
 3544TIP3   OH210595   4.950   2.899   4.287 -0.1499  0.3327 -0.0418
 3544TIP3    H110596   4.878   2.881   4.226 -0.1700  2.2717 -0.6427
 3544TIP3    H210597   5.006   2.821   4.281 -0.8535 -0.1032 -1.5225
 3545TIP3   OH210598   5.852   3.130   1.202  0.2430 -0.0830  0.0605
 3545TIP3    H110599   5.767   3.089   1.192  0.7548 -1.0162 -0.6682
 3545TIP3    H210600   5.903   3.097   1.128  0.8380  1.4899 -0.2685
 3546TIP3   OH210601   0.652   1.293   0.935  0.3411 -0.1024 -0.0865
 3546TIP3    H110602   0.669   1.387   0.929 -0.2481 -0.0034 -0.1956
 3546TIP3    H210603   0.731   1.258   0.976  0.3695  0.5037  0.4021
 3547TIP3   OH210604   3.331   1.593   2.142 -0.2865 -0.4080 -0.1300
 3547TIP3    H110605   3.298   1.586   2.232  3.3534 -1.3582  1.3358
 3547TIP3    H210606   3.352   1.503   2.117  0.5879  0.0555 -1.1550
 3548TIP3   OH210607   6.359   0.887   5.067  0.2936  0.0624 -0.0153
 3548TIP3    H110608   6.342   0.937   4.987 -0.7365 -1.6644 -0.9318
 3548TIP3    H210609   6.426   0.824   5.042  2.5642  1.7140  1.4799
 3549TIP3   OH210610   3.112   3.267   5.864  0.4483  0.2364  0.2243
 3549TIP3    H110611   3.092   3.360   5.868 -0.9375  0.0130 -0.6723
 3549TIP3    H210612   3.034   3.224   5.901  0.4755 -0.6006 -0.6426
 3550TIP3   OH210613   5.537   3.483   2.572 -0.4220  0.1344  0.4420
 3550TIP3    H110614   5.559   3.567   2.532 -0.8426 -0.5924 -1.4814
 3550TIP3    H210615   5.477   3.442   2.509 -0.1546 -1.6454  1.2723
 3551TIP3   OH210616   3.155   6.606   0.481 -0.8025 -0.1740 -0.2084
 3551TIP3    H110617   3.201   6.524   0.460  0.3284  0.6280 -1.0417
 3551TIP3    H210618   3.153   6.654   0.397 -1.0282  0.8380  0.3583
 3552TIP3   OH210619   2.091   3.527   0.579  0.0915 -0.7081 -0.1848
 3552TIP3    H110620   2.134   3.442   0.569  0.8073 -0.1237 -2.7111
 3552TIP3    H210621   2.147   3.574   0.641  2.0010 -0.7155 -1.7996
 3553TIP3   OH210622   7.022   0.914   5.379  0.0747  0.8226  0.0088
 3553TIP3    H110623   6.952   0.854   5.356  0.1095  0.0984  1.6766
 3553TIP3    H210624   7.037   0.965   5.300 -0.9236 -0.4010 -1.0026
 3554TIP3   OH210625   0.172   1.810   5.105 -0.2023  0.3587  0.2025
 3554TIP3    H110626   0.224   1.760   5.168  0.4058  1.5886  0.7114
 3554TIP3    H210627   0.085   1.815   5.144 -0.1607  0.0390  0.3378
 3555TIP3   OH210628   0.868   4.978   2.574  0.5508  0.1836  0.1481
 3555TIP3    H110629   0.912   4.929   2.505  0.9220  0.1239  0.4223
 3555TIP3    H210630   0.781   4.995   2.540  0.1970 -1.2372  0.3017
 3556TIP3   OH210631   7.098   3.291   3.655 -0.7042 -0.2045  0.2341
 3556TIP3    H110632   7.166   3.223   3.654  1.2157  1.5960 -0.9009
 3556TIP3    H210633   7.038   3.267   3.585 -1.1596 -1.7140  1.1096
 3557TIP3   OH210634   1.322   0.097   4.399  0.2558 -0.3119  0.3142
 3557TIP3    H110635   1.243   0.106   4.453  0.3015 -1.0885  0.5188
 3557TIP3    H210636   1.330   0.003   4.384 -1.0096 -0.0419 -2.9050
 3558TIP3   OH210637   2.646   6.071   0.584  0.0182 -0.1945  0.8325
 3558TIP3    H110638   2.692   6.154   0.600 -0.6921  0.3313  0.2336
 3558TIP3    H210639   2.693   6.007   0.637  0.9476  0.4762  0.8437
 3559TIP3   OH210640   0.632   4.793   0.904 -0.1533  0.3196  0.2229
 3559TIP3    H110641   0.632   4.839   0.988 -0.4231 -1.0096  0.9764
 3559TIP3    H210642   0.543   4.804   0.871  0.4019  2.3363 -0.7830
 3560TIP3   OH210643   3.789   1.860   5.752  0.3326  0.2391  0.2784
 3560TIP3    H110644   3.787   1.853   5.848 -0.3236  1.0629  0.3362
 3560TIP3    H210645   3.821   1.948   5.735 -0.5040  0.4610 -0.2304
 3561TIP3   OH210646   4.121   3.769   4.022 -0.4062 -0.2906 -0.0531
 3561TIP3    H110647   4.035   3.806   4.006  0.9634  1.7715 -3.9625
 3561TIP3    H210648   4.161   3.827   4.087 -1.2947 -0.2449  0.4744
 3562TIP3   OH210649   6.424   6.634   1.129 -0.3658  0.2959 -0.1615
 3562TIP3    H110650   6.433   6.637   1.033 -1.0141 -1.7668 -0.3182
 3562TIP3    H210651   6.514   6.626   1.160 -0.2635 -1.0860 -0.7332
 3563TIP3   OH210652   5.302   5.261   4.738  0.1249 -0.1996  0.2869
 3563TIP3    H110653   5.265   5.173   4.732 -1.4982  0.1784  2.9349
 3563TIP3    H210654   5.396   5.248   4.726 -0.3611 -1.6759 -3.1981
 3564TIP3   OH210655   2.671   5.030   4.752  0.2208 -0.2784  0.1260
 3564TIP3    H110656   2.689   4.937   4.757  0.9854 -0.0995  1.0662
 3564TIP3    H210657   2.668   5.059   4.844  1.0505  0.8035 -0.1581
 3565TIP3   OH210658   1.261   6.793   2.984  0.2835 -0.1429 -0.3070
 3565TIP3    H110659   1.299   6.750   2.907  0.9207 -0.3080  0.0896
 3565TIP3    H210660   1.241   6.722   3.045  0.8179  0.0661  0.1238
 3566TIP3   OH210661   6.773   2.447   0.381  0.0208 -0.0654 -0.3738
 3566TIP3    H110662   6.865   2.435   0.359  0.4781  1.8629  0.2705
 3566TIP3    H210663   6.749   2.368   0.429  1.5445 -0.2727  0.0890
 3567TIP3   OH210664   5.000   4.705   5.804 -0.0112  0.3488 -0.6372
 3567TIP3    H110665   4.917   4.737   5.767 -0.7799 -1.0615 -0.2249
 3567TIP3    H210666   5.036   4.648   5.736 -1.3284 -2.0886  0.5545
 3568TIP3   OH210667   4.808   4.741   2.973 -0.0061 -0.5791  0.4252
 3568TIP3    H110668   4.820   4.835   2.985 -0.9884 -0.2589 -0.8180
 3568TIP3    H210669   4.724   4.722   3.014 -1.1884 -0.3235 -1.7047
 3569TIP3   OH210670   0.646   0.117   0.908  0.0633 -0.0114  0.1099
 3569TIP3    H110671   0.568   0.086   0.861  1.3691  0.2114 -2.3518
 3569TIP3    H210672   0.719   0.070   0.867  1.4270  1.2370  1.0131
 3570TIP3   OH210673   5.100   5.263   5.271  0.2959 -0.1952 -0.2076
 3570TIP3    H110674   5.112   5.236   5.180  0.9280 -0.1723 -0.1343
 3570TIP3    H210675   5.152   5.201   5.322  1.0514  0.6087  0.0257
 3571TIP3   OH210676   1.751   1.384   3.270  0.0229  0.3324  0.4198
 3571TIP3    H110677   1.721   1.448   3.335 -1.1083 -0.5227  0.7651
 3571TIP3    H210678   1.833   1.350   3.306 -0.5126 -0.0242  1.3366
 3572TIP3   OH210679   2.530   1.257   1.673 -0.1569 -0.2700  0.0550
 3572TIP3    H110680   2.516   1.179   1.726 -0.0408 -1.9419 -2.2348
 3572TIP3    H210681   2.617   1.289   1.700  1.3343 -2.9314 -1.2104
 3573TIP3   OH210682   0.986   5.471   0.280  0.0530 -0.3441  0.5568
 3573TIP3    H110683   0.963   5.389   0.324  0.4963  0.7169  2.9554
 3573TIP3    H210684   1.058   5.447   0.221 -0.9935 -1.9647 -0.1260
 3574TIP3   OH210685   5.204   4.950   3.507  0.0823  0.0091 -0.9470
 3574TIP3    H110686   5.180   4.914   3.421  1.1542 -1.1146 -0.8112
 3574TIP3    H210687   5.231   4.874   3.558  0.3548  0.7773  0.0862
 3575TIP3   OH210688   2.883   3.105   1.279 -0.0467 -0.1865 -0.1395
 3575TIP3    H110689   2.979   3.111   1.281 -0.0498 -0.3038  0.4124
 3575TIP3    H210690   2.860   3.137   1.191  0.4171  0.9536  0.1297
 3576TIP3   OH210691   0.045   0.942   0.896  0.2786  0.1596  0.1924
 3576TIP3    H110692   0.051   1.021   0.841  1.0133 -0.4248 -0.5774
 3576TIP3    H210693  -0.029   0.894   0.860  0.2605  0.1662  0.2213
 3577TIP3   OH210694   2.512   5.685   5.209 -0.2648 -0.2277  0.2569
 3577TIP3    H110695   2.585   5.624   5.200 -0.2159 -0.1867  0.3691
 3577TIP3    H210696   2.510   5.707   5.302 -1.8534 -2.0189  0.7211
 3578TIP3   OH210697   1.183   3.182   0.756 -0.1166  0.0138  0.3116
 3578TIP3    H110698   1.176   3.250   0.824  0.8088  0.4045  0.0338
 3578TIP3    H210699   1.127   3.111   0.787  0.0482  0.3153  1.3422
 3579TIP3   OH210700   0.391   4.144   4.412 -0.4606  0.0536 -0.2234
 3579TIP3    H110701   0.346   4.062   4.394  2.0322 -1.0537 -2.0315
 3579TIP3    H210702   0.354   4.206   4.349  0.5427 -0.8757 -1.7899
 3580TIP3   OH210703   6.020   5.798   4.174  0.9112 -0.4184 -0.0382
 3580TIP3    H110704   6.008   5.891   4.196 -2.5025 -1.1231  1.7585
 3580TIP3    H210705   6.025   5.798   4.078  2.4773  1.6965 -0.0260
 3581TIP3   OH210706   3.140   6.598   0.927  0.1652 -0.4535  0.4631
 3581TIP3    H110707   3.173   6.647   0.852  2.5906 -1.9349  0.4392
 3581TIP3    H210708   3.174   6.644   1.004  0.6047 -0.8618  0.5166
 3582TIP3   OH210709   2.454   5.412   2.022 -0.1292 -0.4766 -0.5918
 3582TIP3    H110710   2.515   5.358   1.971 -0.4876 -1.3936 -0.0779
 3582TIP3    H210711   2.416   5.351   2.085 -1.8730 -0.0152 -1.1627
 3583TIP3   OH210712   0.306   4.115   2.772  0.3229 -0.0319  0.0233
 3583TIP3    H110713   0.247   4.088   2.702  0.2548 -0.2028  0.1452
 3583TIP3    H210714   0.394   4.101   2.737  0.3035 -1.6312  0.5349
 3584TIP3   OH210715   4.806   1.393   3.838 -0.1324 -0.0559 -0.4074
 3584TIP3    H110716   4.722   1.439   3.840 -0.5934 -0.7773 -1.8117
 3584TIP3    H210717   4.861   1.439   3.902 -1.3993  0.8049  0.0817
 3585TIP3   OH210718  -0.016   3.821   2.151 -0.2910 -0.3079  0.7850
 3585TIP3    H110719  -0.027   3.885   2.221 -0.1661  0.9582 -0.3136
 3585TIP3    H210720   0.048   3.861   2.092  0.5298 -1.8838  0.5402
 3586TIP3   OH210721   1.705   1.063   1.652  0.1289  0.5136  0.0204
 3586TIP3    H110722   1.784   1.009   1.640 -0.6852 -0.7000 -0.0781
 3586TIP3    H210723   1.720   1.139   1.596  1.5525  0.6789  0.5803
 3587TIP3   OH210724   3.476   6.329   3.197 -0.2496  0.3179  0.4332
 3587TIP3    H110725   3.495   6.422   3.208  0.3193  0.5051 -1.7219
 3587TIP3    H210726   3.392   6.327   3.152 -0.2408 -0.2005  0.4388
 3588TIP3   OH210727   1.089   3.189   3.126  0.2190  0.1602  0.0468
 3588TIP3    H110728   1.053   3.257   3.069  2.3282  1.1187 -0.2642
 3588TIP3    H210729   1.141   3.134   3.067  1.0363  0.1406  0.7671
 3589TIP3   OH210730   3.963   3.629   1.322 -0.5934  0.0550  0.0877
 3589TIP3    H110731   4.033   3.645   1.386 -1.3997 -0.6850  1.1751
 3589TIP3    H210732   3.922   3.715   1.311  0.8874  0.6700 -1.1088
 3590TIP3   OH210733   2.540   4.085   1.855  0.2090  0.3944  0.0554
 3590TIP3    H110734   2.491   4.166   1.861  0.7497  0.7246  0.1085
 3590TIP3    H210735   2.627   4.111   1.824 -0.0850 -0.3473 -1.4655
 3591TIP3   OH210736   0.253   6.345   5.468  0.5172  0.1943 -0.2733
 3591TIP3    H110737   0.279   6.325   5.558  0.2053  0.5961 -0.0906
 3591TIP3    H210738   0.159   6.326   5.465  0.5041  0.2825 -0.4859
 3592TIP3   OH210739   4.778   1.534   5.824 -0.4154  0.0725  0.4119
 3592TIP3    H110740   4.730   1.451   5.820 -0.9415  0.3429  0.9793
 3592TIP3    H210741   4.814   1.536   5.913 -0.4378  0.4720  0.4127
 3593TIP3   OH210742   1.314   2.856   0.764 -0.2365  0.2480  0.5994
 3593TIP3    H110743   1.348   2.891   0.681 -0.5110  1.2907  0.9096
 3593TIP3    H210744   1.318   2.761   0.753 -2.6074  0.2839 -1.5942
 3594TIP3   OH210745   1.124   5.431   2.292  0.4655 -0.3353  0.0109
 3594TIP3    H110746   1.088   5.373   2.359 -0.2381 -1.4141 -1.2348
 3594TIP3    H210747   1.190   5.378   2.247  0.4440  0.1199 -0.5787
 3595TIP3   OH210748   5.759   1.985   5.707 -0.1741  0.1972  0.5393
 3595TIP3    H110749   5.687   2.025   5.658 -0.8468 -0.4618  0.9724
 3595TIP3    H210750   5.796   1.920   5.646 -0.8150 -0.4073  0.7842
 3596TIP3   OH210751   2.370   1.364   4.539  0.2019  0.2485 -0.6703
 3596TIP3    H110752   2.346   1.456   4.551  0.0479  0.3148 -1.4165
 3596TIP3    H210753   2.286   1.318   4.535  0.2681  0.1298 -0.7021
 3597TIP3   OH210754   2.156   4.839   4.391 -0.2350 -0.1222 -0.1581
 3597TIP3    H110755   2.196   4.849   4.305  0.0775 -1.3831 -0.1786
 3597TIP3    H210756   2.071   4.883   4.383  0.3760  0.9887 -0.6654
 3598TIP3   OH210757   1.663   4.981   5.620 -0.1941  0.0615  0.1252
 3598TIP3    H110758   1.628   4.893   5.633 -3.5082  1.4432  1.7202
 3598TIP3    H210759   1.668   4.993   5.526 -1.9421 -1.0626 -0.1332
 3599TIP3   OH210760   3.049   4.115   4.982 -0.0934 -0.1230  0.1580
 3599TIP3    H110761   3.023   4.047   5.044 -1.7558 -0.0287 -0.4042
 3599TIP3    H210762   3.100   4.068   4.915 -3.1533 -1.3559 -1.4908
 3600TIP3   OH210763   0.533   0.822   3.450 -0.2396  0.4605 -0.3398
 3600TIP3    H110764   0.614   0.774   3.432  1.1320  1.9026  1.6150
 3600TIP3    H210765   0.492   0.774   3.523  0.8668  1.8487  1.2609
 3601TIP3   OH210766   1.859   2.206   3.024 -0.6599  0.4935 -0.4508
 3601TIP3    H110767   1.781   2.154   3.003 -1.2095  1.3361 -0.5704
 3601TIP3    H210768   1.867   2.199   3.119  0.7188 -1.7824 -0.6641
 3602TIP3   OH210769   2.921   4.099   3.650  0.0128 -0.0744  0.0816
 3602TIP3    H110770   2.858   4.108   3.721 -0.2289 -0.3788 -0.0901
 3602TIP3    H210771   2.882   4.146   3.576 -1.0295 -2.0200 -0.6703
 3603TIP3   OH210772   5.973   4.530   2.833  0.0626 -0.2562 -0.1952
 3603TIP3    H110773   5.997   4.443   2.864 -0.9774 -0.0856  1.1888
 3603TIP3    H210774   6.027   4.590   2.884 -0.4963 -0.0278  0.1377
 3604TIP3   OH210775   2.011   1.639   3.558 -0.0499 -0.3204  0.2541
 3604TIP3    H110776   2.053   1.578   3.618 -0.9858  0.9449  2.3056
 3604TIP3    H210777   1.972   1.706   3.615 -3.0414 -0.2976 -1.5737
 3605TIP3   OH210778   4.844   1.564   2.483  0.4234 -0.0626  0.0678
 3605TIP3    H110779   4.866   1.570   2.390  0.6580 -2.2760 -0.0746
 3605TIP3    H210780   4.756   1.528   2.485  0.3494  0.1347  0.7076
 3606TIP3   OH210781   4.828   5.507   2.476 -0.1024  0.9941  0.3257
 3606TIP3    H110782   4.920   5.534   2.472  0.4615 -0.2823  2.7888
 3606TIP3    H210783   4.779   5.589   2.475  1.2563  1.8962  1.8446
 3607TIP3   OH210784   1.840   5.220   2.377  0.0876 -0.1348  0.1860
 3607TIP3    H110785   1.848   5.230   2.282 -0.8505 -1.8136 -0.1043
 3607TIP3    H210786   1.897   5.289   2.413  2.2281 -0.8484 -1.5971
 3608TIP3   OH210787   1.166   4.011   3.753  0.2579  0.3981 -0.2071
 3608TIP3    H110788   1.255   3.975   3.762  0.2807  0.8083  1.8239
 3608TIP3    H210789   1.129   3.964   3.678  1.5949 -1.0778 -0.0178
 3609TIP3   OH210790   1.140   4.563   4.485 -0.2976  0.3933  0.4853
 3609TIP3    H110791   1.082   4.522   4.549  0.2475  0.2613  0.9074
 3609TIP3    H210792   1.127   4.512   4.405 -1.3441  0.8655  0.3469
 3610TIP3   OH210793   3.356   1.299   4.318 -0.1486 -0.4154 -0.2505
 3610TIP3    H110794   3.277   1.310   4.371  0.0808 -0.9907  0.2203
 3610TIP3    H210795   3.400   1.223   4.356  0.8900  0.2002 -0.1868
 3611TIP3   OH210796   4.893   6.212   3.504 -0.0034  0.2325  0.1625
 3611TIP3    H110797   4.940   6.282   3.458 -0.8508  1.1617  0.6563
 3611TIP3    H210798   4.918   6.224   3.596  0.1588 -0.3777  0.2011
 3612TIP3   OH210799   4.534   6.308   2.031 -0.7382  0.1975 -0.1238
 3612TIP3    H110800   4.527   6.254   1.952 -1.5482  1.8831 -1.2675
 3612TIP3    H210801   4.514   6.248   2.103 -0.4218 -1.2834 -1.2160
 3613TIP3   OH210802   0.701   3.682   1.565 -0.5379  0.0715 -0.2903
 3613TIP3    H110803   0.728   3.611   1.507 -1.2111 -1.1020  0.7908
 3613TIP3    H210804   0.607   3.691   1.551 -0.3497  1.2933 -0.9670
 3614TIP3   OH210805   1.292   5.478   2.037 -0.6966 -0.0838 -0.0395
 3614TIP3    H110806   1.340   5.560   2.025 -2.1297  0.6654 -1.0227
 3614TIP3    H210807   1.249   5.464   1.952 -0.4594 -1.8656  0.1125
 3615TIP3   OH210808   1.305   0.230   0.765  0.3650 -0.3768  0.0325
 3615TIP3    H110809   1.260   0.184   0.694 -0.8686  0.0826  0.4996
 3615TIP3    H210810   1.377   0.276   0.721 -1.8729  2.0192 -1.4277
 3616TIP3   OH210811   2.600   0.630   1.071 -0.1306  0.3943  0.2057
 3616TIP3    H110812   2.655   0.706   1.054  0.5665 -0.8169 -3.9370
 3616TIP3    H210813   2.661   0.559   1.089 -0.5256 -0.1230 -0.4453
 3617TIP3   OH210814   3.715   0.794   4.235 -0.3156 -0.1953  0.7119
 3617TIP3    H110815   3.664   0.874   4.223 -0.7609 -0.7206 -1.2325
 3617TIP3    H210816   3.766   0.810   4.314 -1.7717  1.2636  1.4123
 3618TIP3   OH210817   6.163   3.198   2.386 -0.2788  0.3878 -0.0231
 3618TIP3    H110818   6.191   3.289   2.390 -0.5022  0.4234  0.9997
 3618TIP3    H210819   6.070   3.200   2.410 -0.3405 -0.0804 -0.2075
 3619TIP3   OH210820   3.253   4.388   5.279 -0.2306 -0.1836  0.1824
 3619TIP3    H110821   3.240   4.382   5.185 -1.6325 -1.0563  0.4097
 3619TIP3    H210822   3.192   4.324   5.317  1.7896 -1.4328  1.5923
 3620TIP3   OH210823   0.256   3.522   2.924 -0.2356 -0.8263 -0.2526
 3620TIP3    H110824   0.287   3.534   3.014  2.1993 -3.2678 -0.6141
 3620TIP3    H210825   0.230   3.430   2.920 -2.1662 -0.2854 -1.5998
 3621TIP3   OH210826   4.746   4.027   1.547 -0.1556  0.3271 -0.1294
 3621TIP3    H110827   4.665   3.995   1.587 -1.1106 -0.4100 -2.4914
 3621TIP3    H210828   4.798   3.948   1.531 -0.6561  0.3553 -2.0784
 3622TIP3   OH210829   1.678   3.265   4.083  0.0168  0.0489 -0.1349
 3622TIP3    H110830   1.600   3.213   4.062 -0.3397  1.0208 -1.3265
 3622TIP3    H210831   1.677   3.272   4.179 -1.8585  0.7657 -0.1703
 3623TIP3   OH210832   2.199   1.643   1.610 -0.2342  0.0995 -0.0219
 3623TIP3    H110833   2.217   1.557   1.649 -0.3104 -0.3784 -1.0154
 3623TIP3    H210834   2.127   1.627   1.549  1.6909  0.1809 -2.4942
 3624TIP3   OH210835   5.058   4.541   5.574 -0.0065  0.2479 -0.0300
 3624TIP3    H110836   5.149   4.514   5.586 -0.9179 -3.4472 -0.2622
 3624TIP3    H210837   5.055   4.574   5.484  0.8044 -1.3843 -0.7032
 3625TIP3   OH210838   5.007   1.510   0.003  0.3204  1.0885 -0.1528
 3625TIP3    H110839   5.088   1.463   0.021  0.3790  1.5842  0.9470
 3625TIP3    H210840   4.962   1.514   0.087 -0.3709  1.7119 -0.5383
 3626TIP3   OH210841   3.785   0.629   2.332  0.5480  0.5388  0.2113
 3626TIP3    H110842   3.729   0.680   2.390  0.2810  0.8358 -0.2991
 3626TIP3    H210843   3.750   0.540   2.338  0.3966  0.6058  0.3531
 3627TIP3   OH210844   2.375   2.598   2.797  0.4365  0.3969  0.2549
 3627TIP3    H110845   2.409   2.651   2.869  0.3289  2.7294 -1.2897
 3627TIP3    H210846   2.283   2.585   2.818  0.8192 -0.5203  1.4071
 3628TIP3   OH210847   6.289   6.097   3.720  0.1685  0.1118  0.4336
 3628TIP3    H110848   6.197   6.110   3.743  0.2541  2.1046 -0.1867
 3628TIP3    H210849   6.305   6.004   3.737 -2.2489 -0.5511 -0.4630
 3629TIP3   OH210850   3.995   5.723   1.141  0.5740  0.7849  0.3007
 3629TIP3    H110851   3.985   5.804   1.191 -0.3595  0.6237  0.3836
 3629TIP3    H210852   4.073   5.681   1.178  0.8837  1.4971  0.4578
 3630TIP3   OH210853   2.896   1.349   3.792  0.0347 -0.7856  0.4162
 3630TIP3    H110854   2.975   1.296   3.785  0.9597  0.3906  1.3885
 3630TIP3    H210855   2.897   1.382   3.882 -2.2821 -1.7800  0.8822
 3631TIP3   OH210856   1.894   2.508   0.334 -0.1825  0.3833  0.0809
 3631TIP3    H110857   1.919   2.530   0.424  1.1494  0.7605 -0.3678
 3631TIP3    H210858   1.976   2.504   0.286 -0.9472  1.1072 -1.3430
 3632TIP3   OH210859   6.486   6.342   4.781  0.2652  0.6705  0.1438
 3632TIP3    H110860   6.392   6.341   4.799 -0.3693 -2.8138 -2.3659
 3632TIP3    H210861   6.519   6.263   4.824  2.1499  1.8745  1.0447
 3633TIP3   OH210862   0.046   6.671   2.242  0.5671 -0.1157 -0.2471
 3633TIP3    H110863   0.005   6.654   2.326  0.4593 -0.0020 -0.2758
 3633TIP3    H210864  -0.028   6.693   2.184  0.8756  4.2633  0.6565
 3634TIP3   OH210865   6.283   3.401   5.776 -0.5455 -0.0453  0.0038
 3634TIP3    H110866   6.351   3.460   5.808 -0.0126 -0.4964 -0.2719
 3634TIP3    H210867   6.294   3.401   5.681 -0.4614 -0.6773  0.0093
 3635TIP3   OH210868   6.628   3.534   5.066 -0.2280  0.2291 -0.7485
 3635TIP3    H110869   6.539   3.509   5.042 -0.8767 -0.9648  2.4668
 3635TIP3    H210870   6.675   3.450   5.070  0.6652  0.7104 -0.9322
 3636TIP3   OH210871   6.790   4.924   0.912 -0.0351 -0.1948 -0.0307
 3636TIP3    H110872   6.836   4.970   0.842 -0.6394 -0.5271 -0.6538
 3636TIP3    H210873   6.823   4.964   0.992  2.9413 -1.8417 -0.3099
 3637TIP3   OH210874   6.230   5.424   0.311  0.2535 -0.0540 -0.3618
 3637TIP3    H110875   6.229   5.519   0.321 -1.6882 -0.2689  2.4426
 3637TIP3    H210876   6.321   5.399   0.328  0.4049  1.1704  0.7493
 3638TIP3   OH210877   3.664   6.594   5.336  0.1698  0.3325  0.3859
 3638TIP3    H110878   3.595   6.593   5.402 -0.2636 -2.6990 -0.0003
 3638TIP3    H210879   3.621   6.564   5.256  1.2562  1.5213 -0.6981
 3639TIP3   OH210880   5.103   4.864   2.608 -0.1183  0.7687  0.0675
 3639TIP3    H110881   5.137   4.938   2.557  1.0757 -0.3711 -0.8474
 3639TIP3    H210882   5.178   4.833   2.658  0.6866 -2.4279 -2.7495
 3640TIP3   OH210883   7.020   2.629   2.503  0.3484  0.5352  0.7009
 3640TIP3    H110884   6.982   2.669   2.581 -1.2250  0.7533 -0.1493
 3640TIP3    H210885   7.015   2.697   2.436  2.2889  0.5812  0.5380
 3641TIP3   OH210886   6.474   1.074   0.312 -0.2902 -0.4627  0.3233
 3641TIP3    H110887   6.477   1.009   0.242  0.5382 -0.5640  0.4355
 3641TIP3    H210888   6.560   1.116   0.309 -0.7560  0.5118  0.3620
 3642TIP3   OH210889   0.688   4.502   0.806 -0.3867  0.4231  0.5463
 3642TIP3    H110890   0.761   4.480   0.747  1.2721  0.7179  2.3922
 3642TIP3    H210891   0.647   4.579   0.766  0.0474  0.0301 -0.7200
 3643TIP3   OH210892   2.264   6.613   0.925 -0.0401 -0.2961  0.1791
 3643TIP3    H110893   2.185   6.625   0.872  0.5976  0.8463 -0.5469
 3643TIP3    H210894   2.231   6.600   1.014 -1.0537  0.1408 -0.1177
 3644TIP3   OH210895   4.210   4.113   3.951 -0.2656  0.3929  0.3842
 3644TIP3    H110896   4.193   4.123   4.045  2.0643  1.1841  0.7927
 3644TIP3    H210897   4.295   4.068   3.947 -0.1529  0.6883 -1.3326
 3645TIP3   OH210898   0.323   1.134   1.753 -0.6499  0.7795  0.6087
 3645TIP3    H110899   0.240   1.104   1.789  0.5624 -1.6590  1.6403
 3645TIP3    H210900   0.349   1.208   1.808 -2.6974  2.4921 -0.5820
 3646TIP3   OH210901   2.271   1.806   4.054 -0.1806 -0.6381  0.1652
 3646TIP3    H110902   2.209   1.878   4.041  1.4457  1.4446  2.7834
 3646TIP3    H210903   2.344   1.825   3.995  0.4896  0.2713  1.2341
 3647TIP3   OH210904   3.122   2.125   0.678 -0.2164 -0.0813 -0.3021
 3647TIP3    H110905   3.178   2.050   0.657  1.1057  1.3525 -2.2948
 3647TIP3    H210906   3.087   2.105   0.765 -0.6636 -3.3854 -1.1134
 3648TIP3   OH210907   0.290   4.243   1.482 -0.1400  0.3420 -0.9502
 3648TIP3    H110908   0.383   4.220   1.481 -0.3357 -0.4869 -1.5181
 3648TIP3    H210909   0.289   4.338   1.490  0.7213  0.2528  1.0043
 3649TIP3   OH210910   4.764   2.509   5.317  0.4516  0.3863 -0.4925
 3649TIP3    H110911   4.776   2.432   5.261 -2.1251  1.2219 -2.4008
 3649TIP3    H210912   4.781   2.477   5.406 -3.8432 -3.4875 -0.6911
 3650TIP3   OH210913   6.421   5.354   3.786  0.0405 -0.2517  0.5147
 3650TIP3    H110914   6.494   5.365   3.725 -0.1357  0.4738  0.4226
 3650TIP3    H210915   6.420   5.261   3.806  1.0916 -0.2570  0.6359
 3651TIP3   OH210916   4.673   4.378   2.136 -0.1200 -0.1126  0.6001
 3651TIP3    H110917   4.582   4.352   2.147 -0.2093  0.6735  1.8580
 3651TIP3    H210918   4.712   4.307   2.085 -1.1790 -0.9778  0.9532
 3652TIP3   OH210919   5.984   1.925   1.066 -0.9274 -0.1841 -0.3066
 3652TIP3    H110920   6.046   1.863   1.027 -0.0182  0.8145 -0.4930
 3652TIP3    H210921   6.015   1.937   1.155 -0.5957  0.6392 -0.5272
 3653TIP3   OH210922   5.793   1.804   4.024  0.4884 -0.2498 -0.4786
 3653TIP3    H110923   5.748   1.758   4.095 -0.9885 -0.1772 -1.3148
 3653TIP3    H210924   5.767   1.895   4.035  0.4534 -0.2000 -0.9481
 3654TIP3   OH210925   1.558   5.398   1.357  0.2129 -0.9409  0.4957
 3654TIP3    H110926   1.554   5.472   1.417  2.2632 -0.7420  0.4494
 3654TIP3    H210927   1.541   5.436   1.271 -1.1855 -0.9734  0.7333
 3655TIP3   OH210928   7.107   2.952   3.529  0.4949 -0.3464  0.1682
 3655TIP3    H110929   7.185   2.984   3.575  1.7007 -2.7583 -0.0467
 3655TIP3    H210930   7.042   2.939   3.599  0.7262  0.3977  0.5326
 3656TIP3   OH210931   1.162   4.555   2.045  0.2404 -0.7430  0.1672
 3656TIP3    H110932   1.077   4.513   2.030 -0.2459 -0.3517  1.6498
 3656TIP3    H210933   1.197   4.509   2.122  0.2487  0.6910  1.0588
 3657TIP3   OH210934   1.402   3.940   3.860  0.1610  0.3302 -0.2045
 3657TIP3    H110935   1.416   4.027   3.897 -0.1611 -0.2346  1.3242
 3657TIP3    H210936   1.490   3.901   3.856  0.1817  0.3483  0.0933
 3658TIP3   OH210937   1.140   0.917   3.782 -0.4955 -0.3085  0.0923
 3658TIP3    H110938   1.095   0.986   3.733  0.0416  0.3239  0.4742
 3658TIP3    H210939   1.191   0.964   3.848 -0.1501 -1.0768  0.3801
 3659TIP3   OH210940   2.694   1.706   1.134  0.7504  0.5270 -0.4503
 3659TIP3    H110941   2.639   1.777   1.101  0.7037  0.8786  0.3711
 3659TIP3    H210942   2.633   1.633   1.149  0.8223  0.2326 -1.4486
 3660TIP3   OH210943   3.754   5.757   5.768  0.3543  0.5641  0.9797
 3660TIP3    H110944   3.743   5.823   5.699 -1.0568  0.2825  0.8986
 3660TIP3    H210945   3.847   5.760   5.789  0.5391  1.7345  0.1373
 3661TIP3   OH210946   2.610   2.290   0.264 -0.1764 -0.3715  0.7236
 3661TIP3    H110947   2.604   2.317   0.172  1.6818  2.1913  1.2307
 3661TIP3    H210948   2.582   2.199   0.264  0.8078 -0.8230 -2.5616
 3662TIP3   OH210949   0.936   4.474   5.669 -0.2372  0.3191 -0.0336
 3662TIP3    H110950   1.015   4.525   5.687  0.4230 -0.0181 -1.8190
 3662TIP3    H210951   0.958   4.385   5.695 -0.3030  0.3629  0.1751
 3663TIP3   OH210952   5.853   0.188   0.547 -0.4776  0.2275  0.1078
 3663TIP3    H110953   5.919   0.254   0.526  0.3811 -0.7134 -0.3014
 3663TIP3    H210954   5.905   0.110   0.570 -1.4486 -0.5666 -0.3266
 3664TIP3   OH210955   3.441   3.301   4.458 -0.2967 -0.0794  0.6068
 3664TIP3    H110956   3.372   3.239   4.433  2.1706 -2.1189 -1.6609
 3664TIP3    H210957   3.503   3.249   4.508  1.2481  0.8411 -0.2919
 3665TIP3   OH210958   5.500   3.800   4.116  0.1988 -0.5052  0.0270
 3665TIP3    H110959   5.577   3.750   4.090  1.0179  0.9065 -0.4007
 3665TIP3    H210960   5.441   3.794   4.040  0.3269 -0.7366 -0.0551
 3666TIP3   OH210961   5.464   3.359   1.452 -0.3553 -0.4278 -0.0212
 3666TIP3    H110962   5.514   3.279   1.435 -0.1576 -0.5442  1.0524
 3666TIP3    H210963   5.463   3.367   1.547 -0.7038  0.6468 -0.1036
 3667TIP3   OH210964   2.661   6.049   1.139 -0.9918 -0.1821 -0.4257
 3667TIP3    H110965   2.569   6.062   1.163 -1.5911 -0.5345 -2.3932
 3667TIP3    H210966   2.686   6.132   1.099 -1.1622 -0.8394 -1.9481
 3668TIP3   OH210967   5.964   3.284   4.884 -0.0517  0.3076 -0.1889
 3668TIP3    H110968   6.024   3.356   4.865 -0.0399  0.3361 -0.0383
 3668TIP3    H210969   5.884   3.327   4.916  0.4122  0.1956  1.1510
 3669TIP3   OH210970   7.125   6.629   0.286 -0.2278 -0.0924 -0.5017
 3669TIP3    H110971   7.097   6.653   0.374  1.0928  0.6527 -0.2559
 3669TIP3    H210972   7.139   6.713   0.242 -2.3974 -0.4357 -1.9625
 3670TIP3   OH210973   7.015   4.427   1.546  0.2841 -0.6281 -0.3004
 3670TIP3    H110974   7.017   4.335   1.522  0.1087 -0.3277 -1.5611
 3670TIP3    H210975   7.092   4.465   1.503 -1.2672  0.3633 -2.3550
 3671TIP3   OH210976   2.369   1.044   3.630 -0.0073 -0.4325  0.0930
 3671TIP3    H110977   2.443   1.081   3.582  0.2038 -0.5073  0.3567
 3671TIP3    H210978   2.354   0.959   3.590  0.1957 -0.5126  0.1851
 3672TIP3   OH210979   2.897   3.461   1.678  0.1631 -0.5931  0.4000
 3672TIP3    H110980   2.893   3.459   1.582 -0.3111 -1.3830  0.4342
 3672TIP3    H210981   2.990   3.479   1.697  0.0761  0.6446 -0.2002
 3673TIP3   OH210982   1.574   0.791   4.658 -0.3243 -0.3545  0.3463
 3673TIP3    H110983   1.663   0.767   4.687  0.2378  0.1870 -0.8706
 3673TIP3    H210984   1.539   0.711   4.619 -0.0264 -0.3337  0.0298
 3674TIP3   OH210985   3.142   0.843   3.171  0.6167 -0.0219 -0.1783
 3674TIP3    H110986   3.077   0.851   3.241  0.4341 -2.1142 -0.0601
 3674TIP3    H210987   3.118   0.912   3.109 -2.1691 -1.1310 -0.4764
 3675TIP3   OH210988   4.451   2.023   2.047  0.1269 -0.1896  0.0011
 3675TIP3    H110989   4.426   2.054   2.134  0.6845  0.9477 -0.2314
 3675TIP3    H210990   4.372   1.981   2.013 -0.3170  0.0074  0.7685
 3676TIP3   OH210991   4.240   3.631   2.408  0.6246  0.0012  0.7048
 3676TIP3    H110992   4.266   3.622   2.317  1.0711  1.0566  0.7180
 3676TIP3    H210993   4.202   3.718   2.414  1.3463  0.2710  1.6884
 3677TIP3   OH210994   3.522   3.185   1.696  0.6901 -0.3160 -0.0818
 3677TIP3    H110995   3.609   3.153   1.718  0.0829 -1.8043  0.3260
 3677TIP3    H210996   3.468   3.160   1.771 -0.7909 -2.7050 -1.7832
 3678TIP3   OH210997   6.058   5.678   5.178 -0.6569  0.5725  0.0993
 3678TIP3    H110998   6.146   5.656   5.209 -0.8570 -0.9440 -0.3352
 3678TIP3    H210999   6.060   5.659   5.084 -2.2575 -2.4195  0.5562
 3679TIP3   OH211000   1.736   2.652   1.119 -0.1134 -0.3768 -0.4477
 3679TIP3    H111001   1.738   2.738   1.076 -0.2026 -1.1624 -2.1218
 3679TIP3    H211002   1.663   2.657   1.180 -0.1690  0.7060 -0.5881
 3680TIP3   OH211003   1.746   4.774   1.178 -0.5397 -0.2564 -0.3159
 3680TIP3    H111004   1.773   4.800   1.090 -0.1860 -0.2522 -0.2084
 3680TIP3    H211005   1.704   4.689   1.166 -0.7372 -0.1315 -0.5234
 3681TIP3   OH211006   5.218   4.612   4.310 -0.1767  0.9040  0.2492
 3681TIP3    H111007   5.181   4.524   4.302 -1.9460  1.5417  1.0690
 3681TIP3    H211008   5.303   4.599   4.351  0.1438 -0.5241 -0.7951
 3682TIP3   OH211009   4.472   4.699   3.082 -0.2666  0.2947 -0.3127
 3682TIP3    H111010   4.538   4.664   3.142 -0.4362  1.6602  0.7458
 3682TIP3    H211011   4.480   4.647   3.003  1.6761  0.0369  0.0142
 3683TIP3   OH211012   0.559   0.209   4.333 -0.4265  0.1810  0.0887
 3683TIP3    H111013   0.575   0.294   4.293 -0.1275  0.4447  0.7477
 3683TIP3    H211014   0.605   0.146   4.277 -0.5638  0.4624 -0.3407
 3684TIP3   OH211015   3.188   2.531   1.679 -0.5665 -0.3197 -0.2491
 3684TIP3    H111016   3.184   2.515   1.584 -0.5595 -1.1621 -0.1145
 3684TIP3    H211017   3.104   2.572   1.699 -1.1010 -1.2865 -0.4261
 3685TIP3   OH211018   6.442   0.345   3.560 -0.3601  1.2982  0.3189
 3685TIP3    H111019   6.503   0.410   3.525  0.0381 -0.5983 -2.9438
 3685TIP3    H211020   6.365   0.353   3.504 -1.0112  0.2103  1.0377
 3686TIP3   OH211021   3.889   4.079   4.325 -0.1004  0.0516  0.2192
 3686TIP3    H111022   3.847   4.089   4.239 -1.9278 -2.5614  0.6754
 3686TIP3    H211023   3.971   4.128   4.318 -0.8684  1.1395 -2.4943
 3687TIP3   OH211024   0.262   5.035   2.930  0.3536 -0.4096 -0.0500
 3687TIP3    H111025   0.247   5.021   3.023  1.4905 -0.8060  0.0972
 3687TIP3    H211026   0.209   4.969   2.886  0.2769 -0.6108  0.3430
 3688TIP3   OH211027   6.228   5.714   5.631 -0.0780 -0.1843  0.1887
 3688TIP3    H111028   6.293   5.666   5.681  0.6241 -0.4972 -0.9861
 3688TIP3    H211029   6.278   5.783   5.588 -0.8755  0.8630  0.8861
 3689TIP3   OH211030   6.045   4.255   5.537  0.3779 -0.3365  0.3605
 3689TIP3    H111031   6.050   4.211   5.622  1.8070 -2.7527 -0.8814
 3689TIP3    H211032   6.127   4.304   5.530  0.3067 -0.2228  0.3056
 3690TIP3   OH211033   1.589   4.114   2.013  0.0782 -0.7240  0.3582
 3690TIP3    H111034   1.662   4.133   2.072 -1.6825 -0.3938  2.5326
 3690TIP3    H211035   1.533   4.055   2.062 -0.6624 -1.8350 -1.6787
 3691TIP3   OH211036   4.600   4.882   4.374  0.0736 -0.3130  0.2131
 3691TIP3    H111037   4.567   4.809   4.321 -1.4112  0.1882  0.3829
 3691TIP3    H211038   4.671   4.844   4.426  0.8963 -1.0540 -1.3815
 3692TIP3   OH211039   4.642   5.117   4.703  0.3459 -0.7475  0.1897
 3692TIP3    H111040   4.608   5.099   4.790  1.6121  0.4446  0.9737
 3692TIP3    H211041   4.735   5.097   4.709  0.1380 -2.5388 -1.4775
 3693TIP3   OH211042   1.582   0.065   4.107  0.6367  0.1243 -0.1389
 3693TIP3    H111043   1.602   0.111   4.188 -1.0475  0.8813 -0.1130
 3693TIP3    H211044   1.588  -0.028   4.129 -0.8963  0.3003  1.1789
 3694TIP3   OH211045   6.081   6.642   5.436  0.6319 -0.4701  0.0359
 3694TIP3    H111046   6.018   6.598   5.379 -1.3732  2.7210 -0.4117
 3694TIP3    H211047   6.144   6.681   5.376  1.2596 -1.0054  0.3287
 3695TIP3   OH211048   6.397   1.988   4.828  0.0211  0.6191 -0.5252
 3695TIP3    H111049   6.472   2.027   4.873  0.8514 -0.4947 -0.9194
 3695TIP3    H211050   6.379   1.907   4.877 -0.7362  0.7236 -0.6159
 3696TIP3   OH211051   3.145   2.540   4.620 -0.0283 -0.2816  0.2554
 3696TIP3    H111052   3.085   2.556   4.693  1.1776  1.8948  0.8455
 3696TIP3    H211053   3.100   2.578   4.544  0.9164  2.2333  0.8679
 3697TIP3   OH211054   4.297   2.115   4.015 -0.7126  0.2019  0.3331
 3697TIP3    H111055   4.344   2.179   3.962  0.4381 -0.5968  0.3700
 3697TIP3    H211056   4.289   2.157   4.101  3.4126 -1.0589  1.5636
 3698TIP3   OH211057   2.001   2.217   4.782  0.0103  0.0886 -0.1642
 3698TIP3    H111058   2.000   2.284   4.851  1.6385  0.3540 -0.3532
 3698TIP3    H211059   2.093   2.209   4.758 -0.3394 -1.1579 -1.2041
 3699TIP3   OH211060   2.100   0.616   4.196 -0.3102  0.0061  0.2151
 3699TIP3    H111061   2.006   0.600   4.181 -0.1380 -0.8437 -0.0051
 3699TIP3    H211062   2.125   0.551   4.262 -0.6182  2.4214  2.8864
 3700TIP3   OH211063   2.933   4.852   5.266  0.0038  0.5613  0.1692
 3700TIP3    H111064   2.936   4.826   5.358  0.3904  1.4274  0.4044
 3700TIP3    H211065   2.968   4.941   5.264 -0.0545  0.5770 -0.8091
 3701TIP3   OH211066   4.244   0.330   3.104 -0.2698 -0.7630 -0.5509
 3701TIP3    H111067   4.321   0.337   3.047 -0.6934  0.9703 -0.9697
 3701TIP3    H211068   4.176   0.379   3.058 -0.9472 -0.2713  0.9179
 3702TIP3   OH211069   0.323   2.181   4.194  0.6210  0.0829 -0.5820
 3702TIP3    H111070   0.374   2.250   4.236 -0.1567  0.7059 -0.6285
 3702TIP3    H211071   0.336   2.104   4.250  2.1323  0.0383 -0.9698
 3703TIP3   OH211072   6.960   4.340   1.101 -0.7960  0.5933  0.6690
 3703TIP3    H111073   6.954   4.292   1.184  0.8429  2.9508  2.2855
 3703TIP3    H211074   6.885   4.399   1.102  0.0573  1.6947  1.2521
 3704TIP3   OH211075   4.429   6.399   2.870 -0.5217 -0.2034  0.1918
 3704TIP3    H111076   4.373   6.471   2.839 -0.3929 -0.3719 -0.4495
 3704TIP3    H211077   4.518   6.434   2.862 -0.3878 -0.8032 -1.1524
 3705TIP3   OH211078   0.501   2.261   1.360  0.6023  0.1890  0.4730
 3705TIP3    H111079   0.461   2.339   1.320 -0.3189 -0.1530  0.7019
 3705TIP3    H211080   0.430   2.221   1.409  0.9868 -0.9815  0.0951
 3706TIP3   OH211081   0.385   4.440   2.180  0.2364  0.2364 -0.3908
 3706TIP3    H111082   0.430   4.404   2.104 -1.6054 -1.5818 -0.6946
 3706TIP3    H211083   0.357   4.528   2.152 -0.5357 -0.4562 -1.9070
 3707TIP3   OH211084   3.076   3.033   1.990 -0.4758 -0.1202 -0.3768
 3707TIP3    H111085   3.100   3.091   1.918  1.7378  0.5326  0.7957
 3707TIP3    H211086   3.080   2.945   1.952 -0.5320  0.2722 -1.3246
 3708TIP3   OH211087   0.889   1.062   4.504  0.2785 -0.1895 -0.1342
 3708TIP3    H111088   0.917   1.058   4.413 -0.4309  0.3095 -0.3870
 3708TIP3    H211089   0.799   1.028   4.502 -0.0211  0.5566  0.2418
 3709TIP3   OH211090   5.049   0.306   3.728 -0.0491 -0.1047 -0.5200
 3709TIP3    H111091   5.078   0.228   3.776 -0.0933  0.3066  0.1965
 3709TIP3    H211092   4.958   0.288   3.705 -0.3979  0.1611  0.5867
 3710TIP3   OH211093   4.511   1.433   2.368  0.0951  0.4787 -0.6633
 3710TIP3    H111094   4.460   1.411   2.290 -0.7834  1.1215 -0.2783
 3710TIP3    H211095   4.458   1.404   2.441  1.0301 -0.3517 -0.2916
 3711TIP3   OH211096   2.433   5.522   2.378  0.1752  0.5737 -0.4631
 3711TIP3    H111097   2.365   5.502   2.313 -0.8225  0.1679  0.6774
 3711TIP3    H211098   2.415   5.612   2.405 -1.1597 -0.1842  1.2832
 3712TIP3   OH211099   4.016   6.444   4.370 -0.3045  0.2412 -0.1407
 3712TIP3    H111100   4.037   6.352   4.381 -0.8289  0.3257  1.9386
 3712TIP3    H211101   4.101   6.488   4.366 -0.0205 -0.1271  1.2181
 3713TIP3   OH211102   2.796   4.630   4.020 -0.1026 -0.3241 -0.1659
 3713TIP3    H111103   2.718   4.649   3.968 -0.7183 -0.2179  0.7840
 3713TIP3    H211104   2.793   4.536   4.035 -0.9097 -0.1116  1.1848
 3714TIP3   OH211105   4.695   3.023   3.227 -0.2693  0.2330  0.1498
 3714TIP3    H111106   4.673   2.959   3.159  0.9569  0.5692 -0.6162
 3714TIP3    H211107   4.782   2.996   3.257 -1.3395 -0.7537  2.6579
 3715TIP3   OH211108   4.528   4.650   4.631 -0.1968 -0.3990 -0.8057
 3715TIP3    H111109   4.548   4.598   4.709 -0.4008 -1.1891 -1.2652
 3715TIP3    H211110   4.609   4.695   4.610 -0.0581 -0.4142 -0.3027
 3716TIP3   OH211111   2.991   5.784   2.292  0.2579  0.9245  0.1732
 3716TIP3    H111112   3.020   5.858   2.239  0.0824  0.1781 -1.0000
 3716TIP3    H211113   2.903   5.809   2.322 -0.3792  0.6246 -1.3754
 3717TIP3   OH211114   0.561   1.530   2.627 -0.2805  0.2261 -0.0533
 3717TIP3    H111115   0.489   1.490   2.675 -0.6235  0.4396 -0.3779
 3717TIP3    H211116   0.533   1.526   2.536 -0.9096  2.2862 -0.0140
 3718TIP3   OH211117   5.336   3.959   1.279  0.3972 -0.0425 -0.6908
 3718TIP3    H111118   5.309   3.975   1.188 -1.4454  1.1847  0.0346
 3718TIP3    H211119   5.307   4.036   1.327  3.0630  0.2283  0.6570
 3719TIP3   OH211120   4.638   1.312   0.395 -0.1981 -0.5424  0.8241
 3719TIP3    H111121   4.591   1.391   0.421 -0.5919 -0.1389 -0.9307
 3719TIP3    H211122   4.681   1.336   0.312  2.8978 -0.9777  2.1517
 3720TIP3   OH211123   1.093   1.555   1.922 -0.4948 -0.0525 -0.5786
 3720TIP3    H111124   1.077   1.597   2.007 -1.0991  0.0487 -0.7397
 3720TIP3    H211125   1.127   1.625   1.867 -1.0072  0.1060 -0.6952
 3721TIP3   OH211126   0.664   3.724   2.763  0.5180  0.3055 -0.0414
 3721TIP3    H111127   0.751   3.758   2.743  0.4571 -0.4573 -1.8708
 3721TIP3    H211128   0.622   3.793   2.814  2.3429  0.4676  1.3506
 3722TIP3   OH211129   4.426   3.851   2.662  0.0713 -0.8747  0.3521
 3722TIP3    H111130   4.474   3.768   2.668 -0.5799 -1.3022 -0.3086
 3722TIP3    H211131   4.404   3.860   2.570 -0.8763 -0.5358  0.6056
 3723TIP3   OH211132   4.873   2.141   1.062  0.1210 -0.8599 -0.0471
 3723TIP3    H111133   4.866   2.183   1.148  0.9646 -0.6910 -0.0521
 3723TIP3    H211134   4.880   2.214   1.000 -1.2727 -0.9600 -0.3548
 3724TIP3   OH211135   5.249   6.081   3.939 -0.4284 -0.5736 -0.3124
 3724TIP3    H111136   5.336   6.119   3.939  0.0270 -1.5454 -1.2553
 3724TIP3    H211137   5.198   6.135   4.000  0.3695  1.0627 -1.0384
 3725TIP3   OH211138   1.791   6.363   2.564  0.3297 -0.2625  0.6019
 3725TIP3    H111139   1.766   6.365   2.472  2.0558 -0.3832  0.0880
 3725TIP3    H211140   1.860   6.296   2.568 -1.0764 -1.6999  2.3700
 3726TIP3   OH211141   5.852   4.140   5.348  0.3523 -0.1784  0.2977
 3726TIP3    H111142   5.903   4.123   5.427  0.4947  1.2218  0.5398
 3726TIP3    H211143   5.913   4.126   5.276  0.3171 -1.1123  0.4305
 3727TIP3   OH211144   2.171   5.116   3.487  0.0990 -0.1800 -0.3100
 3727TIP3    H111145   2.127   5.195   3.456 -0.1941  0.0279  0.6033
 3727TIP3    H211146   2.258   5.145   3.513 -0.1375 -0.0625  0.3917
 3728TIP3   OH211147   5.262   6.136   0.019  0.0894 -0.3629  0.1414
 3728TIP3    H111148   5.244   6.144   0.113  0.3855  1.3362  0.0993
 3728TIP3    H211149   5.306   6.218  -0.003 -0.9564 -0.2484 -1.7143
 3729TIP3   OH211150   3.015   1.455   5.713  0.0904  0.0824 -0.2867
 3729TIP3    H111151   3.037   1.505   5.634 -0.1572  1.0237  0.2292
 3729TIP3    H211152   2.931   1.490   5.741  0.7460  0.6312  1.0929
 3730TIP3   OH211153   3.658   4.473   0.355 -0.3782 -0.2640 -0.0937
 3730TIP3    H111154   3.733   4.467   0.415 -0.7206 -1.5460  0.2274
 3730TIP3    H211155   3.697   4.495   0.270  0.4721 -1.7847 -0.1235
 3731TIP3   OH211156   6.298   6.110   0.680 -0.1666 -0.1660  0.1973
 3731TIP3    H111157   6.373   6.167   0.698  0.2677 -0.8747  0.6804
 3731TIP3    H211158   6.321   6.065   0.599  0.4285 -1.1752  0.9036
 3732TIP3   OH211159   6.289   4.191   2.606 -0.2425  0.2288 -0.6495
 3732TIP3    H111160   6.199   4.163   2.590 -0.9215  2.5610 -1.2970
 3732TIP3    H211161   6.311   4.247   2.531  0.4306  2.6135  1.2044
 3733TIP3   OH211162   4.414   1.500   5.667  0.7780  0.1602 -0.1512
 3733TIP3    H111163   4.474   1.540   5.730 -0.0512  0.0144  0.7540
 3733TIP3    H211164   4.390   1.417   5.706 -2.1538  1.3779  0.9035
 3734TIP3   OH211165   5.682   0.412   5.468  0.2523  0.1394 -0.3268
 3734TIP3    H111166   5.710   0.498   5.498 -2.4599  0.9212  0.2166
 3734TIP3    H211167   5.621   0.381   5.535  1.2170 -2.2841 -0.4528
 3735TIP3   OH211168   4.350   2.779   4.523 -0.3539 -0.0101 -0.4019
 3735TIP3    H111169   4.359   2.840   4.449 -1.3728  2.2427  1.2105
 3735TIP3    H211170   4.438   2.776   4.562 -0.6875  2.1495  0.6884
 3736TIP3   OH211171   6.008   0.457   4.092  0.3269 -0.0389  1.1085
 3736TIP3    H111172   6.014   0.410   4.009 -1.0830 -1.5121  1.7835
 3736TIP3    H211173   6.034   0.392   4.158  0.2567  0.7361  1.9208
 3737TIP3   OH211174   4.859   4.457   3.141 -0.0041 -0.7310  0.4458
 3737TIP3    H111175   4.835   4.382   3.196 -1.3598 -1.1180 -0.6199
 3737TIP3    H211176   4.775   4.496   3.116  0.5615 -0.6884 -1.5074
 3738TIP3   OH211177   0.433   6.722   0.114 -0.1949  0.0351  0.7787
 3738TIP3    H111178   0.410   6.786   0.181 -0.4956  1.5769 -0.7411
 3738TIP3    H211179   0.517   6.753   0.079 -1.5753  1.1503 -1.7574
 3739TIP3   OH211180   7.103   5.851   1.565 -0.2832  0.7380 -0.0560
 3739TIP3    H111181   7.166   5.867   1.495 -1.5706  0.6521 -1.2893
 3739TIP3    H211182   7.025   5.818   1.520 -1.3633  1.2426  1.3554
 3740TIP3   OH211183   0.855   2.184   0.338  0.0517 -0.3908 -0.1339
 3740TIP3    H111184   0.871   2.155   0.428 -1.8671  0.0962  0.4108
 3740TIP3    H211185   0.815   2.271   0.347  2.5320  1.0417 -1.6007
 3741TIP3   OH211186   3.564   0.395   3.261  0.0548 -0.1305 -0.2761
 3741TIP3    H111187   3.490   0.369   3.316  2.7908 -4.1268  2.1027
 3741TIP3    H211188   3.561   0.336   3.186 -0.2495  1.1185 -1.2837
 3742TIP3   OH211189   0.739   0.160   5.586 -0.6448  0.4198 -0.6480
 3742TIP3    H111190   0.654   0.125   5.612  0.0433  0.6955  2.4546
 3742TIP3    H211191   0.791   0.082   5.564 -0.1032 -0.4665  3.0520
 3743TIP3   OH211192   1.669   4.384   1.642  0.2047  0.4717  0.1754
 3743TIP3    H111193   1.677   4.291   1.623  1.3821  0.2976  1.3513
 3743TIP3    H211194   1.736   4.401   1.707  0.2164  2.2185 -0.2285
 3744TIP3   OH211195   3.818   5.833   0.887  0.2647  0.4536 -0.4658
 3744TIP3    H111196   3.825   5.921   0.850 -1.5859  1.1839  0.7825
 3744TIP3    H211197   3.827   5.845   0.982  2.0227 -1.0087 -0.3709
 3745TIP3   OH211198   1.420   1.197   1.399 -0.4823  0.1739 -0.4495
 3745TIP3    H111199   1.364   1.242   1.336  1.5050  1.3733 -1.4455
 3745TIP3    H211200   1.506   1.196   1.358  0.3743 -1.1075  1.2697
 3746TIP3   OH211201   2.654   4.827   5.219 -0.6022 -0.7312  0.6942
 3746TIP3    H111202   2.603   4.813   5.300 -1.6619 -0.1191  0.1555
 3746TIP3    H211203   2.745   4.815   5.246 -0.8691  0.2156  2.1585
 3747TIP3   OH211204   4.591   2.283   0.798  0.2503  0.6728 -0.3064
 3747TIP3    H111205   4.578   2.310   0.708  0.0459  0.9062 -0.2085
 3747TIP3    H211206   4.631   2.360   0.841  1.9862 -0.0181 -0.6000
 3748TIP3   OH211207   0.632   5.080   0.087 -0.3587  0.3584 -0.2318
 3748TIP3    H111208   0.581   4.999   0.096 -2.1100  0.8333 -3.8695
 3748TIP3    H211209   0.661   5.079  -0.005  1.1376  3.0218  0.1047
 3749TIP3   OH211210   2.211   5.765   0.154  0.1064  0.0953 -0.1050
 3749TIP3    H111211   2.254   5.848   0.173  2.3621 -0.8773 -0.5649
 3749TIP3    H211212   2.221   5.754   0.060  0.9386 -1.2216  0.1080
 3750TIP3   OH211213   0.665   0.906   2.848  0.3173 -0.1830 -0.7129
 3750TIP3    H111214   0.645   0.814   2.863  1.2998 -0.9637 -3.4498
 3750TIP3    H211215   0.625   0.925   2.763  0.2098  1.9050 -0.2330
 3751TIP3   OH211216   6.668   4.059   1.044  0.1432 -0.0570 -0.0233
 3751TIP3    H111217   6.639   4.086   1.131 -0.4393  4.5330 -1.3836
 3751TIP3    H211218   6.605   3.993   1.017 -2.2498  1.4442  1.5023
 3752TIP3   OH211219   4.916   2.330   1.527  0.4091  0.1871 -0.6215
 3752TIP3    H111220   4.982   2.355   1.462  1.9157 -1.9178 -0.0219
 3752TIP3    H211221   4.967   2.294   1.600 -1.3702 -1.7057 -0.2013
 3753TIP3   OH211222   1.796   6.425   2.953  0.4065  0.4612  0.8317
 3753TIP3    H111223   1.880   6.470   2.943  1.4133 -1.5036 -0.0718
 3753TIP3    H211224   1.804   6.378   3.036  0.1406  0.4074  0.8268
 3754TIP3   OH211225   5.874   0.256   3.354 -0.3482  0.1650 -0.3968
 3754TIP3    H111226   5.881   0.352   3.351  3.1865  0.0024 -0.6122
 3754TIP3    H211227   5.852   0.231   3.264 -0.3755  0.7243 -0.5502
 3755TIP3   OH211228   6.973   0.018   3.097 -0.5438  0.3145  0.1074
 3755TIP3    H111229   7.005   0.003   3.008 -0.9615 -0.5362  0.0885
 3755TIP3    H211230   6.887   0.060   3.085 -1.2059 -1.0040  0.0625
 3756TIP3   OH211231   3.056   4.187   5.458  0.2678 -0.1006  0.4271
 3756TIP3    H111232   2.980   4.218   5.407  1.4434 -0.0488 -1.3893
 3756TIP3    H211233   3.019   4.127   5.522 -1.2840 -0.3982 -0.6860
 3757TIP3   OH211234   5.923   0.094   5.607 -0.2344 -0.0750 -0.1720
 3757TIP3    H111235   5.906   0.055   5.522  2.7864  2.6134 -2.2454
 3757TIP3    H211236   6.019   0.101   5.612 -0.4272  2.8491  1.9580
 3758TIP3   OH211237   3.591   2.796   1.449 -0.7276  0.7798 -0.0995
 3758TIP3    H111238   3.634   2.854   1.511 -1.4311 -0.1096  1.2515
 3758TIP3    H211239   3.537   2.737   1.502  0.4474 -1.5688 -1.3172
 3759TIP3   OH211240   2.728   2.138   0.821  0.2436  0.6363 -0.2934
 3759TIP3    H111241   2.685   2.165   0.740  1.2896  2.3416 -0.3253
 3759TIP3    H211242   2.686   2.055   0.844 -0.1083  0.1265 -2.5396
 3760TIP3   OH211243   1.735   6.215   1.930  0.2030 -0.0313  0.0524
 3760TIP3    H111244   1.820   6.188   1.893  1.1071 -0.5491  2.3296
 3760TIP3    H211245   1.750   6.304   1.962 -0.4048  0.2182 -0.3446
 3761TIP3   OH211246   5.620   4.253   2.908 -0.0337 -0.0536  0.0282
 3761TIP3    H111247   5.651   4.291   2.826  0.3450 -1.0549 -0.2934
 3761TIP3    H211248   5.665   4.303   2.976  0.4513  0.0793 -0.3889
 3762TIP3   OH211249   2.020   0.462   3.456  0.6546 -0.3950  0.2576
 3762TIP3    H111250   2.048   0.450   3.365 -0.0183 -2.0793  0.2251
 3762TIP3    H211251   2.094   0.432   3.509  0.5189 -0.7912  0.2295
 3763TIP3   OH211252   2.219   3.061   1.211 -0.1739  0.1596 -0.4810
 3763TIP3    H111253   2.237   3.125   1.142 -2.2460  0.2199 -1.0108
 3763TIP3    H211254   2.134   3.085   1.246  0.9067  0.3154  2.3742
 3764TIP3   OH211255   2.420   4.147   1.335 -0.5432 -0.5048 -0.3598
 3764TIP3    H111256   2.498   4.135   1.391  0.3747 -3.1484 -1.9803
 3764TIP3    H211257   2.414   4.241   1.322  1.0690 -0.0464  1.6003
 3765TIP3   OH211258   3.344   3.329   0.281  0.1532  0.1312  0.1979
 3765TIP3    H111259   3.348   3.282   0.198 -1.2224  0.0581  0.1580
 3765TIP3    H211260   3.300   3.411   0.260 -0.8524 -0.1908  0.9755
 3766TIP3   OH211261   2.039   5.258   0.514 -0.0204  0.1081  0.2305
 3766TIP3    H111262   1.998   5.173   0.502 -0.7208  0.4865 -0.1405
 3766TIP3    H211263   2.111   5.242   0.575 -0.3583 -0.6765  0.4317
 3767TIP3   OH211264   4.531   6.305   5.583 -0.2678 -0.0467 -0.5757
 3767TIP3    H111265   4.602   6.349   5.631  0.0774  0.8478 -1.8576
 3767TIP3    H211266   4.454   6.357   5.603 -0.6107 -1.0283  0.8310
 3768TIP3   OH211267   4.605   2.599   3.206  0.2565 -0.3365 -0.4426
 3768TIP3    H111268   4.521   2.626   3.245 -0.4392  1.2022 -2.8234
 3768TIP3    H211269   4.665   2.670   3.228  0.9980 -1.3889  1.1720
 3769TIP3   OH211270   2.176   4.232   1.963 -0.2807 -0.5562  0.0600
 3769TIP3    H111271   2.191   4.287   1.886  0.3254 -2.2418 -1.0791
 3769TIP3    H211272   2.135   4.291   2.026 -1.5665  0.6886 -1.8246
 3770TIP3   OH211273   4.495   4.917   1.936 -0.1669  0.1679  0.3226
 3770TIP3    H111274   4.590   4.918   1.920 -0.1483  0.5942  0.4320
 3770TIP3    H211275   4.482   4.851   2.003  0.1334  0.5331  0.7495
 3771TIP3   OH211276   6.575   6.736   5.645 -0.5930  0.3927 -0.5043
 3771TIP3    H111277   6.599   6.653   5.602 -0.1507 -0.3792  1.1483
 3771TIP3    H211278   6.509   6.774   5.587 -0.2876 -0.7611 -1.6770
 3772TIP3   OH211279   1.104   3.622   4.486 -0.4512  0.4622  0.1465
 3772TIP3    H111280   1.068   3.603   4.399  0.5892 -1.1802  0.0196
 3772TIP3    H211281   1.050   3.693   4.520 -0.1133  2.0001 -2.3354
 3773TIP3   OH211282   6.050   1.770   1.549 -0.2574  0.2013 -0.3024
 3773TIP3    H111283   5.958   1.747   1.538 -0.5297  0.4826  1.2147
 3773TIP3    H211284   6.088   1.699   1.600  0.3271  0.1860 -0.7415
 3774TIP3   OH211285   7.119   5.395   4.267 -0.0010  0.3684  0.3595
 3774TIP3    H111286   7.215   5.395   4.270  0.1252  0.8039 -2.0702
 3774TIP3    H211287   7.098   5.364   4.179 -2.0742  1.6563  0.3447
 3775TIP3   OH211288   3.411   2.562   0.650  0.0913  0.1633 -0.5517
 3775TIP3    H111289   3.381   2.476   0.622  1.1557 -0.5454  0.4072
 3775TIP3    H211290   3.388   2.620   0.578 -0.4294 -0.9599 -1.3178
 3776TIP3   OH211291   1.845   0.824   3.384 -0.2813  0.4020  0.1315
 3776TIP3    H111292   1.826   0.905   3.432 -0.9865 -0.0693  0.6847
 3776TIP3    H211293   1.766   0.771   3.396  0.4311 -0.6430  0.3660
 3777TIP3   OH211294   6.231   0.572   2.409  0.1264  0.0774 -0.2000
 3777TIP3    H111295   6.192   0.639   2.353 -1.0232  0.2166  0.7277
 3777TIP3    H211296   6.156   0.524   2.445  0.7479  0.6746  2.0530
 3778TIP3   OH211297   1.440   5.252   5.024  0.0324 -0.3084 -0.0741
 3778TIP3    H111298   1.496   5.188   4.981  1.7781  0.3256  1.1323
 3778TIP3    H211299   1.428   5.218   5.113  2.5138  1.7776  1.2075
 3779TIP3   OH211300   6.294   3.003   2.872  0.3249  0.1126 -0.1090
 3779TIP3    H111301   6.388   2.996   2.891  0.4490  1.2171 -0.2880
 3779TIP3    H211302   6.252   2.998   2.958  0.6127  0.5493  0.0614
 3780TIP3   OH211303   3.936   2.619   3.304  0.2624 -0.6053  0.4914
 3780TIP3    H111304   3.997   2.624   3.378  1.4308 -1.9880 -0.3155
 3780TIP3    H211305   3.989   2.642   3.227 -0.5553 -0.6212 -0.0924
 3781TIP3   OH211306   4.622   3.100   3.932  0.3664  0.7655 -0.4073
 3781TIP3    H111307   4.570   3.170   3.971 -1.3651 -1.0717  0.7658
 3781TIP3    H211308   4.677   3.068   4.003 -1.0215 -0.9778 -0.0560
 3782TIP3   OH211309   0.067   1.728   4.199 -0.1938  0.3495 -0.4591
 3782TIP3    H111310   0.009   1.664   4.157 -2.3326  0.2157  2.4481
 3782TIP3    H211311   0.018   1.810   4.198  0.4082  0.7350  0.2729
 3783TIP3   OH211312   2.412   4.938   4.900 -0.1796 -0.2699 -0.5731
 3783TIP3    H111313   2.401   4.903   4.812 -1.4168  1.6558 -1.2390
 3783TIP3    H211314   2.326   4.974   4.922 -0.2759 -1.7499  1.9345
 3784TIP3   OH211315   0.153   2.518   5.807  0.1570 -0.2826  0.1582
 3784TIP3    H111316   0.169   2.438   5.858  0.9059 -1.6054 -2.0195
 3784TIP3    H211317   0.083   2.563   5.855 -0.3402 -2.2762  1.4340
 3785TIP3   OH211318   6.519   0.033   0.926 -0.2101 -0.4606  0.1131
 3785TIP3    H111319   6.485   0.027   0.837  1.0601 -0.4315 -0.4026
 3785TIP3    H211320   6.550  -0.055   0.946  1.1368 -0.0906 -0.1938
 3786TIP3   OH211321   1.853   6.252   2.198 -0.0141 -0.1326 -0.2389
 3786TIP3    H111322   1.792   6.324   2.216 -1.2167 -0.3142 -3.0319
 3786TIP3    H211323   1.796   6.177   2.180  1.1538 -1.0861 -0.0735
 3787TIP3   OH211324   0.251   4.812   1.539  0.1503 -0.4015  0.5432
 3787TIP3    H111325   0.248   4.905   1.560  1.5714  0.2467 -1.7289
 3787TIP3    H211326   0.191   4.771   1.601 -1.7590  2.2130  0.5912
 3788TIP3   OH211327   2.044   4.936   3.304  0.6228  0.4415 -0.3694
 3788TIP3    H111328   2.073   4.847   3.323  0.7972 -0.0401 -2.5411
 3788TIP3    H211329   2.110   4.993   3.342  1.0561 -0.4008  0.1545
 3789TIP3   OH211330   5.166   2.830   2.665 -0.4747 -0.3487  0.2698
 3789TIP3    H111331   5.226   2.886   2.713 -0.8883  0.1410  0.2376
 3789TIP3    H211332   5.146   2.880   2.585 -2.3909  0.3873  1.1516
 3790TIP3   OH211333   6.891   3.597   5.128 -0.0470 -0.5013  0.5273
 3790TIP3    H111334   6.797   3.600   5.109  0.2747  0.0662 -1.1411
 3790TIP3    H211335   6.918   3.510   5.098  0.3506  0.1751 -1.2037
 3791TIP3   OH211336   1.190   1.015   2.712  0.4666 -0.6050 -0.3234
 3791TIP3    H111337   1.269   1.044   2.758  0.4616  0.4019 -0.9171
 3791TIP3    H211338   1.203   0.921   2.699  1.0363 -0.6652  0.6145
 3792TIP3   OH211339   3.645   3.322   2.568  1.0204 -0.0310  0.0014
 3792TIP3    H111340   3.705   3.363   2.629  0.4461 -2.2911  2.2418
 3792TIP3    H211341   3.700   3.267   2.513  1.2910  0.2351  0.0059
 3793TIP3   OH211342   5.300   0.549   5.612 -0.1203 -0.0981  0.1042
 3793TIP3    H111343   5.337   0.465   5.641  0.2349  0.1413  0.3599
 3793TIP3    H211344   5.318   0.609   5.685 -2.3248 -0.3157  0.8975
 3794TIP3   OH211345   3.219   0.597   3.833  0.7224  0.3328  0.2772
 3794TIP3    H111346   3.179   0.529   3.778  1.1298  0.5905 -0.3441
 3794TIP3    H211347   3.258   0.658   3.771  0.9463  0.7787  0.8528
 3795TIP3   OH211348   5.338   1.815   5.086  0.6798  0.5697  0.4671
 3795TIP3    H111349   5.394   1.765   5.027  0.6599  0.0035  0.9184
 3795TIP3    H211350   5.380   1.807   5.172 -0.0392  0.2117  0.7949
 3796TIP3   OH211351   3.469   2.821   0.193 -0.7214  0.0573 -0.1910
 3796TIP3    H111352   3.475   2.768   0.273 -2.4092 -0.8483 -0.6159
 3796TIP3    H211353   3.381   2.859   0.196 -0.3129  1.0995 -0.9617
 3797TIP3   OH211354   3.511   1.074   3.051 -0.1496  0.4275 -0.0375
 3797TIP3    H111355   3.427   1.118   3.035 -1.0122 -0.7328  1.0419
 3797TIP3    H211356   3.486   0.984   3.075  1.2686  0.5927  2.3133
 3798TIP3   OH211357   6.232   2.114   4.319  0.2495 -0.1234 -0.1452
 3798TIP3    H111358   6.150   2.158   4.345  1.2524  1.4215  0.5734
 3798TIP3    H211359   6.267   2.169   4.249  1.2831 -0.0241  0.4241
 3799TIP3   OH211360   0.597   3.087   5.706 -0.1172  0.2058  0.2481
 3799TIP3    H111361   0.691   3.076   5.721  0.1835  1.4878 -0.4642
 3799TIP3    H211362   0.557   3.066   5.790  0.7041 -1.3273  0.2933
 3800TIP3   OH211363   5.297   1.939   3.888 -0.3447  0.1162 -0.6502
 3800TIP3    H111364   5.274   1.877   3.958  0.0536  1.0991  0.3787
 3800TIP3    H211365   5.380   1.906   3.853 -0.6909 -0.5429 -0.8627
 3801TIP3   OH211366   4.718   2.076   3.922  0.3045  0.1304  0.2183
 3801TIP3    H111367   4.714   2.036   4.009  1.6402 -0.3573  0.0802
 3801TIP3    H211368   4.677   2.162   3.933 -1.0423 -0.5642  0.9291
 3802TIP3   OH211369   5.961   4.123   4.238  0.4821  0.3764  0.3915
 3802TIP3    H111370   5.911   4.204   4.247  1.6020  1.0013  1.3695
 3802TIP3    H211371   6.035   4.134   4.297  2.1990 -0.1795 -1.5055
 3803TIP3   OH211372   0.018   1.180   0.736  0.3123 -0.0664 -0.2405
 3803TIP3    H111373   0.065   1.254   0.699  0.7851 -1.0813 -1.7521
 3803TIP3    H211374  -0.053   1.163   0.674  0.5483 -1.2241 -0.2061
 3804TIP3   OH211375   3.633   2.186   1.100  0.2177 -0.0992  0.0365
 3804TIP3    H111376   3.612   2.253   1.036 -0.1421  0.0440  0.2974
 3804TIP3    H211377   3.697   2.226   1.158  0.0094  0.0163  0.1871
 3805TIP3   OH211378   2.445   4.130   4.580 -0.3696 -0.0335  0.1851
 3805TIP3    H111379   2.403   4.051   4.615 -0.8702  0.9997  2.0619
 3805TIP3    H211380   2.537   4.105   4.569 -0.6200 -1.0252  0.2270
 3806TIP3   OH211381   6.165   3.890   3.995  0.0836 -0.2350  0.3472
 3806TIP3    H111382   6.185   3.813   3.942 -0.2245 -0.5956  0.7449
 3806TIP3    H211383   6.072   3.882   4.014  0.0567  0.2185  0.4291
 3807TIP3   OH211384   4.582   0.489   2.028 -0.0815  0.1970 -0.2526
 3807TIP3    H111385   4.603   0.549   2.100 -2.1066 -0.8137  1.2953
 3807TIP3    H211386   4.585   0.543   1.950  0.2962  1.7994  0.8208
 3808TIP3   OH211387   0.797   6.539   2.017 -0.1838 -0.2536 -0.3771
 3808TIP3    H111388   0.802   6.554   2.111  1.0082 -0.3849 -0.4141
 3808TIP3    H211389   0.749   6.615   1.983  0.6342  0.5174  0.1628
 3809TIP3   OH211390   3.674   5.931   5.401 -0.0763  0.7169  0.1847
 3809TIP3    H111391   3.581   5.912   5.391  0.3945 -0.8289 -2.1593
 3809TIP3    H211392   3.718   5.847   5.389  1.7457  1.8658 -2.2512
 3810TIP3   OH211393   3.842   2.558   0.587  0.2310  0.4973 -0.4388
 3810TIP3    H111394   3.821   2.617   0.513 -0.4797 -1.1518 -1.6096
 3810TIP3    H211395   3.776   2.580   0.653  0.3776  1.4477 -0.5814
 3811TIP3   OH211396   2.100   0.473   3.192 -0.3107 -0.5428  0.1702
 3811TIP3    H111397   2.160   0.406   3.224  0.1607  0.0811  0.6170
 3811TIP3    H211398   2.063   0.436   3.112  1.4752 -0.5231 -0.7103
 3812TIP3   OH211399   1.242   4.159   5.066  0.0497  0.1141 -0.4099
 3812TIP3    H111400   1.169   4.143   5.006 -0.0416 -2.0366  0.1699
 3812TIP3    H211401   1.320   4.162   5.010 -0.2146 -0.1726 -0.7952
 3813TIP3   OH211402   7.065   5.980   5.398 -0.3798 -0.1300 -0.3129
 3813TIP3    H111403   6.989   5.924   5.415  0.3215 -1.3260 -0.9213
 3813TIP3    H211404   7.106   5.942   5.320  3.0647 -2.0804  2.1400
 3814TIP3   OH211405   6.717   4.432   0.698 -0.2570 -0.1519 -0.2356
 3814TIP3    H111406   6.736   4.520   0.731 -3.3765  0.4232  0.2971
 3814TIP3    H211407   6.756   4.374   0.764  1.2361  0.7958 -0.2255
 3815TIP3   OH211408   1.255   2.314   3.071 -0.4798  0.0742  0.0602
 3815TIP3    H111409   1.170   2.346   3.103 -1.2938 -0.8232 -1.0929
 3815TIP3    H211410   1.275   2.370   2.997 -0.9112 -0.7454 -0.7000
 3816TIP3   OH211411   5.775   3.965   5.570  0.6444 -0.0988  0.0317
 3816TIP3    H111412   5.769   3.984   5.477  0.4404 -1.0621 -0.1642
 3816TIP3    H211413   5.704   3.903   5.587 -0.5490  1.4883  1.2321
 3817TIP3   OH211414   2.735   6.291   1.726  0.0408 -0.1493  0.5372
 3817TIP3    H111415   2.679   6.248   1.661  0.3944 -0.6754  0.5691
 3817TIP3    H211416   2.819   6.246   1.717 -0.3865 -1.4677  2.5652
 3818TIP3   OH211417   5.016   6.043   1.374  0.5152 -0.1446  0.5622
 3818TIP3    H111418   4.984   6.018   1.461 -0.3067 -0.2633  0.2286
 3818TIP3    H211419   5.030   6.138   1.380 -3.7149  0.7246 -0.4075
 3819TIP3   OH211420   1.756   5.172   3.615  0.2283 -0.6749  0.2233
 3819TIP3    H111421   1.826   5.236   3.628 -0.3012 -0.1851  0.7247
 3819TIP3    H211422   1.704   5.207   3.543  0.3706 -0.9183  0.0041
 3820TIP3   OH211423   4.031   5.384   2.514  0.0470  0.0078  0.2101
 3820TIP3    H111424   3.940   5.413   2.516  0.0082 -0.1344  1.0756
 3820TIP3    H211425   4.049   5.358   2.604  1.3216  1.1897  0.3175
 3821TIP3   OH211426   6.988   6.520   2.209 -0.0998  0.6214 -1.3568
 3821TIP3    H111427   7.039   6.442   2.186 -1.4555 -0.2479 -1.5007
 3821TIP3    H211428   7.013   6.585   2.144 -1.5304 -0.8098 -3.4676
 3822TIP3   OH211429   6.090   1.536   1.700 -0.4311 -0.4657 -0.1291
 3822TIP3    H111430   6.084   1.488   1.617 -1.4140 -1.9814  0.7785
 3822TIP3    H211431   6.183   1.539   1.719 -0.2880 -1.3164 -0.6211
 3823TIP3   OH211432   2.687   0.854   0.104 -0.3715  0.8162 -0.3168
 3823TIP3    H111433   2.630   0.922   0.137 -0.8613  0.7507 -1.0094
 3823TIP3    H211434   2.662   0.775   0.153 -0.7889  0.8167 -0.5244
 3824TIP3   OH211435   6.822   2.204   0.092 -0.7597 -0.0508  0.0351
 3824TIP3    H111436   6.762   2.134   0.118 -0.5594  0.6840  2.8233
 3824TIP3    H211437   6.894   2.198   0.155  1.2214  0.2429 -2.1025
 3825TIP3   OH211438   6.375   5.658   4.575  0.6162  0.0808 -0.4721
 3825TIP3    H111439   6.469   5.643   4.577  1.0647  2.5920  0.4996
 3825TIP3    H211440   6.365   5.753   4.567 -1.7739  0.1362  1.7055
 3826TIP3   OH211441   5.560   0.736   3.926 -0.4241  0.2270  0.0016
 3826TIP3    H111442   5.479   0.728   3.977  0.8486  0.8895  2.2635
 3826TIP3    H211443   5.541   0.802   3.860 -1.7113  0.4034  0.5233
 3827TIP3   OH211444   0.992   6.147   1.891  0.3034  0.4095 -0.0851
 3827TIP3    H111445   1.059   6.128   1.957  0.7595  1.0559 -0.3538
 3827TIP3    H211446   0.909   6.126   1.935  0.7089 -1.0646  0.0149
 3828TIP3   OH211447   0.886   4.118   3.819 -0.0341  0.4227 -0.0804
 3828TIP3    H111448   0.979   4.100   3.814 -0.0181 -0.0009  1.2535
 3828TIP3    H211449   0.862   4.150   3.732  1.2927  0.2910 -0.5066
 3829TIP3   OH211450   5.348   1.933   5.830 -0.2673  0.7565  0.0220
 3829TIP3    H111451   5.344   1.962   5.738 -0.5612  0.3150 -0.1033
 3829TIP3    H211452   5.438   1.902   5.840 -0.2217  0.8423 -0.1045
 3830TIP3   OH211453   3.421   3.456   3.526 -0.4613  0.3037  0.3676
 3830TIP3    H111454   3.361   3.490   3.460  0.0746  1.1401  0.2987
 3830TIP3    H211455   3.387   3.490   3.609 -1.2887 -0.9644  0.5752
 3831TIP3   OH211456   6.404   3.495   2.036  0.3940  0.5518 -0.2080
 3831TIP3    H111457   6.498   3.495   2.050  0.2672  0.5830  0.7488
 3831TIP3    H211458   6.376   3.585   2.056  0.1707  0.5727 -0.5903
 3832TIP3   OH211459   4.150   0.169   1.370 -0.0658  0.2680 -0.2098
 3832TIP3    H111460   4.144   0.123   1.453  2.1586  0.3075  0.0395
 3832TIP3    H211461   4.170   0.260   1.394  2.7664 -0.1202 -0.7002
 3833TIP3   OH211462   4.487   1.932   5.223  0.0474 -0.0950  0.7860
 3833TIP3    H111463   4.538   1.859   5.258 -0.4739 -0.4241  0.8689
 3833TIP3    H211464   4.436   1.964   5.298 -1.3263 -1.0162  0.2892
 3834TIP3   OH211465   0.926   1.473   2.785  0.8553  0.2085  0.1067
 3834TIP3    H111466   0.973   1.393   2.807  1.6647  1.1825  2.2673
 3834TIP3    H211467   0.937   1.483   2.691  3.4585 -0.5886  0.2576
 3835TIP3   OH211468   4.396   5.649   4.033  0.0483 -0.0183  0.0786
 3835TIP3    H111469   4.468   5.631   3.972 -0.5526 -0.1410 -0.6031
 3835TIP3    H211470   4.439   5.682   4.111  0.7803  0.9822 -0.7275
 3836TIP3   OH211471   5.129   2.074   3.456  0.0429 -0.0416  0.3085
 3836TIP3    H111472   5.074   2.065   3.378  0.9971 -1.1988 -0.2529
 3836TIP3    H211473   5.198   2.135   3.429  0.9448 -1.2053 -0.1178
 3837TIP3   OH211474   6.106   4.567   4.830 -0.0811 -0.2555  0.4583
 3837TIP3    H111475   6.020   4.609   4.825 -0.0992 -0.4081 -0.7093
 3837TIP3    H211476   6.108   4.526   4.917 -0.2428  1.7363  1.4372
 3838TIP3   OH211477   4.597   3.813   3.085 -0.6696 -0.0200  0.3896
 3838TIP3    H111478   4.644   3.878   3.033  0.0141 -0.8880 -0.1237
 3838TIP3    H211479   4.555   3.757   3.019 -1.7926  0.2866  0.8327
 3839TIP3   OH211480   1.945   4.533   1.149 -0.8147 -0.0592 -0.1312
 3839TIP3    H111481   1.919   4.623   1.168 -1.5086 -0.3426  0.2827
 3839TIP3    H211482   1.863   4.483   1.152 -0.6935 -0.4361 -2.0070
 3840TIP3   OH211483   0.640   6.658   3.419  0.1773 -0.0059 -0.1833
 3840TIP3    H111484   0.707   6.591   3.416  0.7025  0.5186 -0.6285
 3840TIP3    H211485   0.557   6.611   3.406  0.2641 -0.8676  2.0140
 3841TIP3   OH211486   5.538   5.064   2.154  0.4233 -0.7422  0.2383
 3841TIP3    H111487   5.517   4.995   2.217 -0.4780 -0.7048 -0.0034
 3841TIP3    H211488   5.621   5.037   2.116  0.2299 -1.5383  0.3618
 3842TIP3   OH211489   6.312   4.347   1.289  0.5714  0.4379 -0.7461
 3842TIP3    H111490   6.406   4.330   1.281  0.3299 -0.1859 -3.0633
 3842TIP3    H211491   6.285   4.294   1.363  2.0461  0.6949  0.0191
 3843TIP3   OH211492   4.945   4.344   3.727  0.2791  0.0915  0.1844
 3843TIP3    H111493   5.008   4.369   3.659 -0.4021  0.9091 -0.1736
 3843TIP3    H211494   4.978   4.387   3.807  0.8838 -0.5721  0.2966
 3844TIP3   OH211495   3.270   4.380   1.077  0.4499 -0.3274  0.1309
 3844TIP3    H111496   3.323   4.311   1.037 -0.1522 -1.0158  0.5098
 3844TIP3    H211497   3.296   4.381   1.169 -0.5103 -0.9952  0.4266
 3845TIP3   OH211498   3.213   4.664   2.569 -0.0350  0.4554 -0.2444
 3845TIP3    H111499   3.119   4.673   2.582 -0.3813 -0.3781 -1.8829
 3845TIP3    H211500   3.250   4.746   2.601 -1.4895  1.4427 -0.9939
 3846TIP3   OH211501   2.535   3.779   3.811  0.2769  0.0725 -0.3084
 3846TIP3    H111502   2.491   3.769   3.726  0.0913 -0.8790 -0.1095
 3846TIP3    H211503   2.468   3.759   3.875  0.8758 -0.9875  0.0112
 3847TIP3   OH211504   6.389   6.113   2.569 -0.4534  0.3559  0.7816
 3847TIP3    H111505   6.483   6.118   2.554 -0.6764 -1.0673 -1.5992
 3847TIP3    H211506   6.351   6.173   2.505 -1.3002 -3.0973 -2.2908
 3848TIP3   OH211507   2.121   4.400   4.246 -1.0303 -0.7563  0.6100
 3848TIP3    H111508   2.181   4.462   4.204 -1.7262 -0.0871  0.5876
 3848TIP3    H211509   2.165   4.376   4.328 -1.2929  0.7147  1.2093
 3849TIP3   OH211510   4.753   1.253   3.036  0.5407 -0.3820 -0.4555
 3849TIP3    H111511   4.775   1.290   3.122  0.2711 -0.4822 -0.3423
 3849TIP3    H211512   4.658   1.254   3.033  0.4902 -1.7958 -0.1313
 3850TIP3   OH211513   6.902   5.471   3.962  0.6067  0.4298  0.7051
 3850TIP3    H111514   6.847   5.452   4.039 -2.6336 -0.7449 -1.6767
 3850TIP3    H211515   6.860   5.545   3.919  0.2667 -1.0233 -1.6619
 3851TIP3   OH211516   6.318   4.447   4.651  0.4010  0.1668  0.2449
 3851TIP3    H111517   6.295   4.402   4.732  1.4810 -0.1002  0.4105
 3851TIP3    H211518   6.269   4.530   4.655  0.6931  0.3040  1.3211
 3852TIP3   OH211519   1.497   4.072   5.395  0.2792 -0.4405 -0.0524
 3852TIP3    H111520   1.500   4.036   5.307 -1.3520 -1.5382  0.3100
 3852TIP3    H211521   1.532   4.003   5.451  0.6146 -0.0323  0.2530
 3853TIP3   OH211522   0.973   0.865   4.964 -0.0337 -0.3526 -0.4110
 3853TIP3    H111523   1.047   0.805   4.952  0.2254  0.1831 -1.6256
 3853TIP3    H211524   0.985   0.932   4.897 -0.4153  0.9897  0.8164
 3854TIP3   OH211525   0.636   0.043   4.105 -0.1534  0.1258  0.3644
 3854TIP3    H111526   0.631   0.106   4.033 -3.2065  0.0342  0.3658
 3854TIP3    H211527   0.704  -0.018   4.078 -0.8359  0.3807 -2.2436
 3855TIP3   OH211528   4.984   4.739   3.624 -0.6690  0.2689  0.2051
 3855TIP3    H111529   4.943   4.738   3.537  0.4491  0.6938 -0.3496
 3855TIP3    H211530   4.958   4.824   3.661 -0.6700  0.3384  0.0480
 3856TIP3   OH211531   0.923   4.159   3.532 -0.3219 -0.3354 -0.0156
 3856TIP3    H111532   0.979   4.187   3.459 -0.3057 -1.4751 -0.4652
 3856TIP3    H211533   0.845   4.124   3.489  0.7555 -3.4420  0.3225
 3857TIP3   OH211534   6.987   1.272   2.991 -0.0061 -0.5857  0.4982
 3857TIP3    H111535   7.063   1.217   2.975  0.1701  0.0576 -0.9871
 3857TIP3    H211536   7.009   1.319   3.072  0.3725 -1.7430  1.0846
 3858TIP3   OH211537   6.330   2.313   0.076  0.0198  0.3397 -0.0632
 3858TIP3    H111538   6.314   2.291   0.168  0.2050  0.6705  0.0523
 3858TIP3    H211539   6.405   2.374   0.080 -1.1704  1.8771 -0.2802
 3859TIP3   OH211540   6.353   0.123   2.718 -0.0533  0.2468 -0.1250
 3859TIP3    H111541   6.406   0.197   2.690  0.9682 -0.3260  0.2225
 3859TIP3    H211542   6.300   0.157   2.790 -2.8455  1.7888 -2.6751
 3860TIP3   OH211543   0.499   3.587   4.365  0.8185  0.2646  0.6065
 3860TIP3    H111544   0.583   3.633   4.360  1.6249 -1.1964  0.3368
 3860TIP3    H211545   0.468   3.605   4.454 -0.2577  3.5626 -0.2828
 3861TIP3   OH211546   5.894   0.743   4.771 -0.4857 -0.5991 -0.2058
 3861TIP3    H111547   5.885   0.815   4.708 -1.1546  0.1335  0.7015
 3861TIP3    H211548   5.867   0.665   4.722  0.7287 -0.3378 -1.3566
 3862TIP3   OH211549   7.028   6.686   3.994 -0.0020  0.0656 -0.2056
 3862TIP3    H111550   6.991   6.605   3.960 -1.1482  1.0795 -1.4721
 3862TIP3    H211551   7.114   6.661   4.027 -0.4211 -1.6953 -0.3784
 3863TIP3   OH211552   7.096   5.278   3.999 -0.4868 -0.1684 -0.5209
 3863TIP3    H111553   7.149   5.303   3.923  0.1813  0.2033  0.0560
 3863TIP3    H211554   7.024   5.341   4.000 -0.1311  0.2389 -0.4675
 3864TIP3   OH211555   4.793   4.655   0.214  0.1317 -0.2243  0.0218
 3864TIP3    H111556   4.758   4.692   0.295  0.3704 -0.7222  0.3622
 3864TIP3    H211557   4.847   4.581   0.243  0.3045 -0.3449 -0.5860
 3865TIP3   OH211558   6.242   3.945   0.197  0.1318 -0.0401 -0.9496
 3865TIP3    H111559   6.313   3.964   0.259  2.0739  0.7801 -3.2866
 3865TIP3    H211560   6.246   3.851   0.184 -0.4006 -0.2453  0.2395
 3866TIP3   OH211561   3.349   0.889   3.850 -0.4698 -0.2010 -0.2438
 3866TIP3    H111562   3.441   0.916   3.848 -0.4735 -0.2058 -1.3082
 3866TIP3    H211563   3.342   0.826   3.778 -0.9352 -1.4620  0.8683
 3867TIP3   OH211564   7.027   2.198   0.280  0.8831  0.1216 -0.6598
 3867TIP3    H111565   7.027   2.250   0.360 -0.5054 -1.7081  0.6022
 3867TIP3    H211566   7.116   2.163   0.274  0.5807 -1.0447  1.0380
 3868TIP3   OH211567   1.020   5.597   0.811 -0.0574  0.0268 -0.0578
 3868TIP3    H111568   1.090   5.625   0.869  0.7197 -0.3530 -0.7996
 3868TIP3    H211569   0.994   5.676   0.763  0.9455 -0.1352 -0.9023
 3869TIP3   OH211570   4.408   1.148   2.490 -0.0361 -0.6181 -0.4636
 3869TIP3    H111571   4.430   1.137   2.583  0.7206 -2.9673 -0.8598
 3869TIP3    H211572   4.313   1.132   2.486 -0.1994  0.1585 -0.0419
 3870TIP3   OH211573   6.649   1.855   2.766  0.2671 -0.4087  0.4108
 3870TIP3    H111574   6.569   1.847   2.818 -0.6939  1.6804 -0.6141
 3870TIP3    H211575   6.718   1.817   2.821 -1.4331 -2.5686  1.1898
 3871TIP3   OH211576   2.742   5.453   1.127  0.5000 -0.1778  0.5627
 3871TIP3    H111577   2.730   5.389   1.057 -1.2057  0.9146 -0.2021
 3871TIP3    H211578   2.780   5.529   1.084  2.3262 -0.5423  1.4290
 3872TIP3   OH211579   4.110   5.312   3.752  0.1704 -0.0853  0.4827
 3872TIP3    H111580   4.128   5.252   3.680  1.6618 -0.5701  1.2227
 3872TIP3    H211581   4.061   5.384   3.711  2.8192  0.7605 -1.5308
 3873TIP3   OH211582   6.713   5.177   4.949  0.9163 -0.2014  0.0921
 3873TIP3    H111583   6.724   5.219   4.863 -2.1418 -0.1687 -0.4123
 3873TIP3    H211584   6.719   5.083   4.930 -1.3616 -0.2757 -0.5594
 3874TIP3   OH211585   3.677   0.167   4.208 -0.5007  0.1689  0.4260
 3874TIP3    H111586   3.665   0.256   4.241 -1.2050  0.0412  0.5351
 3874TIP3    H211587   3.768   0.164   4.179 -0.2726  0.7192  1.0511
 3875TIP3   OH211588   5.583   3.959   0.879  0.0791  0.2156  0.1378
 3875TIP3    H111589   5.589   3.943   0.785  5.0119 -1.4591  0.4602
 3875TIP3    H211590   5.604   4.052   0.889  1.7926 -0.0767 -0.4113
 3876TIP3   OH211591   0.739   5.879   5.651 -0.1722 -0.3089  0.3054
 3876TIP3    H111592   0.739   5.975   5.651 -0.5242 -0.2666  2.6414
 3876TIP3    H211593   0.651   5.856   5.621 -0.0856  0.0909 -0.2748
 3877TIP3   OH211594   1.529   1.379   0.321 -0.1602  0.3620  0.4071
 3877TIP3    H111595   1.590   1.421   0.382 -0.7060  1.4895  0.1968
 3877TIP3    H211596   1.445   1.380   0.366 -0.4027  0.4841 -0.0363
 3878TIP3   OH211597   3.184   5.081   0.588  0.5782  0.5473 -0.0585
 3878TIP3    H111598   3.192   5.172   0.618 -1.2374  0.4232  0.9798
 3878TIP3    H211599   3.274   5.051   0.577  1.2409  2.0720  0.8359
 3879TIP3   OH211600   4.321   6.078   3.507 -0.2785  0.6181  0.0772
 3879TIP3    H111601   4.332   6.150   3.445  0.6229 -1.0022 -1.7487
 3879TIP3    H211602   4.409   6.056   3.535 -0.4437 -0.4214 -0.1808
 3880TIP3   OH211603   1.375   1.406   1.022  0.2088  0.0167  0.1598
 3880TIP3    H111604   1.398   1.318   0.994  1.5714  0.3332  0.1939
 3880TIP3    H211605   1.427   1.463   0.966 -0.2501  0.7826  0.4993
 3881TIP3   OH211606   3.340   5.710   1.623  0.2598 -0.1159 -0.4761
 3881TIP3    H111607   3.359   5.748   1.709  1.3321  1.3080 -1.3073
 3881TIP3    H211608   3.245   5.720   1.613  0.3044  0.9094 -0.0060
 3882TIP3   OH211609   6.053   3.467   3.616  0.2755 -0.5434 -0.1980
 3882TIP3    H111610   6.078   3.394   3.671 -1.4167 -1.0681 -0.0585
 3882TIP3    H211611   6.001   3.524   3.673 -1.3115 -0.9843 -1.1320
 3883TIP3   OH211612   1.302   5.511   4.575 -0.1690 -0.3513  0.0341
 3883TIP3    H111613   1.337   5.539   4.659  0.8672 -1.4932  0.0080
 3883TIP3    H211614   1.312   5.416   4.575 -1.4859 -0.5185 -0.8019
 3884TIP3   OH211615   4.550   2.636   5.410 -0.0957  0.3589 -0.5311
 3884TIP3    H111616   4.507   2.672   5.333 -1.1624  0.6646  0.1845
 3884TIP3    H211617   4.631   2.597   5.377 -0.7080  0.1650 -1.8573
 3885TIP3   OH211618   2.198   6.098   5.194  0.0336 -0.0503  0.5455
 3885TIP3    H111619   2.159   6.172   5.146  0.1397  0.4339  1.1860
 3885TIP3    H211620   2.282   6.084   5.151  0.0988  0.3352  0.5371
 3886TIP3   OH211621   3.531   2.388   0.908  0.4679  0.4296 -0.3354
 3886TIP3    H111622   3.472   2.354   0.840  1.9807 -2.0774 -0.5168
 3886TIP3    H211623   3.609   2.415   0.860 -0.0635  2.7891  0.0180
 3887TIP3   OH211624   2.034   5.978   0.409 -0.7122  0.7170 -0.1266
 3887TIP3    H111625   2.114   5.946   0.450 -1.3417 -0.2356  0.3968
 3887TIP3    H211626   1.965   5.955   0.471 -1.4980  0.7189 -0.9876
 3888TIP3   OH211627   3.296   3.436   4.213  0.3603 -0.2763  0.1595
 3888TIP3    H111628   3.310   3.392   4.129  3.0732 -1.1215  0.9591
 3888TIP3    H211629   3.327   3.373   4.279  0.0179  1.0737  1.6704
 3889TIP3   OH211630   0.637   6.207   1.211  0.1872  0.0776 -0.3974
 3889TIP3    H111631   0.690   6.196   1.133 -2.2629  0.8626 -2.2991
 3889TIP3    H211632   0.559   6.253   1.181 -1.9799 -1.6994  2.0107
 3890TIP3   OH211633   6.055   2.548   4.783  0.6201 -0.5546 -0.1000
 3890TIP3    H111634   6.052   2.576   4.875 -0.1752 -0.0224 -0.2766
 3890TIP3    H211635   6.059   2.630   4.734  1.8606 -0.8512 -0.5254
 3891TIP3   OH211636   5.258   0.045   0.717 -0.4358 -0.8583 -0.2494
 3891TIP3    H111637   5.284   0.136   0.732  2.1696 -1.7013  1.0302
 3891TIP3    H211638   5.246   0.039   0.622 -0.7600  0.8100 -0.3537
 3892TIP3   OH211639   5.784   6.311   0.998 -0.3054  0.1215  0.5933
 3892TIP3    H111640   5.790   6.290   1.091 -1.4663  1.2098  0.9487
 3892TIP3    H211641   5.813   6.401   0.992  0.1733 -0.0783 -0.1748
 3893TIP3   OH211642   4.496   1.957   0.519 -0.1484 -0.4660 -0.3714
 3893TIP3    H111643   4.432   1.895   0.482 -0.0733 -0.6364 -0.2193
 3893TIP3    H211644   4.493   2.032   0.460 -1.7659  0.2746  0.5697
 3894TIP3   OH211645   3.831   0.101   5.687  0.1187 -0.6306 -0.6077
 3894TIP3    H111646   3.771   0.108   5.612 -1.5073  1.2501  0.7355
 3894TIP3    H211647   3.917   0.122   5.651 -0.6592  0.4838 -1.9522
 3895TIP3   OH211648   2.790   1.039   0.541  0.6471 -0.1968  0.1828
 3895TIP3    H111649   2.751   0.995   0.616 -1.8462  1.7679  0.1632
 3895TIP3    H211650   2.824   0.968   0.486  2.1593 -1.7068  2.8547
 3896TIP3   OH211651   1.013   6.160   0.522  0.0668 -0.0431  0.3813
 3896TIP3    H111652   0.933   6.192   0.564 -0.7331  0.8392 -1.6784
 3896TIP3    H211653   0.986   6.137   0.433  1.2846 -3.5865  0.7685
 3897TIP3   OH211654   4.313   4.367   4.715 -0.5338  0.9750  0.3564
 3897TIP3    H111655   4.398   4.393   4.750  0.0627 -0.0764 -0.2685
 3897TIP3    H211656   4.309   4.406   4.628 -0.1356 -0.0009 -0.1154
 3898TIP3   OH211657   4.901   2.570   4.814 -0.1206 -0.6757  0.8757
 3898TIP3    H111658   4.948   2.578   4.897 -0.1319  1.8010  0.7336
 3898TIP3    H211659   4.811   2.599   4.834 -0.7099 -2.1214  0.4347
 3899TIP3   OH211660   5.182   6.759   0.829 -0.2077  0.7069 -0.8039
 3899TIP3    H111661   5.165   6.665   0.838 -1.1958  0.8140 -1.4415
 3899TIP3    H211662   5.106   6.793   0.782  1.0821  1.4863 -2.4208
 3900TIP3   OH211663   1.105   1.196   1.083  0.3899 -0.0069  0.0304
 3900TIP3    H111664   1.108   1.291   1.071  1.9771 -0.0179  0.1514
 3900TIP3    H211665   1.196   1.168   1.075  0.0978 -1.3780  1.1481
 3901TIP3   OH211666   5.416   5.676   5.078 -0.0159 -0.3591  0.1055
 3901TIP3    H111667   5.410   5.653   5.171  0.0414  0.1290  0.2322
 3901TIP3    H211668   5.423   5.592   5.033 -1.8340 -0.7125  0.4065
 3902TIP3   OH211669   1.026   6.504   2.447 -0.0125 -0.2611 -0.0687
 3902TIP3    H111670   1.118   6.517   2.424 -0.2461 -0.3991 -1.1298
 3902TIP3    H211671   1.005   6.417   2.413 -0.6615 -0.0398 -0.2443
 3903TIP3   OH211672   2.250   4.576   3.984  0.2034 -0.6313 -0.1654
 3903TIP3    H111673   2.197   4.605   3.910 -0.6650  0.4755  0.8407
 3903TIP3    H211674   2.277   4.487   3.961  0.5345 -0.0760 -2.0993
 3904TIP3   OH211675   3.808   6.408   0.525 -0.5405  0.3908 -0.1274
 3904TIP3    H111676   3.900   6.393   0.504  0.0726  0.6558  2.1437
 3904TIP3    H211677   3.769   6.440   0.444  1.3387  0.1718 -1.1499
 3905TIP3   OH211678   5.010   4.121   4.066  0.3254 -0.4841 -0.1951
 3905TIP3    H111679   4.920   4.137   4.039  0.1148 -1.5494 -0.1962
 3905TIP3    H211680   5.003   4.094   4.158  0.8331  1.1205  0.3486
 3906TIP3   OH211681   0.486   2.182   3.801 -0.1352 -0.2897 -0.2004
 3906TIP3    H111682   0.456   2.264   3.840  1.3799  0.2888 -0.1494
 3906TIP3    H211683   0.440   2.114   3.849 -0.9852  0.5132  0.1550
 3907TIP3   OH211684   0.914   0.867   1.683 -0.1198 -0.4107  0.3001
 3907TIP3    H111685   0.974   0.821   1.624  0.3411  0.8546 -0.2460
 3907TIP3    H211686   0.970   0.927   1.732 -0.9714  1.1322 -0.5499
 3908TIP3   OH211687   5.195   3.983   3.134 -0.0560  0.5326 -0.7603
 3908TIP3    H111688   5.287   3.956   3.135  0.3558  1.9095 -0.4114
 3908TIP3    H211689   5.197   4.078   3.146 -1.4841  0.7120 -1.7107
 3909TIP3   OH211690   5.805   0.848   0.152 -0.2847  0.6714 -0.1788
 3909TIP3    H111691   5.852   0.847   0.069  0.8786  1.4793  0.4393
 3909TIP3    H211692   5.718   0.883   0.130 -0.0008  0.8459 -1.0583
 3910TIP3   OH211693   6.392   4.821   0.586 -0.5659  0.4415  0.6775
 3910TIP3    H111694   6.324   4.864   0.534  1.1232  1.2292 -0.9830
 3910TIP3    H211695   6.437   4.763   0.524  0.2561 -0.1049  1.7414
 3911TIP3   OH211696   3.497   5.419   2.863  0.8790  0.2813 -0.1731
 3911TIP3    H111697   3.539   5.368   2.795  0.7121 -1.0925  0.7174
 3911TIP3    H211698   3.418   5.454   2.822  0.5025 -0.9615 -0.5468
 3912TIP3   OH211699   2.864   0.200   5.443 -0.0250  0.6077  0.2595
 3912TIP3    H111700   2.889   0.197   5.351 -0.2744 -2.8205  0.1748
 3912TIP3    H211701   2.784   0.252   5.446  0.5368  1.6103 -1.2598
 3913TIP3   OH211702   5.162   1.100   1.190 -0.1092 -0.2603 -0.3031
 3913TIP3    H111703   5.228   1.163   1.162  0.1149 -0.6332 -0.6214
 3913TIP3    H211704   5.163   1.105   1.286  0.4042 -0.2899 -0.3081
 3914TIP3   OH211705   0.954   3.004   2.811  0.0573  0.4548 -0.2130
 3914TIP3    H111706   0.913   3.022   2.896  0.8516  0.7703  0.1188
 3914TIP3    H211707   0.957   2.909   2.806  0.5811  0.4303  0.4104
 3915TIP3   OH211708   5.789   3.270   5.546 -0.0452  0.5407 -0.1328
 3915TIP3    H111709   5.713   3.237   5.497  0.1383  0.2907 -0.2556
 3915TIP3    H211710   5.763   3.263   5.638  0.0715 -0.1719 -0.1455
 3916TIP3   OH211711   5.716   4.806   0.574 -0.0701  0.8603  0.1136
 3916TIP3    H111712   5.710   4.776   0.483 -0.7884  0.1028  0.3981
 3916TIP3    H211713   5.810   4.811   0.590  0.0662  0.8397 -0.6224
 3917TIP3   OH211714   4.913   1.164   0.277 -0.3359 -0.4984 -0.0555
 3917TIP3    H111715   4.875   1.143   0.362  0.1839  0.8251  0.5267
 3917TIP3    H211716   4.961   1.085   0.251  1.4507 -0.1690  1.9795
 3918TIP3   OH211717   5.747   3.811   1.056 -0.0025 -0.0617  0.3205
 3918TIP3    H111718   5.680   3.836   0.993 -0.1040 -0.9685  0.0599
 3918TIP3    H211719   5.762   3.718   1.041  1.4980  0.1654  0.2040
 3919TIP3   OH211720   3.807   1.252   1.008  0.2428  0.5119  0.0553
 3919TIP3    H111721   3.818   1.335   1.054 -0.9101  0.6512  0.1190
 3919TIP3    H211722   3.802   1.276   0.915  0.5865  0.4335  0.0135
 3920TIP3   OH211723   3.799   4.578   2.632 -0.7616  0.6375 -0.1418
 3920TIP3    H111724   3.762   4.619   2.710 -2.0933 -2.1756  0.8733
 3920TIP3    H211725   3.748   4.612   2.559 -0.1379  2.5850  0.2780
 3921TIP3   OH211726   6.590   4.548   4.353 -0.0468 -0.7757 -0.2838
 3921TIP3    H111727   6.660   4.520   4.294  0.0236 -0.6240 -0.2732
 3921TIP3    H211728   6.558   4.467   4.393 -0.3683 -0.9261 -0.8318
 3922TIP3   OH211729   2.075   1.058   3.938  0.0878  0.4415 -0.3001
 3922TIP3    H111730   2.045   0.967   3.936  0.3925  0.3170  0.3972
 3922TIP3    H211731   2.027   1.097   4.011  2.2753 -0.0334  1.5174
 3923TIP3   OH211732   1.930   6.256   5.488 -0.0680  0.6255 -0.0050
 3923TIP3    H111733   1.941   6.161   5.479 -1.6529  0.3138  0.9721
 3923TIP3    H211734   1.876   6.282   5.414  0.3977  0.7822 -0.2937
 3924TIP3   OH211735   5.907   1.366   5.033  0.2641  0.4385  0.5182
 3924TIP3    H111736   5.976   1.319   5.079  0.6279 -0.3438 -0.7578
 3924TIP3    H211737   5.887   1.441   5.088  1.9557  0.5287  1.0499
 3925TIP3   OH211738   1.819   6.647   0.632  0.2202  0.2191 -0.2124
 3925TIP3    H111739   1.789   6.561   0.604  0.1241  0.5019 -1.0259
 3925TIP3    H211740   1.744   6.705   0.616  0.1571  0.3975  0.6640
 3926TIP3   OH211741   6.523   6.805   1.896  0.6874  0.5273  0.2742
 3926TIP3    H111742   6.580   6.728   1.887  0.9555  0.7904 -0.3278
 3926TIP3    H211743   6.473   6.788   1.975 -2.2811 -2.3248 -1.9208
 3927TIP3   OH211744   4.924   3.563   4.977  0.7226  0.5159 -0.2013
 3927TIP3    H111745   4.877   3.485   5.006  0.9597  0.8050  0.9973
 3927TIP3    H211746   5.016   3.544   4.994  0.7433  1.2397  0.5791
 3928TIP3   OH211747   2.567   1.797   4.508  0.1854 -0.4260 -0.4681
 3928TIP3    H111748   2.570   1.879   4.557 -2.0338 -0.4425 -0.2023
 3928TIP3    H211749   2.604   1.732   4.567 -1.2875 -0.2168  0.7358
 3929TIP3   OH211750   5.316   5.550   3.700 -0.3686  0.3595  0.0378
 3929TIP3    H111751   5.391   5.552   3.640 -0.0007 -2.3816  0.2547
 3929TIP3    H211752   5.352   5.573   3.785  0.0209  0.1559 -0.0688
 3930TIP3   OH211753   3.291   4.193   2.601 -0.3818  0.2333 -0.3468
 3930TIP3    H111754   3.284   4.239   2.517 -0.3043  2.6005  0.8614
 3930TIP3    H211755   3.295   4.263   2.666 -0.3784 -1.5338  1.6473
 3931TIP3   OH211756   6.516   1.426   0.164  0.2055  0.6973  0.5238
 3931TIP3    H111757   6.553   1.339   0.154 -1.1776  0.3510 -2.6500
 3931TIP3    H211758   6.549   1.476   0.089 -0.6117  2.3098  1.1755
 3932TIP3   OH211759   0.109   4.805   2.922 -0.3441  0.4019  0.0833
 3932TIP3    H111760   0.151   4.721   2.904  1.1136  1.0108  0.5205
 3932TIP3    H211761   0.070   4.794   3.009 -0.1472  0.1731  0.1448
 3933TIP3   OH211762   3.147   2.971   2.314 -0.1733 -0.0409  0.3629
 3933TIP3    H111763   3.177   2.891   2.271  0.1678 -0.6853  1.7469
 3933TIP3    H211764   3.179   3.041   2.258  0.1211 -0.8395 -0.5077
 3934TIP3   OH211765   4.909   3.679   2.209  0.0890 -0.0745  0.0960
 3934TIP3    H111766   4.821   3.665   2.175  0.8566 -1.9915 -1.2671
 3934TIP3    H211767   4.932   3.596   2.251  0.9656  0.6836  1.1816
 3935TIP3   OH211768   4.184   1.723   3.302  0.1256  0.0497 -0.0096
 3935TIP3    H111769   4.112   1.765   3.349  1.5581  2.4265  0.2886
 3935TIP3    H211770   4.226   1.667   3.367  0.1219  0.7705  0.6408
 3936TIP3   OH211771   0.619   3.928   5.564 -0.2355  0.1474  0.2077
 3936TIP3    H111772   0.689   3.872   5.530 -0.6464 -0.3445  0.1489
 3936TIP3    H211773   0.602   3.895   5.652 -1.9214 -1.2397 -0.5733
 3937TIP3   OH211774   0.999   5.217   2.414 -0.2771 -0.0133 -0.5052
 3937TIP3    H111775   0.906   5.199   2.407 -0.4509  0.4209  0.5337
 3937TIP3    H211776   1.023   5.187   2.502  0.0312  2.0215  0.1631
 3938TIP3   OH211777   2.781   5.295   2.307  0.4572  0.6491 -0.3062
 3938TIP3    H111778   2.746   5.372   2.261 -1.0639 -0.3844 -0.9764
 3938TIP3    H211779   2.780   5.226   2.240  1.7764  0.0351  0.2894
 3939TIP3   OH211780   1.505   2.752   3.489  0.4743  0.0791 -0.2426
 3939TIP3    H111781   1.597   2.757   3.465  0.2834 -0.0936 -1.0237
 3939TIP3    H211782   1.503   2.778   3.581  1.1035  1.5902 -0.6319
 3940TIP3   OH211783   3.098   1.218   1.386  0.1434  0.0791  0.6960
 3940TIP3    H111784   3.141   1.300   1.411 -0.0590  0.3499  0.1842
 3940TIP3    H211785   3.101   1.219   1.290 -4.1792  1.8950  0.3352
 3941TIP3   OH211786   3.138   3.996   1.371  0.0430  0.1895 -0.0685
 3941TIP3    H111787   3.095   4.022   1.453 -0.3213 -1.5944  0.3562
 3941TIP3    H211788   3.146   3.901   1.378 -0.3483 -0.0538 -2.2767
 3942TIP3   OH211789   3.804   1.442   4.811 -0.6785 -0.1539 -0.3934
 3942TIP3    H111790   3.736   1.479   4.754 -1.2754 -0.9606 -0.2352
 3942TIP3    H211791   3.790   1.347   4.805 -0.4744 -0.2691  0.7483
 3943TIP3   OH211792   0.194   2.037   2.930 -0.1393  0.4457  0.1793
 3943TIP3    H111793   0.245   2.082   2.863  1.2654  0.1359  0.9985
 3943TIP3    H211794   0.183   2.103   2.999 -1.4070  0.7016 -0.2327
 3944TIP3   OH211795   6.445   3.376   1.562  1.1267  0.7712 -0.2166
 3944TIP3    H111796   6.452   3.286   1.530  0.5327  0.2890  0.9791
 3944TIP3    H211797   6.514   3.423   1.514 -0.0873  0.2409 -2.6571
 3945TIP3   OH211798   2.937   2.825   2.411  0.6262  0.1169  0.5295
 3945TIP3    H111799   3.001   2.784   2.468  1.0683  1.3149  0.9117
 3945TIP3    H211800   2.974   2.910   2.389 -0.0726  0.1614 -0.6034
 3946TIP3   OH211801   6.757   3.091   1.776  0.5094  0.0954 -0.0843
 3946TIP3    H111802   6.849   3.079   1.754  0.0917 -2.2830 -0.8185
 3946TIP3    H211803   6.720   3.003   1.775 -2.1755  1.1015 -1.6131
 3947TIP3   OH211804   0.766   6.761   1.873 -0.1163 -0.1917 -0.0504
 3947TIP3    H111805   0.752   6.687   1.814  1.8935 -0.7449  0.0904
 3947TIP3    H211806   0.714   6.832   1.836  0.6728 -0.6771 -2.1925
 3948TIP3   OH211807   7.108   4.659   1.930 -0.2190 -0.2334  0.3260
 3948TIP3    H111808   7.045   4.708   1.983 -0.4889 -0.2809  0.0437
 3948TIP3    H211809   7.083   4.676   1.840  1.3300  1.3194  0.1385
 3949TIP3   OH211810   0.272   1.903   3.235  0.1130 -0.1221  0.7194
 3949TIP3    H111811   0.240   1.943   3.155 -0.5610 -3.1119 -0.6713
 3949TIP3    H211812   0.210   1.930   3.303 -2.0581 -1.1226 -0.7542
 3950TIP3   OH211813   1.100   2.729   0.557  0.1506 -0.0367 -0.2029
 3950TIP3    H111814   1.155   2.652   0.569  0.6779  0.3495 -0.1388
 3950TIP3    H211815   1.046   2.733   0.636  0.5937  0.0402  0.0989
 3951TIP3   OH211816   4.240   5.037   5.519 -0.3898 -0.0170  0.3994
 3951TIP3    H111817   4.170   5.079   5.469  0.2294 -0.3704 -0.7980
 3951TIP3    H211818   4.199   5.016   5.603 -1.0552  1.8625  0.6034
 3952TIP3   OH211819   4.448   5.677   2.079 -0.0048 -0.1512 -0.9116
 3952TIP3    H111820   4.373   5.671   2.138 -0.9056 -0.7300 -2.0906
 3952TIP3    H211821   4.426   5.745   2.016 -0.4687 -1.6823 -2.4866
 3953TIP3   OH211822   4.076   5.838   5.011  0.0359 -0.4111  0.2203
 3953TIP3    H111823   4.025   5.860   4.934  1.1924  0.4475 -0.3236
 3953TIP3    H211824   4.012   5.835   5.082 -0.7410  0.8244 -0.3992
 3954TIP3   OH211825   5.592   1.975   1.901 -0.0331 -0.3579 -0.0791
 3954TIP3    H111826   5.517   1.983   1.959 -0.8476 -1.4137 -0.9369
 3954TIP3    H211827   5.611   1.881   1.899  1.9131 -0.0378  0.8399
 3955TIP3   OH211828   1.513   2.184   4.616 -0.2602  0.5216 -0.4223
 3955TIP3    H111829   1.509   2.088   4.610 -1.1944  0.6207 -1.5181
 3955TIP3    H211830   1.606   2.204   4.603 -0.1322 -0.2049 -0.7110
 3956TIP3   OH211831   2.073   2.141   0.071  0.0331  0.0277 -0.0962
 3956TIP3    H111832   2.014   2.195   0.018  0.6889  1.4286  0.5579
 3956TIP3    H211833   2.028   2.131   0.155 -0.7045 -1.6465 -0.6306
 3957TIP3   OH211834   4.036   5.142   5.329 -0.1218  0.3018  0.4589
 3957TIP3    H111835   3.955   5.111   5.370 -0.2184  0.0993  0.1205
 3957TIP3    H211836   4.060   5.072   5.269  0.3203  0.3510  0.5754
 3958TIP3   OH211837   1.947   6.035   3.466 -0.0869 -0.8224 -0.5324
 3958TIP3    H111838   1.958   6.046   3.371  0.6752 -2.7631 -0.7327
 3958TIP3    H211839   1.930   5.941   3.477 -1.1699 -0.4683  1.1937
 3959TIP3   OH211840   1.648   3.557   3.183  0.8816 -0.1907  0.4504
 3959TIP3    H111841   1.555   3.556   3.205  1.1942  0.3062  1.8568
 3959TIP3    H211842   1.656   3.625   3.116  0.0713 -1.0373 -0.5436
 3960TIP3   OH211843   1.777   3.258   0.151 -0.1613 -0.4441 -0.0617
 3960TIP3    H111844   1.699   3.228   0.198 -0.4848  0.7793  0.2172
 3960TIP3    H211845   1.848   3.246   0.214 -0.5529  0.9421  0.7009
 3961TIP3   OH211846   4.395   6.283   3.748 -0.0007 -0.1854 -0.6026
 3961TIP3    H111847   4.456   6.246   3.684  0.2275 -0.3888 -0.2728
 3961TIP3    H211848   4.446   6.290   3.828 -0.5971 -1.0180 -0.1302
 3962TIP3   OH211849   0.613   5.176   4.876  0.8398 -0.1003 -0.8068
 3962TIP3    H111850   0.654   5.209   4.796  1.1610  0.4833 -0.4165
 3962TIP3    H211851   0.651   5.230   4.945  0.8313 -0.8279 -0.2219
 3963TIP3   OH211852   5.655   1.186   3.624  0.0004 -0.2199 -0.0221
 3963TIP3    H111853   5.711   1.254   3.662  0.3354 -0.0960 -0.7128
 3963TIP3    H211854   5.569   1.227   3.616  0.5908  0.7332 -2.0214
 3964TIP3   OH211855   6.846   5.518   3.212 -0.3074 -0.3892  0.7752
 3964TIP3    H111856   6.887   5.592   3.168 -0.7717 -1.4286 -1.5345
 3964TIP3    H211857   6.883   5.520   3.301  3.0217  0.0944 -0.4667
 3965TIP3   OH211858   0.256   0.192   4.649 -0.0715  0.1581  0.7823
 3965TIP3    H111859   0.223   0.170   4.737  0.6279  1.5076  1.4154
 3965TIP3    H211860   0.323   0.258   4.665  0.2119  0.2797 -0.7751
 3966TIP3   OH211861   1.011   1.965   3.839 -0.1255 -0.1882 -0.0708
 3966TIP3    H111862   1.024   2.058   3.862  1.7771 -0.5199  0.3532
 3966TIP3    H211863   0.924   1.963   3.798  0.4072  2.0373 -1.4951
 3967TIP3   OH211864   1.161   0.928   0.124  0.0889 -0.0012 -0.0493
 3967TIP3    H111865   1.117   0.905   0.042 -0.4470 -0.4582  0.3577
 3967TIP3    H211866   1.252   0.902   0.111 -0.0310 -0.2274 -0.4396
 3968TIP3   OH211867   5.386   2.276   1.627 -0.0398  0.0991  0.6720
 3968TIP3    H111868   5.449   2.297   1.559 -0.5386  1.5945  0.6460
 3968TIP3    H211869   5.393   2.181   1.637 -0.1885 -0.2252 -1.6865
 3969TIP3   OH211870   7.155   0.633   2.523 -0.1856  0.4131  0.3272
 3969TIP3    H111871   7.219   0.636   2.595 -0.4203 -0.1059  0.5659
 3969TIP3    H211872   7.183   0.558   2.470 -0.4659  0.3203  0.3102
 3970TIP3   OH211873   5.464   4.458   3.223 -0.2703 -0.6979  0.4831
 3970TIP3    H111874   5.400   4.453   3.152  0.5806 -2.8332 -0.2183
 3970TIP3    H211875   5.515   4.377   3.216  3.5868  1.4875  0.0195
 3971TIP3   OH211876   3.689   1.037   4.918 -0.0174  0.2499 -0.6017
 3971TIP3    H111877   3.698   1.108   4.854  0.4255  1.3746  0.6583
 3971TIP3    H211878   3.754   1.057   4.985 -0.0362 -1.2458 -0.1061
 3972TIP3   OH211879   5.483   4.533   2.427 -0.3531  0.4418 -0.4311
 3972TIP3    H111880   5.498   4.472   2.500  0.5504 -0.0078 -0.9828
 3972TIP3    H211881   5.387   4.541   2.423 -0.4996 -0.9623 -0.3640
 3973TIP3   OH211882   2.127   0.509   1.254  0.3467 -0.5666 -0.9158
 3973TIP3    H111883   2.081   0.428   1.233 -1.2213 -0.4481  1.6127
 3973TIP3    H211884   2.213   0.481   1.284  0.1625 -1.2317 -0.9908
 3974TIP3   OH211885   7.050   1.212   5.537 -0.8668 -0.2294 -0.1608
 3974TIP3    H111886   6.965   1.193   5.577 -1.1056  0.5008 -0.3035
 3974TIP3    H211887   7.075   1.131   5.492 -1.5356 -0.4110 -0.2092
 3975TIP3   OH211888   6.467   6.353   0.391  0.3865  0.2722 -0.2387
 3975TIP3    H111889   6.557   6.353   0.358  0.2401  1.9688 -0.7610
 3975TIP3    H211890   6.417   6.307   0.323  0.8729 -0.9095  0.1772
 3976TIP3   OH211891   5.699   0.897   5.624 -0.6533 -0.1129  0.2307
 3976TIP3    H111892   5.642   0.963   5.662  0.7759  2.1072 -1.2397
 3976TIP3    H211893   5.718   0.929   5.536  2.5367 -0.8779  0.5045
 3977TIP3   OH211894   1.832   1.657   0.783  0.2261 -0.3549 -0.0671
 3977TIP3    H111895   1.882   1.627   0.859  1.7625 -1.6021 -1.4831
 3977TIP3    H211896   1.894   1.649   0.709 -1.7166 -0.8445 -1.7293
 3978TIP3   OH211897   0.796   3.449   4.527  0.2629  0.0816 -0.3878
 3978TIP3    H111898   0.773   3.442   4.434 -2.1007  1.3788  0.0125
 3978TIP3    H211899   0.798   3.359   4.559 -0.0951 -0.3202 -1.4549
 3979TIP3   OH211900   1.132   4.588   5.139  0.6884 -0.5261 -0.3619
 3979TIP3    H111901   1.044   4.568   5.107  0.5310 -0.3673 -0.0234
 3979TIP3    H211902   1.160   4.663   5.086  0.4293 -0.2671 -0.1301
 3980TIP3   OH211903   2.948   1.444   4.025  0.3068 -0.2895 -0.6997
 3980TIP3    H111904   2.885   1.516   4.029 -1.0911 -1.4642 -1.1365
 3980TIP3    H211905   2.957   1.415   4.116 -0.7693 -0.9450 -0.7964
 3981TIP3   OH211906   3.346   3.065   4.055  0.0478  0.2208  0.1593
 3981TIP3    H111907   3.438   3.058   4.083  0.2233  0.2130 -0.4011
 3981TIP3    H211908   3.345   3.026   3.967 -0.5477 -0.0274  0.2697
 3982TIP3   OH211909   2.083   2.403   0.709 -0.0552  0.1961 -0.4087
 3982TIP3    H111910   2.138   2.449   0.645 -1.1798  0.1192 -1.4874
 3982TIP3    H211911   2.095   2.452   0.790  0.0404  1.4187 -1.1231
 3983TIP3   OH211912   0.326   5.179   3.205 -0.3726 -0.1447 -0.0912
 3983TIP3    H111913   0.388   5.130   3.260  0.0335  0.4954  0.0323
 3983TIP3    H211914   0.244   5.130   3.211  0.1125 -0.9926 -0.2330
 3984TIP3   OH211915   2.699   6.725   4.823  0.1612 -0.3397  0.3117
 3984TIP3    H111916   2.732   6.798   4.876  0.9549 -0.0604 -0.5203
 3984TIP3    H211917   2.642   6.767   4.758 -0.8229 -0.6802  0.9411
 3985TIP3   OH211918   5.079   1.101   3.511 -0.0386  0.0355 -0.1701
 3985TIP3    H111919   5.044   1.146   3.588  0.7687  0.8261 -0.2513
 3985TIP3    H211920   5.019   1.127   3.440 -0.3176 -0.0459  0.0350
 3986TIP3   OH211921   4.369   6.152   4.877 -0.0809 -0.1926 -0.1165
 3986TIP3    H111922   4.303   6.210   4.840  0.9117  1.7412  0.9545
 3986TIP3    H211923   4.427   6.211   4.926  1.7898 -1.9446 -0.1000
 3987TIP3   OH211924   3.715   5.296   0.035  0.1133  0.8175  0.3241
 3987TIP3    H111925   3.798   5.340   0.018  0.7517 -1.1358 -2.1617
 3987TIP3    H211926   3.657   5.327  -0.035 -0.2198 -0.2465  0.1090
 3988TIP3   OH211927   0.720   2.131   2.942  0.1687  0.6155 -0.4480
 3988TIP3    H111928   0.800   2.163   2.901  0.2288  0.0192 -0.8025
 3988TIP3    H211929   0.748   2.097   3.027  0.0761  1.6491  0.0238
 3989TIP3   OH211930   3.639   2.430   5.023 -0.2198  0.3722  0.6162
 3989TIP3    H111931   3.560   2.416   4.970 -0.1021  2.0826 -0.0855
 3989TIP3    H211932   3.612   2.409   5.112 -1.5017  0.9688  0.3953
 3990TIP3   OH211933   2.241   1.439   2.594  0.0013  0.3593  0.1983
 3990TIP3    H111934   2.304   1.406   2.658  1.8188 -1.0304 -2.1664
 3990TIP3    H211935   2.289   1.506   2.545 -1.0700  0.8143 -0.2578
 3991TIP3   OH211936   6.995   0.010   2.007  0.0893 -0.3328 -0.8208
 3991TIP3    H111937   6.919   0.065   2.025  0.5194  0.3681 -1.1085
 3991TIP3    H211938   6.978  -0.071   2.055 -0.6878 -0.0618 -0.6264
 3992TIP3   OH211939   1.244   1.505   3.496 -0.0416  0.1600 -0.5357
 3992TIP3    H111940   1.228   1.596   3.520 -0.5702  0.1926 -0.9943
 3992TIP3    H211941   1.188   1.489   3.420 -2.3271 -1.4367  1.3260
 3993TIP3   OH211942   2.250   2.786   1.223 -0.0209 -0.9380 -0.4241
 3993TIP3    H111943   2.274   2.878   1.211 -0.8316 -0.7562 -0.7806
 3993TIP3    H211944   2.332   2.738   1.216  0.1346 -0.4621 -2.7771
 3994TIP3   OH211945   5.291   2.578   3.349  0.4046 -0.3418  0.1679
 3994TIP3    H111946   5.284   2.505   3.411 -1.1484 -0.2105  0.1933
 3994TIP3    H211947   5.200   2.595   3.322  0.6713  1.8563  0.4668
 3995TIP3   OH211948   0.077   3.834   1.819 -0.3209  0.3315  0.3181
 3995TIP3    H111949   0.002   3.852   1.762  0.1148  0.1110 -0.3399
 3995TIP3    H211950   0.133   3.776   1.767 -0.1673 -0.3098  1.1803
 3996TIP3   OH211951   1.802   6.690   3.363 -0.2958 -0.7682  0.2805
 3996TIP3    H111952   1.730   6.634   3.334 -1.4985  1.1588 -0.6586
 3996TIP3    H211953   1.819   6.748   3.289  1.1608 -0.1198  1.0758
 3997TIP3   OH211954   3.570   5.728   4.450  0.1433  0.1370 -0.1027
 3997TIP3    H111955   3.493   5.745   4.504  0.1455 -0.2803  0.0395
 3997TIP3    H211956   3.534   5.688   4.371  0.2449 -0.4179  0.1301
 3998TIP3   OH211957   2.521   2.083   3.566 -0.0417 -0.1232 -0.3828
 3998TIP3    H111958   2.511   2.141   3.491  1.0781 -0.0097 -0.4632
 3998TIP3    H211959   2.491   2.136   3.641 -1.5455 -0.3784 -0.7713
 3999TIP3   OH211960   1.678   0.559   2.820  0.0631  0.4018 -0.5686
 3999TIP3    H111961   1.721   0.543   2.736  0.8906  1.5786 -0.3885
 3999TIP3    H211962   1.711   0.644   2.848 -1.3482  0.7158  0.2370
 4000TIP3   OH211963   3.001   2.236   4.921  0.0404  0.0746 -0.2513
 4000TIP3    H111964   3.014   2.229   4.827  0.4019 -1.1915 -0.1235
 4000TIP3    H211965   2.991   2.145   4.951  0.6353  0.4105  1.0304
 4001TIP3   OH211966   0.136   2.790   4.544  0.3725  0.2206 -0.1129
 4001TIP3    H111967   0.071   2.798   4.474 -0.0014 -1.0390  0.0771
 4001TIP3    H211968   0.184   2.873   4.541 -1.0051  1.0339 -0.4867
 4002TIP3   OH211969   4.030   5.271   2.750 -0.0095  0.0178  0.3316
 4002TIP3    H111970   4.092   5.314   2.809  1.2084 -0.5610 -0.4689
 4002TIP3    H211971   4.033   5.179   2.775  0.3219 -0.1890 -0.4422
 4003TIP3   OH211972   0.425   2.570   5.294  0.3314  0.2391  0.1142
 4003TIP3    H111973   0.336   2.604   5.292 -0.5157 -1.8284  0.0343
 4003TIP3    H211974   0.461   2.601   5.377 -0.8268  0.2751  0.6186
 4004TIP3   OH211975   4.092   4.771   4.821 -0.1599  0.1457 -0.2925
 4004TIP3    H111976   4.162   4.826   4.787  0.0239  0.5473  0.6909
 4004TIP3    H211977   4.101   4.777   4.916 -1.7316  0.4901 -0.1345
 4005TIP3   OH211978   3.502   6.051   4.215 -0.0565  0.4575 -0.8311
 4005TIP3    H111979   3.544   5.996   4.149  1.5470  0.9637 -0.2857
 4005TIP3    H211980   3.529   6.140   4.192  0.9852  0.5860  0.8124
 4006TIP3   OH211981   3.133   1.014   5.488 -0.0756 -0.4955 -0.6125
 4006TIP3    H111982   3.223   1.042   5.471 -0.4559  0.0731 -1.8345
 4006TIP3    H211983   3.099   1.081   5.548  0.4670 -1.0071  0.2805
 4007TIP3   OH211984   5.132   0.916   1.929 -0.5087 -0.3330 -0.1748
 4007TIP3    H111985   5.164   0.826   1.920 -1.0302 -0.6479  0.9431
 4007TIP3    H211986   5.141   0.936   2.022 -1.0538  0.5176 -0.2932
 4008TIP3   OH211987   0.521   3.251   1.981 -0.3755  0.2657  0.2982
 4008TIP3    H111988   0.579   3.275   1.908 -0.8676  2.4432  0.5562
 4008TIP3    H211989   0.575   3.195   2.037  1.4496  1.9906  0.3896
 4009TIP3   OH211990   1.545   2.639   4.744  0.1204 -0.1703 -0.5633
 4009TIP3    H111991   1.577   2.570   4.686 -0.6325 -0.1484 -1.0169
 4009TIP3    H211992   1.574   2.721   4.703 -1.0498 -0.1164 -1.3437
 4010TIP3   OH211993   6.473   4.949   0.805 -0.0862  0.0578  0.5810
 4010TIP3    H111994   6.565   4.951   0.782 -0.3262  1.5020 -0.3733
 4010TIP3    H211995   6.429   4.915   0.728 -0.5108  1.1538  0.3195
 4011TIP3   OH211996   7.180   5.492   3.003  0.8032  0.0624  0.0317
 4011TIP3    H111997   7.090   5.508   2.975  0.8098 -0.4284 -0.2792
 4011TIP3    H211998   7.213   5.426   2.942  1.7192  1.0049 -0.5489
 4012TIP3   OH211999   1.345   4.286   5.288 -0.0256  0.1598  0.1178
 4012TIP3    H112000   1.305   4.239   5.215 -0.5891 -1.1462  1.2094
 4012TIP3    H212001   1.407   4.224   5.326  2.3501  1.7966 -0.8971
 4013TIP3   OH212002   7.020   2.625   4.210  0.3457  0.2085 -0.1326
 4013TIP3    H112003   6.957   2.617   4.140 -0.5782  0.4185  0.6556
 4013TIP3    H212004   6.998   2.554   4.271  0.4116  0.7079  0.4861
 4014TIP3   OH212005   4.750   1.790   0.466 -0.1540 -0.0671  0.3294
 4014TIP3    H112006   4.811   1.740   0.522  0.0616 -1.5997 -1.1846
 4014TIP3    H212007   4.707   1.851   0.526 -0.5080 -2.1522  2.3453
 4015TIP3   OH212008   4.734   6.533   0.245 -0.2361 -0.1249  0.7913
 4015TIP3    H112009   4.669   6.564   0.182 -1.1703 -1.2936  1.1690
 4015TIP3    H212010   4.809   6.508   0.191 -0.9660 -0.9629  0.1529
 4016TIP3   OH212011   3.978   6.471   1.125 -0.2091 -0.0136  0.2967
 4016TIP3    H112012   4.060   6.496   1.167  0.5511 -0.6790 -0.7300
 4016TIP3    H212013   3.967   6.536   1.055 -0.3440 -0.1570  0.1854
 4017TIP3   OH212014   6.891   2.884   5.645  0.3712  0.2950  0.5551
 4017TIP3    H112015   6.963   2.823   5.658  0.4355 -0.0062 -1.0026
 4017TIP3    H212016   6.892   2.903   5.551 -0.4140  1.7477  0.7981
 4018TIP3   OH212017   6.937   3.536   5.570  0.1978  0.6425 -0.0376
 4018TIP3    H112018   6.996   3.531   5.495 -1.3655  0.1079 -1.2701
 4018TIP3    H212019   6.913   3.446   5.589  1.4647  0.6482  1.8979
 4019TIP3   OH212020   3.581   0.929   0.044 -0.1110 -0.1931 -0.9955
 4019TIP3    H112021   3.571   0.834   0.045 -0.3509 -0.1746  0.2640
 4019TIP3    H212022   3.498   0.962   0.009 -0.6717 -0.4047  0.0869
 4020TIP3   OH212023   3.319   4.930   3.904  0.1408 -0.4186  0.4594
 4020TIP3    H112024   3.410   4.939   3.878  0.2413 -2.1299  0.0548
 4020TIP3    H212025   3.306   4.835   3.914 -1.6417 -0.2444  0.2447
 4021TIP3   OH212026   3.623   1.414   3.213 -0.6309 -0.0617 -0.4522
 4021TIP3    H112027   3.586   1.487   3.163 -0.8010  0.4449  0.3858
 4021TIP3    H212028   3.695   1.453   3.262 -0.3276 -0.5971 -0.4657
 4022TIP3   OH212029   5.149   5.976   3.095  0.3622  0.0802 -0.5661
 4022TIP3    H112030   5.089   5.954   3.167  0.2334  0.8963 -0.4032
 4022TIP3    H212031   5.233   5.941   3.123  0.3381  0.4887  0.0466
 4023TIP3   OH212032   1.615   4.228   2.844  0.2522  0.0052  0.2053
 4023TIP3    H112033   1.649   4.201   2.929  1.9726  1.2094 -0.0400
 4023TIP3    H212034   1.526   4.259   2.862 -0.6381 -2.7346  0.9792
 4024TIP3   OH212035   6.991   3.311   5.263  0.1607 -0.2597  0.0474
 4024TIP3    H112036   7.046   3.375   5.217 -0.7220  0.3440 -0.1814
 4024TIP3    H212037   7.037   3.296   5.345  0.8649 -0.0395 -0.2960
 4025TIP3   OH212038   2.356   6.148   1.581 -0.5934 -0.3948  0.0046
 4025TIP3    H112039   2.290   6.146   1.651  0.2003  1.4052  0.8648
 4025TIP3    H212040   2.426   6.090   1.613 -0.7171 -0.4331  0.2074
 4026TIP3   OH212041   3.448   5.057   0.483  0.2735  0.1018 -0.1925
 4026TIP3    H112042   3.524   5.061   0.541  0.2929  0.2093 -0.2240
 4026TIP3    H212043   3.485   5.055   0.395  0.2355  0.6339 -0.2266
 4027TIP3   OH212044   2.458   4.316   2.017 -0.0763 -0.0043 -0.5369
 4027TIP3    H112045   2.374   4.280   2.046 -0.6666 -0.1860 -2.3422
 4027TIP3    H212046   2.437   4.406   1.992  0.8756  0.8864  1.5642
 4028TIP3   OH212047   5.506   5.211   2.777 -0.3010  0.2704  0.1320
 4028TIP3    H112048   5.580   5.251   2.824 -0.2525 -0.5363  0.7798
 4028TIP3    H212049   5.512   5.246   2.688  2.4816 -1.7430 -0.6289
 4029TIP3   OH212050   3.472   0.241   0.503 -0.0190  0.5474 -0.1981
 4029TIP3    H112051   3.489   0.328   0.467 -0.6549  0.7770  0.0407
 4029TIP3    H212052   3.432   0.257   0.588  0.7175  0.0090  0.2620
 4030TIP3   OH212053   3.353   6.600   2.896  0.0157 -0.1542  0.2432
 4030TIP3    H112054   3.384   6.550   2.820  1.5122 -0.8278  1.2417
 4030TIP3    H212055   3.259   6.582   2.900 -0.2211  0.3413 -1.7343
 4031TIP3   OH212056   4.204   4.574   3.184  0.1484 -0.2364  0.0874
 4031TIP3    H112057   4.293   4.593   3.155  0.3303 -0.3314  0.5798
 4031TIP3    H212058   4.215   4.531   3.269 -0.3210 -1.1061 -0.2781
 4032TIP3   OH212059   0.409   1.289   1.253  0.2165 -0.5080 -0.2427
 4032TIP3    H112060   0.370   1.239   1.325 -0.3506  0.0162 -0.1742
 4032TIP3    H212061   0.479   1.234   1.220 -1.1302 -1.8788 -0.9227
 4033TIP3   OH212062   5.339   5.892   5.755 -0.1170 -0.1945 -0.1426
 4033TIP3    H112063   5.390   5.936   5.687  2.0875 -0.4595  1.2097
 4033TIP3    H212064   5.249   5.921   5.742 -0.0173 -1.1209 -3.8317
 4034TIP3   OH212065   1.046   6.360   1.455  0.1208 -0.0251 -0.3082
 4034TIP3    H112066   1.078   6.441   1.494  0.6415 -0.4558  0.1739
 4034TIP3    H212067   1.040   6.299   1.528  1.0609 -0.8310 -0.8701
 4035TIP3   OH212068   6.636   5.729   3.342 -0.3180  0.2244  0.5513
 4035TIP3    H112069   6.725   5.712   3.371  0.6416  1.6088 -1.4106
 4035TIP3    H212070   6.608   5.647   3.300  0.3524  0.0527  0.4299
 4036TIP3   OH212071   1.739   6.145   5.718  0.5327 -0.1150 -0.2278
 4036TIP3    H112072   1.801   6.215   5.743  1.2277 -1.4876  2.2454
 4036TIP3    H212073   1.787   6.064   5.734 -1.7323 -1.2364  1.3426
 4037TIP3   OH212074   4.982   4.463   0.223 -0.3829 -0.4350  0.2900
 4037TIP3    H112075   5.062   4.453   0.273  1.2739  1.3203 -1.8146
 4037TIP3    H212076   5.010   4.494   0.137 -3.3391  0.8696 -0.3594
 4038TIP3   OH212077   6.181   3.043   1.519 -0.4474 -0.3525  0.1488
 4038TIP3    H112078   6.090   3.014   1.517 -0.5824  0.0643  0.2243
 4038TIP3    H212079   6.202   3.065   1.428 -0.7201  0.4616  0.2756
 4039TIP3   OH212080   1.650   5.059   2.493  0.5585  0.1589 -0.0036
 4039TIP3    H112081   1.586   5.123   2.523  0.5132  0.6026 -1.0089
 4039TIP3    H212082   1.698   5.103   2.423 -0.6709 -1.4334 -1.9920
 4040TIP3   OH212083   3.225   5.961   1.907 -0.0212  0.3140 -0.1157
 4040TIP3    H112084   3.320   5.951   1.904 -0.1038 -0.6802  0.0805
 4040TIP3    H212085   3.201   5.929   1.994 -0.5468  0.4331 -0.2146
 4041TIP3   OH212086   1.795   3.030   3.342  0.3797 -0.3767  0.4709
 4041TIP3    H112087   1.839   3.114   3.350  0.9317 -0.5003 -0.9421
 4041TIP3    H212088   1.702   3.052   3.334  0.6033  0.1877 -0.8464
 4042TIP3   OH212089   3.891   0.371   0.641  0.1865 -0.1444 -0.0585
 4042TIP3    H112090   3.933   0.397   0.723 -1.2237 -1.4172  1.1354
 4042TIP3    H212091   3.865   0.453   0.599  1.1878  0.5331  0.6304
 4043TIP3   OH212092   4.993   1.868   5.641  0.6563 -0.1414  0.6697
 4043TIP3    H112093   5.046   1.862   5.561  0.5468  2.0420  0.3743
 4043TIP3    H212094   5.045   1.821   5.707  1.1430 -1.2594 -0.4482
 4044TIP3   OH212095   4.209   0.692   1.081 -0.3733  0.3830  0.0514
 4044TIP3    H112096   4.274   0.717   1.016  0.5806 -0.4290  0.6628
 4044TIP3    H212097   4.237   0.606   1.111 -1.1263  0.4868  1.1085
 4045TIP3   OH212098   6.019   4.944   5.746 -0.2843 -0.2820  0.3745
 4045TIP3    H112099   6.093   4.889   5.770 -0.4749 -0.9629 -0.5267
 4045TIP3    H212100   6.038   5.029   5.786  0.7508 -0.5775  0.5374
 4046TIP3   OH212101   2.772   4.377   0.927 -0.1515 -0.2385  0.3248
 4046TIP3    H112102   2.716   4.426   0.866 -1.1319 -1.0940  0.5029
 4046TIP3    H212103   2.717   4.364   1.004  0.1986 -1.3280  0.4035
 4047TIP3   OH212104   3.430   6.458   4.441 -0.8375  0.3248  0.3397
 4047TIP3    H112105   3.473   6.477   4.524 -3.3407  1.3640  1.5245
 4047TIP3    H212106   3.422   6.543   4.398  0.3015 -0.1850 -0.9540
 4048TIP3   OH212107   0.255   2.742   0.243 -0.4805  0.2066  0.7677
 4048TIP3    H112108   0.200   2.779   0.175 -0.9401 -2.9738 -0.7901
 4048TIP3    H212109   0.337   2.791   0.237 -0.1875 -0.4306 -2.7361
 4049TIP3   OH212110   2.199   3.242   0.546  0.8915 -0.3695 -0.2761
 4049TIP3    H112111   2.243   3.287   0.473 -1.0760  0.4506 -1.0509
 4049TIP3    H212112   2.262   3.245   0.618  2.4635 -0.1759 -1.5925
 4050TIP3   OH212113   3.567   5.301   3.608  0.2164 -0.4054  0.0963
 4050TIP3    H112114   3.551   5.251   3.528 -0.0460  2.3270 -1.7024
 4050TIP3    H212115   3.662   5.315   3.609  0.2844 -0.8782  0.5736
 4051TIP3   OH212116   7.207   6.392   3.811  0.3537 -0.3531  0.7752
 4051TIP3    H112117   7.155   6.311   3.815  0.2808 -0.2971  0.9284
 4051TIP3    H212118   7.153   6.452   3.759  0.8239 -0.7168 -0.1713
 4052TIP3   OH212119   1.852   2.238   3.312  0.0689  0.2084 -0.0390
 4052TIP3    H112120   1.796   2.309   3.281  0.2341 -0.3110 -1.6315
 4052TIP3    H212121   1.797   2.160   3.306  1.2634 -0.5608 -3.0434
 4053TIP3   OH212122   1.212   0.664   4.670 -0.7329  0.3408 -0.1455
 4053TIP3    H112123   1.195   0.667   4.764  0.9004  0.1609  0.1895
 4053TIP3    H212124   1.222   0.755   4.644  0.2987  0.3362  0.1799
 4054TIP3   OH212125   0.705   1.016   5.012 -0.4554  0.0957  0.1445
 4054TIP3    H112126   0.745   0.937   5.049  0.2558  1.0924  1.5732
 4054TIP3    H212127   0.742   1.088   5.063 -1.3729  1.3390 -0.8855
 4055TIP3   OH212128   3.822   0.584   4.731 -0.3966 -0.2436  0.4761
 4055TIP3    H112129   3.901   0.620   4.690  0.3543 -2.2743 -0.0333
 4055TIP3    H212130   3.773   0.660   4.761  0.9204  1.1652 -0.7452
 4056TIP3   OH212131   5.230   5.657   1.725  0.2789  0.4768  0.2699
 4056TIP3    H112132   5.145   5.635   1.763  1.3320 -2.3256  1.2401
 4056TIP3    H212133   5.269   5.718   1.788 -1.8814  3.9085 -1.4330
 4057TIP3   OH212134   6.053   5.155   4.899 -0.2238 -0.5164 -0.2891
 4057TIP3    H112135   6.146   5.135   4.911 -0.2662 -0.7010 -0.2622
 4057TIP3    H212136   6.007   5.082   4.940 -0.3815 -0.4049 -0.2661
 4058TIP3   OH212137   2.330   1.771   4.730  0.2190 -0.8221  0.7884
 4058TIP3    H112138   2.263   1.832   4.700  0.5841 -0.1774  1.2774
 4058TIP3    H212139   2.359   1.806   4.814  0.0676 -1.9510  1.3283
 4059TIP3   OH212140   6.428   1.798   3.024 -0.7696  0.9578 -0.6832
 4059TIP3    H112141   6.378   1.817   3.103 -0.0689 -1.2184  0.3923
 4059TIP3    H212142   6.456   1.707   3.035 -0.5539  0.5973 -3.4179
 4060TIP3   OH212143   0.039   3.093   1.812  0.6589  0.0028 -0.5935
 4060TIP3    H112144   0.065   3.077   1.903  1.0940 -2.2034 -1.0555
 4060TIP3    H212145   0.117   3.133   1.772  0.2242  1.6737  0.1183
 4061TIP3   OH212146   1.983   6.205   1.803  0.1888  0.2253 -0.9256
 4061TIP3    H112147   2.069   6.196   1.843 -0.2258  1.6044  0.3643
 4061TIP3    H212148   1.999   6.257   1.724  0.6198 -0.0470 -1.0202
 4062TIP3   OH212149   0.921   2.217   4.565  0.2701 -0.1879  0.3947
 4062TIP3    H112150   0.902   2.256   4.650 -0.7761  0.1281  0.0268
 4062TIP3    H212151   1.010   2.183   4.574  1.7405  3.2605  0.4196
 4063TIP3   OH212152   3.900   3.856   5.205 -0.5895 -0.3553 -0.2008
 4063TIP3    H112153   3.845   3.914   5.256 -0.0291 -0.7772  0.9230
 4063TIP3    H212154   3.846   3.831   5.130 -2.2099 -1.2896  1.1906
 4064TIP3   OH212155   3.535   1.681   0.719  0.2589  0.6038  0.3488
 4064TIP3    H112156   3.498   1.614   0.662  1.5359 -0.5164  0.7923
 4064TIP3    H212157   3.481   1.679   0.798  2.2383 -2.3869  1.8161
 4065TIP3   OH212158   0.036   3.250   4.392 -0.6260 -0.0503 -0.2662
 4065TIP3    H112159  -0.024   3.297   4.449 -1.8212 -0.5681 -1.0575
 4065TIP3    H212160   0.075   3.182   4.447  2.0363  2.4679  1.2282
 4066TIP3   OH212161   3.754   5.233   5.341  0.1090  0.4963  0.2008
 4066TIP3    H112162   3.684   5.170   5.358  0.6194 -0.2368 -0.3506
 4066TIP3    H212163   3.708   5.311   5.311 -0.5159  0.2697  0.5332
 4067TIP3   OH212164   6.093   5.421   1.301 -0.3740 -0.4233 -0.5130
 4067TIP3    H112165   6.165   5.432   1.239 -2.4892 -1.4547 -3.3670
 4067TIP3    H212166   6.050   5.340   1.273 -1.7840 -0.6276  2.0113
 4068TIP3   OH212167   0.078   1.404   1.187  0.2671  0.3549 -0.1076
 4068TIP3    H112168   0.138   1.336   1.216  0.5303 -0.1824 -1.7698
 4068TIP3    H212169   0.010   1.357   1.139 -1.1595  1.0155  1.1640
 4069TIP3   OH212170   2.173   3.724   1.223  0.2153 -0.0390 -0.2231
 4069TIP3    H112171   2.205   3.784   1.290 -0.5652 -0.2837  0.3786
 4069TIP3    H212172   2.135   3.780   1.155 -2.5655  0.1736  1.3608
 4070TIP3   OH212173   2.862   2.574   4.050 -0.1542  0.5079  0.5596
 4070TIP3    H112174   2.911   2.561   3.970 -2.8935  1.7198 -1.4891
 4070TIP3    H212175   2.881   2.663   4.077  1.1908 -0.0714  1.6627
 4071TIP3   OH212176   1.924   5.214   0.185 -0.1116  0.3601  0.0108
 4071TIP3    H112177   1.926   5.305   0.214 -0.2598 -0.0203  1.2878
 4071TIP3    H212178   1.962   5.165   0.258  1.4808 -0.4503 -1.3111
 4072TIP3   OH212179   5.386   6.021   2.663 -0.0374 -0.1115 -0.7857
 4072TIP3    H112180   5.436   5.985   2.590 -0.6531 -3.4260  0.2402
 4072TIP3    H212181   5.400   5.959   2.735  0.1167  2.6815  1.8321
 4073TIP3   OH212182   4.469   4.665   2.075  0.1150  0.2000 -0.5397
 4073TIP3    H112183   4.391   4.611   2.068  1.3852 -2.0447  1.2110
 4073TIP3    H212184   4.532   4.625   2.015  0.6589  0.5255 -0.1937
 4074TIP3   OH212185   1.041   0.632   0.198  0.1328 -0.0645  0.3116
 4074TIP3    H112186   1.090   0.624   0.116  1.0525 -1.0216  0.9273
 4074TIP3    H212187   0.956   0.590   0.180  0.1668  0.1162 -0.2722
 4075TIP3   OH212188   5.027   3.464   3.550 -0.9608  0.0556 -0.2962
 4075TIP3    H112189   5.055   3.522   3.479  1.5381 -0.0870  0.4552
 4075TIP3    H212190   4.959   3.513   3.596 -1.0239  1.1011 -1.4629
 4076TIP3   OH212191   2.106   6.523   1.145  0.3305  0.0314  0.2394
 4076TIP3    H112192   2.043   6.595   1.147  1.7235  1.2651  1.0924
 4076TIP3    H212193   2.052   6.444   1.156 -1.1717  0.9448 -0.2526
 4077TIP3   OH212194   1.543   6.643   1.321  0.2054  0.3495  0.2072
 4077TIP3    H112195   1.560   6.710   1.388  0.5192  0.0899  0.3873
 4077TIP3    H212196   1.483   6.581   1.364  0.3057  0.2508  0.2030
 4078TIP3   OH212197   0.463   6.026   0.690 -0.3974  0.1013  0.0072
 4078TIP3    H112198   0.506   5.964   0.631 -0.1452  0.3144 -0.0365
 4078TIP3    H212199   0.470   5.986   0.776 -2.5845 -1.2027 -0.3531
 4079TIP3   OH212200   4.629   0.686   1.460 -0.3255  0.4654 -0.0247
 4079TIP3    H112201   4.687   0.753   1.424  1.3308  0.1233  1.8298
 4079TIP3    H212202   4.688   0.626   1.506 -1.9278 -1.3812 -0.2669
 4080TIP3   OH212203   2.442   4.921   3.882 -0.4897 -0.0523  0.1159
 4080TIP3    H112204   2.409   4.917   3.792 -1.5416 -0.8340  0.5229
 4080TIP3    H212205   2.453   5.014   3.899  0.9349  0.0728 -1.2415
 4081TIP3   OH212206   2.694   5.703   1.336  0.6724 -0.2209  0.0659
 4081TIP3    H112207   2.606   5.686   1.304  0.1450  3.2852 -0.7620
 4081TIP3    H212208   2.752   5.657   1.275 -0.5332 -1.1815 -0.3752
 4082TIP3   OH212209   3.438   4.899   1.575  0.1224  0.0341 -0.1005
 4082TIP3    H112210   3.466   4.813   1.608 -0.2789  0.1893  0.6806
 4082TIP3    H212211   3.345   4.887   1.554  0.0606  0.2840  0.0322
 4083TIP3   OH212212   1.315   1.127   3.222 -0.2721 -0.4313 -0.2582
 4083TIP3    H112213   1.227   1.141   3.187 -1.4840 -2.9010  1.5165
 4083TIP3    H212214   1.373   1.175   3.162 -2.5907 -0.6145 -2.8173
 4084TIP3   OH212215   4.043   4.346   1.908 -0.0666 -0.4729  0.2108
 4084TIP3    H112216   4.065   4.418   1.848 -2.7907  1.9134  1.7891
 4084TIP3    H212217   3.949   4.331   1.893  0.1488 -2.8969  0.8561
 4085TIP3   OH212218   4.662   2.290   3.629  0.0557  0.1811  0.0647
 4085TIP3    H112219   4.660   2.255   3.540  0.6112 -0.3738  0.2694
 4085TIP3    H212220   4.746   2.262   3.664  0.3618  1.4276  0.3562
 4086TIP3   OH212221   4.316   4.509   2.270 -0.6369  0.3131  0.3052
 4086TIP3    H112222   4.323   4.427   2.221  2.4663  1.6221 -1.7824
 4086TIP3    H212223   4.228   4.542   2.250 -1.1011 -1.3898 -0.6615
 4087TIP3   OH212224   1.275   3.941   0.575  0.6985 -0.2141  0.3148
 4087TIP3    H112225   1.251   4.034   0.574 -1.5472 -0.7310 -0.4427
 4087TIP3    H212226   1.347   3.935   0.637  1.4713  2.1527 -0.2441
 4088TIP3   OH212227   0.021   5.667   0.086 -0.5122 -0.4386 -0.7558
 4088TIP3    H112228   0.039   5.577   0.060  0.2059 -0.4065 -0.4133
 4088TIP3    H212229   0.096   5.717   0.052  0.0168 -0.2642  0.5840
 4089TIP3   OH212230   0.599   3.816   3.271 -0.3466  0.1558 -0.2626
 4089TIP3    H112231   0.587   3.784   3.181 -0.3539  0.4103 -0.3529
 4089TIP3    H212232   0.531   3.771   3.322  0.8002 -1.3751 -0.0361
 4090TIP3   OH212233   1.935   5.435   0.331  0.1697 -0.3443  0.2592
 4090TIP3    H112234   1.961   5.369   0.396  0.8192 -1.8080 -1.3897
 4090TIP3    H212235   1.991   5.510   0.350  1.4805 -1.3266  0.4436
 4091TIP3   OH212236   6.798   0.892   3.581  0.3626 -0.1305  0.3705
 4091TIP3    H112237   6.759   0.841   3.509 -1.7025  0.0625  1.2851
 4091TIP3    H212238   6.874   0.840   3.607 -0.3768 -1.6000 -0.2203
 4092TIP3   OH212239   6.350   4.889   4.335  0.5767 -0.8222 -0.8155
 4092TIP3    H112240   6.420   4.905   4.272 -1.0429 -0.4824 -2.6203
 4092TIP3    H212241   6.320   4.800   4.315  0.7899 -1.1479  0.2653
 4093TIP3   OH212242   3.566   6.697   3.059 -0.5659  0.3922  0.5111
 4093TIP3    H112243   3.529   6.635   3.121 -0.8882  0.9009  0.8256
 4093TIP3    H212244   3.523   6.676   2.976 -0.6810  0.2070  0.6172
 4094TIP3   OH212245   6.726   1.721   4.496 -0.0208  0.0329 -0.0046
 4094TIP3    H112246   6.781   1.739   4.572 -1.6555  2.1459  0.8100
 4094TIP3    H212247   6.658   1.662   4.529  0.3601 -0.5910 -0.3388
 4095TIP3   OH212248   1.778   0.055   4.620 -0.1230 -0.1406 -0.1543
 4095TIP3    H112249   1.765  -0.020   4.677  2.1571 -1.1329 -0.8444
 4095TIP3    H212250   1.731   0.127   4.663 -1.2136 -1.6069  1.2119
 4096TIP3   OH212251   3.132   5.517   5.729  0.5042 -0.0982 -0.1637
 4096TIP3    H112252   3.161   5.475   5.810 -1.7862  1.7755  1.7894
 4096TIP3    H212253   3.150   5.610   5.742  0.3874  0.2257 -1.9711
 4097TIP3   OH212254   2.729   3.076   2.152 -0.5556 -0.5660  1.0741
 4097TIP3    H112255   2.824   3.091   2.154 -0.6407  0.8686 -1.5286
 4097TIP3    H212256   2.700   3.093   2.242  1.5611 -0.5049  1.8007
 4098TIP3   OH212257   4.966   6.695   1.961 -0.1367  1.0043  0.0744
 4098TIP3    H112258   4.933   6.721   2.048 -2.4306 -2.2472  0.3657
 4098TIP3    H212259   5.021   6.618   1.978 -0.3485  0.5182 -1.3205
 4099TIP3   OH212260   1.903   1.124   4.153  0.7875 -0.1902  0.3795
 4099TIP3    H112261   1.931   1.211   4.123  0.4467  0.6125  2.2376
 4099TIP3    H212262   1.954   1.109   4.232 -2.2936  0.3567  2.6556
 4100TIP3   OH212263   3.843   2.752   0.973  0.5334 -0.2079  0.3819
 4100TIP3    H112264   3.765   2.786   0.927  2.5938  1.7232 -2.0031
 4100TIP3    H212265   3.821   2.759   1.066 -1.4922  2.0343 -0.1483
 4101TIP3   OH212266   5.621   0.594   2.405  0.7991  0.1569  0.3359
 4101TIP3    H112267   5.652   0.659   2.341 -0.7949 -0.4331 -1.1142
 4101TIP3    H212268   5.570   0.645   2.468 -0.3707  0.3767 -0.7485
 4102TIP3   OH212269   4.939   5.031   5.723  0.5540  0.2182  0.1448
 4102TIP3    H112270   4.986   5.106   5.759  0.5065  0.4714 -0.3230
 4102TIP3    H212271   4.877   5.068   5.661  0.4666 -0.2023 -0.0240
 4103TIP3   OH212272   2.544   2.197   4.027 -0.0472 -0.7081 -0.3865
 4103TIP3    H112273   2.577   2.286   4.034  0.5398 -0.8885 -0.8325
 4103TIP3    H212274   2.593   2.147   4.092  0.7496 -1.0226 -1.2040
 4104TIP3   OH212275   1.577   5.522   5.035 -0.2497 -0.4026 -0.5569
 4104TIP3    H112276   1.585   5.427   5.030  1.3352 -0.3559  0.2821
 4104TIP3    H212277   1.661   5.551   5.071 -2.1578  0.9770  3.4326
 4105TIP3   OH212278   1.393   3.933   0.838 -0.3478  0.2833 -0.2739
 4105TIP3    H112279   1.463   3.992   0.867 -0.1748 -0.6861  1.3709
 4105TIP3    H212280   1.438   3.855   0.807 -0.6009  0.7946 -2.0843
 4106TIP3   OH212281   4.809   2.303   1.954 -0.4327  0.6679 -0.1858
 4106TIP3    H112282   4.726   2.334   1.992  0.0616  1.3118  0.3876
 4106TIP3    H212283   4.783   2.260   1.873 -1.4385 -0.0518  0.4940
 4107TIP3   OH212284   5.664   5.011   3.560 -0.8543  0.8001  0.2795
 4107TIP3    H112285   5.732   4.971   3.615 -1.3411  0.7596  0.8748
 4107TIP3    H212286   5.589   4.952   3.570 -1.2206  1.2577  0.2564
 4108TIP3   OH212287   6.717   6.324   0.908 -0.3927 -0.7334  0.4029
 4108TIP3    H112288   6.708   6.414   0.939  0.4387 -1.0770  1.7116
 4108TIP3    H212289   6.810   6.316   0.886 -0.6275 -1.0380 -0.5339
 4109TIP3   OH212290   6.982   1.798   4.946 -0.6562 -0.1873  0.1696
 4109TIP3    H112291   6.892   1.830   4.961 -0.7253 -0.1050 -0.4099
 4109TIP3    H212292   7.015   1.853   4.876 -0.4984 -0.8804 -0.3073
 4110TIP3   OH212293   5.238   1.333   3.420  0.1827 -0.2358  0.3952
 4110TIP3    H112294   5.217   1.242   3.441  0.0284  0.2138  2.3327
 4110TIP3    H212295   5.156   1.380   3.434  0.0282  0.1088 -1.4379
 4111TIP3   OH212296   7.095  -0.012   2.865 -0.3295 -0.1082  0.4241
 4111TIP3    H112297   7.085  -0.035   2.772  1.8296 -0.6540  0.2880
 4111TIP3    H212298   7.073   0.081   2.868  1.7517  0.5165 -1.1053
 4112TIP3   OH212299   6.700   3.636   3.354  0.0379 -0.6467  0.7377
 4112TIP3    H112300   6.703   3.651   3.260 -0.6674 -0.9747  0.6552
 4112TIP3    H212301   6.688   3.542   3.363  0.1972 -0.6284  1.1576
 4113TIP3   OH212302   4.559   0.950   3.188 -0.3061 -0.3449  0.2036
 4113TIP3    H112303   4.504   0.872   3.177 -2.0129  0.5071  2.0524
 4113TIP3    H212304   4.502   1.023   3.168  0.4394  0.5343  1.1659
 4114TIP3   OH212305   2.226   1.598   4.542  0.4538  0.4186 -0.6099
 4114TIP3    H112306   2.259   1.653   4.614 -0.9168  0.0031  0.3938
 4114TIP3    H212307   2.211   1.659   4.470 -1.4811  1.5237  0.6339
 4115TIP3   OH212308   3.440   0.810   3.135 -0.5657  0.5151 -0.4285
 4115TIP3    H112309   3.435   0.722   3.097 -1.2494 -0.3105  1.4897
 4115TIP3    H212310   3.349   0.837   3.144 -0.5451 -0.0461  2.1475
 4116TIP3   OH212311   6.780   2.568   3.335 -0.4704  0.6197  0.2043
 4116TIP3    H112312   6.858   2.595   3.382 -1.4049 -0.8436  2.7718
 4116TIP3    H212313   6.709   2.617   3.376 -1.2962 -0.5579  0.2300
 4117TIP3   OH212314   4.648   3.351   0.825 -0.0255  0.5297  0.1496
 4117TIP3    H112315   4.570   3.379   0.776  0.6137 -0.6740 -1.6455
 4117TIP3    H212316   4.670   3.266   0.789  1.0504 -0.0142  1.9616
 4118TIP3   OH212317   0.839   2.347   1.853  0.6509 -0.3126 -0.4131
 4118TIP3    H112318   0.768   2.399   1.817  1.9530  2.1038  0.2941
 4118TIP3    H212319   0.897   2.329   1.779 -0.2025 -1.5240 -0.8158
 4119TIP3   OH212320   0.160   5.283   5.666 -0.2065 -0.0861  0.4945
 4119TIP3    H112321   0.147   5.375   5.690 -0.0473  0.6269 -1.9595
 4119TIP3    H212322   0.169   5.238   5.750  0.3532  2.2170  1.7498
 4120TIP3   OH212323   2.853   5.266   3.485 -0.2706 -0.8866 -0.8484
 4120TIP3    H112324   2.758   5.267   3.491 -0.3532  0.7284 -1.7496
 4120TIP3    H212325   2.884   5.290   3.572 -0.6904 -1.4027 -0.5590
 4121TIP3   OH212326   3.789   0.971   4.531  0.3270  0.1824  0.4150
 4121TIP3    H112327   3.865   0.913   4.531  0.8777  0.8643  1.3076
 4121TIP3    H212328   3.718   0.918   4.567  0.5727 -0.2442  0.2678
 4122TIP3   OH212329   2.893   4.429   4.664 -0.0934 -0.3834  0.2254
 4122TIP3    H112330   2.819   4.448   4.721  0.4092 -1.1007  1.1296
 4122TIP3    H212331   2.885   4.336   4.644  0.6186 -0.4870  0.4060
 4123TIP3   OH212332   3.184   4.294   2.116  0.8327 -0.2589  0.2212
 4123TIP3    H112333   3.271   4.268   2.087  0.7947  0.0808 -0.1917
 4123TIP3    H212334   3.137   4.211   2.125  1.0383 -0.4084 -0.0628
 4124TIP3   OH212335   6.079   2.573   2.613 -0.0935 -0.2599 -0.1597
 4124TIP3    H112336   6.104   2.649   2.666 -0.5532 -1.5320  1.9842
 4124TIP3    H212337   6.020   2.609   2.546  0.9104  1.4777 -0.1823
 4125TIP3   OH212338   4.520   1.210   5.490  0.4121  0.0610 -0.0699
 4125TIP3    H112339   4.440   1.157   5.499  0.1398  0.3583 -0.6903
 4125TIP3    H212340   4.581   1.171   5.552 -0.1876 -0.2304  0.3518
 4126TIP3   OH212341   1.483   1.159   4.945  0.3757  0.1714 -0.0661
 4126TIP3    H112342   1.490   1.194   5.034 -0.4366  3.1362 -1.0528
 4126TIP3    H212343   1.573   1.162   4.912  0.7907 -1.5370  0.7880
 4127TIP3   OH212344   0.637   3.506   0.011  0.3665  0.1900 -0.2625
 4127TIP3    H112345   0.676   3.570   0.070  1.7533 -0.8362 -0.0214
 4127TIP3    H212346   0.544   3.527   0.011  0.2765  0.1298  2.4328
 4128TIP3   OH212347   7.168   3.441   5.102  0.2538 -0.2897  1.0021
 4128TIP3    H112348   7.252   3.406   5.131  0.2309  0.0839  1.5079
 4128TIP3    H212349   7.188   3.489   5.022  0.9198  1.7616  2.3362
 4129TIP3   OH212350   1.309   3.661   4.656 -0.2996  0.0173 -0.7005
 4129TIP3    H112351   1.380   3.606   4.624 -1.3155 -0.8446 -1.5459
 4129TIP3    H212352   1.234   3.638   4.602 -1.2012  1.0144  0.0665
 4130TIP3   OH212353   0.281   1.158   2.609 -0.2502  0.1151  0.2585
 4130TIP3    H112354   0.313   1.226   2.669 -1.1472  0.9451 -0.1757
 4130TIP3    H212355   0.300   1.192   2.522 -1.5659  0.2736  0.0115
 4131TIP3   OH212356   4.196   3.361   4.963 -0.2353 -0.2711 -0.1804
 4131TIP3    H112357   4.104   3.382   4.977 -0.1468  0.3234 -0.4837
 4131TIP3    H212358   4.238   3.445   4.944 -0.0987 -0.7950 -2.6128
 4132TIP3   OH212359   1.722   5.257   4.136 -0.1623  0.6232  0.1144
 4132TIP3    H112360   1.800   5.203   4.151 -1.3981 -0.6055  2.8117
 4132TIP3    H212361   1.755   5.334   4.091  2.0043 -1.4451 -2.1464
 4133TIP3   OH212362   2.999   2.690   4.437 -0.1350 -0.0700 -0.0354
 4133TIP3    H112363   2.993   2.781   4.465 -2.2808 -0.5409  1.2171
 4133TIP3    H212364   3.083   2.685   4.390  0.4976  2.2906  0.7155
 4134TIP3   OH212365   4.665   5.258   3.279  0.2476  0.2654  0.3034
 4134TIP3    H112366   4.632   5.180   3.324  1.2597  0.0727  0.7323
 4134TIP3    H212367   4.743   5.283   3.328  1.1441  0.2939 -1.0644
 4135TIP3   OH212368   4.685   6.113   4.211 -0.1218 -0.5476  0.8025
 4135TIP3    H112369   4.738   6.173   4.157  0.0046 -0.1414  1.3756
 4135TIP3    H212370   4.713   6.026   4.182 -0.1541 -0.3408  0.1115
 4136TIP3   OH212371   4.928   0.553   1.341  0.0652 -0.2548  0.0884
 4136TIP3    H112372   4.908   0.571   1.433  0.5552  1.7983 -0.1511
 4136TIP3    H212373   4.852   0.585   1.293 -0.0148 -0.9462 -0.2655
 4137TIP3   OH212374   1.186   1.564   4.176  0.1199 -0.1322  0.1712
 4137TIP3    H112375   1.127   1.517   4.236 -1.2011  0.4262 -0.6398
 4137TIP3    H212376   1.127   1.614   4.119  1.2397 -1.4999 -2.3647
 4138TIP3   OH212377   1.966   2.394   4.087  0.7059  0.4734 -0.2205
 4138TIP3    H112378   1.916   2.467   4.051  1.4129  1.7335  1.2856
 4138TIP3    H212379   1.919   2.316   4.056 -1.4702  1.5748  0.1143
 4139TIP3   OH212380   0.574   5.001   2.118  0.2445  0.5909 -0.2593
 4139TIP3    H112381   0.575   5.093   2.093  1.1845  0.5820 -0.2763
 4139TIP3    H212382   0.596   4.954   2.037 -0.8823  0.2987 -0.4156
 4140TIP3   OH212383   6.953   4.660   4.480  0.0399  0.0162 -0.2243
 4140TIP3    H112384   6.927   4.593   4.544  0.0565 -1.1044 -1.3605
 4140TIP3    H212385   7.028   4.622   4.435  1.9326  2.0141  1.0313
 4141TIP3   OH212386   6.828   5.321   1.953 -0.8240 -0.5131 -0.2441
 4141TIP3    H112387   6.841   5.403   1.905 -1.0635  0.2270  0.8994
 4141TIP3    H212388   6.815   5.255   1.885  1.3078  0.0185 -1.2899
 4142TIP3   OH212389   2.590   1.656   0.817  0.0105 -0.6614  0.1028
 4142TIP3    H112390   2.623   1.571   0.844 -0.7281 -0.4529  1.8039
 4142TIP3    H212391   2.557   1.696   0.898  1.0322  1.5657 -0.4744
 4143TIP3   OH212392   6.219   6.036   2.233  0.2731 -0.2030 -0.2002
 4143TIP3    H112393   6.286   6.086   2.280 -1.2147  0.3231  1.4827
 4143TIP3    H212394   6.152   6.100   2.210 -1.3664 -1.2199  1.4208
 4144TIP3   OH212395   2.949   0.638   4.516  0.4036 -0.3881  0.1297
 4144TIP3    H112396   2.948   0.562   4.573 -1.0985 -0.0745  0.5498
 4144TIP3    H212397   3.040   0.645   4.487  0.5693 -2.3668  0.0299
 4145TIP3   OH212398   4.638   5.230   3.730 -0.5287 -0.3180 -0.0196
 4145TIP3    H112399   4.621   5.152   3.677 -1.4109  0.6509 -1.2068
 4145TIP3    H212400   4.551   5.267   3.747 -0.0696  0.8354 -0.1246
 4146TIP3   OH212401   5.508   3.492   0.138 -0.7768 -0.1725 -0.3515
 4146TIP3    H112402   5.455   3.520   0.213 -1.3882  0.7274 -1.0924
 4146TIP3    H212403   5.569   3.565   0.123  0.3609 -0.9848  0.1773
 4147TIP3   OH212404   2.077   3.004   3.625  0.3986  0.1859 -0.2570
 4147TIP3    H112405   2.068   3.055   3.705 -0.3441 -0.7994  0.3161
 4147TIP3    H212406   2.163   2.963   3.632 -0.0182 -0.5992  0.4836
 4148TIP3   OH212407   2.972   0.719   1.421 -0.3318  0.5170  0.3460
 4148TIP3    H112408   2.891   0.711   1.472 -1.9945  2.3080 -1.8084
 4148TIP3    H212409   2.972   0.642   1.363 -0.3863  0.4202  0.4748
 4149TIP3   OH212410   0.514   0.574   5.018  0.2489 -0.3927  0.0980
 4149TIP3    H112411   0.500   0.550   5.110  1.9007 -3.9005 -0.3702
 4149TIP3    H212412   0.427   0.594   4.984 -0.5439 -0.1713  2.1202
 4150TIP3   OH212413   6.257   6.604   2.290  0.0941  0.0364  0.1996
 4150TIP3    H112414   6.274   6.678   2.230 -0.3827  1.8612  2.2098
 4150TIP3    H212415   6.170   6.574   2.266  0.3737 -0.0372 -0.7830
 4151TIP3   OH212416   5.323   1.180   2.830  0.3566  0.3640  0.5470
 4151TIP3    H112417   5.257   1.204   2.765  1.2401  0.3234 -0.3841
 4151TIP3    H212418   5.281   1.113   2.883 -0.9487  1.5332  1.0534
 4152TIP3   OH212419   7.073   2.941   4.860  0.2855 -0.1529 -0.1475
 4152TIP3    H112420   7.144   2.878   4.871 -1.3854 -2.1489 -0.1500
 4152TIP3    H212421   7.105   3.021   4.902  2.9773 -0.5528 -1.1928
 4153TIP3   OH212422   2.627   0.818   0.460  0.0319  0.1890 -0.3876
 4153TIP3    H112423   2.611   0.763   0.537 -0.4042 -0.1435 -0.7125
 4153TIP3    H212424   2.720   0.804   0.440 -0.0876 -0.4688 -0.4931
 4154TIP3   OH212425   4.477   5.110   4.468 -0.0236  0.0458  0.2387
 4154TIP3    H112426   4.524   5.102   4.551 -0.4963 -1.9005  0.3711
 4154TIP3    H212427   4.492   5.027   4.423  1.7734  1.7075 -2.5300
 4155TIP3   OH212428   2.570   5.427   1.359 -0.0066 -0.0931  0.1667
 4155TIP3    H112429   2.490   5.438   1.307 -0.5682 -1.9890  0.5267
 4155TIP3    H212430   2.640   5.423   1.294 -0.5035 -0.7252 -0.3539
 4156TIP3   OH212431   3.782   5.468   3.158 -0.8408  0.3167  0.3014
 4156TIP3    H112432   3.864   5.422   3.176 -1.8258 -2.1575 -1.0581
 4156TIP3    H212433   3.778   5.475   3.062 -2.6176 -0.4639  0.2799
 4157TIP3   OH212434   6.869   2.989   0.613 -0.7294 -0.4602 -0.6200
 4157TIP3    H112435   6.799   3.054   0.618  0.2540  0.7713 -1.9844
 4157TIP3    H212436   6.825   2.909   0.586 -1.5108  0.5837 -2.6553
 4158TIP3   OH212437   2.346   5.397   1.157  0.7093  0.0699 -0.0957
 4158TIP3    H112438   2.331   5.304   1.142 -1.2888  0.3163  0.0165
 4158TIP3    H212439   2.397   5.426   1.081 -0.3613 -0.7276 -1.1561
 4159TIP3   OH212440   4.062   0.691   2.349 -0.4318 -0.1278  0.0646
 4159TIP3    H112441   4.113   0.612   2.330 -0.1250  0.7477 -3.4465
 4159TIP3    H212442   3.971   0.661   2.344 -0.3131 -0.3762 -0.9015
 4160TIP3   OH212443   2.483   2.859   2.677 -0.2228 -1.1180 -0.1808
 4160TIP3    H112444   2.529   2.941   2.693 -0.0158 -1.2464 -0.1183
 4160TIP3    H212445   2.550   2.798   2.649 -0.4302 -1.1783 -0.5481
 4161TIP3   OH212446   1.506   4.120   3.551  0.1056 -0.1524 -0.3931
 4161TIP3    H112447   1.422   4.106   3.509 -0.3732 -1.5682  0.9602
 4161TIP3    H212448   1.570   4.087   3.488 -0.5159 -1.1182 -0.5418
 4162TIP3   OH212449   6.322   2.766   1.741 -0.1958  0.0882 -0.2663
 4162TIP3    H112450   6.359   2.677   1.742  2.0890  0.9560  1.4971
 4162TIP3    H212451   6.357   2.805   1.661 -1.2589 -0.5651 -1.0829
 4163TIP3   OH212452   2.309   0.922   3.870 -0.2602  0.0894  0.1171
 4163TIP3    H112453   2.349   0.967   3.795 -0.5495  0.7530  0.3501
 4163TIP3    H212454   2.248   0.987   3.906 -1.4213 -0.8407 -0.1279
 4164TIP3   OH212455   1.818   2.014   0.818  0.2120  0.4193  0.2177
 4164TIP3    H112456   1.751   2.070   0.777 -1.9900 -1.9392  0.3462
 4164TIP3    H212457   1.831   1.942   0.757  1.5267  0.0314  0.9118
 4165TIP3   OH212458   1.615   0.305   3.634 -0.2893  0.5871 -0.5179
 4165TIP3    H112459   1.549   0.332   3.698 -0.9682 -0.9731 -0.4989
 4165TIP3    H212460   1.568   0.306   3.551  0.4208  2.0041 -0.9374
 4166TIP3   OH212461   0.435   4.154   4.983  0.1729 -0.0598 -0.3888
 4166TIP3    H112462   0.495   4.224   5.006  1.0571 -0.8447 -0.2360
 4166TIP3    H212463   0.429   4.158   4.887 -0.1900  0.5384 -0.3470
 4167TIP3   OH212464   0.619   5.128   4.109 -0.1434  0.2772 -0.0646
 4167TIP3    H112465   0.609   5.215   4.146 -1.1035  0.4521 -0.6847
 4167TIP3    H212466   0.610   5.141   4.014 -2.3714 -0.7155 -0.0626
 4168TIP3   OH212467   4.309   3.193   3.438  0.0062 -0.4788  0.3436
 4168TIP3    H112468   4.309   3.123   3.502  2.2594 -1.3042 -0.4928
 4168TIP3    H212469   4.219   3.193   3.403 -0.8893 -0.8636  2.4816
 4169TIP3   OH212470   2.681   5.124   1.172 -0.1511 -0.2129 -0.3070
 4169TIP3    H112471   2.617   5.193   1.156  0.9876  0.9548  0.0480
 4169TIP3    H212472   2.745   5.163   1.232  0.2385 -1.7472  0.3508
 4170TIP3   OH212473   1.097   2.680   4.582 -0.0799  0.2229 -0.1485
 4170TIP3    H112474   1.126   2.593   4.557  1.4247  0.0445  1.9586
 4170TIP3    H212475   1.140   2.697   4.666 -3.8717  1.1521  1.8500
 4171TIP3   OH212476   1.149   6.642   3.713  0.1239  0.3190 -0.0436
 4171TIP3    H112477   1.057   6.643   3.687  0.2154 -0.1159 -0.3922
 4171TIP3    H212478   1.147   6.663   3.807 -0.1084  3.2473 -0.6032
 4172TIP3   OH212479   2.803   1.043   4.915 -0.1540  0.3740 -0.3148
 4172TIP3    H112480   2.862   1.115   4.892 -0.9684  0.6161 -1.7801
 4172TIP3    H212481   2.837   0.969   4.865  0.3277 -0.1313  0.7332
 4173TIP3   OH212482   1.988   5.933   1.617  0.0562  0.6879  0.0624
 4173TIP3    H112483   2.065   5.884   1.590  0.1693  1.4482 -1.0407
 4173TIP3    H212484   2.022   6.013   1.657 -0.1570  0.6281  0.3756
 4174TIP3   OH212485   1.862   4.919   5.837 -0.0512 -0.0210 -0.1500
 4174TIP3    H112486   1.950   4.881   5.829  0.3161  0.9573 -1.0141
 4174TIP3    H212487   1.826   4.915   5.748 -0.0172  1.5425 -0.2620
 4175TIP3   OH212488   2.868   0.962   5.456 -0.0060  0.1400 -0.1941
 4175TIP3    H112489   2.961   0.966   5.476 -0.1455  0.0746  0.5290
 4175TIP3    H212490   2.861   0.983   5.363  0.6532  1.0480 -0.0502
 4176TIP3   OH212491   6.840   3.467   1.246  0.0743 -0.0624 -0.2062
 4176TIP3    H112492   6.763   3.508   1.206  0.1848  0.8502  0.4892
 4176TIP3    H212493   6.806   3.386   1.285 -0.2066 -0.4992 -1.3218
 4177TIP3   OH212494   3.537   3.236   0.559  0.4681 -0.3967 -0.1171
 4177TIP3    H112495   3.522   3.330   0.554  0.5068 -0.4704 -2.8468
 4177TIP3    H212496   3.449   3.199   0.567  0.5086 -0.1500  2.0507
 4178TIP3   OH212497   1.847   3.512   1.994  1.0569  0.6867 -0.1649
 4178TIP3    H112498   1.842   3.466   2.078 -0.3106 -3.9230 -2.4576
 4178TIP3    H212499   1.762   3.556   1.986  1.3072  1.4098  0.8986
 4179TIP3   OH212500   6.893   4.682   2.334  0.5788  0.3911  0.1085
 4179TIP3    H112501   6.844   4.742   2.278 -2.1739  1.1149  2.9862
 4179TIP3    H212502   6.854   4.596   2.316  1.4871  0.1493 -0.8352
 4180TIP3   OH212503   4.010   3.927   3.454  0.5396 -0.2070  0.0788
 4180TIP3    H112504   4.019   3.952   3.546  1.1789  2.7453 -0.6701
 4180TIP3    H212505   3.932   3.974   3.423  0.8046 -0.4840 -1.0780
 4181TIP3   OH212506   6.933   5.577   2.872  0.2170  0.7246 -0.3774
 4181TIP3    H112507   6.857   5.531   2.837 -0.5159 -1.1848  3.2586
 4181TIP3    H212508   6.898   5.657   2.911  0.0826  0.1104  0.8146
 4182TIP3   OH212509   3.669   5.592   0.764 -0.2205  0.1960 -0.5225
 4182TIP3    H112510   3.699   5.513   0.807  2.8450  2.0019  0.9852
 4182TIP3    H212511   3.727   5.661   0.796 -3.4287  3.3500 -0.8017
 4183TIP3   OH212512   6.201   5.718   2.403 -0.2913  0.2491 -0.5166
 4183TIP3    H112513   6.252   5.784   2.452  0.2911 -1.1114  0.7921
 4183TIP3    H212514   6.110   5.742   2.419 -0.0922  0.6423  0.0931
 4184TIP3   OH212515   0.014   6.244   3.211 -0.1154  0.1020 -0.5420
 4184TIP3    H112516   0.082   6.179   3.194 -0.3302 -0.1428 -0.4729
 4184TIP3    H212517   0.026   6.267   3.303 -1.5723 -1.6575  0.1450
 4185TIP3   OH212518   5.270   5.181   2.098 -0.1357  0.6549  0.0778
 4185TIP3    H112519   5.363   5.164   2.086 -0.1824  0.7836 -0.4683
 4185TIP3    H212520   5.261   5.275   2.081 -0.6693  0.3000 -1.7987
 4186TIP3   OH212521   5.193   3.399   0.144 -0.1378  0.4398  0.0456
 4186TIP3    H112522   5.259   3.414   0.212 -0.1114 -0.2148  0.1705
 4186TIP3    H212523   5.178   3.486   0.106  1.8756  0.3942 -1.0034
 4187TIP3   OH212524   5.530   3.917   5.136 -0.4621  0.2554  0.1573
 4187TIP3    H112525   5.538   3.996   5.188 -1.4025  0.2300  0.3605
 4187TIP3    H212526   5.489   3.853   5.195  0.0871 -0.3233 -0.0660
 4188TIP3   OH212527   1.008   4.866   2.893 -0.2948 -0.0158  0.1896
 4188TIP3    H112528   1.035   4.868   2.801 -1.1492 -1.0553 -0.0973
 4188TIP3    H212529   0.990   4.958   2.915 -1.7521  0.0603 -1.1887
 4189TIP3   OH212530   6.609   0.322   4.298  0.2380 -0.0345 -0.3281
 4189TIP3    H112531   6.654   0.244   4.328 -0.3259 -0.2876 -0.1221
 4189TIP3    H212532   6.647   0.393   4.349  1.0913 -0.0946 -0.8523
 4190TIP3   OH212533   5.667   2.414   2.303  0.0931 -0.2549  0.5361
 4190TIP3    H112534   5.745   2.426   2.249 -0.7084 -0.3559 -0.6848
 4190TIP3    H212535   5.602   2.474   2.266 -0.4947 -0.3328  1.3845
 4191TIP3   OH212536   3.357   5.440   0.913 -0.1438 -0.4523 -0.4686
 4191TIP3    H112537   3.371   5.386   0.991  0.0099  0.2938  0.0317
 4191TIP3    H212538   3.332   5.526   0.948  0.5420  0.0684 -1.2135
 4192TIP3   OH212539   0.102   0.189   4.883 -0.1554  0.8511 -0.0377
 4192TIP3    H112540   0.076   0.276   4.914 -0.2989  0.5552  0.7102
 4192TIP3    H212541   0.024   0.135   4.895  0.5499  0.1162  1.5584
 4193TIP3   OH212542   4.173   4.905   5.763  0.0431 -0.0246 -0.0138
 4193TIP3    H112543   4.214   4.828   5.723 -1.7146  0.3890 -2.9593
 4193TIP3    H212544   4.080   4.881   5.770 -0.3707  1.4677 -0.1452
 4194TIP3   OH212545   2.773   2.462   1.719  0.0778 -0.0496  0.3862
 4194TIP3    H112546   2.732   2.536   1.764 -1.3536 -0.6842  0.1939
 4194TIP3    H212547   2.825   2.418   1.786  2.0297  1.8484  0.1953
 4195TIP3   OH212548   1.835   2.242   4.551  0.0693  0.3251  0.1512
 4195TIP3    H112549   1.905   2.274   4.494  0.4808  0.7543  0.8850
 4195TIP3    H212550   1.879   2.220   4.633 -0.5084 -0.3415  0.2956
 4196TIP3   OH212551   5.834   3.041   0.845 -0.0162 -0.3130 -0.0386
 4196TIP3    H112552   5.845   2.989   0.766 -1.2944 -0.5414 -0.0968
 4196TIP3    H212553   5.771   2.992   0.897  0.6590 -0.0689  1.0476
 4197TIP3   OH212554   5.228   0.144   4.965  0.3344  0.0174 -0.7130
 4197TIP3    H112555   5.154   0.167   5.021 -0.4529 -0.6321 -1.4792
 4197TIP3    H212556   5.296   0.116   5.026  0.0783  0.9158  0.0166
 4198TIP3   OH212557   6.647   4.248   4.936 -0.2051 -0.7041 -0.8242
 4198TIP3    H112558   6.672   4.201   5.015  0.8019 -4.0161 -2.9195
 4198TIP3    H212559   6.561   4.286   4.957  0.2177 -1.0763  1.9283
 4199TIP3   OH212560   4.868   1.090   1.453  0.6195 -0.2822 -0.3173
 4199TIP3    H112561   4.819   1.168   1.424  1.3856 -0.2268 -1.5412
 4199TIP3    H212562   4.960   1.116   1.447  0.8445 -0.8634  0.5338
 4200TIP3   OH212563   6.808   2.890   3.542  0.1484  0.1817  0.0994
 4200TIP3    H112564   6.848   2.923   3.462 -2.1885  0.3500 -1.0755
 4200TIP3    H212565   6.739   2.954   3.563 -0.7678 -1.0262  0.9454
 4201TIP3   OH212566   3.146   6.217   3.445  0.4523 -0.2116  0.4009
 4201TIP3    H112567   3.100   6.232   3.363  0.8123  1.6196  0.4730
 4201TIP3    H212568   3.084   6.169   3.500 -0.4419  0.0613 -0.3547
 4202TIP3   OH212569   2.701   3.339   4.771 -0.0443  0.2104  0.0357
 4202TIP3    H112570   2.674   3.406   4.834 -3.2777 -1.1625  0.3097
 4202TIP3    H212571   2.677   3.375   4.686 -0.3355  0.0532  0.0488
 4203TIP3   OH212572   3.486   5.947   3.864  0.1146  0.4676  0.2254
 4203TIP3    H112573   3.413   5.909   3.815 -1.7710  0.6267  2.6987
 4203TIP3    H212574   3.532   5.872   3.900  0.9955  0.3816 -1.0077
 4204TIP3   OH212575   0.175   2.799   4.826 -0.4015 -0.2524  0.2481
 4204TIP3    H112576   0.268   2.823   4.834 -0.3960 -0.5676  1.2209
 4204TIP3    H212577   0.166   2.770   4.736  0.0820  1.3013 -0.3403
 4205TIP3   OH212578   3.857   2.976   0.756  0.6773  0.1868 -0.1622
 4205TIP3    H112579   3.901   2.920   0.693  2.2078  0.8364  0.2808
 4205TIP3    H212580   3.913   2.973   0.834 -0.9844 -0.3302  1.0761
 4206TIP3   OH212581   2.334   6.494   1.721 -0.8511  0.2019 -0.1085
 4206TIP3    H112582   2.426   6.494   1.693 -0.1437  1.7927  1.9131
 4206TIP3    H212583   2.285   6.466   1.644  1.4571 -2.7110 -0.6936
 4207TIP3   OH212584   1.681   0.028   1.617  0.1787 -0.2237  0.3000
 4207TIP3    H112585   1.701   0.029   1.711  3.6633  0.7160 -0.3148
 4207TIP3    H212586   1.730  -0.046   1.582 -0.3807 -0.0630 -0.8850
 4208TIP3   OH212587   2.894   2.837   4.108 -0.0967 -0.4397  0.5641
 4208TIP3    H112588   2.832   2.865   4.041 -0.7232 -0.1791  1.2316
 4208TIP3    H212589   2.971   2.893   4.094 -0.1714 -0.4752 -0.0093
 4209TIP3   OH212590   1.834   0.719   4.710 -0.0677  0.0492 -0.2792
 4209TIP3    H112591   1.884   0.771   4.647 -0.6836  2.3027  1.0124
 4209TIP3    H212592   1.889   0.715   4.788 -0.1422 -1.0600 -0.2659
 4210TIP3   OH212593   4.510   1.108   1.101 -0.1802  0.5383 -0.0047
 4210TIP3    H112594   4.464   1.154   1.171 -0.5963  1.5379 -0.9106
 4210TIP3    H212595   4.467   1.022   1.097  0.2973  0.2038  1.3853
 4211TIP3   OH212596   5.819   4.904   2.341  0.4202 -0.6637  0.1960
 4211TIP3    H112597   5.754   4.863   2.398  0.3267  1.2947  1.5731
 4211TIP3    H212598   5.853   4.978   2.391  3.9672 -1.7069 -0.3287
 4212TIP3   OH212599   0.429   3.696   1.605 -0.2033  0.0834 -0.1973
 4212TIP3    H112600   0.401   3.695   1.514 -0.2461  1.2337 -0.2002
 4212TIP3    H212601   0.418   3.605   1.634 -1.3496 -0.0379 -0.9748
 4213TIP3   OH212602   4.871   5.077   3.823 -0.3587  0.8560 -0.3280
 4213TIP3    H112603   4.843   5.059   3.733 -0.6234 -0.6258  0.0153
 4213TIP3    H212604   4.813   5.146   3.854 -2.0731 -0.4704 -0.4460
 4214TIP3   OH212605   1.791   3.374   2.327  0.5910  0.0621  0.1308
 4214TIP3    H112606   1.840   3.456   2.322  0.3012  0.3627  1.6801
 4214TIP3    H212607   1.746   3.377   2.412 -0.4710 -1.1206 -0.3377
 4215TIP3   OH212608   7.158   4.267   2.803  0.0718  0.2415 -0.6760
 4215TIP3    H112609   7.213   4.191   2.823  1.7294  1.3633 -0.7824
 4215TIP3    H212610   7.104   4.279   2.881  0.8973 -0.1200 -0.0432
 4216TIP3   OH212611   2.506   6.773   1.770 -0.3324  0.3691 -0.0107
 4216TIP3    H112612   2.552   6.808   1.694  0.2497 -0.5803 -0.1081
 4216TIP3    H212613   2.532   6.681   1.774 -1.8139 -0.0630  0.2563
 4217TIP3   OH212614   0.973   2.311   4.107  1.0470 -0.2380  0.1880
 4217TIP3    H112615   1.046   2.355   4.151  0.4486  0.8581  0.1059
 4217TIP3    H212616   0.926   2.266   4.177 -0.4318  2.2386  0.9025
 4218TIP3   OH212617   0.089   3.723   0.132 -0.1876 -0.3552 -0.3325
 4218TIP3    H112618   0.096   3.763   0.218  0.5286 -0.3764 -0.3725
 4218TIP3    H212619   0.130   3.786   0.073 -3.1560  1.0141 -1.1367
 4219TIP3   OH212620   0.891   5.606   1.325 -0.1679  0.0298  0.4797
 4219TIP3    H112621   0.837   5.556   1.386 -1.3076  0.9887  0.3139
 4219TIP3    H212622   0.966   5.635   1.377  1.0186 -2.5716  0.3353
 4220TIP3   OH212623   2.631   4.907   2.855  0.7410  0.4769 -0.2081
 4220TIP3    H112624   2.565   4.883   2.790  1.2373  1.1019 -0.9598
 4220TIP3    H212625   2.651   4.825   2.899 -2.4393  0.6730  1.9059
 4221TIP3   OH212626   5.646   4.077   4.434 -0.5624 -0.0607  0.3835
 4221TIP3    H112627   5.692   4.138   4.377 -0.1051 -1.6067 -0.9998
 4221TIP3    H212628   5.716   4.025   4.474 -0.9200  0.5462  1.8493
 4222TIP3   OH212629   4.776   1.159   1.068  0.0765 -0.5789  0.5824
 4222TIP3    H112630   4.682   1.154   1.086 -0.2047 -0.5005 -0.7477
 4222TIP3    H212631   4.791   1.090   1.003  1.2599 -1.6493  1.9225
 4223TIP3   OH212632   0.842   2.497   1.561 -0.0352 -0.6782 -0.1544
 4223TIP3    H112633   0.773   2.437   1.533  0.4229 -1.0838 -0.4563
 4223TIP3    H212634   0.923   2.456   1.530  0.3389 -0.1989  0.1620
 4224TIP3   OH212635   0.802   1.647   2.545 -0.5257  0.3636  0.4273
 4224TIP3    H112636   0.832   1.588   2.476  0.2727 -0.1457  1.1690
 4224TIP3    H212637   0.713   1.618   2.565  0.4219 -1.7934  1.9475
 4225TIP3   OH212638   5.785   6.181   2.750 -0.0732 -0.0683  0.1410
 4225TIP3    H112639   5.811   6.265   2.788 -0.0009 -0.5867  1.2903
 4225TIP3    H212640   5.691   6.175   2.769  0.1544 -0.7595  1.1180
 4226TIP3   OH212641   2.860   4.792   4.559 -0.1872  0.4575 -0.3444
 4226TIP3    H112642   2.857   4.806   4.465 -0.3540  0.6567 -0.3095
 4226TIP3    H212643   2.936   4.841   4.589  0.9272 -1.0391 -0.6178
 4227TIP3   OH212644   5.173   5.202   3.388 -0.2428  0.0094  0.4333
 4227TIP3    H112645   5.182   5.117   3.431  0.4554 -0.1172  0.0513
 4227TIP3    H212646   5.080   5.224   3.398 -0.0978  0.0025  2.0121
 4228TIP3   OH212647   4.566   0.444   5.216 -0.2277 -0.1709  0.0353
 4228TIP3    H112648   4.595   0.531   5.244 -0.4861 -0.0068 -0.2011
 4228TIP3    H212649   4.637   0.385   5.243 -0.3700  0.0084  0.8392
 4229TIP3   OH212650   1.649   2.755   2.345 -0.5529  0.0283  0.8268
 4229TIP3    H112651   1.644   2.838   2.297 -0.2377 -0.7270 -0.5456
 4229TIP3    H212652   1.654   2.782   2.437  0.2335  1.5647  0.3815
 4230TIP3   OH212653   1.189   0.928   5.609 -0.1198  0.5874  0.0981
 4230TIP3    H112654   1.202   0.893   5.521  0.2771 -0.7805  0.6648
 4230TIP3    H212655   1.206   0.853   5.667  0.5834  1.6910  1.3762
 4231TIP3   OH212656   6.472   1.161   3.470  0.1135  0.2661 -0.1129
 4231TIP3    H112657   6.488   1.068   3.458  0.9917  0.5065 -0.8751
 4231TIP3    H212658   6.464   1.172   3.565 -0.6831 -0.6809 -0.0528
 4232TIP3   OH212659   6.896   3.432   3.003 -0.0868 -0.1893  0.3954
 4232TIP3    H112660   6.951   3.505   2.973 -0.5677  0.5419  1.2394
 4232TIP3    H212661   6.957   3.372   3.045  0.2273  0.0511  0.2887
 4233TIP3   OH212662   2.342   4.591   0.740  0.1843 -0.2117  0.4927
 4233TIP3    H112663   2.375   4.613   0.652 -0.2174  0.5813  0.5322
 4233TIP3    H212664   2.267   4.533   0.724  0.4009 -0.4490  0.3319
 4234TIP3   OH212665   6.465   6.372   1.488 -0.2133  0.1871 -0.7438
 4234TIP3    H112666   6.425   6.327   1.413 -1.3655 -0.0663 -0.0085
 4234TIP3    H212667   6.395   6.375   1.553  0.3205  1.7041 -0.2063
 4235TIP3   OH212668   3.489   5.412   4.979 -0.3612 -0.3710  0.3552
 4235TIP3    H112669   3.500   5.442   4.889 -0.3091 -0.6344  0.2743
 4235TIP3    H212670   3.445   5.485   5.023 -0.5402 -0.3106  0.0770
 4236TIP3   OH212671   4.088   5.957   0.671 -0.1335 -0.3376  0.6022
 4236TIP3    H112672   4.049   5.982   0.755 -2.4089  1.7967 -0.9480
 4236TIP3    H212673   4.114   6.040   0.631 -0.2986 -1.1796 -1.3357
 4237TIP3   OH212674   2.574   3.144   0.984 -0.4334  0.1869 -0.5851
 4237TIP3    H112675   2.533   3.170   1.066  1.1534 -0.5654  0.5006
 4237TIP3    H212676   2.666   3.165   0.995 -0.0464 -0.6724 -1.8621
 4238TIP3   OH212677   5.385   5.833   2.906 -0.0122 -0.3245 -0.4303
 4238TIP3    H112678   5.387   5.740   2.883  1.3861 -0.3023 -0.5269
 4238TIP3    H212679   5.345   5.836   2.992 -0.5879 -0.9616 -0.6698
 4239TIP3   OH212680   3.627   0.111   3.902  0.3821 -0.3972 -0.1719
 4239TIP3    H112681   3.607   0.125   3.995 -1.4768 -2.4899 -0.1794
 4239TIP3    H212682   3.688   0.037   3.902  1.8219  0.7529 -0.5744
 4240TIP3   OH212683   4.963   4.091   3.604  0.6433 -0.7067  0.2003
 4240TIP3    H112684   4.976   4.166   3.662  0.6123 -0.9243  0.4925
 4240TIP3    H212685   4.877   4.057   3.629  0.5246 -0.6577 -0.1385
 4241TIP3   OH212686   1.386   0.893   4.886 -1.1835  0.2621 -0.4861
 4241TIP3    H112687   1.426   0.976   4.910 -0.0094  0.4017 -2.7082
 4241TIP3    H212688   1.437   0.862   4.811 -1.9409 -2.1949 -0.0966
 4242TIP3   OH212689   4.783   2.834   0.769 -0.2215 -0.2147  0.2635
 4242TIP3    H112690   4.724   2.899   0.732  1.1275  1.2028  0.5213
 4242TIP3    H212691   4.859   2.884   0.799  0.0799 -1.6671  2.1390
 4243TIP3   OH212692   1.936   1.381   2.360 -0.1565  0.3488 -0.0282
 4243TIP3    H112693   2.021   1.424   2.359 -0.8045  1.7002 -0.5243
 4243TIP3    H212694   1.913   1.373   2.452  0.6191 -0.2757  0.1142
 4244TIP3   OH212695   2.910   2.577   5.278 -0.5685  0.1149  0.4622
 4244TIP3    H112696   2.927   2.638   5.350 -1.9742  0.6820  0.3529
 4244TIP3    H212697   2.892   2.633   5.202  2.3919 -0.4765 -0.7786
 4245TIP3   OH212698   0.753   5.657   2.620  0.3297  0.1538  0.1698
 4245TIP3    H112699   0.831   5.654   2.676 -0.3220  0.3491  1.1135
 4245TIP3    H212700   0.708   5.575   2.637 -1.8020  1.7255  2.8554
 4246TIP3   OH212701   0.983   5.982   1.411 -0.2219  0.1045 -0.2672
 4246TIP3    H112702   1.069   5.949   1.387 -0.0370  1.1655 -1.1882
 4246TIP3    H212703   0.995   6.022   1.497  0.1128 -0.1114 -0.2136
 4247TIP3   OH212704   5.533   0.778   0.521  0.0677  0.2501  0.0842
 4247TIP3    H112705   5.553   0.871   0.515  2.1518 -0.1533 -0.0416
 4247TIP3    H212706   5.593   0.737   0.458 -2.0941 -1.0356 -1.2591
 4248TIP3   OH212707   3.706   1.964   3.113 -0.0660  0.2256  0.0239
 4248TIP3    H112708   3.632   2.000   3.162  0.7931 -0.3801  1.8136
 4248TIP3    H212709   3.768   2.037   3.106 -0.4593  0.4948 -0.7500
 4249TIP3   OH212710   4.684   4.187   3.183  0.5564 -0.4126 -0.4290
 4249TIP3    H112711   4.610   4.180   3.243 -0.9309 -0.6539 -2.1802
 4249TIP3    H212712   4.762   4.185   3.239 -0.7630  0.5187  1.5272
 4250TIP3   OH212713   6.769   4.191   1.600  0.1442  0.0976  0.5155
 4250TIP3    H112714   6.857   4.227   1.593  0.2423 -0.2872 -0.3645
 4250TIP3    H212715   6.775   4.104   1.559 -1.0172  0.7305 -1.1075
 4251TIP3   OH212716   0.480   3.972   2.411  0.0599  0.2148  0.4215
 4251TIP3    H112717   0.403   3.963   2.355 -0.7710 -0.6883  1.6485
 4251TIP3    H212718   0.552   3.985   2.350 -1.0121  0.8146 -0.7770
 4252TIP3   OH212719   1.043   5.371   2.857  0.3180 -0.4669  0.3254
 4252TIP3    H112720   1.120   5.382   2.913  1.4230  1.7773 -1.4914
 4252TIP3    H212721   1.073   5.317   2.785 -0.1199 -0.4544  0.1312
 4253TIP3   OH212722   3.506   5.661   2.000  0.3929  0.2208 -0.6713
 4253TIP3    H112723   3.463   5.594   1.946 -0.7826  1.4884 -1.3738
 4253TIP3    H212724   3.476   5.744   1.964  0.2601  1.1381  1.3802
 4254TIP3   OH212725   0.524   1.102   4.614  0.2943  0.6477  0.0967
 4254TIP3    H112726   0.451   1.137   4.563 -1.0282 -1.3309  0.5180
 4254TIP3    H212727   0.554   1.177   4.666 -1.4746  1.5231 -0.0455
 4255TIP3   OH212728   4.422   2.526   1.466  0.0733 -0.2107 -0.0528
 4255TIP3    H112729   4.400   2.437   1.494 -0.3880 -0.2683 -0.5849
 4255TIP3    H212730   4.506   2.543   1.508  0.3765 -1.0614 -0.2784
 4256TIP3   OH212731   6.617   0.613   3.800 -0.4062 -0.7276 -0.3448
 4256TIP3    H112732   6.569   0.531   3.808  0.3641 -1.1687 -0.1381
 4256TIP3    H212733   6.706   0.591   3.828 -0.5498  0.5171  1.2226
 4257TIP3   OH212734   4.439   2.510   3.584  0.1517 -0.3600  0.1201
 4257TIP3    H112735   4.515   2.453   3.570 -0.6215 -0.9720 -1.8824
 4257TIP3    H212736   4.368   2.466   3.538 -1.0631  0.9801  0.6656
 4258TIP3   OH212737   0.190   4.233   4.255  0.2343 -0.1148 -0.3939
 4258TIP3    H112738   0.165   4.318   4.221 -1.5372 -0.4232  0.0634
 4258TIP3    H212739   0.175   4.172   4.182  0.6030 -0.1781 -0.4210
 4259TIP3   OH212740   0.389   3.139   2.998  0.0894 -0.4140 -0.5018
 4259TIP3    H112741   0.476   3.153   2.961  0.2947 -0.0818  0.0949
 4259TIP3    H212742   0.380   3.044   3.004  0.1048 -0.4720 -1.2668
 4260TIP3   OH212743   5.225   4.508   1.322  0.3423 -0.2367  0.0637
 4260TIP3    H112744   5.291   4.466   1.266 -1.4779 -1.6626 -1.1261
 4260TIP3    H212745   5.182   4.571   1.264 -0.4813 -0.5511  0.3261
 4261TIP3   OH212746   5.591   5.092   4.955  0.1518 -0.8236 -0.5711
 4261TIP3    H112747   5.530   5.069   4.885 -1.8031  2.0160 -0.0060
 4261TIP3    H212748   5.663   5.136   4.911 -0.5501 -0.0125 -0.9514
 4262TIP3   OH212749   2.885   2.445   0.844  0.1880 -0.0797  0.1264
 4262TIP3    H112750   2.947   2.516   0.828  0.2149 -0.1970 -0.2903
 4262TIP3    H212751   2.827   2.446   0.768  1.6227 -2.0204 -1.0841
 4263TIP3   OH212752   5.007   6.040   5.415  0.0592 -0.0344  0.0772
 4263TIP3    H112753   5.082   6.084   5.374  1.8737 -2.7951  0.2024
 4263TIP3    H212754   4.972   5.983   5.346  0.6127 -1.6932  1.1007
 4264TIP3   OH212755   3.133   1.417   4.699 -0.2136 -0.0174 -0.0424
 4264TIP3    H112756   3.118   1.466   4.780  1.3312 -0.9657  0.8795
 4264TIP3    H212757   3.153   1.484   4.633 -0.9783  0.7356  0.4889
 4265TIP3   OH212758   7.036   1.702   2.337 -0.1376  0.1644  0.4321
 4265TIP3    H112759   7.044   1.710   2.242  0.3718 -1.2326  0.3384
 4265TIP3    H212760   7.120   1.733   2.371  1.4784 -3.4521  0.1209
 4266TIP3   OH212761   5.582   6.499   4.191 -0.1870 -0.2996  0.2132
 4266TIP3    H112762   5.489   6.487   4.175 -0.2241  0.5422 -0.2892
 4266TIP3    H212763   5.610   6.561   4.123  1.2515 -2.3663 -1.2074
 4267TIP3   OH212764   2.816   2.336   0.049 -0.1581 -0.0413 -0.5402
 4267TIP3    H112765   2.727   2.350   0.019 -0.1227  1.0883 -0.1413
 4267TIP3    H212766   2.868   2.401   0.002  0.3379 -0.1677 -0.1762
 4268TIP3   OH212767   6.391   4.594   2.830 -0.0513  0.7000 -0.3129
 4268TIP3    H112768   6.328   4.615   2.762  0.4846  0.6977 -0.8219
 4268TIP3    H212769   6.390   4.498   2.835  0.3651  0.6650 -0.7726
 4269TIP3   OH212770   1.922   5.617   1.579  0.3762 -0.4668  0.1852
 4269TIP3    H112771   1.887   5.565   1.507  2.6639  0.1004 -1.4573
 4269TIP3    H212772   1.898   5.707   1.557  0.9458 -0.3056  0.2119
 4270TIP3   OH212773   1.270   1.986   0.929  0.6940 -0.0877 -0.1816
 4270TIP3    H112774   1.185   1.986   0.974 -0.0480 -2.2700 -1.4177
 4270TIP3    H212775   1.263   2.056   0.864  0.6400  1.0735  1.0376
 4271TIP3   OH212776   6.890   0.555   5.353 -0.2845 -0.3881 -0.1039
 4271TIP3    H112777   6.876   0.498   5.429 -2.3017 -0.6349 -0.6134
 4271TIP3    H212778   6.833   0.630   5.368 -0.2220 -0.1336 -1.0721
 4272TIP3   OH212779   1.949   4.998   5.009  0.5797  0.2811  0.0790
 4272TIP3    H112780   1.862   4.963   5.025  0.0466 -0.1052 -2.9524
 4272TIP3    H212781   2.009   4.930   5.038 -0.3230 -1.3706 -1.6841
 4273TIP3   OH212782   5.548   5.349   0.183  0.1865 -0.4316 -0.0403
 4273TIP3    H112783   5.472   5.380   0.232  0.1213  2.2079 -1.5806
 4273TIP3    H212784   5.512   5.321   0.098  0.7758 -0.2556 -0.3560
 4274TIP3   OH212785   5.205   0.260   0.102  0.5809  0.1215 -0.4074
 4274TIP3    H112786   5.115   0.234   0.118  1.1853 -1.2844  0.9525
 4274TIP3    H212787   5.252   0.236   0.182  1.5746  3.9722  0.3836
 4275TIP3   OH212788   0.409   0.244   0.733 -0.1329 -0.5973  0.4342
 4275TIP3    H112789   0.417   0.263   0.827  0.8986 -1.9366  0.6476
 4275TIP3    H212790   0.338   0.181   0.727  2.1451 -3.4227  0.8405
 4276TIP3   OH212791   6.296   2.331   4.157 -0.0694  0.5695  0.5745
 4276TIP3    H112792   6.390   2.323   4.144  0.0730 -0.1868  1.9253
 4276TIP3    H212793   6.282   2.424   4.174  0.7083  0.4205  2.2186
 4277TIP3   OH212794   1.327   2.155   0.482 -0.0364 -0.2870 -0.1853
 4277TIP3    H112795   1.399   2.095   0.504 -1.5807 -1.8719  0.8078
 4277TIP3    H212796   1.287   2.117   0.404  0.7710  1.1671 -1.3628
 4278TIP3   OH212797   6.125   2.684   1.159 -0.1671 -0.0673 -0.3839
 4278TIP3    H112798   6.070   2.664   1.084  0.2854 -3.3305  0.0167
 4278TIP3    H212799   6.064   2.709   1.229 -0.7551  0.6059 -1.1248
 4279TIP3   OH212800   0.697   5.305   3.229 -0.2248 -0.2469 -0.2899
 4279TIP3    H112801   0.648   5.244   3.284 -0.5292  0.1467 -0.1274
 4279TIP3    H212802   0.699   5.262   3.143  0.5389 -1.0201  0.0883
 4280TIP3   OH212803   3.895   3.761   0.956 -0.0485 -0.4462  0.7259
 4280TIP3    H112804   3.834   3.822   0.996 -0.6833 -0.7794  0.2828
 4280TIP3    H212805   3.890   3.779   0.862 -1.1871 -2.0027  0.4542
 4281TIP3   OH212806   4.803   5.499   1.893 -0.1663  0.1339  0.2389
 4281TIP3    H112807   4.711   5.472   1.886  0.2847 -1.3900 -0.3077
 4281TIP3    H212808   4.851   5.416   1.902  1.0046  0.9852  2.5903
 4282TIP3   OH212809   0.434   2.542   2.020  0.1295  0.1194 -0.1499
 4282TIP3    H112810   0.474   2.537   2.107  0.1553  0.4400 -0.1389
 4282TIP3    H212811   0.400   2.632   2.016  0.5237  0.2461 -0.6454
 4283TIP3   OH212812   1.952   0.293   3.974  0.3550 -0.1738  0.3263
 4283TIP3    H112813   1.929   0.295   4.067  2.1084  0.1605  0.7799
 4283TIP3    H212814   1.906   0.216   3.940  0.0788 -0.5863  1.5682
 4284TIP3   OH212815   6.209   1.382   1.979 -0.1336  0.1814 -0.2771
 4284TIP3    H112816   6.243   1.293   1.982  1.4459  0.7699  0.0868
 4284TIP3    H212817   6.256   1.424   1.906 -0.1775  0.9792  0.1416
 4285TIP3   OH212818   1.499   1.667   3.621 -0.3687 -0.9821 -0.1976
 4285TIP3    H112819   1.424   1.655   3.563  1.2556  0.2003 -2.7094
 4285TIP3    H212820   1.501   1.587   3.675 -1.9842 -2.1191 -1.7113
 4286TIP3   OH212821   3.146   3.388   2.873  0.5521 -0.1077  0.3212
 4286TIP3    H112822   3.207   3.349   2.810  1.2643 -0.2220  1.0678
 4286TIP3    H212823   3.109   3.313   2.919 -1.0470 -0.1252 -0.8868
 4287TIP3   OH212824   1.396   5.060   5.849  0.2947 -0.1865 -1.0688
 4287TIP3    H112825   1.474   5.113   5.862  0.3932 -0.2849 -1.2534
 4287TIP3    H212826   1.350   5.102   5.776 -1.0943  1.3398  0.5747
 4288TIP3   OH212827   5.633   0.804   5.230 -0.3307 -0.1269 -0.6078
 4288TIP3    H112828   5.678   0.850   5.301 -1.3419 -0.1894  0.1099
 4288TIP3    H212829   5.681   0.827   5.151 -0.4105  1.6449 -0.1827
 4289TIP3   OH212830   5.106   6.250   4.107 -0.4405  0.2474  0.1540
 4289TIP3    H112831   5.108   6.206   4.192 -0.4871  0.5843  0.3276
 4289TIP3    H212832   5.034   6.312   4.113 -1.1585 -0.4884 -0.5098
 4290TIP3   OH212833   4.085   2.442   4.036 -0.1581 -0.0662 -0.3956
 4290TIP3    H112834   4.041   2.493   3.968 -1.3732 -0.1293  0.3059
 4290TIP3    H212835   4.076   2.496   4.115 -0.7556 -0.9852  0.1817
 4291TIP3   OH212836   6.878   6.555   1.431 -0.1029  0.4903 -0.2762
 4291TIP3    H112837   6.952   6.528   1.377 -0.8726  0.2402 -1.2359
 4291TIP3    H212838   6.918   6.596   1.508  1.0091  1.2023 -1.2067
 4292TIP3   OH212839   7.027   4.276   4.525  0.0401 -0.1341 -0.1932
 4292TIP3    H112840   7.010   4.259   4.618 -0.8863  0.7434 -0.1813
 4292TIP3    H212841   6.958   4.338   4.500  0.3760 -0.2518 -1.4300
 4293TIP3   OH212842   3.083   0.882   4.134 -0.0884 -0.0906  0.0490
 4293TIP3    H112843   3.080   0.923   4.048 -0.4766 -1.7372 -0.7605
 4293TIP3    H212844   3.034   0.800   4.124  2.7818 -2.0775  0.8631
 4294TIP3   OH212845   0.704   5.132   0.617  0.2736  0.2759  0.8703
 4294TIP3    H112846   0.796   5.138   0.641  0.2517  1.3109  0.7541
 4294TIP3    H212847   0.702   5.155   0.524 -0.0052 -0.6046  0.6471
 4295TIP3   OH212848   1.338   4.703   3.530  0.2245 -0.1171  0.2079
 4295TIP3    H112849   1.340   4.715   3.435  0.3403  1.5707  0.4021
 4295TIP3    H212850   1.377   4.617   3.544 -1.2130 -1.0967 -1.3639
 4296TIP3   OH212851   1.400   0.070   3.717 -0.1024 -0.2057 -0.0716
 4296TIP3    H112852   1.408   0.144   3.658  0.3286  0.0798  0.3367
 4296TIP3    H212853   1.377   0.108   3.802  0.2859 -0.5132  0.1808
 4297TIP3   OH212854   2.516   1.629   4.261  0.1221  0.1477 -0.1436
 4297TIP3    H112855   2.538   1.677   4.341 -1.3224  1.6800 -0.6083
 4297TIP3    H212856   2.464   1.555   4.291 -1.4977  1.3994  0.3242
 4298TIP3   OH212857   3.574   3.848   5.153 -0.1719  0.0964  0.3867
 4298TIP3    H112858   3.587   3.753   5.152  0.8735  0.2051  1.0142
 4298TIP3    H212859   3.486   3.861   5.120 -0.5118 -1.1286  0.7538
 4299TIP3   OH212860   4.256   2.561   5.133  0.0294 -0.0294 -0.0463
 4299TIP3    H112861   4.227   2.615   5.059  1.0280 -0.3537 -0.6898
 4299TIP3    H212862   4.315   2.617   5.183  1.6184 -0.6987 -1.0976
 4300TIP3   OH212863   2.100   0.071   3.058 -0.1847 -0.2359 -0.3693
 4300TIP3    H112864   2.096  -0.014   3.102 -3.1756  0.3215  0.6506
 4300TIP3    H212865   2.034   0.124   3.103  2.2911  3.0408 -0.2113
 4301TIP3   OH212866   6.361   0.854   5.334 -0.1667  0.0091 -0.3648
 4301TIP3    H112867   6.344   0.767   5.370 -0.0905 -0.2766 -0.9941
 4301TIP3    H212868   6.333   0.848   5.242  1.9081 -0.0413 -1.0414
 4302TIP3   OH212869   3.295   4.001   4.252  0.1249 -0.4732  0.6454
 4302TIP3    H112870   3.287   4.047   4.169  0.3765 -1.3866  0.0974
 4302TIP3    H212871   3.277   3.909   4.231 -1.8065 -0.4573  1.9534
 4303TIP3   OH212872   5.900   5.055   3.066  0.4703 -0.0387  0.0902
 4303TIP3    H112873   5.807   5.078   3.070  0.9073  2.1928 -0.7533
 4303TIP3    H212874   5.928   5.056   3.157 -0.6416 -2.4748  0.5313
 4304TIP3   OH212875   1.123   1.524   5.370  0.5977  0.3597  0.0132
 4304TIP3    H112876   1.206   1.520   5.418  0.0019  1.8256  1.2526
 4304TIP3    H212877   1.147   1.561   5.285  1.1874  1.0219  0.4547
 4305TIP3   OH212878   6.158   4.493   5.103  0.1349  0.0066  0.4756
 4305TIP3    H112879   6.240   4.543   5.095 -0.0715  0.3985  0.7577
 4305TIP3    H212880   6.187   4.405   5.126  0.4928  0.0654  0.2703
 4306TIP3   OH212881   6.314   0.981   3.960  0.1848  0.2327 -0.2244
 4306TIP3    H112882   6.309   0.886   3.969  1.8479  0.2738  1.6237
 4306TIP3    H212883   6.407   1.000   3.954 -0.1024  1.8023 -0.1235
 4307TIP3   OH212884   4.304   3.364   5.548 -0.6826 -0.0115 -0.0353
 4307TIP3    H112885   4.303   3.459   5.554 -2.6123 -0.0820  2.4846
 4307TIP3    H212886   4.277   3.344   5.458  1.3693  1.7387 -1.1278
 4308TIP3   OH212887   3.059   1.891   5.831  0.4592  0.4085  1.0690
 4308TIP3    H112888   3.025   1.970   5.788 -0.0232  0.2163  1.0989
 4308TIP3    H212889   3.072   1.829   5.760  0.6185  0.4330  1.0759
 4309TIP3   OH212890   0.838   0.997   1.345 -0.5207 -0.1570  0.3368
 4309TIP3    H112891   0.760   0.957   1.386 -1.1203  0.0635 -0.5603
 4309TIP3    H212892   0.832   1.090   1.368 -1.1305  0.0556 -0.6572
 4310TIP3   OH212893   5.565   2.506   4.113 -0.4152  0.9806  0.2533
 4310TIP3    H112894   5.592   2.561   4.187  0.9394 -1.5267  1.7965
 4310TIP3    H212895   5.646   2.465   4.083 -1.2948  0.1505 -1.0733
 4311TIP3   OH212896   5.517   5.385   5.636 -0.0405  0.1290  0.4485
 4311TIP3    H112897   5.575   5.458   5.661  2.0665 -1.3686  0.1623
 4311TIP3    H212898   5.534   5.372   5.543  0.6610 -1.5843  0.7873
 4312TIP3   OH212899   5.425   5.964   3.408 -0.5258 -0.5145 -0.5380
 4312TIP3    H112900   5.520   5.968   3.409 -0.5601  0.6630 -0.1689
 4312TIP3    H212901   5.402   5.904   3.479 -0.0552 -1.3975 -1.1166
 4313TIP3   OH212902   5.099   3.751   0.210  0.0003  0.0880  0.2370
 4313TIP3    H112903   5.043   3.730   0.135  1.3527 -1.2591 -0.4477
 4313TIP3    H212904   5.151   3.826   0.181 -0.5894  0.5946  0.4495
 4314TIP3   OH212905   0.483   1.871   2.928 -0.2106  0.2468 -0.7353
 4314TIP3    H112906   0.434   1.951   2.947 -0.5612 -0.2854  0.7002
 4314TIP3    H212907   0.419   1.801   2.938  0.0270 -0.2331 -2.2448
 4315TIP3   OH212908   3.200   2.768   5.154 -0.2485  0.1740  0.5133
 4315TIP3    H112909   3.201   2.808   5.241 -1.0560  1.0494  0.1416
 4315TIP3    H212910   3.217   2.675   5.169  0.0861  0.3957  1.5504
 4316TIP3   OH212911   7.010   5.664   5.332  0.0880 -0.2285 -0.5947
 4316TIP3    H112912   7.065   5.608   5.386  0.2539 -0.0523 -0.5787
 4316TIP3    H212913   7.071   5.706   5.271  0.1576  0.9892  0.2917
 4317TIP3   OH212914   2.222   2.717   5.264  0.1769 -0.4150 -0.5617
 4317TIP3    H112915   2.225   2.712   5.360  0.6368  0.8469 -0.4929
 4317TIP3    H212916   2.313   2.709   5.237  0.2393  0.8446 -0.7816
 4318TIP3   OH212917   2.179   6.674   4.330  0.4248 -0.3701 -0.9716
 4318TIP3    H112918   2.177   6.768   4.313 -0.1560 -0.3167 -0.6371
 4318TIP3    H212919   2.264   6.659   4.372 -0.4598  0.4513  1.3079
 4319TIP3   OH212920   4.872   1.169   0.597 -0.0848 -0.3522 -0.0077
 4319TIP3    H112921   4.857   1.169   0.691  2.0675 -1.5773  0.4165
 4319TIP3    H212922   4.820   1.096   0.564 -0.3324 -0.3279  0.3230
 4320TIP3   OH212923   2.414   2.625   1.626 -0.1811  0.2276  0.1421
 4320TIP3    H112924   2.389   2.578   1.547 -0.0024 -0.9852  0.7810
 4320TIP3    H212925   2.399   2.562   1.697  1.0017  0.8017  0.9341
 4321TIP3   OH212926   5.867   1.466   3.438  0.0752 -0.0774 -0.7035
 4321TIP3    H112927   5.863   1.434   3.349  1.7186 -0.6744 -0.6034
 4321TIP3    H212928   5.961   1.466   3.459 -0.2861 -0.0618  1.0565
 4322TIP3   OH212929   1.556   2.469   1.544 -0.2975 -0.3026 -0.0506
 4322TIP3    H112930   1.468   2.473   1.580 -0.3338 -0.4963 -0.1167
 4322TIP3    H212931   1.582   2.377   1.554  0.1555 -0.1117  0.5839
 4323TIP3   OH212932   0.947   5.292   4.873  0.4087  0.9504 -0.1225
 4323TIP3    H112933   0.917   5.247   4.794  0.4829 -1.1269  0.9664
 4323TIP3    H212934   1.042   5.293   4.866  0.3752  2.6626 -0.9926
 4324TIP3   OH212935   6.755   2.383   2.810  0.1925  0.0107  0.3755
 4324TIP3    H112936   6.677   2.338   2.777  1.3269 -1.4387 -0.4121
 4324TIP3    H212937   6.727   2.417   2.896 -0.9332 -1.5965  0.6989
 4325TIP3   OH212938   7.034   2.569   2.217 -0.4128  0.0401 -0.2257
 4325TIP3    H112939   7.008   2.493   2.269  0.0973 -0.0304 -0.0710
 4325TIP3    H212940   7.129   2.570   2.222 -0.4377  0.9314  0.1091
 4326TIP3   OH212941   6.109   3.888   3.007 -0.4834 -0.1250 -0.4419
 4326TIP3    H112942   6.083   3.844   2.926  0.4940 -0.4859 -0.5757
 4326TIP3    H212943   6.061   3.843   3.076 -0.0164 -0.9605 -0.6483
 4327TIP3   OH212944   2.247   4.818   1.826 -0.1247  0.9666  0.5481
 4327TIP3    H112945   2.180   4.887   1.823  1.2487  2.3326 -0.1165
 4327TIP3    H212946   2.313   4.851   1.886 -0.6105 -0.9738  2.2783
 4328TIP3   OH212947   6.075   6.168   1.126  0.0824  0.3203 -0.0183
 4328TIP3    H112948   6.167   6.180   1.150  0.1314  1.5559 -0.7399
 4328TIP3    H212949   6.072   6.176   1.031 -0.7090 -0.2215 -0.0569
 4329TIP3   OH212950   4.575   2.371   1.198  0.3833  0.8646 -0.5594
 4329TIP3    H112951   4.581   2.365   1.294  0.0696 -1.4003 -0.6083
 4329TIP3    H212952   4.618   2.291   1.167  0.8007  1.7267 -2.3457
 4330TIP3   OH212953   7.078   2.633   3.043  0.3290 -0.5129  0.3552
 4330TIP3    H112954   7.154   2.616   2.988 -0.4543  1.4204 -1.4513
 4330TIP3    H212955   7.111   2.624   3.132  2.3689 -0.8976 -0.3808
 4331TIP3   OH212956   5.064   1.271   4.104 -0.5900 -0.4634  0.5762
 4331TIP3    H112957   5.053   1.353   4.055  2.7054  0.3689  0.9620
 4331TIP3    H212958   5.087   1.207   4.037 -1.1636 -0.5969  0.5015
 4332TIP3   OH212959   6.260   2.180   0.316  0.5225  0.5604 -0.0336
 4332TIP3    H112960   6.279   2.112   0.380 -1.4003  0.2443  0.2587
 4332TIP3    H212961   6.240   2.258   0.368 -0.0371  0.5834 -0.2835
 4333TIP3   OH212962   5.498   2.535   0.431  0.2822  0.5594 -0.1698
 4333TIP3    H112963   5.541   2.457   0.466 -0.3054  0.6745  0.8402
 4333TIP3    H212964   5.559   2.567   0.364  1.1596 -0.0058  0.3285
 4334TIP3   OH212965   2.660   6.525   3.252  0.4213 -0.0361 -0.4103
 4334TIP3    H112966   2.659   6.600   3.192  0.3301 -0.0896 -0.4752
 4334TIP3    H212967   2.570   6.493   3.252  0.3895  0.0555 -0.1312
 4335TIP3   OH212968   2.839   0.682   3.744  0.6167  0.4008 -0.2850
 4335TIP3    H112969   2.795   0.686   3.659 -0.0236 -0.8267 -0.0297
 4335TIP3    H212970   2.840   0.773   3.775  1.0076  0.8841 -1.6686
 4336TIP3   OH212971   5.176   1.802   5.434  0.5151 -0.5847  0.2664
 4336TIP3    H112972   5.187   1.707   5.445 -0.5028 -0.6531  0.8439
 4336TIP3    H212973   5.124   1.811   5.354  0.3335 -0.5380  0.3884
 4337TIP3   OH212974   4.469   2.538   2.702  0.0169 -0.3539  0.2407
 4337TIP3    H112975   4.455   2.632   2.689  1.9188 -0.1314 -0.5472
 4337TIP3    H212976   4.487   2.504   2.615  0.8856 -1.1548  0.7147
 4338TIP3   OH212977   1.455   2.343   3.646 -0.5103  0.3229  1.1213
 4338TIP3    H112978   1.369   2.367   3.613 -0.4242  0.3147  0.8848
 4338TIP3    H212979   1.443   2.256   3.684 -0.1949 -0.5717 -0.6941
 4339TIP3   OH212980   2.416   1.333   5.844  0.2373 -0.1456  0.6287
 4339TIP3    H112981   2.325   1.344   5.816  0.2687 -0.8022  0.2528
 4339TIP3    H212982   2.411   1.298   5.933  0.1363  1.5858  1.3452
 4340TIP3   OH212983   1.223   1.757   3.593 -0.1548 -0.2482 -0.2023
 4340TIP3    H112984   1.135   1.724   3.611 -0.3158 -0.1007 -0.6853
 4340TIP3    H212985   1.254   1.790   3.677 -0.1003 -1.3710  0.2257
 4341TIP3   OH212986   0.460   3.313   4.105  0.4369 -0.0431 -0.1296
 4341TIP3    H112987   0.432   3.400   4.132  0.8390  0.6209 -1.7387
 4341TIP3    H212988   0.555   3.321   4.093  0.5165 -0.7820 -0.0414
 4342TIP3   OH212989   3.115   3.751   1.500  0.2161 -0.0509 -0.0330
 4342TIP3    H112990   3.196   3.701   1.507  0.0188 -0.3253  0.3065
 4342TIP3    H212991   3.047   3.684   1.489 -0.0539  0.1423  0.4540
 4343TIP3   OH212992   3.053   1.789   0.281  0.1294  0.6319 -0.0770
 4343TIP3    H112993   2.961   1.799   0.259  0.4958  2.1402 -1.0579
 4343TIP3    H212994   3.100   1.808   0.200  1.3035 -0.4123  0.3281
 4344TIP3   OH212995   2.219   3.943   5.596 -0.0677  0.0244 -0.3226
 4344TIP3    H112996   2.294   3.988   5.556  0.5035 -0.9032 -0.3330
 4344TIP3    H212997   2.199   3.994   5.675 -1.5682  2.2306 -1.9793
 4345TIP3   OH212998   6.065   6.036   5.282  0.2705  0.0276 -0.8941
 4345TIP3    H112999   6.082   6.063   5.372  2.0056 -0.2637 -1.0973
 4345TIP3    H213000   6.002   5.964   5.289  1.2619 -0.7691  0.2011
 4346TIP3   OH213001   0.985   4.853   3.901  0.2361 -0.1333  0.3005
 4346TIP3    H113002   1.015   4.792   3.968 -0.5744 -0.7017  0.1580
 4346TIP3    H213003   0.916   4.806   3.854  2.4423 -0.7819 -2.6136
 4347TIP3   OH213004   3.527   3.956   3.626  0.0643  0.3717 -0.1603
 4347TIP3    H113005   3.473   3.932   3.702  0.9105  0.6782  0.5541
 4347TIP3    H213006   3.471   4.014   3.574 -0.1524  1.0517  0.7991
 4348TIP3   OH213007   4.134   4.203   2.704  0.0263  0.1239 -0.0939
 4348TIP3    H113008   4.155   4.129   2.761  1.1181  0.7542  0.3508
 4348TIP3    H213009   4.045   4.228   2.729 -0.4255 -1.1147 -0.3595
 4349TIP3   OH213010   2.406   6.062   1.064  0.0821  0.0600  0.0148
 4349TIP3    H113011   2.369   6.136   1.015 -1.0481 -1.1616 -1.0303
 4349TIP3    H213012   2.338   6.038   1.127 -0.0353 -0.8183 -0.4395
 4350TIP3   OH213013   4.591   4.521   4.860 -0.0838 -0.1602  0.0094
 4350TIP3    H113014   4.659   4.484   4.917 -0.1385  1.9747  1.6078
 4350TIP3    H213015   4.512   4.521   4.915  0.0095  2.5651  0.3133
 4351TIP3   OH213016   5.238   3.555   4.594 -0.2447  0.2568  0.2330
 4351TIP3    H113017   5.203   3.620   4.655  0.0933 -0.0649  0.7674
 4351TIP3    H213018   5.266   3.607   4.518  3.1531  1.2243  1.9605
 4352TIP3   OH213019   5.735   4.003   2.061  0.0573 -0.2381 -0.5573
 4352TIP3    H113020   5.647   4.010   2.022 -0.1378 -0.1475 -0.1005
 4352TIP3    H213021   5.791   3.981   1.987 -0.5398 -1.5129 -0.6521
 4353TIP3   OH213022   6.694   3.916   2.135  0.1662 -0.6050  0.2747
 4353TIP3    H113023   6.640   3.905   2.056  1.9851 -2.1637 -0.8418
 4353TIP3    H213024   6.783   3.895   2.106  0.9925 -0.5968  2.6208
 4354TIP3   OH213025   4.838   1.305   0.848  0.2406 -0.3578  0.0236
 4354TIP3    H113026   4.839   1.268   0.936 -0.5586  0.1143  0.2357
 4354TIP3    H213027   4.931   1.317   0.826  0.4263  0.3829  1.1664
 4355TIP3   OH213028   2.675   4.433   0.136  0.2550 -0.4693 -0.1354
 4355TIP3    H113029   2.700   4.364   0.075 -0.3225 -0.7983 -0.0074
 4355TIP3    H213030   2.632   4.387   0.208 -0.5087  0.0434 -0.2435
 4356TIP3   OH213031   3.548   4.458   3.520 -0.0590  0.0166  0.0298
 4356TIP3    H113032   3.606   4.423   3.587  1.0110  1.1670 -0.2569
 4356TIP3    H213033   3.526   4.546   3.550 -0.2481  0.2362 -0.7151
 4357TIP3   OH213034   0.196   0.940   1.372 -0.3334  0.1607 -0.1441
 4357TIP3    H113035   0.156   0.872   1.426  0.9362 -0.6772 -0.2183
 4357TIP3    H213036   0.274   0.898   1.335 -0.6441  1.0088 -1.8561
 4358TIP3   OH213037   2.647  -0.019   3.673 -0.1826 -0.2218  0.1260
 4358TIP3    H113038   2.715   0.026   3.623 -2.0549  0.8043 -1.6563
 4358TIP3    H213039   2.647   0.025   3.759  0.9850  0.1433 -0.0445
 4359TIP3   OH213040   3.707   2.620   4.103  0.1013  0.3616  0.0533
 4359TIP3    H113041   3.675   2.535   4.071  0.3035  1.1414 -2.3866
 4359TIP3    H213042   3.780   2.597   4.161  0.0527 -1.1482 -0.4284
 4360TIP3   OH213043   6.741   0.315   1.512 -0.4224  0.5971 -0.2640
 4360TIP3    H113044   6.824   0.288   1.472 -0.5932  0.6881 -0.6879
 4360TIP3    H213045   6.766   0.373   1.584 -0.0966  0.1877 -0.0483
 4361TIP3   OH213046   4.988   5.471   3.185 -0.1545  0.1205  0.3472
 4361TIP3    H113047   5.015   5.540   3.246 -0.9325  0.5931  0.1762
 4361TIP3    H213048   5.069   5.438   3.148  0.1980  1.8700 -0.5736
 4362TIP3   OH213049   2.480   6.734   3.585  0.0721 -0.3538 -0.1887
 4362TIP3    H113050   2.556   6.698   3.631  0.3552 -1.1248 -1.2298
 4362TIP3    H213051   2.456   6.667   3.521 -0.3463  0.6614 -1.1341
 4363TIP3   OH213052   0.241   5.095   1.580 -0.3660  0.4016 -0.5431
 4363TIP3    H113053   0.219   5.166   1.520 -2.7691 -1.2024 -1.7184
 4363TIP3    H213054   0.198   5.119   1.663  2.1360  2.1305  0.3891
 4364TIP3   OH213055   0.040   4.964   2.676 -0.2051 -0.5751 -0.4269
 4364TIP3    H113056   0.010   4.919   2.754  0.6594 -0.8755 -0.2645
 4364TIP3    H213057   0.133   4.982   2.691  0.8171 -3.3192 -2.5924
 4365TIP3   OH213058   1.094   1.595   4.470  0.3255  0.1079 -0.2317
 4365TIP3    H113059   1.055   1.526   4.416 -1.6983  1.1973 -0.2753
 4365TIP3    H213060   1.051   1.587   4.555 -1.3210  2.3640 -0.7634
 4366TIP3   OH213061   1.655   5.144   5.293 -0.1525 -0.1279 -0.2517
 4366TIP3    H113062   1.693   5.166   5.208  0.3294  2.2093  0.4964
 4366TIP3    H213063   1.583   5.207   5.304 -1.2788 -1.4544  0.4024
 4367TIP3   OH213064   3.136   6.610   5.313  0.0228  0.1936 -0.1443
 4367TIP3    H113065   3.069   6.603   5.382 -0.9185 -0.4794 -1.0982
 4367TIP3    H213066   3.199   6.541   5.333 -0.4498 -0.2465 -0.1717
 4368TIP3   OH213067   1.933   3.991   0.812 -0.1180  0.4191  0.9336
 4368TIP3    H113068   1.944   4.025   0.723 -0.9459 -1.2420  0.1451
 4368TIP3    H213069   1.873   4.054   0.854  0.8714  1.6311  0.5965
 4369TIP3   OH213070   0.514   4.754   1.474 -0.3602  0.1851  0.1212
 4369TIP3    H113071   0.422   4.761   1.500  0.1288  1.4636  1.6457
 4369TIP3    H213072   0.557   4.828   1.517  1.3913 -0.3924 -0.5534
 4370TIP3   OH213073   5.654   2.286   3.680 -0.0005  0.2199 -0.0378
 4370TIP3    H113074   5.654   2.381   3.688 -2.8318  0.2670  0.5427
 4370TIP3    H213075   5.636   2.269   3.588 -1.0139  0.3180  0.1265
 4371TIP3   OH213076   3.002   0.109   3.314  0.3640 -0.8894  0.1072
 4371TIP3    H113077   3.024   0.027   3.358  1.2943 -0.9900 -0.5271
 4371TIP3    H213078   2.996   0.085   3.221 -1.9135 -0.7552  0.1667
 4372TIP3   OH213079   2.328   4.528   4.769 -0.3388  0.7806 -0.0560
 4372TIP3    H113080   2.285   4.604   4.806  0.1305  0.3850  1.3588
 4372TIP3    H213081   2.327   4.543   4.675 -1.6491  1.7753  0.0935
 4373TIP3   OH213082   4.914   4.593   4.723 -0.6038  0.1655  0.0585
 4373TIP3    H113083   4.885   4.624   4.809 -0.3290  0.6227 -0.0125
 4373TIP3    H213084   4.937   4.673   4.675  0.6104 -0.1760  0.0513
 4374TIP3   OH213085   6.211   0.278   1.223 -0.0161 -0.4628 -0.3366
 4374TIP3    H113086   6.141   0.218   1.200 -0.3941  0.3726 -1.5149
 4374TIP3    H213087   6.291   0.226   1.214 -0.4900 -1.7035  2.0139
 4375TIP3   OH213088   5.928   0.338   5.337  0.4114 -0.7037 -0.0258
 4375TIP3    H113089   5.835   0.335   5.359  0.4693 -0.2945  0.2892
 4375TIP3    H213090   5.940   0.423   5.294  0.5064 -1.0522 -0.7142
 4376TIP3   OH213091   2.896   4.178   0.714 -0.4743 -0.0538  0.0388
 4376TIP3    H113092   2.844   4.247   0.755  0.2381  0.1200  0.6584
 4376TIP3    H213093   2.843   4.099   0.726 -0.7931  0.1959  0.2914
 4377TIP3   OH213094   4.042   0.629   0.697 -0.2365 -0.0777 -0.1469
 4377TIP3    H113095   4.064   0.587   0.780  0.9473  0.2913 -0.2454
 4377TIP3    H213096   4.114   0.604   0.638  0.4592  1.9463 -0.2367
 4378TIP3   OH213097   0.885   3.686   4.959  0.1316  0.7201 -0.2892
 4378TIP3    H113098   0.851   3.724   5.040  1.7227  1.6625 -0.0241
 4378TIP3    H213099   0.808   3.673   4.904 -1.0111 -0.0594  1.3972
 4379TIP3   OH213100   0.116   3.288   1.327  0.1743  0.0837 -0.4819
 4379TIP3    H113101   0.190   3.277   1.387  0.5233  1.9232 -0.5000
 4379TIP3    H213102   0.072   3.203   1.327  1.9390 -0.8890 -0.0155
 4380TIP3   OH213103   5.989   5.878   1.950 -0.4926 -0.2498 -0.7843
 4380TIP3    H113104   6.050   5.809   1.975 -0.9922  0.3382  2.5884
 4380TIP3    H213105   6.040   5.936   1.893  1.5292 -0.7873  0.3787
 4381TIP3   OH213106   3.214   4.416   4.277  0.3618 -0.6321  0.4162
 4381TIP3    H113107   3.258   4.492   4.239 -0.0466 -0.8640 -0.5356
 4381TIP3    H213108   3.126   4.447   4.298 -0.7234 -1.4661 -2.4138
 4382TIP3   OH213109   5.356   0.539   2.710  0.1657  0.1999  0.7518
 4382TIP3    H113110   5.295   0.585   2.768 -0.3453  0.3059  0.1427
 4382TIP3    H213111   5.438   0.536   2.759 -0.3783 -0.1220  1.6702
 4383TIP3   OH213112   5.381   3.515   0.776 -0.0280 -0.5498 -0.0452
 4383TIP3    H113113   5.449   3.534   0.711  0.5133  0.0034  0.6523
 4383TIP3    H213114   5.350   3.602   0.802  1.1825 -0.6262  1.8757
 4384TIP3   OH213115   3.454   2.619   1.654 -0.0889  0.0594 -0.6047
 4384TIP3    H113116   3.367   2.602   1.691  0.8828 -1.8890  0.9661
 4384TIP3    H213117   3.484   2.534   1.623  1.8539  0.3945  0.2514
 4385TIP3   OH213118   0.419   4.584   4.500  0.4333  0.0778  0.6436
 4385TIP3    H113119   0.401   4.546   4.585 -1.0943 -0.4772  0.1010
 4385TIP3    H213120   0.468   4.516   4.453  0.5433  0.0583  0.7867
 4386TIP3   OH213121   2.381   4.197   0.660  0.1526 -0.3359 -0.5561
 4386TIP3    H113122   2.400   4.210   0.753  0.1255 -1.7558 -0.3256
 4386TIP3    H213123   2.318   4.265   0.638  0.9543  0.6700  0.1940
 4387TIP3   OH213124   0.213   5.347   1.455 -0.0972  0.1599  0.0880
 4387TIP3    H113125   0.160   5.373   1.380 -0.4318  2.6035  1.0643
 4387TIP3    H213126   0.172   5.391   1.530 -0.5009 -3.0887  1.9854
 4388TIP3   OH213127   7.045   6.296   2.835  0.3946  0.4196 -0.1354
 4388TIP3    H113128   7.134   6.299   2.872  1.3108 -1.1130 -2.0251
 4388TIP3    H213129   7.056   6.250   2.752 -2.3049 -0.3720 -0.1190
 4389TIP3   OH213130   1.600   4.489   5.012 -0.3554 -0.0676 -0.1041
 4389TIP3    H113131   1.604   4.399   5.042 -1.5994 -0.7978 -2.0082
 4389TIP3    H213132   1.679   4.500   4.958  0.4026  0.3833  1.0480
 4390TIP3   OH213133   4.203   4.890   0.553 -0.4173  0.4566 -1.1378
 4390TIP3    H113134   4.278   4.832   0.548 -0.0919  0.7495 -0.0171
 4390TIP3    H213135   4.231   4.961   0.611 -0.8122  1.7359 -2.4548
 4391TIP3   OH213136   6.789   4.980   3.499 -0.1790  0.0153 -0.4192
 4391TIP3    H113137   6.868   4.971   3.446 -0.4827  1.4257 -1.1489
 4391TIP3    H213138   6.811   5.047   3.564 -0.6119  0.0804 -0.3352
 4392TIP3   OH213139   1.333   5.868   2.263 -0.0749 -0.2506  0.1282
 4392TIP3    H113140   1.260   5.850   2.322  0.8116 -3.0622  0.5584
 4392TIP3    H213141   1.411   5.841   2.312  1.2696  2.1748 -0.4993
 4393TIP3   OH213142   5.288   1.678   1.823  0.5428 -0.0193  0.4415
 4393TIP3    H113143   5.325   1.591   1.837  2.9635  0.9974  0.8452
 4393TIP3    H213144   5.302   1.695   1.730  0.1218 -0.0313  0.3739
 4394TIP3   OH213145   4.116   1.100   2.506 -0.1013 -0.0563 -0.1059
 4394TIP3    H113146   4.098   1.043   2.431  1.0285 -0.6104  0.0199
 4394TIP3    H213147   4.068   1.060   2.578 -0.4197 -0.0680 -0.3218
 4395TIP3   OH213148   0.255   5.097   3.641 -0.4240  0.2766 -0.4470
 4395TIP3    H113149   0.237   5.047   3.721  2.4564  1.7994  1.3772
 4395TIP3    H213150   0.278   5.031   3.576 -0.5844 -0.9424  0.6820
 4396TIP3   OH213151   5.987   0.506   3.692  0.2466 -0.4454  0.3053
 4396TIP3    H113152   6.069   0.484   3.737  0.8790  1.5676  0.2391
 4396TIP3    H213153   5.935   0.552   3.758 -0.1962 -0.3457 -0.1053
 4397TIP3   OH213154   1.302   4.025   3.392 -0.0706  0.3301  0.0185
 4397TIP3    H113155   1.317   3.947   3.446 -0.1268  0.1947 -0.1608
 4397TIP3    H213156   1.238   3.997   3.327  2.3820 -0.4990 -2.2247
 4398TIP3   OH213157   4.412   6.431   0.664  0.0618  0.2953 -0.3734
 4398TIP3    H113158   4.397   6.524   0.653 -0.4972  0.1289 -1.0783
 4398TIP3    H213159   4.505   6.419   0.643  0.0484  0.6377 -0.6350
 4399TIP3   OH213160   3.266   6.741   0.724 -0.6790 -0.0639  0.3062
 4399TIP3    H113161   3.355   6.740   0.690 -0.5396 -0.2841  0.6815
 4399TIP3    H213162   3.213   6.703   0.653 -0.3673 -0.6491  0.3761
 4400TIP3   OH213163   3.740   4.781   4.926  0.8954 -0.5421  0.0747
 4400TIP3    H113164   3.687   4.702   4.935 -2.8601  1.6748 -0.1793
 4400TIP3    H213165   3.767   4.802   5.015 -0.6427 -0.5932  0.5818
 4401TIP3   OH213166   4.184   4.532   1.418  0.1425  0.6704  0.1535
 4401TIP3    H113167   4.256   4.574   1.370 -1.1084  0.6152 -1.8633
 4401TIP3    H213168   4.161   4.456   1.364 -1.0609  0.3676  1.0661
 4402TIP3   OH213169   1.938   1.146   2.195 -0.0346 -0.0401  0.3607
 4402TIP3    H113170   1.981   1.209   2.252  1.0979 -0.9644  0.5649
 4402TIP3    H213171   1.846   1.171   2.197  0.3522  1.4844  0.5743
 4403TIP3   OH213172   3.856   4.267   1.015  0.2119 -0.2913  0.3682
 4403TIP3    H113173   3.905   4.307   1.087  0.9685  1.7295 -1.1660
 4403TIP3    H213174   3.788   4.331   0.994 -0.5709 -1.2568 -0.1496
 4404TIP3   OH213175   3.233   3.991   4.813  0.1294 -0.3512  0.6683
 4404TIP3    H113176   3.214   3.939   4.734  0.1454  1.0826 -0.3271
 4404TIP3    H213177   3.302   4.051   4.786 -1.4764  1.7905  1.0113
 4405TIP3   OH213178   1.086   2.349   0.183  0.2579 -0.6346  0.0159
 4405TIP3    H113179   1.007   2.347   0.236  0.2014  0.5662  0.0083
 4405TIP3    H213180   1.124   2.435   0.199  1.8688 -1.3791  0.4405
 4406TIP3   OH213181   4.271   6.632   3.939 -0.1395 -0.0281  0.2535
 4406TIP3    H113182   4.360   6.633   3.976 -0.4027 -0.9100  0.9343
 4406TIP3    H213183   4.233   6.550   3.970 -0.6424 -0.4332 -1.3469
 4407TIP3   OH213184   4.159   1.500   3.996 -0.5751  0.0081  0.2371
 4407TIP3    H113185   4.150   1.474   3.904 -1.8074  0.1717  0.3063
 4407TIP3    H213186   4.192   1.590   3.992 -1.3353  0.2771 -0.0554
 4408TIP3   OH213187   2.083   5.346   1.659  0.0890  0.1932  0.5308
 4408TIP3    H113188   2.084   5.428   1.609  4.6584 -1.0779 -2.1015
 4408TIP3    H213189   2.125   5.368   1.742  0.9962  0.6120 -0.0277
 4409TIP3   OH213190   5.054   5.567   1.037 -0.2025 -0.6579  0.3862
 4409TIP3    H113191   5.091   5.545   0.952  0.9189 -0.8757  0.9046
 4409TIP3    H213192   5.002   5.646   1.021 -0.6590 -1.1521 -0.6386
 4410TIP3   OH213193   0.343   2.943   1.729  0.4603  0.1251 -0.1727
 4410TIP3    H113194   0.435   2.966   1.732  0.1163  1.8736 -1.6237
 4410TIP3    H213195   0.324   2.931   1.636 -0.2250 -2.7791  0.2478
 4411TIP3   OH213196   4.255   5.354   0.327  0.0911  0.1778  0.2568
 4411TIP3    H113197   4.279   5.267   0.361 -2.2584 -0.1109  1.3530
 4411TIP3    H213198   4.226   5.337   0.237  0.2956 -0.0643  0.2333
 4412TIP3   OH213199   6.101   6.275   4.102  0.1380 -0.1373 -0.0067
 4412TIP3    H113200   6.072   6.278   4.193 -1.3517 -2.3274 -0.3218
 4412TIP3    H213201   6.020   6.272   4.051  0.9097 -1.3622 -1.2377
 4413TIP3   OH213202   6.063   5.278   1.573  0.0168 -0.1622  0.3437
 4413TIP3    H113203   6.011   5.348   1.533 -0.8775 -0.6868  0.5351
 4413TIP3    H213204   6.059   5.295   1.667  0.9415  0.2875  0.3073
 4414TIP3   OH213205   4.766   6.362   4.716  0.3663 -0.0701 -0.6641
 4414TIP3    H113206   4.676   6.389   4.702  0.5281  1.4361  0.8222
 4414TIP3    H213207   4.791   6.404   4.798  1.7092 -2.2669  0.1621
 4415TIP3   OH213208   5.296   3.140   3.964 -0.0038 -0.0399 -0.6322
 4415TIP3    H113209   5.328   3.206   4.025 -0.3789 -1.5629  1.3022
 4415TIP3    H213210   5.201   3.149   3.966 -0.0838 -0.8518 -0.0482
 4416TIP3   OH213211   1.238   3.286   0.155 -0.0812  0.0600  0.7373
 4416TIP3    H113212   1.212   3.237   0.233 -2.1750  2.1388  1.4743
 4416TIP3    H213213   1.327   3.257   0.137 -0.0336 -1.5300  3.0508
 4417TIP3   OH213214   4.183   6.702   5.388 -0.3910  0.1454  0.3334
 4417TIP3    H113215   4.275   6.686   5.367 -0.1403  0.6332  1.0412
 4417TIP3    H213216   4.176   6.797   5.396 -0.8714  0.0864  0.6855
 4418TIP3   OH213217   5.704   5.957   4.704  0.6013 -0.4957 -0.0189
 4418TIP3    H113218   5.661   5.929   4.623 -0.2879  1.8743 -0.4613
 4418TIP3    H213219   5.632   5.978   4.763  1.2458 -1.8456  1.3000
 4419TIP3   OH213220   5.614   6.011   0.149 -0.1030 -0.0827 -1.0913
 4419TIP3    H113221   5.624   5.923   0.186  1.7018  0.0816 -1.0656
 4419TIP3    H213222   5.540   6.049   0.196  0.0229 -1.0714 -0.0442
 4420TIP3   OH213223   0.197   6.410   0.773  0.4584  0.1067  0.2700
 4420TIP3    H113224   0.132   6.480   0.786  0.1311  0.2981 -2.0676
 4420TIP3    H213225   0.257   6.444   0.707  0.6211 -1.5936 -0.5067
 4421TIP3   OH213226   7.016   5.961   3.117 -0.0436 -0.0031  0.6286
 4421TIP3    H113227   7.040   6.037   3.064 -1.1614 -0.0318  0.0453
 4421TIP3    H213228   7.091   5.902   3.108  0.0118  0.2066 -0.5204
 4422TIP3   OH213229   4.752   0.115   0.448 -0.4207  0.2743 -0.1770
 4422TIP3    H113230   4.681   0.156   0.497  1.3568  1.1518  1.7890
 4422TIP3    H213231   4.773   0.036   0.498 -0.5159 -0.4436 -1.2185
 4423TIP3   OH213232   1.963   1.833   0.018 -0.1373  0.1980  0.7557
 4423TIP3    H113233   2.017   1.883   0.080  0.4929  0.1030  0.2897
 4423TIP3    H213234   2.020   1.764  -0.014 -0.4357  0.2959 -0.0027
 4424TIP3   OH213235   5.010   3.294   5.852 -0.4538  0.1936 -0.4045
 4424TIP3    H113236   5.080   3.297   5.917 -1.1984 -1.8760  0.5833
 4424TIP3    H213237   5.003   3.384   5.821  2.2310  0.6016 -0.1427
 4425TIP3   OH213238   1.268   3.470   0.953 -0.2827 -0.4626 -0.3354
 4425TIP3    H113239   1.253   3.471   0.859 -0.1570  2.6034 -0.3981
 4425TIP3    H213240   1.305   3.555   0.973  0.1721 -1.2111  2.4480
 4426TIP3   OH213241   0.717   6.704   1.312 -0.7983  0.1927 -0.1669
 4426TIP3    H113242   0.797   6.756   1.319 -1.6167  1.7632 -1.7391
 4426TIP3    H213243   0.674   6.714   1.397  1.4592 -2.1676  1.3787
 4427TIP3   OH213244   1.648   0.299   0.953 -0.9172  0.5645  0.3369
 4427TIP3    H113245   1.612   0.304   0.864  0.8939 -0.6367 -0.5249
 4427TIP3    H213246   1.700   0.219   0.953  0.9092  1.6770  1.7728
 4428TIP3   OH213247   1.979   4.202   1.401 -0.0058  0.4118 -0.1049
 4428TIP3    H113248   2.055   4.161   1.442 -1.2906 -0.1823  1.8697
 4428TIP3    H213249   1.951   4.139   1.334  1.2441  0.6713 -0.9023
 4429TIP3   OH213250   1.862   4.905   4.318 -0.0139 -0.2174 -0.3801
 4429TIP3    H113251   1.881   4.941   4.231  0.3777  1.5247  0.3797
 4429TIP3    H213252   1.769   4.885   4.316 -0.0502 -0.0081 -1.1390
 4430TIP3   OH213253   3.657   5.940   0.526 -0.5093  0.6106  0.5603
 4430TIP3    H113254   3.635   5.982   0.609  1.7825  0.6411  1.2277
 4430TIP3    H213255   3.731   5.883   0.548 -1.5795 -1.5061 -0.9294
 4431TIP3   OH213256   3.991   2.396   1.707  0.3673 -0.3892  0.1204
 4431TIP3    H113257   3.896   2.383   1.712  0.3107 -0.3251 -0.6652
 4431TIP3    H213258   4.011   2.453   1.782 -0.4380  0.8033 -0.5251
 4432TIP3   OH213259   3.814   5.562   1.917  0.5144  0.1253 -0.6049
 4432TIP3    H113260   3.756   5.566   1.841 -1.1504  0.7253  0.6464
 4432TIP3    H213261   3.804   5.473   1.950  0.5567  0.1299 -0.5795
 4433TIP3   OH213262   5.061   1.723   3.810 -0.3846  0.1051  0.2958
 4433TIP3    H113263   5.059   1.716   3.715  2.3937  1.0483  0.0715
 4433TIP3    H213264   5.002   1.797   3.830  0.2921  0.9942 -0.8725
 4434TIP3   OH213265   3.837   6.495   3.440  0.0075 -0.4646  0.0321
 4434TIP3    H113266   3.912   6.437   3.424  2.3202  1.5957  2.4325
 4434TIP3    H213267   3.790   6.454   3.512 -0.3827 -1.0266 -0.5274
 4435TIP3   OH213268   5.582   4.678   4.596 -0.2650 -0.0633  0.3683
 4435TIP3    H113269   5.595   4.663   4.690 -0.2525 -0.3728  0.3189
 4435TIP3    H213270   5.623   4.603   4.554  1.2934  0.9319  0.0288
 4436TIP3   OH213271   1.626   5.417   2.118  0.3886 -0.2314  0.0262
 4436TIP3    H113272   1.664   5.484   2.060  0.3800  1.2610  1.6656
 4436TIP3    H213273   1.553   5.462   2.162 -1.6753 -2.2435 -1.0751
 4437TIP3   OH213274   1.694   3.305   2.870  0.0594  0.9312  0.0761
 4437TIP3    H113275   1.787   3.298   2.890 -0.2463  0.4140  1.4951
 4437TIP3    H213276   1.673   3.224   2.824 -0.1021 -0.0416  1.7525
 4438TIP3   OH213277   3.719   0.375   2.436 -0.3094  0.3452  0.0328
 4438TIP3    H113278   3.810   0.394   2.461 -0.0232  1.9129 -1.8756
 4438TIP3    H213279   3.680   0.336   2.514  1.7201  0.5986  1.2570
 4439TIP3   OH213280   4.909   3.749   3.807 -0.0444  0.2795 -0.2861
 4439TIP3    H113281   4.896   3.784   3.718 -1.3856  1.3895  0.3109
 4439TIP3    H213282   5.001   3.722   3.808 -0.3402 -1.1289 -2.4614
 4440TIP3   OH213283   1.483   2.885   3.134  0.2053 -0.1011 -0.0984
 4440TIP3    H113284   1.499   2.794   3.159  1.9656  0.1117 -0.3341
 4440TIP3    H213285   1.460   2.880   3.041  1.5432 -0.2135 -0.4367
 4441TIP3   OH213286   3.123   4.575   5.672  0.2271  0.5229 -0.0202
 4441TIP3    H113287   3.115   4.493   5.721 -0.0045  0.5971  0.0663
 4441TIP3    H213288   3.048   4.627   5.700 -0.4263  0.2072 -1.1595
 4442TIP3   OH213289   0.941   1.396   3.645  0.4154  0.2920 -0.7162
 4442TIP3    H113290   0.966   1.487   3.663  1.6602  0.0857 -1.3343
 4442TIP3    H213291   0.850   1.403   3.615 -0.3110  1.0671  1.4321
 4443TIP3   OH213292   0.600   5.727   2.859 -0.0532  0.0313  0.0941
 4443TIP3    H113293   0.618   5.680   2.941  0.5090  1.8473  1.0900
 4443TIP3    H213294   0.639   5.673   2.791  0.5981 -0.9120  1.1697
 4444TIP3   OH213295   5.129   6.288   2.400 -0.2094  0.0427  0.1950
 4444TIP3    H113296   5.185   6.338   2.341  1.1210  0.4901  1.7778
 4444TIP3    H213297   5.070   6.354   2.438 -1.8002 -0.4088 -1.3807
 4445TIP3   OH213298   1.635   2.934   1.164 -0.1408 -0.2737 -0.0119
 4445TIP3    H113299   1.716   2.976   1.194 -0.7006  0.3956  0.6194
 4445TIP3    H213300   1.567   2.972   1.220 -0.5897 -2.6227  1.1589
 4446TIP3   OH213301   1.436   0.351   4.827  0.3714  0.2483  0.2344
 4446TIP3    H113302   1.412   0.269   4.870  0.8960 -0.5799 -0.9929
 4446TIP3    H213303   1.521   0.332   4.786 -0.3232  0.8179 -1.5591
 4447TIP3   OH213304   6.588   1.554   4.946  0.1014 -0.1721 -0.2165
 4447TIP3    H113305   6.500   1.558   4.982  0.0576  0.8856 -0.4123
 4447TIP3    H213306   6.632   1.486   4.997 -0.6608 -0.3227  0.2462
 4448TIP3   OH213307   2.883   2.437   1.974 -0.2726 -0.1844 -0.2143
 4448TIP3    H113308   2.970   2.477   1.980  0.1604 -1.0846 -0.2988
 4448TIP3    H213309   2.840   2.462   2.056 -1.0325  2.7036 -1.4005
 4449TIP3   OH213310   0.287   2.161   0.943  0.5921  0.2649 -0.0424
 4449TIP3    H113311   0.274   2.128   1.033  0.5719  1.3957  0.3791
 4449TIP3    H213312   0.215   2.123   0.893  0.3610 -0.0360  0.5081
 4450TIP3   OH213313   5.949   6.406   1.462  0.4282  0.6486  0.1541
 4450TIP3    H113314   5.902   6.473   1.412 -0.4371  0.2275  0.3922
 4450TIP3    H213315   5.916   6.415   1.551 -0.5974 -0.8658 -0.0305
 4451TIP3   OH213316   6.940   0.020   3.668 -0.0750 -0.4992  0.3261
 4451TIP3    H113317   7.008  -0.016   3.612  0.8785  1.6512 -0.0229
 4451TIP3    H213318   6.866   0.033   3.610  0.4600  0.4773 -0.1620
 4452TIP3   OH213319   4.322   3.635   5.049  0.1911  0.0072  0.2546
 4452TIP3    H113320   4.405   3.609   5.089  1.1363  1.5588 -0.5892
 4452TIP3    H213321   4.272   3.672   5.121 -0.0194 -1.4202  0.8801
 4453TIP3   OH213322   3.471   0.017   5.056  0.2175  0.1842 -0.3068
 4453TIP3    H113323   3.506   0.017   5.145  1.2292  3.6008 -0.5942
 4453TIP3    H213324   3.382   0.052   5.065 -0.2370 -0.8650 -0.5248
 4454TIP3   OH213325   7.208   2.747   1.413  0.2307  0.3603 -0.1654
 4454TIP3    H113326   7.220   2.652   1.413 -1.3667  0.1058  1.4099
 4454TIP3    H213327   7.113   2.760   1.412  0.4203  1.9753 -1.0592
 4455TIP3   OH213328   0.235   3.396   0.906 -0.1752  0.1404 -0.2975
 4455TIP3    H113329   0.322   3.418   0.872 -0.4783  1.7463 -0.1200
 4455TIP3    H213330   0.211   3.472   0.959 -0.1298 -1.8093  2.7503
 4456TIP3   OH213331   4.460   3.944   1.702  0.5275 -0.6454 -0.1715
 4456TIP3    H113332   4.374   3.969   1.668  1.3413 -0.0379 -1.8694
 4456TIP3    H213333   4.491   4.021   1.748  0.1147 -0.9211  0.5872
 4457TIP3   OH213334   6.070   6.203   0.842  0.3871 -0.2964 -0.2831
 4457TIP3    H113335   6.142   6.162   0.794  0.3376  0.2084 -0.7885
 4457TIP3    H213336   5.991   6.164   0.804  0.3847 -2.4605  1.6791
 4458TIP3   OH213337   2.239   1.225   3.261 -0.1928 -0.0802  0.0414
 4458TIP3    H113338   2.299   1.150   3.259 -1.5925 -1.2790  1.2036
 4458TIP3    H213339   2.264   1.273   3.340  0.1850  0.2519 -0.2754
 4459TIP3   OH213340   1.301   0.602   1.222 -0.0337 -0.0739  0.1214
 4459TIP3    H113341   1.350   0.619   1.303  0.5977 -2.1305  0.2110
 4459TIP3    H213342   1.214   0.575   1.252 -0.7877  2.0251 -0.0058
 4460TIP3   OH213343   1.356   6.353   4.254  0.5711 -0.4448 -0.0621
 4460TIP3    H113344   1.416   6.366   4.327  1.9374 -1.9749 -0.8614
 4460TIP3    H213345   1.405   6.302   4.191 -0.8745  0.0868 -1.7014
 4461TIP3   OH213346   3.949   4.185   4.953  0.3682 -0.1782 -0.8635
 4461TIP3    H113347   3.876   4.237   4.918 -0.5974 -0.9434 -0.0495
 4461TIP3    H213348   3.941   4.101   4.909  2.1624  0.4247 -2.4710
 4462TIP3   OH213349   5.178   4.816   4.088 -0.3466  0.4835  0.1157
 4462TIP3    H113350   5.092   4.857   4.091  0.0201  1.1960  1.4415
 4462TIP3    H213351   5.176   4.750   4.157 -0.3898 -0.6841 -0.9685
 4463TIP3   OH213352   1.968   0.430   5.478  0.4800 -0.3512  0.1628
 4463TIP3    H113353   1.943   0.384   5.558  1.0228 -2.0791 -0.5916
 4463TIP3    H213354   1.887   0.436   5.428  0.1230  0.8025  0.8538
 4464TIP3   OH213355   4.001   5.484   1.533  0.0251 -0.6764  0.1365
 4464TIP3    H113356   4.078   5.530   1.498 -0.8576  1.1043  0.4413
 4464TIP3    H213357   4.014   5.484   1.627 -0.0689 -0.9112  0.1497
 4465TIP3   OH213358   1.698   2.975   5.479  0.1536  0.5740 -0.0692
 4465TIP3    H113359   1.617   2.972   5.529 -0.9705 -0.8810 -1.8251
 4465TIP3    H213360   1.706   2.888   5.441  2.8059  0.5409  0.3790
 4466TIP3   OH213361   2.197   1.043   4.899  0.3503 -0.6209 -0.1223
 4466TIP3    H113362   2.282   0.999   4.891  0.2016 -0.7492 -1.2311
 4466TIP3    H213363   2.180   1.076   4.810 -2.1401 -3.1465 -0.7035
 4467TIP3   OH213364   1.825   2.231   5.798 -0.5047 -0.4173  0.0642
 4467TIP3    H113365   1.859   2.242   5.709 -0.2827 -1.8124 -0.0520
 4467TIP3    H213366   1.871   2.153   5.831 -0.2241  0.3668  1.5775
 4468TIP3   OH213367   1.728   3.708   5.116  0.6972 -0.2785 -0.4317
 4468TIP3    H113368   1.796   3.730   5.179 -0.9087  2.6140  0.4670
 4468TIP3    H213369   1.656   3.674   5.169  1.0586 -2.5274 -1.2839
 4469TIP3   OH213370   2.442   4.724   3.582  0.6441  0.4299  0.4413
 4469TIP3    H113371   2.484   4.808   3.598 -0.7040  1.3229 -0.5400
 4469TIP3    H213372   2.452   4.710   3.487 -2.2105  1.2492 -0.0555
 4470TIP3   OH213373   5.938   1.634   2.641  0.2813 -0.2498 -0.1240
 4470TIP3    H113374   5.869   1.699   2.631 -0.9734 -1.6151 -0.6507
 4470TIP3    H213375   6.000   1.653   2.571 -0.6378 -0.2868 -0.9628
 4471TIP3   OH213376   3.992   6.543   3.765 -0.0673  0.2437  0.4145
 4471TIP3    H113377   3.918   6.482   3.760  1.1023 -1.1438 -1.6671
 4471TIP3    H213378   4.039   6.518   3.845  0.1164 -1.3161 -0.1504
 4472TIP3   OH213379   2.426   1.550   5.614 -0.0250  0.1324  0.0658
 4472TIP3    H113380   2.483   1.476   5.632 -1.4410 -0.6803  1.4443
 4472TIP3    H213381   2.350   1.513   5.570 -1.2319  0.5552  1.7091
 4473TIP3   OH213382   2.311   6.309   0.234  0.2572 -0.3971  0.2314
 4473TIP3    H113383   2.330   6.355   0.315  0.2559  0.2595 -0.1359
 4473TIP3    H213384   2.364   6.353   0.168  0.4220 -1.0614 -0.0870
 4474TIP3   OH213385   0.725   1.049   5.370  0.0691 -0.2636  0.1476
 4474TIP3    H113386   0.819   1.060   5.356 -0.3498  0.1148 -3.1903
 4474TIP3    H213387   0.712   0.954   5.371  0.4150 -0.3205 -0.3073
 4475TIP3   OH213388   4.378   6.663   2.788 -0.2183 -0.0677  0.1888
 4475TIP3    H113389   4.340   6.742   2.752 -0.2786  0.1241  0.6643
 4475TIP3    H213390   4.346   6.659   2.878 -2.0509 -1.8267 -0.4697
 4476TIP3   OH213391   5.589   6.655   3.422  0.3910 -0.1839  0.1098
 4476TIP3    H113392   5.641   6.696   3.491 -1.2627  0.4082  1.0513
 4476TIP3    H213393   5.653   6.607   3.369  1.5962 -1.7616  2.8077
 4477TIP3   OH213394   4.722   2.917   1.317 -0.0549 -0.0784 -0.3630
 4477TIP3    H113395   4.693   2.919   1.408 -0.2203 -0.0212 -0.4160
 4477TIP3    H213396   4.704   2.828   1.287 -1.5941  0.3641 -0.8457
 4478TIP3   OH213397   2.094   1.810   5.709  0.5188 -0.3221 -0.7686
 4478TIP3    H113398   2.170   1.791   5.654  1.2087  1.8545 -0.6498
 4478TIP3    H213399   2.122   1.786   5.798  0.7142 -0.3950 -0.8492
 4479TIP3   OH213400   4.059   0.166   5.102 -0.0337 -0.3297  0.0849
 4479TIP3    H113401   4.137   0.111   5.101  0.2650  0.0900 -0.7552
 4479TIP3    H213402   4.057   0.205   5.015 -0.9916 -0.0662  0.2212
 4480TIP3   OH213403   0.647   5.233   2.496 -0.0455 -0.7258  0.5221
 4480TIP3    H113404   0.622   5.177   2.570  0.8389 -0.8149  0.7721
 4480TIP3    H213405   0.661   5.319   2.535 -0.5561 -0.5261  0.2803
 4481TIP3   OH213406   2.154   4.609   0.437 -0.1652 -0.1946 -0.2825
 4481TIP3    H113407   2.244   4.579   0.423 -0.3294 -0.2467 -1.2292
 4481TIP3    H213408   2.120   4.550   0.505  0.9207  0.6530  1.0433
 4482TIP3   OH213409   2.815   1.571   0.574  0.3410  0.2650 -0.4288
 4482TIP3    H113410   2.817   1.489   0.525 -0.1557  0.1216 -0.2190
 4482TIP3    H213411   2.895   1.569   0.627 -0.5587 -0.9579  0.9501
 4483TIP3   OH213412   4.236   4.778   4.355  0.4859  0.1050  0.0330
 4483TIP3    H113413   4.236   4.863   4.312  0.9082 -0.5431 -1.2975
 4483TIP3    H213414   4.310   4.731   4.316 -0.0999 -1.0874  0.3059
 4484TIP3   OH213415   3.672   3.900   1.843  0.4686  0.1190 -0.2051
 4484TIP3    H113416   3.597   3.958   1.831  0.6563  0.3756 -0.1472
 4484TIP3    H213417   3.641   3.814   1.813  0.5176  0.4728 -1.3082
 4485TIP3   OH213418   5.272   0.838   5.312 -0.0905  0.3201  0.7206
 4485TIP3    H113419   5.325   0.889   5.374 -2.1886  3.2997  0.2932
 4485TIP3    H213420   5.203   0.799   5.366 -1.4249  2.2304  0.5221
 4486TIP3   OH213421   0.132   2.412   2.938 -0.0499  0.4152  0.0676
 4486TIP3    H113422   0.088   2.469   2.875 -1.1648 -1.2015 -0.7100
 4486TIP3    H213423   0.225   2.429   2.926 -0.2946  0.8713 -1.2902
 4487TIP3   OH213424   5.191   0.702   5.059 -0.1417 -0.4553  0.2560
 4487TIP3    H113425   5.207   0.627   5.001 -0.6401  0.2331 -0.8015
 4487TIP3    H213426   5.115   0.746   5.021  0.4832  0.9097  0.5318
 4488TIP3   OH213427   4.994   0.242   5.095  0.1866 -0.1675 -0.2254
 4488TIP3    H113428   4.961   0.302   5.028  0.4463  0.1940 -0.0278
 4488TIP3    H213429   4.919   0.184   5.114  0.1820 -0.4320 -1.0035
 4489TIP3   OH213430   6.386   3.932   5.177 -0.6973  0.3763 -0.4978
 4489TIP3    H113431   6.363   3.893   5.093  1.3642  0.6069 -1.2373
 4489TIP3    H213432   6.470   3.892   5.200 -1.6211 -0.3471  1.9326
 4490TIP3   OH213433   0.469   6.164   5.420 -0.2198 -0.0111  0.0220
 4490TIP3    H113434   0.374   6.162   5.432 -0.1905 -0.0951  0.2412
 4490TIP3    H213435   0.501   6.216   5.493 -0.1779  0.8341 -0.5825
 4491TIP3   OH213436   6.863   1.002   4.974  0.3479 -0.4478 -0.4754
 4491TIP3    H113437   6.857   0.933   5.040  0.1917 -0.3779 -0.4159
 4491TIP3    H213438   6.896   0.958   4.896  0.5744 -0.5221 -0.3388
 4492TIP3   OH213439   0.477   2.910   1.287  0.6957 -0.3016 -0.2437
 4492TIP3    H113440   0.550   2.903   1.349 -0.4282  0.6588  1.2286
 4492TIP3    H213441   0.398   2.905   1.341 -0.3972 -2.2828 -1.9056
 4493TIP3   OH213442   3.312   0.668   5.343  0.4557  0.4166  0.0688
 4493TIP3    H113443   3.271   0.704   5.422  0.1061  0.2117 -0.0155
 4493TIP3    H213444   3.253   0.598   5.315  1.7343 -1.0905  0.9441
 4494TIP3   OH213445   3.520   1.594   4.959  0.2617  0.1208  0.0008
 4494TIP3    H113446   3.572   1.662   4.916  1.2592 -0.6432 -0.0332
 4494TIP3    H213447   3.444   1.641   4.995  1.9948  1.6540  1.8982
 4495TIP3   OH213448   4.670   6.319   0.881  0.4113 -0.4849 -0.1093
 4495TIP3    H113449   4.706   6.343   0.796 -1.5284  1.8009 -0.3798
 4495TIP3    H213450   4.717   6.374   0.944  0.2657 -0.5068  0.0201
 4496TIP3   OH213451   3.828   2.670   0.002  0.1073  0.5560 -0.4825
 4496TIP3    H113452   3.738   2.658  -0.028 -0.5910 -1.2058  1.9741
 4496TIP3    H213453   3.827   2.753   0.050 -0.7926 -0.3584  1.1892
 4497TIP3   OH213454   6.489   1.989   2.574 -0.2609 -0.4509 -0.0693
 4497TIP3    H113455   6.423   1.940   2.623  0.0315 -0.8327 -0.0451
 4497TIP3    H213456   6.572   1.963   2.615 -0.0485 -0.4485 -0.4951
 4498TIP3   OH213457   4.179   6.400   3.576  0.4300 -0.2928  0.2388
 4498TIP3    H113458   4.188   6.495   3.588 -0.3744 -0.5412  3.8856
 4498TIP3    H213459   4.238   6.362   3.640  0.0316 -2.2717 -0.5070
 4499TIP3   OH213460   6.136   0.991   3.482  0.0675  0.1478  0.1471
 4499TIP3    H113461   6.203   1.043   3.528 -0.1573  0.3214  0.2805
 4499TIP3    H213462   6.073   0.968   3.550 -0.2759  0.4188 -0.0800
 4500TIP3   OH213463   2.397   6.159   5.416 -0.2105 -0.8750 -0.2387
 4500TIP3    H113464   2.329   6.165   5.349  0.4393 -0.9909 -0.9128
 4500TIP3    H213465   2.472   6.204   5.378  0.8214 -2.6535 -0.4095
 4501TIP3   OH213466   4.398   0.380   3.801  0.3603 -0.8052  0.2009
 4501TIP3    H113467   4.403   0.386   3.896  0.5847 -1.2352  0.2147
 4501TIP3    H213468   4.323   0.322   3.785 -0.0714 -0.2316  0.1035
 4502TIP3   OH213469   5.768   4.933   2.076 -0.1122 -0.4494  0.5654
 4502TIP3    H113470   5.796   4.861   2.019 -0.0432  0.2570 -0.3123
 4502TIP3    H213471   5.803   4.910   2.162  1.3735 -0.6525 -0.0565
 4503TIP3   OH213472   4.291   2.200   4.291  0.3210  0.4710 -0.0429
 4503TIP3    H113473   4.211   2.239   4.326  0.9033  1.1554  0.5565
 4503TIP3    H213474   4.302   2.119   4.341 -1.0728 -0.7046 -1.5188
 4504TIP3   OH213475   2.553   1.815   3.491  0.5281 -0.0156 -0.5454
 4504TIP3    H113476   2.552   1.899   3.536 -1.1564 -0.0014 -0.5548
 4504TIP3    H213477   2.641   1.808   3.454  1.1588  1.0716  0.6727
 4505TIP3   OH213478   4.568   0.164   4.323  0.0612 -0.0573 -0.3536
 4505TIP3    H113479   4.475   0.160   4.303 -0.1629 -0.1644  0.6477
 4505TIP3    H213480   4.572   0.190   4.415  1.0159 -0.1801 -0.3446
 4506TIP3   OH213481   0.345   5.617   4.577 -0.6740  0.4801 -0.3832
 4506TIP3    H113482   0.355   5.539   4.631 -1.1528  0.7774  0.1417
 4506TIP3    H213483   0.331   5.583   4.488  1.6039  0.0020 -0.6223
 4507TIP3   OH213484   1.547   2.002   0.474  0.1367  0.0575 -0.3475
 4507TIP3    H113485   1.570   2.041   0.390 -1.1197  0.6361 -0.4578
 4507TIP3    H213486   1.630   1.987   0.519  0.7818  0.3014 -1.4474
 4508TIP3   OH213487   1.475   6.079   2.428  0.3261 -0.4386 -0.4629
 4508TIP3    H113488   1.381   6.060   2.424  0.2371 -0.5023  1.1959
 4508TIP3    H213489   1.518   5.994   2.420  0.0836 -0.9070  2.2581
 4509TIP3   OH213490   4.700   4.005   5.640 -0.0147  0.6106 -0.1268
 4509TIP3    H113491   4.710   4.077   5.703  0.2369  0.2012  0.3083
 4509TIP3    H213492   4.688   3.927   5.694 -0.6208  0.3699 -0.6003
 4510TIP3   OH213493   1.474   5.051   2.026  0.4878  0.0026 -0.1526
 4510TIP3    H113494   1.459   4.957   2.035 -0.2142 -0.1112 -2.0557
 4510TIP3    H213495   1.389   5.086   1.997  0.7612  1.2213  0.4564
 4511TIP3   OH213496   3.016   5.679   0.140  0.1816 -0.4048  0.2730
 4511TIP3    H113497   3.070   5.753   0.167  2.3365 -0.9406 -2.1457
 4511TIP3    H213498   3.019   5.680   0.044 -2.3541 -1.8034  0.0810
 4512TIP3   OH213499   5.214   4.469   0.690  0.1194  0.2797  0.3484
 4512TIP3    H113500   5.132   4.439   0.651  0.0522  1.2730 -0.3350
 4512TIP3    H213501   5.206   4.450   0.783 -0.3855 -0.7155  0.1122
 4513TIP3   OH213502   1.392   1.153   2.161 -0.0881  0.3958 -0.1591
 4513TIP3    H113503   1.448   1.075   2.158  0.6086  0.9045 -0.8305
 4513TIP3    H213504   1.440   1.219   2.110 -0.6419  1.2780  0.4207
 4514TIP3   OH213505   7.129   5.373   1.904 -0.1952  0.0899  0.8295
 4514TIP3    H113506   7.132   5.397   1.997  0.3256 -0.2525  0.9037
 4514TIP3    H213507   7.060   5.429   1.867 -0.2196  0.4207  1.3639
 4515TIP3   OH213508   4.378   5.333   4.956  0.2909  0.2556 -0.3329
 4515TIP3    H113509   4.457   5.287   4.984  0.4631  1.0886  0.5971
 4515TIP3    H213510   4.307   5.273   4.979  0.5680  0.0761  0.0836
 4516TIP3   OH213511   0.389   0.865   3.949  0.2850  0.4602 -0.2904
 4516TIP3    H113512   0.351   0.794   4.002 -0.2851  0.3111 -0.8782
 4516TIP3    H213513   0.475   0.832   3.922  1.6523  1.4886  2.4882
 4517TIP3   OH213514   3.236   3.299   1.974 -0.2518 -0.5299 -0.1636
 4517TIP3    H113515   3.264   3.370   2.032  0.1927 -0.5684 -0.3218
 4517TIP3    H213516   3.173   3.340   1.914  0.7588 -0.0114 -0.9092
 4518TIP3   OH213517   2.349   5.034   0.848  0.0029 -0.5848  0.1312
 4518TIP3    H113518   2.296   4.957   0.866 -1.7689  0.8811  1.6495
 4518TIP3    H213519   2.329   5.094   0.920  1.1587  1.3576 -1.0822
 4519TIP3   OH213520   6.644   1.857   0.590  0.2406  0.0575 -0.4525
 4519TIP3    H113521   6.560   1.816   0.572  0.8152 -1.9781  1.1744
 4519TIP3    H213522   6.707   1.805   0.540  0.7271  0.4787 -0.2834
 4520TIP3   OH213523   0.900   2.769   5.290 -0.2900  0.1316 -0.1109
 4520TIP3    H113524   0.931   2.841   5.236 -0.5734  0.1991 -0.1864
 4520TIP3    H213525   0.807   2.789   5.306 -0.7966 -1.0134 -1.4567
 4521TIP3   OH213526   6.540   2.083   0.082  0.1678  0.4585  0.0416
 4521TIP3    H113527   6.549   2.154   0.018 -0.2763  0.1678 -0.3474
 4521TIP3    H213528   6.527   2.005   0.029 -3.8951  0.6876  0.4464
 4522TIP3   OH213529   3.143   2.763  -0.020  0.0161  0.3836 -0.6417
 4522TIP3    H113530   3.142   2.811   0.062  1.3323  1.1111 -1.0187
 4522TIP3    H213531   3.165   2.673   0.005  0.1608  0.5480 -0.1650
 4523TIP3   OH213532   6.352   3.255   0.724 -0.6576  0.5100 -0.3904
 4523TIP3    H113533   6.391   3.221   0.644 -1.0857  1.4128 -1.0010
 4523TIP3    H213534   6.268   3.211   0.732  0.5292 -1.6627  1.0859
 4524TIP3   OH213535   4.773   6.762   3.541 -0.6512  0.4179  0.0476
 4524TIP3    H113536   4.853   6.801   3.506 -0.2418  0.7440  1.2979
 4524TIP3    H213537   4.798   6.673   3.565 -1.2483 -0.2225 -1.5817
 4525TIP3   OH213538   2.632   4.545   4.770  0.0955 -0.2457 -0.3414
 4525TIP3    H113539   2.603   4.527   4.681  0.5377  0.0993 -0.5582
 4525TIP3    H213540   2.551   4.545   4.822 -0.3103  0.7480 -0.9447
 4526TIP3   OH213541   0.198   2.323   3.794 -0.4906 -0.2377 -0.1021
 4526TIP3    H113542   0.112   2.358   3.818  0.1765  0.7326  0.9869
 4526TIP3    H213543   0.182   2.230   3.776 -1.5836 -0.3382  1.1957
 4527TIP3   OH213544   2.136   2.165   0.578  0.5281 -0.0892  0.1032
 4527TIP3    H113545   2.090   2.241   0.612 -1.7742 -0.9549 -0.9069
 4527TIP3    H213546   2.156   2.112   0.655 -1.7844 -0.5137  0.4743
 4528TIP3   OH213547   2.748   4.889   1.932 -0.5529 -0.8047 -0.0876
 4528TIP3    H113548   2.813   4.846   1.987 -0.4968 -3.6072 -2.1553
 4528TIP3    H213549   2.794   4.963   1.893  0.8171 -1.5798  0.0047
 4529TIP3   OH213550   6.195   2.309   2.534  0.2159 -0.0756  0.0857
 4529TIP3    H113551   6.104   2.285   2.550  0.8890 -2.9194  0.2763
 4529TIP3    H213552   6.204   2.397   2.569 -2.7143  0.7536 -1.0090
 4530TIP3   OH213553   2.083   5.354   3.398 -0.0113  0.3661 -0.5149
 4530TIP3    H113554   2.022   5.400   3.455 -0.3800  0.1990 -0.7724
 4530TIP3    H213555   2.046   5.363   3.310 -1.2078 -2.1552 -0.3595
 4531TIP3   OH213556   6.121   0.782   3.143  0.1206 -0.7021 -0.7690
 4531TIP3    H113557   6.180   0.744   3.078  0.7946  0.7423 -1.0301
 4531TIP3    H213558   6.039   0.732   3.133  0.0703 -0.2557 -3.0138
 4532TIP3   OH213559   1.417   1.357   5.716  0.1922 -0.2839  0.2936
 4532TIP3    H113560   1.331   1.342   5.754  0.1126 -1.5608 -0.3169
 4532TIP3    H213561   1.472   1.385   5.789 -0.3312 -1.1537  1.0304
 4533TIP3   OH213562   2.799   4.189   0.089  0.1034  0.3087  0.4247
 4533TIP3    H113563   2.760   4.103   0.109 -0.2271  0.3444 -0.0435
 4533TIP3    H213564   2.840   4.178   0.004 -0.1712  0.6877  0.2395
 4534TIP3   OH213565   1.932   6.005   4.958  0.6229 -0.0175 -0.3330
 4534TIP3    H113566   1.936   5.910   4.971  1.8372 -0.1171 -1.3483
 4534TIP3    H213567   1.862   6.034   5.018  0.9710 -1.3965  0.7904
 4535TIP3   OH213568   5.731   2.946   5.786  0.5678  0.0539 -0.5126
 4535TIP3    H113569   5.762   2.856   5.777 -0.0962 -0.0902 -1.5329
 4535TIP3    H213570   5.718   2.976   5.696 -2.0393  0.1744 -0.1666
 4536TIP3   OH213571   7.112   5.820   1.844 -0.3056  0.5505 -0.1189
 4536TIP3    H113572   7.023   5.785   1.841 -0.0963 -0.0407  0.4064
 4536TIP3    H213573   7.133   5.839   1.753  0.4384 -2.9364 -0.8383
 4537TIP3   OH213574  -0.000   1.621   1.474  0.0033  0.5552  0.3726
 4537TIP3    H113575   0.014   1.666   1.557  1.6464  1.1934 -0.2149
 4537TIP3    H213576   0.037   1.534   1.487  0.2448  0.6490  0.3039
 4538TIP3   OH213577   5.418   3.723   3.615 -0.2577  0.1731  0.4535
 4538TIP3    H113578   5.501   3.675   3.618  0.2499  0.8601 -1.3434
 4538TIP3    H213579   5.441   3.813   3.638 -0.0022  0.8918 -2.2787
 4539TIP3   OH213580   1.191   4.708   5.399  0.3944 -0.1368 -0.0741
 4539TIP3    H113581   1.183   4.779   5.335  0.9184  0.0258  0.0361
 4539TIP3    H213582   1.225   4.751   5.478  0.9485 -0.5502 -0.0826
 4540TIP3   OH213583   1.312   1.743   4.894 -0.2976 -0.1412 -0.4831
 4540TIP3    H113584   1.307   1.648   4.883  1.0772 -0.5535  1.8861
 4540TIP3    H213585   1.401   1.765   4.870 -0.4150  0.4632 -0.3643
 4541TIP3   OH213586   4.444   2.457   4.206 -0.0254  0.0649 -0.2827
 4541TIP3    H113587   4.380   2.385   4.213  1.1339 -1.0118 -0.3701
 4541TIP3    H213588   4.445   2.496   4.293 -1.3834  0.6276 -0.4955
 4542TIP3   OH213589   3.430   2.566   2.824  0.0291 -0.1884  0.4914
 4542TIP3    H113590   3.360   2.604   2.877 -0.1955  1.1393 -0.7086
 4542TIP3    H213591   3.508   2.615   2.849  0.1800 -0.4415  0.5215
 4543TIP3   OH213592   6.774   6.761   0.810  0.1671 -0.0764 -0.2528
 4543TIP3    H113593   6.721   6.715   0.746  0.0274 -0.0935 -0.1260
 4543TIP3    H213594   6.792   6.846   0.770  0.9259 -0.4603 -0.7386
 4544TIP3   OH213595   6.500   5.745   2.889 -0.2444  0.2195 -0.1919
 4544TIP3    H113596   6.541   5.812   2.944 -0.2136 -0.0973  0.1769
 4544TIP3    H213597   6.420   5.722   2.936 -1.4937  1.6877 -1.4967
 4545TIP3   OH213598   3.150   0.898   2.082  0.4826  0.1478  0.6055
 4545TIP3    H113599   3.160   0.990   2.106  0.9662 -0.0053  1.0163
 4545TIP3    H213600   3.159   0.897   1.987  2.1466  0.3282  0.7285
 4546TIP3   OH213601   1.460   4.573   5.215  0.2052  0.0113 -0.0894
 4546TIP3    H113602   1.485   4.537   5.130  1.7451  0.4635  0.1483
 4546TIP3    H213603   1.444   4.666   5.197 -0.9850 -0.1846 -0.1535
 4547TIP3   OH213604   5.982   2.145   0.870  0.2917 -0.0236  0.0171
 4547TIP3    H113605   6.008   2.079   0.934  0.4917  1.4584  1.5602
 4547TIP3    H213606   6.063   2.166   0.824  0.9821  1.3268  1.7019
 4548TIP3   OH213607   6.465   5.376   1.007  0.0325  0.0416 -0.1835
 4548TIP3    H113608   6.449   5.462   0.968 -0.4397 -0.6094 -1.4875
 4548TIP3    H213609   6.535   5.338   0.954  0.2549 -0.3697  0.3970
 4549TIP3   OH213610   4.540   5.470   1.908  0.3073 -0.2061 -0.5711
 4549TIP3    H113611   4.482   5.505   1.840  0.1257 -0.4757 -0.5587
 4549TIP3    H213612   4.524   5.526   1.984  1.4224  0.8806 -1.1032
 4550TIP3   OH213613   2.380   0.221   2.332  0.3461 -0.2155  0.5775
 4550TIP3    H113614   2.450   0.172   2.289  1.4284  0.9079  1.0046
 4550TIP3    H213615   2.424   0.295   2.373 -1.0863  0.4601  0.9607
 4551TIP3   OH213616   0.001   6.304   0.945 -0.7411 -0.0890  0.5203
 4551TIP3    H113617   0.085   6.327   0.905 -1.8274  0.2716 -1.7047
 4551TIP3    H213618   0.005   6.209   0.956  0.0823 -0.0307  0.7934
 4552TIP3   OH213619   5.758   1.358   4.137  0.2153  0.1167 -0.1232
 4552TIP3    H113620   5.838   1.381   4.090 -1.1315  1.0004 -2.0948
 4552TIP3    H213621   5.699   1.432   4.122 -1.2822 -0.8963  0.5453
 4553TIP3   OH213622   4.205   6.473   2.655  0.4675  0.0057  0.0089
 4553TIP3    H113623   4.169   6.502   2.738 -0.9433 -0.7774 -0.2864
 4553TIP3    H213624   4.151   6.517   2.589 -0.8139 -2.0945 -0.4373
 4554TIP3   OH213625   5.005   0.124   2.514 -0.3233 -0.2431 -0.1009
 4554TIP3    H113626   5.052   0.049   2.475 -0.4107 -0.2200 -0.2516
 4554TIP3    H213627   4.978   0.176   2.439 -1.3538 -0.7054 -0.0711
 4555TIP3   OH213628   5.538   1.900   2.260  0.3607 -0.3418  0.1136
 4555TIP3    H113629   5.495   1.897   2.174  2.7830 -1.8024 -1.1587
 4555TIP3    H213630   5.553   1.993   2.276  0.3798 -0.0674 -1.3564
 4556TIP3   OH213631   2.228   1.730   4.317 -0.4011 -0.3152 -0.4929
 4556TIP3    H113632   2.247   1.750   4.225 -0.0397 -1.4572 -0.6841
 4556TIP3    H213633   2.240   1.814   4.362 -1.3545  0.4480 -1.5822
 4557TIP3   OH213634   1.495   3.500   3.886 -0.3209 -0.7786 -0.4213
 4557TIP3    H113635   1.581   3.466   3.911 -0.1224 -1.6592 -2.1795
 4557TIP3    H213636   1.455   3.430   3.835 -2.0848 -0.3626  0.3426
 4558TIP3   OH213637   1.448   3.237   5.197 -0.4015  0.0149  0.0762
 4558TIP3    H113638   1.542   3.239   5.217  0.2124 -0.2943 -2.3984
 4558TIP3    H213639   1.422   3.329   5.198  1.1099  0.6876 -3.5913
 4559TIP3   OH213640   2.281   2.176   1.242  0.1785  0.1686 -0.4514
 4559TIP3    H113641   2.210   2.112   1.244 -0.8919  1.3312  1.8549
 4559TIP3    H213642   2.322   2.163   1.156 -1.8522 -1.5558 -1.2475
 4560TIP3   OH213643   3.730   2.207   1.526  0.0485  0.0268 -0.1408
 4560TIP3    H113644   3.754   2.240   1.613 -0.3473  0.8374 -0.3252
 4560TIP3    H213645   3.729   2.112   1.536  2.5332 -0.0402  0.0837
 4561TIP3   OH213646   1.994   1.380   4.003  0.1892  0.4473  0.0175
 4561TIP3    H113647   2.060   1.444   3.977  0.0204  0.1425 -1.2311
 4561TIP3    H213648   1.941   1.368   3.924 -0.7128 -0.0926  0.6923
 4562TIP3   OH213649   3.006   2.623   1.430  0.0744 -0.2543  0.2285
 4562TIP3    H113650   3.040   2.671   1.355  1.9846  0.0051  1.1912
 4562TIP3    H213651   3.012   2.531   1.404  2.7978 -0.3036  0.7773
 4563TIP3   OH213652   1.477   2.951   0.570 -0.3168  0.6746  0.7379
 4563TIP3    H113653   1.539   3.010   0.613 -0.0130 -0.2381  1.5931
 4563TIP3    H213654   1.526   2.869   0.559 -0.6399  0.6431 -0.6702
 4564TIP3   OH213655   3.349   2.441   3.205  0.2736  0.2201  0.1391
 4564TIP3    H113656   3.312   2.529   3.205 -0.2240  0.0791  2.1756
 4564TIP3    H213657   3.401   2.437   3.286  2.4015 -0.5623 -1.1777
 4565TIP3   OH213658   4.400   4.839   1.264 -0.1726  0.4730 -0.1521
 4565TIP3    H113659   4.371   4.749   1.278 -0.4658  0.4877 -0.6393
 4565TIP3    H213660   4.453   4.835   1.185 -0.9148  0.8688 -0.6883
 4566TIP3   OH213661   5.593   1.578   4.130  0.3918  0.3164  0.6230
 4566TIP3    H113662   5.562   1.633   4.058 -0.7863  0.8789  1.5388
 4566TIP3    H213663   5.520   1.574   4.191  1.0884 -0.8187  1.4227
 4567TIP3   OH213664   0.470   4.709   4.147 -0.7623  0.3731 -0.3442
 4567TIP3    H113665   0.413   4.746   4.080 -0.0627  0.9054 -0.6537
 4567TIP3    H213666   0.469   4.615   4.129 -0.4311  0.5243 -1.2420
 4568TIP3   OH213667   6.058   4.184   0.298 -0.9233 -0.1843 -0.7660
 4568TIP3    H113668   6.029   4.131   0.224  1.0837 -0.3071 -1.5447
 4568TIP3    H213669   6.064   4.273   0.263  1.6495 -0.4989 -1.3477
 4569TIP3   OH213670   7.030   2.405   0.444 -0.1802 -0.4284  0.1694
 4569TIP3    H113671   7.030   2.377   0.535 -0.1967 -0.1710  0.2510
 4569TIP3    H213672   7.107   2.461   0.436 -1.1688  1.0659  0.5161
 4570TIP3   OH213673   2.344   5.773   2.088  0.9040  0.5620  0.0451
 4570TIP3    H113674   2.421   5.812   2.130  1.0467  0.9519 -0.5700
 4570TIP3    H213675   2.269   5.814   2.132  1.0401  0.2419  0.5889
 4571TIP3   OH213676   2.597   1.176   4.362 -0.3295  0.0300 -0.3007
 4571TIP3    H113677   2.571   1.094   4.319  0.7589 -0.8744  0.7101
 4571TIP3    H213678   2.642   1.148   4.442 -0.1411  1.6292  0.1800
 4572TIP3   OH213679   2.225   3.873   0.158  0.0076  0.4298  0.3748
 4572TIP3    H113680   2.220   3.967   0.169 -1.9875  0.2345  1.4413
 4572TIP3    H213681   2.191   3.836   0.239  1.6443 -1.2429  0.3772
 4573TIP3   OH213682   0.148   4.713   3.630  0.4332 -0.0244  0.5358
 4573TIP3    H113683   0.218   4.778   3.621 -0.0928  0.4188 -0.6014
 4573TIP3    H213684   0.125   4.690   3.540  0.2384 -1.4003  0.9203
 4574TIP3   OH213685   0.324   4.093   5.559  0.1137  0.0391 -0.1126
 4574TIP3    H113686   0.304   4.121   5.648 -0.0633 -0.4264 -0.0005
 4574TIP3    H213687   0.412   4.054   5.565  0.8517  1.5857 -0.4942
 4575TIP3   OH213688   2.365   3.435   4.112 -0.7058 -0.4496  0.3248
 4575TIP3    H113689   2.410   3.389   4.041 -0.8052 -0.3947  0.2252
 4575TIP3    H213690   2.391   3.388   4.191 -0.6010 -0.5170  0.2513
 4576TIP3   OH213691   3.238   2.410   1.425  0.0074  0.7881 -0.6104
 4576TIP3    H113692   3.331   2.391   1.439 -0.2800  0.1206  0.5043
 4576TIP3    H213693   3.234   2.446   1.336  1.3898  1.2760 -0.5048
 4577TIP3   OH213694   2.728   5.737   4.702 -0.1865  0.1020 -0.5036
 4577TIP3    H113695   2.721   5.642   4.692 -0.9878  0.2162 -1.1918
 4577TIP3    H213696   2.637   5.768   4.702  0.0838  0.9948 -1.7565
 4578TIP3   OH213697   4.321   2.025   5.431  0.2545  0.4171  0.3774
 4578TIP3    H113698   4.322   2.112   5.470  1.7173  0.4395  0.3423
 4578TIP3    H213699   4.302   1.965   5.503 -0.1417  0.7128  0.5184
 4579TIP3   OH213700   0.332   2.126   5.755  0.8361  0.3076  0.2288
 4579TIP3    H113701   0.280   2.069   5.812  0.2125  0.9572  0.3198
 4579TIP3    H213702   0.411   2.076   5.737  0.2327 -0.6486  0.1847
 4580TIP3   OH213703   6.040   5.034   1.798  0.2149 -0.3384  0.0994
 4580TIP3    H113704   6.008   4.999   1.715 -0.1714  0.3456 -0.0527
 4580TIP3    H213705   5.970   5.015   1.861  0.2207 -0.2722  0.1259
 4581TIP3   OH213706   5.076   1.003   4.918 -0.3838  0.3036  0.5614
 4581TIP3    H113707   5.007   0.955   4.873 -0.7222  1.9982 -0.8350
 4581TIP3    H213708   5.033   1.037   4.997 -0.4261 -0.7700  1.0063
 4582TIP3   OH213709   1.877   2.970   5.688 -0.4016 -1.0609 -0.0285
 4582TIP3    H113710   1.934   2.899   5.657  0.3015 -0.3071 -0.5301
 4582TIP3    H213711   1.813   2.981   5.618 -0.0250 -0.6927 -0.3292
 4583TIP3   OH213712   2.930   5.521   2.423  0.1566 -0.0515  0.1764
 4583TIP3    H113713   2.861   5.476   2.375 -1.6111  1.5034  1.1613
 4583TIP3    H213714   2.937   5.607   2.381  0.2573  0.4507  1.1984
 4584TIP3   OH213715   4.898   3.152   1.543  0.1122  0.0002  0.2022
 4584TIP3    H113716   4.862   3.146   1.454  0.7170 -1.2677  0.0143
 4584TIP3    H213717   4.868   3.236   1.576  0.6711  0.9504 -1.5737
 4585TIP3   OH213718   5.741   0.251   2.717  0.3135 -0.0778  0.4802
 4585TIP3    H113719   5.778   0.170   2.681 -1.0627 -0.7089  0.4399
 4585TIP3    H213720   5.729   0.307   2.641  1.2850  0.1983  0.5097
 4586TIP3   OH213721   5.301   5.833   1.913  0.0571 -0.2123 -0.3935
 4586TIP3    H113722   5.254   5.809   1.993  1.7362  1.0575  1.0487
 4586TIP3    H213723   5.255   5.911   1.882 -0.4853 -0.5990 -0.5851
 4587TIP3   OH213724   0.597   2.962   1.661  0.0848 -0.5903  0.0367
 4587TIP3    H113725   0.642   3.014   1.593  1.4969 -0.2690  1.1594
 4587TIP3    H213726   0.563   2.886   1.615 -1.8507  1.1731 -1.6353
 4588TIP3   OH213727   6.564   4.342   4.545  0.3563  0.3956  0.1789
 4588TIP3    H113728   6.482   4.371   4.583 -1.1270 -1.1338 -1.6502
 4588TIP3    H213729   6.631   4.374   4.606 -1.7364 -1.5772  3.9139
 4589TIP3   OH213730   3.833   0.946   2.507 -0.5693 -0.0742 -0.2724
 4589TIP3    H113731   3.898   0.897   2.556 -1.2803 -1.5749 -0.7492
 4589TIP3    H213732   3.752   0.895   2.517 -1.3759  1.0813 -0.6988
 4590TIP3   OH213733   4.886   0.788   5.314  0.1596 -0.1093  0.1900
 4590TIP3    H113734   4.870   0.734   5.237 -0.0061  1.0595 -0.6363
 4590TIP3    H213735   4.977   0.769   5.338  0.9232  1.0138 -1.5911
 4591TIP3   OH213736   1.468   5.025   3.870  0.0197 -0.1353  0.1066
 4591TIP3    H113737   1.485   4.935   3.844  0.0869 -0.5256  1.4315
 4591TIP3    H213738   1.383   5.046   3.830 -1.8165 -2.0335  2.6368
 4592TIP3   OH213739   6.838   5.537   5.892  0.1755  0.5737  0.0735
 4592TIP3    H113740   6.802   5.609   5.839  0.0480  0.7249  0.3668
 4592TIP3    H213741   6.882   5.481   5.828 -0.0234  0.7285 -0.2038
 4593TIP3   OH213742   6.290   2.602   4.262 -0.1746  0.7771 -0.1714
 4593TIP3    H113743   6.367   2.592   4.318 -0.7259 -1.0046  0.3411
 4593TIP3    H213744   6.326   2.608   4.173  0.5685  0.3274  0.0875
 4594TIP3   OH213745   5.380   0.141   3.082  0.3074 -0.3202  0.1453
 4594TIP3    H113746   5.428   0.196   3.020 -1.1148  1.9464  0.9309
 4594TIP3    H213747   5.412   0.168   3.168  0.4862 -1.6602  0.5209
 4595TIP3   OH213748   3.819   0.071   3.273  0.0751  0.0291  0.6073
 4595TIP3    H113749   3.803  -0.014   3.232  0.0479  0.2001  0.2542
 4595TIP3    H213750   3.735   0.095   3.311  0.1640 -0.2446  0.9849
 4596TIP3   OH213751   1.928   4.557   0.858  0.5241  0.2355 -0.1003
 4596TIP3    H113752   1.958   4.529   0.772 -0.3204 -0.2448 -0.2545
 4596TIP3    H213753   1.950   4.650   0.862  0.0105  0.4192 -1.0993
 4597TIP3   OH213754   2.526   3.796   5.481 -0.2348 -0.0550 -0.1234
 4597TIP3    H113755   2.475   3.820   5.559 -0.3351  1.9068 -0.7555
 4597TIP3    H213756   2.609   3.842   5.492  0.0463 -0.3842 -0.8318
 4598TIP3   OH213757   4.793   0.440   4.633 -0.2480  0.1299  0.4651
 4598TIP3    H113758   4.830   0.523   4.601  2.0958 -0.4524  1.4213
 4598TIP3    H213759   4.819   0.376   4.566 -1.8031  0.0849 -0.1267
 4599TIP3   OH213760   7.117   6.496   1.778 -0.3255  0.0019  0.4076
 4599TIP3    H113761   7.198   6.543   1.801  0.5306 -0.4722 -1.4557
 4599TIP3    H213762   7.047   6.553   1.810  0.7084  1.7279 -0.2442
 4600TIP3   OH213763   1.803   2.188   4.078  0.0471  0.5268  0.4620
 4600TIP3    H113764   1.827   2.142   4.158 -0.1481  1.9552  1.3833
 4600TIP3    H213765   1.725   2.143   4.047  1.5259 -1.6297 -0.3625
 4601TIP3   OH213766   5.814   5.097   3.327 -0.2148  0.1029  0.8734
 4601TIP3    H113767   5.752   5.059   3.389 -0.8915  0.4487  0.4301
 4601TIP3    H213768   5.886   5.130   3.381 -1.1818  1.1523  1.5780
 4602TIP3   OH213769   2.715   0.563   1.476 -0.6972 -0.2142  0.5385
 4602TIP3    H113770   2.775   0.535   1.407 -2.0714  0.2274 -0.9078
 4602TIP3    H213771   2.728   0.500   1.546  2.1987  0.4714  0.7649
 4603TIP3   OH213772   5.569   2.704   5.697 -0.6780 -0.2437 -0.0047
 4603TIP3    H113773   5.577   2.625   5.643 -2.5390 -0.0233 -0.6619
 4603TIP3    H213774   5.619   2.770   5.649  1.2152 -1.0373  0.7350
 4604TIP3   OH213775   4.121   2.598   2.672 -0.5099  0.0906 -0.3458
 4604TIP3    H113776   4.053   2.652   2.711  0.5359  0.2781  1.3623
 4604TIP3    H213777   4.162   2.554   2.747  0.7273 -0.6223 -1.3892
 4605TIP3   OH213778   0.114   2.593   4.988 -0.2093 -0.1727  0.3770
 4605TIP3    H113779   0.064   2.549   4.919 -1.1264 -0.4858  1.2104
 4605TIP3    H213780   0.166   2.659   4.942  0.1134 -1.1679 -0.7395
 4606TIP3   OH213781   0.279   6.221   5.732 -0.4340  0.5128 -0.2399
 4606TIP3    H113782   0.266   6.237   5.826  1.1979  1.2669 -0.0944
 4606TIP3    H213783   0.260   6.128   5.721  0.7671  0.0607  1.1494
 4607TIP3   OH213784   5.095   0.088   3.898  0.3380 -0.0939 -0.1375
 4607TIP3    H113785   5.113   0.106   3.991 -0.8451 -2.6359  0.6858
 4607TIP3    H213786   5.003   0.063   3.896  0.6772 -1.3631 -1.7602
 4608TIP3   OH213787   1.711   0.832   5.217 -0.0658  0.5350 -0.1238
 4608TIP3    H113788   1.680   0.860   5.131 -0.8077  2.0310  0.5950
 4608TIP3    H213789   1.777   0.896   5.241 -0.7468  0.8792  0.9347
 4609TIP3   OH213790   0.712   6.665   4.930  0.3452  0.0097  0.6249
 4609TIP3    H113791   0.702   6.603   5.003  0.8161 -0.1001  0.6032
 4609TIP3    H213792   0.765   6.736   4.966  1.4206 -0.5107  0.1376
 4610TIP3   OH213793   5.801   2.420   3.965  0.2107  0.5011  0.4563
 4610TIP3    H113794   5.830   2.329   3.953  0.8917  0.7059  0.4656
 4610TIP3    H213795   5.799   2.456   3.877 -2.0594 -0.0825  0.2216
 4611TIP3   OH213796   5.839   4.787   4.864 -1.1364  0.3640  0.1809
 4611TIP3    H113797   5.871   4.798   4.774 -1.4299  1.8204  0.2223
 4611TIP3    H213798   5.878   4.860   4.912  0.0451 -1.1255  1.5624
 4612TIP3   OH213799   0.569   4.131   1.553  0.5716  0.3585  0.3901
 4612TIP3    H113800   0.550   4.061   1.615  1.4596 -1.1199 -0.9152
 4612TIP3    H213801   0.610   4.199   1.606 -0.4095 -0.0509  1.7197
 4613TIP3   OH213802   4.900   3.092   4.701  0.3007  0.1515 -0.2215
 4613TIP3    H113803   4.910   3.101   4.606 -0.5222 -0.1127 -0.3419
 4613TIP3    H213804   4.987   3.112   4.736  0.7792 -0.3920 -1.0699
 4614TIP3   OH213805   2.264   2.067   2.703 -0.7595 -0.0684 -1.0396
 4614TIP3    H113806   2.287   2.153   2.739 -0.5943 -0.4485 -0.2221
 4614TIP3    H213807   2.201   2.087   2.633 -0.4088  0.7443 -1.1348
 4615TIP3   OH213808   3.936   6.165   4.324 -0.1896  0.0393  0.0159
 4615TIP3    H113809   4.006   6.128   4.378 -1.3042 -2.8057 -0.3209
 4615TIP3    H213810   3.918   6.098   4.258 -2.9937  0.7720 -0.1061
 4616TIP3   OH213811   5.335   2.250   4.588 -0.5669  0.1629  0.1745
 4616TIP3    H113812   5.375   2.315   4.530  0.6566  0.2314  1.0700
 4616TIP3    H213813   5.402   2.183   4.600 -2.1026 -1.8351 -1.4934
 4617TIP3   OH213814   5.429   1.031   1.297 -0.8837  0.1216 -1.0808
 4617TIP3    H113815   5.477   0.954   1.328 -2.0935 -0.3202 -0.2667
 4617TIP3    H213816   5.351   0.996   1.254 -0.9635  0.8665 -1.5720
 4618TIP3   OH213817   4.530   1.045   0.377 -0.0815  0.2204 -0.4778
 4618TIP3    H113818   4.529   1.007   0.465  0.3266  1.3055  0.0141
 4618TIP3    H213819   4.587   1.122   0.385  0.5024 -0.0360 -1.8522
 4619TIP3   OH213820   3.781   4.915   2.714 -0.1452  0.2683 -0.3057
 4619TIP3    H113821   3.844   4.950   2.651  2.6035 -0.2804  1.9640
 4619TIP3    H213822   3.742   4.993   2.754  1.5612  0.7442  0.5319
 4620TIP3   OH213823   4.481   4.186   4.531  0.2365 -0.0681  0.0595
 4620TIP3    H113824   4.389   4.212   4.534 -0.2057 -1.5943  0.5018
 4620TIP3    H213825   4.498   4.167   4.439 -0.2065 -0.8489  0.1381
 4621TIP3   OH213826   0.639   1.495   1.415  0.1151 -0.0988 -0.4879
 4621TIP3    H113827   0.586   1.549   1.356  0.3530  0.5309 -0.1313
 4621TIP3    H213828   0.713   1.551   1.439 -0.9143  0.3576  1.8837
 4622TIP3   OH213829   4.188   1.947   0.886  0.0267  0.7074 -0.0127
 4622TIP3    H113830   4.178   1.948   0.791  0.0520 -1.5753 -0.0733
 4622TIP3    H213831   4.260   2.009   0.902  1.1947 -0.1335 -1.6563
 4623TIP3   OH213832   0.369   0.806   3.112 -0.0867  0.0627  0.3097
 4623TIP3    H113833   0.335   0.746   3.179  0.2851 -0.5372 -0.0348
 4623TIP3    H213834   0.464   0.804   3.125  0.1015 -1.0550 -1.0585
 4624TIP3   OH213835   0.262   1.567   5.516  0.0455 -0.8192 -0.5857
 4624TIP3    H113836   0.328   1.541   5.580  1.1158  0.3454 -1.1817
 4624TIP3    H213837   0.198   1.496   5.518 -0.2792 -0.5852  2.1781
 4625TIP3   OH213838   0.610   1.669   5.354 -0.2913 -0.1094  0.7495
 4625TIP3    H113839   0.699   1.704   5.354  0.0080 -0.4653 -3.1825
 4625TIP3    H213840   0.554   1.746   5.340 -0.6453  0.0256  2.5917
 4626TIP3   OH213841   6.658   3.050   2.236  0.1468  0.3415  0.1922
 4626TIP3    H113842   6.753   3.063   2.231  0.1027  1.2459  1.3088
 4626TIP3    H213843   6.623   3.137   2.257 -0.9918  0.1400 -0.7272
 4627TIP3   OH213844   7.026   5.483   4.549 -0.1224  0.3153 -0.1188
 4627TIP3    H113845   7.050   5.574   4.561  1.3648  0.1367 -1.4484
 4627TIP3    H213846   7.109   5.438   4.532 -0.9663 -1.0415 -0.8733
 4628TIP3   OH213847   3.643   4.975   1.038 -0.4833 -0.4991  0.7386
 4628TIP3    H113848   3.710   4.979   0.971 -0.0650 -0.7722  1.1333
 4628TIP3    H213849   3.597   5.058   1.032 -1.3037 -1.0242 -0.7475
 4629TIP3   OH213850   4.235   6.022   3.814  0.4576  0.3157  0.2977
 4629TIP3    H113851   4.231   5.957   3.744  1.1081  0.3837  0.1845
 4629TIP3    H213852   4.230   6.106   3.768  0.5290  0.3548  0.3602
 4630TIP3   OH213853   2.804   4.779   2.522 -0.5993 -0.0856 -0.6038
 4630TIP3    H113854   2.725   4.726   2.531  0.2946 -2.1200 -3.3007
 4630TIP3    H213855   2.788   4.832   2.444 -0.1274  1.1497  0.1098
 4631TIP3   OH213856   0.378   4.358   5.195 -0.0100 -0.3773  0.0446
 4631TIP3    H113857   0.316   4.290   5.220 -0.1128 -0.4976 -0.5365
 4631TIP3    H213858   0.401   4.401   5.278  2.2935 -2.9522  0.8619
 4632TIP3   OH213859   6.080   5.293   0.761  0.1419 -0.4807  0.8804
 4632TIP3    H113860   6.118   5.216   0.803  2.2528 -0.3253 -0.5748
 4632TIP3    H213861   6.028   5.258   0.688 -1.8718 -0.6474  2.3311
 4633TIP3   OH213862   5.110   3.298   0.462 -0.2221 -0.0067  0.0028
 4633TIP3    H113863   5.183   3.333   0.411  1.0421 -2.9370 -0.4319
 4633TIP3    H213864   5.137   3.305   0.553  0.2265 -0.2851 -0.1088
 4634TIP3   OH213865   3.129   4.479   3.481  0.6216 -0.3365 -0.1212
 4634TIP3    H113866   3.052   4.501   3.533 -0.0640  0.5276 -1.4372
 4634TIP3    H213867   3.173   4.410   3.531 -0.5418 -0.2577  1.0713
 4635TIP3   OH213868   1.847   5.469   4.030  0.3289  0.2027 -0.3147
 4635TIP3    H113869   1.900   5.459   3.951  0.7173 -1.7225  0.1369
 4635TIP3    H213870   1.768   5.514   3.999  0.1439 -1.1460 -1.9781
 4636TIP3   OH213871   4.251   3.880   4.304 -0.1972 -0.1409 -0.1541
 4636TIP3    H113872   4.254   3.976   4.313 -1.0062 -0.0655 -0.6591
 4636TIP3    H213873   4.341   3.856   4.280  0.4221  0.3161  1.5158
 4637TIP3   OH213874   4.322   3.124   3.915  0.2750 -0.3322  0.3424
 4637TIP3    H113875   4.336   3.211   3.878 -0.8556 -0.1612  0.2847
 4637TIP3    H213876   4.403   3.077   3.897  0.3396  0.2413 -0.9523
 4638TIP3   OH213877   7.061   5.742   4.516  0.0161  0.0924  0.1257
 4638TIP3    H113878   6.989   5.804   4.521 -0.1604 -0.0587 -0.4522
 4638TIP3    H213879   7.137   5.790   4.551  0.0212  0.8465 -0.8757
 4639TIP3   OH213880   3.609   6.561   4.621 -0.0501  0.2094  0.3541
 4639TIP3    H113881   3.681   6.590   4.565 -1.3062  0.7155 -1.0895
 4639TIP3    H213882   3.650   6.511   4.690  1.7372  1.0082 -0.0802
 4640TIP3   OH213883   5.089   6.181   0.315  0.1995  0.0689 -0.1552
 4640TIP3    H113884   5.160   6.244   0.329 -1.3926  1.9691 -0.1553
 4640TIP3    H213885   5.112   6.107   0.371  1.5090  1.1974  0.8918
 4641TIP3   OH213886   5.718   3.072   0.260 -0.4413  0.1199 -0.3089
 4641TIP3    H113887   5.623   3.083   0.248 -0.4773 -0.4831 -0.6442
 4641TIP3    H213888   5.750   3.160   0.278 -1.0489  0.3540 -0.3319
 4642TIP3   OH213889   4.892   5.348   2.789  0.2499  0.4132 -0.2589
 4642TIP3    H113890   4.799   5.364   2.777  0.3428  0.9432 -0.2938
 4642TIP3    H213891   4.924   5.321   2.703 -0.0522 -0.7202 -0.0292
 4643TIP3   OH213892   3.967   2.173   3.744  0.0351 -0.0759 -0.2451
 4643TIP3    H113893   3.909   2.245   3.768 -0.0926 -0.6894  1.4409
 4643TIP3    H213894   3.910   2.096   3.743  0.8733 -0.8048  2.1084
 4644TIP3   OH213895   4.219   3.235   0.549 -0.7244  0.4501 -0.7249
 4644TIP3    H113896   4.166   3.166   0.509  0.2310 -1.5182  1.1850
 4644TIP3    H213897   4.310   3.210   0.531 -0.3605  1.9241 -1.0810
 4645TIP3   OH213898   3.448   3.449   1.018  0.0095  0.1431 -0.3566
 4645TIP3    H113899   3.471   3.365   1.057 -1.4965 -0.7244 -1.2496
 4645TIP3    H213900   3.498   3.513   1.068 -0.1604 -1.1244  1.5379
 4646TIP3   OH213901   4.229   3.361   5.802  0.3155  0.0790 -0.4913
 4646TIP3    H113902   4.279   3.352   5.721  2.3517 -1.4225  0.8405
 4646TIP3    H213903   4.163   3.291   5.797 -0.0366  0.4382 -1.1201
 4647TIP3   OH213904   5.533   5.187   1.805 -0.4641  0.1232  0.0049
 4647TIP3    H113905   5.498   5.252   1.744  1.5555  0.8471 -0.4386
 4647TIP3    H213906   5.556   5.237   1.883 -1.4897 -0.5456  0.7688
 4648TIP3   OH213907   2.256   5.016   5.285  0.6805  0.4590  0.0882
 4648TIP3    H113908   2.272   5.077   5.357 -1.3634  0.9071  0.2289
 4648TIP3    H213909   2.221   5.071   5.215  0.4258 -0.3000 -0.3923
 4649TIP3   OH213910   4.810   3.372   1.038 -0.2983  0.1933 -0.0959
 4649TIP3    H113911   4.872   3.434   0.999  0.4632 -1.5533 -1.8503
 4649TIP3    H213912   4.737   3.370   0.977  0.3473 -1.6500 -0.8938
 4650TIP3   OH213913   3.356   6.311   3.646  0.0819  0.1625  0.5603
 4650TIP3    H113914   3.288   6.327   3.581 -0.4761  0.6123  1.2453
 4650TIP3    H213915   3.423   6.261   3.599  0.0718  1.1916 -0.5794
 4651TIP3   OH213916   1.320   3.694   4.002 -0.3436 -0.0691 -0.1218
 4651TIP3    H113917   1.332   3.766   3.941 -0.7816  0.6426  0.6203
 4651TIP3    H213918   1.388   3.631   3.979 -0.7833 -0.0188 -1.6398
 4652TIP3   OH213919   6.003   6.054   4.298 -0.3591 -0.0827  0.2483
 4652TIP3    H113920   6.058   6.086   4.369 -0.4134 -0.0002  0.2538
 4652TIP3    H213921   5.921   6.029   4.341 -0.3995 -0.0124  0.2128
 4653TIP3   OH213922   3.645   0.891   1.773 -0.1423 -0.2748 -0.1820
 4653TIP3    H113923   3.737   0.872   1.787  0.1510  0.6525 -0.7415
 4653TIP3    H213924   3.599   0.810   1.797  0.8042 -0.7255  0.1379
 4654TIP3   OH213925   2.205   6.735   2.602  0.0950 -0.0887  0.0127
 4654TIP3    H113926   2.152   6.670   2.649  0.3273  0.2210  0.7279
 4654TIP3    H213927   2.185   6.721   2.510  1.3335 -2.2501  0.0107
 4655TIP3   OH213928   1.191   5.270   5.230  0.2623 -0.0761  0.4534
 4655TIP3    H113929   1.124   5.239   5.170  1.0788 -0.2253 -0.3974
 4655TIP3    H213930   1.148   5.273   5.315 -0.4740 -1.3489  0.1378
 4656TIP3   OH213931   6.048   4.115   2.501 -0.4322 -0.5266  0.4214
 4656TIP3    H113932   6.069   4.168   2.424  1.7682 -1.5803  0.2223
 4656TIP3    H213933   6.044   4.026   2.468 -0.8778 -0.8384  1.2964
 4657TIP3   OH213934   6.598   3.169   5.781 -0.0649 -0.1858 -0.3106
 4657TIP3    H113935   6.685   3.129   5.780 -0.4557 -1.0719  0.1796
 4657TIP3    H213936   6.545   3.109   5.834 -0.9581  0.3708 -0.5637
 4658TIP3   OH213937   6.870   5.014   0.665  0.3550 -0.4502  0.6658
 4658TIP3    H113938   6.935   4.944   0.665 -0.0479 -0.8316  0.7424
 4658TIP3    H213939   6.805   4.986   0.601  0.8421  0.4872 -0.2663
 4659TIP3   OH213940   0.791   4.274   1.153  0.4558  0.3116 -0.1368
 4659TIP3    H113941   0.698   4.265   1.175  0.7466 -1.2643  0.6573
 4659TIP3    H213942   0.797   4.357   1.106 -1.5493 -0.0897 -1.2472
 4660TIP3   OH213943   5.247   5.457   1.294 -0.3268  0.4028 -0.6902
 4660TIP3    H113944   5.304   5.489   1.364 -0.0350 -0.3780 -0.5653
 4660TIP3    H213945   5.175   5.520   1.291  0.1455  0.9651 -0.3280
 4661TIP3   OH213946   5.963   4.009   2.219  0.1536 -0.0838 -0.5384
 4661TIP3    H113947   5.875   4.023   2.184 -0.0458 -1.2070 -0.5281
 4661TIP3    H213948   6.005   4.095   2.214 -1.6821  1.0336  1.5448
 4662TIP3   OH213949   1.203   3.552   4.930  0.4772  0.3233 -0.6502
 4662TIP3    H113950   1.272   3.573   4.992 -1.9779  0.3590  2.3113
 4662TIP3    H213951   1.202   3.626   4.869  0.7983  2.0952  1.3797
 4663TIP3   OH213952   3.834   0.041   5.185  0.3891  0.0369  0.0225
 4663TIP3    H113953   3.842   0.020   5.279  0.8480  1.6220  0.3591
 4663TIP3    H213954   3.922   0.068   5.159  0.6537 -1.8521 -1.2905
 4664TIP3   OH213955   0.532   1.919   5.675 -0.1592 -0.2114  0.2173
 4664TIP3    H113956   0.620   1.946   5.648 -0.9334  0.0738 -2.2080
 4664TIP3    H213957   0.528   1.826   5.655 -0.3919 -0.2488  0.4341
 4665TIP3   OH213958   0.324   2.587   1.421  0.3547 -0.1203  0.0541
 4665TIP3    H113959   0.241   2.552   1.389 -0.6060  0.5135  1.6919
 4665TIP3    H213960   0.391   2.531   1.383 -0.9002 -1.3726 -0.3794
 4666TIP3   OH213961   1.810   4.942   3.765  0.7260  0.1529  0.1123
 4666TIP3    H113962   1.791   5.027   3.726 -0.5397 -0.7223 -1.2988
 4666TIP3    H213963   1.901   4.924   3.740  0.4727  0.3674 -1.0286
 4667TIP3   OH213964   0.732   0.642   3.130  0.1811 -0.2080 -0.0587
 4667TIP3    H113965   0.791   0.568   3.134  0.5714  0.1559  1.2906
 4667TIP3    H213966   0.687   0.633   3.046  1.2071 -1.2013 -0.5120
 4668TIP3   OH213967   4.921   3.495   0.356 -0.3217  0.5559 -1.2016
 4668TIP3    H113968   4.954   3.415   0.398 -0.0916  1.4160  0.3448
 4668TIP3    H213969   4.994   3.526   0.303  0.7363  1.3550  0.6120
 4669TIP3   OH213970   5.487   3.303   0.913  0.1267 -0.3034  0.4107
 4669TIP3    H113971   5.491   3.338   1.002  1.9953  0.7742 -0.0526
 4669TIP3    H213972   5.438   3.369   0.864  0.3939 -0.1676  0.3263
 4670TIP3   OH213973   3.611   3.281   2.235  0.4984  0.1871 -0.4588
 4670TIP3    H113974   3.607   3.250   2.144 -2.7341  0.2833 -0.4604
 4670TIP3    H213975   3.594   3.202   2.287 -1.0983  0.6937 -0.1575
 4671TIP3   OH213976   5.549   5.490   3.599  0.4271 -0.1215 -0.2383
 4671TIP3    H113977   5.564   5.412   3.545  0.5654 -1.2147  1.3333
 4671TIP3    H213978   5.632   5.538   3.595  1.9579 -2.2895  2.2495
 4672TIP3   OH213979   1.056   2.241   3.845 -0.0815 -0.0194 -0.5878
 4672TIP3    H113980   1.086   2.324   3.808  0.4688  0.4012  0.7544
 4672TIP3    H213981   1.009   2.265   3.925  0.8814 -1.0280  0.3240
 4673TIP3   OH213982   2.263   6.179   1.859  0.4875 -0.0782 -0.5265
 4673TIP3    H113983   2.292   6.267   1.883 -2.9711  0.9849  0.3466
 4673TIP3    H213984   2.337   6.122   1.880  2.5216  2.4822 -0.3004
 4674TIP3   OH213985   2.695   1.215   1.438  0.1230  0.2013  0.4700
 4674TIP3    H113986   2.681   1.137   1.493  0.1090  0.3900  0.7371
 4674TIP3    H213987   2.651   1.285   1.486  0.6767  0.5003  0.5501
 4675TIP3   OH213988   6.698   4.528   0.191 -0.1604 -0.2837 -0.6193
 4675TIP3    H113989   6.752   4.604   0.170  0.1338 -0.6665 -1.2805
 4675TIP3    H213990   6.614   4.546   0.148 -0.3755  0.0538 -0.0629
 4676TIP3   OH213991   4.437   2.510   3.858  0.2431  0.2297 -0.3753
 4676TIP3    H113992   4.428   2.532   3.765  0.1915 -1.1323 -0.7139
 4676TIP3    H213993   4.378   2.571   3.902  0.1073  0.7622 -1.2634
 4677TIP3   OH213994   6.541   2.955   5.312  0.3853 -0.3755 -0.2524
 4677TIP3    H113995   6.503   3.036   5.278  0.8520 -0.3971 -0.8250
 4677TIP3    H213996   6.634   2.974   5.321  0.2999 -0.4222  0.8652
 4678TIP3   OH213997   6.275   0.815   1.804 -0.5803  0.8686 -0.3049
 4678TIP3    H113998   6.327   0.849   1.877  1.8318  1.5660 -2.2282
 4678TIP3    H213999   6.192   0.864   1.810 -0.7753  0.3912  2.2993
 4679TIP3   OH214000   5.912   2.437   5.034  0.3459 -0.0751 -0.1575
 4679TIP3    H114001   5.960   2.439   4.951  1.3630  0.0298  0.4318
 4679TIP3    H214002   5.906   2.344   5.056 -0.6762 -0.1716 -0.7637
 4680TIP3   OH214003   3.032   6.049   5.366  0.2124  0.7668 -0.1820
 4680TIP3    H114004   2.968   5.977   5.375  0.8266  0.2503  0.1117
 4680TIP3    H214005   3.070   6.035   5.280 -1.6650  2.4180 -1.3662
 4681TIP3   OH214006   1.456   0.880   2.452 -0.0263 -0.0564 -0.7195
 4681TIP3    H114007   1.522   0.918   2.508 -0.8987  3.5764 -1.9119
 4681TIP3    H214008   1.503   0.854   2.372  0.3524 -0.1157 -0.4774
 4682TIP3   OH214009   0.977   2.195   5.499  0.1730 -0.1101 -0.0920
 4682TIP3    H114010   0.971   2.278   5.451 -0.2673  0.7284  1.3469
 4682TIP3    H214011   1.069   2.171   5.493  0.0244 -0.4139 -1.9107
 4683TIP3   OH214012   5.056   2.030   3.096 -0.3562 -0.5887  0.1434
 4683TIP3    H114013   5.043   1.969   3.023 -1.1265  0.6026 -0.7653
 4683TIP3    H214014   5.147   2.058   3.088 -0.3176 -0.7871 -0.1066
 4684TIP3   OH214015   3.092   2.429   5.498 -0.1818  0.3804  0.0488
 4684TIP3    H114016   3.112   2.514   5.537  0.9822  0.4530 -0.6285
 4684TIP3    H214017   3.148   2.426   5.420  0.2729 -1.2727  0.4164
 4685TIP3   OH214018   2.930   3.181   4.669 -0.1684  0.1852 -0.3960
 4685TIP3    H114019   2.910   3.223   4.585  0.1623  0.4755 -0.3371
 4685TIP3    H214020   2.879   3.231   4.733 -0.9820 -0.4915 -0.5006
 4686TIP3   OH214021   6.946   1.739   3.960  0.5203  0.1850 -0.0287
 4686TIP3    H114022   6.868   1.696   3.925  1.0918 -2.4130  1.6003
 4686TIP3    H214023   6.935   1.736   4.055  2.2736  0.4096  0.2199
 4687TIP3   OH214024   6.975   1.852   2.107 -0.0809  0.3398 -0.0310
 4687TIP3    H114025   6.907   1.837   2.042  0.0062  0.5880 -0.1817
 4687TIP3    H214026   6.964   1.944   2.132  0.6505  0.5911 -0.5898
 4688TIP3   OH214027   6.957   5.563   1.539  0.3869 -0.2064 -0.2109
 4688TIP3    H114028   6.935   5.605   1.456 -0.4666 -1.5155 -0.6837
 4688TIP3    H214029   6.884   5.504   1.556  1.1267 -0.8509  0.8739
 4689TIP3   OH214030   0.226   0.881   1.985  0.0260 -0.3306  0.1196
 4689TIP3    H114031   0.153   0.839   2.029  1.2137 -1.0720  1.4644
 4689TIP3    H214032   0.271   0.810   1.938  0.1755  0.0183 -0.2728
 4690TIP3   OH214033   0.597   5.409   1.755  0.2121  0.1032 -0.3103
 4690TIP3    H114034   0.620   5.323   1.722  1.0291  0.2197 -0.0640
 4690TIP3    H214035   0.603   5.467   1.679 -1.2294 -0.1865 -0.6867
 4691TIP3   OH214036   4.496   6.133   4.421 -0.1128 -0.4412  0.4588
 4691TIP3    H114037   4.516   6.119   4.513  2.6354  1.7381  0.3368
 4691TIP3    H214038   4.580   6.121   4.376 -0.8310  0.9486 -1.4084
 4692TIP3   OH214039   1.681   3.283   3.784 -0.0204  0.1627 -0.0721
 4692TIP3    H114040   1.673   3.249   3.873 -1.2945 -1.3200 -0.7016
 4692TIP3    H214041   1.763   3.331   3.784  0.1736 -0.0847  1.8120
 4693TIP3   OH214042   4.117   1.780   1.103  0.0664  0.2804 -0.2768
 4693TIP3    H114043   4.161   1.843   1.045 -0.4422  0.6999 -0.2110
 4693TIP3    H214044   4.056   1.832   1.154 -1.4508 -0.4633 -1.2660
 4694TIP3   OH214045   2.842   2.429   4.270 -0.5995  0.2434 -0.1258
 4694TIP3    H114046   2.872   2.473   4.191 -2.5916  0.8796 -0.5943
 4694TIP3    H214047   2.746   2.430   4.263 -0.8462 -3.7634  0.0666
 4695TIP3   OH214048   2.740   2.128   4.270 -0.0016  0.0370 -0.4237
 4695TIP3    H114049   2.663   2.172   4.305  1.3474  1.6624  0.6475
 4695TIP3    H214050   2.716   2.035   4.269 -1.5402  0.3654  0.9816
 4696TIP3   OH214051   5.288   0.168   3.390 -0.2373  0.0944 -0.8771
 4696TIP3    H114052   5.338   0.181   3.471 -1.7665 -0.5008  0.2095
 4696TIP3    H214053   5.282   0.073   3.379 -1.4021  0.1318 -0.7689
 4697TIP3   OH214054   2.618   6.529   1.732  0.4015  0.0682  0.0568
 4697TIP3    H114055   2.637   6.438   1.707 -1.9424 -0.1770 -1.1162
 4697TIP3    H214056   2.682   6.581   1.683  0.1372 -0.8253 -1.2882
 4698TIP3   OH214057   2.572   0.212   3.189 -0.0908 -0.2098  0.0555
 4698TIP3    H114058   2.520   0.131   3.196  0.9502 -1.0355 -1.3469
 4698TIP3    H214059   2.524   0.266   3.127 -0.7838  0.2947  0.9888
 4699TIP3   OH214060   1.052   1.130   3.131  0.6593 -0.4200 -0.8004
 4699TIP3    H114061   0.996   1.173   3.195  1.3112  0.2753 -0.6874
 4699TIP3    H214062   1.015   1.041   3.123  0.7864 -0.6478  0.7980
 4700TIP3   OH214063   4.373   6.345   0.910 -0.9409 -0.3091 -0.0882
 4700TIP3    H114064   4.373   6.365   0.816 -1.9723 -2.7205 -0.6704
 4700TIP3    H214065   4.465   6.336   0.933 -0.7165 -0.8565 -1.1492
 4701TIP3   OH214066   1.821   0.440   0.666 -0.1924 -0.4134  0.2952
 4701TIP3    H114067   1.726   0.431   0.671 -0.3299  0.4049 -0.5543
 4701TIP3    H214068   1.837   0.484   0.583  0.9710 -1.0247  0.1695
 4702TIP3   OH214069   7.072   3.934   0.492 -0.5253 -0.4665 -0.1889
 4702TIP3    H114070   7.020   3.925   0.571 -2.0561 -0.6182 -1.1723
 4702TIP3    H214071   7.156   3.895   0.514 -0.9420 -0.5810  1.3200
 4703TIP3   OH214072   1.514   0.385   2.584 -0.4653 -0.3890 -0.2160
 4703TIP3    H114073   1.504   0.463   2.530 -1.9849  0.6946  1.5058
 4703TIP3    H214074   1.430   0.340   2.577 -0.0477 -1.2040 -0.1585
 4704TIP3   OH214075   4.208   5.860   3.321  0.6442  0.3930  0.3818
 4704TIP3    H114076   4.164   5.873   3.237  0.3680  1.1558  0.6359
 4704TIP3    H214077   4.273   5.931   3.325  1.0681  0.0013  0.5495
 4705TIP3   OH214078   6.688   3.464   5.912  0.2725  0.2531  0.1624
 4705TIP3    H114079   6.698   3.517   5.833 -1.3512  0.4575  0.0586
 4705TIP3    H214080   6.735   3.383   5.893 -0.3742  0.1592 -1.1823
 4706TIP3   OH214081   5.522   0.284   2.855  0.0120 -0.3778 -0.1016
 4706TIP3    H114082   5.607   0.271   2.812 -0.1473  1.7638 -1.1972
 4706TIP3    H214083   5.539   0.348   2.923 -0.2112 -2.0632  1.6188
 4707TIP3   OH214084   6.044   4.115   1.138  0.1560  0.2775 -0.1970
 4707TIP3    H114085   6.138   4.121   1.120  0.1444  0.6841 -0.1363
 4707TIP3    H214086   6.008   4.071   1.061  0.1728  1.5394 -0.9459
 4708TIP3   OH214087   7.010   1.601   3.503 -0.0346 -0.3812  0.4276
 4708TIP3    H114088   6.924   1.608   3.546  0.6468 -2.0108  2.2107
 4708TIP3    H214089   7.066   1.662   3.551  0.0707 -0.1018 -0.0434
 4709TIP3   OH214090   1.223   0.031   1.473 -0.4564 -0.1605  0.1000
 4709TIP3    H114091   1.143  -0.004   1.434 -0.6339  0.1752  0.1552
 4709TIP3    H214092   1.294   0.001   1.416 -0.7495  0.6809 -0.7388
 4710TIP3   OH214093   4.269   4.764   2.682  0.3436 -0.2445  0.2262
 4710TIP3    H114094   4.304   4.691   2.630  0.0430  0.0983 -0.4711
 4710TIP3    H214095   4.195   4.796   2.631  1.1863  1.3096 -0.0661
 4711TIP3   OH214096   1.219   1.197   4.563 -0.4547 -0.3666 -0.0396
 4711TIP3    H114097   1.288   1.216   4.626 -0.7658 -1.7573  0.7591
 4711TIP3    H214098   1.141   1.236   4.602 -1.1446 -3.1651  1.7253
 4712TIP3   OH214099   3.654   3.349   5.696 -0.1586  0.1992  0.3493
 4712TIP3    H114100   3.598   3.291   5.747  0.4367 -0.5413  0.1821
 4712TIP3    H214101   3.610   3.434   5.698 -0.7390 -0.1136  1.0947
 4713TIP3   OH214102   1.934   4.128   3.608  0.0578  0.2584 -0.0914
 4713TIP3    H114103   2.025   4.150   3.630  0.0087  0.3470  0.0220
 4713TIP3    H214104   1.881   4.178   3.670 -0.2180  3.3694 -2.5685
 4714TIP3   OH214105   1.297   3.786   5.099  0.3362 -0.3323 -0.0569
 4714TIP3    H114106   1.375   3.841   5.098 -0.0898  0.3096  0.7050
 4714TIP3    H214107   1.262   3.792   5.010  1.0524 -0.4806 -0.3521
 4715TIP3   OH214108   3.342   6.291   4.988 -0.1682  0.0452  0.2179
 4715TIP3    H114109   3.299   6.374   4.968  0.0994 -0.5748 -3.7809
 4715TIP3    H214110   3.436   6.313   4.991 -0.2090  0.1396  0.8135
 4716TIP3   OH214111   6.253   1.641   2.215  0.0191 -0.0155  0.5092
 4716TIP3    H114112   6.247   1.725   2.261 -0.7413 -1.1230  2.5254
 4716TIP3    H214113   6.220   1.660   2.127 -1.9925  1.3997  1.4856
 4717TIP3   OH214114   4.223   6.697   3.012  0.3752 -0.2277  0.4996
 4717TIP3    H114115   4.152   6.685   2.948 -0.1708 -1.2402  1.2547
 4717TIP3    H214116   4.194   6.769   3.067  2.2678  2.8719 -2.1999
 4718TIP3   OH214117   6.521   1.305   4.585 -0.2690  0.2146 -1.1379
 4718TIP3    H114118   6.602   1.270   4.622  0.7874  0.0384 -3.4514
 4718TIP3    H214119   6.523   1.398   4.609  0.3352  0.1078 -0.7318
 4719TIP3   OH214120   3.953   3.500   0.622  0.2582  0.2590  0.0089
 4719TIP3    H114121   3.876   3.482   0.568  0.7724  0.5920 -0.8670
 4719TIP3    H214122   3.966   3.421   0.673  0.0237 -0.2468 -0.6965
 4720TIP3   OH214123   5.849   0.670   2.029  0.0535  0.6545 -0.4922
 4720TIP3    H114124   5.814   0.628   1.950 -1.1419  2.5333 -1.0435
 4720TIP3    H214125   5.850   0.763   2.007  0.0963  1.1879  1.5665
 4721TIP3   OH214126   6.525   0.299   2.580  0.2702 -0.9819 -0.0077
 4721TIP3    H114127   6.526   0.390   2.608 -1.0158 -1.3964  1.5782
 4721TIP3    H214128   6.514   0.303   2.485  4.9237  0.5026 -0.7300
 4722TIP3   OH214129   6.198   4.125   1.455  0.6253  0.1446 -0.4570
 4722TIP3    H114130   6.149   4.200   1.489  2.2696  1.7684 -1.4481
 4722TIP3    H214131   6.283   4.131   1.498  1.0571 -0.6671 -1.1617
 4723TIP3   OH214132   6.090   4.908   0.693 -0.1371 -0.0761 -0.0106
 4723TIP3    H114133   6.106   4.956   0.611 -0.6574 -0.4078 -0.3080
 4723TIP3    H214134   6.052   4.825   0.666 -0.0044 -0.3267  0.5545
 4724TIP3   OH214135   7.148   0.774   3.094 -0.2322 -0.1474  0.2469
 4724TIP3    H114136   7.181   0.687   3.118  0.6385  0.1652  0.2120
 4724TIP3    H214137   7.057   0.774   3.124 -0.1952 -1.0113  0.3920
 4725TIP3   OH214138   1.829   1.364   4.362  0.0211 -0.0802 -0.2919
 4725TIP3    H114139   1.826   1.457   4.385 -0.0635  0.0054 -0.6465
 4725TIP3    H214140   1.919   1.350   4.333  0.6144 -0.5553  1.5860
 4726TIP3   OH214141   5.724   1.917   1.189 -0.0288  0.4380 -0.1780
 4726TIP3    H114142   5.791   1.931   1.122 -0.4425  0.9501 -0.4887
 4726TIP3    H214143   5.720   2.000   1.237  0.2871  0.0637  0.5069
 4727TIP3   OH214144   1.275   0.589   3.541 -0.7672  0.2203 -0.2869
 4727TIP3    H114145   1.343   0.657   3.545 -0.4831  0.0206 -1.5323
 4727TIP3    H214146   1.214   0.613   3.611  1.7586 -0.9226  2.5126
 4728TIP3   OH214147   6.309   4.318   2.865  0.1504 -0.2555  0.2373
 4728TIP3    H114148   6.312   4.281   2.777 -0.5505 -1.6888  0.7901
 4728TIP3    H214149   6.217   4.314   2.890  0.0015  2.0575  0.2889
 4729TIP3   OH214150   5.382   1.998   1.709 -0.0217  0.5399 -0.0288
 4729TIP3    H114151   5.450   1.999   1.776  1.2282 -4.4610 -0.8059
 4729TIP3    H214152   5.304   1.966   1.754 -0.6363  1.9242 -0.0586
 4730TIP3   OH214153   4.989   1.076   2.192  0.2114 -0.6669  0.1892
 4730TIP3    H114154   4.975   1.168   2.171  0.3563 -0.9109 -1.0905
 4730TIP3    H214155   5.084   1.064   2.187  0.1731 -0.9357  0.0743
 4731TIP3   OH214156   5.814   2.529   1.397 -0.0691  0.4861  0.0106
 4731TIP3    H114157   5.826   2.543   1.303  1.2727 -2.0837 -0.2984
 4731TIP3    H214158   5.793   2.436   1.405  0.5475  0.4675  2.3146
 4732TIP3   OH214159   6.748   1.063   5.545 -0.6495  0.0678 -0.4635
 4732TIP3    H114160   6.774   1.067   5.637 -0.5273 -1.4038 -0.4050
 4732TIP3    H214161   6.652   1.062   5.547 -0.6542  0.6159 -0.3878
 4733TIP3   OH214162   1.439   1.082   2.820  0.1135  0.0619 -0.2173
 4733TIP3    H114163   1.473   1.093   2.908  0.6131  0.7720 -0.4940
 4733TIP3    H214164   1.442   1.169   2.781 -0.8114 -0.0946 -0.6924
 4734TIP3   OH214165   3.903   1.761   3.146 -0.0291 -0.0353  0.3239
 4734TIP3    H114166   3.981   1.816   3.142  0.6135 -0.9327  0.1215
 4734TIP3    H214167   3.834   1.814   3.107  0.5815  0.6103  0.1012
 4735TIP3   OH214168   6.715   2.506   4.606 -0.3025  0.8943 -0.1190
 4735TIP3    H114169   6.698   2.566   4.678  1.3346  0.9389  0.2519
 4735TIP3    H214170   6.644   2.523   4.544 -2.9705 -0.5129  2.2564
 4736TIP3   OH214171   5.785   2.055   4.105 -0.5246  0.4030 -0.1344
 4736TIP3    H114172   5.766   2.115   4.033  0.1423  2.0336  1.0094
 4736TIP3    H214173   5.813   2.111   4.177  1.2228 -1.3549  0.6418
 4737TIP3   OH214174   0.984   3.387   2.012  0.7270 -0.1171 -0.3301
 4737TIP3    H114175   0.979   3.460   1.949  0.6320  1.3058  1.2619
 4737TIP3    H214176   1.035   3.422   2.085  0.3860 -1.5467  0.6190
 4738TIP3   OH214177   3.432   1.229   1.600 -0.0251  0.2710  0.3080
 4738TIP3    H114178   3.511   1.277   1.628 -1.4224  3.1316 -0.2585
 4738TIP3    H214179   3.388   1.207   1.682  0.7269 -0.2507  0.5887
 4739TIP3   OH214180   6.976   6.105   4.146 -0.2868 -0.1643 -0.1772
 4739TIP3    H114181   6.911   6.136   4.208 -0.9484 -0.4944 -0.6920
 4739TIP3    H214182   7.023   6.184   4.118  2.3209 -0.2808  3.1846
 4740TIP3   OH214183   7.118   0.461   2.259  0.6262 -0.6531 -0.2073
 4740TIP3    H114184   7.035   0.420   2.239 -0.2173  0.8709  0.0299
 4740TIP3    H214185   7.157   0.405   2.327 -0.4882 -1.0417  0.1286
 4741TIP3   OH214186   4.840   2.030   0.071 -0.3998 -0.9474 -0.4212
 4741TIP3    H114187   4.881   2.090   0.008  0.4463  0.7541  1.6197
 4741TIP3    H214188   4.904   1.961   0.084 -0.1705 -0.7887 -0.7012
 4742TIP3   OH214189   1.704   4.351   0.728 -0.2165 -0.0525  0.3121
 4742TIP3    H114190   1.797   4.372   0.721 -0.1278 -0.2023  0.9548
 4742TIP3    H214191   1.673   4.402   0.802 -0.9092  0.8335 -0.5675
 4743TIP3   OH214192   2.020   6.570   2.701 -0.0116  0.3860 -0.4913
 4743TIP3    H114193   2.015   6.480   2.671 -3.4907 -0.1593  1.1005
 4743TIP3    H214194   2.053   6.564   2.791 -0.0784  0.6975 -0.4426
 4744TIP3   OH214195   3.398   0.462   4.038 -0.5953 -0.4922  0.4880
 4744TIP3    H114196   3.404   0.475   4.132  2.6857 -0.7366  0.4410
 4744TIP3    H214197   3.369   0.546   4.003 -0.2142  0.1301  1.6284
 4745TIP3   OH214198   2.111   3.784   0.388  0.1403  0.4705 -0.3965
 4745TIP3    H114199   2.026   3.806   0.351  0.9717  1.0098 -2.1239
 4745TIP3    H214200   2.096   3.779   0.482 -1.8911  0.0236 -0.6976
 4746TIP3   OH214201   2.539   2.481   3.508  0.8055  0.2100 -0.4064
 4746TIP3    H114202   2.620   2.447   3.470 -0.2343  1.3803 -4.1648
 4746TIP3    H214203   2.473   2.415   3.487  0.1464  1.0065 -0.9249
 4747TIP3   OH214204   2.176   4.641   5.590 -0.0252  0.2136 -0.2331
 4747TIP3    H114205   2.201   4.554   5.561 -1.1086 -0.4457  0.7638
 4747TIP3    H214206   2.178   4.694   5.510 -0.9899 -1.0975 -1.1649
 4748TIP3   OH214207   2.244   1.765   3.418  0.0850  0.0365  0.1831
 4748TIP3    H114208   2.203   1.851   3.425 -0.3867 -0.2437  0.9901
 4748TIP3    H214209   2.181   1.705   3.458 -0.1892 -0.8869 -1.5332
 4749TIP3   OH214210   0.930   2.890   1.718  0.5613 -0.2667 -0.0518
 4749TIP3    H114211   0.881   2.877   1.637  2.0534 -0.4917 -0.9741
 4749TIP3    H214212   0.977   2.972   1.704 -1.0729  1.0444  1.6491
 4750TIP3   OH214213   1.670   3.035   1.713  0.3025  0.0950  0.4287
 4750TIP3    H114214   1.656   3.003   1.623 -0.2669  0.9190  0.2147
 4750TIP3    H214215   1.672   2.955   1.766  1.3814 -0.4510 -0.3963
 4751TIP3   OH214216   3.841   1.249   1.396  0.6185 -0.1876  0.3006
 4751TIP3    H114217   3.927   1.284   1.371  0.2440 -0.2545 -1.1916
 4751TIP3    H214218   3.860   1.186   1.464  1.5762  1.0227  1.2115
 4752TIP3   OH214219   4.608   1.264   0.663  0.4170 -0.4353  0.5653
 4752TIP3    H114220   4.653   1.296   0.585  0.1931  0.8824  0.9481
 4752TIP3    H214221   4.648   1.312   0.735  0.4161 -1.4183  1.2382
 4753TIP3   OH214222   0.704   5.738   3.363 -0.0230 -0.6968 -0.8868
 4753TIP3    H114223   0.789   5.697   3.345  0.9360  1.0425 -0.6227
 4753TIP3    H214224   0.671   5.763   3.276  0.5547  0.0979 -0.8933
 4754TIP3   OH214225   0.130   5.903   1.991  0.1480 -0.2935  0.3816
 4754TIP3    H114226   0.175   5.863   2.066  0.3277 -0.1087  0.3756
 4754TIP3    H214227   0.056   5.845   1.973 -0.0508 -0.1979  0.8707
 4755TIP3   OH214228   0.473   4.521   3.828  0.6751 -0.8326  0.1585
 4755TIP3    H114229   0.447   4.609   3.856  1.0108 -1.1598  1.5460
 4755TIP3    H214230   0.493   4.531   3.735 -1.0735  0.1601 -0.1621
 4756TIP3   OH214231   2.967   5.245   3.037 -0.1501 -0.4572 -0.0031
 4756TIP3    H114232   2.931   5.198   2.962  0.6903 -0.4749 -0.4083
 4756TIP3    H214233   2.969   5.180   3.108  1.5143 -1.2376 -0.7089
 4757TIP3   OH214234   1.985   6.551   1.756 -0.0206 -0.2327  0.1341
 4757TIP3    H114235   2.049   6.599   1.808 -0.9432  0.2231  0.8913
 4757TIP3    H214236   1.912   6.535   1.817 -1.1029  0.2582 -0.9916
 4758TIP3   OH214237   2.953   1.186   4.572 -0.1517  0.0845  0.1468
 4758TIP3    H114238   2.994   1.200   4.487 -0.7259 -0.0667 -0.1657
 4758TIP3    H214239   2.958   1.271   4.616  0.4945  0.0600  0.1180
 4759TIP3   OH214240   0.845   2.539   4.758 -0.1318 -0.0363  0.1321
 4759TIP3    H114241   0.782   2.557   4.687 -0.8866  2.0812  1.2466
 4759TIP3    H214242   0.929   2.567   4.722 -0.5759  1.4489  0.1672
 4760TIP3   OH214243   3.653   6.221   5.116  0.6185 -0.3076 -0.1919
 4760TIP3    H114244   3.718   6.164   5.157  0.1525 -0.5164  0.2673
 4760TIP3    H214245   3.640   6.183   5.029  0.2560 -0.9532  0.1378
 4761TIP3   OH214246   1.494   6.316   5.864  0.0059  0.3597  0.1424
 4761TIP3    H114247   1.444   6.252   5.913 -0.4503 -0.4336 -1.3178
 4761TIP3    H214248   1.578   6.273   5.846  0.1589  0.6338  0.1824
 4762TIP3   OH214249   2.215   6.210   3.383 -0.1804  0.5357 -0.0788
 4762TIP3    H114250   2.164   6.147   3.435  1.3112  1.2154  2.3760
 4762TIP3    H214251   2.289   6.160   3.350 -1.1809  0.0792 -1.7814
 4763TIP3   OH214252   3.203   1.148   1.843  0.5128  0.2929 -0.3388
 4763TIP3    H114253   3.195   1.164   1.937 -0.7128  1.2134 -0.5650
 4763TIP3    H214254   3.212   1.053   1.835  0.3913  0.1855  0.6928
 4764TIP3   OH214255   1.313   2.713   4.155 -0.3992 -0.5584  0.8189
 4764TIP3    H114256   1.275   2.800   4.145  0.1172 -0.3283  0.8250
 4764TIP3    H214257   1.335   2.686   4.066  0.1736 -0.3413  0.8865
 4765TIP3   OH214258   1.479   3.649   1.648 -0.2445 -0.1172 -0.1244
 4765TIP3    H114259   1.419   3.720   1.624 -1.2831 -1.3008 -1.1407
 4765TIP3    H214260   1.530   3.632   1.569  2.2111  1.4965  0.9577
 4766TIP3   OH214261   0.391   3.241   3.664 -0.0898 -0.3531 -0.1988
 4766TIP3    H114262   0.413   3.177   3.597  0.3805 -0.1590 -0.2331
 4766TIP3    H214263   0.464   3.303   3.663 -1.0330  0.7814 -0.9072
 4767TIP3   OH214264   1.703   4.765   0.880  0.0373 -0.3998  0.2160
 4767TIP3    H114265   1.740   4.743   0.794  1.1621 -1.6438  0.9781
 4767TIP3    H214266   1.654   4.846   0.865  1.5109  0.2827 -1.2831
 4768TIP3   OH214267   2.838   0.285   0.852 -0.3489  0.0766 -0.0035
 4768TIP3    H114268   2.924   0.267   0.891 -0.6775 -0.9846  0.2568
 4768TIP3    H214269   2.852   0.272   0.758 -0.3595 -0.6845  0.0936
 4769TIP3   OH214270   0.660   5.102   2.748 -0.1287  0.1194  0.3958
 4769TIP3    H114271   0.647   5.109   2.843 -0.0955 -0.0931  0.4158
 4769TIP3    H214272   0.755   5.100   2.737 -0.1222  0.6840  0.3182
 4770TIP3   OH214273   1.642   3.864   5.546  0.2785 -0.2523  0.0711
 4770TIP3    H114274   1.681   3.890   5.630  0.6220 -0.3643 -0.0502
 4770TIP3    H214275   1.558   3.826   5.570  0.1064  0.2635  0.3164
 4771TIP3   OH214276   2.249   2.192   5.795 -0.3544  0.2166  0.9906
 4771TIP3    H114277   2.253   2.112   5.848 -0.6342 -0.7263 -0.3427
 4771TIP3    H214278   2.230   2.262   5.857  0.4996 -0.6565  2.2882
 4772TIP3   OH214279   3.340   6.432   5.299 -0.1621 -0.4213  0.3177
 4772TIP3    H114280   3.342   6.337   5.309  1.3799 -0.3979  0.5800
 4772TIP3    H214281   3.422   6.453   5.253 -1.0171  0.6828 -0.7879
 4773TIP3   OH214282   5.259   3.788   2.386  0.0901 -0.4313 -0.0693
 4773TIP3    H114283   5.276   3.823   2.298  1.1864 -0.9230 -0.0623
 4773TIP3    H214284   5.236   3.865   2.438 -3.1086 -0.3820 -1.3138
 4774TIP3   OH214285   3.946   4.736   1.973 -0.2253 -0.3600 -0.5242
 4774TIP3    H114286   3.929   4.731   1.879 -1.1070  1.1988 -0.4898
 4774TIP3    H214287   4.025   4.790   1.980 -0.4533 -0.0449 -0.3593
 4775TIP3   OH214288   0.537   3.595   2.077  0.1462 -0.3180 -0.1895
 4775TIP3    H114289   0.479   3.541   2.024  1.2129  0.2921 -2.0627
 4775TIP3    H214290   0.621   3.594   2.030  1.3897 -0.3350  1.8759
 4776TIP3   OH214291   5.673   3.636   3.674  0.2486 -0.0108  0.5198
 4776TIP3    H114292   5.699   3.628   3.766 -0.6129 -0.1674  0.7638
 4776TIP3    H214293   5.740   3.692   3.635 -0.4607  1.8156  1.7326
 4777TIP3   OH214294   2.239   0.574   3.969 -0.0383  0.1080  0.3164
 4777TIP3    H114295   2.321   0.622   3.967 -0.5876  1.0806  0.1586
 4777TIP3    H214296   2.211   0.577   4.060  0.5945 -1.1137  0.5630
 4778TIP3   OH214297   4.613   0.572   3.402 -0.2942  0.4126 -0.3735
 4778TIP3    H114298   4.601   0.498   3.462  1.4269  1.2441  1.1157
 4778TIP3    H214299   4.524   0.600   3.379 -1.0166 -0.2863  1.4105
 4779TIP3   OH214300   2.137   2.633   2.924 -0.0261 -0.1051 -0.4465
 4779TIP3    H114301   2.118   2.617   2.832 -0.0776 -2.8624 -0.0505
 4779TIP3    H214302   2.054   2.665   2.960 -0.2894  0.0332 -1.1612
 4780TIP3   OH214303   2.738   6.157   2.947  0.5373 -0.0940 -0.3319
 4780TIP3    H114304   2.717   6.135   3.038  0.1862 -0.1018 -0.4146
 4780TIP3    H214305   2.729   6.252   2.943 -1.7971 -0.2801 -0.9345
 4781TIP3   OH214306   5.590   2.872   3.830 -0.2671 -0.4276 -0.0148
 4781TIP3    H114307   5.635   2.816   3.892 -1.0731  0.0801  1.0727
 4781TIP3    H214308   5.593   2.959   3.870 -1.9685 -0.3351 -0.0153
 4782TIP3   OH214309   4.819   6.056   3.260 -0.2688 -0.5434  0.1868
 4782TIP3    H114310   4.897   6.020   3.303  0.9819 -0.2170 -1.6669
 4782TIP3    H214311   4.819   6.149   3.283  0.4414 -0.3541 -0.5217
 4783TIP3   OH214312   6.813   5.289   3.072 -0.2654 -0.3985 -0.4593
 4783TIP3    H114313   6.880   5.270   3.006  0.4742 -0.7144  0.3634
 4783TIP3    H214314   6.826   5.381   3.094 -0.4355 -0.3247 -0.6602
 4784TIP3   OH214315   0.322   3.324   2.185  0.4045  0.2398  0.1987
 4784TIP3    H114316   0.387   3.276   2.134  1.4387 -0.0159  1.6998
 4784TIP3    H214317   0.287   3.389   2.124  2.1287  0.4426 -0.6155
 4785TIP3   OH214318   3.382   1.203   0.858 -0.4835  0.4407 -0.3761
 4785TIP3    H114319   3.408   1.123   0.904  0.5033  1.1684  0.3547
 4785TIP3    H214320   3.450   1.267   0.880 -1.4815  1.6119 -0.5907
 4786TIP3   OH214321   0.123   3.145   3.555  0.0249 -0.0505  0.3932
 4786TIP3    H114322   0.183   3.070   3.555 -0.0402 -0.1099  1.0076
 4786TIP3    H214323   0.178   3.220   3.575 -0.2150 -0.2197  1.8381
 4787TIP3   OH214324   1.840   1.096   0.456  0.3900 -0.2493 -0.6810
 4787TIP3    H114325   1.802   1.056   0.378  0.2801  0.0713 -0.7961
 4787TIP3    H214326   1.882   1.024   0.502  0.5782 -0.4195 -1.1092
 4788TIP3   OH214327   5.554   2.807   1.298  0.3553 -0.4226  0.5037
 4788TIP3    H114328   5.579   2.828   1.388 -0.0357  0.0302  0.5052
 4788TIP3    H214329   5.465   2.840   1.289  0.8208  0.6381 -0.4308
 4789TIP3   OH214330   4.970   1.981   4.141 -0.7261 -0.0916 -0.2084
 4789TIP3    H114331   4.927   1.958   4.058 -0.8156  1.1479 -0.5302
 4789TIP3    H214332   5.014   2.064   4.123  0.5796 -0.5866  0.5525
 4790TIP3   OH214333   2.164   3.090   5.031  0.2550  0.9399 -0.6042
 4790TIP3    H114334   2.234   3.058   4.974 -0.5151 -1.2904 -0.3972
 4790TIP3    H214335   2.088   3.098   4.973  0.4249  2.5175 -0.6527
 4791TIP3   OH214336   1.197   0.509   4.177 -0.3459  0.4826 -0.2610
 4791TIP3    H114337   1.218   0.598   4.205  1.4016 -0.0010  0.1013
 4791TIP3    H214338   1.212   0.510   4.082 -2.9807  1.2297 -0.7606
 4792TIP3   OH214339   1.587   1.808   1.781  0.4632 -0.0886  1.0496
 4792TIP3    H114340   1.522   1.864   1.823 -0.2381 -0.0668 -0.0405
 4792TIP3    H214341   1.576   1.723   1.825 -0.3811 -0.1103  0.8291
 4793TIP3   OH214342   6.052   4.262   2.925  0.1428  0.0648  0.1629
 4793TIP3    H114343   6.045   4.229   3.015  1.6603  0.8704  0.6147
 4793TIP3    H214344   5.985   4.214   2.876  0.0286 -1.1851  1.4921
 4794TIP3   OH214345   1.914   3.057   0.012 -0.0091 -0.6506 -0.0201
 4794TIP3    H114346   1.985   3.074   0.073 -0.9421 -0.9719  1.1943
 4794TIP3    H214347   1.866   3.140   0.007 -0.6883 -0.9925  0.7083
 4795TIP3   OH214348   0.585   5.112   3.448  0.1790  0.2465 -0.4471
 4795TIP3    H114349   0.552   5.187   3.498  0.4019 -0.4703  0.7960
 4795TIP3    H214350   0.518   5.045   3.459 -0.0894  0.2956 -1.6791
 4796TIP3   OH214351   5.724   0.099   5.380 -0.3566  0.5393  0.5826
 4796TIP3    H114352   5.726   0.005   5.362  0.0072  0.5997  0.2767
 4796TIP3    H214353   5.687   0.106   5.468 -1.1667  0.1643  0.2862
 4797TIP3   OH214354   3.108   4.337   1.820  0.0982  0.1785  0.1284
 4797TIP3    H114355   3.104   4.250   1.858 -0.8770  1.7194  4.0689
 4797TIP3    H214356   3.190   4.374   1.853 -0.7564  1.5956  0.7524
 4798TIP3   OH214357   3.436   0.761   0.477  0.0705 -0.5692 -1.1173
 4798TIP3    H114358   3.364   0.698   0.483 -0.8872  0.5061 -0.9153
 4798TIP3    H214359   3.422   0.820   0.551 -0.5677  1.4009 -2.7203
 4799TIP3   OH214360   0.641   0.760   3.926  0.8212 -0.2847  0.5872
 4799TIP3    H114361   0.632   0.671   3.891  1.2323 -0.3942  0.7606
 4799TIP3    H214362   0.620   0.752   4.019 -4.7623  0.7168 -0.2091
 4800TIP3   OH214363   2.816   2.061   3.528 -0.2411 -0.0496  0.3933
 4800TIP3    H114364   2.784   2.138   3.482 -2.1299 -0.4164  1.0049
 4800TIP3    H214365   2.888   2.028   3.473 -0.1311  1.4822 -0.4411
 4801TIP3   OH214366   0.267   1.760   2.586  0.7531  0.1708 -0.4627
 4801TIP3    H114367   0.341   1.803   2.629  0.3737  1.3457 -0.9262
 4801TIP3    H214368   0.221   1.715   2.657  1.2591  0.4020  0.0193
 4802TIP3   OH214369   1.463   6.040   4.580  0.2077 -0.1242  0.6647
 4802TIP3    H114370   1.390   6.046   4.518 -0.6442  0.6258  1.7157
 4802TIP3    H214371   1.449   5.956   4.625  0.9842 -0.8053 -0.3115
 4803TIP3   OH214372   5.472   2.374   1.857 -0.6377 -0.4912 -0.0850
 4803TIP3    H114373   5.413   2.445   1.883  0.6344  0.8275 -0.6521
 4803TIP3    H214374   5.466   2.372   1.761 -0.8937 -1.3542 -0.0528
 4804TIP3   OH214375   3.787   3.258   0.686  0.1249  0.2202  0.1946
 4804TIP3    H114376   3.830   3.177   0.712  1.5707  1.0199  0.3978
 4804TIP3    H214377   3.699   3.231   0.659  0.7847 -1.4949 -0.3957
 4805TIP3   OH214378   2.463   0.159   0.375  0.1450  0.2474  0.1348
 4805TIP3    H114379   2.498   0.070   0.371 -0.6938 -0.0630 -0.6845
 4805TIP3    H214380   2.424   0.165   0.462 -0.7516 -0.5814 -0.1817
 4806TIP3   OH214381   5.657   5.733   5.846 -0.0948  0.0826  0.1485
 4806TIP3    H114382   5.603   5.658   5.869 -1.5503  0.5550 -1.5216
 4806TIP3    H214383   5.597   5.808   5.849  0.5620  0.6975 -1.3075
 4807TIP3   OH214384   1.946   2.590   2.400 -0.2058  1.0212 -0.0858
 4807TIP3    H114385   1.865   2.623   2.363 -0.6054  0.2522  0.0683
 4807TIP3    H214386   2.011   2.602   2.331 -0.6407  0.8666 -0.5251
 4808TIP3   OH214387   2.531   0.134   5.644  0.1398  0.2999  0.4503
 4808TIP3    H114388   2.570   0.059   5.600 -1.6145 -0.9709  0.9573
 4808TIP3    H214389   2.559   0.210   5.592 -0.0266 -0.9206 -1.5415
 4809TIP3   OH214390   2.324   0.786   3.565  0.7144 -0.2320 -0.4426
 4809TIP3    H114391   2.378   0.717   3.603 -0.6452 -2.2066 -1.8882
 4809TIP3    H214392   2.234   0.757   3.582  0.0755  1.8709  0.0323
 4810TIP3   OH214393   3.450   3.825   1.148  0.7640 -0.4734  0.0115
 4810TIP3    H114394   3.387   3.865   1.089  0.6960 -1.7161 -0.7868
 4810TIP3    H214395   3.527   3.882   1.143  0.5877 -0.2978 -0.9125
 4811TIP3   OH214396   2.162   1.613   0.054 -0.2858  0.2289  0.4987
 4811TIP3    H114397   2.131   1.524   0.035  0.8122 -0.1952  0.6080
 4811TIP3    H214398   2.250   1.600   0.088  0.5768  1.4597 -1.1273
 4812TIP3   OH214399   3.645   1.143   0.214  0.0585  0.1579 -0.3470
 4812TIP3    H114400   3.709   1.109   0.276  0.2637  0.1634 -0.5584
 4812TIP3    H214401   3.647   1.082   0.140 -1.0646 -0.5525  0.1772
 4813TIP3   OH214402   6.401   0.032   0.648 -0.2248  0.3670 -0.3279
 4813TIP3    H114403   6.325   0.089   0.637 -0.0946  0.7807  0.7233
 4813TIP3    H214404   6.456   0.048   0.571 -0.6358  0.9630 -0.4989
 4814TIP3   OH214405   6.455   0.440   0.640  0.2995 -0.1852 -0.0860
 4814TIP3    H114406   6.388   0.372   0.649  1.4927 -1.2085  1.7112
 4814TIP3    H214407   6.405   0.520   0.624 -1.2200 -1.2411 -0.9254
 4815TIP3   OH214408   2.826   3.042   2.988  0.1199  0.1694  0.2957
 4815TIP3    H114409   2.754   3.045   2.926  0.9310  3.3050 -0.6999
 4815TIP3    H214410   2.798   3.098   3.060  1.2578  0.9076  0.1968
 4816TIP3   OH214411   1.233   1.593   3.108  0.1255 -0.2682 -0.3218
 4816TIP3    H114412   1.162   1.595   3.172  0.6369 -0.6304  0.2601
 4816TIP3    H214413   1.252   1.685   3.090 -0.8951 -0.1658 -0.9423
 4817TIP3   OH214414   4.315   1.743   3.875 -0.1987 -0.1764  0.3164
 4817TIP3    H114415   4.372   1.763   3.950 -1.1959 -1.7731  1.5826
 4817TIP3    H214416   4.290   1.828   3.840  3.3527  0.6190 -0.6717
 4818TIP3   OH214417   5.154   4.670   1.107 -0.4042 -0.9436 -0.0708
 4818TIP3    H114418   5.243   4.681   1.073 -0.7601 -1.0910 -1.0905
 4818TIP3    H214419   5.097   4.699   1.035 -1.1706  0.1907  0.9512
 4819TIP3   OH214420   5.290   4.840   2.959 -0.0019  0.1258 -0.5013
 4819TIP3    H114421   5.380   4.865   2.941 -0.4158  1.8361 -0.3930
 4819TIP3    H214422   5.240   4.920   2.945 -1.3024 -0.3940  0.8841
 4820TIP3   OH214423   0.453   4.473   1.317 -0.0220 -0.2464 -0.3031
 4820TIP3    H114424   0.535   4.523   1.317  0.1616 -0.5409  0.6092
 4820TIP3    H214425   0.477   4.388   1.279 -0.5885  0.7138 -3.0197
 4821TIP3   OH214426   1.808   3.842   0.267 -0.7245  0.1058  0.0768
 4821TIP3    H114427   1.741   3.835   0.199 -0.5352 -1.4045  0.0143
 4821TIP3    H214428   1.758   3.855   0.348 -1.0716 -0.5816 -0.0253
 4822TIP3   OH214429   1.158   0.607   0.838  0.4048  0.5554 -0.5957
 4822TIP3    H114430   1.209   0.670   0.786 -0.7125  0.7317 -1.5098
 4822TIP3    H214431   1.092   0.574   0.777 -1.2202  1.0897  0.8272
 4823TIP3   OH214432   3.947   4.774   3.977 -0.9098 -0.3337 -0.3726
 4823TIP3    H114433   3.882   4.772   3.907 -0.8778  0.4194 -0.4339
 4823TIP3    H214434   4.031   4.774   3.932 -0.8758 -0.5907 -0.3111
 4824TIP3   OH214435   1.780   3.350   0.718  0.0942  1.0074 -0.0661
 4824TIP3    H114436   1.689   3.363   0.746  0.9019  1.4116  2.6248
 4824TIP3    H214437   1.805   3.434   0.678 -0.0945  1.6491  1.1236
 4825TIP3   OH214438   5.198   2.587   2.269  0.0801 -0.2355 -0.0146
 4825TIP3    H114439   5.103   2.576   2.270  0.0500  0.0026  0.5237
 4825TIP3    H214440   5.223   2.580   2.361  0.5321  0.1080 -0.1103
 4826TIP3   OH214441   1.581   6.141   3.264 -0.0620 -0.5098 -0.1687
 4826TIP3    H114442   1.569   6.046   3.274 -1.1947 -0.3793 -0.1860
 4826TIP3    H214443   1.637   6.150   3.187 -2.1566 -1.1046 -1.8345
 4827TIP3   OH214444   6.389   0.673   2.622  0.4071  0.0700  0.0000
 4827TIP3    H114445   6.355   0.597   2.574 -0.0218  0.3412 -0.1306
 4827TIP3    H214446   6.367   0.748   2.567  1.4286  0.2351 -0.1994
 4828TIP3   OH214447   6.814   1.605   0.576  0.0274 -0.2446  0.5208
 4828TIP3    H114448   6.842   1.513   0.584  2.2496  0.2964 -0.3101
 4828TIP3    H214449   6.779   1.612   0.487 -1.4042 -0.5557  1.0332
 4829TIP3   OH214450   6.795   5.293   1.642  0.4021  0.4674  0.0504
 4829TIP3    H114451   6.822   5.220   1.698 -1.0432 -0.7294 -0.7554
 4829TIP3    H214452   6.852   5.287   1.566  0.3480  0.2427  0.0274
 4830TIP3   OH214453   3.923   0.822   5.448  0.2290  0.5039 -0.5865
 4830TIP3    H114454   3.890   0.895   5.499  1.0761  0.8449 -0.5070
 4830TIP3    H214455   3.935   0.751   5.512 -0.8421  0.1963 -0.7090
 4831TIP3   OH214456   4.790   5.438   1.287  0.2467  0.6944 -0.1981
 4831TIP3    H114457   4.789   5.344   1.304 -0.0679  0.2397 -2.3979
 4831TIP3    H214458   4.709   5.454   1.239  0.0022  2.2170  0.6714
 4832TIP3   OH214459   5.338   0.314   0.708  0.4685  0.0955  0.5160
 4832TIP3    H114460   5.352   0.390   0.651  1.8195  0.4821  1.3076
 4832TIP3    H214461   5.419   0.263   0.699 -0.2930 -1.1090  0.2414
 4833TIP3   OH214462   5.023   2.348   3.460  0.2574  0.1600 -0.2365
 4833TIP3    H114463   4.995   2.266   3.500 -0.0499  0.1329 -0.5039
 4833TIP3    H214464   5.044   2.326   3.369 -0.0437  0.4162 -0.3718
 4834TIP3   OH214465   0.674   5.167   5.187  0.3530  0.7028 -0.3684
 4834TIP3    H114466   0.675   5.255   5.150  1.9254  1.3293  1.0125
 4834TIP3    H214467   0.643   5.179   5.277  1.7428  0.0501  0.2252
 4835TIP3   OH214468   2.587   4.795   4.486 -0.4052  0.2499  0.0331
 4835TIP3    H114469   2.679   4.794   4.511 -0.4289 -1.5901  0.1756
 4835TIP3    H214470   2.580   4.730   4.416 -1.1614  2.1884 -1.7977
 4836TIP3   OH214471   1.245   0.022   2.968  0.6829  0.4021  0.1738
 4836TIP3    H114472   1.318   0.007   2.907  0.1234  0.4234 -0.5189
 4836TIP3    H214473   1.195   0.093   2.928  1.5569  2.0423  1.8258
 4837TIP3   OH214474   3.026   2.711   2.165  0.2645  0.9288 -0.5086
 4837TIP3    H114475   2.979   2.731   2.246 -0.0999 -0.7087 -0.2843
 4837TIP3    H214476   3.091   2.644   2.190 -0.2521 -0.0419 -1.6509
 4838TIP3   OH214477   5.687   5.739   0.239  0.2299  0.2985 -0.1100
 4838TIP3    H114478   5.711   5.690   0.160  0.8614 -0.0236  0.2747
 4838TIP3    H214479   5.662   5.672   0.302  1.5807  0.4165  0.5847
 4839TIP3   OH214480   7.015   2.449   1.439  0.1720 -0.2716 -0.6809
 4839TIP3    H114481   7.020   2.378   1.375 -0.0226 -1.1794  0.2748
 4839TIP3    H214482   7.058   2.414   1.517  0.0095  0.6430 -0.1599
 4840TIP3   OH214483   3.132   3.538   5.229  0.0735  0.3374  0.0527
 4840TIP3    H114484   3.091   3.620   5.259 -0.7998 -0.3899  0.9038
 4840TIP3    H214485   3.064   3.496   5.176  0.9461  0.7102 -1.4256
 4841TIP3   OH214486   5.533   6.590   0.751 -0.0631 -0.4722  0.2844
 4841TIP3    H114487   5.447   6.563   0.719 -0.7039 -0.2925  1.7756
 4841TIP3    H214488   5.529   6.576   0.846  2.2321 -2.2897  0.2002
 4842TIP3   OH214489   6.074   5.467   0.981 -0.8082 -0.0885 -0.0842
 4842TIP3    H114490   6.090   5.418   0.900 -0.4278 -1.4481  0.7859
 4842TIP3    H214491   5.982   5.449   1.002 -0.5698 -0.7476  0.4275
 4843TIP3   OH214492   3.749   1.972   5.273 -0.3826 -0.1151  0.0257
 4843TIP3    H114493   3.836   1.937   5.291 -0.9067 -1.1019  0.7366
 4843TIP3    H214494   3.689   1.900   5.294 -1.2797 -0.0756 -2.1641
 4844TIP3   OH214495   6.670   2.038   4.729  0.1897  0.1027 -0.4534
 4844TIP3    H114496   6.615   2.017   4.654  2.1500 -0.8477 -1.7070
 4844TIP3    H214497   6.751   2.071   4.690  0.7299  0.9655  1.3067
 4845TIP3   OH214498   3.741   2.187   3.503 -0.1758 -0.1701  0.4924
 4845TIP3    H114499   3.740   2.279   3.476 -0.9397 -0.5643 -0.9028
 4845TIP3    H214500   3.777   2.140   3.428 -3.1908 -1.4058 -0.3076
 4846TIP3   OH214501   4.842   6.458   4.994 -0.3913 -0.1361  0.3767
 4846TIP3    H114502   4.776   6.504   5.046  0.7110  0.5752  1.1900
 4846TIP3    H214503   4.916   6.446   5.054  0.9354  0.7344 -1.0061
 4847TIP3   OH214504   6.437   6.298   1.007  0.0872 -0.4042 -0.1365
 4847TIP3    H114505   6.527   6.316   1.034 -0.0710  0.0871  0.0852
 4847TIP3    H214506   6.434   6.203   0.995  0.9433 -0.3157 -1.2458
 4848TIP3   OH214507   1.498   2.362   0.592  0.1453 -0.1752  0.2803
 4848TIP3    H114508   1.420   2.306   0.585 -0.7862  0.9770  1.0191
 4848TIP3    H214509   1.486   2.428   0.524 -0.3253  0.9166  1.3884
 4849TIP3   OH214510   3.069   1.863   2.918 -0.4098 -0.0130  0.4801
 4849TIP3    H114511   3.164   1.869   2.926 -0.2874 -0.5125 -0.5416
 4849TIP3    H214512   3.036   1.921   2.987  0.6253 -0.1158  1.0821
 4850TIP3   OH214513   4.685   2.516   1.543 -0.2513  0.2072 -0.2348
 4850TIP3    H114514   4.732   2.436   1.520 -0.3634  0.2604 -0.6720
 4850TIP3    H214515   4.743   2.562   1.604  1.1241  1.1431 -2.1454
 4851TIP3   OH214516   2.710   5.393   4.743  0.0662  0.1933 -0.4206
 4851TIP3    H114517   2.678   5.375   4.654 -1.0602  0.4131 -0.0715
 4851TIP3    H214518   2.799   5.357   4.744 -0.4426 -1.1689 -1.1698
 4852TIP3   OH214519   2.303   5.357   0.514 -0.2717 -0.6023  0.6016
 4852TIP3    H114520   2.382   5.307   0.492  0.7410  1.7600 -1.5723
 4852TIP3    H214521   2.235   5.317   0.459  0.3481 -0.1749 -0.5254
 4853TIP3   OH214522   5.603   2.361   3.109  0.4773  0.5695  0.0930
 4853TIP3    H114523   5.587   2.370   3.015 -1.7649 -1.9144  0.1068
 4853TIP3    H214524   5.691   2.323   3.115  1.7677  3.1910 -0.7589
 4854TIP3   OH214525   1.989   2.585   4.419  0.4320  0.1550  0.4290
 4854TIP3    H114526   1.906   2.539   4.409  0.6791  0.0435 -1.4482
 4854TIP3    H214527   2.047   2.520   4.461  0.3805 -0.8081 -0.9258
 4855TIP3   OH214528   6.670   5.737   5.783 -0.2109 -0.9587  0.2131
 4855TIP3    H114529   6.631   5.813   5.825 -0.6889 -1.1566  0.1308
 4855TIP3    H214530   6.600   5.700   5.728  0.7612  0.0600 -1.8258
 4856TIP3   OH214531   0.501   4.958   0.556  0.4090 -0.2472 -0.3544
 4856TIP3    H114532   0.564   5.010   0.606 -1.2550  1.4135  0.1086
 4856TIP3    H214533   0.416   4.996   0.577 -0.5893 -1.1465 -2.4880
 4857TIP3   OH214534   5.199   5.830   3.839  0.0205  0.1200 -0.5104
 4857TIP3    H114535   5.242   5.904   3.881 -0.7342  0.3641 -0.1499
 4857TIP3    H214536   5.204   5.760   3.904 -0.5623  0.3003 -0.2632
 4858TIP3   OH214537   5.387   4.191   4.806  0.0857 -0.7511 -0.1545
 4858TIP3    H114538   5.416   4.100   4.806 -0.0949 -0.8737  2.3335
 4858TIP3    H214539   5.349   4.205   4.893  1.4706  2.1051  0.1354
 4859TIP3   OH214540   0.291   3.232   1.550  0.0836  0.2449  0.1922
 4859TIP3    H114541   0.248   3.252   1.633  1.4259  0.9719  0.7453
 4859TIP3    H214542   0.353   3.162   1.571  0.7459  0.7350 -0.0709
 4860TIP3   OH214543   5.762   6.487   3.939  0.2948  0.1711 -0.4471
 4860TIP3    H114544   5.808   6.534   3.869  0.2087 -1.5191 -1.7104
 4860TIP3    H214545   5.708   6.423   3.893 -1.6869  0.6598  1.1004
 4861TIP3   OH214546   5.985   4.876   4.098 -0.1854 -0.2684  0.1193
 4861TIP3    H114547   5.960   4.885   4.190  0.3817  0.8973  0.1808
 4861TIP3    H214548   5.937   4.947   4.053 -0.9985 -1.2459 -0.6158
 4862TIP3   OH214549   3.315   0.733   4.088  0.8169  0.1501  0.5423
 4862TIP3    H114550   3.340   0.734   3.996  2.0502  2.2377  0.8341
 4862TIP3    H214551   3.240   0.793   4.093  1.2493  0.6590  1.0025
 4863TIP3   OH214552   5.171   3.825   5.436 -0.1357 -0.5406 -0.0822
 4863TIP3    H114553   5.238   3.893   5.439  0.6784 -1.2810 -0.9242
 4863TIP3    H214554   5.205   3.760   5.374 -1.4795 -1.0917 -0.2781
 4864TIP3   OH214555   1.235   0.906   5.316  0.0074  0.0796 -0.3926
 4864TIP3    H114556   1.272   0.841   5.256 -1.0694 -0.8489 -0.1019
 4864TIP3    H214557   1.243   0.989   5.270 -1.4471 -0.6914 -2.1778
 4865TIP3   OH214558   6.247   4.124   1.835  0.1424 -0.0116 -0.7134
 4865TIP3    H114559   6.267   4.141   1.743  0.1117 -0.6197 -0.8376
 4865TIP3    H214560   6.156   4.151   1.846  0.7632  2.1247 -0.3144
 4866TIP3   OH214561   0.341   3.528   1.826 -0.3268  0.0885 -0.3693
 4866TIP3    H114562   0.304   3.582   1.897 -0.7589 -1.3811  0.5535
 4866TIP3    H214563   0.274   3.528   1.758 -1.7889 -1.9104  0.9730
 4867TIP3   OH214564   4.848   6.157   0.168  0.1449  0.3281  0.0706
 4867TIP3    H114565   4.833   6.224   0.101  0.9664 -0.6718 -1.1483
 4867TIP3    H214566   4.934   6.178   0.204 -1.0461  1.9935  2.2423
 4868TIP3   OH214567   4.427   3.206   1.545  0.3326 -0.3329  0.4417
 4868TIP3    H114568   4.411   3.112   1.533 -0.4239 -0.2197  0.5000
 4868TIP3    H214569   4.519   3.218   1.520  0.3904 -1.0573  0.2728
 4869TIP3   OH214570   2.893   0.143   1.151  0.3110  0.1104  0.0067
 4869TIP3    H114571   2.806   0.107   1.171  0.9991 -0.9074  1.3252
 4869TIP3    H214572   2.911   0.112   1.062 -1.1514  1.3666 -0.7814
 4870TIP3   OH214573   3.865   5.761   0.610 -0.0934  0.0461 -0.3395
 4870TIP3    H114574   3.861   5.746   0.704 -2.9306  1.1692 -0.1849
 4870TIP3    H214575   3.932   5.829   0.599 -0.2959  0.4676  0.9496
 4871TIP3   OH214576   0.682   5.421   5.046 -0.6259 -0.2543 -0.1532
 4871TIP3    H114577   0.754   5.463   4.999 -1.0144 -0.1956 -0.7156
 4871TIP3    H214578   0.660   5.483   5.117  0.0076 -0.3733  0.1489
 4872TIP3   OH214579   1.175   5.876   5.033  0.8473  0.3613 -0.1327
 4872TIP3    H114580   1.124   5.954   5.014 -0.2728 -0.5496 -1.0297
 4872TIP3    H214581   1.172   5.825   4.952  1.1748 -0.8003  0.5608
 4873TIP3   OH214582   0.143   4.493   4.094  0.0301 -0.3319  0.1483
 4873TIP3    H114583   0.228   4.515   4.134 -0.6115  1.2861  0.7327
 4873TIP3    H214584   0.156   4.507   4.001  0.1260  1.0218  0.3446
 4874TIP3   OH214585   3.124   1.820   0.969 -0.2541 -0.6477  0.3129
 4874TIP3    H114586   3.209   1.814   0.927  0.8924 -1.5028  2.6016
 4874TIP3    H214587   3.082   1.736   0.949 -0.9831  0.0828 -1.4999
 4875TIP3   OH214588   2.805   6.662   1.272 -0.0991  0.0689  0.1615
 4875TIP3    H114589   2.840   6.600   1.208  1.5565 -0.1082  1.1646
 4875TIP3    H214590   2.727   6.699   1.230 -0.7844 -2.1970 -0.7169
 4876TIP3   OH214591   6.556   5.786   2.172 -0.6605  0.0618  0.6504
 4876TIP3    H114592   6.585   5.697   2.152  0.1376  0.4333  0.0630
 4876TIP3    H214593   6.550   5.789   2.268  0.9913 -0.1399  0.7892
 4877TIP3   OH214594   0.678   3.301   1.712 -0.2156 -0.3007  0.3584
 4877TIP3    H114595   0.623   3.339   1.644  0.8345  1.9470  0.6772
 4877TIP3    H214596   0.736   3.240   1.666 -0.9698 -0.4618 -0.3982
 4878TIP3   OH214597   7.133   4.655   2.711 -1.0210  0.0872  0.6378
 4878TIP3    H114598   7.211   4.648   2.765  0.2401 -0.3833 -1.1434
 4878TIP3    H214599   7.161   4.709   2.636 -1.8885 -1.4050 -0.8446
 4879TIP3   OH214600   5.268   2.409   5.819 -0.3609 -0.0106  0.0082
 4879TIP3    H114601   5.362   2.418   5.839 -0.4079 -0.1261  0.2943
 4879TIP3    H214602   5.263   2.334   5.760 -0.4882 -1.4526  1.7586
 4880TIP3   OH214603   4.034   5.968   2.682 -0.5442 -0.3566 -0.3637
 4880TIP3    H114604   4.127   5.980   2.703 -0.9230 -2.6262  3.5257
 4880TIP3    H214605   3.989   6.031   2.738 -1.4440 -0.7119 -0.6792
 4881TIP3   OH214606   6.358   2.673   2.751 -0.7890  0.3722 -0.4335
 4881TIP3    H114607   6.300   2.749   2.746  2.3234  2.9379 -0.6025
 4881TIP3    H214608   6.363   2.641   2.661 -1.2042  0.7118 -0.5844
 4882TIP3   OH214609   6.360   3.274   3.505 -0.3535  0.1144 -0.3466
 4882TIP3    H114610   6.408   3.345   3.547 -0.5913 -0.1507  0.4079
 4882TIP3    H214611   6.312   3.316   3.433  0.4819  0.4861 -0.6956
 4883TIP3   OH214612   6.638   0.669   2.985  0.1763  0.3573  0.1063
 4883TIP3    H114613   6.662   0.647   2.895  2.6052  0.5278  0.6388
 4883TIP3    H214614   6.624   0.585   3.028  0.8936  0.1756  0.0049
 4884TIP3   OH214615   1.091   5.152   2.670  0.4494 -0.2766  0.3863
 4884TIP3    H114616   1.184   5.130   2.667  0.3734 -0.5108 -0.2685
 4884TIP3    H214617   1.049   5.071   2.699  0.2462 -0.8006 -1.3043
 4885TIP3   OH214618   4.590   6.110   3.565  0.0346 -0.1056 -0.0137
 4885TIP3    H114619   4.667   6.063   3.596 -0.0259 -0.9900 -1.1094
 4885TIP3    H214620   4.622   6.163   3.492 -0.0377  1.0437  0.7654
 4886TIP3   OH214621   1.237   0.751   5.836  0.0475  0.0220  0.8199
 4886TIP3    H114622   1.265   0.826   5.888  0.0748  0.8756 -0.3717
 4886TIP3    H214623   1.288   0.678   5.870  1.5037  0.9427  0.7001
 4887TIP3   OH214624   5.554   0.273   5.175 -0.4686  0.7000 -0.4756
 4887TIP3    H114625   5.616   0.239   5.239 -0.3297  0.9568 -0.4720
 4887TIP3    H214626   5.588   0.244   5.090 -1.3517 -0.7474 -0.3545
 4888TIP3   OH214627   1.161   6.215   2.466 -0.0516  0.2991 -0.9199
 4888TIP3    H114628   1.077   6.204   2.422 -0.2244  1.1411 -0.8234
 4888TIP3    H214629   1.139   6.241   2.555  0.3091  0.6510 -0.9293
 4889TIP3   OH214630   5.526   4.365   3.837  0.2114 -0.0672 -0.6239
 4889TIP3    H114631   5.578   4.303   3.785  0.9291  0.1318 -0.1584
 4889TIP3    H214632   5.435   4.346   3.812  0.4997 -0.3970 -1.4758
 4890TIP3   OH214633   1.878   3.833   3.779 -0.0799 -0.1614 -0.1798
 4890TIP3    H114634   1.916   3.906   3.731  1.2548 -0.0676  0.9475
 4890TIP3    H214635   1.891   3.757   3.723  0.4982  0.1190 -0.4294
 4891TIP3   OH214636   3.467   0.278   1.049  0.4975  0.3963  0.6563
 4891TIP3    H114637   3.374   0.269   1.071  0.7071 -0.5429  1.2058
 4891TIP3    H214638   3.498   0.188   1.038  0.9382  0.7384 -1.3421
 4892TIP3   OH214639   4.047   5.811   1.487 -0.0629  0.2100 -0.0093
 4892TIP3    H114640   4.026   5.801   1.580 -0.7067 -0.2476 -0.1961
 4892TIP3    H214641   4.125   5.866   1.486 -0.0351  0.2006  0.8038
 4893TIP3   OH214642   2.512   6.336   4.269  0.1422 -0.3615  0.5643
 4893TIP3    H114643   2.541   6.254   4.228  1.7006 -0.7236  2.2503
 4893TIP3    H214644   2.589   6.367   4.316 -1.4906 -0.0266  3.2160
 4894TIP3   OH214645   3.220   4.677   1.716  0.1478 -0.6322 -0.3095
 4894TIP3    H114646   3.296   4.618   1.714 -0.5070 -1.5627  0.5904
 4894TIP3    H214647   3.219   4.711   1.806 -0.2053 -0.2339 -0.4630
 4895TIP3   OH214648   2.110   4.825   5.790 -0.1957  0.2913  0.4604
 4895TIP3    H114649   2.194   4.834   5.835 -0.0609 -0.9910  0.5156
 4895TIP3    H214650   2.126   4.758   5.723 -1.0777  0.3040  0.2262
 4896TIP3   OH214651   6.707   0.363   2.010  0.1344  0.1473 -0.4983
 4896TIP3    H114652   6.758   0.361   1.929 -1.4040  0.7071 -1.5261
 4896TIP3    H214653   6.711   0.273   2.043 -0.9253 -0.6381 -2.3398
 4897TIP3   OH214654   0.506   6.022   0.986  0.2590 -0.4367 -0.8996
 4897TIP3    H114655   0.421   6.057   1.014  0.8749 -0.8855  1.8835
 4897TIP3    H214656   0.563   6.099   0.983  0.1858 -0.3796 -0.8560
 4898TIP3   OH214657   1.692   5.591   1.876 -0.3810  0.0710 -0.4259
 4898TIP3    H114658   1.740   5.555   1.801 -0.3924 -1.4121  0.2453
 4898TIP3    H214659   1.654   5.673   1.843  0.3720 -0.0852 -1.7572
 4899TIP3   OH214660   7.066   3.176   3.916 -0.3602 -0.0787  0.2670
 4899TIP3    H114661   7.094   3.216   3.834 -0.0676  0.0961  0.4512
 4899TIP3    H214662   7.079   3.244   3.982  0.1895 -0.4853  0.5927
 4900TIP3   OH214663   0.497   0.139   5.702  0.2645  0.1853  0.5667
 4900TIP3    H114664   0.433   0.209   5.686 -1.4256 -1.4693 -0.3930
 4900TIP3    H214665   0.561   0.178   5.761  0.4874  3.1375 -1.3912
 4901TIP3   OH214666   5.611   5.827   0.597  0.5617  0.0841 -0.1971
 4901TIP3    H114667   5.668   5.766   0.644  0.0346  0.6878  1.2688
 4901TIP3    H214668   5.539   5.772   0.564 -0.1203 -0.0765  1.4535
 4902TIP3   OH214669   2.327   1.382   3.455 -0.4383  0.1585  0.4625
 4902TIP3    H114670   2.258   1.424   3.506 -1.9373 -0.2934 -1.1268
 4902TIP3    H214671   2.381   1.454   3.423 -0.4315  0.5456  1.3142
 4903TIP3   OH214672   3.490   1.007   4.282  0.4205  0.2816 -0.2450
 4903TIP3    H114673   3.396   0.990   4.289  0.7527 -1.4133  0.5790
 4903TIP3    H214674   3.502   1.039   4.192 -1.0673  1.6738 -0.0032
 4904TIP3   OH214675   0.829   1.748   3.276  0.8918 -0.3535  0.1627
 4904TIP3    H114676   0.778   1.682   3.322  2.2159 -1.0764  0.6701
 4904TIP3    H214677   0.786   1.759   3.191 -1.0276  0.2794  1.1640
 4905TIP3   OH214678   0.164   5.582   1.291 -0.2780 -0.3330  0.2103
 4905TIP3    H114679   0.119   5.664   1.272 -1.0585 -0.8204 -0.1547
 4905TIP3    H214680   0.146   5.565   1.383  0.9601  0.5318  0.6248
 4906TIP3   OH214681   5.660   2.880   0.993  0.5558  0.4656  0.7285
 4906TIP3    H114682   5.663   2.794   0.950 -0.0173  0.6394  0.3190
 4906TIP3    H214683   5.616   2.864   1.076 -2.2435  0.7993 -0.5572
 4907TIP3   OH214684   5.973   5.048   1.110  0.2896  0.5080 -0.0239
 4907TIP3    H114685   6.052   5.003   1.140  1.1393  1.0709 -1.3311
 4907TIP3    H214686   5.951   5.108   1.181 -0.0740 -0.9902  1.1555
 4908TIP3   OH214687   3.705   0.821   0.345 -0.7250  0.5858 -0.2854
 4908TIP3    H114688   3.629   0.798   0.398  0.3629 -2.5721  0.1271
 4908TIP3    H214689   3.677   0.807   0.254 -0.6076 -0.9131 -0.1172
 4909TIP3   OH214690   6.465   0.844   2.300  0.3470 -0.4005  0.3843
 4909TIP3    H114691   6.506   0.770   2.255 -0.9504  0.1761 -1.8873
 4909TIP3    H214692   6.538   0.891   2.340  1.0860 -3.9325  3.7602
 4910TIP3   OH214693   3.619   1.407   5.589  0.1327 -0.0389 -0.1319
 4910TIP3    H114694   3.603   1.499   5.610 -1.6215 -0.8733  2.8861
 4910TIP3    H214695   3.687   1.380   5.652  2.1834 -0.3973 -2.3648
 4911TIP3   OH214696   3.929   3.618   3.592 -0.0554 -0.0784  0.1755
 4911TIP3    H114697   3.958   3.527   3.594 -1.7937 -0.6622  0.8158
 4911TIP3    H214698   3.847   3.618   3.641 -0.2852  1.7723 -0.1380
 4912TIP3   OH214699   2.544   6.671   1.159  0.1195 -0.2005  0.4862
 4912TIP3    H114700   2.524   6.592   1.210  1.5503 -0.6477  0.3964
 4912TIP3    H214701   2.565   6.638   1.072 -0.3302  0.3832  0.1585
 4913TIP3   OH214702   3.660   6.232   3.014  0.2984 -0.0326 -0.3542
 4913TIP3    H114703   3.594   6.264   3.076 -1.0426  2.7827 -2.9965
 4913TIP3    H214704   3.743   6.267   3.047 -0.5039  2.1716 -0.4921
 4914TIP3   OH214705   3.774   1.248   2.532 -0.8234 -0.2715 -0.4485
 4914TIP3    H114706   3.808   1.159   2.519  1.0002  0.3843 -0.3720
 4914TIP3    H214707   3.823   1.302   2.471 -0.5028  0.9929  0.8689
 4915TIP3   OH214708   6.709   5.731   2.698 -0.0256  0.2263  0.5176
 4915TIP3    H114709   6.743   5.819   2.717 -0.6792  0.3397  1.2531
 4915TIP3    H214710   6.626   5.728   2.746  0.6292 -1.2788  1.5916
 4916TIP3   OH214711   4.219   1.214   3.708  0.0277  0.7564 -0.1351
 4916TIP3    H114712   4.159   1.160   3.657 -0.5413  1.8695 -0.6874
 4916TIP3    H214713   4.306   1.190   3.677 -0.1915 -0.1227 -0.0790
 4917TIP3   OH214714   1.075   6.206   5.065 -0.4014 -0.1855 -0.3395
 4917TIP3    H114715   1.101   6.298   5.065 -2.4412  0.4554 -1.8872
 4917TIP3    H214716   1.021   6.196   5.144 -0.9142  0.2035 -0.6322
 4918TIP3   OH214717   5.082   2.321   2.010  0.1883  0.1496 -0.3933
 4918TIP3    H114718   5.103   2.333   1.917 -1.0623  1.1296 -0.5741
 4918TIP3    H214719   4.990   2.294   2.010  0.4936 -0.9913  0.5235
 4919TIP3   OH214720   0.647   2.046   3.275 -0.4304  0.3814 -0.3623
 4919TIP3    H114721   0.617   1.956   3.266  0.2595  0.2111 -1.0780
 4919TIP3    H214722   0.569   2.095   3.303 -0.6846 -0.5124  0.5307
 4920TIP3   OH214723   6.083   4.613   0.007  0.3188 -0.8799  0.0658
 4920TIP3    H114724   6.022   4.571  -0.054  1.0509 -1.8224 -0.0404
 4920TIP3    H214725   6.094   4.549   0.077  1.1595 -0.7165  0.0977
 4921TIP3   OH214726   0.457   1.673   0.566 -0.6530  0.1476  0.0479
 4921TIP3    H114727   0.465   1.759   0.608 -0.4062 -0.0880  0.4822
 4921TIP3    H214728   0.377   1.681   0.513 -0.4662  0.7441 -0.1605
 4922TIP3   OH214729   3.360   5.929   3.043 -0.0256 -0.1375 -0.2899
 4922TIP3    H114730   3.325   5.841   3.053 -1.0310  0.0710 -1.7580
 4922TIP3    H214731   3.326   5.960   2.960  1.4195  1.1485 -0.4559
 4923TIP3   OH214732   6.157   1.713   1.960 -0.1111  0.4384  0.0070
 4923TIP3    H114733   6.236   1.694   1.909 -0.2474 -0.1713  0.0176
 4923TIP3    H214734   6.144   1.807   1.949  0.2696  0.4377 -0.4938
 4924TIP3   OH214735   2.280   4.066   3.810  0.1557  0.3933 -0.8340
 4924TIP3    H114736   2.260   4.120   3.734  2.4184  1.1408 -0.9827
 4924TIP3    H214737   2.205   4.076   3.868 -1.6042 -0.1524 -2.9094
 4925TIP3   OH214738   3.142   0.767   5.855  0.3851 -0.1932 -0.1661
 4925TIP3    H114739   3.209   0.832   5.875 -0.5679  0.5173  0.8423
 4925TIP3    H214740   3.188   0.683   5.858  1.7292  0.4078 -1.9009
 4926TIP3   OH214741   2.857   1.301   5.308 -0.1976 -0.0240 -0.5754
 4926TIP3    H114742   2.826   1.230   5.250 -0.1805 -1.0666  0.6533
 4926TIP3    H214743   2.830   1.274   5.395  1.5807  0.4880  0.1788
 4927TIP3   OH214744   2.971   5.353   4.718 -0.6717 -0.2703 -0.2467
 4927TIP3    H114745   3.030   5.377   4.646 -0.9277  2.3969  0.3537
 4927TIP3    H214746   3.018   5.378   4.797 -0.6444 -2.6363  0.5724
 4928TIP3   OH214747   6.615   0.080   1.338  0.1267 -0.4561 -0.7715
 4928TIP3    H114748   6.581   0.114   1.255 -1.4033 -2.4537 -1.0321
 4928TIP3    H214749   6.644  -0.009   1.317  1.5946 -0.3190  0.4388
 4929TIP3   OH214750   3.598   2.693   4.988  0.1665 -0.2032  0.3427
 4929TIP3    H114751   3.617   2.600   5.001  1.2311 -0.2280 -1.2152
 4929TIP3    H214752   3.611   2.732   5.075 -0.2527 -1.4873  1.0026
 4930TIP3   OH214753   6.210   4.993   4.575 -0.0276 -0.0604 -0.2526
 4930TIP3    H114754   6.218   5.083   4.543 -0.3820 -0.3703 -1.2613
 4930TIP3    H214755   6.285   4.948   4.536 -0.5019 -0.4622 -0.7196
 4931TIP3   OH214756   7.191   1.609   3.094 -0.4222 -0.5990 -0.1699
 4931TIP3    H114757   7.102   1.637   3.112 -0.6464 -1.1627 -0.3879
 4931TIP3    H214758   7.189   1.513   3.101  0.0721 -0.6464 -0.5618
 4932TIP3   OH214759   4.330   4.205   5.129 -0.2445  0.0841 -0.6876
 4932TIP3    H114760   4.287   4.275   5.080 -0.7057 -0.2831 -0.8123
 4932TIP3    H214761   4.275   4.128   5.114 -0.2306 -0.0998  0.1636
 4933TIP3   OH214762   1.823   2.153   2.267 -0.3527  0.5242  0.4542
 4933TIP3    H114763   1.850   2.204   2.344 -0.0055  0.7690  0.1713
 4933TIP3    H214764   1.849   2.063   2.287 -0.2424  0.5916  0.6144
 4934TIP3   OH214765   0.696   6.586   5.277  0.1651 -0.0167  0.7042
 4934TIP3    H114766   0.783   6.561   5.246 -0.3666  0.0304 -0.9329
 4934TIP3    H214767   0.640   6.511   5.258 -0.3262  0.2829  0.9231
 4935TIP3   OH214768   5.043   5.907   3.377 -0.2324  0.1206  0.4554
 4935TIP3    H114769   5.035   5.812   3.381 -0.7726  0.1963  1.8043
 4935TIP3    H214770   5.082   5.931   3.461 -1.8588  1.2192  0.9477
 4936TIP3   OH214771   6.882   5.602   3.465  0.2196 -0.3911 -0.2512
 4936TIP3    H114772   6.970   5.567   3.452  0.8822  1.5090 -1.2585
 4936TIP3    H214773   6.890   5.659   3.541 -0.2532 -0.4773 -0.1311
 4937TIP3   OH214774   2.063   4.625   3.705  0.2686  0.0566  0.2636
 4937TIP3    H114775   1.973   4.623   3.674  0.9271  0.4752 -1.9093
 4937TIP3    H214776   2.082   4.535   3.732 -0.0326 -0.6848 -1.8296
 4938TIP3   OH214777   4.609  -0.006   1.282 -0.6760 -0.1436 -0.5605
 4938TIP3    H114778   4.667   0.030   1.215  1.7520  0.1880  1.5177
 4938TIP3    H214779   4.522   0.021   1.257  0.3200  1.3663 -2.6623
 4939TIP3   OH214780   1.028   1.911   5.221 -0.1741  0.1243  0.6374
 4939TIP3    H114781   1.089   1.914   5.147 -1.4980 -1.9135 -0.6302
 4939TIP3    H214782   0.968   1.984   5.205 -0.7553 -0.5887 -0.6443
 4940TIP3   OH214783   4.213   5.366   2.905 -0.1315  0.1759  0.1459
 4940TIP3    H114784   4.301   5.355   2.869  0.1565  1.0806  0.5347
 4940TIP3    H214785   4.207   5.301   2.975  0.0312 -0.2445 -0.2275
 4941TIP3   OH214786   0.595   1.539   4.931 -0.2427  0.5297 -0.1414
 4941TIP3    H114787   0.641   1.622   4.944  0.0179  0.2016  1.2862
 4941TIP3    H214788   0.591   1.501   5.019  0.7645 -1.5518 -0.9356
 4942TIP3   OH214789   2.729   2.534   2.183 -0.1462 -0.2573  0.7947
 4942TIP3    H114790   2.688   2.620   2.173  1.3728  0.6681  2.1436
 4942TIP3    H214791   2.657   2.477   2.210 -0.9857  0.8340  0.9478
 4943TIP3   OH214792   0.055   6.024   5.866 -0.0677  0.3554  0.8564
 4943TIP3    H114793   0.123   6.046   5.929  0.6993 -0.8325  0.4929
 4943TIP3    H214794   0.103   5.990   5.790 -1.0767 -1.7375  1.0757
 4944TIP3   OH214795   0.086   0.178   3.733  0.2129  0.1182  0.2927
 4944TIP3    H114796   0.066   0.257   3.684  2.4014  0.5854  0.0830
 4944TIP3    H214797   0.096   0.110   3.666  0.5872  0.1666  0.3003
 4945TIP3   OH214798   4.870   6.724   5.460  0.0989 -0.2811  0.4435
 4945TIP3    H114799   4.894   6.662   5.529 -1.3172 -0.2548  0.9940
 4945TIP3    H214800   4.935   6.710   5.391 -0.2063 -2.4495  0.5170
 4946TIP3   OH214801   3.801   5.082   0.556 -0.2539  0.4988  0.1328
 4946TIP3    H114802   3.845   5.139   0.619 -2.5393  1.6999  0.7701
 4946TIP3    H214803   3.761   5.142   0.493  0.9941 -0.6403 -1.8648
 4947TIP3   OH214804   6.025   6.095   3.451  0.2976 -0.6913 -0.3457
 4947TIP3    H114805   6.042   6.140   3.534 -0.2906  1.2381 -1.1978
 4947TIP3    H214806   6.053   6.158   3.384  0.2679 -1.9855 -1.6178
 4948TIP3   OH214807   0.049   1.758   0.626  0.1746 -0.0338  0.0827
 4948TIP3    H114808  -0.015   1.713   0.571  2.3410 -1.5304 -1.3903
 4948TIP3    H214809   0.108   1.800   0.563  1.2549  0.3873  1.3392
 4949TIP3   OH214810   5.018   0.379   2.028 -0.2337  0.0342  0.1544
 4949TIP3    H114811   5.072   0.385   1.948  0.3286 -2.7871  0.2346
 4949TIP3    H214812   5.008   0.470   2.056 -0.1576  1.1209 -2.9183
 4950TIP3   OH214813   6.937   4.254   3.255  0.1541 -0.5791  0.2571
 4950TIP3    H114814   6.962   4.299   3.174  2.0166  1.1843  1.7118
 4950TIP3    H214815   6.842   4.265   3.260  0.4480  3.7351  0.6554
 4951TIP3   OH214816   0.808   1.254   1.687  0.3537  0.2553  0.0689
 4951TIP3    H114817   0.729   1.272   1.738  0.0649  0.3943 -0.4146
 4951TIP3    H214818   0.863   1.331   1.700  0.4334  0.1361  0.4477
 4952TIP3   OH214819   0.337   1.327   1.947  0.2979  0.8259 -0.4956
 4952TIP3    H114820   0.262   1.366   1.992  0.6943  1.0853 -0.0457
 4952TIP3    H214821   0.406   1.324   2.013  0.6129  0.3647 -0.8351
 4953TIP3   OH214822   4.483   6.564   2.134 -0.2891  0.1601 -0.0483
 4953TIP3    H114823   4.479   6.488   2.077 -1.0997  1.6181 -2.0878
 4953TIP3    H214824   4.399   6.563   2.181 -0.1151 -0.4250  0.2539
 4954TIP3   OH214825   5.098   5.115   5.028 -0.3065 -0.2014  0.1693
 4954TIP3    H114826   5.167   5.053   5.004 -0.8201 -0.7780  0.1593
 4954TIP3    H214827   5.026   5.096   4.967 -0.0362  1.2201 -0.6301
 4955TIP3   OH214828   4.526   1.734   0.150 -0.1433  0.2188  0.1374
 4955TIP3    H114829   4.527   1.638   0.150 -2.2383  0.0905  2.0624
 4955TIP3    H214830   4.595   1.759   0.089  0.2261 -2.5055 -0.7180
 4956TIP3   OH214831   6.782   3.392   0.671 -0.0408 -0.3015  0.0083
 4956TIP3    H114832   6.717   3.434   0.727  0.6497 -2.2057  2.4300
 4956TIP3    H214833   6.744   3.306   0.651  0.1601 -0.0222 -1.6825
 4957TIP3   OH214834   0.710   0.487   3.826 -0.2575 -0.6790  0.2297
 4957TIP3    H114835   0.643   0.425   3.795 -0.4845 -0.6729  0.7007
 4957TIP3    H214836   0.779   0.482   3.760 -0.4316 -1.1752  0.0798
 4958TIP3   OH214837   4.453   4.249   2.273 -0.1077  0.0403 -0.1547
 4958TIP3    H114838   4.393   4.226   2.202 -1.3413  0.3790  0.7262
 4958TIP3    H214839   4.405   4.225   2.353 -0.8207  3.8995  0.7753
 4959TIP3   OH214840   2.946   3.439   5.040 -0.2010 -0.2340 -0.8150
 4959TIP3    H114841   2.860   3.456   5.079 -0.1169  0.7603 -1.0358
 4959TIP3    H214842   2.935   3.356   4.994 -1.0360 -0.1457 -0.8012
 4960TIP3   OH214843   4.248   6.567   2.297 -0.1638 -0.2121  0.0472
 4960TIP3    H114844   4.182   6.528   2.355 -0.8442  0.8144 -0.0194
 4960TIP3    H214845   4.251   6.659   2.322 -0.9271  0.4040 -1.9750
 4961TIP3   OH214846   6.497   6.137   2.963 -0.4688  0.0561 -0.3801
 4961TIP3    H114847   6.574   6.088   2.934 -0.7970  0.2518 -1.6525
 4961TIP3    H214848   6.514   6.156   3.056  1.0337  0.1194 -0.6382
 4962TIP3   OH214849   0.916   2.886   3.443  0.1862  0.3696  0.4618
 4962TIP3    H114850   0.924   2.974   3.408  1.4679 -0.2871 -1.0093
 4962TIP3    H214851   0.930   2.896   3.537 -1.2161  1.9032  0.5573
 4963TIP3   OH214852   5.941   6.155   2.512 -0.5722  0.2669  0.1938
 4963TIP3    H114853   5.862   6.182   2.465 -0.6946 -1.1629 -0.4694
 4963TIP3    H214854   5.918   6.163   2.604 -1.5203 -0.1897  0.0072
 4964TIP3   OH214855   6.766   6.612   1.905 -0.4865  0.2935 -0.3448
 4964TIP3    H114856   6.737   6.602   1.996 -1.1539  0.2261 -0.5642
 4964TIP3    H214857   6.778   6.523   1.873 -2.1441  0.2500 -0.9200
 4965TIP3   OH214858   6.111   2.567   2.061  0.0179 -0.3508  0.4381
 4965TIP3    H114859   6.148   2.495   2.111 -0.0431 -0.9710 -0.3803
 4965TIP3    H214860   6.185   2.626   2.045 -0.1370  0.3195  1.9861
 4966TIP3   OH214861   1.153   4.066   2.311 -0.5041 -0.3491 -0.5257
 4966TIP3    H114862   1.106   4.134   2.359 -0.0285  0.9431 -1.8303
 4966TIP3    H214863   1.132   3.985   2.359 -1.1250  0.6747  1.0340
 4967TIP3   OH214864   2.772   0.769   5.625 -0.4120 -0.4599 -0.5667
 4967TIP3    H114865   2.698   0.815   5.665  0.4048 -0.6399  1.2582
 4967TIP3    H214866   2.816   0.836   5.572 -0.9709  0.0537 -0.3964
 4968TIP3   OH214867   3.933   4.791   2.960 -0.4490  0.0140 -0.0836
 4968TIP3    H114868   3.963   4.824   2.876  0.0056 -0.3434 -0.0659
 4968TIP3    H214869   3.863   4.851   2.986  0.1754  0.8009 -0.1741
 4969TIP3   OH214870   0.610   2.479   3.162 -0.6775 -0.4972  0.7288
 4969TIP3    H114871   0.590   2.424   3.237 -0.3505 -1.5589  0.0674
 4969TIP3    H214872   0.705   2.492   3.165 -0.4321 -1.8204 -0.3106
 4970TIP3   OH214873   3.401   5.105   2.051  0.0793 -0.0167 -0.0130
 4970TIP3    H114874   3.438   5.017   2.050 -0.4973 -0.2668 -0.2298
 4970TIP3    H214875   3.456   5.155   1.991 -1.2492 -0.9633 -2.1584
 4971TIP3   OH214876   2.097   3.102   0.196  0.0444  0.1019 -0.5056
 4971TIP3    H114877   2.069   3.087   0.286 -0.1696 -0.2451 -0.6280
 4971TIP3    H214878   2.136   3.190   0.197 -0.5647  0.3765 -0.2162
 4972TIP3   OH214879   2.993   2.180   0.218  0.1929 -0.0258  0.1769
 4972TIP3    H114880   2.915   2.210   0.170 -0.3704 -1.5607  0.0732
 4972TIP3    H214881   3.044   2.132   0.154  1.1342  0.7537  0.3120
 4973TIP3   OH214882   7.194   6.616   2.516  0.4100  0.1282 -0.2459
 4973TIP3    H114883   7.203   6.706   2.546  0.5959  0.1248 -0.2896
 4973TIP3    H214884   7.101   6.595   2.528  0.4420  0.2008  0.1156
 4974TIP3   OH214885   2.905   6.550   5.455  0.0083 -0.3043  0.8776
 4974TIP3    H114886   2.851   6.485   5.500 -0.6341  0.1248  0.7333
 4974TIP3    H214887   2.853   6.630   5.456 -0.8764 -0.7005 -2.2382
 4975TIP3   OH214888   7.151   6.522   1.324  0.4862 -0.3917 -0.3130
 4975TIP3    H114889   7.218   6.542   1.389 -0.1794 -1.9312  0.9314
 4975TIP3    H214890   7.184   6.444   1.279 -0.4465 -1.1992  0.3545
 4976TIP3   OH214891   1.316   2.978   1.831 -0.5418  0.2777  0.1669
 4976TIP3    H114892   1.280   2.906   1.883  1.0847  0.2335  1.3035
 4976TIP3    H214893   1.245   3.042   1.827 -0.5289  0.6351  3.1820
 4977TIP3   OH214894   3.139   1.182   2.116  0.1392 -0.0730 -0.1337
 4977TIP3    H114895   3.202   1.251   2.139 -0.7713  1.4655 -1.9219
 4977TIP3    H214896   3.056   1.211   2.154 -0.0058 -0.8649  0.1783
 4978TIP3   OH214897   2.746   0.439   2.759  0.7615  0.2622 -0.1351
 4978TIP3    H114898   2.813   0.395   2.707 -0.1416  1.6026 -2.6176
 4978TIP3    H214899   2.685   0.370   2.784  0.5147 -0.3005 -2.0917
 4979TIP3   OH214900   5.020   6.620   5.249 -0.5574 -0.6856  0.2960
 4979TIP3    H114901   4.973   6.640   5.168 -1.0928  0.1345  0.7896
 4979TIP3    H214902   5.028   6.525   5.249  1.0161 -0.6069 -1.5661
 4980TIP3   OH214903   3.586   0.109   3.404 -0.1685  0.0241 -0.5690
 4980TIP3    H114904   3.495   0.101   3.374 -0.4780  1.9875 -0.3118
 4980TIP3    H214905   3.579   0.125   3.498  0.6037 -2.1477 -0.0939
 4981TIP3   OH214906   6.275   1.075   1.528 -0.1303 -0.0931 -0.0693
 4981TIP3    H114907   6.343   1.141   1.543 -1.4672  0.8616  2.3132
 4981TIP3    H214908   6.314   0.992   1.555  0.3545  0.3141  0.4904
 4982TIP3   OH214909   0.984   1.680   4.042 -0.1402 -0.4217 -0.0380
 4982TIP3    H114910   0.942   1.644   3.964 -0.4752 -0.9082  0.3594
 4982TIP3    H214911   0.917   1.736   4.081 -0.4029 -1.1399  0.5577
 4983TIP3   OH214912   0.539   5.552   3.487  0.9360 -0.5415 -0.3748
 4983TIP3    H114913   0.592   5.606   3.429  1.2448  0.7174  0.9941
 4983TIP3    H214914   0.496   5.489   3.430  1.2273  0.6287 -1.9452
 4984TIP3   OH214915   5.591   1.465   1.478  0.2233  0.1308  0.2773
 4984TIP3    H114916   5.537   1.544   1.486 -0.6052 -0.3410 -0.5083
 4984TIP3    H214917   5.654   1.485   1.409 -0.2614 -0.0461 -0.2171
 4985TIP3   OH214918   6.460   6.395   2.854  0.3651  0.1382 -0.3710
 4985TIP3    H114919   6.429   6.417   2.766 -0.5045 -0.3174 -0.1889
 4985TIP3    H214920   6.471   6.300   2.852 -0.2342  0.0469  0.1820
 4986TIP3   OH214921   5.912   4.084   2.744 -0.1909  0.2637  0.3827
 4986TIP3    H114922   5.917   3.989   2.752  0.9241  0.1800 -1.0273
 4986TIP3    H214923   5.959   4.105   2.663 -0.6549  1.9946  0.5092
 4987TIP3   OH214924   1.809   4.902   0.169  0.1850  0.0607  0.7990
 4987TIP3    H114925   1.775   4.968   0.109 -1.2870 -0.4238  1.0563
 4987TIP3    H214926   1.884   4.865   0.123 -0.3743  0.3196 -0.3667
 4988TIP3   OH214927   3.523   5.741   2.469 -0.0925  0.0675 -0.0905
 4988TIP3    H114928   3.455   5.710   2.528 -0.1365  1.3562  0.5601
 4988TIP3    H214929   3.575   5.801   2.522  0.3548  0.6279 -1.1409
 4989TIP3   OH214930   2.160   1.325   5.777  0.1512 -0.2855 -0.6982
 4989TIP3    H114931   2.134   1.243   5.820  1.0168  1.0740  2.7291
 4989TIP3    H214932   2.078   1.374   5.768 -0.1376 -0.8573 -1.2593
 4990TIP3   OH214933   2.864   1.921   1.970 -0.0086 -0.6386  0.1402
 4990TIP3    H114934   2.790   1.940   1.912  1.2662  1.1938 -1.0023
 4990TIP3    H214935   2.910   1.849   1.928  0.2353 -0.1144 -0.5139
 4991TIP3   OH214936   4.251   2.475   1.250  0.0147 -0.3034 -0.2928
 4991TIP3    H114937   4.212   2.396   1.287  0.7860 -0.8527 -0.6199
 4991TIP3    H214938   4.305   2.510   1.321 -0.3752 -0.0331 -0.1277
 4992TIP3   OH214939   2.626   2.774   1.542  0.4292 -0.4544  0.3991
 4992TIP3    H114940   2.652   2.769   1.634  0.3849 -1.6224  0.3696
 4992TIP3    H214941   2.539   2.734   1.539 -0.9444  2.3429  0.3082
 4993TIP3   OH214942   1.084   6.068   1.641 -0.2793 -0.7351 -0.2064
 4993TIP3    H114943   1.120   5.985   1.674  2.8275  0.8632  0.8249
 4993TIP3    H214944   1.053   6.113   1.719 -0.1581 -0.1460 -0.4940
 4994TIP3   OH214945   5.032   5.312   4.312  0.8744  0.8254  0.5653
 4994TIP3    H114946   5.117   5.308   4.356  0.5603  0.1905  1.1412
 4994TIP3    H214947   4.975   5.258   4.367  0.5106 -0.1715 -0.7401
 4995TIP3   OH214948   3.329   1.549   3.852 -0.2028  0.6388 -0.1361
 4995TIP3    H114949   3.346   1.458   3.827 -2.0007  0.6065 -1.4027
 4995TIP3    H214950   3.369   1.558   3.938  1.1496 -0.9609 -0.5384
 4996TIP3   OH214951   3.646   3.832   3.390 -0.0936 -0.1388  0.0086
 4996TIP3    H114952   3.614   3.817   3.479  0.7106  0.3892  0.3947
 4996TIP3    H214953   3.672   3.924   3.389 -1.7247  0.3735 -1.2916
 4997TIP3   OH214954   4.475   1.481   2.661  0.0421 -0.2815 -0.3803
 4997TIP3    H114955   4.383   1.460   2.677 -0.2655 -0.0841 -1.7639
 4997TIP3    H214956   4.474   1.570   2.626  0.4431 -1.2003 -2.9772
 4998TIP3   OH214957   6.034   6.628   4.021 -0.3068  0.5000 -0.1284
 4998TIP3    H114958   5.982   6.559   4.061  1.4349 -0.2977  0.8950
 4998TIP3    H214959   5.999   6.636   3.932 -2.3666  0.2873  0.6070
 4999TIP3   OH214960   1.712   2.465   2.142  0.3779 -0.0462 -0.3406
 4999TIP3    H114961   1.659   2.435   2.216  0.0048 -2.5375 -1.5039
 4999TIP3    H214962   1.659   2.532   2.100  0.3479  0.9937  1.2714
 5000TIP3   OH214963   2.833   6.523   4.714 -0.4367  0.1309  0.2381
 5000TIP3    H114964   2.768   6.571   4.765 -0.2444 -2.0214  2.6567
 5000TIP3    H214965   2.825   6.432   4.742  0.8810 -0.9145 -2.3816
 5001TIP3   OH214966   3.134   3.317   3.425  0.3014  0.4531  0.4505
 5001TIP3    H114967   3.047   3.334   3.462  0.2150  1.1375 -0.0396
 5001TIP3    H214968   3.162   3.402   3.391  0.4839 -0.0876 -0.8113
 5002TIP3   OH214969   3.311   4.818   5.872 -0.0268  0.2926  0.8824
 5002TIP3    H114970   3.271   4.754   5.813 -0.2118 -1.6784  2.9910
 5002TIP3    H214971   3.396   4.779   5.895  0.3046  1.3174  1.4518
 5003TIP3   OH214972   5.650   1.633   0.729 -0.0256 -0.1657 -0.0779
 5003TIP3    H114973   5.639   1.689   0.806 -1.7836  1.9837 -1.7777
 5003TIP3    H214974   5.664   1.693   0.656 -0.5678 -2.0104 -1.8041
 5004TIP3   OH214975   4.889   4.820   3.347  0.0855 -0.1148  0.0133
 5004TIP3    H114976   4.983   4.803   3.341  0.2082  0.1378  1.0149
 5004TIP3    H214977   4.866   4.861   3.263  1.2791  1.6907  0.5122
 5005TIP3   OH214978   6.278   6.421   3.737 -0.5211  0.0636 -0.5018
 5005TIP3    H114979   6.340   6.349   3.733 -2.6109 -1.8429 -0.3285
 5005TIP3    H214980   6.279   6.450   3.829  0.2395  0.1835 -0.5479
 5006TIP3   OH214981   1.187   5.513   2.558 -0.0113 -0.2612  0.1630
 5006TIP3    H114982   1.184   5.505   2.462  0.4468  0.9490  0.0264
 5006TIP3    H214983   1.268   5.469   2.583  0.1906 -0.0361 -0.0787
 5007TIP3   OH214984   4.395   2.257   1.536 -0.2997  0.7900  0.7035
 5007TIP3    H114985   4.315   2.216   1.569 -0.2615  0.9840  1.0353
 5007TIP3    H214986   4.466   2.208   1.578 -0.2428  0.7252  0.5352
 5008TIP3   OH214987   3.923   2.107   0.827 -0.4115 -0.3892  0.3086
 5008TIP3    H114988   3.972   2.160   0.889 -0.9642  1.6032 -0.8283
 5008TIP3    H214989   3.986   2.044   0.792  0.4102 -0.1657  1.3673
 5009TIP3   OH214990   3.055   2.205   4.629  0.3593  0.1280  0.0899
 5009TIP3    H114991   3.017   2.262   4.562  0.0419 -2.4207 -2.0982
 5009TIP3    H214992   3.144   2.238   4.641  0.3893  0.7573 -1.5388
 5010TIP3   OH214993   3.527   2.633   1.020  0.2621  0.2237 -0.2916
 5010TIP3    H114994   3.536   2.553   0.969 -0.0705  1.0246 -1.6360
 5010TIP3    H214995   3.558   2.609   1.108 -0.6577 -1.5931 -0.4373
 5011TIP3   OH214996   3.177   6.389   1.105  0.3886 -0.7573  0.0400
 5011TIP3    H114997   3.174   6.440   1.024 -1.6135  0.8446  1.0265
 5011TIP3    H214998   3.157   6.299   1.077  1.5456 -0.5997 -1.4267
 5012TIP3   OH214999   3.171   0.373   4.245 -0.0310  0.0676  0.1469
 5012TIP3    H115000   3.081   0.392   4.273 -0.7962 -1.0418 -1.4299
 5012TIP3    H215001   3.161   0.323   4.164  2.0522  1.8629 -1.3243
 5013TIP3   OH215002   2.006   3.726   3.513 -0.3967 -0.5084  0.0633
 5013TIP3    H115003   1.925   3.760   3.475 -0.6459 -0.4619  0.6192
 5013TIP3    H215004   2.060   3.803   3.527  0.3436 -0.6746 -1.6400
 5014TIP3   OH215005   5.044   1.584   2.935 -0.1017 -0.6029 -0.4522
 5014TIP3    H115006   5.124   1.547   2.971 -1.0934 -1.0919  1.4098
 5014TIP3    H215007   5.039   1.671   2.973 -0.4920 -0.6066 -0.4933
 5015TIP3   OH215008   1.238   2.640   0.238  0.2459  0.0430 -0.3953
 5015TIP3    H115009   1.183   2.714   0.266 -1.5755 -0.4785 -2.3671
 5015TIP3    H215010   1.267   2.664   0.150  0.1381 -1.3149 -0.8139
 5016TIP3   OH215011   2.873   3.077   5.545  0.7259  0.0841  0.2439
 5016TIP3    H115012   2.811   3.126   5.491  1.0491  1.1587  0.8231
 5016TIP3    H215013   2.832   3.075   5.632 -0.4649 -2.8197 -0.2604
 5017TIP3   OH215014   5.814   1.371   3.815 -0.7268 -0.4532  0.3506
 5017TIP3    H115015   5.831   1.283   3.848  0.7641 -0.1266  0.5474
 5017TIP3    H215016   5.852   1.429   3.882 -2.0801  0.3783  0.4593
 5018TIP3   OH215017   6.663   0.528   4.464  0.6576  0.3364 -0.2502
 5018TIP3    H115018   6.711   0.490   4.537  2.8658  1.7073 -0.8765
 5018TIP3    H215019   6.575   0.546   4.499  0.7412 -1.6576  1.1525
 5019TIP3   OH215020   1.987   2.936   0.601  0.1330 -0.4534  0.5279
 5019TIP3    H115021   2.005   3.021   0.561  1.6623 -0.2910  1.4780
 5019TIP3    H215022   2.074   2.899   0.617 -0.5009 -2.5234 -0.5181
 5020TIP3   OH215023   3.151   6.426   4.004  0.1348 -0.4635 -0.5363
 5020TIP3    H115024   3.163   6.484   3.929 -0.4547 -0.9261 -1.0042
 5020TIP3    H215025   3.229   6.372   4.006  0.5053  0.0704 -0.3407
 5021TIP3   OH215026   0.502   0.561   4.576  0.0071 -0.1234  0.7829
 5021TIP3    H115027   0.574   0.601   4.625 -0.4678 -1.3291  2.5633
 5021TIP3    H215028   0.492   0.474   4.615 -1.2497 -0.6579 -0.6369
 5022TIP3   OH215029   2.191   5.921   2.326  0.9630 -0.0376  0.4904
 5022TIP3    H115030   2.118   5.907   2.267  1.4293 -0.2929 -0.0395
 5022TIP3    H215031   2.210   6.014   2.320  0.6188  0.0489  0.7123
 5023TIP3   OH215032   1.292   2.170   4.821 -0.3317 -1.0643 -0.1168
 5023TIP3    H115033   1.357   2.217   4.769 -1.0763  1.4423  1.0702
 5023TIP3    H215034   1.242   2.120   4.758 -0.4246  0.9260 -1.7232
 5024TIP3   OH215035   5.097   0.616   5.451  0.1516 -0.1727  0.6119
 5024TIP3    H115036   5.166   0.599   5.516 -0.3538  1.3833  1.6168
 5024TIP3    H215037   5.120   0.561   5.376  1.2837 -1.3082  1.7423
 5025TIP3   OH215038   2.923   4.746   5.840 -0.2000 -0.1364  0.6163
 5025TIP3    H115039   2.832   4.738   5.868 -1.5761  2.6735 -2.3660
 5025TIP3    H215040   2.960   4.810   5.901 -0.8008  0.0929  0.7529
 5026TIP3   OH215041   4.189   0.875   4.926 -0.2377  0.3098  0.2260
 5026TIP3    H115042   4.226   0.787   4.921 -0.3540  0.3121 -0.7265
 5026TIP3    H215043   4.113   0.865   4.984 -0.8827 -0.4448 -0.7271
 5027TIP3   OH215044   2.761   2.218   3.036 -0.3002  0.2604  0.1506
 5027TIP3    H115045   2.847   2.213   2.994 -0.6196  0.8571 -0.6062
 5027TIP3    H215046   2.705   2.257   2.969 -0.9470  0.7550  0.9704
 5028TIP3   OH215047   3.560   5.068   2.991  0.3739  0.3722  0.1139
 5028TIP3    H115048   3.602   5.129   2.931 -1.0365  0.5571 -0.7357
 5028TIP3    H215049   3.470   5.100   2.999 -0.7976 -2.2476 -1.3675
 5029TIP3   OH215050   6.381   2.552   4.710  0.1461  0.3656  0.2435
 5029TIP3    H115051   6.378   2.476   4.769  1.4555 -0.0393 -0.1881
 5029TIP3    H215052   6.364   2.627   4.767  0.5396 -0.0937  0.9878
 5030TIP3   OH215053   4.089   3.601   4.715  0.2029  0.1322 -0.4706
 5030TIP3    H115054   4.182   3.620   4.728  0.2883 -0.2261 -0.5415
 5030TIP3    H215055   4.063   3.658   4.642  0.5848 -0.4081 -1.0405
 5031TIP3   OH215056   2.483   1.085   3.144 -0.3366 -0.4696 -0.4949
 5031TIP3    H115057   2.516   1.060   3.057 -0.2089 -0.2932 -0.4972
 5031TIP3    H215058   2.492   1.180   3.147  1.4289 -0.6194  0.4170
 5032TIP3   OH215059   3.250   6.447   5.671  0.5562  0.0022 -0.1659
 5032TIP3    H115060   3.193   6.471   5.598  0.7914 -0.1894 -0.4124
 5032TIP3    H215061   3.230   6.512   5.739 -0.4033 -0.4419 -0.0174
 5033TIP3   OH215062   5.133   1.303   0.830  0.0458 -0.5657 -0.0426
 5033TIP3    H115063   5.119   1.211   0.810  1.4776 -1.4258  2.5508
 5033TIP3    H215064   5.226   1.317   0.814 -0.0817  0.3412 -0.0418
 5034TIP3   OH215065   1.448   1.209   3.829 -0.1372 -0.7428  0.1669
 5034TIP3    H115066   1.428   1.271   3.898  1.1483  0.5392 -0.5538
 5034TIP3    H215067   1.393   1.236   3.755 -0.3927 -1.1602  0.2000
 5035TIP3   OH215068   0.327   4.516   1.540  0.2947 -0.1081  0.0401
 5035TIP3    H115069   0.379   4.505   1.460  1.0326 -0.9472  0.6158
 5035TIP3    H215070   0.291   4.605   1.533  1.5116  0.3620 -0.5476
 5036TIP3   OH215071   4.312   0.478   5.833 -0.2098  0.0015 -0.1802
 5036TIP3    H115072   4.405   0.460   5.824 -0.0688  0.7085 -0.2267
 5036TIP3    H215073   4.308   0.569   5.863 -0.9010  0.2866 -1.0850
 5037TIP3   OH215074   2.916   2.497   2.382  0.2722 -0.2405 -0.1172
 5037TIP3    H115075   2.862   2.516   2.305  0.6251  0.9746 -0.0800
 5037TIP3    H215076   2.973   2.426   2.354 -1.9274 -2.2240  0.1166
 5038TIP3   OH215077   0.434   6.477   5.329 -0.3470 -0.2373 -0.2015
 5038TIP3    H115078   0.362   6.421   5.359  0.3049 -1.1163 -0.2708
 5038TIP3    H215079   0.512   6.441   5.371  0.1660  0.2564 -0.7232
 5039TIP3   OH215080   0.281   0.341   5.157  0.6833 -0.8314  0.1929
 5039TIP3    H115081   0.348   0.395   5.201 -1.3678  0.6538  1.6829
 5039TIP3    H215082   0.311   0.251   5.170  0.9668 -0.3937  3.4685
 5040TIP3   OH215083   5.489   0.826   0.870  0.3533  0.2790  0.5499
 5040TIP3    H115084   5.436   0.746   0.862  0.2215  0.4805 -0.9257
 5040TIP3    H215085   5.431   0.889   0.911 -0.8899  0.7154 -1.6927
 5041TIP3   OH215086   6.038   0.968   1.823  0.2067  0.4604 -0.7114
 5041TIP3    H115087   5.955   0.968   1.870  0.9650  2.3431  0.7695
 5041TIP3    H215088   6.019   0.926   1.739 -1.8598 -0.5010  0.1655
 5042TIP3   OH215089   5.459   4.061   2.616  0.1383 -0.1517 -0.3418
 5042TIP3    H115090   5.494   3.996   2.676  1.0480  0.4706 -0.1688
 5042TIP3    H215091   5.366   4.040   2.608  0.8709 -3.1800 -2.4775
 5043TIP3   OH215092   7.153   1.221   1.010  0.0326  0.3991 -0.3420
 5043TIP3    H115093   7.212   1.179   1.073 -1.3509 -2.7441 -0.9432
 5043TIP3    H215094   7.191   1.203   0.925  0.5520  2.4115 -0.5804
 5044TIP3   OH215095   4.418   1.694   2.352 -0.9505 -0.4063  0.0566
 5044TIP3    H115096   4.439   1.602   2.365  0.1333 -0.0324  1.1297
 5044TIP3    H215097   4.423   1.733   2.439 -0.3353  0.8788 -0.5140
 5045TIP3   OH215098   5.300   6.445   4.092 -0.1619  0.6948  0.3156
 5045TIP3    H115099   5.263   6.469   4.007  0.2075  1.9121  0.4758
 5045TIP3    H215100   5.256   6.363   4.115 -2.2575  1.7199  0.1833
 5046TIP3   OH215101   4.776   2.269   0.439  0.1290 -0.2537  0.0002
 5046TIP3    H115102   4.774   2.184   0.396 -1.3228  0.1023 -0.6937
 5046TIP3    H215103   4.856   2.268   0.490  1.5524 -0.9951 -2.1112
 5047TIP3   OH215104   6.416   6.160   0.184 -0.1406  0.0189  0.3316
 5047TIP3    H115105   6.332   6.205   0.183 -0.0841  0.1245 -0.9764
 5047TIP3    H215106   6.451   6.171   0.096  0.5237 -1.3706  0.3828
 5048TIP3   OH215107   3.024   2.633   0.669 -0.5026  0.2205 -0.0592
 5048TIP3    H115108   2.970   2.708   0.643 -0.9272 -0.4747 -1.2343
 5048TIP3    H215109   3.021   2.574   0.595  1.8184  0.1006 -0.1506
 5049TIP3   OH215110   4.607   1.807   3.371  0.3951  0.1689 -0.1932
 5049TIP3    H115111   4.535   1.861   3.339 -0.6536 -0.1559  1.4633
 5049TIP3    H215112   4.634   1.755   3.296 -0.5646  0.8603 -1.0532
 5050TIP3   OH215113   1.522   2.195   2.110  0.1182 -0.1989  0.3017
 5050TIP3    H115114   1.477   2.129   2.162 -0.3358 -0.1703 -0.0428
 5050TIP3    H215115   1.602   2.213   2.158  0.4065 -1.2324  0.2386
 5051TIP3   OH215116   4.052   0.160   5.525 -0.0697 -0.8870 -0.0008
 5051TIP3    H115117   4.144   0.162   5.552  0.1236 -0.5216 -0.6636
 5051TIP3    H215118   4.049   0.215   5.447 -1.1379  0.3339  0.8610
 5052TIP3   OH215119   0.312   5.863   5.032  0.3008 -0.0671  0.1466
 5052TIP3    H115120   0.225   5.825   5.031  0.5212 -0.5781 -0.4773
 5052TIP3    H215121   0.342   5.857   4.941  1.6289 -1.4432  0.6133
 5053TIP3   OH215122   6.488   5.207   1.971  0.2296 -0.2663 -0.5464
 5053TIP3    H115123   6.428   5.144   1.931 -0.1168  0.2666 -0.8751
 5053TIP3    H215124   6.522   5.258   1.898  1.1627 -0.6190 -0.3719
 5054TIP3   OH215125   4.871   0.533   5.581  0.5670 -0.4555 -0.0556
 5054TIP3    H115126   4.827   0.461   5.534 -0.1046 -0.0553 -0.0505
 5054TIP3    H215127   4.936   0.565   5.519 -1.1064  0.8535 -1.2266
 5055TIP3   OH215128   6.989   1.360   1.864 -0.5630  0.5350 -0.2784
 5055TIP3    H115129   6.940   1.346   1.945  0.6145  1.5566  0.6649
 5055TIP3    H215130   6.931   1.330   1.795 -2.1986  1.0117  0.8345
 5056TIP3   OH215131   0.491   2.379   4.275  0.2244  0.0420 -0.6035
 5056TIP3    H115132   0.574   2.421   4.253  0.4066 -0.3560 -0.6842
 5056TIP3    H215133   0.463   2.422   4.356 -0.8353  2.0898 -1.9538
 5057TIP3   OH215134   0.728   1.005   2.379 -0.4142 -0.1646  0.1933
 5057TIP3    H115135   0.752   0.938   2.316  0.8141 -0.0539  0.5202
 5057TIP3    H215136   0.773   1.084   2.349 -1.6577  0.4746 -0.0601
 5058TIP3   OH215137   2.199   3.395   2.763 -0.4107  0.1313  0.3763
 5058TIP3    H115138   2.108   3.411   2.788 -1.4702 -2.7113 -1.1894
 5058TIP3    H215139   2.221   3.468   2.704 -2.4595 -0.2387 -0.9408
 5059TIP3   OH215140   4.706   3.220   2.526 -0.9312  0.4195 -0.4406
 5059TIP3    H115141   4.669   3.255   2.607 -0.0713  1.4738 -0.4862
 5059TIP3    H215142   4.644   3.152   2.499 -0.9001 -0.3880  1.4223
 5060TIP3   OH215143   2.422   6.802   3.852 -0.1866 -0.4209  0.0465
 5060TIP3    H115144   2.365   6.728   3.873 -1.1288  0.3450  0.2266
 5060TIP3    H215145   2.394   6.828   3.764  0.5306 -0.6279 -0.2476
 5061TIP3   OH215146   3.295   1.732   3.121 -0.1396 -0.2099 -0.2981
 5061TIP3    H115147   3.318   1.809   3.069 -0.3729 -0.5396 -0.9009
 5061TIP3    H215148   3.373   1.676   3.117  0.1673  0.1541  0.4506
 5062TIP3   OH215149   2.037   3.544   1.437 -0.3659  0.4686 -0.7482
 5062TIP3    H115150   1.959   3.590   1.406 -0.0239  0.3830 -1.7738
 5062TIP3    H215151   2.110   3.592   1.397  0.1251  0.6063  0.2737
 5063TIP3   OH215152   2.345   5.855   2.669  0.0608  0.7813  0.1292
 5063TIP3    H115153   2.418   5.906   2.635  0.8425  0.0837  0.7293
 5063TIP3    H215154   2.282   5.920   2.699  0.1080  1.3945 -1.0443
 5064TIP3   OH215155   4.771   5.805   4.383 -0.4230  0.7248 -0.0713
 5064TIP3    H115156   4.828   5.876   4.412  1.1939 -0.1059 -1.0763
 5064TIP3    H215157   4.765   5.746   4.457  2.2569 -0.5094 -0.7099
 5065TIP3   OH215158   3.919   1.493   1.063  0.7221 -0.1498  0.1922
 5065TIP3    H115159   3.949   1.545   1.137 -0.6450  0.8548  0.0877
 5065TIP3    H215160   3.996   1.483   1.008  1.5011 -0.0035  1.2311
 5066TIP3   OH215161   1.794   1.828   3.034 -0.1420  0.0315 -0.1133
 5066TIP3    H115162   1.745   1.908   3.016 -1.4934 -0.8650 -0.6409
 5066TIP3    H215163   1.736   1.777   3.091 -0.2540 -1.4347 -1.4586
 5067TIP3   OH215164   1.743   2.886   3.985 -0.6960  0.2085  0.2765
 5067TIP3    H115165   1.706   2.954   4.042 -2.3263  1.1916 -1.8439
 5067TIP3    H215166   1.793   2.934   3.920 -0.6479 -0.7427 -0.4026
 5068TIP3   OH215167   6.325   5.882   2.697 -0.4189  0.4479  0.8610
 5068TIP3    H115168   6.344   5.957   2.641 -3.8100  0.5748 -0.3335
 5068TIP3    H215169   6.332   5.917   2.786 -0.5209  1.8043  0.3631
 5069TIP3   OH215170   1.180   2.224   0.682  0.0794 -0.2320 -0.3380
 5069TIP3    H115171   1.101   2.170   0.670  0.4035 -0.4946 -1.3995
 5069TIP3    H215172   1.230   2.211   0.602  1.0185  0.2576  0.1577
 5070TIP3   OH215173   4.797   1.725   4.999  0.3537 -0.0421  0.8859
 5070TIP3    H115174   4.706   1.737   4.973  1.0039 -0.1657 -1.7416
 5070TIP3    H215175   4.800   1.637   5.037 -0.0579 -1.6850 -2.4975
 5071TIP3   OH215176   2.230   2.546   1.411 -0.5180  0.2591 -0.1431
 5071TIP3    H115177   2.185   2.490   1.474  0.1715 -0.9887 -0.7063
 5071TIP3    H215178   2.183   2.533   1.329 -0.0828  0.1456 -0.3811
 5072TIP3   OH215179   0.204   6.680   5.460  0.3750  0.3460 -0.0464
 5072TIP3    H115180   0.225   6.628   5.538 -1.5614 -0.8951 -0.2862
 5072TIP3    H215181   0.287   6.684   5.411  0.9834 -1.1249  0.7910
 5073TIP3   OH215182   1.875   3.451   3.907  0.0416  0.3999  0.0158
 5073TIP3    H115183   1.953   3.407   3.942  0.7453  1.4432 -0.2097
 5073TIP3    H215184   1.843   3.504   3.980 -3.0627 -3.2223  1.6127
 5074TIP3   OH215185   6.813   6.490   4.183  0.5048  0.1855  0.2180
 5074TIP3    H115186   6.722   6.460   4.185  0.5475  0.0602  0.3248
 5074TIP3    H215187   6.810   6.571   4.132  0.3930 -0.0220 -0.1130
 5075TIP3   OH215188   4.296   6.788   1.673  0.2575 -0.2457 -0.3227
 5075TIP3    H115189   4.291   6.709   1.727 -0.6430  0.6853  0.9993
 5075TIP3    H215190   4.341   6.852   1.728 -0.2576  0.5897 -0.8607
 5076TIP3   OH215191   1.523   6.746   1.087 -0.0487  0.0974  0.0214
 5076TIP3    H115192   1.543   6.717   1.176 -0.4982  2.2001  0.8568
 5076TIP3    H215193   1.609   6.767   1.049  0.0094  1.2080  0.7217
 5077TIP3   OH215194   7.108   2.471   4.865  0.4613 -0.5014  0.5273
 5077TIP3    H115195   7.063   2.524   4.931  1.4901  0.3107  0.6088
 5077TIP3    H215196   7.060   2.487   4.784 -0.5549 -1.1746  0.9774
 5078TIP3   OH215197   3.777   5.682   2.695  0.4331  0.3291 -0.3996
 5078TIP3    H115198   3.755   5.762   2.647  0.5808  1.4996  1.4069
 5078TIP3    H215199   3.819   5.625   2.630 -1.3795  0.9329 -2.1744
 5079TIP3   OH215200   4.197   0.796   3.827 -0.3547  0.4209 -0.3446
 5079TIP3    H115201   4.275   0.831   3.870 -0.8747  0.2302  0.8181
 5079TIP3    H215202   4.225   0.713   3.789 -0.3707 -0.6222  1.7202
 5080TIP3   OH215203   1.076   0.063   4.508 -0.2073 -0.0279  0.8354
 5080TIP3    H115204   1.084  -0.033   4.507 -0.8651 -0.0812  0.1965
 5080TIP3    H215205   0.989   0.080   4.473 -0.5391  0.7683  1.9666
 5081TIP3   OH215206   0.372   6.041   2.199 -0.4277  0.4598 -0.1234
 5081TIP3    H115207   0.462   6.031   2.227 -0.1388  1.3252 -0.6993
 5081TIP3    H215208   0.336   5.952   2.201 -0.1749  0.3477  2.0438
 5082TIP3   OH215209   7.069   4.755   3.743  0.3513 -0.0862 -0.1349
 5082TIP3    H115210   7.144   4.758   3.684  0.4405 -0.5175 -0.0501
 5082TIP3    H215211   7.107   4.748   3.830  0.2236  0.8628  0.0093
 5083TIP3   OH215212   5.260   3.573   2.788 -0.2924 -0.1067  0.0089
 5083TIP3    H115213   5.242   3.658   2.826 -1.1982  0.0673 -0.7670
 5083TIP3    H215214   5.210   3.572   2.706  1.3553 -0.5573 -1.0582
 5084TIP3   OH215215   1.186   3.119   2.886  0.1010  0.2697  0.8987
 5084TIP3    H115216   1.102   3.095   2.847 -0.7870  2.2063  1.4736
 5084TIP3    H215217   1.209   3.202   2.843  2.1650 -0.6032  0.1730
 5085TIP3   OH215218   0.889   5.883   5.239  0.1845 -0.4421  0.1763
 5085TIP3    H115219   0.812   5.939   5.247  0.7161  0.2524  0.5536
 5085TIP3    H215220   0.941   5.902   5.317  0.0448 -2.0045  0.6956
 5086TIP3   OH215221   1.456   0.373   0.109  0.4637 -0.5562 -0.1184
 5086TIP3    H115222   1.526   0.325   0.154  3.4864  1.9493 -1.8077
 5086TIP3    H215223   1.493   0.397   0.025 -1.2270  3.6609  0.0969
 5087TIP3   OH215224   7.056   3.459   0.802 -0.1493  0.1569  0.2870
 5087TIP3    H115225   6.980   3.516   0.793 -0.7720 -0.5894  0.6766
 5087TIP3    H215226   7.079   3.464   0.895  1.2555  1.5727 -0.0906
 5088TIP3   OH215227   5.844   3.527   0.769 -0.1523 -0.7039  0.3269
 5088TIP3    H115228   5.767   3.513   0.714 -0.8490 -0.6369  1.2428
 5088TIP3    H215229   5.881   3.609   0.739 -0.6975 -0.5168  0.1546
 5089TIP3   OH215230   4.366   0.662   4.173  0.1956  0.5019  0.0677
 5089TIP3    H115231   4.319   0.596   4.121  1.8318 -0.0039 -0.8432
 5089TIP3    H215232   4.402   0.723   4.108  0.5865  1.0079  0.7454
 5090TIP3   OH215233   5.499   0.871   0.139  0.3135  0.3910  0.1373
 5090TIP3    H115234   5.470   0.875   0.230  0.1559 -0.8044  0.1615
 5090TIP3    H215235   5.478   0.957   0.103  0.1449  0.7871  1.1629
 5091TIP3   OH215236   3.548   4.765   2.623 -0.3605  1.0954 -0.1912
 5091TIP3    H115237   3.574   4.735   2.536 -0.5544  0.3480 -0.0040
 5091TIP3    H215238   3.628   4.800   2.662 -0.4395  2.1639 -0.9540
 5092TIP3   OH215239   3.995   2.242   1.045  0.2618 -0.3492  0.4402
 5092TIP3    H115240   3.987   2.314   0.983 -1.3586 -1.1111 -0.2870
 5092TIP3    H215241   3.957   2.275   1.126  1.0231  0.1493  0.5990
 5093TIP3   OH215242   2.158   3.610   4.215 -0.2473  0.4198  0.3818
 5093TIP3    H115243   2.216   3.623   4.290 -0.0322  1.1110  0.1095
 5093TIP3    H215244   2.191   3.531   4.172 -0.4497 -0.0473  1.0788
 5094TIP3   OH215245   1.768   3.582   1.336  0.8683  0.2092 -0.4978
 5094TIP3    H115246   1.693   3.619   1.382  0.7792  0.0202 -0.4874
 5094TIP3    H215247   1.763   3.488   1.354  1.0571  0.1843 -0.5703
 5095TIP3   OH215248   3.488   2.069   3.344  0.7807 -0.1226 -0.0533
 5095TIP3    H115249   3.431   1.993   3.356 -0.7147  0.8112 -0.7980
 5095TIP3    H215250   3.495   2.108   3.431  0.0117 -0.0940  0.0014
 5096TIP3   OH215251   7.187   3.222   2.432  0.3124  0.3676  0.0932
 5096TIP3    H115252   7.138   3.147   2.466  0.7012 -0.3807 -0.9557
 5096TIP3    H215253   7.120   3.278   2.392 -0.0712  0.9665  1.5067
 5097TIP3   OH215254   5.639   5.557   0.448  0.2980  0.3492 -0.7736
 5097TIP3    H115255   5.600   5.477   0.484  0.9309  0.6137  0.5741
 5097TIP3    H215256   5.732   5.551   0.471  0.0984  2.2001  0.8313
 5098TIP3   OH215257   0.071   4.656   5.123 -0.1985 -0.1850 -0.1311
 5098TIP3    H115258   0.024   4.583   5.081 -1.3844  1.1757 -1.2757
 5098TIP3    H215259   0.050   4.732   5.069  0.2899  1.1873  1.5373
 5099TIP3   OH215260   3.876   0.806   3.333  0.3662 -0.5539  0.3223
 5099TIP3    H115261   3.783   0.791   3.313 -0.0686  1.8826  0.2746
 5099TIP3    H215262   3.888   0.765   3.419 -0.9230 -0.3335  0.6286
 5100TIP3   OH215263   3.656   1.579   1.028 -0.1627  0.3973 -0.3405
 5100TIP3    H115264   3.749   1.565   1.012 -0.0067  0.1596  0.7430
 5100TIP3    H215265   3.648   1.674   1.038  0.3739  0.2500  1.9114
 5101TIP3   OH215266   2.326   0.488   5.520  1.0688 -0.0117  0.2167
 5101TIP3    H115267   2.330   0.462   5.612 -0.8813  0.2476  0.4084
 5101TIP3    H215268   2.357   0.579   5.519 -0.5091  0.5577  0.8992
 5102TIP3   OH215269   3.741   2.261   4.324 -0.5255 -0.0172  0.0267
 5102TIP3    H115270   3.777   2.204   4.391  0.0070  0.1161 -0.1413
 5102TIP3    H215271   3.669   2.306   4.368  0.6215  1.0369  0.9254
 5103TIP3   OH215272   0.407   4.310   2.421 -0.0792  0.1728 -0.2749
 5103TIP3    H115273   0.403   4.376   2.352  0.7662  0.6143  0.0784
 5103TIP3    H215274   0.499   4.308   2.447 -0.2649 -0.4675  0.3779
 5104TIP3   OH215275   3.175   6.123   4.461  0.0753 -0.6848 -0.6102
 5104TIP3    H115276   3.214   6.050   4.413  2.3350  0.4237 -0.5686
 5104TIP3    H215277   3.203   6.201   4.414  0.2330  0.3026  1.0616
 5105TIP3   OH215278   4.117   0.431   1.451 -0.1713 -0.1316  0.1203
 5105TIP3    H115279   4.034   0.410   1.493 -0.4635  1.9963  0.7246
 5105TIP3    H215280   4.157   0.496   1.509  0.9674  0.3805 -1.1908
 5106TIP3   OH215281   0.569   4.404   4.359 -0.2485 -0.1711  0.3002
 5106TIP3    H115282   0.566   4.321   4.408  0.8950 -0.6556 -0.4157
 5106TIP3    H215283   0.661   4.417   4.339 -0.3756  1.4468  0.6337
 5107TIP3   OH215284   0.612   0.026   0.428 -0.5520 -0.1878  0.9942
 5107TIP3    H115285   0.569   0.060   0.350  2.0214  0.7892 -0.0985
 5107TIP3    H215286   0.660  -0.051   0.398  2.3141  1.4830  0.9855
 5108TIP3   OH215287   3.663   4.447   5.566  0.2121  0.2988 -0.2722
 5108TIP3    H115288   3.721   4.470   5.638  0.5685  0.1452 -0.5071
 5108TIP3    H215289   3.575   4.471   5.596  0.1697 -1.0343  0.7697
 5109TIP3   OH215290   6.460   2.287   2.207 -0.2410 -0.4527 -0.0532
 5109TIP3    H115291   6.483   2.272   2.299 -1.3690 -0.4428  0.2417
 5109TIP3    H215292   6.530   2.243   2.158  1.8516  1.7470  0.7493
 5110TIP3   OH215293   6.186   1.125   3.773 -0.3107 -0.0189 -0.1732
 5110TIP3    H115294   6.247   1.079   3.831 -1.0468  1.5616  1.9535
 5110TIP3    H215295   6.117   1.061   3.756 -0.7850 -0.1056  1.8725
 5111TIP3   OH215296   5.932   1.262   2.202  0.1378 -0.2221  0.0566
 5111TIP3    H115297   5.869   1.240   2.271 -0.0529  2.5535  0.8936
 5111TIP3    H215298   5.879   1.266   2.122 -0.1686 -0.7259  0.2266
 5112TIP3   OH215299   0.120   5.612   2.616  0.2813  0.0589  0.2072
 5112TIP3    H115300   0.192   5.556   2.587  0.6417  0.7378 -0.2611
 5112TIP3    H215301   0.047   5.552   2.632  0.8844 -0.6152  0.4769
 5113TIP3   OH215302   4.632   5.998   2.358  0.0270  0.2158 -0.0110
 5113TIP3    H115303   4.683   6.078   2.351  0.2296  0.1180  0.2943
 5113TIP3    H215304   4.626   5.964   2.269  0.9754 -0.0638  0.0263
 5114TIP3   OH215305   2.158   4.442   2.145  0.3421 -0.2480 -0.2028
 5114TIP3    H115306   2.152   4.536   2.128  2.5777  0.3164  1.6831
 5114TIP3    H215307   2.095   4.426   2.216  0.9333  0.1331  0.4217
 5115TIP3   OH215308   0.020   5.795   3.076 -0.4173  0.0581  0.6706
 5115TIP3    H115309   0.016   5.706   3.112 -1.3576 -0.0335  0.3846
 5115TIP3    H215310   0.040   5.782   2.983 -0.4532  0.1508  0.6500
 5116TIP3   OH215311   3.032   6.155   1.038 -0.0200 -0.3674 -0.5528
 5116TIP3    H115312   2.954   6.191   0.996 -0.3423 -1.4852 -0.9338
 5116TIP3    H215313   2.999   6.088   1.098  0.6214 -0.5906 -0.4376
 5117TIP3   OH215314   4.991   4.846   0.558 -0.0902  0.3437  0.1822
 5117TIP3    H115315   4.916   4.799   0.596  0.9456 -0.6448  1.0739
 5117TIP3    H215316   5.067   4.812   0.605  1.0627  0.4702 -1.5077
 5118TIP3   OH215317   0.112   0.093   5.151  0.1817  0.5627  0.6691
 5118TIP3    H115318   0.085   0.177   5.188  0.2090  1.9333 -2.1548
 5118TIP3    H215319   0.030   0.049   5.129  0.1766 -0.0318  1.7895
 5119TIP3   OH215320   6.438   2.573   3.627  0.5540  0.6539 -0.0021
 5119TIP3    H115321   6.491   2.516   3.683 -1.2791 -0.8684  0.2957
 5119TIP3    H215322   6.462   2.662   3.653  0.0075  0.0164  3.0560
 5120TIP3   OH215323   4.779   1.847   4.406 -0.4642  0.7300  0.4146
 5120TIP3    H115324   4.777   1.857   4.502  0.4516 -0.8701  0.6251
 5120TIP3    H215325   4.870   1.863   4.382 -0.6146  0.7452 -0.1536
 5121TIP3   OH215326   0.356   4.918   1.162 -0.8729  0.1001  0.6330
 5121TIP3    H115327   0.268   4.923   1.200 -0.6586 -1.8909  1.5500
 5121TIP3    H215328   0.407   4.870   1.227  0.4661 -0.2070 -0.6025
 5122TIP3   OH215329   0.564   5.272   3.886  0.0231 -0.3123 -0.2146
 5122TIP3    H115330   0.632   5.338   3.893 -0.8876  0.6695 -0.3231
 5122TIP3    H215331   0.533   5.278   3.795 -1.7553  0.8746  0.4166
 5123TIP3   OH215332   0.736   3.117   5.385  0.0812 -0.4123 -0.2784
 5123TIP3    H115333   0.678   3.154   5.318 -0.8089  0.8489  1.1260
 5123TIP3    H215334   0.677   3.067   5.442 -0.0125  2.2518  2.1380
 5124TIP3   OH215335   1.466   6.158   3.571 -0.7692  0.0482 -0.2048
 5124TIP3    H115336   1.420   6.233   3.607  0.5659  0.9210 -0.2661
 5124TIP3    H215337   1.521   6.194   3.502  0.4337 -0.8749  0.2402
 5125TIP3   OH215338   3.599   6.149   0.351 -0.2808  0.4511 -0.1287
 5125TIP3    H115339   3.684   6.146   0.306 -0.8271 -0.9677 -1.1494
 5125TIP3    H215340   3.608   6.083   0.421 -0.8346 -0.4226 -0.8536
 5126TIP3   OH215341   5.735   4.292   1.868  0.4796  0.1543 -0.0932
 5126TIP3    H115342   5.706   4.373   1.825 -1.1199 -0.3755 -0.1069
 5126TIP3    H215343   5.688   4.292   1.952 -0.3389 -1.2106 -0.5123
 5127TIP3   OH215344   0.227   4.643   2.551 -0.0052  0.1869 -0.0689
 5127TIP3    H115345   0.255   4.556   2.581 -0.5131 -0.5078 -1.5417
 5127TIP3    H215346   0.151   4.626   2.496 -0.1291  1.5846 -0.3639
 5128TIP3   OH215347   3.795   1.684   2.653  0.9120 -0.2024 -0.2181
 5128TIP3    H115348   3.811   1.746   2.724  0.2583  0.8310 -0.9399
 5128TIP3    H215349   3.700   1.668   2.657  0.5985  1.0393 -1.7579
 5129TIP3   OH215350   2.411   1.789   1.224 -0.0102  0.0829  0.4117
 5129TIP3    H115351   2.439   1.851   1.157  1.4493 -0.4301  0.5020
 5129TIP3    H215352   2.374   1.843   1.293  0.1101  0.7542 -0.0438
 5130TIP3   OH215353   4.058   3.680   4.399 -0.2858 -0.5892  0.5407
 5130TIP3    H115354   4.144   3.686   4.358 -0.9563 -2.4760 -1.2984
 5130TIP3    H215355   3.997   3.672   4.326 -2.1999  1.7381  1.7336
 5131TIP3   OH215356   3.605   0.783   4.657 -0.3727 -0.1014 -0.3063
 5131TIP3    H115357   3.604   0.692   4.626 -0.7732  0.3817 -1.7560
 5131TIP3    H215358   3.514   0.813   4.647 -0.4206  0.2334  0.9198
 5132TIP3   OH215359   2.896   5.801   3.125  0.1544  0.3912  0.1534
 5132TIP3    H115360   2.814   5.752   3.135  0.6835 -1.1833 -2.3383
 5132TIP3    H215361   2.888   5.846   3.041  2.1867 -0.7228 -0.7414
 5133TIP3   OH215362   5.421   5.733   0.440  0.0067 -0.1250 -0.2947
 5133TIP3    H115363   5.457   5.663   0.386 -0.3980  0.0839 -0.8371
 5133TIP3    H215364   5.329   5.709   0.453  0.1066 -0.1909  0.3266
 5134TIP3   OH215365   4.165   2.183   1.697  0.0328 -0.0271 -0.0385
 5134TIP3    H115366   4.213   2.230   1.765 -0.1503 -0.7317  0.5923
 5134TIP3    H215367   4.077   2.222   1.698  0.1450  0.2277 -0.1419
 5135TIP3   OH215368   3.595   6.657   3.844  0.1863  0.4525 -0.6217
 5135TIP3    H115369   3.623   6.575   3.886  0.6755  1.1164  0.3659
 5135TIP3    H215370   3.666   6.718   3.859 -0.1413  1.0564 -1.4296
 5136TIP3   OH215371   4.585   3.173   1.294 -0.1449 -0.0298  0.0632
 5136TIP3    H115372   4.597   3.088   1.252  2.8018  0.8942 -1.2073
 5136TIP3    H215373   4.520   3.217   1.240 -0.9798 -1.0784  0.1707
 5137TIP3   OH215374   5.021   1.664   1.343 -0.3581 -0.1554 -0.7034
 5137TIP3    H115375   5.089   1.694   1.282 -1.2701  0.2607 -1.5362
 5137TIP3    H215376   5.052   1.579   1.374  1.0645  0.4963 -0.2229
 5138TIP3   OH215377   2.562   0.182   0.127  0.4097  0.0093  0.0973
 5138TIP3    H115378   2.521   0.191   0.214 -0.5945  1.7888 -0.5189
 5138TIP3    H215379   2.502   0.125   0.079  2.0744 -2.8382  1.1640
 5139TIP3   OH215380   4.326   0.390   1.993  0.2789  0.0932  0.2536
 5139TIP3    H115381   4.421   0.403   2.000 -0.0369  2.7738  0.7601
 5139TIP3    H215382   4.298   0.455   1.929 -1.3426  0.2777  1.1007
 5140TIP3   OH215383   5.260   1.949   4.821  0.3773  0.1778 -0.0211
 5140TIP3    H115384   5.202   1.875   4.838  0.4409  0.3200  0.8888
 5140TIP3    H215385   5.343   1.925   4.862  0.7175  0.3169 -0.6221
 5141TIP3   OH215386   0.280   1.368   5.070  0.3029  0.5004 -0.3520
 5141TIP3    H115387   0.354   1.312   5.046 -0.3680 -1.0742  1.0457
 5141TIP3    H215388   0.262   1.419   4.991  0.8350 -1.3872 -1.7684
 5142TIP3   OH215389   5.065   2.623   3.213  0.6545 -0.1104 -0.2390
 5142TIP3    H115390   5.104   2.645   3.128  0.3456  0.0579 -0.3396
 5142TIP3    H215391   5.023   2.538   3.200  4.2358 -2.2610  0.8931
 5143TIP3   OH215392   0.641   5.004   4.410 -0.3683  0.2617  0.0160
 5143TIP3    H115393   0.731   5.018   4.380 -0.6257 -0.0007 -0.9471
 5143TIP3    H215394   0.596   5.086   4.390 -0.2511  0.5369  0.8718
 5144TIP3   OH215395   0.204   3.029   2.042  0.0411  0.2140 -0.2156
 5144TIP3    H115396   0.289   3.033   1.997  0.2367  0.7175  0.1837
 5144TIP3    H215397   0.213   2.956   2.104 -0.7222 -1.4219 -1.9437
 5145TIP3   OH215398   1.212   3.735   2.193 -0.2464  0.2564 -0.3017
 5145TIP3    H115399   1.242   3.651   2.159 -0.8431  0.6351 -1.8497
 5145TIP3    H215400   1.216   3.794   2.118 -1.6082  1.1493  0.2844
 5146TIP3   OH215401   3.472   5.554   3.666 -0.2153 -0.0737  0.0080
 5146TIP3    H115402   3.463   5.471   3.619  0.0811 -0.4019  0.5163
 5146TIP3    H215403   3.433   5.537   3.751 -2.7203  1.1600 -0.8207
 5147TIP3   OH215404   2.426   1.578   5.013  0.8411  0.1093 -0.2040
 5147TIP3    H115405   2.477   1.653   4.981  0.1438  0.0846 -1.4666
 5147TIP3    H215406   2.440   1.510   4.947 -0.8453  0.1299 -0.6224
 5148TIP3   OH215407   2.798   6.696   0.130 -0.0976 -0.0867  0.7326
 5148TIP3    H115408   2.873   6.742   0.167  0.3651 -1.1313  1.1383
 5148TIP3    H215409   2.769   6.751   0.057  1.4869  0.0132  0.1366
 5149TIP3   OH215410   0.561   1.577   4.201 -0.0084  0.2673  0.1469
 5149TIP3    H115411   0.602   1.511   4.256 -0.8442 -0.3115  0.0973
 5149TIP3    H215412   0.562   1.656   4.254 -0.2312 -0.1304  0.7524
 5150TIP3   OH215413   1.044   3.094   5.812  0.1541 -0.2260  0.0504
 5150TIP3    H115414   1.079   3.100   5.724  0.4589 -0.3605  0.1614
 5150TIP3    H215415   0.977   3.026   5.808  0.2395 -0.3027 -0.0534
 5151TIP3   OH215416   4.098   5.941   2.204 -0.1075  0.2381 -0.6570
 5151TIP3    H115417   4.027   6.004   2.193  0.5871  1.0968 -0.3648
 5151TIP3    H215418   4.177   5.995   2.202  0.4381 -0.4204  1.1611
 5152TIP3   OH215419   2.344   6.346   2.136  0.1370  0.0010  0.3805
 5152TIP3    H115420   2.359   6.435   2.103  2.0282  0.0576  1.2366
 5152TIP3    H215421   2.422   6.297   2.110 -0.9723 -1.5115 -0.2719
 5153TIP3   OH215422   7.035   1.120   1.327 -0.3813  0.0771 -0.2174
 5153TIP3    H115423   6.951   1.075   1.315 -0.6421  0.4509  0.2073
 5153TIP3    H215424   7.098   1.065   1.279 -0.7628 -0.5310 -0.0364
 5154TIP3   OH215425   0.482   2.654   5.563  0.1230  0.4096 -0.3539
 5154TIP3    H115426   0.499   2.620   5.651  0.8882 -2.5395 -1.5170
 5154TIP3    H215427   0.390   2.632   5.546  0.0020  0.8896 -0.3308
 5155TIP3   OH215428   4.268   6.211   1.883  0.1808 -1.0946  0.0528
 5155TIP3    H115429   4.353   6.178   1.852  1.3626  0.5235  1.3726
 5155TIP3    H215430   4.265   6.187   1.975 -1.5751 -2.5225 -0.3193
 5156TIP3   OH215431   0.127   6.676   1.885 -0.1864  0.1828 -0.5074
 5156TIP3    H115432   0.219   6.690   1.862 -0.9861  2.5421 -2.7891
 5156TIP3    H215433   0.112   6.734   1.960  0.6377 -1.9052  1.3718
 5157TIP3   OH215434   2.870   3.401   4.472 -0.5599  0.1373 -0.0533
 5157TIP3    H115435   2.784   3.418   4.511 -0.1632  0.8161  0.5575
 5157TIP3    H215436   2.890   3.479   4.422  0.6372  0.9247  1.5746
 5158TIP3   OH215437   3.090   5.011   1.766  0.0677  0.1034 -0.3401
 5158TIP3    H115438   3.057   4.922   1.754  1.2307 -0.1385 -2.0625
 5158TIP3    H215439   3.184   5.001   1.776  0.3489  1.1743 -1.5994
 5159TIP3   OH215440   3.558   0.025   4.405 -0.3433 -0.1843 -0.0900
 5159TIP3    H115441   3.629   0.006   4.467 -1.6520 -0.8242  1.2874
 5159TIP3    H215442   3.599   0.079   4.338  1.4260 -0.4528  0.6998
 5160TIP3   OH215443   5.171   2.398   5.226  0.5127  0.4536  0.2650
 5160TIP3    H115444   5.132   2.311   5.222  0.4883  0.3975  1.5550
 5160TIP3    H215445   5.194   2.411   5.318  1.0082  1.5967  0.0020
 5161TIP3   OH215446   6.966   6.240   3.548 -0.0278  0.4986  0.0352
 5161TIP3    H115447   6.879   6.272   3.526  0.1913  0.4135 -0.9923
 5161TIP3    H215448   6.981   6.166   3.489  0.9858  0.9150 -0.2608
 5162TIP3   OH215449   5.113   5.831   4.383  0.3342  0.6563 -0.2372
 5162TIP3    H115450   5.147   5.783   4.307  0.4088  1.8091 -0.9656
 5162TIP3    H215451   5.137   5.777   4.458 -2.8463 -2.3930 -1.1430
 5163TIP3   OH215452   4.140   5.741   2.609  0.0503  0.2176  0.3100
 5163TIP3    H115453   4.097   5.826   2.621 -0.9660 -0.4888  2.0845
 5163TIP3    H215454   4.166   5.715   2.697  1.3960 -0.8071 -0.3524
 5164TIP3   OH215455   2.634   1.062   2.860  0.0702 -0.2013  0.5102
 5164TIP3    H115456   2.659   1.085   2.771 -0.0514 -1.5821  0.0855
 5164TIP3    H215457   2.713   1.025   2.899 -0.7226 -2.9470 -0.2598
 5165TIP3   OH215458   2.956   1.128   3.441  0.2725  0.4779  0.0310
 5165TIP3    H115459   3.050   1.131   3.460 -0.1253  1.8079  2.0488
 5165TIP3    H215460   2.913   1.141   3.526 -1.7812 -1.3590 -0.6178
 5166TIP3   OH215461   0.003   5.596   0.356  0.7396 -0.0897  0.3112
 5166TIP3    H115462  -0.014   5.651   0.279 -0.7339  0.6148  1.0870
 5166TIP3    H215463   0.095   5.572   0.349  1.3805  2.3133 -0.1719
 5167TIP3   OH215464   3.141   3.463   2.226 -0.8111 -0.2072  0.0087
 5167TIP3    H115465   3.235   3.471   2.243 -0.5950  2.5185 -1.8205
 5167TIP3    H215466   3.100   3.509   2.299 -0.8322 -1.8759  1.1070
 5168TIP3   OH215467   6.266   4.669   2.018 -0.4428 -0.4040 -0.1415
 5168TIP3    H115468   6.224   4.591   1.983  0.6910 -1.5350  0.9287
 5168TIP3    H215469   6.353   4.671   1.979 -0.1202 -0.2131  0.5686
 5169TIP3   OH215470   6.220   6.567   1.843  0.1448  0.5665 -0.0227
 5169TIP3    H115471   6.221   6.589   1.750  0.7541  2.0946  0.3200
 5169TIP3    H215472   6.300   6.515   1.856 -0.1211  0.0567 -0.4121
 5170TIP3   OH215473   2.875   1.045   0.979 -0.2212 -0.0582 -0.0258
 5170TIP3    H115474   2.950   1.100   0.956 -0.1505  0.0727  0.5084
 5170TIP3    H215475   2.856   1.067   1.070  0.0575 -1.2204  0.3240
 5171TIP3   OH215476   6.195   6.430   0.948 -0.3639  0.3106  0.0862
 5171TIP3    H115477   6.160   6.346   0.920 -0.3819 -0.6040  2.6845
 5171TIP3    H215478   6.289   6.415   0.958 -0.4996  0.3014  1.4847
 5172TIP3   OH215479   1.680   4.922   5.017  0.3219  0.2176  0.2288
 5172TIP3    H115480   1.597   4.913   5.065  0.1747 -0.1865 -0.0965
 5172TIP3    H215481   1.659   4.978   4.943  0.8074  1.7827  1.2276
 5173TIP3   OH215482   2.728   4.117   0.408  0.4167  0.3397  0.1298
 5173TIP3    H115483   2.729   4.050   0.340  0.3444  0.5160 -0.0485
 5173TIP3    H215484   2.793   4.089   0.472 -1.2307 -1.1190  1.2644
 5174TIP3   OH215485   3.569   4.571   4.848  0.0181 -0.1623 -0.4098
 5174TIP3    H115486   3.489   4.616   4.822 -0.7556 -2.3136 -2.0874
 5174TIP3    H215487   3.542   4.511   4.917  0.4650 -0.0230 -0.1043
 5175TIP3   OH215488   5.431   3.293   2.768 -0.5143  0.4182  0.3272
 5175TIP3    H115489   5.431   3.221   2.706  1.5205  0.1805  0.5396
 5175TIP3    H215490   5.437   3.372   2.714  2.1003  0.1774  0.1766
 5176TIP3   OH215491   2.459   2.920   2.005  0.8325 -0.2754  0.0388
 5176TIP3    H115492   2.512   2.999   1.992 -0.1629  0.5202  0.6850
 5176TIP3    H215493   2.412   2.910   1.922 -1.2122  1.5208  0.8767
 5177TIP3   OH215494   4.091   4.257   5.844  0.2653  0.1582 -0.1593
 5177TIP3    H115495   4.147   4.333   5.829  1.0517  0.2705  2.7829
 5177TIP3    H215496   4.150   4.182   5.838  0.1497  0.0512  0.0230
 5178TIP3   OH215497   1.484   2.416   4.037 -0.0289 -0.0253  0.3493
 5178TIP3    H115498   1.426   2.342   4.019 -1.3039  0.9600  0.2452
 5178TIP3    H215499   1.466   2.478   3.966  1.8281 -0.0521 -0.1941
 5179TIP3   OH215500   0.972   3.737   1.269 -0.7233 -0.3646  0.2469
 5179TIP3    H115501   1.035   3.665   1.267  0.5592  0.7247 -2.1525
 5179TIP3    H215502   0.999   3.791   1.343  2.6752  1.2322 -1.9192
 5180TIP3   OH215503   1.810   1.107   4.487 -0.2269  0.0315 -0.1965
 5180TIP3    H115504   1.716   1.112   4.468 -0.2073 -0.5036 -0.4543
 5180TIP3    H215505   1.844   1.192   4.459 -0.9835  1.1257  2.0248
 5181TIP3   OH215506   0.522   0.456   4.170  0.6085  0.1760  0.1074
 5181TIP3    H115507   0.472   0.524   4.215  0.7239  0.3593 -0.0418
 5181TIP3    H215508   0.510   0.474   4.077  0.2097 -0.3195  0.0600
 5182TIP3   OH215509   3.338   1.952   2.962 -0.4916 -0.7336  0.4755
 5182TIP3    H115510   3.372   1.963   2.873 -0.4694  0.2078  0.5842
 5182TIP3    H215511   3.367   2.031   3.008 -0.9800 -0.9490  1.1646
 5183TIP3   OH215512   3.300   2.650   4.042 -0.2771  0.3464  0.1887
 5183TIP3    H115513   3.266   2.645   4.131  0.1801  0.9319  0.4074
 5183TIP3    H215514   3.319   2.743   4.029 -1.2043  0.4153 -0.8569
 5184TIP3   OH215515   1.320   3.719   1.020 -0.4865 -0.1945 -0.0988
 5184TIP3    H115516   1.251   3.785   1.010 -1.1528 -0.7061  0.9127
 5184TIP3    H215517   1.399   3.769   1.037  0.0434  0.5754 -3.8866
 5185TIP3   OH215518   4.985   2.746   2.898  0.2433  0.1947  0.0200
 5185TIP3    H115519   5.060   2.699   2.934 -0.6083 -1.1321  0.1323
 5185TIP3    H215520   5.006   2.759   2.805  0.2532 -0.9485 -0.1477
 5186TIP3   OH215521   5.534   1.831   4.887 -0.1900  0.0984  0.0406
 5186TIP3    H115522   5.564   1.766   4.823 -1.3461 -0.6111  0.1796
 5186TIP3    H215523   5.606   1.894   4.893  0.9650 -1.1474 -0.1249
 5187TIP3   OH215524   0.272   3.267   1.826 -0.6380 -0.3369  0.3742
 5187TIP3    H115525   0.294   3.353   1.863  0.3395 -0.3876 -0.0684
 5187TIP3    H215526   0.338   3.208   1.862 -0.8683 -0.7672  0.0971
 5188TIP3   OH215527   6.071   6.527   5.845  0.5747 -0.0938  0.1814
 5188TIP3    H115528   6.113   6.511   5.930 -0.2513 -0.5127  0.5222
 5188TIP3    H215529   6.142   6.558   5.789  1.3087 -0.6554  0.7783
 5189TIP3   OH215530   6.188   3.363   0.385  0.2113 -0.0152  0.6583
 5189TIP3    H115531   6.163   3.361   0.477  0.6331 -2.3650  0.7638
 5189TIP3    H215532   6.234   3.447   0.375  0.9506 -0.1030  2.8188
 5190TIP3   OH215533   6.633   6.637   2.153  0.1764  0.1261  0.1804
 5190TIP3    H115534   6.570   6.566   2.169  0.7256  0.1841  3.2985
 5190TIP3    H215535   6.584   6.717   2.175  0.5337  0.4244 -0.1002
 5191TIP3   OH215536   6.973   6.369   0.814 -0.4498 -0.0495 -0.8279
 5191TIP3    H115537   6.977   6.443   0.753 -1.5834  0.1582 -0.6781
 5191TIP3    H215538   7.063   6.357   0.844 -0.1001  0.6729 -1.5663
 5192TIP3   OH215539   4.117   6.423   4.003  0.2119 -0.4147  0.2845
 5192TIP3    H115540   4.035   6.433   4.051 -1.1421 -2.6231 -1.3440
 5192TIP3    H215541   4.174   6.374   4.063 -0.4781 -0.8064  0.6422
 5193TIP3   OH215542   3.277   5.678   3.137  0.4374 -0.3294  0.3794
 5193TIP3    H115543   3.202   5.719   3.181  0.1245  0.7097 -1.0202
 5193TIP3    H215544   3.237   5.613   3.079  0.7976 -1.2594  1.1487
 5194TIP3   OH215545   6.017   6.063   0.314  0.4689 -0.3688 -0.0275
 5194TIP3    H115546   5.994   6.020   0.232 -1.6361  0.8475 -0.1468
 5194TIP3    H215547   6.051   6.148   0.288  0.6997 -0.3531  0.3190
 5195TIP3   OH215548   3.925   5.423   5.847  0.3059  0.2251  0.5210
 5195TIP3    H115549   3.981   5.356   5.808  0.1217  0.0176  0.6102
 5195TIP3    H215550   3.923   5.493   5.782 -0.8800 -0.5654 -0.3556
 5196TIP3   OH215551   6.953   4.835   2.076 -0.0038  0.4694 -0.2359
 5196TIP3    H115552   6.950   4.886   2.157 -0.9316 -1.6940  1.1755
 5196TIP3    H215553   6.866   4.846   2.038  0.4761  1.5986 -1.0683
 5197TIP3   OH215554   4.295   0.975   5.306 -0.3616 -0.0903 -0.0469
 5197TIP3    H115555   4.233   0.911   5.274  0.2049 -1.0803  0.7726
 5197TIP3    H215556   4.381   0.939   5.283  0.0133 -0.2630  1.4873
 5198TIP3   OH215557   6.639   3.777   3.987 -0.1015  0.0012 -0.3672
 5198TIP3    H115558   6.566   3.716   3.990  0.4309 -0.6372  1.4547
 5198TIP3    H215559   6.598   3.863   3.974 -0.7767 -0.7390 -4.2720
 5199TIP3   OH215560   6.235   5.033   3.273  0.0915  0.5253  0.2500
 5199TIP3    H115561   6.262   5.063   3.360  0.6732 -0.4044  0.4017
 5199TIP3    H215562   6.300   4.968   3.248 -0.4415  0.2972 -0.6026
 5200TIP3   OH215563   5.159   2.346   4.764 -0.1314  0.2384 -0.1308
 5200TIP3    H115564   5.223   2.292   4.717  0.4695 -0.4374  1.4086
 5200TIP3    H215565   5.208   2.422   4.793 -0.3274  0.3067  0.0213
 5201TIP3   OH215566   1.481   0.254   4.551  0.4518  0.3021 -0.0341
 5201TIP3    H115567   1.415   0.203   4.503  0.0596  1.0706 -0.3206
 5201TIP3    H215568   1.503   0.199   4.626 -1.2618  0.4515  0.6317
 5202TIP3   OH215569   5.213   6.082   1.850 -0.4422 -0.2427 -0.3748
 5202TIP3    H115570   5.269   6.133   1.909 -0.8971  1.8536 -1.6519
 5202TIP3    H215571   5.124   6.097   1.882 -0.5423 -0.7051 -0.4280
 5203TIP3   OH215572   4.746   4.193   4.830  0.1059 -0.0012  0.2570
 5203TIP3    H115573   4.689   4.268   4.811 -0.3280 -0.0849  1.1924
 5203TIP3    H215574   4.829   4.231   4.855  0.8262  0.1190 -2.0515
 5204TIP3   OH215575   2.799   6.615   4.092  0.0406  0.3242  0.2194
 5204TIP3    H115576   2.782   6.610   3.998  0.7559 -1.4956  0.1454
 5204TIP3    H215577   2.715   6.641   4.131 -0.3631  0.6995 -0.8721
 5205TIP3   OH215578   6.542   6.737   0.339  0.3804  0.3113 -0.2681
 5205TIP3    H115579   6.462   6.717   0.291  1.1184 -0.9364 -1.0635
 5205TIP3    H215580   6.528   6.824   0.375 -1.0489  0.4032 -0.9777
 5206TIP3   OH215581   1.677   2.611   5.841  0.4842 -0.0287 -0.3219
 5206TIP3    H115582   1.742   2.588   5.775  0.7200  0.0409 -0.1154
 5206TIP3    H215583   1.692   2.549   5.913 -0.1424 -0.4727 -0.5658
 5207TIP3   OH215584   2.841   0.272   3.158 -0.0082 -0.9017 -0.4165
 5207TIP3    H115585   2.879   0.229   3.235  1.2155 -0.5839 -0.8227
 5207TIP3    H215586   2.755   0.231   3.148 -0.1466 -1.0248  1.0469
 5208TIP3   OH215587   2.358   2.606   4.021  0.2845 -0.5245 -0.2750
 5208TIP3    H115588   2.425   2.656   4.067 -0.3941 -1.8789  2.3775
 5208TIP3    H215589   2.292   2.671   3.996  0.9890  0.3504  0.1098
 5209TIP3   OH215590   3.439   4.532   5.707 -0.0299  0.1070  0.4406
 5209TIP3    H115591   3.388   4.563   5.781 -1.5009 -1.3729  0.1023
 5209TIP3    H215592   3.461   4.441   5.729 -0.3693 -0.3106 -0.8530
 5210TIP3   OH215593   5.922   4.188   3.199  0.3459 -0.2788  0.0342
 5210TIP3    H115594   5.900   4.189   3.292 -0.0952 -1.9464 -0.0230
 5210TIP3    H215595   5.861   4.125   3.161  0.2049  0.7296 -1.4768
 5211TIP3   OH215596   4.287   5.875   4.500 -0.0030 -0.3093 -0.1905
 5211TIP3    H115597   4.269   5.934   4.427 -0.9944 -0.8340 -0.3989
 5211TIP3    H215598   4.203   5.832   4.516  0.7172 -1.7669 -0.1467
 5212TIP3   OH215599   4.074   1.709   4.443 -0.0906  0.2974  0.5202
 5212TIP3    H115600   4.115   1.662   4.370 -0.7211  0.6204 -0.0516
 5212TIP3    H215601   4.086   1.651   4.519 -1.2166 -1.0081 -0.2512
 5213TIP3   OH215602   5.572   5.200   4.703  0.0522  0.0092 -0.0283
 5213TIP3    H115603   5.656   5.227   4.740  0.4191 -2.0727  0.7974
 5213TIP3    H215604   5.595   5.151   4.623 -0.3015 -1.0848  0.5180
 5214TIP3   OH215605   3.753   4.002   2.623 -0.1854 -0.5079  0.0485
 5214TIP3    H115606   3.734   3.994   2.716 -1.6033  1.5673 -0.0091
 5214TIP3    H215607   3.845   3.975   2.615 -0.0730 -0.8429  1.9974
 5215TIP3   OH215608   2.238   6.500   1.443 -0.1207  0.4977  0.3499
 5215TIP3    H115609   2.268   6.466   1.359  0.4876  0.5777  0.5341
 5215TIP3    H215610   2.206   6.588   1.423 -1.7176 -0.1531 -0.1308
 5216TIP3   OH215611   0.761   6.562   1.698 -0.0582 -0.3469  0.2664
 5216TIP3    H115612   0.754   6.519   1.613 -0.9270  0.6067 -0.1664
 5216TIP3    H215613   0.847   6.536   1.731  0.3124 -0.6926 -0.9239
 5217TIP3   OH215614   2.005   4.344   5.159  0.0381  0.2353 -0.3609
 5217TIP3    H115615   2.006   4.368   5.066  0.4314 -0.5384 -0.5641
 5217TIP3    H215616   2.097   4.345   5.185 -0.0406  0.0674 -0.0782
 5218TIP3   OH215617   0.240   4.447   5.683  0.3532  0.1415  0.0275
 5218TIP3    H115618   0.290   4.448   5.765  1.1222 -1.2756 -0.3838
 5218TIP3    H215619   0.211   4.357   5.673 -2.1184  0.8536  0.0851
 5219TIP3   OH215620   1.731   3.907   4.865  0.8628 -0.0752  0.0559
 5219TIP3    H115621   1.724   3.975   4.798 -1.1496  0.5153  0.7926
 5219TIP3    H215622   1.789   3.841   4.827  0.0816  0.4141 -2.1163
 5220TIP3   OH215623   2.064   2.946   5.272 -0.3132  0.3260  0.1404
 5220TIP3    H115624   2.132   2.883   5.293  0.0547  0.8128  0.4319
 5220TIP3    H215625   2.094   2.987   5.191  0.4880  1.5766  1.0405
 5221TIP3   OH215626   2.801   1.350   1.763 -0.9644  0.1966  0.2396
 5221TIP3    H115627   2.793   1.417   1.696  0.4027 -1.6740 -1.9512
 5221TIP3    H215628   2.895   1.344   1.780 -1.0231 -1.3595  0.1477
 5222TIP3   OH215629   0.964   2.484   0.780 -0.1555 -0.2016  0.4247
 5222TIP3    H115630   0.940   2.569   0.818  0.4210 -0.2743  0.9603
 5222TIP3    H215631   0.978   2.427   0.855 -0.4747 -0.7609  0.0662
 5223TIP3   OH215632   1.392   0.963   0.294 -0.0451 -1.1192  0.3016
 5223TIP3    H115633   1.328   0.958   0.366  1.0534 -1.4759  1.2924
 5223TIP3    H215634   1.451   1.034   0.320  0.3794 -1.2744 -0.2329
 5224TIP3   OH215635   6.631   5.074   1.423 -0.1336  0.2254 -0.7675
 5224TIP3    H115636   6.592   5.020   1.354 -1.9387  0.3270  0.1089
 5224TIP3    H215637   6.567   5.144   1.438 -0.3887 -0.4627  1.7931
 5225TIP3   OH215638   3.610   2.955   5.876 -0.0766  0.0509  0.3147
 5225TIP3    H115639   3.693   2.962   5.829 -1.1131 -0.6282 -1.7252
 5225TIP3    H215640   3.557   2.895   5.823 -2.5008  1.8094  0.5502
 5226TIP3   OH215641   4.793   1.880   1.012 -0.1434 -0.6849 -0.5628
 5226TIP3    H115642   4.808   1.972   1.032  0.4216 -1.1217  1.1890
 5226TIP3    H215643   4.863   1.857   0.950 -0.1136 -0.0189 -0.7788
 5227TIP3   OH215644   0.241   5.251   2.598 -0.5115  0.3213 -0.4956
 5227TIP3    H115645   0.236   5.166   2.554  1.4832  0.9412 -2.0903
 5227TIP3    H215646   0.198   5.312   2.537 -1.7883  0.5250  0.5661
 5228TIP3   OH215647   3.626   1.437   1.269  0.2175 -0.1272  0.1158
 5228TIP3    H115648   3.642   1.343   1.258 -1.5408 -0.2353 -2.4710
 5228TIP3    H215649   3.629   1.472   1.180 -2.7593  1.6030  0.5670
 5229TIP3   OH215650   4.271   5.453   3.181  0.1276  0.0746  0.4455
 5229TIP3    H115651   4.304   5.531   3.226 -0.2471  1.9227 -2.2317
 5229TIP3    H215652   4.276   5.475   3.088 -1.3896 -2.5713 -0.3829
 5230TIP3   OH215653   3.795   1.119   0.437  0.2974 -0.1286  0.4132
 5230TIP3    H115654   3.809   1.055   0.507 -0.2925  0.1621  0.8082
 5230TIP3    H215655   3.732   1.181   0.474  1.8167  1.4116  0.5020
 5231TIP3   OH215656   3.057   1.767   0.612 -0.3138  0.4294 -0.0712
 5231TIP3    H115657   3.042   1.753   0.519 -2.2624  1.9704 -0.0534
 5231TIP3    H215658   3.137   1.819   0.617  0.4573 -0.6515 -0.7724
 5232TIP3   OH215659   6.375   5.098   5.218  0.1643  0.1885  0.2534
 5232TIP3    H115660   6.413   5.169   5.270 -1.8625  1.2078  0.4736
 5232TIP3    H215661   6.293   5.135   5.184  0.6275 -0.9777 -2.3810
 5233TIP3   OH215662   5.712   0.382   3.790 -0.4457 -0.2115  0.1811
 5233TIP3    H115663   5.774   0.455   3.786  1.5112 -1.8375 -1.6671
 5233TIP3    H215664   5.633   0.415   3.748  0.1909  1.0188 -0.0966
 5234TIP3   OH215665   6.503   1.574   4.657 -0.6048 -0.6073 -0.0432
 5234TIP3    H115666   6.526   1.563   4.749 -1.1059 -0.5419  0.0889
 5234TIP3    H215667   6.411   1.599   4.658 -0.5324 -0.3170 -0.5473
 5235TIP3   OH215668   5.588   2.309   0.534  0.3920  0.0752  0.1668
 5235TIP3    H115669   5.544   2.263   0.606 -0.1899  0.0438 -0.1995
 5235TIP3    H215670   5.626   2.240   0.480  0.4846  0.0792  0.2266
 5236TIP3   OH215671   2.772   1.666   2.067  0.6330  0.0274  0.1101
 5236TIP3    H115672   2.713   1.620   2.008 -0.6308  0.6194  0.8678
 5236TIP3    H215673   2.848   1.688   2.013 -0.3380  0.2676 -1.2147
 5237TIP3   OH215674   5.797   2.891   0.623  0.6891  0.1916  0.4511
 5237TIP3    H115675   5.775   2.878   0.531  0.5918  2.6858  0.0552
 5237TIP3    H215676   5.891   2.874   0.628  0.5890 -0.5579  0.0499
 5238TIP3   OH215677   7.165   0.498   1.285 -0.3430  0.1539  0.4796
 5238TIP3    H115678   7.144   0.406   1.264 -1.2772  0.3148  0.6693
 5238TIP3    H215679   7.252   0.512   1.246 -0.2877 -0.7443  0.2518
 5239TIP3   OH215680   5.014  -0.009   2.263 -0.5557  0.0886  0.1525
 5239TIP3    H115681   5.070   0.066   2.241  0.5032 -1.0344 -1.0809
 5239TIP3    H215682   4.931   0.010   2.219 -0.7320  1.1076  0.8765
 5240TIP3   OH215683   0.137   1.058   0.482  0.1366  0.1114 -0.0180
 5240TIP3    H115684   0.063   0.997   0.483  0.8390 -0.7897 -0.5480
 5240TIP3    H215685   0.100   1.142   0.507 -1.2962 -0.0623 -1.3956
 5241TIP3   OH215686   0.402   6.732   2.132 -0.3048  0.2218  0.6399
 5241TIP3    H115687   0.428   6.641   2.151  0.5079  0.4921  0.8645
 5241TIP3    H215688   0.412   6.739   2.037 -0.9396 -0.0943  0.5464
 5242TIP3   OH215689   1.349   1.985   1.391 -0.0046 -0.4722  1.0708
 5242TIP3    H115690   1.435   2.011   1.425  0.6826  0.2929 -1.1075
 5242TIP3    H215691   1.334   1.898   1.428  2.6773 -1.5322 -0.0900
 5243TIP3   OH215692   4.367   3.580   1.336  0.3568  0.1777  0.4007
 5243TIP3    H115693   4.440   3.642   1.331 -0.3500  0.9737 -0.3322
 5243TIP3    H215694   4.304   3.613   1.272  0.2098 -1.6217 -0.4335
 5244TIP3   OH215695   4.182   5.257   0.086  0.4120 -0.3570  0.1747
 5244TIP3    H115696   4.235   5.306   0.022 -0.8437 -0.7196 -1.2133
 5244TIP3    H215697   4.196   5.165   0.064 -0.2172 -0.4796  0.2510
 5245TIP3   OH215698   3.587   1.111   1.932 -0.3491 -0.2931 -0.1163
 5245TIP3    H115699   3.597   1.026   1.891  0.8952 -0.1086 -0.2486
 5245TIP3    H215700   3.604   1.174   1.862  2.6607  0.0279  0.7316
 5246TIP3   OH215701   3.943   6.292   5.396  0.0700  0.4975 -0.6377
 5246TIP3    H115702   3.920   6.361   5.458 -0.7226  1.8946 -2.3940
 5246TIP3    H215703   3.888   6.309   5.320  2.0822 -0.2127 -2.3474
 5247TIP3   OH215704   0.912   2.308   4.911 -0.8673  0.1610  0.6435
 5247TIP3    H115705   0.978   2.373   4.934 -0.4321  0.5064 -1.4014
 5247TIP3    H215706   0.831   2.359   4.903 -0.3248  0.7153 -2.0080
 5248TIP3   OH215707   3.992   3.023   1.019 -0.4562  0.6201  0.0757
 5248TIP3    H115708   3.928   3.000   1.086  0.7149 -1.1991  0.6408
 5248TIP3    H215709   4.045   3.093   1.058 -2.1632  2.3115 -0.4875
 5249TIP3   OH215710   5.040   5.956   5.667  0.2478  0.3398 -0.0705
 5249TIP3    H115711   4.952   5.945   5.704  0.3575  0.6750  0.2873
 5249TIP3    H215712   5.024   5.975   5.574 -0.0979  1.3337  0.1829
 5250TIP3   OH215713   3.104   5.526   3.613 -0.0561  0.0700  0.3031
 5250TIP3    H115714   3.139   5.505   3.526 -0.6052 -0.3583  0.1766
 5250TIP3    H215715   3.012   5.544   3.598 -0.6359 -1.9895  1.0485
 5251TIP3   OH215716   3.992   2.922   4.394 -0.4245  0.0944  0.0413
 5251TIP3    H115717   3.964   3.012   4.378 -0.2926  0.2657  0.7470
 5251TIP3    H215718   4.057   2.929   4.463 -0.6240 -0.5747  0.3064
 5252TIP3   OH215719   6.303   3.872   5.446  0.3126  0.1537  0.1051
 5252TIP3    H115720   6.280   3.779   5.455  0.7745  0.1560  1.6109
 5252TIP3    H215721   6.325   3.882   5.354  0.8323 -1.3868  0.0274
 5253TIP3   OH215722   1.674   2.594   0.760 -0.7550 -0.0980  0.5791
 5253TIP3    H115723   1.739   2.660   0.786  0.3146 -0.5346 -0.8523
 5253TIP3    H215724   1.638   2.627   0.678 -0.3260 -1.1960 -0.0690
 5254TIP3   OH215725   1.380   2.364   0.874  0.2023  0.0480 -0.6308
 5254TIP3    H115726   1.310   2.319   0.827 -0.1710  1.2715 -1.2909
 5254TIP3    H215727   1.359   2.352   0.966  0.1011 -1.0771 -0.7785
 5255TIP3   OH215728   1.173   1.292   5.817 -0.5778  0.6986  0.1878
 5255TIP3    H115729   1.121   1.251   5.747 -1.2399  0.4783  0.8024
 5255TIP3    H215730   1.113   1.354   5.858 -1.0653 -1.0522  2.2706
 5256TIP3   OH215731   4.601   3.815   4.768 -0.2536  0.1728 -0.1134
 5256TIP3    H115732   4.620   3.858   4.685  1.4506  0.7542  0.5388
 5256TIP3    H215733   4.667   3.745   4.774  0.9760  1.4168  1.6435
 5257TIP3   OH215734   3.294   5.661   0.685 -0.4051  0.0157  0.4037
 5257TIP3    H115735   3.381   5.627   0.662 -0.6057 -0.3135  0.1040
 5257TIP3    H215736   3.302   5.756   0.677 -0.3555 -0.0614 -0.7035
 5258TIP3   OH215737   1.530   2.637   5.588  0.3723 -0.5735 -0.3280
 5258TIP3    H115738   1.574   2.633   5.672 -3.2532 -1.0589  1.7686
 5258TIP3    H215739   1.547   2.552   5.547  0.9591 -0.9154  0.6098
 5259TIP3   OH215740   6.876   0.501   3.333 -0.4484  0.2263  0.4493
 5259TIP3    H115741   6.909   0.411   3.329 -0.4712  0.1586  1.4870
 5259TIP3    H215742   6.864   0.518   3.426 -0.7557  1.1990  0.2454
 5260TIP3   OH215743   2.060   0.059   4.656  0.4798  0.4247 -0.2672
 5260TIP3    H115744   1.974   0.030   4.626  0.0182  1.3941  0.0749
 5260TIP3    H215745   2.043   0.141   4.703  1.4549  0.0673  0.7468
 5261TIP3   OH215746   0.764   5.519   3.671  0.3728  0.3969  0.6293
 5261TIP3    H115747   0.696   5.527   3.604 -1.0470 -1.6360  1.7436
 5261TIP3    H215748   0.769   5.607   3.710 -1.3979  0.6688  0.3168
 5262TIP3   OH215749   3.727   5.110   4.478  0.4779 -0.0756  0.2741
 5262TIP3    H115750   3.717   5.175   4.547 -1.1614  0.7824 -0.7112
 5262TIP3    H215751   3.779   5.154   4.411 -0.4751  0.1901 -0.3125
 5263TIP3   OH215752   2.145   4.702   2.661  0.2367 -0.4096 -0.2089
 5263TIP3    H115753   2.114   4.749   2.738  0.9305 -0.5351  0.1489
 5263TIP3    H215754   2.085   4.729   2.591 -0.0881  0.0956  0.2587
 5264TIP3   OH215755   4.311   3.619   2.140  0.1416 -0.1185 -0.3850
 5264TIP3    H115756   4.233   3.567   2.122  1.0171 -1.9086  0.6866
 5264TIP3    H215757   4.309   3.689   2.075 -2.4312  0.0100 -0.2485
 5265TIP3   OH215758   6.442   0.441   2.342  0.4766  0.2263  0.6614
 5265TIP3    H115759   6.473   0.464   2.255  0.4810 -0.3523  0.5070
 5265TIP3    H215760   6.363   0.493   2.355  0.3638  0.1616  0.2309
 5266TIP3   OH215761   3.961   6.726   1.294 -0.0929  0.1483  0.0025
 5266TIP3    H115762   4.052   6.732   1.266 -0.9061 -0.9573 -3.3233
 5266TIP3    H215763   3.965   6.692   1.383  2.7087  0.1369 -0.0562
 5267TIP3   OH215764   4.504   3.341   4.038 -0.6424 -0.1551 -0.2217
 5267TIP3    H115765   4.449   3.380   4.106  0.7671  0.7397  0.4522
 5267TIP3    H215766   4.592   3.374   4.057  0.7054 -3.6526  0.4163
 5268TIP3   OH215767   4.413   3.251   2.956 -0.3431 -0.6999 -0.1755
 5268TIP3    H115768   4.326   3.234   2.922 -1.3294 -0.1188  1.8925
 5268TIP3    H215769   4.417   3.204   3.039  0.7573  0.4261  0.4594
 5269TIP3   OH215770   4.400   3.382   1.158  0.3170 -0.2477  0.3338
 5269TIP3    H115771   4.405   3.453   1.223 -0.4539  1.2426 -1.1652
 5269TIP3    H215772   4.426   3.424   1.076  0.0019 -1.7679 -0.5625
 5270TIP3   OH215773   5.072   1.882   2.852 -0.3639 -0.4198  0.3819
 5270TIP3    H115774   5.114   1.944   2.792 -0.3027 -0.1333  0.7179
 5270TIP3    H215775   5.003   1.841   2.799  0.8422 -1.4864 -0.4078
 5271TIP3   OH215776   0.221   0.790   0.400  0.5419  0.0996 -0.1070
 5271TIP3    H115777   0.214   0.884   0.416 -1.1582  0.2171 -1.2801
 5271TIP3    H215778   0.153   0.751   0.455  0.7095 -0.3729 -0.2240
 5272TIP3   OH215779   6.846   0.949   0.554 -0.0373 -0.0974  0.3660
 5272TIP3    H115780   6.795   1.010   0.607 -1.8538 -1.0268 -0.2453
 5272TIP3    H215781   6.822   0.969   0.463  1.3036 -0.0506 -0.0144
 5273TIP3   OH215782   6.471   1.426   5.419  0.3391 -0.0397 -0.0739
 5273TIP3    H115783   6.549   1.431   5.475  0.4049 -0.8292 -0.0758
 5273TIP3    H215784   6.407   1.483   5.461  0.9479  0.6991 -0.1266
 5274TIP3   OH215785   3.400   5.153   2.632 -0.0250  0.1291 -0.4274
 5274TIP3    H115786   3.320   5.127   2.678  0.4864 -0.1849  0.3076
 5274TIP3    H215787   3.470   5.132   2.694  0.5641  1.1969 -0.7160
 5275TIP3   OH215788   6.248   3.829   0.624 -0.6289  0.5877  0.4292
 5275TIP3    H115789   6.333   3.840   0.668 -0.6268 -0.3335  0.6854
 5275TIP3    H215790   6.269   3.782   0.544 -0.9044  0.2842  0.5324
 5276TIP3   OH215791   3.176   0.074   5.401 -0.0756 -0.5345 -0.0897
 5276TIP3    H115792   3.156   0.126   5.479 -0.2969 -0.5358 -0.1451
 5276TIP3    H215793   3.092   0.065   5.357 -0.3729 -2.3465  0.7706
 5277TIP3   OH215794   0.039   3.694   3.494  0.2524 -0.3536  0.8191
 5277TIP3    H115795  -0.050   3.661   3.483  0.1291 -1.0482  3.2323
 5277TIP3    H215796   0.086   3.622   3.537  1.6035  0.4921  0.8151
 5278TIP3   OH215797   1.953   1.670   2.473  0.3687 -0.4951 -0.3862
 5278TIP3    H115798   1.967   1.646   2.565 -0.1358  2.1331  0.4420
 5278TIP3    H215799   1.858   1.666   2.461  0.4297 -0.7929 -0.8067
 5279TIP3   OH215800   2.631   3.652   4.362  0.2056  0.0845 -0.8261
 5279TIP3    H115801   2.586   3.715   4.306 -0.1675  0.7987  0.2491
 5279TIP3    H215802   2.713   3.633   4.316 -0.3255  0.2379 -1.8645
 5280TIP3   OH215803   1.826   2.824   5.285  0.1599  0.5189 -0.2292
 5280TIP3    H115804   1.776   2.868   5.216  1.6257  1.6048 -0.6649
 5280TIP3    H215805   1.913   2.866   5.281  0.9689 -0.9883  0.7560
 5281TIP3   OH215806   5.424   2.587   1.392 -0.1428 -0.3823  0.0752
 5281TIP3    H115807   5.485   2.652   1.358 -0.7633  0.3142  0.2609
 5281TIP3    H215808   5.453   2.504   1.355  0.8538 -0.0472  0.0945
 5282TIP3   OH215809   1.013   3.636   1.848 -0.2500 -0.2055  0.3851
 5282TIP3    H115810   0.996   3.729   1.858 -2.5725 -0.7315  2.1197
 5282TIP3    H215811   1.050   3.627   1.760  0.4697  2.3529  0.3642
 5283TIP3   OH215812   4.599   2.691   1.253 -0.1990  0.0208 -0.2536
 5283TIP3    H115813   4.543   2.756   1.213 -1.2631 -0.8102 -0.1630
 5283TIP3    H215814   4.539   2.629   1.294  0.7615 -1.1037 -0.4696
 5284TIP3   OH215815   6.067   3.838   2.747  0.2224 -0.1599  0.0722
 5284TIP3    H115816   6.146   3.883   2.775  0.8392 -1.5309  0.6509
 5284TIP3    H215817   6.078   3.826   2.653 -0.8830  2.5941 -0.5035
 5285TIP3   OH215818   0.360   3.618   0.036  0.2785  0.6541 -0.5660
 5285TIP3    H115819   0.292   3.623  -0.032 -0.0666  2.5514 -0.1352
 5285TIP3    H215820   0.313   3.631   0.118  0.5723 -2.3975  0.1875
 5286TIP3   OH215821   0.991   5.893   2.100  0.2366 -0.0542  0.1999
 5286TIP3    H115822   1.062   5.945   2.137 -1.2786  1.3636  1.2772
 5286TIP3    H215823   0.990   5.812   2.151  0.3776  0.4098  0.9470
 5287TIP3   OH215824   2.467   4.677   4.226 -0.4864  0.5006  0.0980
 5287TIP3    H115825   2.478   4.645   4.137  1.2644 -0.9193  0.7683
 5287TIP3    H215826   2.494   4.769   4.223  1.5140 -0.0664 -0.4754
 5288TIP3   OH215827   1.685   4.486   1.198  0.3805 -0.1452  0.3489
 5288TIP3    H115828   1.630   4.503   1.274  2.1414  1.0222  1.4432
 5288TIP3    H215829   1.697   4.391   1.197 -0.9489 -0.3371  0.5459
 5289TIP3   OH215830   1.276   0.444   0.456 -0.2339 -0.3347 -0.2862
 5289TIP3    H115831   1.289   0.525   0.407 -0.8358 -2.0257 -3.5987
 5289TIP3    H215832   1.207   0.464   0.519  0.0856  1.8716 -0.5712
 5290TIP3   OH215833   6.860   0.753   3.163 -0.8402  0.5634  0.1932
 5290TIP3    H115834   6.782   0.713   3.124 -0.3869 -2.0179  1.6628
 5290TIP3    H215835   6.908   0.679   3.202  0.7798  2.4234  2.0009
 5291TIP3   OH215836   1.832   0.949   0.908  0.3826 -0.0930  0.3299
 5291TIP3    H115837   1.804   0.938   0.817 -0.6521  1.3993  0.4308
 5291TIP3    H215838   1.889   0.874   0.924 -0.6004 -1.2213 -1.0733
 5292TIP3   OH215839   0.631   2.569   1.307  0.7436 -0.4613 -0.3407
 5292TIP3    H115840   0.578   2.545   1.232  0.5254 -1.6115  0.1518
 5292TIP3    H215841   0.717   2.589   1.270  0.1450  0.8396 -1.0760
 5293TIP3   OH215842   3.216   2.352   1.935  0.1679 -0.4354  0.4030
 5293TIP3    H115843   3.227   2.419   1.867  0.2974 -0.1560  0.6962
 5293TIP3    H215844   3.165   2.283   1.892 -0.7577  0.2484  0.3674
 5294TIP3   OH215845   4.480   1.234   3.009  0.2256  0.7238 -0.5397
 5294TIP3    H115846   4.421   1.229   2.933  0.4608  2.3837 -0.8581
 5294TIP3    H215847   4.442   1.303   3.064  1.2711  1.0521 -0.2196
 5295TIP3   OH215848   4.778   3.596   4.748 -0.7773  0.3300  0.0782
 5295TIP3    H115849   4.841   3.561   4.685 -0.4756  1.9230 -0.5533
 5295TIP3    H215850   4.830   3.615   4.826 -0.9225 -0.5077  0.3841
 5296TIP3   OH215851   5.541   5.127   5.601  0.1403  0.0155 -0.2678
 5296TIP3    H115852   5.547   5.145   5.508 -1.7258  0.8098 -0.2716
 5296TIP3    H215853   5.522   5.212   5.641 -0.4100 -0.5353  0.6774
 5297TIP3   OH215854   5.653   3.208   5.283 -0.2226  0.2477  0.7588
 5297TIP3    H115855   5.613   3.293   5.267  1.8208  1.0819 -0.2516
 5297TIP3    H215856   5.613   3.177   5.365 -2.3990  1.2653  0.1300
 5298TIP3   OH215857   5.237   4.141   1.434 -0.0460 -0.1064  0.6065
 5298TIP3    H115858   5.164   4.188   1.394 -0.9093 -0.8821  1.2375
 5298TIP3    H215859   5.237   4.170   1.525  0.5715  0.0299  0.5728
 5299TIP3   OH215860   0.386   6.266   4.409  0.0019  0.3916 -0.1142
 5299TIP3    H115861   0.319   6.294   4.471  1.1120  0.1346  1.2626
 5299TIP3    H215862   0.468   6.267   4.459  0.4899 -2.9849 -0.5643
 5300TIP3   OH215863   2.790   4.058   1.068 -0.3253 -0.0247  0.2906
 5300TIP3    H115864   2.772   4.049   0.975  1.1516  0.8460 -0.0999
 5300TIP3    H215865   2.783   4.152   1.086  0.4314 -0.0583  0.8229
 5301TIP3   OH215866   4.917   5.236   3.049 -0.1351 -0.5262  0.1402
 5301TIP3    H115867   4.913   5.254   2.955  2.2706 -0.0399  0.0523
 5301TIP3    H215868   4.907   5.322   3.090 -0.9548 -0.7086  0.3416
 5302TIP3   OH215869   1.712   5.563   3.473 -0.0565 -0.1318 -0.2584
 5302TIP3    H115870   1.753   5.586   3.390  1.1489  1.7682  0.7808
 5302TIP3    H215871   1.668   5.644   3.501  1.3095 -0.0398  1.9057
 5303TIP3   OH215872   5.138   1.579   0.830 -0.8151  0.2605 -0.4578
 5303TIP3    H115873   5.182   1.610   0.751 -0.2617  1.6245  0.3433
 5303TIP3    H215874   5.121   1.487   0.813  3.7300 -0.8480 -0.3180
 5304TIP3   OH215875   2.324   3.510   5.111 -0.0875 -0.4514  0.0779
 5304TIP3    H115876   2.371   3.561   5.177  0.0994 -1.5187  0.7900
 5304TIP3    H215877   2.241   3.488   5.152 -1.8135  2.3805 -1.5701
 5305TIP3   OH215878   6.765   1.784   0.050  0.3165 -0.4169  1.0381
 5305TIP3    H115879   6.683   1.736   0.042 -0.6847  1.0643  1.9267
 5305TIP3    H215880   6.755   1.859  -0.009  1.5891 -0.9348  0.1378
 5306TIP3   OH215881   4.543   1.764   4.918 -0.4374  0.2351 -0.9119
 5306TIP3    H115882   4.531   1.680   4.875 -1.3854  0.7345 -1.6678
 5306TIP3    H215883   4.455   1.803   4.918 -0.3741  0.4656  1.0525
 5307TIP3   OH215884   5.425   5.325   0.439  0.4602 -0.0667 -0.0506
 5307TIP3    H115885   5.397   5.264   0.370  1.7323  1.9834 -2.5639
 5307TIP3    H215886   5.354   5.388   0.445 -0.7020 -1.4530  2.3092
 5308TIP3   OH215887   5.804   4.805   5.828  0.1438  0.0640  0.2413
 5308TIP3    H115888   5.718   4.839   5.804  0.1551  0.0158  0.1309
 5308TIP3    H215889   5.866   4.865   5.786  0.1651  0.4005  0.7492
 5309TIP3   OH215890   3.843   3.696   0.299  0.1907 -0.2508 -0.5237
 5309TIP3    H115891   3.798   3.738   0.226 -2.5053  0.3012  1.2939
 5309TIP3    H215892   3.814   3.604   0.295  3.1091 -1.2453 -2.2799
 5310TIP3   OH215893   2.167   3.943   3.565  0.3402  0.0986 -0.4155
 5310TIP3    H115894   2.187   4.037   3.574 -0.4607  0.0911  2.4708
 5310TIP3    H215895   2.235   3.900   3.617 -0.5255 -0.7596  0.0105
 5311TIP3   OH215896   6.885   5.785   1.362 -0.3165 -0.1526  0.1543
 5311TIP3    H115897   6.819   5.828   1.416 -0.9022 -0.5957 -0.1948
 5311TIP3    H215898   6.904   5.848   1.292 -0.1132  0.1123  0.4442
 5312TIP3   OH215899   2.050   6.486   4.987  0.0532 -0.3826  0.4568
 5312TIP3    H115900   2.071   6.393   4.981 -0.5812 -0.4690 -0.8731
 5312TIP3    H215901   1.954   6.489   4.990 -0.0248  0.2493 -1.2109
 5313TIP3   OH215902   1.301   1.344   0.493  0.1622  0.2574  0.0321
 5313TIP3    H115903   1.247   1.334   0.572 -0.5012  1.4061 -0.2470
 5313TIP3    H215904   1.260   1.417   0.446  0.2938 -0.6807 -1.5881
 5314TIP3   OH215905   1.780   6.765   2.292  0.2412 -0.0721 -0.0228
 5314TIP3    H115906   1.722   6.774   2.216  0.2439  1.8518  0.1579
 5314TIP3    H215907   1.724   6.730   2.361 -0.2641  0.0320 -0.3720
 5315TIP3   OH215908   2.487   3.801   0.121  0.1707 -0.0836  0.1632
 5315TIP3    H115909   2.397   3.801   0.154 -0.0513  0.7369 -0.4208
 5315TIP3    H215910   2.480   3.763   0.034  0.5856 -1.1577  0.5811
 5316TIP3   OH215911   0.600   1.109   5.674 -0.3165  0.3231  0.0325
 5316TIP3    H115912   0.669   1.074   5.730 -2.2722 -0.3444  2.2304
 5316TIP3    H215913   0.601   1.053   5.597 -1.5610 -3.1055  2.2537
 5317TIP3   OH215914   6.199   2.988   5.679 -0.2507  0.6715  0.4216
 5317TIP3    H115915   6.282   2.988   5.632 -0.5526 -0.4839 -0.1359
 5317TIP3    H215916   6.132   2.987   5.610 -0.7272  0.9937  0.8697
 5318TIP3   OH215917   4.392   0.629   5.107 -0.2374  0.1624 -0.2599
 5318TIP3    H115918   4.469   0.598   5.155  1.4912  1.0466 -2.2585
 5318TIP3    H215919   4.325   0.642   5.173  1.3388 -0.6412  1.5797
 5319TIP3   OH215920   2.768   4.047   4.324 -0.2661 -0.2688  0.0253
 5319TIP3    H115921   2.751   4.024   4.416  0.8913  0.8956  0.5603
 5319TIP3    H215922   2.844   3.993   4.300 -0.3852 -0.3531 -0.1670
 5320TIP3   OH215923   4.655   4.563   5.453  0.2248  0.9484 -0.1636
 5320TIP3    H115924   4.593   4.497   5.482 -0.9602  1.3053 -1.7289
 5320TIP3    H215925   4.685   4.606   5.533  0.3102 -0.8323  0.8073
 5321TIP3   OH215926   3.583   1.777   5.360 -0.5265  0.0253  0.0195
 5321TIP3    H115927   3.620   1.708   5.305  1.6376  1.1362  0.0042
 5321TIP3    H215928   3.563   1.733   5.442  1.9315 -0.4622  0.4361
 5322TIP3   OH215929   7.078   0.808   4.234  0.5125 -0.6811  0.2092
 5322TIP3    H115930   7.074   0.753   4.312 -2.4277 -1.1297 -0.1667
 5322TIP3    H215931   7.016   0.878   4.251  1.1573  0.2282 -1.0287
 5323TIP3   OH215932   1.922   0.962   5.083 -0.3168  1.1511 -0.4908
 5323TIP3    H115933   1.996   0.979   5.023  0.5850 -1.1099 -0.0970
 5323TIP3    H215934   1.854   0.924   5.027 -0.0177  0.3791 -0.3331
 5324TIP3   OH215935   3.888   0.125   0.308 -0.1912  0.0812  0.0406
 5324TIP3    H115936   3.936   0.199   0.269 -0.0596 -1.2897 -2.6451
 5324TIP3    H215937   3.949   0.052   0.305 -1.9081 -1.4302 -2.4181
 5325TIP3   OH215938   5.635   4.441   1.611  0.5606  0.4970  0.2155
 5325TIP3    H115939   5.673   4.361   1.576  2.1898  1.7343 -1.0311
 5325TIP3    H215940   5.711   4.492   1.641 -0.0817  2.7468 -1.6295
 5326TIP3   OH215941   2.135   4.795   1.161 -0.1605 -0.0922  0.2694
 5326TIP3    H115942   2.188   4.786   1.082  0.7284 -0.0235  0.8374
 5326TIP3    H215943   2.085   4.875   1.147  1.1189  0.7688  0.3814
 5327TIP3   OH215944   6.106   2.831   3.965  0.2678 -0.1461 -0.5870
 5327TIP3    H115945   6.149   2.916   3.971  0.4640 -0.1809 -1.3813
 5327TIP3    H215946   6.162   2.780   3.906  0.6542 -1.1444  0.5799
 5328TIP3   OH215947   5.515   0.002   0.238  0.0034  0.7022 -0.0446
 5328TIP3    H115948   5.538   0.034   0.151  0.3361  0.7147  0.0482
 5328TIP3    H215949   5.465   0.074   0.278  0.2392  0.8754 -0.0578
 5329TIP3   OH215950   2.481   0.846   1.752  0.1302  0.0636  0.3223
 5329TIP3    H115951   2.389   0.837   1.777  0.6947  0.9775  3.0548
 5329TIP3    H215952   2.507   0.931   1.787  2.0579 -0.2302 -0.2690
 5330TIP3   OH215953   4.576   2.590   5.885 -0.3089 -0.6445  0.0173
 5330TIP3    H115954   4.603   2.502   5.858 -2.0886 -1.0975 -0.3861
 5330TIP3    H215955   4.659   2.637   5.898  0.6941 -2.4583  0.5804
 5331TIP3   OH215956   7.104   4.124   5.425 -0.2254 -0.7407 -0.0710
 5331TIP3    H115957   7.029   4.066   5.441 -0.7202 -0.6500 -1.8484
 5331TIP3    H215958   7.135   4.099   5.338  0.9935  0.1180  0.1003
 5332TIP3   OH215959   0.093   4.145   0.080 -0.0627 -0.5491 -0.2759
 5332TIP3    H115960   0.014   4.127   0.129 -0.1916  0.3484 -0.1311
 5332TIP3    H215961   0.162   4.152   0.146 -0.7410  3.7848  0.2755
 5333TIP3   OH215962   2.705   3.708   2.356  0.0751 -0.3193  0.2411
 5333TIP3    H115963   2.764   3.633   2.358  1.6263  0.8470 -0.0628
 5333TIP3    H215964   2.710   3.740   2.266 -1.9369 -0.8591 -0.1096
 5334TIP3   OH215965   0.810   4.652   3.505  0.1065  0.1176  0.0828
 5334TIP3    H115966   0.884   4.591   3.492 -2.2521 -3.1010  0.5536
 5334TIP3    H215967   0.827   4.722   3.443  3.0661 -0.9294 -0.5038
 5335TIP3   OH215968   1.013   4.184   4.279 -0.0448  0.0347 -0.9541
 5335TIP3    H115969   0.940   4.152   4.226 -1.2708  0.0451  0.6472
 5335TIP3    H215970   1.011   4.129   4.358  0.2498  1.4983  0.1256
 5336TIP3   OH215971   4.771   3.131   0.337  0.2523 -0.4379 -0.1674
 5336TIP3    H115972   4.858   3.146   0.299  0.6641 -2.6831 -0.2640
 5336TIP3    H215973   4.780   3.158   0.428  0.0107  2.5289 -0.9229
 5337TIP3   OH215974   4.719   2.835   1.609 -0.1476 -0.1864 -0.1630
 5337TIP3    H115975   4.785   2.783   1.655 -0.5480 -0.4340  0.1347
 5337TIP3    H215976   4.736   2.925   1.637 -0.4305 -0.3438  0.5289
 5338TIP3   OH215977   0.709   3.913   0.064 -0.4499 -0.0724 -0.4907
 5338TIP3    H115978   0.623   3.950   0.085 -0.4312 -0.1696 -0.2401
 5338TIP3    H215979   0.718   3.839   0.123  0.4655  0.8658  0.5698
 5339TIP3   OH215980   6.018   4.288   2.268 -0.2423  0.1208 -0.2696
 5339TIP3    H115981   5.938   4.333   2.242 -0.7781  0.4434  1.7680
 5339TIP3    H215982   6.086   4.354   2.261 -0.0730 -0.2179 -2.2429
 5340TIP3   OH215983   4.839   6.437   3.214 -0.2263 -0.2461  0.1504
 5340TIP3    H115984   4.888   6.469   3.289  0.2035 -1.2000  0.3003
 5340TIP3    H215985   4.868   6.490   3.140 -0.6751  0.7160  0.6565
 5341TIP3   OH215986   5.471   3.872   3.119  0.2139  0.1458  0.2795
 5341TIP3    H115987   5.449   3.793   3.168 -0.2691 -0.6718 -1.2071
 5341TIP3    H215988   5.558   3.857   3.084  1.0711  1.2285  1.8192
 5342TIP3   OH215989   5.040   0.634   3.445  0.3245  0.5120 -0.4228
 5342TIP3    H115990   5.061   0.556   3.395 -1.9698 -1.1941  1.0727
 5342TIP3    H215991   4.971   0.678   3.394 -0.6389 -0.1931  0.2344
 5343TIP3   OH215992   2.345   4.419   1.360  0.2267 -0.0436  0.2031
 5343TIP3    H115993   2.390   4.488   1.407 -0.6498  0.5094  0.2478
 5343TIP3    H215994   2.253   4.442   1.365  0.1232  0.4020 -2.3434
 5344TIP3   OH215995   3.787   0.128   2.261  0.6297  0.0903  0.6019
 5344TIP3    H115996   3.787   0.118   2.166  0.2569  0.5378  0.5477
 5344TIP3    H215997   3.815   0.219   2.276  0.0002  0.2457  0.8828
 5345TIP3   OH215998   3.152   2.071   0.018  0.4696  0.2972  0.7233
 5345TIP3    H115999   3.104   2.029  -0.054  0.4783  1.5256 -0.0213
 5345TIP3    H216000   3.205   2.001   0.056 -1.1249 -0.8642  0.9129
 5346TIP3   OH216001   1.295   1.839   3.019 -0.8239 -1.1337 -0.0336
 5346TIP3    H116002   1.291   1.875   2.930  1.7183 -1.6214 -0.4076
 5346TIP3    H216003   1.253   1.905   3.074 -0.6791  0.0731 -1.3268
 5347TIP3   OH216004   2.248   6.709   0.623  0.1447 -0.0053 -0.2859
 5347TIP3    H116005   2.227   6.640   0.686  1.8566 -0.0167  0.3347
 5347TIP3    H216006   2.204   6.683   0.542 -0.8634 -0.7708  0.4812
 5348TIP3   OH216007   5.665   6.307   1.486 -0.2039  0.2506 -0.7955
 5348TIP3    H116008   5.585   6.303   1.538  0.5181  0.6873  0.3728
 5348TIP3    H216009   5.709   6.224   1.504 -0.5473 -0.1447 -1.7174
 5349TIP3   OH216010   0.737   2.422   3.883  0.3168 -0.2363  0.1793
 5349TIP3    H116011   0.647   2.408   3.912 -0.1775  0.8036 -0.7667
 5349TIP3    H216012   0.790   2.413   3.962 -0.8554  1.5204  1.2445
 5350TIP3   OH216013   2.438   2.441   4.606 -0.2688  0.4272  0.0684
 5350TIP3    H116014   2.438   2.433   4.701 -0.3655 -0.0096  0.0316
 5350TIP3    H216015   2.471   2.530   4.590 -1.4469  0.9876  0.5548
 5351TIP3   OH216016   4.355   4.312   2.870 -0.2987  0.1049  0.3372
 5351TIP3    H116017   4.360   4.238   2.931  0.0739 -1.1559 -1.1604
 5351TIP3    H216018   4.285   4.288   2.810 -0.4922  1.2139  0.1032
 5352TIP3   OH216019   7.206   4.859   2.346  0.1429 -0.5194 -0.5197
 5352TIP3    H116020   7.203   4.765   2.331  0.2751 -0.2123 -3.0232
 5352TIP3    H216021   7.114   4.884   2.358 -0.3795 -0.6007 -3.4423
 5353TIP3   OH216022   4.071   2.764   3.809 -0.3080  0.0980 -0.2109
 5353TIP3    H116023   3.991   2.757   3.861  0.0398  0.9669  0.4587
 5353TIP3    H216024   4.050   2.718   3.728 -0.8032 -1.4546  0.7444
 5354TIP3   OH216025   4.734   4.685   5.109 -0.5689  0.0109  0.1225
 5354TIP3    H116026   4.732   4.592   5.088 -0.4311 -0.2830  1.3154
 5354TIP3    H216027   4.663   4.697   5.172  1.2010  0.0889  2.2208
 5355TIP3   OH216028   0.307   4.113   0.617 -0.2950 -0.4499 -0.2773
 5355TIP3    H116029   0.259   4.066   0.549 -1.1069 -2.8652  1.8021
 5355TIP3    H216030   0.372   4.051   0.648 -0.3957  0.3139  1.5966
 5356TIP3   OH216031   4.405   0.470   0.240 -0.2082 -0.3316  0.2178
 5356TIP3    H116032   4.383   0.544   0.298  0.5503  0.1431 -0.0814
 5356TIP3    H216033   4.483   0.431   0.280  0.7874  0.4630 -0.8444
 5357TIP3   OH216034   6.490   1.295   0.888 -0.3483 -0.0270 -0.5684
 5357TIP3    H116035   6.512   1.327   0.800  0.2331  2.1806  0.3128
 5357TIP3    H216036   6.395   1.291   0.890 -0.3487 -0.7455 -1.4933
 5358TIP3   OH216037   6.868   4.512   3.405 -0.6102 -0.1840 -0.9747
 5358TIP3    H116038   6.878   4.488   3.497  0.3050 -1.5866 -1.4124
 5358TIP3    H216039   6.797   4.456   3.373 -0.0647 -0.6393 -1.4172
 5359TIP3   OH216040   1.567   5.576   4.275  0.4412  0.2065  0.2408
 5359TIP3    H116041   1.502   5.633   4.317 -1.7655 -2.7071  1.1045
 5359TIP3    H216042   1.519   5.497   4.252  3.4564 -1.6494 -0.2570
 5360TIP3   OH216043   2.017   0.738   3.160 -0.0507 -0.2292  0.3828
 5360TIP3    H116044   1.944   0.756   3.219 -1.3873  1.0493 -1.5525
 5360TIP3    H216045   2.032   0.644   3.169 -0.3609 -0.1341  2.5114
 5361TIP3   OH216046   3.558   2.598   3.765 -0.5468  0.4924 -0.1956
 5361TIP3    H116047   3.598   2.648   3.836  1.3534 -0.2660 -0.6757
 5361TIP3    H216048   3.550   2.660   3.692  0.7295  0.4194 -0.4173
 5362TIP3   OH216049   0.022   0.698   4.772  0.0003  0.1422 -0.5317
 5362TIP3    H116050   0.107   0.743   4.765  0.2290  0.2942  2.0939
 5362TIP3    H216051   0.043   0.606   4.754  0.4557  0.3617 -1.1844
 5363TIP3   OH216052   6.266   1.905   2.338 -0.1827 -0.2076 -0.5127
 5363TIP3    H116053   6.289   1.981   2.285 -0.2313 -0.1389 -0.4347
 5363TIP3    H216054   6.342   1.892   2.395 -1.1278  1.2531  1.1746
 5364TIP3   OH216055   2.396   2.379   1.887  0.0281 -0.2689  0.2263
 5364TIP3    H116056   2.455   2.362   1.960  0.4969  3.3320  0.8503
 5364TIP3    H216057   2.308   2.373   1.926  0.2623  1.2386  1.0545
 5365TIP3   OH216058   0.805   2.953   3.054 -0.6669  0.4973  0.2953
 5365TIP3    H116059   0.729   2.925   3.004 -0.0038 -1.1197  0.1322
 5365TIP3    H216060   0.802   2.902   3.135  0.5088 -0.0027  0.0524
 5366TIP3   OH216061   3.257   3.559   3.330 -0.0595  0.5406 -0.1834
 5366TIP3    H116062   3.275   3.523   3.243  0.2232  0.1949  0.0141
 5366TIP3    H216063   3.304   3.642   3.333  1.4879 -0.3226  0.3038
 5367TIP3   OH216064   0.573   4.908   5.083 -0.2356 -0.0611 -0.0728
 5367TIP3    H116065   0.608   4.874   5.001 -0.5142  0.4553 -0.4099
 5367TIP3    H216066   0.625   4.987   5.100  0.7828 -0.9196  0.9874
 5368TIP3   OH216067   2.268   6.190   0.561  0.5816 -0.1089 -0.1317
 5368TIP3    H116068   2.345   6.214   0.510 -1.3316 -0.0909 -3.3078
 5368TIP3    H216069   2.265   6.094   0.557  0.0149 -0.0718 -0.7618
 5369TIP3   OH216070   0.672   5.675   4.559  0.5222 -0.4462 -0.2372
 5369TIP3    H116071   0.673   5.662   4.464 -0.4336  1.5518 -0.5698
 5369TIP3    H216072   0.738   5.743   4.575  1.4619 -1.5285  0.7047
 5370TIP3   OH216073   0.990   4.412   3.646  0.1616 -0.1475  0.0138
 5370TIP3    H116074   0.990   4.322   3.612 -0.0300 -0.5160  0.9520
 5370TIP3    H216075   1.047   4.460   3.587  0.7176 -1.0186 -0.1822
 5371TIP3   OH216076   2.027   3.245   3.486  0.1872 -0.0005 -0.0271
 5371TIP3    H116077   2.027   3.164   3.536 -1.4362  0.1431  0.2607
 5371TIP3    H216078   2.007   3.313   3.551 -1.2981  0.2694 -0.7423
 5372TIP3   OH216079   6.395   2.928   4.185  0.3462 -0.2026 -0.5913
 5372TIP3    H116080   6.324   2.988   4.209  2.0202  1.9446 -0.6791
 5372TIP3    H216081   6.422   2.890   4.268  0.4825  0.6095 -0.2553
 5373TIP3   OH216082   5.140   5.301   2.639  0.2326 -0.3621  0.2419
 5373TIP3    H116083   5.134   5.256   2.555  1.4089 -0.1033 -0.0012
 5373TIP3    H216084   5.178   5.237   2.698  1.2696  0.0659  0.0646
 5374TIP3   OH216085   1.055   1.875   0.618 -0.4435  0.2300 -0.1156
 5374TIP3    H116086   1.044   1.832   0.533  0.1303 -0.4511  0.1395
 5374TIP3    H216087   0.987   1.942   0.620 -0.5202  0.1961 -1.0752
 5375TIP3   OH216088   2.108   6.546   5.753  0.0375  0.0740  0.4347
 5375TIP3    H116089   2.148   6.498   5.681  2.0533  0.8300  0.9999
 5375TIP3    H216090   2.154   6.515   5.831 -1.3378  0.0889  1.2839
 5376TIP3   OH216091   5.297   2.629   4.095 -0.3420 -0.0208  0.0963
 5376TIP3    H116092   5.386   2.595   4.089 -1.0180 -1.6169 -2.6298
 5376TIP3    H216093   5.295   2.703   4.035 -1.2336 -1.0629 -1.2162
 5377TIP3   OH216094   3.570   1.526   4.639  0.1541  0.1056 -0.3499
 5377TIP3    H116095   3.503   1.459   4.651  0.2573 -0.1608 -1.2371
 5377TIP3    H216096   3.524   1.600   4.601  0.3286 -0.0292 -0.8348
 5378TIP3   OH216097   5.573   3.667   1.567  0.2127 -0.0725 -0.1741
 5378TIP3    H116098   5.587   3.671   1.661 -0.2900  0.0046 -0.0976
 5378TIP3    H216099   5.481   3.689   1.555 -0.8211 -3.8271 -0.3529
 5379TIP3   OH216100   4.149   2.391   2.031 -0.5403  0.1422  0.3407
 5379TIP3    H116101   4.221   2.343   1.989 -2.0247 -0.9549 -1.0952
 5379TIP3    H216102   4.101   2.324   2.079 -0.3115  0.9687  1.7749
 5380TIP3   OH216103   6.446   3.281   3.175  0.5381 -0.0013 -0.0561
 5380TIP3    H116104   6.357   3.297   3.207  0.7991  0.9790  0.1958
 5380TIP3    H216105   6.433   3.233   3.093 -0.2164  0.0245  0.0382
 5381TIP3   OH216106   0.327   3.976   3.746 -0.5825 -0.5631 -0.4232
 5381TIP3    H116107   0.263   4.047   3.755 -0.6261 -0.8232  2.6960
 5381TIP3    H216108   0.411   4.020   3.738 -0.9168 -0.2109 -2.2364
 5382TIP3   OH216109   1.711   3.749   4.269 -0.0943 -0.1906  0.1552
 5382TIP3    H116110   1.756   3.767   4.186  2.9584 -1.0251  1.4763
 5382TIP3    H216111   1.639   3.812   4.272  0.3537  0.5823 -2.6104
 5383TIP3   OH216112   4.074   2.389   0.821  0.3910  0.1338  0.6357
 5383TIP3    H116113   4.121   2.325   0.768  0.4625 -0.5779  1.5417
 5383TIP3    H216114   4.140   2.425   0.880  0.3026  0.8831  0.2882
 5384TIP3   OH216115   6.789   2.650   4.036 -0.0867 -0.0113 -0.1434
 5384TIP3    H116116   6.786   2.686   3.947  3.1580 -0.4306 -0.5279
 5384TIP3    H216117   6.781   2.556   4.023 -0.7921  0.0047  0.1448
 5385TIP3   OH216118   4.265   3.827   0.669  0.5053 -0.0441  0.2666
 5385TIP3    H116119   4.278   3.740   0.705 -0.7852 -0.1086  0.6148
 5385TIP3    H216120   4.229   3.813   0.582  2.4023  0.1352 -0.5970
 5386TIP3   OH216121   5.439   3.097   2.536  0.9613 -0.3539 -0.3900
 5386TIP3    H116122   5.491   3.109   2.457  0.3995  2.6966 -0.3886
 5386TIP3    H216123   5.351   3.079   2.504  0.4367  2.1998 -0.5938
 5387TIP3   OH216124   2.166   1.747   5.358  0.0041  0.7872  0.6521
 5387TIP3    H116125   2.214   1.664   5.354 -0.2903  0.6528 -0.1401
 5387TIP3    H216126   2.075   1.722   5.347 -0.0270  1.2854 -0.2395
 5388TIP3   OH216127   4.541   3.890   1.990 -0.0524 -0.4944  0.1557
 5388TIP3    H116128   4.555   3.951   1.917  1.2556 -1.4816 -0.4526
 5388TIP3    H216129   4.446   3.879   1.994 -0.2805  1.1027 -0.1028
 5389TIP3   OH216130   6.938   0.008   0.221 -0.8444  0.0386  0.2784
 5389TIP3    H116131   7.013   0.065   0.205  0.0283 -1.1443 -0.0069
 5389TIP3    H216132   6.864   0.067   0.231 -0.1212  1.1688 -0.8241
 5390TIP3   OH216133   3.975   4.862   0.033 -0.4288  0.5256 -0.5538
 5390TIP3    H116134   3.905   4.926   0.018  1.0043  2.0661 -0.9204
 5390TIP3    H216135   4.047   4.913   0.069  1.0081 -0.7720 -1.4930
 5391TIP3   OH216136   3.787   4.175   5.596 -0.2291  0.3282  0.0866
 5391TIP3    H116137   3.723   4.115   5.634  0.5248 -1.1532 -0.9169
 5391TIP3    H216138   3.738   4.257   5.583 -1.8754 -0.7108 -0.5185
 5392TIP3   OH216139   5.981   4.166   1.854  0.5986 -0.5589 -0.2476
 5392TIP3    H116140   5.888   4.184   1.839  0.5922 -0.5692 -0.2191
 5392TIP3    H216141   5.982   4.082   1.899  0.6546 -0.8366 -0.7603
 5393TIP3   OH216142   5.933   0.062   4.893 -0.3269 -0.2032  0.2628
 5393TIP3    H116143   5.992  -0.012   4.874 -0.8839 -0.2891 -1.2324
 5393TIP3    H216144   5.980   0.113   4.959  0.9969 -0.7926 -0.1854
 5394TIP3   OH216145   2.545   2.290   4.356 -0.1878  0.1708 -0.3475
 5394TIP3    H116146   2.562   2.379   4.324  0.2976  0.0632 -0.3926
 5394TIP3    H216147   2.472   2.301   4.418 -0.8187  0.4460 -1.1201
 5395TIP3   OH216148   6.441   2.904   1.133  0.0508 -0.5392 -0.3747
 5395TIP3    H116149   6.395   2.962   1.194  0.3645 -1.2991  0.6064
 5395TIP3    H216150   6.524   2.884   1.177  0.1634 -1.3182 -0.9219
 5396TIP3   OH216151   5.394   1.368   0.735 -0.1986  0.7366 -0.4790
 5396TIP3    H116152   5.379   1.385   0.642  0.0363 -0.5732 -0.7793
 5396TIP3    H216153   5.487   1.348   0.741 -0.1219  1.2406  0.1205
 5397TIP3   OH216154   1.144   4.280   0.335  0.1336  0.1771  0.1367
 5397TIP3    H116155   1.057   4.254   0.304  0.5630 -1.3543  0.1232
 5397TIP3    H216156   1.131   4.300   0.428 -0.4764  1.3436 -0.1720
 5398TIP3   OH216157   1.707   1.090   4.799  0.2938 -0.1896 -0.1186
 5398TIP3    H116158   1.783   1.148   4.807 -2.3429  3.5512  0.7414
 5398TIP3    H216159   1.698   1.074   4.705  1.1747  0.7740 -0.3842
 5399TIP3   OH216160   2.152   5.730   1.069  0.2911 -0.3980  0.8498
 5399TIP3    H116161   2.181   5.669   1.137 -1.6353 -1.3226  0.8923
 5399TIP3    H216162   2.077   5.688   1.029  0.4358  0.8416 -0.8362
 5400TIP3   OH216163   5.918   4.471   5.368  0.1214 -0.0279 -0.3385
 5400TIP3    H116164   5.917   4.376   5.385  0.6441  0.1572  0.8490
 5400TIP3    H216165   5.975   4.506   5.436 -2.0505  1.4374  0.8495
 5401TIP3   OH216166   2.373   5.524   5.555  0.3109 -0.0033  0.2135
 5401TIP3    H116167   2.360   5.484   5.641 -0.8055  1.1148  0.5899
 5401TIP3    H216168   2.285   5.531   5.519  0.7623 -0.3664 -0.9916
 5402TIP3   OH216169   1.524   2.689   2.059 -0.6624 -0.2132  0.4229
 5402TIP3    H116170   1.596   2.696   1.996 -1.1435 -1.3390 -0.2886
 5402TIP3    H216171   1.525   2.772   2.106  0.4966  0.1645 -0.2238
 5403TIP3   OH216172   2.711   3.221   0.379  0.4599 -0.0595  0.0935
 5403TIP3    H116173   2.707   3.214   0.284 -2.4611 -0.2747  0.1626
 5403TIP3    H216174   2.693   3.313   0.398 -0.1342 -0.2529  0.4840
 5404TIP3   OH216175   7.126   3.122   2.818 -0.0896  0.5977 -0.0147
 5404TIP3    H116176   7.056   3.131   2.754 -0.4290 -0.3044  0.2163
 5404TIP3    H216177   7.160   3.033   2.805  0.9776  0.9988 -0.0855
 5405TIP3   OH216178   6.744   2.577   1.714  0.4816  0.2077  0.0301
 5405TIP3    H116179   6.816   2.640   1.721  0.9085 -0.3856  1.1638
 5405TIP3    H216180   6.780   2.495   1.749  0.0492 -0.7996 -1.7159
 5406TIP3   OH216181   3.768   1.644   4.303 -0.2008 -0.2043 -0.5944
 5406TIP3    H116182   3.840   1.590   4.271  0.5125  1.1178 -1.3058
 5406TIP3    H216183   3.692   1.586   4.300  0.9334 -1.8747  0.9396
 5407TIP3   OH216184   6.154   6.533   0.378 -0.1418  0.1754  0.4790
 5407TIP3    H116185   6.063   6.554   0.397 -0.4669 -0.3194 -0.4786
 5407TIP3    H216186   6.202   6.563   0.456 -1.0459  0.9063  0.7738
 5408TIP3   OH216187   3.331   3.778   3.024 -0.1702 -0.2475  0.4063
 5408TIP3    H116188   3.284   3.860   3.013  0.4544  0.2545  1.3274
 5408TIP3    H216189   3.266   3.710   3.004 -0.5871  0.4628 -0.7276
 5409TIP3   OH216190   1.512   0.185   3.358  0.2239  0.4981 -0.2145
 5409TIP3    H116191   1.430   0.210   3.398  0.7520  1.1631  0.4694
 5409TIP3    H216192   1.493   0.181   3.264 -0.9893 -0.9732  0.0595
 5410TIP3   OH216193   6.597   2.027   5.010  0.0143 -0.0772 -0.5720
 5410TIP3    H116194   6.651   2.027   4.931 -0.0792 -1.7275 -0.6636
 5410TIP3    H216195   6.645   1.971   5.071 -1.3828 -1.2625 -0.5140
 5411TIP3   OH216196   4.030   3.917   5.828 -0.2584  0.4005  0.0636
 5411TIP3    H116197   3.977   3.954   5.757  1.5574  0.2061 -1.4827
 5411TIP3    H216198   4.117   3.955   5.815  0.0829  0.5429  2.3824
 5412TIP3   OH216199   1.313   2.946   0.102  0.2386  0.2451 -0.2849
 5412TIP3    H116200   1.226   2.975   0.073 -0.9692 -0.5134  2.3308
 5412TIP3    H216201   1.307   2.943   0.197  3.0046 -0.3593 -0.0495
 5413TIP3   OH216202   5.729   2.110   2.119  1.1049  0.4902  0.0545
 5413TIP3    H116203   5.665   2.181   2.122 -0.6905 -0.8508 -2.3276
 5413TIP3    H216204   5.712   2.066   2.036  0.5813 -3.9996  2.1717
 5414TIP3   OH216205   2.235   1.433   0.874 -0.2790  0.2398 -0.3035
 5414TIP3    H116206   2.208   1.496   0.941 -1.3485  0.5471 -0.9960
 5414TIP3    H216207   2.293   1.372   0.919  0.7132  1.6657  0.4139
 5415TIP3   OH216208   1.463   5.792   1.605 -0.0041 -0.2601 -0.0708
 5415TIP3    H116209   1.525   5.863   1.587  0.6523 -0.5130  1.0896
 5415TIP3    H216210   1.448   5.797   1.700 -0.9667 -0.8558 -0.1811
 5416TIP3   OH216211   6.388   1.795   5.735 -0.3234 -0.5034  0.3473
 5416TIP3    H116212   6.384   1.837   5.821  0.3713  1.6440 -0.6105
 5416TIP3    H216213   6.327   1.845   5.681 -0.5533 -1.6576 -0.4855
 5417TIP3   OH216214   7.113   1.594   5.034  0.1110 -0.0166  0.4008
 5417TIP3    H116215   7.173   1.602   4.960  0.9273 -0.2077  1.0360
 5417TIP3    H216216   7.038   1.648   5.009 -0.1132 -0.9239 -1.0534
 5418TIP3   OH216217   0.262   3.538   3.593 -0.2993  0.1638 -0.0458
 5418TIP3    H116218   0.309   3.456   3.612 -0.6843 -0.6396 -2.2818
 5418TIP3    H216219   0.273   3.591   3.672  1.7579 -1.2046  0.6555
 5419TIP3   OH216220   1.302   3.421   1.845  0.6088 -0.0709 -0.1066
 5419TIP3    H116221   1.360   3.358   1.804  2.4082  1.1728  0.3915
 5419TIP3    H216222   1.250   3.456   1.773  0.0312 -1.6172 -0.4742
 5420TIP3   OH216223   1.628   5.609   5.697 -0.2678 -0.8408  0.3741
 5420TIP3    H116224   1.579   5.687   5.724 -1.2484 -1.2883 -0.0722
 5420TIP3    H216225   1.693   5.642   5.634  0.0990 -0.2299  1.0410
 5421TIP3   OH216226   6.610   6.572   0.601 -0.0585 -0.0004 -0.1378
 5421TIP3    H116227   6.676   6.503   0.594  0.5089  0.3881  1.1096
 5421TIP3    H216228   6.631   6.632   0.529  0.8480  0.0354  0.1458
 5422TIP3   OH216229   4.997   5.536   5.375  0.5350  0.0429  0.5634
 5422TIP3    H116230   5.057   5.578   5.313 -1.0121  1.2287 -0.2077
 5422TIP3    H216231   5.002   5.443   5.355  0.1745  0.3808 -1.3198
 5423TIP3   OH216232   5.319   5.921   5.104  0.5597  0.1851 -0.3278
 5423TIP3    H116233   5.331   5.826   5.104 -0.3075  0.0653  0.4519
 5423TIP3    H216234   5.231   5.933   5.069  0.3198  0.6455  0.4191
 5424TIP3   OH216235   5.017   2.970   1.747  0.1993 -0.2732 -0.2567
 5424TIP3    H116236   5.077   2.910   1.703  1.7329 -0.4116  1.8901
 5424TIP3    H216237   4.969   3.011   1.675  0.5381 -2.5174 -1.9119
 5425TIP3   OH216238   0.681   5.467   4.735  0.2430  0.3730  0.7660
 5425TIP3    H116239   0.763   5.444   4.690  1.1431 -0.3188  2.6736
 5425TIP3    H216240   0.653   5.548   4.692  1.5940  0.3000 -0.3410
 5426TIP3   OH216241   3.881   1.131   5.102  0.1563  0.4844  0.0429
 5426TIP3    H116242   3.880   1.224   5.124 -0.8179  0.9400 -1.7250
 5426TIP3    H216243   3.942   1.125   5.029 -1.4410  0.1696 -1.3404
 5427TIP3   OH216244   6.081   0.417   1.901  0.2160 -0.3290  0.3206
 5427TIP3    H116245   5.987   0.437   1.905  0.7459  2.6626  0.2284
 5427TIP3    H216246   6.117   0.457   1.979  1.3566 -2.3145  0.8803
 5428TIP3   OH216247   2.628   1.747   4.938 -0.1449  0.2942  0.4375
 5428TIP3    H116248   2.672   1.707   4.864  0.3974 -1.0270  1.4264
 5428TIP3    H216249   2.646   1.840   4.929 -1.7278  0.4450 -2.1284
 5429TIP3   OH216250   1.148   4.466   1.496 -0.2567  0.0729 -0.3148
 5429TIP3    H116251   1.151   4.418   1.579  0.5175  1.4142  0.4808
 5429TIP3    H216252   1.064   4.443   1.457 -1.4904  0.8307  1.7443
 5430TIP3   OH216253   1.308   4.925   2.971 -0.1191 -0.0158 -0.3782
 5430TIP3    H116254   1.263   4.916   2.887 -0.2443  2.3890 -0.6349
 5430TIP3    H216255   1.401   4.920   2.949 -0.1630  0.1767 -0.6132
 5431TIP3   OH216256   3.933   4.107   2.398  0.1546  0.3386 -0.2014
 5431TIP3    H116257   3.972   4.055   2.467  0.3911  0.4325 -0.2629
 5431TIP3    H216258   3.967   4.069   2.317 -0.6429 -0.1932 -0.2941
 5432TIP3   OH216259   5.869   4.604   4.202 -0.0369 -0.0117 -0.3131
 5432TIP3    H116260   5.964   4.604   4.208 -0.0512  0.1479 -0.0693
 5432TIP3    H216261   5.848   4.529   4.147  0.3361  1.1011 -2.0720
 5433TIP3   OH216262   4.094   4.823   3.206 -0.3558  0.3295 -0.0441
 5433TIP3    H116263   4.018   4.857   3.158 -0.8447 -1.9597 -1.0177
 5433TIP3    H216264   4.104   4.733   3.174  2.5397  0.4280  0.3554
 5434TIP3   OH216265   4.715   4.792   2.502  0.2674  0.5472 -0.5091
 5434TIP3    H116266   4.736   4.731   2.572 -0.9487 -0.8264 -1.2864
 5434TIP3    H216267   4.649   4.850   2.539 -3.4455 -2.6289 -1.4934
 5435TIP3   OH216268   0.323   1.276   3.842 -0.1856  0.8340 -0.0109
 5435TIP3    H116269   0.336   1.369   3.820  1.6479  0.6680  0.2919
 5435TIP3    H216270   0.309   1.275   3.936 -1.9216  0.9343 -0.2320
 5436TIP3   OH216271   4.698   4.112   2.352 -0.2087  0.3762  0.1495
 5436TIP3    H116272   4.626   4.050   2.351  0.0707  0.0601 -1.0417
 5436TIP3    H216273   4.656   4.198   2.344 -0.4067  0.1273 -1.7971
 5437TIP3   OH216274   5.230   6.596   1.354 -0.1721 -1.1441  0.1273
 5437TIP3    H116275   5.284   6.631   1.426 -1.3836  0.3250  0.3661
 5437TIP3    H216276   5.279   6.618   1.275 -0.5685  0.5443  0.3161
 5438TIP3   OH216277   1.566   6.246   4.022  0.0428 -0.2815  0.0819
 5438TIP3    H116278   1.527   6.172   3.975 -0.9846  0.3141 -0.0354
 5438TIP3    H216279   1.651   6.258   3.980 -0.1212 -0.8707 -0.4490
 5439TIP3   OH216280   4.032   1.101   0.103  0.0357  0.7472  0.3276
 5439TIP3    H116281   4.111   1.053   0.130 -1.0697 -0.9700  0.6011
 5439TIP3    H216282   4.023   1.170   0.170 -0.2408 -0.7924  1.9573
 5440TIP3   OH216283   5.361   1.661   0.148  0.4224  0.1030 -0.0461
 5440TIP3    H116284   5.332   1.744   0.184 -0.0808 -0.1897  0.2379
 5440TIP3    H216285   5.456   1.664   0.154  0.6188  1.7245 -2.4295
 5441TIP3   OH216286   0.899   0.656   4.279  0.0632 -0.0520  0.1009
 5441TIP3    H116287   0.873   0.565   4.296  2.0858 -1.0978 -1.7925
 5441TIP3    H216288   0.938   0.685   4.362  1.7541 -1.8865  0.0387
 5442TIP3   OH216289   4.346   2.185   4.786  0.2060  0.1812  0.2729
 5442TIP3    H116290   4.356   2.153   4.876  1.0613  1.5582  0.6972
 5442TIP3    H216291   4.312   2.274   4.796  4.1449  1.9623 -0.5156
 5443TIP3   OH216292   3.041   1.523   0.255  0.0295  0.2931  0.5751
 5443TIP3    H116293   2.999   1.507   0.171 -1.7356 -0.2062  1.5109
 5443TIP3    H216294   3.052   1.618   0.257 -0.7710  0.4070  0.1621
 5444TIP3   OH216295   6.455   6.544   5.872 -0.2433 -0.0339  0.0117
 5444TIP3    H116296   6.531   6.573   5.822 -1.2534  1.7705 -0.5674
 5444TIP3    H216297   6.383   6.544   5.808 -0.9270 -0.7463  0.7648
 5445TIP3   OH216298   3.517   1.248   4.724  0.3678 -0.0935 -0.9017
 5445TIP3    H116299   3.469   1.207   4.652  1.1249  0.1428 -1.5556
 5445TIP3    H216300   3.606   1.212   4.716  0.2913 -0.6051  0.3452
 5446TIP3   OH216301   5.879   0.937   2.776 -0.3496 -0.2263  0.1522
 5446TIP3    H116302   5.936   0.961   2.849 -0.6927 -0.9222  0.6670
 5446TIP3    H216303   5.860   0.844   2.790 -0.9688 -0.2035 -0.4493
 5447TIP3   OH216304   2.374   3.190   0.792 -0.1299  0.0994  0.5338
 5447TIP3    H116305   2.447   3.146   0.836 -0.8046 -0.3118  1.2759
 5447TIP3    H216306   2.322   3.226   0.864 -2.3605 -2.3009  0.2648
 5448TIP3   OH216307   3.177   0.208   5.638 -0.3843  0.2372  0.7710
 5448TIP3    H116308   3.198   0.123   5.677  1.9223  0.2878 -0.1935
 5448TIP3    H216309   3.130   0.255   5.707  1.2632 -0.6026  2.5617
 5449TIP3   OH216310   6.224   2.259   1.191  0.3417 -0.0808 -0.2942
 5449TIP3    H116311   6.272   2.318   1.132  0.2446 -2.9352 -3.4758
 5449TIP3    H216312   6.287   2.191   1.213  0.6593  1.2725  3.8748
 5450TIP3   OH216313   1.644   6.465   0.150 -0.1333 -0.0324 -0.0427
 5450TIP3    H116314   1.575   6.518   0.110  0.4248  1.0655  0.3837
 5450TIP3    H216315   1.598   6.393   0.194 -1.0050  0.6704  0.2244
 5451TIP3   OH216316   5.041   5.650   2.420  0.0369  0.4673  0.0554
 5451TIP3    H116317   4.998   5.736   2.420  1.2633  1.1245 -1.9888
 5451TIP3    H216318   5.120   5.663   2.473  1.3407  1.2545 -1.9853
 5452TIP3   OH216319   6.332   4.595   3.818  0.5778 -0.0873  0.3881
 5452TIP3    H116320   6.319   4.674   3.871 -0.8832  0.5243 -0.8215
 5452TIP3    H216321   6.365   4.627   3.734  1.4893 -0.9252  0.4077
 5453TIP3   OH216322   0.640   6.011   2.282  0.0472  0.5802 -0.1392
 5453TIP3    H116323   0.650   6.079   2.348 -1.3142 -0.3732  1.1405
 5453TIP3    H216324   0.628   5.930   2.333 -2.6034  0.0314 -1.4550
 5454TIP3   OH216325   1.783   6.773   1.002 -0.1060 -0.4175 -0.0870
 5454TIP3    H116326   1.832   6.812   0.929  1.2251  0.3997  1.1724
 5454TIP3    H216327   1.782   6.680   0.984  2.6487 -0.5941  0.1517
 5455TIP3   OH216328   5.084   1.438   5.240 -0.1293  0.2599 -0.2038
 5455TIP3    H116329   5.169   1.401   5.215  0.4975  0.1639  1.8232
 5455TIP3    H216330   5.083   1.525   5.201  1.2240  0.5190  0.2590
 5456TIP3   OH216331   0.545   3.982   5.171 -0.5352 -0.1007 -0.1506
 5456TIP3    H116332   0.499   4.039   5.110  2.6262  0.8732 -1.8494
 5456TIP3    H216333   0.621   4.033   5.199 -0.0385 -1.8302  1.9088
 5457TIP3   OH216334   3.797   3.469   2.237  0.1226  0.2942 -0.3596
 5457TIP3    H116335   3.755   3.553   2.219  1.0795  1.3781  2.0218
 5457TIP3    H216336   3.727   3.405   2.231 -1.0402  1.5228 -0.3052
 5458TIP3   OH216337   0.106   5.791   2.815 -0.0400 -0.6352  0.0402
 5458TIP3    H116338   0.105   5.727   2.743 -1.1127  0.7658 -1.2665
 5458TIP3    H216339   0.197   5.794   2.843  0.2730 -1.7623 -0.7660
 5459TIP3   OH216340   2.982   1.671   1.886  0.1587 -0.0711  0.0566
 5459TIP3    H116341   3.035   1.719   1.823 -0.5704 -1.4586 -1.6832
 5459TIP3    H216342   3.001   1.579   1.870 -1.5110 -0.5457  0.5061
 5460TIP3   OH216343   4.849   1.219   2.415 -0.0533  0.2518  0.4524
 5460TIP3    H116344   4.934   1.191   2.448  1.1024  1.5856 -1.1954
 5460TIP3    H216345   4.811   1.271   2.486  1.9961  2.4006  0.0961
 5461TIP3   OH216346   6.489   2.918   1.990  0.2043  0.2195  0.0878
 5461TIP3    H116347   6.542   2.947   2.064 -0.4924 -0.6769  0.9650
 5461TIP3    H216348   6.440   2.843   2.023 -0.4110  0.0312 -1.1754
 5462TIP3   OH216349   4.396   1.742   2.632 -0.2496 -0.3637 -0.3310
 5462TIP3    H116350   4.323   1.745   2.693 -1.2473  2.1099 -1.5091
 5462TIP3    H216351   4.450   1.818   2.656  2.0038 -2.1313  0.5158
 5463TIP3   OH216352   1.634   4.355   5.611 -0.1743 -0.7068 -0.0810
 5463TIP3    H116353   1.721   4.359   5.651 -0.1095 -0.5546 -0.2379
 5463TIP3    H216354   1.650   4.359   5.517 -0.4300  0.9198 -0.0844
 5464TIP3   OH216355   4.210   6.662   3.671 -0.4801 -0.3203  0.2805
 5464TIP3    H116356   4.126   6.627   3.700  0.5338 -3.9661 -0.6864
 5464TIP3    H216357   4.266   6.660   3.749 -0.5926 -0.2355  0.3642
 5465TIP3   OH216358   2.586   4.580   2.609 -0.1300 -0.7001  0.2197
 5465TIP3    H116359   2.501   4.544   2.635  0.4285 -3.4048 -1.2951
 5465TIP3    H216360   2.649   4.535   2.664  0.4392  0.4084  0.4986
 5466TIP3   OH216361   3.401   3.689   1.452  0.6415  1.1171  0.4833
 5466TIP3    H116362   3.402   3.755   1.383 -1.5169  2.1104  1.3052
 5466TIP3    H216363   3.420   3.607   1.407 -0.0491  1.8327 -1.2035
 5467TIP3   OH216364   4.679   3.205   4.237  0.2513  0.5760  0.1821
 5467TIP3    H116365   4.725   3.228   4.318 -0.4824  0.0943  0.7510
 5467TIP3    H216366   4.731   3.245   4.168  0.9362  0.9348  0.8868
 5468TIP3   OH216367   4.450   6.009   5.288 -0.0508 -0.4156 -0.4651
 5468TIP3    H116368   4.533   5.977   5.250  0.4336  0.6449 -0.3221
 5468TIP3    H216369   4.447   5.968   5.375  1.5697  1.4382  0.5373
 5469TIP3   OH216370   4.805   4.177   5.853 -0.0929  0.4452 -0.3366
 5469TIP3    H116371   4.828   4.263   5.819 -0.5044  1.0447  0.8544
 5469TIP3    H216372   4.889   4.133   5.867  0.2097  1.3398  0.7697
 5470TIP3   OH216373   6.445   0.469   2.016  0.1202 -0.0266 -0.2826
 5470TIP3    H116374   6.393   0.460   1.936 -2.0038  1.0003  0.9167
 5470TIP3    H216375   6.522   0.414   2.000 -0.3172 -0.0171 -2.9388
 5471TIP3   OH216376   1.883   1.945   4.509 -0.0683 -0.6617  0.3948
 5471TIP3    H116377   1.890   2.029   4.464 -0.7406 -0.7288  0.1475
 5471TIP3    H216378   1.796   1.912   4.485 -1.0190 -0.1083  2.7517
 5472TIP3   OH216379   5.838   6.224   4.782  1.0628 -0.7067  0.0347
 5472TIP3    H116380   5.841   6.225   4.686  0.9347 -1.1652  0.0270
 5472TIP3    H216381   5.789   6.145   4.804 -2.2193  1.2072  0.3986
 5473TIP3   OH216382   3.907   0.496   4.400  0.1549 -1.1418 -0.0221
 5473TIP3    H116383   3.903   0.446   4.482 -0.1859 -1.7566 -0.4035
 5473TIP3    H216384   3.825   0.474   4.355  0.3011 -0.7369 -0.4867
 5474TIP3   OH216385   6.008   6.779   4.994  0.8774  1.2793  0.4595
 5474TIP3    H116386   5.939   6.766   5.059  0.7652  0.7324  0.2415
 5474TIP3    H216387   5.960   6.791   4.911  1.0498 -0.5081  0.0670
 5475TIP3   OH216388   7.037   3.203   3.059  0.4349 -0.6912  0.5584
 5475TIP3    H116389   7.100   3.161   3.118  2.9768  1.3229 -0.5352
 5475TIP3    H216390   7.068   3.181   2.971 -0.8683 -0.2411 -0.0404
 5476TIP3   OH216391   1.946   1.673   1.846  0.3916 -0.1054 -0.3784
 5476TIP3    H116392   2.001   1.610   1.893 -0.0370 -0.0708  0.1885
 5476TIP3    H216393   1.986   1.758   1.862  0.1406 -0.0715  0.0992
 5477TIP3   OH216394   1.688   4.362   2.349  0.1172 -0.2784  0.5593
 5477TIP3    H116395   1.698   4.357   2.444  1.3084  0.9419  0.5429
 5477TIP3    H216396   1.631   4.438   2.335 -1.5901 -1.5547  0.3253
 5478TIP3   OH216397   1.955   6.513   3.847  0.2167 -0.3448 -0.0591
 5478TIP3    H116398   1.913   6.495   3.931  0.0552  1.8094  0.3801
 5478TIP3    H216399   1.933   6.605   3.828  1.9598 -0.1517 -1.4422
 5479TIP3   OH216400   0.331   3.277   4.935  0.3224  0.2020  0.1668
 5479TIP3    H116401   0.377   3.209   4.885  1.0795  1.9233 -1.6141
 5479TIP3    H216402   0.326   3.242   5.024 -2.4115 -3.6883 -1.2465
 5480TIP3   OH216403   1.634   4.376   3.607 -0.2737 -0.2279  0.0394
 5480TIP3    H116404   1.687   4.354   3.683  1.4171 -1.4623 -1.3914
 5480TIP3    H216405   1.583   4.296   3.589 -0.0455 -0.2430 -0.5788
 5481TIP3   OH216406   3.520   5.495   4.708 -0.0573  0.1831 -0.3586
 5481TIP3    H116407   3.483   5.440   4.638 -0.6533  1.5981 -1.2099
 5481TIP3    H216408   3.519   5.584   4.671  0.5830  0.8166  1.0842
 5482TIP3   OH216409   0.863   3.880   1.060 -0.3268 -0.0321  0.0976
 5482TIP3    H116410   0.891   3.835   1.140  0.5414 -1.7823 -1.1245
 5482TIP3    H216411   0.944   3.898   1.013 -0.8956 -0.1098 -0.9450
 5483TIP3   OH216412   1.494   0.811   2.824 -0.2642  0.2667  0.0114
 5483TIP3    H116413   1.485   0.775   2.736  2.2536  0.0500 -0.2522
 5483TIP3    H216414   1.491   0.906   2.811 -0.0868  0.2331 -0.2868
 5484TIP3   OH216415   1.652   4.215   5.089  0.3059 -0.5727  0.0920
 5484TIP3    H116416   1.616   4.153   5.025  0.2603  1.9021 -2.4523
 5484TIP3    H216417   1.710   4.161   5.143  0.3601 -2.8482 -2.0429
 5485TIP3   OH216418   2.767   3.459   3.290 -0.2120  0.0811 -0.2666
 5485TIP3    H116419   2.834   3.440   3.224  0.5667  1.1113  0.2089
 5485TIP3    H216420   2.763   3.555   3.294 -1.9830  0.0678 -0.5446
 5486TIP3   OH216421   6.442   1.526   3.706  0.3630 -0.7111  0.7586
 5486TIP3    H116422   6.468   1.434   3.696  2.3998 -0.0264 -1.1754
 5486TIP3    H216423   6.470   1.568   3.624 -1.2935  1.4796  1.2301
 5487TIP3   OH216424   1.659   6.762   2.784  0.0888 -0.6732  0.1867
 5487TIP3    H116425   1.595   6.804   2.841 -1.2200 -0.3256 -1.4521
 5487TIP3    H216426   1.646   6.668   2.799 -0.8106 -0.6069 -0.1219
 5488TIP3   OH216427   1.359   3.252   3.735  0.1791  0.2398  0.1241
 5488TIP3    H116428   1.409   3.255   3.654 -0.3785  0.6320 -0.2129
 5488TIP3    H216429   1.270   3.232   3.707  0.2359 -0.9548  0.7569
 5489TIP3   OH216430   5.966   1.293   1.800  0.2006 -0.0974 -0.0305
 5489TIP3    H116431   6.013   1.375   1.805  0.2473 -0.0754 -0.7321
 5489TIP3    H216432   6.031   1.229   1.771 -0.1328 -0.1054 -0.8124
 5490TIP3   OH216433   4.061   4.561   4.356  0.4255 -0.2514 -0.4547
 5490TIP3    H116434   4.115   4.640   4.356 -0.3324  0.3631 -2.7152
 5490TIP3    H216435   4.051   4.538   4.448  0.4507  2.4550  0.3132
 5491TIP3   OH216436   2.948   2.782   3.001 -0.9229  0.0300 -0.1267
 5491TIP3    H116437   2.882   2.752   2.938 -0.7969 -0.1734 -0.1636
 5491TIP3    H216438   2.920   2.870   3.025 -0.1069  0.7718 -1.6969
 5492TIP3   OH216439   3.325   0.350   2.990 -0.3085  0.3173  1.0020
 5492TIP3    H116440   3.233   0.373   3.006 -0.1819  1.2854  0.4185
 5492TIP3    H216441   3.324   0.255   2.978 -1.0844  0.1916  1.9651
 5493TIP3   OH216442   5.335   1.909   0.308  0.1216 -0.3771  0.1447
 5493TIP3    H116443   5.355   1.904   0.401  0.2641  0.4734  0.1697
 5493TIP3    H216444   5.406   1.961   0.270  0.8804 -1.9475 -0.7128
 5494TIP3   OH216445   2.246   1.867   2.903 -0.4428  0.3459 -0.2228
 5494TIP3    H116446   2.233   1.935   2.836  2.0082  1.6688  0.5109
 5494TIP3    H216447   2.296   1.799   2.859 -1.6950 -0.3732 -0.5787
 5495TIP3   OH216448   2.882   5.128   1.930 -0.4595  0.2659 -0.6313
 5495TIP3    H116449   2.972   5.104   1.906  0.0877  0.3150  1.2653
 5495TIP3    H216450   2.874   5.220   1.902  0.5003  0.6403  0.2485
 5496TIP3   OH216451   4.669   4.024   0.101  0.1392  0.3764  0.1488
 5496TIP3    H116452   4.668   3.934   0.134  1.4067  0.6532  1.0173
 5496TIP3    H216453   4.758   4.036   0.067  0.0401  1.3435  0.2024
 5497TIP3   OH216454   4.491   3.979   3.878  0.4279 -1.1514  0.1120
 5497TIP3    H116455   4.464   3.897   3.837 -0.4608  0.1364 -2.0424
 5497TIP3    H216456   4.561   4.012   3.821  0.3904 -0.1512  0.6298
 5498TIP3   OH216457   0.125   0.926   4.248  0.0243 -0.2654  0.4259
 5498TIP3    H116458   0.045   0.876   4.229 -0.7956  0.5934  1.4871
 5498TIP3    H216459   0.093   1.011   4.278  1.2847 -0.3092  2.0275
 5499TIP3   OH216460   3.898   4.933   4.647  0.4967  0.1346  0.1560
 5499TIP3    H116461   3.963   4.885   4.699  0.5854 -0.2555 -0.2986
 5499TIP3    H216462   3.894   5.020   4.687  0.4902 -0.1873  0.8660
 5500TIP3   OH216463   0.994   1.647   3.715  0.6287  0.1445  0.3157
 5500TIP3    H116464   0.905   1.678   3.700  0.5436 -0.1184  0.2748
 5500TIP3    H216465   1.030   1.708   3.779  0.8240  0.9589 -0.5470
 5501TIP3   OH216466   6.719   0.169   0.277  0.0524  0.4092 -0.0569
 5501TIP3    H116467   6.702   0.256   0.312  1.7952  0.7515  0.0134
 5501TIP3    H216468   6.738   0.184   0.185  0.8362  0.1635  0.0627
 5502TIP3   OH216469   4.187   6.090   3.154 -0.2156 -0.4158  0.3048
 5502TIP3    H116470   4.139   6.020   3.111  1.0669 -1.5931  0.7114
 5502TIP3    H216471   4.190   6.160   3.089 -0.1440 -1.3468 -0.7231
 5503TIP3   OH216472   2.931   2.487   2.737 -0.2293 -0.6333 -0.0003
 5503TIP3    H116473   2.874   2.423   2.694 -2.1653  0.2016  1.2200
 5503TIP3    H216474   2.936   2.459   2.828  1.3789 -0.7029 -0.0802
 5504TIP3   OH216475   2.789   4.197   1.844 -0.3440 -0.3497  0.4696
 5504TIP3    H116476   2.870   4.150   1.863  0.3998  0.6737 -0.0406
 5504TIP3    H216477   2.789   4.270   1.906 -0.2186  0.3746 -0.3571
 5505TIP3   OH216478   6.043   2.621   1.794  0.1118 -0.2172 -0.2366
 5505TIP3    H116479   6.095   2.701   1.804 -0.0328 -0.2574  1.0058
 5505TIP3    H216480   6.029   2.590   1.884  0.7475 -2.0194 -0.7000
 5506TIP3   OH216481   1.951   5.953   5.514  0.1285 -0.5467 -0.9688
 5506TIP3    H116482   1.878   5.942   5.453  1.6606  0.3268 -3.0990
 5506TIP3    H216483   2.013   5.885   5.488  0.1912 -1.1530  0.6867
 5507TIP3   OH216484   4.783   0.024   0.111  0.6106  0.2984  0.1998
 5507TIP3    H116485   4.701   0.037   0.159 -1.3551 -0.9237 -2.5295
 5507TIP3    H216486   4.835  -0.033   0.168 -1.3309 -0.6181  1.1616
 5508TIP3   OH216487   7.036   4.570   0.208  0.4250  0.2165 -0.1511
 5508TIP3    H116488   6.974   4.642   0.200 -0.0928 -0.3848 -2.3611
 5508TIP3    H216489   6.982   4.491   0.200  0.9179 -0.5134  2.6287
 5509TIP3   OH216490   1.547   3.176   2.007  0.0418 -0.1241  0.5578
 5509TIP3    H116491   1.521   3.162   1.916  1.0929 -1.2438  0.4067
 5509TIP3    H216492   1.471   3.219   2.047 -0.0215  1.4103 -1.1007
 5510TIP3   OH216493   6.570   2.231   3.199 -0.7098 -0.3962 -0.1255
 5510TIP3    H116494   6.646   2.175   3.212 -0.5070  0.0462  0.6500
 5510TIP3    H216495   6.534   2.203   3.115  0.4774 -0.4092 -0.6520
 5511TIP3   OH216496   0.416   1.880   0.745  0.0887 -0.2226 -0.0206
 5511TIP3    H116497   0.417   1.801   0.798  1.6603 -0.1230  0.1299
 5511TIP3    H216498   0.323   1.904   0.738 -0.5188 -2.5812 -0.8344
 5512TIP3   OH216499   6.119   1.525   0.606 -0.0784 -0.1417 -0.4354
 5512TIP3    H116500   6.165   1.441   0.605  1.3860  0.6259 -0.1579
 5512TIP3    H216501   6.159   1.574   0.677 -1.4789  0.5128 -0.0515
 5513TIP3   OH216502   2.123   0.718   1.673 -0.0775  0.2859 -0.1665
 5513TIP3    H116503   2.092   0.761   1.593 -1.0390  1.6577  0.8864
 5513TIP3    H216504   2.079   0.633   1.672  0.2460  0.1071 -1.2799
 5514TIP3   OH216505   6.283   5.523   5.244 -0.0443  0.1402  0.2729
 5514TIP3    H116506   6.244   5.481   5.167  0.9030 -0.4242  0.0938
 5514TIP3    H216507   6.371   5.547   5.217  0.5607 -0.7269  1.4021
 5515TIP3   OH216508   0.921   5.481   1.661 -0.3394 -0.3031 -0.3258
 5515TIP3    H116509   0.848   5.441   1.614 -1.0726 -1.5564  1.7601
 5515TIP3    H216510   0.999   5.454   1.612 -1.1110 -0.7430 -1.3487
 5516TIP3   OH216511   5.296   5.147   1.120  0.3210 -0.7189 -0.2365
 5516TIP3    H116512   5.298   5.109   1.032 -0.5889 -1.5514  0.0826
 5516TIP3    H216513   5.248   5.229   1.110  0.7970 -0.4828 -0.6282
 5517TIP3   OH216514   1.158   2.322   1.876 -0.2491 -0.0252 -0.0563
 5517TIP3    H116515   1.173   2.377   1.799  1.2014  0.2416  0.3800
 5517TIP3    H216516   1.212   2.361   1.944 -0.7313 -0.8479  0.8257
 5518TIP3   OH216517   0.978   6.689   0.274  0.1856  0.1037 -0.0978
 5518TIP3    H116518   0.962   6.636   0.352  0.6767 -0.7609 -0.5730
 5518TIP3    H216519   1.027   6.632   0.215 -0.6958  0.5315 -1.3009
 5519TIP3   OH216520   1.062   4.933   4.885 -0.3230 -0.0119  0.2880
 5519TIP3    H116521   1.021   4.902   4.805 -1.7680  1.5483  0.3639
 5519TIP3    H216522   1.096   5.019   4.863 -0.7004  0.4220  1.3016
 5520TIP3   OH216523   3.070   3.198   1.746 -0.5409  0.7374  1.0486
 5520TIP3    H116524   3.081   3.287   1.712  2.6842  1.1350  2.8231
 5520TIP3    H216525   3.018   3.153   1.678  0.6180  3.0251 -1.5318
 5521TIP3   OH216526   3.828   4.866   5.203 -0.0622 -0.1345 -0.5116
 5521TIP3    H116527   3.829   4.816   5.285 -0.9169 -0.5326 -0.7238
 5521TIP3    H216528   3.740   4.903   5.199  0.3470  0.8427 -0.6979
 5522TIP3   OH216529   2.572   6.070   4.160  0.3536  0.0231  0.7347
 5522TIP3    H116530   2.653   6.086   4.111  1.5743 -0.6890  2.4334
 5522TIP3    H216531   2.598   6.013   4.232 -1.9361 -1.3188  0.6020
 5523TIP3   OH216532   2.480   0.591   3.699  0.3210 -0.4195  0.1603
 5523TIP3    H116533   2.471   0.619   3.790 -1.4877  0.0709 -0.1394
 5523TIP3    H216534   2.505   0.498   3.705  2.7789  0.2296  1.1258
 5524TIP3   OH216535   5.516   2.563   3.668 -0.0336 -0.1485 -0.6187
 5524TIP3    H116536   5.486   2.652   3.689 -1.4527 -0.9356  0.9481
 5524TIP3    H216537   5.437   2.518   3.637  0.2420 -1.3268  0.2938
 5525TIP3   OH216538   4.758   3.849   0.679 -0.0073 -0.0381  0.1721
 5525TIP3    H116539   4.781   3.759   0.659  0.0301  0.2987 -1.4591
 5525TIP3    H216540   4.758   3.893   0.594 -1.7874  1.0986  0.7009
 5526TIP3   OH216541   0.901   2.512   0.324  0.4025  0.1200 -0.3166
 5526TIP3    H116542   0.902   2.475   0.412  0.6408 -0.3898 -0.5262
 5526TIP3    H216543   0.872   2.602   0.336  0.0343 -0.0655  0.2355
 5527TIP3   OH216544   2.206   4.184   0.410  0.2909  0.0367 -0.3469
 5527TIP3    H116545   2.123   4.164   0.368  0.3278 -3.3161  0.8767
 5527TIP3    H216546   2.182   4.224   0.494 -0.1374 -0.9090 -0.0042
 5528TIP3   OH216547   1.148   3.236   3.519  0.0919 -0.4799 -0.3525
 5528TIP3    H116548   1.085   3.283   3.574  0.0912 -0.6464 -0.2098
 5528TIP3    H216549   1.095   3.191   3.454  0.2058  1.6078 -2.0008
 5529TIP3   OH216550   0.098   4.535   4.559  0.3582  0.3250 -0.1796
 5529TIP3    H116551   0.047   4.539   4.640  2.0548 -0.5888  0.9864
 5529TIP3    H216552   0.188   4.551   4.585  0.7820  1.6057 -2.1564
 5530TIP3   OH216553   0.534   6.800   4.153 -0.3654  0.4543  0.3366
 5530TIP3    H116554   0.595   6.863   4.114  0.8366  2.4367  4.7856
 5530TIP3    H216555   0.576   6.715   4.139  0.5636  1.1446 -1.4783
 5531TIP3   OH216556   3.292   4.882   3.542 -0.2925 -0.3232  0.3091
 5531TIP3    H116557   3.281   4.806   3.599  0.3896 -1.4746 -1.0512
 5531TIP3    H216558   3.212   4.933   3.554 -0.3151 -0.6801  2.0306
 5532TIP3   OH216559   5.685   3.092   4.064 -0.2035 -0.0401 -0.2600
 5532TIP3    H116560   5.634   3.151   4.120  0.5227  1.1587 -0.8316
 5532TIP3    H216561   5.703   3.016   4.120  0.2747  1.0028  1.0479
 5533TIP3   OH216562   3.032   6.108   3.162  0.1308 -0.4097 -0.0076
 5533TIP3    H116563   3.065   6.197   3.148 -2.3582  0.3285 -1.9473
 5533TIP3    H216564   3.037   6.066   3.077 -1.4338 -1.0950  0.1979
 5534TIP3   OH216565   5.716   0.879   1.694  0.4296  0.4060 -0.1379
 5534TIP3    H116566   5.782   0.849   1.631 -0.3600 -2.0677  0.0742
 5534TIP3    H216567   5.655   0.805   1.700 -2.3630  2.5571 -0.3176
 5535TIP3   OH216568   3.112   0.771   0.166  0.0002 -0.8321 -0.4038
 5535TIP3    H116569   3.090   0.759   0.074  1.1963 -0.8976 -0.6908
 5535TIP3    H216570   3.149   0.859   0.171  0.2270 -0.9446 -0.0400
 5536TIP3   OH216571   1.983   3.645   2.805  0.0223  0.1797  0.0517
 5536TIP3    H116572   2.046   3.660   2.735 -0.3225  0.6873 -0.1513
 5536TIP3    H216573   2.008   3.706   2.874 -0.4702  0.6545 -0.1811
 5537TIP3   OH216574   5.302   2.769   5.641 -0.4853 -0.3045 -0.1093
 5537TIP3    H116575   5.276   2.727   5.559 -2.2907  2.2036 -0.9241
 5537TIP3    H216576   5.396   2.753   5.647  0.0241  0.7483 -3.5343
 5538TIP3   OH216577   2.513   1.992   2.940 -0.2212  0.2137  0.3231
 5538TIP3    H116578   2.429   1.947   2.952 -0.0014 -0.5673 -0.9271
 5538TIP3    H216579   2.543   2.011   3.029 -0.9785 -0.8945  0.8284
 5539TIP3   OH216580   4.848   1.634   0.710  0.3179  0.5824  0.5131
 5539TIP3    H116581   4.760   1.636   0.749 -0.7336  0.5555 -1.7435
 5539TIP3    H216582   4.893   1.709   0.749 -0.9950  1.1239  1.0301
 5540TIP3   OH216583   1.040   6.316   3.877 -0.0544  0.4844 -0.0931
 5540TIP3    H116584   1.093   6.249   3.920 -0.3613  0.8707  0.9304
 5540TIP3    H216585   0.986   6.268   3.815  0.4261 -0.0891 -0.0755
 5541TIP3   OH216586   0.305   6.307   0.050 -0.5312  0.2997 -0.1990
 5541TIP3    H116587   0.215   6.272   0.044 -0.5043  0.1155  0.4244
 5541TIP3    H216588   0.333   6.314  -0.041 -1.2774  0.6127 -0.4186
 5542TIP3   OH216589   1.566   3.384   3.547 -0.6585 -0.1407 -0.1898
 5542TIP3    H116590   1.590   3.349   3.461 -0.3305 -1.3747  0.3869
 5542TIP3    H216591   1.619   3.335   3.609 -2.0454 -0.3884  0.8419
 5543TIP3   OH216592   2.367   6.440   2.598 -0.3144 -0.6005  0.1043
 5543TIP3    H116593   2.414   6.483   2.527  0.9367 -1.2040  0.5314
 5543TIP3    H216594   2.433   6.386   2.641 -1.3862 -1.3942  0.8103
 5544TIP3   OH216595   5.161   3.605   3.741 -0.2229  0.6594 -0.3087
 5544TIP3    H116596   5.123   3.529   3.697  0.3976 -0.3645  0.9084
 5544TIP3    H216597   5.237   3.628   3.688 -0.0739  0.0760 -0.3499
 5545TIP3   OH216598   2.736   0.764   5.234 -0.2463  0.2929  0.0500
 5545TIP3    H116599   2.691   0.679   5.240 -0.5076  0.4502  0.3371
 5545TIP3    H216600   2.667   0.826   5.211  0.1600  0.2373 -1.4302
 5546TIP3   OH216601   2.398   1.666   3.678  0.5857  0.0325 -0.0715
 5546TIP3    H116602   2.427   1.707   3.597 -2.7759  0.0695 -1.3816
 5546TIP3    H216603   2.344   1.732   3.721  0.5839 -0.7330  1.1722
 5547TIP3   OH216604   0.909   0.380   5.076 -0.1316  0.0495 -0.5277
 5547TIP3    H116605   0.888   0.419   4.991 -1.6446  0.1910 -0.1311
 5547TIP3    H216606   0.861   0.434   5.139  2.0684  0.8125  0.5958
 5548TIP3   OH216607   3.504   5.609   0.517 -0.5740 -0.2142  0.1532
 5548TIP3    H116608   3.528   5.673   0.450 -0.8986 -0.6921 -0.4260
 5548TIP3    H216609   3.588   5.585   0.556 -0.6489  2.9036  2.6216
 5549TIP3   OH216610   2.052   0.307   2.638  0.0154 -0.0594  0.5820
 5549TIP3    H116611   2.034   0.220   2.602 -0.0283  0.7350 -1.4319
 5549TIP3    H216612   2.103   0.352   2.570 -0.2950  1.6287  1.3999
 5550TIP3   OH216613   3.756   6.198   2.686  0.4049 -0.0814  0.4658
 5550TIP3    H116614   3.670   6.207   2.726  0.4314  0.6465  0.3647
 5550TIP3    H216615   3.818   6.211   2.758  0.4432  0.3948  0.3449
 5551TIP3   OH216616   6.868   5.667   2.106  0.3697  0.4974  0.5352
 5551TIP3    H116617   6.843   5.754   2.075 -0.5412  0.1955  0.4009
 5551TIP3    H216618   6.964   5.672   2.114  0.1891  2.2522  2.7398
 5552TIP3   OH216619   2.770   1.913   3.789  0.7967  0.0675 -0.3017
 5552TIP3    H116620   2.797   1.959   3.709 -1.4095 -1.5646 -2.1455
 5552TIP3    H216621   2.817   1.830   3.786 -0.2577 -0.5475 -0.6888
 5553TIP3   OH216622   0.700   4.029   1.313 -0.3097  0.4550  0.7744
 5553TIP3    H116623   0.754   4.092   1.266  0.0010 -0.8605 -0.6890
 5553TIP3    H216624   0.657   4.081   1.381 -0.6011  2.3924 -0.8023
 5554TIP3   OH216625   7.192   2.787   0.643 -0.0832  0.2158  0.1052
 5554TIP3    H116626   7.201   2.875   0.680  1.7565  0.2012 -0.2153
 5554TIP3    H216627   7.223   2.729   0.711 -0.5696 -0.1464  0.0271
 5555TIP3   OH216628   5.101   2.763   1.996 -0.4207  0.2376  0.2258
 5555TIP3    H116629   5.139   2.781   1.910  0.4847 -0.1049  0.5453
 5555TIP3    H216630   5.006   2.759   1.980 -0.2104 -0.6203 -0.8892
 5556TIP3   OH216631   0.169   6.052   5.422 -0.1511  0.1559 -0.1237
 5556TIP3    H116632   0.074   6.061   5.428 -0.2065  0.8172 -1.4580
 5556TIP3    H216633   0.185   5.958   5.427 -0.8598  0.0516  0.3122
 5557TIP3   OH216634   0.403   5.979   0.348 -0.1651 -0.0231 -0.1117
 5557TIP3    H116635   0.457   6.039   0.297  0.3117 -0.4140 -0.0805
 5557TIP3    H216636   0.324   6.029   0.369 -1.0392 -0.3216 -2.4451
 5558TIP3   OH216637   0.908   1.565   3.049  0.4742  0.0245  0.7827
 5558TIP3    H116638   0.935   1.560   2.958  0.4149  0.5794  0.7259
 5558TIP3    H216639   0.839   1.499   3.058 -0.6813  1.0741 -0.0110
 5559TIP3   OH216640   3.731   5.307   4.658 -0.6905  0.1172  0.0842
 5559TIP3    H116641   3.661   5.373   4.655  0.0967  0.9430 -1.4341
 5559TIP3    H216642   3.802   5.346   4.608  0.3554 -1.2899  0.4247
 5560TIP3   OH216643   5.941   0.590   5.168  0.0836 -0.0394 -0.0788
 5560TIP3    H116644   5.982   0.650   5.105 -0.4806  0.5466  0.1011
 5560TIP3    H216645   5.848   0.608   5.160  0.0963  1.9551  2.7735
 5561TIP3   OH216646   0.936   3.811   1.640 -0.2100 -0.3798  0.4061
 5561TIP3    H116647   0.857   3.760   1.627 -0.4182 -0.1596  0.7916
 5561TIP3    H216648   0.942   3.867   1.562 -0.3394 -0.5214  0.2950
 5562TIP3   OH216649   4.543   4.134   5.294  0.3326  0.0013  0.3078
 5562TIP3    H116650   4.486   4.108   5.366 -0.7278  0.3647 -0.3717
 5562TIP3    H216651   4.488   4.192   5.240  2.0858  2.4427  0.9573
 5563TIP3   OH216652   0.488   4.866   5.332 -0.0750 -0.3536 -0.0478
 5563TIP3    H116653   0.518   4.871   5.242  0.9155  1.0243  0.3235
 5563TIP3    H216654   0.566   4.883   5.385 -0.6368 -1.1080  1.0780
 5564TIP3   OH216655   6.570   1.394   1.908 -0.3992  0.6304 -0.1800
 5564TIP3    H116656   6.526   1.456   1.966 -1.6715 -1.5722  1.3919
 5564TIP3    H216657   6.648   1.367   1.956  1.2279  2.3522 -1.7051
 5565TIP3   OH216658   3.626   0.075   5.424  0.3870 -0.0506 -1.1446
 5565TIP3    H116659   3.686   0.005   5.398 -1.0500 -1.1741 -1.6188
 5565TIP3    H216660   3.539   0.041   5.402 -0.5504  0.9492  0.7348
 5566TIP3   OH216661   7.041   2.964   2.385  0.1186  0.5609  0.2585
 5566TIP3    H116662   7.135   2.947   2.385  0.6218  2.9238  0.7633
 5566TIP3    H216663   7.017   2.970   2.293  0.3490 -0.5145  0.1209
 5567TIP3   OH216664   2.517   1.654   1.461  0.5031  0.3318  0.6374
 5567TIP3    H116665   2.473   1.570   1.470 -1.9317  1.6534  2.2499
 5567TIP3    H216666   2.467   1.701   1.395  0.4363  1.2964  1.3435
 5568TIP3   OH216667   0.598   3.082   2.235 -0.2604  0.0114 -0.2462
 5568TIP3    H116668   0.682   3.110   2.199 -0.8423  0.9074 -0.9721
 5568TIP3    H216669   0.573   3.006   2.183 -0.5178  0.5576 -0.9385
 5569TIP3   OH216670   3.482   5.964   0.173  0.0311 -0.1681  0.1712
 5569TIP3    H116671   3.509   6.042   0.222  1.0357 -0.3416 -0.0997
 5569TIP3    H216672   3.529   5.892   0.215  0.3433 -0.4129 -0.5957
 5570TIP3   OH216673   4.804   3.225   0.588 -0.1650  0.0598  0.4118
 5570TIP3    H116674   4.869   3.160   0.614 -3.0232 -2.2951  2.2295
 5570TIP3    H216675   4.834   3.306   0.628  1.5657 -0.9474  1.2763
 5571TIP3   OH216676   1.628   0.634   3.835  0.7767 -0.2272  0.1505
 5571TIP3    H116677   1.579   0.698   3.887  2.0512  1.0759 -0.1968
 5571TIP3    H216678   1.584   0.550   3.852 -0.4562  0.6040  1.2224
 5572TIP3   OH216679   2.571   6.428   0.872  0.7462 -0.3897 -0.0549
 5572TIP3    H116680   2.537   6.514   0.898  1.6187 -0.1857  0.4603
 5572TIP3    H216681   2.494   6.371   0.869  0.1193  0.4575 -0.6248
 5573TIP3   OH216682   4.958   5.504   0.282  0.5927 -0.4168  0.0137
 5573TIP3    H116683   5.021   5.504   0.354  0.8240 -3.4444 -0.0667
 5573TIP3    H216684   4.902   5.428   0.300 -2.2798  1.3685 -0.6252
 5574TIP3   OH216685   3.702   6.078   5.863 -0.2832  0.5256  0.1130
 5574TIP3    H116686   3.751   6.056   5.784  1.6899  0.0899  1.4075
 5574TIP3    H216687   3.707   6.173   5.869  0.8283  0.4603  0.4562
 5575TIP3   OH216688   1.014   4.402   0.004 -0.5277  0.2640 -0.1653
 5575TIP3    H116689   0.962   4.322  -0.004  0.1676 -0.2878  0.5885
 5575TIP3    H216690   0.951   4.469   0.031 -0.8720 -0.3786  0.6990
 5576TIP3   OH216691   3.072   1.241   4.307  0.3328  0.1147  0.5030
 5576TIP3    H116692   3.106   1.245   4.218  0.0148  1.6317  0.4197
 5576TIP3    H216693   2.977   1.239   4.296  0.2791  0.8085  0.8048
 5577TIP3   OH216694   1.624   1.313   4.180 -0.1065  0.0107  0.6462
 5577TIP3    H116695   1.627   1.320   4.276  1.0524 -2.1033  0.8234
 5577TIP3    H216696   1.696   1.253   4.158 -0.1916  0.6424 -1.5869
 5578TIP3   OH216697   2.206   2.847   5.860  0.2632 -0.1820 -0.4706
 5578TIP3    H116698   2.169   2.759   5.872 -0.7929  0.4373  1.0861
 5578TIP3    H216699   2.129   2.902   5.842  0.5942  0.8495  1.1323
 5579TIP3   OH216700   1.654   0.115   0.093  0.3590  0.0937 -0.1460
 5579TIP3    H116701   1.594   0.058   0.140  1.7528 -0.6514  0.7941
 5579TIP3    H216702   1.671   0.070   0.011  0.0205  0.0632 -0.2002
 5580TIP3   OH216703   2.156   2.545   3.621  0.1357 -0.3661  0.2150
 5580TIP3    H116704   2.235   2.560   3.569  0.9763  1.6937  1.8971
 5580TIP3    H216705   2.085   2.546   3.558  1.3565 -1.5931 -1.2752
 5581TIP3   OH216706   0.256   3.926   4.296  0.1485  0.1361  0.2335
 5581TIP3    H116707   0.271   3.841   4.255  1.0251  0.1696  0.4696
 5581TIP3    H216708   0.205   3.975   4.231 -0.6586 -0.6771  0.2378
 5582TIP3   OH216709   5.675   1.383   0.638 -0.4291 -0.4941 -0.3390
 5582TIP3    H116710   5.670   1.472   0.674  0.3502 -0.8159  0.6146
 5582TIP3    H216711   5.760   1.350   0.667 -1.0025 -1.8144 -0.0804
 5583TIP3   OH216712   1.349   2.159   2.449 -0.1469 -0.2113 -0.1501
 5583TIP3    H116713   1.288   2.175   2.376  0.0631 -1.0406 -0.5183
 5583TIP3    H216714   1.412   2.096   2.414 -0.1238 -0.7285  0.7942
 5584TIP3   OH216715   4.625   5.735   2.449 -0.0026  0.0086 -0.7002
 5584TIP3    H116716   4.533   5.710   2.439  0.1929 -0.4878 -1.3371
 5584TIP3    H216717   4.628   5.828   2.425 -0.2065 -0.1873 -1.5375
 5585TIP3   OH216718   0.904   6.499   5.151 -0.2981  0.3552  0.3426
 5585TIP3    H116719   0.918   6.410   5.185  1.5032  1.0099  1.4618
 5585TIP3    H216720   0.946   6.498   5.065 -0.5217  0.0514  0.2348
 5586TIP3   OH216721   6.279   0.209   0.897  0.1847  0.2693  0.3335
 5586TIP3    H116722   6.300   0.145   0.965 -0.2553  0.8069  0.9874
 5586TIP3    H216723   6.202   0.174   0.853  0.7518 -0.3184 -0.2240
 5587TIP3   OH216724   5.984   3.742   0.677  0.6729 -0.0135 -0.2788
 5587TIP3    H116725   5.931   3.751   0.597 -1.4476  0.3844  1.1051
 5587TIP3    H216726   6.074   3.759   0.648  0.4842 -2.9747 -3.1918
 5588TIP3   OH216727   2.735   4.168   2.947 -0.3455 -0.0224  0.7978
 5588TIP3    H116728   2.645   4.136   2.960 -0.1315 -0.9382  0.1605
 5588TIP3    H216729   2.751   4.155   2.854 -0.3175  2.2296  0.4293
 5589TIP3   OH216730   1.096   0.047   2.503 -0.3076  0.3543 -0.0355
 5589TIP3    H116731   1.000   0.049   2.506 -0.3561 -0.4831 -0.7724
 5589TIP3    H216732   1.118   0.062   2.411  0.2926  0.8563  0.1778
 5590TIP3   OH216733   1.661   5.636   1.484  0.1188 -0.0369 -0.0808
 5590TIP3    H116734   1.591   5.675   1.535 -0.3957 -0.7327 -0.2458
 5590TIP3    H216735   1.666   5.690   1.405 -1.2374 -0.8397 -0.7559
 5591TIP3   OH216736   1.388   2.079   3.744 -0.6071 -1.1383  0.2850
 5591TIP3    H116737   1.311   2.069   3.801  0.1573 -1.2500  1.3381
 5591TIP3    H216738   1.442   2.002   3.762  1.4288  0.5981  2.2854
 5592TIP3   OH216739   1.343   5.071   2.603 -0.1470  0.2880 -0.2714
 5592TIP3    H116740   1.350   4.982   2.639 -2.0837  0.3000  0.2748
 5592TIP3    H216741   1.308   5.059   2.515  1.6955  0.4340 -1.0704
 5593TIP3   OH216742   0.184   3.876   3.364  0.1502 -0.1064  0.4411
 5593TIP3    H116743   0.128   3.808   3.401 -0.4229 -0.2530 -0.6360
 5593TIP3    H216744   0.125   3.949   3.348  0.8882  0.9426  2.2381
 5594TIP3   OH216745   3.791   5.560   0.446  0.3854 -0.6135 -0.6768
 5594TIP3    H116746   3.864   5.498   0.435 -0.7600 -1.9107 -1.1675
 5594TIP3    H216747   3.829   5.631   0.499  2.6624 -0.0949 -2.7893
 5595TIP3   OH216748   6.395   3.782   2.751  0.3277 -0.5412  0.5494
 5595TIP3    H116749   6.394   3.752   2.842  0.5378  0.8102  1.0121
 5595TIP3    H216750   6.439   3.867   2.754 -2.5994  1.1456 -0.2886
 5596TIP3   OH216751   5.000   6.199   4.901  0.3162  0.6065  0.0705
 5596TIP3    H116752   4.995   6.288   4.867 -1.8354  0.3400 -0.4558
 5596TIP3    H216753   4.910   6.179   4.928  1.1806 -0.5834  2.3887
 5597TIP3   OH216754   4.359   5.655   1.021 -0.4784 -0.2172  0.1446
 5597TIP3    H116755   4.398   5.649   0.934 -0.0257  0.0323  0.3254
 5597TIP3    H216756   4.314   5.572   1.033 -0.5877 -0.2288 -0.3500
 5598TIP3   OH216757   5.753   1.255   1.634 -0.5897 -0.4243  0.3614
 5598TIP3    H116758   5.809   1.285   1.705 -0.6225  0.0868  0.1745
 5598TIP3    H216759   5.703   1.333   1.608  1.3718  0.1411 -2.0726
 5599TIP3   OH216760   0.993   3.931   4.436  0.0050 -0.0414  0.1099
 5599TIP3    H116761   0.946   3.986   4.499  0.4192 -0.8716  1.1696
 5599TIP3    H216762   0.926   3.872   4.401 -0.1875  0.3007 -0.1064
 5600TIP3   OH216763   4.115   2.823   5.524 -0.1926 -0.2367 -0.1392
 5600TIP3    H116764   4.161   2.745   5.493 -0.5196  0.1894 -1.7661
 5600TIP3    H216765   4.152   2.895   5.473 -0.9640  0.4695  0.2622
 5601TIP3   OH216766   7.191   2.231   4.989 -0.1197 -0.2502 -0.5717
 5601TIP3    H116767   7.168   2.294   4.921  0.2442 -1.7320 -2.1360
 5601TIP3    H216768   7.230   2.284   5.058  0.1943  1.2290 -1.8254
 5602TIP3   OH216769   0.194   1.604   2.138 -0.6197 -0.8261 -0.2556
 5602TIP3    H116770   0.267   1.583   2.080  0.2398 -0.4762  0.6738
 5602TIP3    H216771   0.131   1.649   2.082  0.0546 -0.7666 -0.9797
 5603TIP3   OH216772   1.920   5.624   0.994  0.4928  0.5643 -0.3983
 5603TIP3    H116773   1.904   5.541   0.950 -0.5595 -0.5211  1.9066
 5603TIP3    H216774   1.833   5.662   1.006  0.4559 -0.2645  2.6606
 5604TIP3   OH216775   0.788   3.456   0.610 -0.2660 -0.7240  0.7241
 5604TIP3    H116776   0.774   3.548   0.588  0.5889 -0.7172  0.1521
 5604TIP3    H216777   0.834   3.458   0.694  1.5564 -0.5179 -0.2123
 5605TIP3   OH216778   6.580   4.774   1.380 -0.0945 -0.2809  0.2921
 5605TIP3    H116779   6.492   4.759   1.345 -0.3194  1.5059 -0.0113
 5605TIP3    H216780   6.635   4.789   1.303 -0.0632  1.1273  0.5684
 5606TIP3   OH216781   6.972   2.059   2.749 -0.2343  0.1602 -0.6874
 5606TIP3    H116782   6.966   2.016   2.664  0.8262  1.4161 -1.4266
 5606TIP3    H216783   7.051   2.112   2.744 -0.9178  1.3612  0.5827
 5607TIP3   OH216784   4.796   0.801   5.720  0.6955  0.1739 -0.2636
 5607TIP3    H116785   4.815   0.722   5.669 -0.3435  0.1979 -0.7174
 5607TIP3    H216786   4.826   0.780   5.808  0.5172 -0.6958 -0.3955
 5608TIP3   OH216787   4.611   6.610   3.877 -0.2190  0.2770  0.2408
 5608TIP3    H116788   4.566   6.682   3.833 -0.3766  0.3729  0.5577
 5608TIP3    H216789   4.670   6.575   3.811  0.0509  0.8656  0.1572
 5609TIP3   OH216790   6.531   0.830   1.389  0.0530 -0.3933 -0.0326
 5609TIP3    H116791   6.445   0.830   1.348  0.2606 -1.1746 -0.4910
 5609TIP3    H216792   6.515   0.862   1.478 -0.8486 -1.2534  0.1395
 5610TIP3   OH216793   0.302   0.286   2.658  0.1443 -0.0472 -0.5707
 5610TIP3    H116794   0.268   0.371   2.685 -0.5628 -0.4014 -0.3333
 5610TIP3    H216795   0.359   0.259   2.731  1.9625  1.0991 -1.5022
 5611TIP3   OH216796   0.629   3.404   5.753  0.2747 -0.1813 -0.0452
 5611TIP3    H116797   0.576   3.328   5.777  1.5195 -0.6492  1.4867
 5611TIP3    H216798   0.718   3.368   5.745  0.8090  1.0263  0.2870
 5612TIP3   OH216799   1.062   3.772   0.589 -0.6038  0.2628 -0.1614
 5612TIP3    H116800   1.003   3.809   0.654  0.1992 -2.7541  2.5800
 5612TIP3    H216801   1.134   3.835   0.583 -0.6141  0.5785  2.1337
 5613TIP3   OH216802   6.003   4.796   1.929  0.3422  1.0710  0.4309
 5613TIP3    H116803   6.045   4.822   1.846  0.7134 -0.2216  0.1882
 5613TIP3    H216804   6.075   4.764   1.983  0.0004  1.2230  0.9769
 5614TIP3   OH216805   3.418   0.108   2.424  0.2842  0.2172  0.3730
 5614TIP3    H116806   3.449   0.028   2.466 -1.3141 -0.2470  0.7629
 5614TIP3    H216807   3.424   0.089   2.330  0.0210 -0.3309  0.4613
 5615TIP3   OH216808   1.563   3.512   5.578  0.2178 -0.3154 -0.0350
 5615TIP3    H116809   1.536   3.529   5.668  1.4805 -0.8361  0.4621
 5615TIP3    H216810   1.586   3.419   5.576  1.2016 -0.0844 -0.6045
 5616TIP3   OH216811   2.458   6.048   5.114 -0.7468 -0.1218  0.0418
 5616TIP3    H116812   2.486   6.129   5.073 -0.5052 -0.7388 -1.0547
 5616TIP3    H216813   2.539   6.004   5.139 -0.7639 -0.9543 -1.2518
 5617TIP3   OH216814   2.906   4.102   3.968 -0.3275 -0.1563 -0.7341
 5617TIP3    H116815   2.837   4.040   3.945 -1.6035  0.2136  1.6895
 5617TIP3    H216816   2.956   4.057   4.037  0.4387  0.4902 -0.8495
 5618TIP3   OH216817   4.292   0.432   5.486 -0.0578 -0.0353 -0.3070
 5618TIP3    H116818   4.309   0.353   5.537  1.6808 -0.2379 -1.1265
 5618TIP3    H216819   4.249   0.401   5.406 -0.3449 -0.0203 -0.1599
 5619TIP3   OH216820   1.979   6.602   4.134 -0.5320 -0.5653 -0.9106
 5619TIP3    H116821   2.043   6.662   4.095  0.0914 -0.5762  0.0460
 5619TIP3    H216822   2.020   6.575   4.217 -0.6103 -2.6390 -1.4926
 5620TIP3   OH216823   5.400   6.815   2.744 -0.3690 -0.8188  0.1571
 5620TIP3    H116824   5.432   6.726   2.757  0.2729 -0.7050 -0.5534
 5620TIP3    H216825   5.311   6.814   2.778 -1.0127 -2.1989 -1.4333
 5621TIP3   OH216826   1.574   3.099   0.302  0.0152 -0.1315 -0.3033
 5621TIP3    H116827   1.616   3.026   0.346  1.7844 -0.4346 -2.3261
 5621TIP3    H216828   1.514   3.058   0.239 -1.3481  0.2562  0.7075
 5622TIP3   OH216829   6.941   2.506   5.576  0.6479  0.2050 -0.1984
 5622TIP3    H116830   6.869   2.447   5.602  0.9208  0.1361  0.4241
 5622TIP3    H216831   6.919   2.532   5.487  0.8135 -1.2962 -0.7069
 5623TIP3   OH216832   2.731   2.009   4.603 -1.0105  0.3691 -0.2504
 5623TIP3    H116833   2.796   2.060   4.554 -1.1921  1.0322  0.1749
 5623TIP3    H216834   2.779   1.933   4.635 -0.0024  1.5818  1.3350
 5624TIP3   OH216835   2.368   6.361   1.184  0.1564  0.2663 -0.5716
 5624TIP3    H116836   2.320   6.286   1.219 -2.4966  1.0974 -2.1193
 5624TIP3    H216837   2.308   6.399   1.120  1.9378  2.9635 -0.7731
 5625TIP3   OH216838   6.788   1.339   2.093  0.0218  0.1715 -0.1334
 5625TIP3    H116839   6.794   1.416   2.150  0.7935 -0.7276  1.0445
 5625TIP3    H216840   6.825   1.268   2.145  0.3777 -0.7727 -1.6153
 5626TIP3   OH216841   7.066   6.573   3.651  1.1802  0.5107 -0.4042
 5626TIP3    H116842   7.029   6.590   3.564  0.0124  2.0314  0.3441
 5626TIP3    H216843   7.122   6.649   3.669  1.6099  0.0900  0.0880
 5627TIP3   OH216844   0.893   4.785   0.612  0.8864 -0.0502 -0.4353
 5627TIP3    H116845   0.907   4.823   0.698  0.0440  0.5493 -0.5542
 5627TIP3    H216846   0.802   4.756   0.613  1.1005 -0.7738 -0.8504
 5628TIP3   OH216847   0.579   0.972   0.500 -0.9220  0.0792 -0.0565
 5628TIP3    H116848   0.644   1.013   0.557  0.3445 -1.3620 -0.3877
 5628TIP3    H216849   0.551   1.042   0.441 -0.1522  0.9042  0.5327
 5629TIP3   OH216850   5.535   3.392   5.891  0.5372  0.1216  0.2702
 5629TIP3    H116851   5.612   3.338   5.872  0.6537 -0.3672  1.9811
 5629TIP3    H216852   5.464   3.349   5.843  1.0312 -0.3182 -0.0845
 5630TIP3   OH216853   0.402   0.566   3.621 -0.2712 -0.4132  0.0927
 5630TIP3    H116854   0.320   0.599   3.584  0.0999 -0.4857 -0.8201
 5630TIP3    H216855   0.431   0.499   3.559 -0.8820 -2.3323  1.7584
 5631TIP3   OH216856   5.235   3.380   1.312 -0.9941  0.2756  0.5239
 5631TIP3    H116857   5.319   3.373   1.356 -0.4047 -0.1129 -0.6303
 5631TIP3    H216858   5.201   3.466   1.338  0.7119  1.3432 -0.6086
 5632TIP3   OH216859   3.764   4.003   0.985 -0.4737 -0.0208 -0.0442
 5632TIP3    H116860   3.718   4.000   0.901 -0.7173  1.1813  0.0247
 5632TIP3    H216861   3.789   4.095   0.996 -0.0261 -0.2453  0.9770
 5633TIP3   OH216862   1.743   6.281   3.799  0.4032 -0.6091  0.1050
 5633TIP3    H116863   1.829   6.323   3.798 -0.2850  0.9740  2.0339
 5633TIP3    H216864   1.695   6.322   3.727  0.5305  0.1382  0.4434
 5634TIP3   OH216865   4.659   1.043   5.677  0.1465 -0.6928 -0.1469
 5634TIP3    H116866   4.716   0.976   5.639 -0.8970 -1.7809  0.1465
 5634TIP3    H216867   4.612   0.997   5.746  1.3894  1.0194  1.9645
 5635TIP3   OH216868   2.320   1.999   4.410 -0.1759  0.0322 -0.3021
 5635TIP3    H116869   2.345   2.068   4.349  0.6331 -0.8933 -1.0591
 5635TIP3    H216870   2.403   1.958   4.435 -0.6873 -1.0800 -0.3728
 5636TIP3   OH216871   2.234   3.011   1.593  0.8168  0.0143  0.1399
 5636TIP3    H116872   2.290   3.071   1.543  2.6405 -1.5800  0.1122
 5636TIP3    H216873   2.161   3.064   1.623  0.8368  1.5460 -2.3156
 5637TIP3   OH216874   3.922   4.312   4.626  0.0835  0.0860  0.4491
 5637TIP3    H116875   3.866   4.272   4.692  0.3321 -1.6882 -0.3486
 5637TIP3    H216876   3.948   4.396   4.664 -1.5314  0.0910  1.6462
 5638TIP3   OH216877   4.657   1.882   4.667 -0.2630 -0.1298  0.0430
 5638TIP3    H116878   4.669   1.888   4.761  1.0547  0.2064 -0.1175
 5638TIP3    H216879   4.594   1.811   4.654 -0.9225  0.2235  1.1875
 5639TIP3   OH216880   1.640   2.385   1.024 -0.3668  0.1537  0.6428
 5639TIP3    H116881   1.631   2.347   1.112 -2.7116 -0.8915  0.0170
 5639TIP3    H216882   1.672   2.474   1.040  1.4345 -0.7133  2.3937
 5640TIP3   OH216883   0.617   3.950   2.934 -0.1792 -0.7514 -0.4958
 5640TIP3    H116884   0.568   4.014   2.882 -0.7755  0.7255  1.7382
 5640TIP3    H216885   0.558   3.927   3.005  1.4453 -0.8008  0.9088
 5641TIP3   OH216886   1.814   5.865   2.496  0.3225  0.1022 -0.9179
 5641TIP3    H116887   1.848   5.955   2.499  2.2288 -0.5996  0.4440
 5641TIP3    H216888   1.887   5.811   2.526 -1.6764 -1.6240  1.1793
 5642TIP3   OH216889   4.643   5.160   1.095  0.8724 -0.2445 -0.2422
 5642TIP3    H116890   4.703   5.130   1.163 -0.2722  2.0946  1.9631
 5642TIP3    H216891   4.557   5.154   1.135 -0.1142 -0.8248 -2.3202
 5643TIP3   OH216892   4.585   2.213   4.356 -0.2975 -0.0654 -0.1244
 5643TIP3    H116893   4.589   2.195   4.450  0.4473  0.7705  0.0225
 5643TIP3    H216894   4.539   2.296   4.349 -0.0277  0.0603 -0.4606
 5644TIP3   OH216895   0.068   0.780   1.544  0.2279 -0.3060  0.1179
 5644TIP3    H116896   0.090   0.687   1.555  3.2805  0.3731  0.4664
 5644TIP3    H216897   0.058   0.813   1.634 -1.8236 -0.4304 -0.0145
 5645TIP3   OH216898   3.978   3.199   4.326 -0.5524  0.3878  0.4748
 5645TIP3    H116899   3.978   3.234   4.415  1.8223  0.7637  0.4040
 5645TIP3    H216900   3.967   3.277   4.271  1.4279  0.6735  0.4052
 5646TIP3   OH216901   6.316   5.006   1.833  0.1730 -0.0764  0.3946
 5646TIP3    H116902   6.330   4.937   1.769  0.8925 -0.0416  0.5001
 5646TIP3    H216903   6.221   5.014   1.841 -0.0658  1.6786 -2.5706
 5647TIP3   OH216904   2.875   6.287   1.329  0.1771  0.1284  0.6380
 5647TIP3    H116905   2.860   6.228   1.256  2.0387 -0.3433  0.5680
 5647TIP3    H216906   2.789   6.320   1.352 -0.4435  0.5137 -1.9491
 5648TIP3   OH216907   4.254   4.788   5.433 -0.3825 -0.3445  0.3056
 5648TIP3    H116908   4.259   4.768   5.527 -0.1126 -0.0080  0.3652
 5648TIP3    H216909   4.207   4.872   5.429 -1.6976 -1.0700  0.0478
 5649TIP3   OH216910   3.282   4.783   4.299 -0.3192  0.4092  0.3620
 5649TIP3    H116911   3.278   4.866   4.252  0.5194  0.3691  0.2060
 5649TIP3    H216912   3.267   4.716   4.232  1.0256  0.3445  0.1005
 5650TIP3   OH216913   4.724   2.197   3.374  0.3209  0.3048 -0.1443
 5650TIP3    H116914   4.642   2.185   3.324  0.3098 -1.6641  0.2922
 5650TIP3    H216915   4.792   2.200   3.307  0.0976 -0.1999 -0.3995
 5651TIP3   OH216916   2.172   6.655   3.524 -0.6668  0.4788  0.0475
 5651TIP3    H116917   2.197   6.664   3.432  1.2101 -0.0223  0.4718
 5651TIP3    H216918   2.086   6.612   3.521  0.7062 -2.4411 -1.4659
 5652TIP3   OH216919   6.656   1.869   5.607  0.1309  0.3910  0.2522
 5652TIP3    H116920   6.674   1.912   5.524  1.7553  2.9705  1.7804
 5652TIP3    H216921   6.567   1.835   5.598 -0.4967  2.3495 -1.8340
 5653TIP3   OH216922   6.964   6.369   3.272 -0.5202  0.1572  0.1151
 5653TIP3    H116923   7.059   6.359   3.260 -0.7169 -1.8540 -0.1806
 5653TIP3    H216924   6.953   6.372   3.367 -0.1958 -0.3808  0.1779
 5654TIP3   OH216925   2.054   3.759   4.685 -0.5233 -0.2476  0.1542
 5654TIP3    H116926   2.055   3.849   4.652  1.1215 -0.3212 -0.0692
 5654TIP3    H216927   2.139   3.747   4.727 -0.2913 -2.0131 -0.7064
 5655TIP3   OH216928   0.455   1.672   4.704 -0.5417  0.1159  0.3131
 5655TIP3    H116929   0.543   1.686   4.670 -0.8810 -0.0393 -0.6823
 5655TIP3    H216930   0.468   1.637   4.792  0.4138 -1.4987 -0.4311
 5656TIP3   OH216931   3.266   2.469   5.207 -0.3894  0.3814  0.0838
 5656TIP3    H116932   3.322   2.392   5.215  2.5848  2.3092 -0.5615
 5656TIP3    H216933   3.237   2.470   5.116 -0.7734 -0.1461  0.1952
 5657TIP3   OH216934   4.518   4.444   1.596 -0.2729  0.0760 -0.2322
 5657TIP3    H116935   4.603   4.420   1.562  0.2218  2.2732 -0.7333
 5657TIP3    H216936   4.455   4.395   1.543  0.6300  0.1581 -1.4144
 5658TIP3   OH216937   1.137   5.782   3.450 -0.3861  0.0502 -0.4920
 5658TIP3    H116938   1.114   5.701   3.496  0.0668 -0.8749 -1.8276
 5658TIP3    H216939   1.210   5.818   3.501 -0.1178 -0.7632 -0.2729
 5659TIP3   OH216940   2.666   2.195   1.566  0.0682  0.0606 -0.5004
 5659TIP3    H116941   2.631   2.184   1.478  3.3221 -0.7371 -1.8660
 5659TIP3    H216942   2.719   2.274   1.561  1.1416 -0.5736  0.4079
 5660TIP3   OH216943   1.453   3.606   1.330 -0.1133  0.1782  0.1751
 5660TIP3    H116944   1.481   3.646   1.248  0.2784  1.4550  0.9030
 5660TIP3    H216945   1.371   3.652   1.352  0.2498  0.4896  0.9299
 5661TIP3   OH216946   3.097   0.805   2.324 -0.6006  0.3640  0.2026
 5661TIP3    H116947   3.154   0.877   2.349  0.4425 -0.4752  0.3368
 5661TIP3    H216948   3.084   0.816   2.230  1.3905 -0.4707 -0.2312
 5662TIP3   OH216949   0.734   1.695   3.751  0.3429 -0.3042 -0.2028
 5662TIP3    H116950   0.665   1.657   3.696  0.9430 -0.8055 -0.6284
 5662TIP3    H216951   0.748   1.631   3.820  0.1631 -0.0528  0.0691
 5663TIP3   OH216952   6.203   6.248   3.300  0.6935 -0.4333 -0.1928
 5663TIP3    H116953   6.182   6.338   3.325  0.4976 -0.5001 -0.1096
 5663TIP3    H216954   6.184   6.245   3.207 -0.2243 -0.6445 -0.0084
 5664TIP3   OH216955   5.775   0.981   3.094  0.5347  0.0107 -0.3073
 5664TIP3    H116956   5.704   0.960   3.035  0.0989 -0.6948  0.4484
 5664TIP3    H216957   5.736   1.037   3.161  0.6919 -0.3137  0.0665
 5665TIP3   OH216958   5.863   4.440   3.957  0.5206  0.6363  0.1231
 5665TIP3    H116959   5.948   4.422   3.916  0.6315  0.8554  0.2538
 5665TIP3    H216960   5.818   4.356   3.957  1.2265  0.2386  1.1835
 5666TIP3   OH216961   5.465   4.741   0.679  0.6680  0.0297 -0.1735
 5666TIP3    H116962   5.544   4.785   0.649  0.6011 -0.1747 -0.6577
 5666TIP3    H216963   5.455   4.666   0.621 -0.0155  0.1938 -0.2825
 5667TIP3   OH216964   2.367   0.292   4.676  0.6374 -0.1140  0.5441
 5667TIP3    H116965   2.385   0.269   4.585  2.1315  0.1119  0.7572
 5667TIP3    H216966   2.415   0.227   4.727  1.2074  0.7797  1.1677
 5668TIP3   OH216967   7.043   0.431   5.763 -0.2279  0.0016 -0.3319
 5668TIP3    H116968   6.962   0.469   5.728 -0.6798 -0.2679  0.3855
 5668TIP3    H216969   7.058   0.480   5.844  0.0468 -0.2927 -0.2071
 5669TIP3   OH216970   5.702   0.294   4.050 -0.6977  0.1866 -0.5205
 5669TIP3    H116971   5.712   0.324   3.960  2.4757 -0.8764 -0.6268
 5669TIP3    H216972   5.772   0.231   4.063 -3.3597 -2.6920  1.5582
 5670TIP3   OH216973   3.025   2.050   3.349 -0.3567  0.3522  0.1417
 5670TIP3    H116974   3.052   1.958   3.353 -1.3471  0.0216 -0.5454
 5670TIP3    H216975   3.021   2.070   3.256 -0.4802  0.9981  0.2773
 5671TIP3   OH216976   3.309   3.935   2.521  0.1789  0.4381 -0.1803
 5671TIP3    H116977   3.398   3.905   2.540 -0.3506 -0.7690  0.5390
 5671TIP3    H216978   3.302   4.020   2.566  0.1141 -0.7132  2.1337
 5672TIP3   OH216979   2.665   5.826   2.301  0.3111  0.1049  0.2939
 5672TIP3    H116980   2.590   5.788   2.347 -0.7812 -1.5051 -2.5207
 5672TIP3    H216981   2.643   5.919   2.293 -0.7254 -0.0857  0.7197
 5673TIP3   OH216982   3.063   5.093   0.945  0.0792 -0.1826 -0.5839
 5673TIP3    H116983   3.048   5.125   1.034 -0.1304  0.5912 -0.8908
 5673TIP3    H216984   2.992   5.030   0.931  0.9807 -1.4538  0.3220
 5674TIP3   OH216985   2.686   4.020   0.834  0.2001  0.0249  1.0330
 5674TIP3    H116986   2.603   4.065   0.821 -0.1820 -0.7616  0.6706
 5674TIP3    H216987   2.681   3.943   0.777  0.6914 -0.6662  1.9033
 5675TIP3   OH216988   1.821   0.588   4.089  0.1536  0.7886 -0.6356
 5675TIP3    H116989   1.726   0.593   4.079 -0.1193  1.0229  1.4603
 5675TIP3    H216990   1.839   0.495   4.102  0.0921  0.8258 -0.2613
 5676TIP3   OH216991   5.321   6.234   2.029  0.0038 -1.0089  0.0430
 5676TIP3    H116992   5.291   6.278   2.109  0.0233 -1.7616  0.4755
 5676TIP3    H216993   5.402   6.191   2.055  1.4213  0.8328 -1.0549
 5677TIP3   OH216994   6.124   0.317   3.870  0.6090 -0.2944 -0.2442
 5677TIP3    H116995   6.210   0.347   3.841  0.2633  0.6020 -0.3553
 5677TIP3    H216996   6.090   0.265   3.797  0.8210 -0.1841 -0.4203
 5678TIP3   OH216997   1.186   0.359   5.035  0.6474 -0.2850  0.2807
 5678TIP3    H116998   1.229   0.395   4.958  0.1698 -1.8315 -0.7576
 5678TIP3    H216999   1.094   0.385   5.025  0.5206 -0.7838  0.1366
 5679TIP3   OH217000   6.390   5.523   1.929 -0.0178  0.2867  0.2462
 5679TIP3    H117001   6.352   5.592   1.875  0.3008  1.2099  1.1561
 5679TIP3    H217002   6.470   5.561   1.964  1.7906 -1.6039 -1.5870
 5680TIP3   OH217003   0.296   4.818   5.030  0.2650 -0.1866 -0.2234
 5680TIP3    H117004   0.319   4.731   4.997 -0.2404  0.1526 -1.5480
 5680TIP3    H217005   0.379   4.858   5.055  0.7509 -0.2804 -1.6188
 5681TIP3   OH217006   3.247   5.692   2.257 -0.4235  0.5440  0.4213
 5681TIP3    H117007   3.163   5.719   2.293 -0.4291 -0.2400  1.0504
 5681TIP3    H217008   3.227   5.659   2.170 -0.9126 -0.3596  0.8523
 5682TIP3   OH217009   4.840   3.746   5.582  0.0495 -0.2692 -0.1679
 5682TIP3    H117010   4.935   3.750   5.579  0.0254  0.7718  0.1604
 5682TIP3    H217011   4.814   3.730   5.491  0.4809  1.1685 -0.5726
 5683TIP3   OH217012   5.250   4.727   3.671 -0.1579 -0.4426 -0.9896
 5683TIP3    H117013   5.273   4.683   3.753 -0.6534  2.3148  0.7394
 5683TIP3    H217014   5.157   4.706   3.659  0.5129 -3.1124 -2.4643
 5684TIP3   OH217015   0.597   5.070   1.058 -0.0626  0.5734  0.4449
 5684TIP3    H117016   0.602   5.135   0.989 -0.3782  0.0879 -0.0412
 5684TIP3    H217017   0.504   5.050   1.066  0.1320 -0.8667 -0.4224
 5685TIP3   OH217018   6.062   6.608   1.123  0.2702 -0.3463 -0.6436
 5685TIP3    H117019   6.134   6.653   1.166  0.0481  0.2696 -0.9040
 5685TIP3    H217020   6.100   6.527   1.088  0.4060 -0.9983  0.9229
 5686TIP3   OH217021   5.307   1.268   5.209  0.2942 -0.0774  0.5749
 5686TIP3    H117022   5.351   1.231   5.133  0.0956  2.5001 -0.9485
 5686TIP3    H217023   5.376   1.312   5.258  0.3533 -1.3869  1.7074
 5687TIP3   OH217024   3.756   0.340   5.852  0.4924  0.0297  0.1858
 5687TIP3    H117025   3.681   0.393   5.825  0.8988  0.8449  0.6120
 5687TIP3    H217026   3.759   0.268   5.789 -1.3529 -0.6909  0.8416
 5688TIP3   OH217027   1.806   4.176   0.048  0.3104  0.0390 -0.1252
 5688TIP3    H117028   1.773   4.111  -0.013  0.5178  0.6848 -0.9419
 5688TIP3    H217029   1.730   4.229   0.070  0.3994  0.3268 -0.4932
 5689TIP3   OH217030   1.939   5.388   0.842 -0.3778 -0.6026 -0.0639
 5689TIP3    H117031   2.034   5.398   0.831 -0.2482 -0.3143  1.1722
 5689TIP3    H217032   1.915   5.319   0.779  0.5078 -0.1340 -0.9527
 5690TIP3   OH217033   4.658   1.544   4.531  0.1911 -0.3170  0.4080
 5690TIP3    H117034   4.692   1.565   4.443 -1.8055 -0.7782 -0.5238
 5690TIP3    H217035   4.580   1.598   4.540 -0.6455 -1.5913  1.1506
 5691TIP3   OH217036   1.275   3.538   2.453 -0.6422  0.0472  0.2551
 5691TIP3    H117037   1.304   3.516   2.364  0.1146 -2.1991  1.0119
 5691TIP3    H217038   1.180   3.544   2.446 -0.6205 -0.4897 -0.6390
 5692TIP3   OH217039   5.618   4.179   5.206  0.2678 -0.0411  0.0324
 5692TIP3    H117040   5.645   4.250   5.149  1.3112 -0.2075  0.2949
 5692TIP3    H217041   5.692   4.167   5.266  0.4819 -1.8947 -0.5427
 5693TIP3   OH217042   5.375   6.185   0.427  0.2699  0.6071  0.1852
 5693TIP3    H117043   5.336   6.107   0.387 -0.5866  0.6580  0.8864
 5693TIP3    H217044   5.463   6.158   0.450  0.3865  0.2174 -0.6622
 5694TIP3   OH217045   0.837   3.897   5.841 -0.0972  0.3115  0.4581
 5694TIP3    H117046   0.790   3.978   5.859 -0.2305  0.0216  1.5186
 5694TIP3    H217047   0.775   3.828   5.864  1.0024 -0.0840  2.5162
 5695TIP3   OH217048   5.142   0.682   1.188 -0.0440 -0.3935 -0.2365
 5695TIP3    H117049   5.085   0.758   1.178 -1.1385 -0.8095  2.1318
 5695TIP3    H217050   5.093   0.623   1.246  1.2040 -2.4725 -1.1860
 5696TIP3   OH217051   5.311   5.643   5.587 -0.0944  0.3067 -0.2339
 5696TIP3    H117052   5.264   5.561   5.605  1.9145 -0.8007  0.3341
 5696TIP3    H217053   5.272   5.707   5.647 -2.8740  0.3024 -1.8760
 5697TIP3   OH217054   5.645   3.131   2.894  0.1177 -0.5531 -0.3973
 5697TIP3    H117055   5.601   3.058   2.938 -0.7210 -0.0828 -0.4353
 5697TIP3    H217056   5.575   3.177   2.847  0.5073  0.6373  0.1287
 5698TIP3   OH217057   6.533   1.924   3.961  0.4970  0.0998 -0.2651
 5698TIP3    H117058   6.567   1.865   3.894 -0.9532  0.0661 -1.0170
 5698TIP3    H217059   6.460   1.969   3.919 -1.9187 -1.5054  1.8378
 5699TIP3   OH217060   7.082   3.476   1.533  0.2495 -0.0071 -0.3570
 5699TIP3    H117061   6.991   3.500   1.547  0.7894  1.2019  1.5804
 5699TIP3    H217062   7.083   3.380   1.534 -0.9195 -0.0233  0.3092
 5700TIP3   OH217063   0.097   2.864   2.388 -0.3842  0.1295  0.3144
 5700TIP3    H117064   0.181   2.896   2.421 -0.0526  2.2715 -2.2224
 5700TIP3    H217065   0.118   2.782   2.344  1.1424  2.0166 -2.8403
 5701TIP3   OH217066   3.451   5.097   5.436  0.3156  0.0347  0.2867
 5701TIP3    H117067   3.415   5.010   5.422  0.3141 -0.1102  1.1157
 5701TIP3    H217068   3.445   5.140   5.351 -0.4109 -0.4997  0.0611
 5702TIP3   OH217069   2.052   2.547   1.802 -0.3756  0.2931  0.0065
 5702TIP3    H117070   1.959   2.539   1.781 -0.4241 -1.7851  0.8128
 5702TIP3    H217071   2.096   2.484   1.744  0.2248 -0.5539  1.3335
 5703TIP3   OH217072   2.346   2.223   5.360  0.5124  0.1699 -0.5597
 5703TIP3    H117073   2.346   2.290   5.428  1.4506 -0.7271  0.3617
 5703TIP3    H217074   2.374   2.270   5.281  0.5433  0.9923 -0.0716
 5704TIP3   OH217075   2.999   1.672   4.563  0.3073  0.0542 -0.4333
 5704TIP3    H117076   3.008   1.750   4.619  0.3942 -0.6006  0.4991
 5704TIP3    H217077   3.064   1.685   4.494  1.6432 -0.0471  0.7615
 5705TIP3   OH217078   1.144   6.572   3.450 -0.4418 -0.9455  0.2576
 5705TIP3    H117079   1.127   6.479   3.462  0.1495 -0.9591  1.0966
 5705TIP3    H217080   1.152   6.607   3.539  0.2509 -0.2706 -0.0544
 5706TIP3   OH217081   6.774   1.074   1.357  0.5960 -0.7926 -0.0410
 5706TIP3    H117082   6.715   1.149   1.356  2.2934  0.6011 -0.6975
 5706TIP3    H217083   6.792   1.059   1.450  1.6381  0.8322  0.0664
 5707TIP3   OH217084   5.618   1.709   1.907  0.7544  0.3173  0.3521
 5707TIP3    H117085   5.706   1.686   1.875 -0.0161 -0.9852 -0.9253
 5707TIP3    H217086   5.591   1.633   1.958 -0.2956 -0.0081 -0.6682
 5708TIP3   OH217087   6.292   2.380   3.144 -0.1380  0.3227  0.0149
 5708TIP3    H117088   6.305   2.428   3.225 -1.2872  0.3328  0.2191
 5708TIP3    H217089   6.197   2.384   3.129 -0.3106 -2.0370  0.1401
 5709TIP3   OH217090   6.731   6.041   1.355 -0.4989  0.7396 -0.0009
 5709TIP3    H117091   6.711   5.974   1.289 -1.6437  2.1381 -1.1425
 5709TIP3    H217092   6.679   6.117   1.328  1.1366  2.2667  0.9492
 5710TIP3   OH217093   3.666   5.543   0.188 -0.4980 -0.6547  0.1011
 5710TIP3    H117094   3.670   5.469   0.127  0.1110  0.5988 -1.4374
 5710TIP3    H217095   3.700   5.508   0.271  0.8960 -1.8032 -0.9164
 5711TIP3   OH217096   4.448   6.243   1.608  0.4929  0.3201  0.6098
 5711TIP3    H117097   4.478   6.320   1.656 -1.0580  0.5916  1.1965
 5711TIP3    H217098   4.524   6.185   1.606  1.4436  1.5128  0.8684
 5712TIP3   OH217099   3.444   2.938   3.357  0.3461  0.4966  0.3435
 5712TIP3    H117100   3.397   2.986   3.425 -0.8110  1.6722 -1.2249
 5712TIP3    H217101   3.475   3.006   3.297  1.6605 -0.4873 -0.1411
 5713TIP3   OH217102   1.820   3.398   5.717  0.0760 -0.3816  0.0502
 5713TIP3    H117103   1.784   3.337   5.653  0.7249 -0.9676  0.2245
 5713TIP3    H217104   1.743   3.433   5.763 -0.3425 -0.5403 -0.5261
 5714TIP3   OH217105   6.083   3.411   3.955 -0.5827 -0.2627 -0.5198
 5714TIP3    H117106   6.093   3.421   4.050  0.8628  0.4545 -0.7130
 5714TIP3    H217107   6.003   3.359   3.944 -0.3853 -0.9674  1.1111
 5715TIP3   OH217108   6.172   4.053   3.205 -0.2809 -0.4655  0.2927
 5715TIP3    H117109   6.165   4.011   3.119 -1.5676 -1.2970  0.7616
 5715TIP3    H217110   6.086   4.093   3.219  0.4745  1.1462  0.4809
 5716TIP3   OH217111   5.799   5.778   1.453  0.6142 -0.1650 -0.1186
 5716TIP3    H117112   5.836   5.742   1.373 -1.7032  0.0651 -1.3685
 5716TIP3    H217113   5.828   5.717   1.522  0.6284 -1.7770 -1.4922
 5717TIP3   OH217114   3.646   4.774   0.652 -0.2549 -0.4079  0.6089
 5717TIP3    H117115   3.622   4.853   0.700  2.1666  0.2111  0.9253
 5717TIP3    H217116   3.741   4.773   0.653 -0.1941 -2.8768 -0.1802
 5718TIP3   OH217117   5.049   5.585   5.095 -0.8427  0.6997 -0.5163
 5718TIP3    H117118   5.012   5.616   5.012 -0.5108 -0.4014 -1.0925
 5718TIP3    H217119   5.112   5.518   5.069 -1.2376 -0.1524  0.6697
 5719TIP3   OH217120   1.805   4.551   5.901 -0.4707  0.4766 -0.0121
 5719TIP3    H117121   1.789   4.573   5.809 -1.2739 -1.1690 -0.2969
 5719TIP3    H217122   1.769   4.463   5.912  0.0852  0.4217  1.7566
 5720TIP3   OH217123   4.543   2.372   4.953 -0.2830 -0.2357  0.1811
 5720TIP3    H117124   4.529   2.459   4.915  0.0240 -1.1111 -2.0651
 5720TIP3    H217125   4.463   2.354   5.003 -1.9055 -0.0707 -2.2089
 5721TIP3   OH217126   0.639   2.553   2.848 -0.1191 -0.6171  0.0036
 5721TIP3    H117127   0.678   2.540   2.934 -1.5738  0.7475  0.9313
 5721TIP3    H217128   0.665   2.476   2.798  0.5498 -1.5740  1.7359
 5722TIP3   OH217129   0.205   6.466   2.419  0.4048  0.0177  0.1193
 5722TIP3    H117130   0.131   6.509   2.462  0.0114 -0.6922  0.1567
 5722TIP3    H217131   0.204   6.500   2.330  1.5404  1.9093  0.7546
 5723TIP3   OH217132   3.352   2.535   5.741  0.3272  0.4627  0.2329
 5723TIP3    H117133   3.381   2.459   5.691 -1.2405  0.0786 -0.1478
 5723TIP3    H217134   3.364   2.510   5.833  0.6651  0.1079  0.0935
 5724TIP3   OH217135   2.097   6.227   4.973  0.2248  0.0507 -0.3831
 5724TIP3    H117136   2.039   6.151   4.974  1.6976 -1.1281  0.4540
 5724TIP3    H217137   2.162   6.206   4.905  1.7109 -0.3613  1.0762
 5725TIP3   OH217138   5.757   6.469   5.029  0.0417 -0.7251  0.7991
 5725TIP3    H117139   5.691   6.402   5.044 -0.2582 -0.8046 -0.7293
 5725TIP3    H217140   5.715   6.531   4.969  0.3185  0.8352  2.1534
 5726TIP3   OH217141   5.156   3.149   4.832  0.2502  0.0839 -0.1243
 5726TIP3    H117142   5.231   3.093   4.853  0.2224  0.4470  0.9644
 5726TIP3    H217143   5.167   3.170   4.739  2.5931  1.7555  0.4495
 5727TIP3   OH217144   3.145   0.576   3.219 -0.5079  0.1997  0.1933
 5727TIP3    H117145   3.170   0.668   3.209  1.9653 -0.0190  3.2414
 5727TIP3    H217146   3.189   0.531   3.147  0.6593  1.0278  0.3709
 5728TIP3   OH217147   6.878   3.912   4.746  0.4004 -0.0097 -0.1847
 5728TIP3    H117148   6.971   3.892   4.749  0.6125  1.0188  0.5494
 5728TIP3    H217149   6.874   4.008   4.745 -0.6608 -0.0332  0.4218
 5729TIP3   OH217150   3.485   4.436   1.438  0.2242 -0.8592  0.1991
 5729TIP3    H117151   3.479   4.468   1.528 -0.4567  1.0952 -0.4960
 5729TIP3    H217152   3.444   4.350   1.441 -0.2196 -0.6324  1.6610
 5730TIP3   OH217153   4.768   4.202   1.964 -0.3826  0.1320 -0.5983
 5730TIP3    H117154   4.842   4.191   1.904 -0.5255 -0.4852 -0.6670
 5730TIP3    H217155   4.785   4.140   2.035  0.4685  1.7676  0.7085
 5731TIP3   OH217156   6.677   1.825   1.140 -0.3779 -0.1824 -0.3319
 5731TIP3    H117157   6.642   1.813   1.051 -1.9182 -0.1183  0.2447
 5731TIP3    H217158   6.647   1.911   1.167 -0.7159 -0.5823  0.6027
 5732TIP3   OH217159   1.579   3.734   0.731  0.0976  0.3488 -0.1391
 5732TIP3    H117160   1.531   3.758   0.651 -0.6883 -0.8883 -0.0559
 5732TIP3    H217161   1.667   3.713   0.700 -0.5920 -1.6112 -0.9570
 5733TIP3   OH217162   3.631   2.642   4.583 -0.0312 -0.2206  0.3819
 5733TIP3    H117163   3.559   2.679   4.633  0.6364 -0.8891  1.9116
 5733TIP3    H217164   3.601   2.643   4.493 -1.8279 -0.2248  0.9479
 5734TIP3   OH217165   1.823   0.076   1.001  0.2108 -0.5482  0.2306
 5734TIP3    H117166   1.752   0.014   0.983  0.0351 -0.2525 -0.1105
 5734TIP3    H217167   1.892   0.051   0.940 -0.6046  0.8215 -1.3194
 5735TIP3   OH217168   1.486   3.927   4.257  0.3523 -0.0493  0.0433
 5735TIP3    H117169   1.481   4.001   4.196 -0.5101  0.3834  0.6188
 5735TIP3    H217170   1.395   3.901   4.272  0.5977 -0.6540  0.5256
 5736TIP3   OH217171   0.794   6.164   2.692  0.3841  0.3456 -0.1500
 5736TIP3    H117172   0.816   6.081   2.734 -0.4763  0.4032  0.4246
 5736TIP3    H217173   0.842   6.230   2.742  1.5858  0.1516 -1.0036
 5737TIP3   OH217174   2.565   6.575   0.167 -0.9130  0.2579 -0.5582
 5737TIP3    H117175   2.651   6.601   0.132 -0.2326  0.1972  0.9858
 5737TIP3    H217176   2.527   6.520   0.098  1.0676 -1.2038 -0.5686
 5738TIP3   OH217177   2.799   3.905   5.626  0.1888 -0.4094  0.1290
 5738TIP3    H117178   2.814   3.817   5.660 -2.2392 -1.4749 -1.2725
 5738TIP3    H217179   2.753   3.950   5.696 -0.2333 -0.8911  0.1673
 5739TIP3   OH217180   6.791   6.236   2.905  0.8458 -0.5048 -0.4557
 5739TIP3    H117181   6.751   6.305   2.959 -0.8376 -2.3600  0.7902
 5739TIP3    H217182   6.885   6.252   2.913  0.5279  1.2134  0.3790
 5740TIP3   OH217183   1.764   4.974   3.186  0.0273  0.2212  0.1320
 5740TIP3    H117184   1.769   4.934   3.272  0.1553 -2.1099 -0.8750
 5740TIP3    H217185   1.853   4.966   3.150 -0.6777 -1.8025 -1.3721
 5741TIP3   OH217186   7.115   2.389   3.834 -0.0504  0.0861  0.7077
 5741TIP3    H117187   7.118   2.371   3.928  0.1943  1.2732  0.9437
 5741TIP3    H217188   7.038   2.341   3.803  1.1230 -2.1299  1.0716
 5742TIP3   OH217189   4.628   1.760   3.637  0.1999 -0.0123  0.6874
 5742TIP3    H117190   4.577   1.833   3.672  1.7824  0.8177  1.3406
 5742TIP3    H217191   4.621   1.769   3.542 -0.8522  0.0790  0.7595
 5743TIP3   OH217192   0.884   0.444   3.623 -0.1586 -0.2894  0.2002
 5743TIP3    H117193   0.850   0.418   3.537  1.5336 -0.3706 -0.4950
 5743TIP3    H217194   0.958   0.384   3.638 -0.8423 -0.7409  2.0602
 5744TIP3   OH217195   0.276   6.020   1.439  0.1811  0.1502  0.1390
 5744TIP3    H117196   0.279   6.113   1.415  0.6099  0.2364  0.5029
 5744TIP3    H217197   0.192   6.010   1.483  0.5120  0.5706  0.8828
 5745TIP3   OH217198   0.541   5.075   1.555 -0.1461 -0.1728 -0.0930
 5745TIP3    H117199   0.471   5.059   1.619  0.9006 -0.0235  1.1260
 5745TIP3    H217200   0.505   5.141   1.495 -0.7617  0.4831  0.9763
 5746TIP3   OH217201   3.358   5.604   0.182 -0.0149  0.7503  0.1127
 5746TIP3    H117202   3.414   5.662   0.234  0.6351  0.9482 -0.7903
 5746TIP3    H217203   3.391   5.612   0.093 -1.5175  0.9062 -0.4629
 5747TIP3   OH217204   3.141   6.003   0.583  0.9161  0.1069  0.2965
 5747TIP3    H117205   3.228   5.983   0.616  0.9921 -0.2687 -0.1176
 5747TIP3    H217206   3.150   6.086   0.538  0.7729  0.7116  1.3558
 5748TIP3   OH217207   2.407   2.599   5.764  0.1642 -0.0147  0.1633
 5748TIP3    H117208   2.493   2.641   5.753  0.3700 -0.6382 -0.6722
 5748TIP3    H217209   2.411   2.560   5.852  0.3175  0.8958  0.5752
 5749TIP3   OH217210   5.847   2.850   0.361  0.6757  0.0469 -0.4956
 5749TIP3    H117211   5.936   2.849   0.326  0.1354 -0.7493 -1.9536
 5749TIP3    H217212   5.806   2.928   0.323  0.7338  0.4285  0.1942
 5750TIP3   OH217213   6.580   4.295   4.136 -0.0828 -0.1879 -0.6575
 5750TIP3    H117214   6.503   4.346   4.108  0.7928  0.9582 -1.0640
 5750TIP3    H217215   6.651   4.329   4.082  1.3838  1.0420  1.9230
 5751TIP3   OH217216   1.734   5.514   2.406  0.1755  0.4329 -0.6882
 5751TIP3    H117217   1.695   5.444   2.459 -0.3547  0.3387 -1.1846
 5751TIP3    H217218   1.671   5.586   2.411  0.7952  0.9451 -0.0504
 5752TIP3   OH217219   1.234   2.427   5.314 -0.2764  0.2434 -0.4978
 5752TIP3    H117220   1.267   2.339   5.294  0.7238 -0.2715  2.8783
 5752TIP3    H217221   1.311   2.484   5.304  0.3373 -0.0792  1.9038
 5753TIP3   OH217222   1.260   2.993   4.880 -0.1886 -0.1602 -0.3822
 5753TIP3    H117223   1.287   2.943   4.804  1.2161  0.5620 -0.3834
 5753TIP3    H217224   1.332   3.054   4.896  0.7135 -1.8960  3.0122
 5754TIP3   OH217225   3.260   0.354   2.425  0.1534  0.3915 -1.1049
 5754TIP3    H117226   3.307   0.272   2.407  0.1934  0.6732 -2.3720
 5754TIP3    H217227   3.270   0.367   2.519  2.3972  0.3027 -1.2784
 5755TIP3   OH217228   1.808   2.045   3.680  0.6037  0.5404  0.7816
 5755TIP3    H117229   1.859   2.125   3.697 -0.8203  1.1350  2.6354
 5755TIP3    H217230   1.744   2.071   3.613  0.4494  0.8265  1.0368
 5756TIP3   OH217231   4.480   5.015   1.445  0.0871  0.0215 -0.0107
 5756TIP3    H117232   4.440   4.960   1.377  1.3118 -1.4040  0.3535
 5756TIP3    H217233   4.559   4.967   1.470  0.7543  1.5617  0.9549
 5757TIP3   OH217234   5.344   5.953   0.296 -0.1593 -0.8088  0.3638
 5757TIP3    H117235   5.288   5.910   0.232  1.6796 -0.4099 -1.6048
 5757TIP3    H217236   5.364   5.885   0.360 -0.6285 -1.7080 -0.4242
 5758TIP3   OH217237   3.299   4.053   2.010  0.3621 -0.4724  0.2857
 5758TIP3    H117238   3.385   4.087   2.034  0.6553 -0.4014 -0.8324
 5758TIP3    H217239   3.288   3.975   2.065 -0.2872  1.3139  2.8448
 5759TIP3   OH217240   4.256   4.654   5.694  0.2248 -0.6613 -0.4528
 5759TIP3    H117241   4.217   4.570   5.670  0.7395 -0.9732 -0.1997
 5759TIP3    H217242   4.300   4.638   5.778  0.6162 -0.2321 -0.5701
 5760TIP3   OH217243   1.204   2.040   4.562 -0.1648  0.0588 -0.4477
 5760TIP3    H117244   1.188   1.975   4.631 -3.9627 -0.6709 -1.7758
 5760TIP3    H217245   1.191   1.992   4.480 -0.9697  1.9902 -1.5207
 5761TIP3   OH217246   5.456   6.323   1.653 -0.1669 -0.2154  0.7055
 5761TIP3    H117247   5.459   6.401   1.708 -1.6098 -0.3470  1.0007
 5761TIP3    H217248   5.368   6.289   1.664  0.4435 -1.9311  0.6259
 5762TIP3   OH217249   3.538   6.142   1.462 -0.0830 -0.5846  0.2054
 5762TIP3    H117250   3.444   6.124   1.456 -0.2009  0.1531 -0.3022
 5762TIP3    H217251   3.563   6.112   1.549 -0.7851 -0.8017  0.3379
 5763TIP3   OH217252   7.159   2.331   5.389 -0.4165 -0.1822  0.3295
 5763TIP3    H117253   7.167   2.308   5.481  0.9655  1.2702  0.6225
 5763TIP3    H217254   7.153   2.247   5.343  0.5404 -0.9836  1.6166
 5764TIP3   OH217255   4.183   6.173   5.112 -0.3673 -0.0628  0.4018
 5764TIP3    H117256   4.268   6.150   5.073 -0.4449 -0.2158  0.3218
 5764TIP3    H217257   4.158   6.095   5.161  0.5002  0.6841  2.1220
 5765TIP3   OH217258   6.796   4.355   0.439  0.0302 -0.1811  0.4667
 5765TIP3    H117259   6.720   4.356   0.382 -0.0799  0.7087  0.6135
 5765TIP3    H217260   6.763   4.382   0.525  0.3107 -0.8787  0.8001
 5766TIP3   OH217261   5.276   3.607   1.078  0.1880 -0.2757  0.0096
 5766TIP3    H117262   5.272   3.675   1.010 -0.6684  0.6096  0.9010
 5766TIP3    H217263   5.276   3.656   1.161 -2.5996 -1.3655  0.7577
 5767TIP3   OH217264   6.908   2.166   5.603  0.6715 -0.6368  0.3047
 5767TIP3    H117265   6.879   2.112   5.530  0.3436 -1.3552  0.9454
 5767TIP3    H217266   6.827   2.203   5.639  0.7963 -0.5921  0.5412
 5768TIP3   OH217267   5.516   1.747   5.278 -0.0425 -0.3322 -0.2747
 5768TIP3    H117268   5.598   1.797   5.276  0.0045 -0.4193 -0.5712
 5768TIP3    H217269   5.545   1.656   5.288  0.0566 -0.7119 -3.2022
 5769TIP3   OH217270   3.921   4.845   0.625  0.4835 -0.4257  0.0768
 5769TIP3    H117271   3.900   4.936   0.607 -0.1725 -0.2318  1.6957
 5769TIP3    H217272   4.016   4.838   0.610  0.4615  0.4075 -0.4609
 5770TIP3   OH217273   5.180   3.099   1.477  0.3706 -0.4857 -0.0580
 5770TIP3    H117274   5.212   3.186   1.454  0.1554 -0.1280  0.9351
 5770TIP3    H217275   5.085   3.107   1.475  0.3490 -0.5365  0.5915
 5771TIP3   OH217276   4.538   5.135   0.835  0.3430  0.1870 -0.1863
 5771TIP3    H117277   4.564   5.131   0.927 -1.8021 -1.5204  0.4352
 5771TIP3    H217278   4.580   5.060   0.795 -0.5648 -0.4271 -0.0238
 5772TIP3   OH217279   4.239   0.733   0.061 -0.3970 -0.3814  0.0411
 5772TIP3    H117280   4.192   0.817   0.069 -2.0640 -1.0932 -1.5525
 5772TIP3    H217281   4.330   0.758   0.042 -0.9859  1.1100 -1.0605
 5773TIP3   OH217282   2.307   0.728   4.894 -0.0592  0.5550 -0.2817
 5773TIP3    H117283   2.393   0.740   4.852  0.7111  0.7825  1.2784
 5773TIP3    H217284   2.313   0.779   4.974 -1.6926  0.5911 -0.1625
 5774TIP3   OH217285   4.982   3.553   1.312 -0.6269 -0.0431  0.0626
 5774TIP3    H117286   4.933   3.477   1.341 -1.0332  0.2160  0.0673
 5774TIP3    H217287   4.918   3.625   1.314 -1.0081 -0.2115 -2.5860
 5775TIP3   OH217288   5.462   0.189   3.890 -0.0525  0.5437 -0.2703
 5775TIP3    H117289   5.485   0.251   3.820  1.0117  1.3920  0.7905
 5775TIP3    H217290   5.501   0.227   3.969 -0.9329 -0.5752  0.7259
 5776TIP3   OH217291   2.514   6.709   0.870  0.3620  0.5059  0.4668
 5776TIP3    H117292   2.509   6.781   0.808  1.1564  0.2263  0.0580
 5776TIP3    H217293   2.423   6.690   0.892  0.1773  2.5046  1.6283
 5777TIP3   OH217294   4.162   4.872   3.552 -0.3682  0.2420  0.3194
 5777TIP3    H117295   4.095   4.810   3.524  0.8246 -1.1538  0.4639
 5777TIP3    H217296   4.237   4.855   3.494  0.1244  1.2709  0.6269
 5778TIP3   OH217297   2.268   2.421   3.836 -0.0414  0.6021  0.0635
 5778TIP3    H117298   2.210   2.485   3.794  1.3995  0.5895 -2.1460
 5778TIP3    H217299   2.318   2.471   3.900  0.7019  1.6373 -1.2766
 5779TIP3   OH217300   3.806   5.711   5.365 -0.2289  0.1638 -0.0008
 5779TIP3    H117301   3.748   5.637   5.349 -0.2001  0.3179 -0.8864
 5779TIP3    H217302   3.889   5.685   5.325 -0.4229  0.9477 -0.9795
 5780TIP3   OH217303   3.481   4.111   4.742 -0.4971 -0.2161  0.1392
 5780TIP3    H117304   3.504   4.068   4.659  1.9805  0.2720  0.4674
 5780TIP3    H217305   3.550   4.176   4.754 -0.2043 -0.9216  3.0595
 5781TIP3   OH217306   5.934   5.171   0.555 -1.0691  0.0290  0.2777
 5781TIP3    H117307   5.965   5.241   0.497  2.4372 -1.6091 -0.0682
 5781TIP3    H217308   5.877   5.118   0.499  1.8215 -1.2330 -1.7075
 5782TIP3   OH217309   4.441   2.934   1.549 -0.4341 -0.5489 -0.1474
 5782TIP3    H117310   4.375   2.886   1.598 -1.1972 -0.1280 -0.7273
 5782TIP3    H217311   4.525   2.908   1.588 -0.9812 -0.5950  1.0362
 5783TIP3   OH217312   1.139   5.979   1.027 -0.3099  0.2603 -0.5810
 5783TIP3    H117313   1.176   6.057   0.987 -0.1631  0.0861 -0.7894
 5783TIP3    H217314   1.090   5.937   0.956  0.8434 -0.6264 -0.8954
 5784TIP3   OH217315   5.455   4.512   4.324  0.5535 -0.3207 -0.1043
 5784TIP3    H117316   5.482   4.449   4.257 -1.3888 -0.6577 -0.6128
 5784TIP3    H217317   5.498   4.594   4.298 -0.3061 -0.4031 -1.8804
 5785TIP3   OH217318   2.933   5.951   4.850 -0.4452  0.6589  0.4946
 5785TIP3    H117319   2.916   5.887   4.781 -3.2628  0.1408  1.5572
 5785TIP3    H217320   3.027   5.969   4.842 -0.2684 -0.8296 -2.1751
 5786TIP3   OH217321   0.907   3.375   3.601  0.2080  0.3233  0.3354
 5786TIP3    H117322   0.947   3.461   3.593  1.3936 -0.2274  0.1854
 5786TIP3    H217323   0.820   3.385   3.562  0.8362  1.1000 -0.9108
 5787TIP3   OH217324   3.533   2.034   5.757  0.3011 -0.1317  0.1776
 5787TIP3    H117325   3.617   2.073   5.779  0.4787 -0.7882  0.6625
 5787TIP3    H217326   3.538   2.019   5.663 -0.0697  1.7236 -0.1784
 5788TIP3   OH217327   6.222   5.318   2.645 -0.1869  0.2214  0.0778
 5788TIP3    H117328   6.255   5.393   2.695  1.5469 -1.0078  0.8516
 5788TIP3    H217329   6.145   5.289   2.694 -0.3733  0.9659  0.2425
 5789TIP3   OH217330   2.503   1.347   3.711  0.4356  0.0548  0.3077
 5789TIP3    H117331   2.460   1.318   3.630 -0.3287 -0.0106  0.7260
 5789TIP3    H217332   2.447   1.313   3.781 -0.3286  2.2198  0.8363
 5790TIP3   OH217333   6.728   2.180   5.204 -0.0766  0.5592  0.9075
 5790TIP3    H117334   6.771   2.261   5.176 -1.1174  1.0871  0.7786
 5790TIP3    H217335   6.688   2.145   5.124  1.2614 -0.6704  0.7420
 5791TIP3   OH217336   5.827   4.531   2.230  0.1691  0.0157 -0.3600
 5791TIP3    H117337   5.851   4.577   2.310 -0.1289  0.7081 -0.6568
 5791TIP3    H217338   5.766   4.590   2.186 -0.6530 -0.9033 -0.4944
 5792TIP3   OH217339   3.820   1.116   2.101 -0.6617  0.3684  0.0194
 5792TIP3    H117340   3.803   1.031   2.141  1.0725 -0.5595 -1.0490
 5792TIP3    H217341   3.748   1.130   2.040 -0.5673 -0.7285 -0.3587
 5793TIP3   OH217342   2.620   0.301   5.410  0.0944  0.0318 -1.0848
 5793TIP3    H117343   2.555   0.302   5.339 -0.3794  2.0581 -0.6872
 5793TIP3    H217344   2.630   0.394   5.434  0.5037 -0.5635  1.2560
 5794TIP3   OH217345   0.280   3.936   1.590 -0.2227 -0.1485  0.0161
 5794TIP3    H117346   0.343   3.963   1.524 -0.2316  0.1769  0.1396
 5794TIP3    H217347   0.284   3.841   1.590  2.8858 -0.1880  2.4902
 5795TIP3   OH217348   4.564   1.690   5.811  0.2252 -0.0151 -0.7143
 5795TIP3    H117349   4.588   1.779   5.837 -0.6153 -0.3478  1.4705
 5795TIP3    H217350   4.641   1.638   5.831 -0.2120 -0.1708  0.7069
 5796TIP3   OH217351   6.358   5.785   1.160  0.4959 -0.1297 -0.5521
 5796TIP3    H117352   6.339   5.731   1.083 -1.3225 -1.7468  0.9655
 5796TIP3    H217353   6.273   5.817   1.189  1.0299 -0.2804  1.2986
 5797TIP3   OH217354   0.025   1.444   3.846 -0.5497 -0.3773  0.2005
 5797TIP3    H117355   0.077   1.499   3.788 -0.6789  0.5960  0.9809
 5797TIP3    H217356  -0.053   1.422   3.796 -1.9968  2.7383  0.8798
 5798TIP3   OH217357   3.747   1.480   3.616  0.3296 -0.5680  0.1948
 5798TIP3    H117358   3.709   1.566   3.632  0.5853 -0.1952 -1.0725
 5798TIP3    H217359   3.829   1.480   3.666 -0.7650 -0.9805  2.0707
 5799TIP3   OH217360   0.303   5.771   2.141 -0.0920  0.1879 -0.6502
 5799TIP3    H117361   0.270   5.682   2.134  1.6821 -0.6887  1.1518
 5799TIP3    H217362   0.374   5.777   2.077  1.1395 -0.3962  0.6289
 5800TIP3   OH217363   7.084   2.112   3.786 -0.3986  0.2973  0.2130
 5800TIP3    H117364   7.157   2.079   3.838 -1.2325  0.4299  1.5128
 5800TIP3    H217365   7.017   2.044   3.792 -0.8001  0.6611 -0.0439
 5801TIP3   OH217366   5.714   6.221   3.106 -0.1072 -0.3561 -0.1182
 5801TIP3    H117367   5.798   6.187   3.075 -0.0013  0.5274 -0.8440
 5801TIP3    H217368   5.649   6.165   3.064  0.0929 -0.3779 -0.4020
 5802TIP3   OH217369   5.210   4.501   0.383 -0.2316 -0.1925 -0.0773
 5802TIP3    H117370   5.174   4.512   0.471 -0.8790  0.1230 -0.3749
 5802TIP3    H217371   5.249   4.586   0.362  0.7070 -0.5355  0.2463
 5803TIP3   OH217372   5.924   2.115   5.054  0.3999 -0.1513  0.6211
 5803TIP3    H117373   5.983   2.089   4.983 -0.0454 -0.6406  0.4169
 5803TIP3    H217374   5.967   2.083   5.133  1.0153  0.6046  0.6011
 5804TIP3   OH217375   6.566   4.866   0.064  0.6686  0.0895 -0.1246
 5804TIP3    H117376   6.562   4.952   0.022  2.7813  0.8808  1.1590
 5804TIP3    H217377   6.496   4.815   0.021 -1.1897  2.6472 -0.3602
 5805TIP3   OH217378   6.844   0.424   1.776  0.0541 -0.6781 -0.2243
 5805TIP3    H117379   6.934   0.407   1.803  0.8925  0.6465 -1.9662
 5805TIP3    H217380   6.847   0.512   1.738 -2.2882 -0.0323  0.9407
 5806TIP3   OH217381   3.174   1.634   3.538  0.0732 -0.3009 -0.2697
 5806TIP3    H117382   3.173   1.648   3.633  3.1288 -0.0872 -0.1703
 5806TIP3    H217383   3.199   1.542   3.527 -1.7102 -0.7518 -0.9282
 5807TIP3   OH217384   3.163   5.273   4.456 -0.7322 -0.6827  0.2024
 5807TIP3    H117385   3.136   5.187   4.488 -0.8837 -0.4543  0.7004
 5807TIP3    H217386   3.254   5.282   4.483 -1.0763 -0.1861  1.2334
 5808TIP3   OH217387   2.075   2.125   2.518  0.7156 -0.0811  0.4345
 5808TIP3    H117388   2.011   2.066   2.478  1.0592 -0.0853 -0.1104
 5808TIP3    H217389   2.109   2.177   2.445  0.5317  0.6928  0.8820
 5809TIP3   OH217390   2.650   4.721   0.168  0.5563 -0.0888  0.6520
 5809TIP3    H117391   2.630   4.631   0.144  0.8401  0.2330 -0.9743
 5809TIP3    H217392   2.665   4.765   0.084  2.1816  1.0537  1.4774
 5810TIP3   OH217393   4.952   0.611   1.605 -0.3076  0.6946  0.0555
 5810TIP3    H117394   4.944   0.704   1.625 -0.5166  0.3548  1.6833
 5810TIP3    H217395   4.963   0.569   1.690 -1.0575 -0.8608 -0.5776
 5811TIP3   OH217396   1.842   5.859   0.565  0.0972  0.4846  0.2830
 5811TIP3    H117397   1.749   5.844   0.585  0.6824 -1.7850  1.7150
 5811TIP3    H217398   1.880   5.771   0.561  2.2823  1.3673  0.1332
 5812TIP3   OH217399   1.197   3.868   4.272 -0.6494  0.7379  0.4269
 5812TIP3    H117400   1.141   3.853   4.196  0.6486  0.2465 -0.4718
 5812TIP3    H217401   1.146   3.925   4.329 -3.1157 -1.7304  0.8781
 5813TIP3   OH217402   3.008   2.157   1.870 -0.4741 -0.2430  0.0734
 5813TIP3    H117403   2.979   2.154   1.779  0.8057  2.0563 -0.4919
 5813TIP3    H217404   2.964   2.083   1.912  0.4422 -2.6288 -2.8247
 5814TIP3   OH217405   0.613   3.391   3.670 -0.1233 -0.1907  0.4962
 5814TIP3    H117406   0.590   3.442   3.747 -0.9639 -0.8596  0.7052
 5814TIP3    H217407   0.620   3.456   3.600  0.3838  0.3898  1.0710
 5815TIP3   OH217408   3.438   0.011   1.789 -0.0135  0.1184 -0.8012
 5815TIP3    H117409   3.360  -0.009   1.841  0.4168 -0.9699 -0.5483
 5815TIP3    H217410   3.407   0.074   1.723 -0.9070  0.3451 -0.1892
 5816TIP3   OH217411   5.841   3.852   1.565  0.1831 -0.4408  0.1068
 5816TIP3    H117412   5.844   3.759   1.541 -2.9806 -1.0158  1.4306
 5816TIP3    H217413   5.848   3.899   1.481  1.9935 -1.7959 -0.5674
 5817TIP3   OH217414   5.653   6.766   2.085  0.0297 -0.5536  0.0825
 5817TIP3    H117415   5.662   6.842   2.027 -0.8866  0.0425  0.6981
 5817TIP3    H217416   5.733   6.716   2.071  0.9499  0.8428  0.1065
 5818TIP3   OH217417   6.362   0.642   0.834  0.1558  0.2036  0.2976
 5818TIP3    H117418   6.396   0.724   0.868  0.3189 -0.0135  0.6688
 5818TIP3    H217419   6.440   0.590   0.813  0.0569  0.0681  0.2616
 5819TIP3   OH217420   6.535   5.263   4.661  0.0310  0.4130 -0.1028
 5819TIP3    H117421   6.470   5.243   4.595  0.8239  0.5445 -0.9498
 5819TIP3    H217422   6.582   5.339   4.627  0.4102  0.5271  0.6381
 5820TIP3   OH217423   4.653   5.832   3.205  0.0902 -0.1048 -0.3480
 5820TIP3    H117424   4.701   5.756   3.173 -0.4006  0.3489 -2.2712
 5820TIP3    H217425   4.713   5.906   3.193  0.0865  0.0065  0.2813
 5821TIP3   OH217426   1.068   3.167   1.845  0.1862  0.3868  0.0742
 5821TIP3    H117427   1.131   3.226   1.886 -1.3769  3.1453 -1.2565
 5821TIP3    H217428   0.986   3.183   1.892 -0.2855 -0.7617 -0.3180
 5822TIP3   OH217429   5.201   1.302   4.345  0.0493  0.1052  0.1180
 5822TIP3    H117430   5.114   1.286   4.381  0.0073 -1.3859 -0.5802
 5822TIP3    H217431   5.196   1.272   4.254  1.2669  0.0886  0.0349
 5823TIP3   OH217432   0.695   0.178   1.166 -0.3846 -0.2533 -0.2316
 5823TIP3    H117433   0.641   0.099   1.172 -0.2883 -0.2987  0.0275
 5823TIP3    H217434   0.700   0.196   1.072  0.0524 -0.8695 -0.3346
 5824TIP3   OH217435   4.708   3.150   4.890 -0.5782 -0.2552 -0.1101
 5824TIP3    H117436   4.758   3.105   4.823  1.3647  0.0208  1.0875
 5824TIP3    H217437   4.687   3.236   4.852  0.6966 -0.0177 -0.2984
 5825TIP3   OH217438   2.678   4.663   2.188  0.3374  0.9045 -0.5033
 5825TIP3    H117439   2.769   4.682   2.166  1.0141 -0.9049  0.5383
 5825TIP3    H217440   2.672   4.568   2.185 -2.2806  1.0271 -3.3165
 5826TIP3   OH217441   2.007   5.373   5.060  0.3047  0.3493 -0.2727
 5826TIP3    H117442   2.073   5.310   5.085 -1.0183 -1.1804 -0.4685
 5826TIP3    H217443   2.023   5.388   4.966  1.1288  0.9474 -0.0408
 5827TIP3   OH217444   4.231   3.534   2.641 -0.0734 -0.2326 -0.4520
 5827TIP3    H117445   4.243   3.538   2.547 -0.5032  0.9320 -0.4750
 5827TIP3    H217446   4.319   3.532   2.677  0.0956  0.1117 -0.8501
 5828TIP3   OH217447   5.408   4.657   1.758  0.2049 -0.6515 -0.5064
 5828TIP3    H117448   5.351   4.636   1.685 -0.1160 -2.6439  0.2322
 5828TIP3    H217449   5.352   4.701   1.821 -0.1528 -1.1662 -0.4532
 5829TIP3   OH217450   3.385   6.218   1.905  0.1177  0.0266 -0.5845
 5829TIP3    H117451   3.334   6.248   1.980  1.2097 -0.6243  0.4379
 5829TIP3    H217452   3.462   6.275   1.903  1.3359 -1.5168  0.3218
 5830TIP3   OH217453   3.875   0.211   0.976  0.3673 -0.5754 -0.5319
 5830TIP3    H117454   3.795   0.211   0.924  0.0470 -1.1372 -0.0490
 5830TIP3    H217455   3.885   0.121   1.007  0.4314 -0.2207  0.5452
 5831TIP3   OH217456   5.661   6.601   0.239 -0.3934  0.1121 -0.3607
 5831TIP3    H117457   5.582   6.650   0.264  0.1185  0.6026  0.3397
 5831TIP3    H217458   5.636   6.509   0.251 -1.0965  0.2284 -0.8793
 5832TIP3   OH217459   1.848   4.652   2.953 -0.6718 -0.3576  0.4349
 5832TIP3    H117460   1.899   4.572   2.963 -0.7896 -0.3474  1.2537
 5832TIP3    H217461   1.758   4.626   2.974 -0.7885 -0.1166  0.2331
 5833TIP3   OH217462   2.878   2.231   5.525  0.3623 -0.5583 -0.0427
 5833TIP3    H117463   2.952   2.288   5.511  1.2752 -1.8320 -0.6058
 5833TIP3    H217464   2.871   2.179   5.445  1.1576 -2.9389  1.2943
 5834TIP3   OH217465   1.007   2.261   5.788  0.5188  0.7625  0.4221
 5834TIP3    H117466   0.993   2.236   5.697  0.6461 -0.5957  0.7625
 5834TIP3    H217467   1.018   2.356   5.784 -0.8366  0.9190 -0.8049
 5835TIP3   OH217468   0.426   5.468   5.307  0.2903 -0.3800 -0.5215
 5835TIP3    H117469   0.463   5.550   5.272 -2.1860  1.3021  0.5057
 5835TIP3    H217470   0.456   5.465   5.397 -0.1739 -0.2031 -0.3556
 5836TIP3   OH217471   3.415   1.968   0.943 -0.4164  0.1915 -0.3408
 5836TIP3    H117472   3.400   2.028   1.016 -0.1688  0.2055 -0.3035
 5836TIP3    H217473   3.451   2.024   0.874 -3.0094  0.7308 -1.3962
 5837TIP3   OH217474   5.829   0.620   3.877  0.7338  0.0982 -0.2940
 5837TIP3    H117475   5.907   0.667   3.907  1.0030 -1.6336  2.0061
 5837TIP3    H217476   5.756   0.664   3.920  0.9931 -1.4743  1.9332
 5838TIP3   OH217477   3.934   0.762   4.394 -0.0079 -0.0803 -0.6426
 5838TIP3    H117478   4.026   0.785   4.382 -0.7783  2.5738 -2.3043
 5838TIP3    H217479   3.930   0.668   4.377  2.6760 -0.7358  1.6979
 5839TIP3   OH217480   2.329   4.019   4.892 -0.0611 -0.2080  0.2310
 5839TIP3    H117481   2.374   4.102   4.875 -1.1989  0.3665 -0.0116
 5839TIP3    H217482   2.259   4.041   4.952 -0.0209 -1.1111  0.6305
 5840TIP3   OH217483   6.976   5.268   0.856 -0.0252 -0.2075 -0.1631
 5840TIP3    H117484   7.060   5.311   0.870 -0.4932  0.7864 -0.2993
 5840TIP3    H217485   6.988   5.216   0.776  0.6016 -0.4681  0.0971
 5841TIP3   OH217486   2.016   5.736   3.458  0.0354  0.2662  0.3916
 5841TIP3    H117487   1.991   5.726   3.366  1.2488  0.2842  0.0422
 5841TIP3    H217488   2.102   5.695   3.463 -0.4529 -0.6284  1.7492
 5842TIP3   OH217489   3.496   1.556   4.083 -0.3101  0.4881  0.5370
 5842TIP3    H117490   3.528   1.535   4.171  0.3036  1.3616  0.5377
 5842TIP3    H217491   3.563   1.521   4.024 -0.1202  0.9512  0.4729
 5843TIP3   OH217492   0.950   5.538   3.281 -0.4007 -0.1760 -0.0575
 5843TIP3    H117493   0.954   5.450   3.244 -0.3556 -0.2933  0.2204
 5843TIP3    H217494   0.996   5.531   3.365 -1.0455 -0.0687  0.3136
 5844TIP3   OH217495   0.048   3.595   4.509  0.5221  0.0198  0.2753
 5844TIP3    H117496   0.004   3.678   4.527  1.5835  0.5962  0.2846
 5844TIP3    H217497  -0.008   3.529   4.550 -0.0581  0.7769  0.7299
 5845TIP3   OH217498   3.393   1.517   0.488 -0.2713 -0.3437  0.5316
 5845TIP3    H117499   3.321   1.455   0.480 -0.2518 -0.4593  1.2041
 5845TIP3    H217500   3.364   1.593   0.437  0.1264 -1.2457 -1.1236
 5846TIP3   OH217501   2.288   0.668   1.044 -0.2801  0.0785 -0.4217
 5846TIP3    H117502   2.370   0.645   1.087 -0.7995  0.7231  0.9521
 5846TIP3    H217503   2.221   0.621   1.094 -0.7670 -0.4027 -1.4971
 5847TIP3   OH217504   7.103   0.217   0.132  0.2739  0.3333  0.3144
 5847TIP3    H117505   7.136   0.307   0.129 -1.7553  1.1668  1.3148
 5847TIP3    H217506   7.137   0.177   0.052 -0.2219  2.5118 -1.0944
 5848TIP3   OH217507   4.480   1.209   4.773  0.1984 -0.3767  0.3635
 5848TIP3    H117508   4.432   1.153   4.711  0.4900  0.4784 -0.6689
 5848TIP3    H217509   4.436   1.196   4.856 -1.5256 -0.0121 -0.4443
 5849TIP3   OH217510   0.532   4.624   3.576 -0.3691  0.5879 -0.4108
 5849TIP3    H117511   0.476   4.685   3.528  0.2378 -0.4564 -2.6096
 5849TIP3    H217512   0.621   4.651   3.553 -0.0036  0.8695  1.2591
 5850TIP3   OH217513   3.856   6.162   4.601 -0.4243 -0.5954  0.2752
 5850TIP3    H117514   3.850   6.201   4.513 -0.9257  0.8109  0.9045
 5850TIP3    H217515   3.774   6.114   4.612 -1.3887  1.0748  0.7847
 5851TIP3   OH217516   4.535   5.942   1.398  0.1999 -0.4567  0.5011
 5851TIP3    H117517   4.453   5.904   1.365  0.0900 -2.3840  2.7092
 5851TIP3    H217518   4.575   5.983   1.322 -1.8728 -1.1738 -1.0743
 5852TIP3   OH217519   4.234   5.495   4.364 -0.5964  0.1975  0.0461
 5852TIP3    H117520   4.211   5.446   4.285  1.0199  1.9837 -1.6701
 5852TIP3    H217521   4.151   5.532   4.395 -1.4082 -1.3590 -0.1940
 5853TIP3   OH217522   3.100   6.609   4.748 -0.5337  0.1922  0.0192
 5853TIP3    H117523   3.015   6.566   4.753  0.2170 -1.8236 -2.3869
 5853TIP3    H217524   3.147   6.577   4.825 -1.3346 -0.1643  0.3731
 5854TIP3   OH217525   2.356   6.044   0.189 -0.1182  0.3708  0.3506
 5854TIP3    H117526   2.429   6.021   0.248 -0.6570  0.4474  1.0652
 5854TIP3    H217527   2.326   6.130   0.220  0.1536  0.8203 -0.6053
 5855TIP3   OH217528   2.240   4.676   0.179 -0.1010 -0.1482  0.0351
 5855TIP3    H117529   2.195   4.683   0.264  0.6365  0.2370  0.4005
 5855TIP3    H217530   2.309   4.611   0.193 -0.6289 -0.8590 -0.5739
 5856TIP3   OH217531   3.660   6.357   2.190 -0.0383  0.2848  0.1107
 5856TIP3    H117532   3.574   6.389   2.218  0.5074  2.0077 -0.0409
 5856TIP3    H217533   3.714   6.361   2.269 -0.1926 -1.2685  0.3237
 5857TIP3   OH217534   3.779   2.294   0.654  0.2050  0.0449 -0.1262
 5857TIP3    H117535   3.800   2.387   0.663  1.8274 -0.2812 -0.2119
 5857TIP3    H217536   3.854   2.249   0.693  0.4929 -1.2456 -2.0167
 5858TIP3   OH217537   0.151   6.277   4.182  0.1639 -0.6861 -0.3397
 5858TIP3    H117538   0.083   6.216   4.213  1.1246 -1.2535  0.7053
 5858TIP3    H217539   0.102   6.354   4.154 -0.8516 -0.5283  1.6982
 5859TIP3   OH217540   4.062   0.114   4.411  0.3747  0.8049 -0.6696
 5859TIP3    H117541   4.021   0.170   4.476  0.5683  0.7774 -0.5247
 5859TIP3    H217542   4.054   0.025   4.447  2.4741  0.9869  0.4008
 5860TIP3   OH217543   4.067   0.964   4.081  0.1733 -0.1583  0.3540
 5860TIP3    H117544   4.140   0.962   4.019 -0.8645 -0.3338 -0.8993
 5860TIP3    H217545   4.013   0.889   4.058 -0.0807 -0.4245  1.6994
 5861TIP3   OH217546   1.316   4.326   0.912  0.4307 -0.6464  0.2994
 5861TIP3    H117547   1.386   4.290   0.966  0.8555  0.6361  0.6425
 5861TIP3    H217548   1.237   4.318   0.966  0.1429 -2.6693 -0.3288
 5862TIP3   OH217549   1.456   0.789   0.079  0.3270  0.5476  0.1238
 5862TIP3    H117550   1.454   0.860   0.143  1.6228  0.2841  0.4909
 5862TIP3    H217551   1.531   0.810   0.023  1.1812 -0.8867  0.6876
 5863TIP3   OH217552   2.554   1.885   2.307  0.2329  0.4509  1.1625
 5863TIP3    H117553   2.605   1.805   2.320  0.0632  0.3454  1.1850
 5863TIP3    H217554   2.510   1.899   2.391 -0.4850  0.0377  0.8632
 5864TIP3   OH217555   5.097   2.393   1.325 -0.3807 -0.0589  0.3669
 5864TIP3    H117556   5.090   2.422   1.234  2.1431  0.0807  0.1493
 5864TIP3    H217557   5.141   2.465   1.370 -1.5876 -0.1341  1.7125
 5865TIP3   OH217558   2.661   2.732   5.672 -0.1258 -0.7535  0.2303
 5865TIP3    H117559   2.719   2.708   5.744  1.2413 -2.2430 -1.2798
 5865TIP3    H217560   2.697   2.814   5.637 -1.5850  0.7284  1.9866
 5866TIP3   OH217561   0.490   6.031   3.828  0.1863 -0.1421  0.3012
 5866TIP3    H117562   0.452   5.967   3.769  0.4410  0.2969 -0.3543
 5866TIP3    H217563   0.429   6.035   3.902  0.1122 -1.0414  0.2962
 5867TIP3   OH217564   5.063   4.414   3.957  0.0010 -0.2564 -0.1548
 5867TIP3    H117565   5.025   4.488   4.003 -1.2225 -0.9716  0.0193
 5867TIP3    H217566   5.074   4.346   4.024  0.0211 -0.6344 -0.5320
 5868TIP3   OH217567   0.903   6.728   4.086 -0.5614  0.0135 -0.0582
 5868TIP3    H117568   0.938   6.815   4.073  1.8270 -0.7223  0.9048
 5868TIP3    H217569   0.810   6.735   4.063 -0.1324  2.4378 -1.2968
 5869TIP3   OH217570   6.202   1.099   0.851  0.0811  0.4310  0.1486
 5869TIP3    H117571   6.188   1.158   0.925 -1.4556  0.4913 -0.1658
 5869TIP3    H217572   6.115   1.079   0.819  0.6777 -0.3860 -1.0446
 5870TIP3   OH217573   3.997   1.440   4.573 -0.6092 -0.5844  0.0175
 5870TIP3    H117574   3.943   1.421   4.497 -1.3172 -0.5579  0.5098
 5870TIP3    H217575   3.940   1.423   4.648 -0.9226  2.2772  0.5214
 5871TIP3   OH217576   3.587   0.505   1.366 -0.1317  0.5773  0.0746
 5871TIP3    H117577   3.582   0.410   1.351 -1.1480  0.7961 -1.2024
 5871TIP3    H217578   3.674   0.529   1.333 -0.4032  0.2742 -0.9159
 5872TIP3   OH217579   6.669   3.677   1.071 -0.6123  0.0793 -0.0285
 5872TIP3    H117580   6.593   3.721   1.033 -1.3614 -1.1716 -0.0486
 5872TIP3    H217581   6.691   3.729   1.148 -0.5914  1.2645 -0.8268
 5873TIP3   OH217582   4.244   3.283   2.070  0.5733  0.0849  0.1102
 5873TIP3    H117583   4.220   3.357   2.125 -0.3199  0.9697 -1.3819
 5873TIP3    H217584   4.291   3.322   1.996  2.4790 -1.1508  0.6011
 5874TIP3   OH217585   6.655   1.293   3.229 -0.0110 -0.4696 -0.4046
 5874TIP3    H117586   6.643   1.291   3.324 -0.6794 -1.6583 -0.4998
 5874TIP3    H217587   6.668   1.201   3.204  1.2233 -0.0665 -1.3422
 5875TIP3   OH217588   5.144   6.434   1.663 -0.3543 -0.2579  0.2997
 5875TIP3    H117589   5.079   6.437   1.593  1.3299 -2.6722 -1.5191
 5875TIP3    H217590   5.175   6.525   1.671 -0.4641  0.0654 -2.2474
 5876TIP3   OH217591   6.992   1.145   4.509  0.0293 -0.2123  0.5955
 5876TIP3    H117592   6.955   1.232   4.524  1.0653  0.4768 -0.6244
 5876TIP3    H217593   7.075   1.146   4.556  0.3088 -0.3159  0.1144
 5877TIP3   OH217594   0.399   0.508   3.893  0.4024  0.1426 -0.0162
 5877TIP3    H117595   0.303   0.501   3.898  0.4456 -0.3423  0.1587
 5877TIP3    H217596   0.416   0.526   3.800  0.2701 -2.0376 -0.5027
 5878TIP3   OH217597   5.475   0.446   3.688 -0.4790 -0.5696 -0.4061
 5878TIP3    H117598   5.484   0.533   3.651 -0.1325 -0.1614  0.5899
 5878TIP3    H217599   5.385   0.420   3.668 -0.9114  0.4412  0.1581
 5879TIP3   OH217600   4.037   3.138   3.716 -0.7193 -0.4454 -0.1135
 5879TIP3    H117601   4.009   3.091   3.795 -0.5680 -0.9191 -0.3353
 5879TIP3    H217602   4.132   3.121   3.711 -0.7354 -0.4500 -0.4171
 5880TIP3   OH217603   1.924   1.758   3.335 -0.0976 -0.2918 -0.0153
 5880TIP3    H117604   2.002   1.768   3.281  0.1012  0.4566  0.3940
 5880TIP3    H217605   1.953   1.709   3.412 -0.5404 -2.0034 -0.8982
 5881TIP3   OH217606   1.870   3.886   3.172  0.1967 -0.5049  0.4526
 5881TIP3    H117607   1.945   3.923   3.220 -1.7999 -0.2791  3.7000
 5881TIP3    H217608   1.872   3.793   3.194 -0.0074 -0.6530 -0.1455
 5882TIP3   OH217609   6.551   5.040   3.185 -0.5402 -0.4421  0.3721
 5882TIP3    H117610   6.558   5.040   3.089 -1.3300 -0.7977  0.3046
 5882TIP3    H217611   6.583   4.954   3.211  0.2999 -0.1045  0.4906
 5883TIP3   OH217612   3.986   0.793   0.303 -0.1021  0.1909 -0.3129
 5883TIP3    H117613   3.958   0.716   0.254  0.2749 -0.5420  0.5889
 5883TIP3    H217614   3.904   0.836   0.329 -0.3624 -0.7663  0.4952
 5884TIP3   OH217615   5.807   1.097   3.921  0.4361 -0.0832  0.5011
 5884TIP3    H117616   5.801   1.017   3.973  2.3019 -1.2885 -1.0066
 5884TIP3    H217617   5.726   1.097   3.869  0.5097 -1.1578  0.3482
 5885TIP3   OH217618   2.591   2.598   3.740 -0.2237  0.0716 -0.3580
 5885TIP3    H117619   2.551   2.548   3.669  0.1113  0.4397 -0.8159
 5885TIP3    H217620   2.681   2.612   3.710 -0.1011  0.2897  0.1116
 5886TIP3   OH217621   5.720   0.637   1.282  0.9223 -1.1168 -0.4081
 5886TIP3    H117622   5.673   0.556   1.298  0.2879 -1.0384 -1.7417
 5886TIP3    H217623   5.662   0.706   1.315  0.4782 -1.0830 -1.2214
 5887TIP3   OH217624   1.440   4.878   4.672  0.4892  0.1018 -0.1346
 5887TIP3    H117625   1.469   4.792   4.640  0.3153 -0.3536  0.9090
 5887TIP3    H217626   1.344   4.872   4.673  0.2618  1.4046 -3.0227
 5888TIP3   OH217627   5.419   0.074   1.303 -0.3089  0.3071 -0.0036
 5888TIP3    H117628   5.335   0.029   1.296 -0.4969  0.7855 -1.1825
 5888TIP3    H217629   5.484   0.007   1.280 -0.6803  0.8905 -3.2320
 5889TIP3   OH217630   0.889   4.322   4.041 -0.8382 -0.5952 -0.2877
 5889TIP3    H117631   0.899   4.258   3.971  1.4084 -0.1563 -0.4469
 5889TIP3    H217632   0.828   4.387   4.006 -1.0752 -1.2616 -1.1440
 5890TIP3   OH217633   2.569   0.506   4.702  0.1359  0.1750 -0.1791
 5890TIP3    H117634   2.632   0.450   4.655  0.3133  0.4199 -0.2334
 5890TIP3    H217635   2.484   0.477   4.670  0.0239 -2.0303  1.8815
 5891TIP3   OH217636   0.465   0.971   5.179  0.3492  0.6683  0.4106
 5891TIP3    H117637   0.549   0.950   5.139 -0.8545 -1.1642 -1.3435
 5891TIP3    H217638   0.447   0.897   5.236 -0.2658  0.8308  0.4339
 5892TIP3   OH217639   0.854   1.259   5.124 -0.1898 -0.1737 -0.5258
 5892TIP3    H117640   0.912   1.232   5.195  0.6123  0.2334 -1.0096
 5892TIP3    H217641   0.803   1.331   5.160  0.3947  0.2006 -0.4333
 5893TIP3   OH217642   5.705   4.447   3.086 -0.2257 -0.5168 -0.2004
 5893TIP3    H117643   5.786   4.467   3.132 -1.1422 -1.0522  1.7660
 5893TIP3    H217644   5.666   4.533   3.068 -0.8814 -0.2549  2.0791
 5894TIP3   OH217645   1.417   0.262   3.106 -0.6990  0.0335  0.1204
 5894TIP3    H117646   1.458   0.297   3.027 -1.2219  1.0560  0.2834
 5894TIP3    H217647   1.331   0.230   3.077 -0.5427 -0.4060  0.1230
 5895TIP3   OH217648   5.836   6.245   1.252  0.4848  0.3590  0.0265
 5895TIP3    H117649   5.927   6.230   1.228  0.5108 -1.9621  1.3590
 5895TIP3    H217650   5.839   6.289   1.336  0.3994 -0.6091  0.5474
 5896TIP3   OH217651   2.197   0.157   3.507  0.1675  0.5176 -0.2662
 5896TIP3    H117652   2.250   0.115   3.575 -0.5666  0.1392  0.0886
 5896TIP3    H217653   2.198   0.250   3.530 -0.2466  0.3675  0.3888
 5897TIP3   OH217654   3.554   1.301   3.527 -0.5531 -0.4156 -0.1160
 5897TIP3    H117655   3.587   1.257   3.449 -0.7037  1.2564 -1.1671
 5897TIP3    H217656   3.629   1.348   3.563 -1.2438  1.8118 -1.4081
 5898TIP3   OH217657   3.352   1.888   2.675 -0.0941 -0.0789  0.1838
 5898TIP3    H117658   3.301   1.968   2.665 -0.4312 -0.2301  0.6903
 5898TIP3    H217659   3.320   1.830   2.605  1.5683  0.9401 -1.5149
 5899TIP3   OH217660   3.243   3.089   0.996  0.2276 -0.7557  0.1895
 5899TIP3    H117661   3.268   3.003   1.030 -1.2896 -0.2301  2.9118
 5899TIP3    H217662   3.187   3.069   0.920  0.6322 -2.1387  0.2218
 5900TIP3   OH217663   4.102   0.701   2.974 -0.1837  0.0612  0.2897
 5900TIP3    H117664   4.091   0.611   2.944 -2.6629  0.4989 -0.4052
 5900TIP3    H217665   4.080   0.754   2.898  2.2933  1.3270  0.3654
 5901TIP3   OH217666   6.724   0.116   2.607  0.2964  0.3607 -0.2184
 5901TIP3    H117667   6.756   0.159   2.687  0.7309 -1.1618  0.4564
 5901TIP3    H217668   6.635   0.151   2.595 -0.9279 -1.4827  2.5894
 5902TIP3   OH217669   5.791   5.775   1.802 -0.2370  0.2066 -0.0797
 5902TIP3    H117670   5.797   5.681   1.822 -0.1964 -0.2338 -1.9292
 5902TIP3    H217671   5.869   5.813   1.841 -0.0044 -0.6133  0.2869
 5903TIP3   OH217672   3.581   4.214   0.660 -0.0581 -0.0394 -0.6903
 5903TIP3    H117673   3.641   4.285   0.641  0.1038  0.5035  1.5855
 5903TIP3    H217674   3.636   4.143   0.693 -0.5013 -0.1098 -0.0765
 5904TIP3   OH217675   3.339   0.384   5.468 -0.8988 -0.1449  0.5163
 5904TIP3    H117676   3.303   0.389   5.379  0.3546 -1.0790 -0.0667
 5904TIP3    H217677   3.280   0.325   5.515 -1.9373  0.8536  0.5140
 5905TIP3   OH217678   6.600   4.489   3.873  0.1023 -0.0239  0.3470
 5905TIP3    H117679   6.517   4.535   3.863  1.3155  2.3380  0.3474
 5905TIP3    H217680   6.593   4.414   3.815 -2.1367 -0.1076  0.6213
 5906TIP3   OH217681   6.721   1.405   5.151  0.2783  0.0624  0.3757
 5906TIP3    H117682   6.723   1.482   5.208 -0.5470  0.3258  0.0599
 5906TIP3    H217683   6.742   1.332   5.209 -0.3803  0.3458  0.9903
 5907TIP3   OH217684   6.625   0.838   1.924  0.0636 -0.1494  0.1634
 5907TIP3    H117685   6.587   0.784   1.993 -0.1327 -0.5710 -0.2755
 5907TIP3    H217686   6.682   0.900   1.971 -0.0657 -0.4347  0.7016
 5908TIP3   OH217687   1.090   3.828   3.581 -0.0245 -0.1763 -0.3385
 5908TIP3    H117688   1.112   3.812   3.489  0.2532  1.2328 -0.5461
 5908TIP3    H217689   1.085   3.741   3.620  0.0746 -0.7918 -1.6353
 5909TIP3   OH217690   5.508   5.494   4.866 -0.1245  0.0832  0.3266
 5909TIP3    H117691   5.580   5.443   4.828  0.8885  1.5552  0.2128
 5909TIP3    H217692   5.496   5.567   4.806 -1.2689  0.2289  0.7144
 5910TIP3   OH217693   1.386   1.377   2.386 -0.2378 -0.4947  0.5631
 5910TIP3    H117694   1.331   1.304   2.357  0.8906 -1.6858  1.3329
 5910TIP3    H217695   1.474   1.355   2.356  0.1879  0.3631  1.1353
 5911TIP3   OH217696   1.930   3.196   0.421 -0.3405  0.1525  0.0887
 5911TIP3    H117697   1.870   3.228   0.488 -1.0964  0.2764 -0.6345
 5911TIP3    H217698   2.016   3.229   0.448 -0.5583 -0.1875  1.2316
 5912TIP3   OH217699   6.429   2.884   3.459  0.2506  0.5387 -0.8878
 5912TIP3    H117700   6.482   2.897   3.537  0.5530 -0.2095 -0.9628
 5912TIP3    H217701   6.462   2.950   3.397 -0.1269  1.2662 -0.3282
 5913TIP3   OH217702   5.255   4.303   3.785 -0.2240 -0.2613 -0.2123
 5913TIP3    H117703   5.191   4.353   3.834 -0.0671 -0.2024 -0.0663
 5913TIP3    H217704   5.254   4.341   3.697 -1.9862 -1.6690 -0.8653
 5914TIP3   OH217705   2.174   1.722   5.036 -0.5689 -0.1697 -0.9001
 5914TIP3    H117706   2.211   1.644   5.078 -0.1066  0.0002 -0.9852
 5914TIP3    H217707   2.249   1.780   5.024 -1.2955  1.4599  1.6778
 5915TIP3   OH217708   3.870   0.782   0.850  0.0370  0.5984 -0.3370
 5915TIP3    H117709   3.906   0.742   0.929 -0.1860  0.5334 -0.2655
 5915TIP3    H217710   3.924   0.748   0.779 -1.3370 -1.4013 -0.5117
 5916TIP3   OH217711   4.082   0.541   5.587 -0.0232  0.0903  0.2468
 5916TIP3    H117712   4.011   0.485   5.555 -1.6799  1.8442  0.6943
 5916TIP3    H217713   4.162   0.500   5.553 -1.3554 -0.8126 -2.0244
 5917TIP3   OH217714   0.230   4.695   5.327 -0.1270 -0.2053  0.0107
 5917TIP3    H117715   0.182   4.677   5.246 -0.5720  1.9477 -0.2638
 5917TIP3    H217716   0.190   4.638   5.392 -2.1688  0.5449 -0.5275
 5918TIP3   OH217717   0.658   4.043   4.471 -0.1070  0.1936  0.3317
 5918TIP3    H117718   0.676   3.964   4.420  0.9263  0.6712 -0.0745
 5918TIP3    H217719   0.564   4.059   4.458  0.2389  0.6528 -1.9566
 5919TIP3   OH217720   3.716   4.079   3.831  0.2907  0.3055  0.2279
 5919TIP3    H117721   3.720   4.108   3.740  0.4395 -2.5589 -0.8090
 5919TIP3    H217722   3.624   4.089   3.856  0.2337  1.0191 -0.2489
 5920TIP3   OH217723   3.091   1.720   3.811 -0.0563  0.0370 -0.2636
 5920TIP3    H117724   3.151   1.652   3.841 -0.0839 -0.0597 -0.4290
 5920TIP3    H217725   3.026   1.674   3.759 -0.4232  0.1065  0.1286
 5921TIP3   OH217726   2.493   5.159   2.770 -0.7688 -0.2769  0.5154
 5921TIP3    H117727   2.501   5.188   2.861  0.1901 -0.2465  0.4293
 5921TIP3    H217728   2.529   5.071   2.769  1.5054  0.5757 -0.2608
 5922TIP3   OH217729   1.188   5.073   0.569 -0.1094 -0.2345 -0.0938
 5922TIP3    H117730   1.234   5.153   0.544  0.2979 -0.4229  0.0397
 5922TIP3    H217731   1.247   5.030   0.630  0.0138 -1.0121 -0.7478
 5923TIP3   OH217732   2.439   0.200   1.661  0.1706  0.4904  0.0962
 5923TIP3    H117733   2.439   0.158   1.747  0.5914  0.9466  0.3276
 5923TIP3    H217734   2.386   0.279   1.674 -1.1781 -0.2825 -0.5026
 5924TIP3   OH217735   4.542   5.365   5.247  0.1250 -0.0614 -0.0616
 5924TIP3    H117736   4.571   5.304   5.179  0.0552 -0.3979  0.2052
 5924TIP3    H217737   4.601   5.349   5.321  0.5739  0.7110 -0.2403
 5925TIP3   OH217738   2.830   6.624   1.557  0.3234 -0.0830  0.2062
 5925TIP3    H117739   2.845   6.620   1.463 -3.5777  0.0833 -0.6156
 5925TIP3    H217740   2.774   6.701   1.570 -0.9204 -1.2198  2.2877
 5926TIP3   OH217741   6.415   4.224   3.203  0.0453 -0.5290 -0.1245
 5926TIP3    H117742   6.336   4.175   3.225 -0.0675  0.0079  0.7149
 5926TIP3    H217743   6.382   4.307   3.167  0.2034  0.1207  1.1875
 5927TIP3   OH217744   2.676   1.623   2.317  0.3939  1.2131 -0.0225
 5927TIP3    H117745   2.736   1.563   2.361 -0.2683 -0.4140 -1.2248
 5927TIP3    H217746   2.708   1.627   2.227 -0.0873  1.9866 -0.1672
 5928TIP3   OH217747   0.408   2.464   1.165  0.0247 -0.0347 -0.3270
 5928TIP3    H117748   0.420   2.422   1.080 -1.2356 -0.5883 -0.2532
 5928TIP3    H217749   0.371   2.550   1.144  1.3230  0.5267 -0.4066
 5929TIP3   OH217750   4.110   3.012   0.438  0.3229 -0.1168  0.8066
 5929TIP3    H117751   4.045   3.020   0.369  0.3139 -0.4098  0.7786
 5929TIP3    H217752   4.068   2.960   0.505  1.2994 -2.3820 -0.2168
 5930TIP3   OH217753   3.298   2.667   1.974 -0.9272  0.1976  0.0859
 5930TIP3    H117754   3.389   2.637   1.966 -0.3873  1.8788 -0.3070
 5930TIP3    H217755   3.270   2.634   2.060 -0.5812 -1.8868 -0.5340
 5931TIP3   OH217756   5.850   6.639   0.054  0.8043  0.4553  0.3281
 5931TIP3    H117757   5.759   6.646   0.081  0.3729  1.6666 -1.2930
 5931TIP3    H217758   5.869   6.545   0.053 -0.7336  0.1361 -0.3230
 5932TIP3   OH217759   0.169   4.217   2.173 -0.2095  0.2043  0.1057
 5932TIP3    H117760   0.255   4.245   2.207 -0.7226  0.1946  1.4790
 5932TIP3    H217761   0.179   4.123   2.157  0.1448  0.2746 -0.1082
 5933TIP3   OH217762   2.114   6.766   5.596 -0.1489  0.1849  0.4524
 5933TIP3    H117763   2.109   6.686   5.649 -0.9705  0.0870  0.2348
 5933TIP3    H217764   2.049   6.753   5.527 -0.1385  0.9563  0.2951
 5934TIP3   OH217765   4.823   5.152   1.323 -0.1772 -0.4744  0.2224
 5934TIP3    H117766   4.901   5.097   1.316  0.1781 -0.0146  0.5069
 5934TIP3    H217767   4.792   5.140   1.413 -0.0401 -0.1362  0.3168
 5935TIP3   OH217768   4.741   1.444   3.439 -0.0699  0.1678 -0.9229
 5935TIP3    H117769   4.710   1.482   3.357 -2.7686 -1.1097 -0.6250
 5935TIP3    H217770   4.663   1.405   3.478  1.5320 -1.1137  1.2465
 5936TIP3   OH217771   6.827   6.750   3.795  0.1573  0.0215  0.0776
 5936TIP3    H117772   6.819   6.666   3.750 -1.2977  0.8149 -1.2403
 5936TIP3    H217773   6.916   6.749   3.831  0.7995 -1.3777 -1.3940
 5937TIP3   OH217774   6.072   0.734   3.911 -0.4689  0.0877 -0.1500
 5937TIP3    H117775   6.067   0.791   3.988  0.5802 -0.8191  0.6102
 5937TIP3    H217776   6.164   0.710   3.904 -0.9375 -1.8952 -0.1487
 5938TIP3   OH217777   1.967   2.677   0.044  0.0625  0.3504 -0.0321
 5938TIP3    H117778   1.933   2.623  -0.028  1.7568  2.3404 -2.4985
 5938TIP3    H217779   1.889   2.716   0.083 -1.0324 -2.0821  0.4122
 5939TIP3   OH217780   2.889   6.093   1.615 -0.1864  0.6389  0.5491
 5939TIP3    H117781   2.983   6.077   1.612 -0.2742  0.2516 -1.4810
 5939TIP3    H217782   2.850   6.005   1.611 -0.6464  0.8304  0.7108
 5940TIP3   OH217783   4.613   3.565   1.537 -0.4411 -0.0248  0.0301
 5940TIP3    H117784   4.687   3.575   1.596  0.2985  1.3917 -1.0987
 5940TIP3    H217785   4.633   3.485   1.487 -0.5040 -0.5686  0.8523
 5941TIP3   OH217786   2.194   5.190   5.086 -0.4549 -0.0790  0.5460
 5941TIP3    H117787   2.164   5.159   5.000  0.9017 -3.7498  1.2462
 5941TIP3    H217788   2.275   5.238   5.066 -0.8692  0.3070 -0.2986
 5942TIP3   OH217789   6.529   5.312   2.877 -0.0185  0.4022 -0.7176
 5942TIP3    H117790   6.588   5.326   2.951 -0.8396  0.3989 -0.0442
 5942TIP3    H217791   6.452   5.365   2.898 -0.4036  0.1275 -1.4045
 5943TIP3   OH217792   5.683   1.720   0.462  0.0490 -0.0278 -0.0106
 5943TIP3    H117793   5.658   1.793   0.405 -0.1293  0.2881  0.4682
 5943TIP3    H217794   5.778   1.726   0.467  0.1274 -0.4708 -0.8202
 5944TIP3   OH217795   7.000   4.772   3.353 -0.1077 -0.4016  0.0179
 5944TIP3    H117796   6.973   4.691   3.397  0.7931 -0.4410  0.5258
 5944TIP3    H217797   7.034   4.827   3.423 -1.7283  0.8852 -0.1545
 5945TIP3   OH217798   1.677   5.786   2.768  0.3185  0.1163 -0.6977
 5945TIP3    H117799   1.752   5.767   2.823 -0.8029  0.2454  0.9676
 5945TIP3    H217800   1.667   5.709   2.712  1.7149  0.1423 -1.0074
 5946TIP3   OH217801   2.858   4.924   0.889 -0.4448  0.0177 -0.0775
 5946TIP3    H117802   2.782   4.978   0.913 -0.6386  0.0593 -0.7561
 5946TIP3    H217803   2.848   4.844   0.941 -1.0265 -0.0334 -0.2541
 5947TIP3   OH217804   1.714   0.042   5.180 -0.2321  0.5555  0.2520
 5947TIP3    H117805   1.779   0.089   5.232  1.1817 -0.6319 -0.3516
 5947TIP3    H217806   1.765   0.004   5.108 -1.5485 -0.6780 -0.0629
 5948TIP3   OH217807   6.229   1.608   2.703  0.4143 -0.2748 -0.2751
 5948TIP3    H117808   6.231   1.589   2.610  0.3931 -0.1607 -0.2985
 5948TIP3    H217809   6.261   1.698   2.711  0.2726 -0.2317 -0.1862
 5949TIP3   OH217810   3.209   3.847   4.584  0.1359  0.2485 -0.1341
 5949TIP3    H117811   3.231   3.858   4.492 -1.0721 -1.9960 -0.7583
 5949TIP3    H217812   3.179   3.757   4.591  0.9513  0.0957  2.6337
 5950TIP3   OH217813   3.982   3.906   0.399  0.7977  0.0552 -0.6745
 5950TIP3    H117814   3.930   3.841   0.350  0.4065  0.3947 -0.7179
 5950TIP3    H217815   4.011   3.968   0.332  0.3732  0.4477 -0.4947
 5951TIP3   OH217816   3.409   1.846   4.050 -0.7537  0.2719 -0.3941
 5951TIP3    H117817   3.479   1.893   4.006 -0.2495 -0.5742 -0.5196
 5951TIP3    H217818   3.443   1.758   4.063 -1.7046 -0.0939 -0.2427
 5952TIP3   OH217819   2.355   1.084   1.533  0.1804 -0.1662  0.3060
 5952TIP3    H117820   2.409   1.161   1.553 -1.4765  1.5305 -1.3479
 5952TIP3    H217821   2.279   1.092   1.591 -0.3024 -0.1851 -0.3129
 5953TIP3   OH217822   4.207   4.580   1.926 -0.3553 -0.0904 -0.7680
 5953TIP3    H117823   4.147   4.546   1.993 -0.1082  1.0102  0.0336
 5953TIP3    H217824   4.151   4.630   1.867 -0.3447  0.2540 -0.4863
 5954TIP3   OH217825   2.336   5.141   1.385 -0.1607 -0.2444  0.2192
 5954TIP3    H117826   2.341   5.205   1.456  2.1467 -0.7411  0.6092
 5954TIP3    H217827   2.371   5.060   1.423 -0.0057 -0.8537 -1.1467
 5955TIP3   OH217828   2.375   5.651   0.602  0.6048  0.5207 -0.5344
 5955TIP3    H117829   2.327   5.570   0.584 -1.7263  1.4902  0.8351
 5955TIP3    H217830   2.445   5.625   0.661  1.0785 -0.7767 -1.6267
 5956TIP3   OH217831   3.442   6.099   5.805  0.4616 -0.6528 -0.2467
 5956TIP3    H117832   3.391   6.034   5.853 -0.4923 -0.3200 -0.7777
 5956TIP3    H217833   3.531   6.064   5.804  0.3238 -1.1059  0.9647
 5957TIP3   OH217834   5.512   0.911   2.069  0.0062  0.4781 -0.0422
 5957TIP3    H117835   5.551   0.903   2.156  1.4191 -0.8033 -0.7592
 5957TIP3    H217836   5.509   0.821   2.036 -2.4936  0.6532 -0.5147
 5958TIP3   OH217837   4.243   2.666   4.892 -0.2781  0.8359 -0.0973
 5958TIP3    H117838   4.321   2.720   4.879  0.6329 -0.5619 -0.7935
 5958TIP3    H217839   4.183   2.693   4.822 -0.9705  2.7627  1.1604
 5959TIP3   OH217840   0.455   5.624   3.749 -0.0737 -0.0799  0.0981
 5959TIP3    H117841   0.499   5.598   3.668 -0.7930  0.7205 -0.5733
 5959TIP3    H217842   0.365   5.593   3.739 -0.2874  0.4309  0.3871
 5960TIP3   OH217843   4.472   4.084   4.819 -0.2974  0.2011 -0.1900
 5960TIP3    H117844   4.478   4.120   4.730 -1.5060 -1.4035 -0.9663
 5960TIP3    H217845   4.379   4.070   4.833 -0.1333  0.5082  1.4040
 5961TIP3   OH217846   6.068   2.856   0.600  0.1871  0.2025  0.0560
 5961TIP3    H117847   6.116   2.782   0.635 -0.0804  0.1328  0.2777
 5961TIP3    H217848   6.068   2.843   0.505  1.6242  0.8223 -0.0457
 5962TIP3   OH217849   1.277   6.611   3.216 -0.3578  0.1567  0.2667
 5962TIP3    H117850   1.217   6.596   3.289 -0.0677  0.2427  0.5264
 5962TIP3    H217851   1.301   6.523   3.186 -1.9754  0.0989 -0.9888
 5963TIP3   OH217852   0.997   5.610   2.119  0.3311  0.3190  0.3769
 5963TIP3    H117853   1.030   5.598   2.030 -0.8564 -0.1017 -0.0224
 5963TIP3    H217854   1.038   5.540   2.170  1.2165  0.7219  0.2271
 5964TIP3   OH217855   3.159   6.624   5.866  0.2056  0.5922 -0.5442
 5964TIP3    H117856   3.080   6.630   5.920 -0.2668  0.0456 -1.1575
 5964TIP3    H217857   3.190   6.714   5.859 -0.1336  0.7612  0.0376
 5965TIP3   OH217858   3.637   1.731   3.646 -0.1315  0.2216  0.7525
 5965TIP3    H117859   3.604   1.760   3.561  0.3816 -1.1628  0.0343
 5965TIP3    H217860   3.577   1.770   3.710  0.1651  2.2621 -0.1397
 5966TIP3   OH217861   0.960   1.622   1.193  0.1560  0.3806 -0.5861
 5966TIP3    H117862   0.895   1.666   1.139 -2.2692 -0.4169  1.4487
 5966TIP3    H217863   0.974   1.538   1.150  0.1040  0.7040 -1.2409
 5967TIP3   OH217864   4.980   2.928   2.469  0.1362 -0.1230  1.1354
 5967TIP3    H117865   4.944   2.891   2.388 -0.0306  0.0823  1.1146
 5967TIP3    H217866   4.905   2.932   2.528  0.2468 -0.2231  1.2840
 5968TIP3   OH217867   5.425   1.703   1.475  0.6575  0.0513  0.0789
 5968TIP3    H117868   5.470   1.784   1.499 -2.1449  2.1611 -1.1686
 5968TIP3    H217869   5.386   1.722   1.389 -1.3489 -2.0954  0.4096
 5969TIP3   OH217870   1.657   6.333   4.451  0.1121 -0.2512 -0.1819
 5969TIP3    H117871   1.700   6.250   4.430  0.1889 -0.9342  2.3230
 5969TIP3    H217872   1.725   6.386   4.493 -0.2730  0.5794 -0.5792
 5970TIP3   OH217873   0.768   3.718   5.467  0.4524  0.4440 -0.3022
 5970TIP3    H117874   0.753   3.643   5.410  1.6890  0.7155 -1.0311
 5970TIP3    H217875   0.814   3.682   5.543  1.7637  0.5385 -1.0128
 5971TIP3   OH217876   0.713   1.787   3.039 -0.0562 -0.0537 -0.0618
 5971TIP3    H117877   0.631   1.833   3.026  0.4105  0.0783 -3.3127
 5971TIP3    H217878   0.700   1.701   2.998  1.0076 -0.5376  0.5580
 5972TIP3   OH217879   1.824   5.560   4.310 -0.3037 -0.4542  0.1172
 5972TIP3    H117880   1.729   5.565   4.318 -0.6004 -2.6025 -1.2016
 5972TIP3    H217881   1.839   5.529   4.221  1.6509 -0.0553  0.2617
 5973TIP3   OH217882   1.039   2.447   2.443  0.3028 -0.3444  0.2038
 5973TIP3    H117883   1.073   2.415   2.359 -1.6955 -1.6267 -0.1909
 5973TIP3    H217884   0.949   2.417   2.445 -0.3213  1.4261  1.9398
 5974TIP3   OH217885   1.644   4.612   3.151  0.0507 -0.2093 -0.4703
 5974TIP3    H117886   1.717   4.634   3.209  0.2640 -0.6779 -0.5552
 5974TIP3    H217887   1.567   4.649   3.194  0.5772  2.2031 -1.4365
 5975TIP3   OH217888   0.114   1.547   5.873  0.1574 -0.4124  0.1108
 5975TIP3    H117889   0.050   1.504   5.930  0.6760  0.8911  1.7540
 5975TIP3    H217890   0.144   1.477   5.814 -1.0484 -1.6032  0.8505
 5976TIP3   OH217891   5.182   5.623   4.586  0.4163  0.2289  0.4523
 5976TIP3    H117892   5.266   5.641   4.627  0.4151 -0.6015  0.8497
 5976TIP3    H217893   5.200   5.553   4.523 -0.2656 -1.1941  1.7700
 5977TIP3   OH217894   6.810   5.879   4.483 -0.4627  0.2042  0.0994
 5977TIP3    H117895   6.808   5.968   4.446  1.8951  0.1347 -0.3662
 5977TIP3    H217896   6.753   5.828   4.425  0.0607  0.9274 -1.0965
 5978TIP3   OH217897   0.230   0.501   5.410  0.5209  0.1720 -0.2377
 5978TIP3    H117898   0.168   0.432   5.390 -0.7181  0.8290  1.1354
 5978TIP3    H217899   0.176   0.577   5.432  1.7340  0.4398  2.1561
 5979TIP3   OH217900   1.945   2.283   5.561 -0.4542 -0.3101 -0.3512
 5979TIP3    H117901   1.993   2.204   5.537 -0.0691  0.6836 -3.1750
 5979TIP3    H217902   1.864   2.278   5.510 -0.9012  0.6456  0.2319
 5980TIP3   OH217903   6.331   3.736   4.957 -0.5862  0.0182 -0.4614
 5980TIP3    H117904   6.256   3.694   4.999 -0.9790  0.8696 -0.2815
 5980TIP3    H217905   6.393   3.665   4.941 -0.3956 -0.3361  1.6135
 5981TIP3   OH217906   2.389   3.044   5.588  0.4006  0.2878  0.3855
 5981TIP3    H117907   2.395   3.015   5.497  1.0856 -0.6438  0.7148
 5981TIP3    H217908   2.296   3.051   5.606  0.2413 -0.6177 -0.0531
 5982TIP3   OH217909   0.971   1.675   2.176  0.0303  0.0468  0.6504
 5982TIP3    H117910   0.936   1.591   2.206  1.4155  0.0966  2.5429
 5982TIP3    H217911   1.028   1.704   2.247  2.2293  0.9684 -1.3650
 5983TIP3   OH217912   4.443   5.982   2.974  0.4134 -0.2161  0.3356
 5983TIP3    H117913   4.477   6.066   3.004 -0.4330 -0.8717  3.6373
 5983TIP3    H217914   4.519   5.924   2.972  1.0000  0.5402 -1.9672
 5984TIP3   OH217915   0.562   0.539   0.442 -0.3320 -0.1187 -0.5129
 5984TIP3    H117916   0.545   0.617   0.493 -1.1913 -0.7649  0.2191
 5984TIP3    H217917   0.501   0.474   0.476  2.0125 -1.8785  0.6344
 5985TIP3   OH217918   4.995   4.293   4.928 -0.3132 -0.0255  0.4799
 5985TIP3    H117919   5.047   4.218   4.955 -1.9393 -1.7894 -0.9194
 5985TIP3    H217920   5.053   4.344   4.871  0.2001 -1.4438 -0.3161
 5986TIP3   OH217921   6.942   2.990   3.317 -0.3271 -0.2166  0.8130
 5986TIP3    H117922   7.015   2.967   3.375 -0.1944  1.0343  1.1700
 5986TIP3    H217923   6.968   2.955   3.231  0.3059 -0.4991  1.1079
 5987TIP3   OH217924   3.765   0.685   5.287 -0.3630  0.0071  0.8310
 5987TIP3    H117925   3.785   0.752   5.352 -0.3037  0.6277  0.1791
 5987TIP3    H217926   3.686   0.643   5.319  0.3550 -0.5403  1.9570
 5988TIP3   OH217927   3.028   2.639   3.827 -0.1547 -0.1589 -0.2394
 5988TIP3    H117928   3.079   2.711   3.864 -2.4687  2.0862 -1.1120
 5988TIP3    H217929   3.094   2.577   3.795  1.9954 -0.4846  4.0235
 5989TIP3   OH217930   3.186   3.643   0.265 -0.0429 -0.1304  0.6329
 5989TIP3    H117931   3.169   3.590   0.342  1.7550 -2.3379 -0.3768
 5989TIP3    H217932   3.247   3.710   0.295 -0.9489  0.2998  1.5468
 5990TIP3   OH217933   6.701   6.321   4.614  0.5431 -0.1587 -0.0098
 5990TIP3    H117934   6.620   6.289   4.653  1.4706 -1.8363  0.6537
 5990TIP3    H217935   6.764   6.250   4.627  1.9211  0.7715 -1.2039
 5991TIP3   OH217936   6.314   2.951   2.554 -0.4306 -0.0765 -0.5772
 5991TIP3    H117937   6.343   3.013   2.487  0.3771 -1.0640 -1.1604
 5991TIP3    H217938   6.377   2.960   2.625  0.2750 -0.9313 -1.0842
 5992TIP3   OH217939   5.961   1.070   5.152 -0.6238 -0.3043  0.0854
 5992TIP3    H117940   5.877   1.113   5.163 -0.3157  0.0598  1.2055
 5992TIP3    H217941   6.026   1.137   5.174 -0.0479 -0.6523 -0.5004
 5993TIP3   OH217942   5.755   2.741   4.002 -0.3890 -0.1251 -0.4781
 5993TIP3    H117943   5.784   2.800   4.072  0.2301 -0.7554 -0.2030
 5993TIP3    H217944   5.823   2.675   3.995 -1.6714 -1.5862  0.1128
 5994TIP3   OH217945   3.289   5.774   1.239  0.1110  0.0868  0.3206
 5994TIP3    H117946   3.221   5.799   1.302 -1.4288 -0.4905 -1.0616
 5994TIP3    H217947   3.365   5.753   1.294 -0.6649  1.1374  1.8890
 5995TIP3   OH217948   5.486   4.623   2.733 -0.2079 -0.0320  0.0415
 5995TIP3    H117949   5.443   4.688   2.677  0.0250  0.8073  0.8150
 5995TIP3    H217950   5.416   4.561   2.755 -1.1104  1.3496  1.3422
 5996TIP3   OH217951   7.204   1.152   0.120 -0.4054  0.6864  0.4856
 5996TIP3    H117952   7.109   1.150   0.131 -0.2916  0.3689  1.5549
 5996TIP3    H217953   7.231   1.234   0.162 -0.3714  1.7605 -1.5178
 5997TIP3   OH217954   5.456   6.001   4.848 -0.0951  0.2717 -0.4676
 5997TIP3    H117955   5.473   5.986   4.941 -1.1184  0.6614 -0.1995
 5997TIP3    H217956   5.408   6.084   4.846  0.5939  0.6535 -1.4142
 5998TIP3   OH217957   0.202   6.075   3.114  0.4365  0.3069  0.6216
 5998TIP3    H117958   0.267   6.051   3.048 -0.1703  1.3980 -0.4044
 5998TIP3    H217959   0.157   5.993   3.134  1.2289 -0.2064  0.3556
 5999TIP3   OH217960   3.949   4.943   4.198  0.1633  0.2236 -0.0139
 5999TIP3    H117961   3.951   4.878   4.127 -1.3001  1.1477 -0.9368
 5999TIP3    H217962   4.036   4.982   4.195 -0.1847  0.9877 -2.0532
 6000TIP3   OH217963   3.897   6.159   4.979 -0.1028  0.6839  0.0831
 6000TIP3    H117964   3.862   6.109   5.052 -0.2961 -0.9768 -1.0953
 6000TIP3    H217965   3.987   6.127   4.970 -0.2797  0.4122 -0.7799
 6001TIP3   OH217966   1.096   3.567   3.655  0.2795  0.0633 -0.1819
 6001TIP3    H117967   1.095   3.559   3.750  0.2854 -0.0455 -0.1904
 6001TIP3    H217968   1.189   3.568   3.631  0.3127 -2.0997 -0.3558
 6002TIP3   OH217969   6.036   1.405   5.844 -0.5067 -0.7858 -0.3740
 6002TIP3    H117970   6.130   1.415   5.828 -0.4444  0.0887  0.4743
 6002TIP3    H217971   6.031   1.350   5.922 -0.5560  2.0447  1.7805
 6003TIP3   OH217972   5.560   6.184   5.601  0.0696  0.5886 -0.2317
 6003TIP3    H117973   5.655   6.170   5.598  0.1785  1.1717  0.3093
 6003TIP3    H217974   5.539   6.184   5.694 -0.7548 -1.3590 -0.3756
 6004TIP3   OH217975   0.749   4.727   3.790 -0.5228  0.2186  0.2748
 6004TIP3    H117976   0.720   4.816   3.772  0.5878  0.3983 -0.7400
 6004TIP3    H217977   0.775   4.693   3.704  2.2693  0.1012  1.0958
 6005TIP3   OH217978   2.032   0.940   0.668 -0.0525  0.3544 -0.2354
 6005TIP3    H117979   2.057   1.021   0.714  1.0213 -0.2154  0.2310
 6005TIP3    H217980   2.097   0.876   0.696  0.4077 -0.1344 -2.2510
 6006TIP3   OH217981   6.140   1.354   4.707 -0.0231  0.4626 -0.1365
 6006TIP3    H117982   6.047   1.332   4.714  0.4822 -2.6582 -1.3527
 6006TIP3    H217983   6.179   1.318   4.787  0.3436  0.1380 -0.4562
 6007TIP3   OH217984   4.674   1.687   1.206  0.0223  0.3681  0.4468
 6007TIP3    H117985   4.722   1.622   1.257  1.1091 -1.1476 -2.3153
 6007TIP3    H217986   4.741   1.732   1.154 -1.0147  1.9689  0.4100
 6008TIP3   OH217987   6.306   2.146   3.347  0.3995 -0.2917 -0.1434
 6008TIP3    H117988   6.371   2.204   3.308  0.0358  1.3829  1.5855
 6008TIP3    H217989   6.269   2.197   3.419 -0.1633 -2.5693  1.2870
 6009TIP3   OH217990   4.388   0.756   2.123  0.0174  0.6456  0.0487
 6009TIP3    H117991   4.482   0.766   2.107  0.0825  0.8960  0.5892
 6009TIP3    H217992   4.369   0.815   2.195 -0.1960 -0.7688  1.1976
 6010TIP3   OH217993   4.705   5.385   5.502 -0.1820 -0.2578 -0.6152
 6010TIP3    H117994   4.718   5.460   5.444  1.7821  0.1696  0.2784
 6010TIP3    H217995   4.663   5.422   5.579 -2.7909 -0.8256 -1.6646
 6011TIP3   OH217996   1.423   1.323   4.740  0.5592 -0.3670 -0.3296
 6011TIP3    H117997   1.447   1.297   4.829 -0.6648  2.6649  1.0135
 6011TIP3    H217998   1.475   1.402   4.724 -1.9198  1.2514 -0.7886
 6012TIP3   OH217999   0.977   2.225   2.873  0.5943  0.4416 -0.0298
 6012TIP3    H118000   1.059   2.194   2.912  0.8507 -0.7524 -1.4365
 6012TIP3    H218001   0.996   2.232   2.780 -0.8593  0.3042 -0.3568
 6013TIP3   OH218002   4.316   3.367   3.802  0.3708  0.2496 -0.5527
 6013TIP3    H118003   4.324   3.410   3.717 -3.3134  0.7269 -0.8103
 6013TIP3    H218004   4.293   3.438   3.863 -0.7756 -0.6148  0.0501
 6014TIP3   OH218005   5.971   2.296   1.117 -0.5849 -0.3505  0.1068
 6014TIP3    H118006   5.966   2.237   1.042  0.1147 -1.1753  0.6854
 6014TIP3    H218007   6.057   2.278   1.156 -1.3751 -0.7603  1.7521
 6015TIP3   OH218008   3.248   6.139   0.158  0.2132  0.1081  0.6332
 6015TIP3    H118009   3.199   6.057   0.165  0.2552 -0.0200 -0.4476
 6015TIP3    H218010   3.339   6.112   0.144  0.0063  0.2829 -1.3645
 6016TIP3   OH218011   1.013   3.155   1.590  0.1186  0.6007  0.4584
 6016TIP3    H118012   1.038   3.171   1.681 -1.2452  3.4017  0.4562
 6016TIP3    H218013   1.027   3.239   1.546 -1.1096 -0.1227 -1.4532
 6017TIP3   OH218014   3.068   3.159   5.015 -0.0076  0.1086  0.0549
 6017TIP3    H118015   3.108   3.223   5.073  0.2111  0.1750 -0.1699
 6017TIP3    H218016   2.993   3.125   5.065 -0.3347  0.7923  0.0370
 6018TIP3   OH218017   1.724   1.627   3.884  0.4993 -0.4643  0.1200
 6018TIP3    H118018   1.766   1.685   3.820  0.9022 -0.8057  0.0715
 6018TIP3    H218019   1.761   1.541   3.866 -0.7197 -0.8944 -0.3478
 6019TIP3   OH218020   0.631   3.594   3.493  0.1111  0.2843  0.5915
 6019TIP3    H118021   0.667   3.679   3.516 -1.2333  0.8446  0.7087
 6019TIP3    H218022   0.544   3.614   3.457  0.7333 -0.8229 -1.7110
 6020TIP3   OH218023   0.862   1.314   3.309 -0.0274 -0.0807  0.2710
 6020TIP3    H118024   0.831   1.229   3.341  1.0158 -0.8468 -0.6810
 6020TIP3    H218025   0.811   1.329   3.229  1.0013 -0.6573 -0.5110
 6021TIP3   OH218026   0.935   1.219   4.862  0.4340 -0.6303  0.1351
 6021TIP3    H118027   1.025   1.191   4.881  1.0652  1.7510  1.1094
 6021TIP3    H218028   0.896   1.235   4.948 -0.3675 -0.0668 -0.3185
 6022TIP3   OH218029   4.231   0.766   5.682 -1.1659 -0.4798  0.0766
 6022TIP3    H118030   4.244   0.757   5.776  0.4452 -0.3211 -0.1006
 6022TIP3    H218031   4.186   0.686   5.656  0.7602 -1.7861  0.5870
 6023TIP3   OH218032   5.895   3.844   2.494  0.5303  0.7720  0.0520
 6023TIP3    H118033   5.913   3.751   2.477 -0.0619  0.8791 -1.2551
 6023TIP3    H218034   5.864   3.845   2.585  1.5552 -0.1524  0.4446
 6024TIP3   OH218035   3.912   6.627   1.554  0.0964 -0.6191 -0.5943
 6024TIP3    H118036   3.924   6.615   1.648 -0.6776  1.3026 -0.2052
 6024TIP3    H218037   3.906   6.538   1.519  2.1421 -1.4259  0.8932
 6025TIP3   OH218038   3.937   3.195   0.217  0.2835  0.1904  0.4144
 6025TIP3    H118039   3.973   3.176   0.130 -1.6577  0.0558 -0.3990
 6025TIP3    H218040   3.880   3.271   0.203 -0.6971 -0.3431  1.3946
 6026TIP3   OH218041   1.095   4.256   5.787  0.9561 -0.0247 -0.4308
 6026TIP3    H118042   1.184   4.291   5.786  1.5737 -1.4544  0.7338
 6026TIP3    H218043   1.106   4.164   5.760 -0.0754 -0.3858  0.3400
 6027TIP3   OH218044   2.869   5.821   2.822 -0.0129 -0.0973  0.1168
 6027TIP3    H118045   2.913   5.737   2.827 -0.9514 -0.6102  0.0096
 6027TIP3    H218046   2.854   5.835   2.728  1.7104  1.0471 -0.0317
 6028TIP3   OH218047   3.237   2.794   0.860 -0.2097 -1.0662 -0.1319
 6028TIP3    H118048   3.149   2.817   0.831 -0.6565  0.2700  2.0183
 6028TIP3    H218049   3.246   2.701   0.839 -2.3946 -1.3824  0.1221
 6029TIP3   OH218050   4.920   1.928   1.437 -0.4191 -0.2165 -0.2308
 6029TIP3    H118051   4.973   1.952   1.513 -1.7212 -1.2802  1.0481
 6029TIP3    H218052   4.938   1.835   1.423 -0.2120 -0.0393 -1.2427
 6030TIP3   OH218053   3.949   1.765   0.839 -0.3748  0.2575  0.3018
 6030TIP3    H118054   4.026   1.778   0.895 -0.8322 -0.8158  1.2216
 6030TIP3    H218055   3.878   1.811   0.886 -0.4296  0.7278 -0.2330
 6031TIP3   OH218056   3.531   6.570   3.288 -0.2594 -0.4694  0.4310
 6031TIP3    H118057   3.603   6.550   3.348 -0.2909  0.7444  0.9006
 6031TIP3    H218058   3.465   6.612   3.343 -1.8447 -2.5428  0.2430
 6032TIP3   OH218059   2.067   2.749   4.620 -0.2845  0.3923 -0.0563
 6032TIP3    H118060   2.042   2.676   4.564  2.1377 -0.2368 -0.4254
 6032TIP3    H218061   2.017   2.736   4.701 -0.6430 -1.0933 -0.4970
 6033TIP3   OH218062   1.119   4.573   3.845  0.2696  0.1740 -0.0638
 6033TIP3    H118063   1.047   4.517   3.817  0.5140 -0.5027  0.6235
 6033TIP3    H218064   1.198   4.523   3.822  0.4832 -0.3229  1.5922
 6034TIP3   OH218065   4.298   4.200   2.502 -0.3091  0.1187 -0.4808
 6034TIP3    H118066   4.377   4.207   2.555 -0.6344 -0.9387  0.1537
 6034TIP3    H218067   4.226   4.208   2.564 -0.7077  0.3800 -0.9650
 6035TIP3   OH218068   5.923   4.347   1.277 -0.3831  0.2223  0.3759
 6035TIP3    H118069   5.925   4.401   1.198  3.1921  0.5212  0.5046
 6035TIP3    H218070   5.944   4.258   1.246 -1.7357 -0.2304  0.7013
 6036TIP3   OH218071   5.812   4.890   4.616 -0.1409  0.0481 -0.3181
 6036TIP3    H118072   5.787   4.978   4.589  0.2984  0.5088  0.7557
 6036TIP3    H218073   5.745   4.834   4.578 -1.6335  1.0517  0.7328
 6037TIP3   OH218074   5.623   4.652   2.083 -0.0960  0.4482  0.6086
 6037TIP3    H118075   5.564   4.721   2.054 -1.6880 -1.5967 -1.4021
 6037TIP3    H218076   5.576   4.608   2.155 -0.7432 -0.6909 -0.4716
 6038TIP3   OH218077   2.094   3.989   5.866  1.0109  0.2011 -0.4300
 6038TIP3    H118078   2.017   4.013   5.918 -0.5509 -2.7337 -1.1358
 6038TIP3    H218079   2.114   4.067   5.816 -1.4900  1.1244 -0.1658
 6039TIP3   OH218080   4.334   1.279   0.234  0.0936 -0.0832  0.3019
 6039TIP3    H118081   4.251   1.281   0.281  0.4309  0.3861  0.8866
 6039TIP3    H218082   4.394   1.234   0.293  0.0293 -1.3147 -0.5160
 6040TIP3   OH218083   1.918   6.826   2.702  0.2624  0.1781 -0.3974
 6040TIP3    H118084   1.825   6.804   2.713  0.0081  1.2074 -0.3874
 6040TIP3    H218085   1.962   6.741   2.697 -0.5308 -0.3428  0.8243
 6041TIP3   OH218086   6.964   0.849   4.769  0.0179  0.1882  0.4946
 6041TIP3    H118087   6.897   0.851   4.700 -0.5958  0.2900  1.0831
 6041TIP3    H218088   7.010   0.766   4.755 -1.4822 -0.7993  1.2407
 6042TIP3   OH218089   4.388   4.574   5.032  0.0194 -0.3846  0.5191
 6042TIP3    H118090   4.397   4.584   5.127 -0.0686  0.7917  0.4163
 6042TIP3    H218091   4.313   4.517   5.021 -1.5076  1.4069  1.1430
 6043TIP3   OH218092   6.676   5.387   0.840 -0.1485 -0.1023 -0.0782
 6043TIP3    H118093   6.704   5.478   0.828 -0.7782 -0.2262 -3.6745
 6043TIP3    H218094   6.758   5.337   0.842  0.1508  0.3409 -0.8001
 6044TIP3   OH218095   0.843   2.597   1.146  0.1150 -0.2597 -0.6913
 6044TIP3    H118096   0.913   2.662   1.140  0.5781 -0.8695 -2.8408
 6044TIP3    H218097   0.791   2.611   1.066  0.8829 -3.1900 -1.8294
 6045TIP3   OH218098   6.378   4.661   4.905  0.1104 -0.7635  0.1175
 6045TIP3    H118099   6.295   4.678   4.861  0.6852  0.3359 -0.5814
 6045TIP3    H218100   6.381   4.724   4.977  0.4799 -0.5861 -0.0536
 6046TIP3   OH218101   4.265   0.583   3.650  0.5816 -0.2334  0.2387
 6046TIP3    H118102   4.247   0.532   3.571  0.6467 -0.9340  0.6704
 6046TIP3    H218103   4.314   0.524   3.706  3.4930  1.2958 -0.5179
 6047TIP3   OH218104   3.355   0.183   0.235 -0.2389  0.1838  0.5812
 6047TIP3    H118105   3.375   0.193   0.328  2.0392 -0.3938  0.2190
 6047TIP3    H218106   3.354   0.088   0.221  0.0118  0.2749 -0.0891
 6048TIP3   OH218107   1.343   0.684   5.507  0.3606  0.0862  0.2617
 6048TIP3    H118108   1.427   0.701   5.467 -0.6408 -0.0705 -2.0616
 6048TIP3    H218109   1.342   0.590   5.522  0.4387  0.0298 -0.0906
 6049TIP3   OH218110   1.238   2.353   1.105 -0.1389 -0.4519 -0.0699
 6049TIP3    H118111   1.179   2.288   1.144 -0.5351 -1.3853 -2.1013
 6049TIP3    H218112   1.181   2.425   1.080  0.2057  0.4417  1.5320
 6050TIP3   OH218113   3.857   1.284   3.862 -0.4770 -0.0569  0.7742
 6050TIP3    H118114   3.857   1.215   3.796 -0.4507  1.3478 -0.7711
 6050TIP3    H218115   3.856   1.238   3.945 -0.9767 -1.9071 -0.1972
 6051TIP3   OH218116   4.613   4.378   3.011 -0.4483 -0.3923  0.1917
 6051TIP3    H118117   4.522   4.398   2.988 -0.8002  0.5322  2.1360
 6051TIP3    H218118   4.608   4.296   3.060 -0.1717 -0.5895 -0.1088
 6052TIP3   OH218119   6.961   6.330   1.112 -0.3320 -0.3423 -0.3508
 6052TIP3    H118120   7.005   6.358   1.032 -1.2741  0.7057 -0.5322
 6052TIP3    H218121   7.027   6.281   1.160  0.0211 -1.7412 -2.1413
 6053TIP3   OH218122   5.500   2.374   0.907  0.4314 -0.1467 -0.1541
 6053TIP3    H118123   5.593   2.350   0.905  0.2821 -0.6857 -1.3943
 6053TIP3    H218124   5.460   2.322   0.838 -0.5589  1.0731 -0.5422
 6054TIP3   OH218125   6.152   4.160   3.934  0.1570  0.6828  0.0709
 6054TIP3    H118126   6.172   4.067   3.942 -0.6945  0.6005  1.7217
 6054TIP3    H218127   6.102   4.181   4.014 -1.0269  2.1923 -1.0057
 6055TIP3   OH218128   3.472   2.956   5.229 -0.2230  0.2137 -0.3654
 6055TIP3    H118129   3.535   2.884   5.234 -0.3034  0.1705  0.1769
 6055TIP3    H218130   3.391   2.919   5.265 -0.3136  0.5209 -0.2478
 6056TIP3   OH218131   3.436   4.669   2.853 -0.2090 -0.7371  0.2862
 6056TIP3    H118132   3.456   4.715   2.771 -0.8489  1.1222  1.1221
 6056TIP3    H218133   3.507   4.692   2.912 -0.4515 -0.9738  0.6772
 6057TIP3   OH218134   6.227   5.348   5.047  0.0771  0.2823  0.2443
 6057TIP3    H118135   6.257   5.401   4.974 -0.3344 -0.0601 -0.1828
 6057TIP3    H218136   6.139   5.318   5.021 -0.4089  0.8112  1.2229
 6058TIP3   OH218137   6.570   4.197   2.913 -0.4277  0.0630  0.1989
 6058TIP3    H118138   6.573   4.273   2.856  2.3998 -0.9507 -1.1752
 6058TIP3    H218139   6.493   4.212   2.969 -1.1409  2.8823 -1.3550
 6059TIP3   OH218140   0.540   2.721   1.517  0.3103 -0.3631  0.3292
 6059TIP3    H118141   0.449   2.710   1.488  0.5192  0.9270 -0.9183
 6059TIP3    H218142   0.591   2.664   1.458  0.3581 -0.8847  0.8592
 6060TIP3   OH218143   0.215   4.682   4.355  0.4079  0.3948 -0.5252
 6060TIP3    H118144   0.146   4.636   4.402 -0.7298 -0.0687 -2.5301
 6060TIP3    H218145   0.295   4.660   4.402 -0.3658 -1.9359 -0.1645
 6061TIP3   OH218146   4.516   1.546   0.799 -0.2758 -0.4395 -0.5265
 6061TIP3    H118147   4.534   1.538   0.893 -0.1868  0.2344 -0.4796
 6061TIP3    H218148   4.442   1.606   0.794  0.1254  0.0346 -0.9129
 6062TIP3   OH218149   4.504   4.895   5.648  0.3467  0.1062  0.1766
 6062TIP3    H118150   4.441   4.937   5.589 -1.2381 -0.4396  1.4246
 6062TIP3    H218151   4.540   4.966   5.701  0.0604  0.2959  0.1157
 6063TIP3   OH218152   5.389   6.278   3.657 -0.0802  0.2056  0.0983
 6063TIP3    H118153   5.452   6.312   3.593  0.4041 -1.2752 -0.2547
 6063TIP3    H218154   5.324   6.232   3.605 -0.7345  0.6028  0.5578
 6064TIP3   OH218155   5.181   0.727   2.231  0.2663  0.7655  0.0888
 6064TIP3    H118156   5.222   0.682   2.306  0.5221  0.0682 -0.4592
 6064TIP3    H218157   5.207   0.818   2.241  0.7145  0.5893  0.5815
 6065TIP3   OH218158   3.904   6.633   0.915  0.9503  1.2005 -0.3046
 6065TIP3    H118159   3.965   6.587   0.857  0.6040  0.0694  0.1901
 6065TIP3    H218160   3.824   6.643   0.862  0.5097 -0.1515  0.0492
 6066TIP3   OH218161   4.671   4.817   1.509 -0.1870 -0.0192 -0.1179
 6066TIP3    H118162   4.703   4.783   1.593  0.5653  2.9501  0.9006
 6066TIP3    H218163   4.740   4.795   1.447  0.1294 -0.6097  0.4273
 6067TIP3   OH218164   3.832   3.517   4.497 -0.0608  0.1262 -0.4245
 6067TIP3    H118165   3.899   3.585   4.485  1.6849 -1.4175  0.1929
 6067TIP3    H218166   3.830   3.471   4.413  0.5297 -0.5726 -0.0644
 6068TIP3   OH218167   3.553   2.598   1.909 -0.2078 -0.3900 -0.1166
 6068TIP3    H118168   3.525   2.629   1.823 -1.6819  1.5867  0.9753
 6068TIP3    H218169   3.614   2.528   1.891  1.2303  1.3841 -2.8168
 6069TIP3   OH218170   5.037   6.425   3.843  0.3021 -0.1845  0.1036
 6069TIP3    H118171   4.991   6.506   3.866 -0.2138 -0.3840 -0.2063
 6069TIP3    H218172   5.128   6.452   3.833  0.4119  0.0665  1.5384
 6070TIP3   OH218173   7.211   3.064   0.729 -0.1080  0.4961 -0.0959
 6070TIP3    H118174   7.163   3.091   0.650 -0.9015  1.8339  0.7993
 6070TIP3    H218175   7.238   3.146   0.769  1.3123 -0.2076  0.4245
 6071TIP3   OH218176   0.615   0.615   1.502  0.5066 -0.2431  0.7222
 6071TIP3    H118177   0.625   0.709   1.485  0.1916 -0.7560 -2.9091
 6071TIP3    H218178   0.693   0.575   1.465 -0.3882 -1.6043  0.2303
 6072TIP3   OH218179   6.841   0.394   4.625  0.6680  0.2537 -0.5631
 6072TIP3    H118180   6.872   0.331   4.690  0.9245  1.3930  0.4466
 6072TIP3    H218181   6.913   0.402   4.563  0.3301 -1.0189 -1.1584
 6073TIP3   OH218182   4.382   5.229   4.073  0.0841  0.0940 -0.4247
 6073TIP3    H118183   4.386   5.242   3.978  0.8339 -0.3789 -0.4651
 6073TIP3    H218184   4.468   5.257   4.105  1.2296 -3.0468 -0.3347
 6074TIP3   OH218185   2.433   3.528   5.778  0.2384 -0.6366 -0.5096
 6074TIP3    H118186   2.438   3.439   5.743  1.5056 -0.0456 -1.9689
 6074TIP3    H218187   2.372   3.573   5.719  1.0233 -0.0854 -0.9150
 6075TIP3   OH218188   2.230   2.563   0.930 -0.4355 -0.7230  0.2319
 6075TIP3    H118189   2.294   2.550   1.000 -0.7188 -1.6619  0.3216
 6075TIP3    H218190   2.172   2.632   0.964  2.4657  2.7826 -1.2164
 6076TIP3   OH218191   2.623   5.749   0.108 -0.1468 -0.1777 -0.1181
 6076TIP3    H118192   2.648   5.657   0.100 -1.1815 -0.4121 -0.7687
 6076TIP3    H218193   2.617   5.764   0.202 -0.1489 -0.8286 -0.0074
 6077TIP3   OH218194   4.078   3.296   0.806 -0.5781 -0.3903  0.4151
 6077TIP3    H118195   4.131   3.262   0.878 -0.4574 -0.0853  0.4736
 6077TIP3    H218196   4.115   3.258   0.727  0.4714  0.7243  0.3427
 6078TIP3   OH218197   1.001   5.121   2.975 -0.1657  0.1235  1.0114
 6078TIP3    H118198   1.052   5.138   3.054  0.5998  0.5654  0.4411
 6078TIP3    H218199   1.031   5.188   2.913  0.8438 -1.5428 -0.3788
 6079TIP3   OH218200   4.815   6.300   1.752  0.3206 -0.0167 -0.1104
 6079TIP3    H118201   4.819   6.395   1.762  0.6071  0.0487 -0.7935
 6079TIP3    H218202   4.786   6.268   1.837  1.3732  0.6032  0.5089
 6080TIP3   OH218203   5.536   1.228   2.463 -0.4843 -0.2166  0.3109
 6080TIP3    H118204   5.609   1.288   2.450 -0.4726 -0.6449 -1.9465
 6080TIP3    H218205   5.577   1.144   2.483 -0.3281 -0.4437 -0.8972
 6081TIP3   OH218206   2.194   0.242   2.031  0.1787  0.3292 -0.1952
 6081TIP3    H118207   2.125   0.233   2.097 -1.3799 -1.6300 -1.9656
 6081TIP3    H218208   2.196   0.336   2.013  0.9825  1.0161  2.8458
 6082TIP3   OH218209   2.996   2.790   3.375 -0.2893 -0.0851  0.4794
 6082TIP3    H118210   3.028   2.877   3.349  0.4269 -0.5119 -0.0872
 6082TIP3    H218211   2.901   2.796   3.367 -0.2457  0.6528  0.4551
 6083TIP3   OH218212   7.022   0.828   0.772 -0.6056  0.3957  0.0261
 6083TIP3    H118213   6.965   0.829   0.694 -1.1007  3.4422  0.2817
 6083TIP3    H218214   6.963   0.810   0.845 -0.4350 -0.8156 -0.1256
 6084TIP3   OH218215   7.078   3.131   0.483 -0.2017  0.4631 -0.4039
 6084TIP3    H118216   6.998   3.086   0.510  1.1156 -1.8479 -0.0980
 6084TIP3    H218217   7.052   3.223   0.474 -2.7872 -0.1569 -0.0194
 6085TIP3   OH218218   1.184   2.961   4.352  0.2217  0.7453  0.4177
 6085TIP3    H118219   1.132   2.946   4.274  1.0986 -0.9238  0.0935
 6085TIP3    H218220   1.265   3.000   4.321 -0.4146  2.4988  0.8234
 6086TIP3   OH218221   2.438   3.235   1.215  0.4928 -0.6483  0.4484
 6086TIP3    H118222   2.387   3.157   1.235  1.8737 -1.1159  2.4484
 6086TIP3    H218223   2.381   3.308   1.238 -0.3931 -1.0640 -0.3611
 6087TIP3   OH218224   5.179   4.999   4.710 -0.1437  0.1121 -0.1835
 6087TIP3    H118225   5.084   4.989   4.717 -0.0727 -0.4054  0.0952
 6087TIP3    H218226   5.215   4.923   4.757  0.4093  0.7209  0.4100
 6088TIP3   OH218227   7.097   5.005   3.465  0.1699 -0.4423  0.4906
 6088TIP3    H118228   7.065   5.072   3.405 -0.3806 -0.7315  0.4578
 6088TIP3    H218229   7.124   5.053   3.543  1.4255  0.0034 -0.1815
 6089TIP3   OH218230   1.952   1.469   0.279  0.4424  0.6651  0.0185
 6089TIP3    H118231   1.926   1.425   0.360  1.3988  0.0809  0.0384
 6089TIP3    H218232   1.906   1.553   0.280 -0.7856  0.0135  0.3925
 6090TIP3   OH218233   6.845   2.434   5.154  0.5751 -0.1342  0.7755
 6090TIP3    H118234   6.927   2.473   5.127 -0.4253  2.1515  0.8046
 6090TIP3    H218235   6.778   2.478   5.101 -0.6451 -1.9408  0.7125
 6091TIP3   OH218236   3.273   0.581   0.263  0.7086 -0.0545  0.4385
 6091TIP3    H118237   3.224   0.630   0.197  0.0453 -0.5096  0.5824
 6091TIP3    H218238   3.224   0.594   0.344  0.6120 -0.8207  0.5083
 6092TIP3   OH218239   6.153   1.267   2.889  0.0519  0.0308  0.0060
 6092TIP3    H118240   6.098   1.189   2.882  0.3804 -0.2630  0.6091
 6092TIP3    H218241   6.223   1.242   2.950  0.3775  0.6716 -0.0933
 6093TIP3   OH218242   2.418   5.227   2.231  0.4098 -0.0175 -0.1899
 6093TIP3    H118243   2.508   5.196   2.221  1.0012  0.9843  1.6341
 6093TIP3    H218244   2.387   5.186   2.312 -0.2763  0.7374 -0.0593
 6094TIP3   OH218245   0.240   2.911   3.577  0.2865 -0.2288  0.1143
 6094TIP3    H118246   0.251   2.874   3.665  2.5330 -1.3058 -0.5245
 6094TIP3    H218247   0.220   2.835   3.522 -1.5449  0.5000 -0.2703
 6095TIP3   OH218248   5.781   4.038   2.992 -1.0222 -0.3614 -0.5266
 6095TIP3    H118249   5.712   4.104   2.990 -1.6148 -0.9513  0.1780
 6095TIP3    H218250   5.824   4.047   2.906 -0.3653  1.6745 -0.0431
 6096TIP3   OH218251   6.714   3.790   0.613  0.6800  0.5289 -0.0401
 6096TIP3    H118252   6.704   3.702   0.649 -0.0383  0.8463  0.5640
 6096TIP3    H218253   6.801   3.818   0.642  0.4261  0.4743  0.8097
 6097TIP3   OH218254   6.890   1.986   4.358  0.5613 -0.2031 -0.3807
 6097TIP3    H118255   6.807   1.951   4.326 -1.3171  3.1782  0.2543
 6097TIP3    H218256   6.935   2.018   4.280  0.5699 -0.6799 -0.5733
 6098TIP3   OH218257   3.552   3.679   0.391  0.4688 -0.0750  0.4855
 6098TIP3    H118258   3.544   3.591   0.427 -1.5860 -0.5421 -0.9166
 6098TIP3    H218259   3.642   3.685   0.360  1.7668 -0.3023  3.8467
 6099TIP3   OH218260   0.139   0.106   3.992  0.3025  0.2268  0.4981
 6099TIP3    H118261   0.232   0.123   4.009  0.5825 -0.6692 -0.0291
 6099TIP3    H218262   0.126   0.134   3.902 -0.1984  1.2768  0.8811
 6100TIP3   OH218263   0.668   1.582   0.924 -0.5456  0.4571  0.2121
 6100TIP3    H118264   0.572   1.582   0.921 -0.5476 -0.1832 -0.0443
 6100TIP3    H218265   0.690   1.628   1.004 -0.9914  3.0438 -1.0423
 6101TIP3   OH218266   0.431   3.532   0.502  0.1184  0.2040 -0.2011
 6101TIP3    H118267   0.497   3.533   0.433  2.7377 -1.0875  2.0907
 6101TIP3    H218268   0.352   3.568   0.461  1.6401 -0.0628 -3.6564
 6102TIP3   OH218269   0.062   4.107   4.444  0.0331  0.6455 -0.0804
 6102TIP3    H118270   0.114   4.146   4.373  0.9083  0.3779  0.3970
 6102TIP3    H218271   0.031   4.181   4.495  0.4290  0.7845 -0.0390
 6103TIP3   OH218272   6.590   5.777   5.434  0.1882  0.0853  0.1816
 6103TIP3    H118273   6.516   5.835   5.448  0.2304 -0.1935  1.6491
 6103TIP3    H218274   6.560   5.716   5.366 -0.0964  1.3528 -0.8785
 6104TIP3   OH218275   5.970   3.440   1.672 -0.2958  0.1745  0.0232
 6104TIP3    H118276   5.932   3.400   1.594 -0.7689 -2.4527  1.4468
 6104TIP3    H218277   5.899   3.491   1.710 -1.0396 -0.9974  0.2667
 6105TIP3   OH218278   4.754   5.695   5.053  0.4643 -0.3243 -0.3261
 6105TIP3    H118279   4.815   5.681   4.981  0.1048 -1.2344 -0.4550
 6105TIP3    H218280   4.676   5.644   5.030  0.2615 -0.4513  0.5989
 6106TIP3   OH218281   3.902   5.044   3.088  0.2919 -0.3912 -0.2841
 6106TIP3    H118282   3.810   5.069   3.099 -0.0344 -1.2744 -0.9565
 6106TIP3    H218283   3.947   5.091   3.159 -0.7188 -0.2336  0.2825
 6107TIP3   OH218284   1.070   1.459   0.971 -0.8104 -0.2324  0.1953
 6107TIP3    H118285   1.057   1.532   0.911 -1.5241 -0.7553 -0.2936
 6107TIP3    H218286   1.164   1.442   0.967 -0.5984  0.7865  0.4765
 6108TIP3   OH218287   1.446   5.317   5.335 -0.3583  0.2070 -0.2085
 6108TIP3    H118288   1.373   5.284   5.282 -1.9913 -0.6114  2.3506
 6108TIP3    H218289   1.448   5.411   5.315 -2.0588  0.2397 -0.4510
 6109TIP3   OH218290   1.664   3.433   2.561 -0.2977 -0.4625  0.3834
 6109TIP3    H118291   1.686   3.483   2.639 -0.5222  0.5731 -0.1929
 6109TIP3    H218292   1.632   3.349   2.594  0.3225 -0.3333  1.3639
 6110TIP3   OH218293   4.184   2.064   5.772 -0.3400 -0.5514 -0.3400
 6110TIP3    H118294   4.115   2.090   5.833 -0.7620  1.6231 -1.6324
 6110TIP3    H218295   4.266   2.075   5.822 -0.7271  0.3709  0.1157
 6111TIP3   OH218296   0.890   5.540   5.284 -0.3608 -0.6253 -0.5787
 6111TIP3    H118297   0.830   5.591   5.230  1.1759  2.5057  0.4236
 6111TIP3    H218298   0.976   5.576   5.265  0.6968 -2.0601  1.1536
 6112TIP3   OH218299   2.369   2.150   3.831  0.0215 -0.3036  0.6844
 6112TIP3    H118300   2.296   2.208   3.810  0.2719 -0.2844 -0.1996
 6112TIP3    H218301   2.430   2.203   3.881  0.2771  0.2326 -0.1696
 6113TIP3   OH218302   2.141   1.579   2.306  0.1689  0.7993  0.5585
 6113TIP3    H118303   2.087   1.609   2.379  1.7330 -0.6188  2.4119
 6113TIP3    H218304   2.209   1.646   2.297  1.1457  0.0072  1.7977
 6114TIP3   OH218305   1.813   0.436   0.401  0.2406 -0.5718  0.7534
 6114TIP3    H118306   1.804   0.415   0.308  2.0817  0.1048  0.3845
 6114TIP3    H218307   1.796   0.530   0.407  1.9584 -0.2398  0.7782
 6115TIP3   OH218308   6.681   5.751   4.930  0.2053  0.1805  0.0428
 6115TIP3    H118309   6.734   5.720   5.004 -0.0652 -0.9269 -0.2113
 6115TIP3    H218310   6.695   5.686   4.861 -1.2719 -0.0211 -0.1137
 6116TIP3   OH218311   5.989   2.981   5.497 -0.1990 -0.0737 -0.1005
 6116TIP3    H118312   5.954   2.906   5.448 -0.5683 -0.8978  1.3720
 6116TIP3    H218313   5.939   3.056   5.465 -1.7743 -0.8852  0.3564
 6117TIP3   OH218314   1.922   0.325   1.179 -0.3663  0.7916  0.1880
 6117TIP3    H118315   1.910   0.282   1.095  1.4812  0.8809 -0.1481
 6117TIP3    H218316   1.833   0.337   1.212 -1.0200 -2.1244 -0.2577
 6118TIP3   OH218317   5.014   3.659   1.836 -0.3948 -0.0799 -0.6009
 6118TIP3    H118318   5.019   3.745   1.793 -0.7976  0.3316  0.1470
 6118TIP3    H218319   4.925   3.655   1.871  0.5338  0.5740  2.1073
 6119TIP3   OH218320   5.302   6.802   3.566  0.0988  0.4852  0.2913
 6119TIP3    H118321   5.320   6.788   3.473  0.0190 -0.4472  0.4112
 6119TIP3    H218322   5.364   6.745   3.611 -0.3244  0.4195  0.7935
 6120TIP3   OH218323   0.612   2.331   0.416 -0.1364 -0.0425  0.1734
 6120TIP3    H118324   0.585   2.393   0.349  1.2648 -1.3008 -1.6837
 6120TIP3    H218325   0.662   2.383   0.478 -0.8643  1.0460 -0.1187
 6121TIP3   OH218326   6.798   2.349   4.382  0.2014 -0.1222 -0.2643
 6121TIP3    H118327   6.834   2.265   4.409  1.0665 -0.0237 -1.0270
 6121TIP3    H218328   6.795   2.401   4.462  0.7050 -0.5168  0.0204
 6122TIP3   OH218329   6.443   2.910   0.308 -0.1860  0.2002  0.3299
 6122TIP3    H118330   6.353   2.920   0.275 -0.5118  2.9627  1.7424
 6122TIP3    H218331   6.494   2.886   0.230 -2.0288 -0.8182 -0.6311
 6123TIP3   OH218332   5.942   1.549   3.038 -0.5765 -0.1657  0.5364
 6123TIP3    H118333   5.983   1.631   3.066 -2.4676  0.6061  1.1778
 6123TIP3    H218334   5.899   1.515   3.116 -1.8340 -0.5267 -0.2847
 6124TIP3   OH218335   4.898   4.193   1.704  0.4191 -0.0987 -0.1024
 6124TIP3    H118336   4.833   4.155   1.645  1.7273 -2.1284 -0.3090
 6124TIP3    H218337   4.918   4.278   1.665 -0.6487 -0.2908 -1.1294
 6125TIP3   OH218338   4.943   5.512   4.160 -0.1329 -0.3470  0.2032
 6125TIP3    H118339   4.866   5.527   4.215  1.3818  0.1057  2.3126
 6125TIP3    H218340   4.984   5.434   4.195  0.1497 -0.8635 -1.1991
 6126TIP3   OH218341   5.732   3.539   2.765  0.8089 -0.2181 -0.4511
 6126TIP3    H118342   5.772   3.451   2.766  0.5379 -0.3329  0.5172
 6126TIP3    H218343   5.659   3.531   2.704  0.2441 -0.9189  0.2975
 6127TIP3   OH218344   0.737   3.051   3.633 -0.0218 -0.6294  0.0485
 6127TIP3    H118345   0.724   3.142   3.661  1.1582 -0.0413 -1.1655
 6127TIP3    H218346   0.668   3.036   3.568 -2.1141 -1.6542  2.3842
 6128TIP3   OH218347   6.410   1.692   5.166  0.0074 -0.2304 -0.3300
 6128TIP3    H118348   6.371   1.605   5.163  1.3312 -0.8354 -0.6526
 6128TIP3    H218349   6.356   1.745   5.107 -1.5874 -0.4693  0.8383
 6129TIP3   OH218350   4.500   2.332   5.385 -0.7126  0.3081  0.4784
 6129TIP3    H118351   4.489   2.274   5.460 -0.9949 -0.7550 -0.3556
 6129TIP3    H218352   4.594   2.332   5.369 -0.7632 -0.4191  0.1232
 6130TIP3   OH218353   2.088   2.005   3.444 -0.0193 -0.3107 -0.3007
 6130TIP3    H118354   1.997   1.974   3.438 -0.3162  0.7019 -1.4726
 6130TIP3    H218355   2.083   2.097   3.417  1.4555 -0.4233 -0.9886
 6131TIP3   OH218356   3.925   2.626   1.964  0.0824 -0.2544  0.6855
 6131TIP3    H118357   3.916   2.590   2.052  1.7781  0.7138  1.3092
 6131TIP3    H218358   3.994   2.692   1.972 -0.9492  1.1429 -0.9941
 6132TIP3   OH218359   1.511   1.672   0.222  0.1277 -0.3862 -0.1179
 6132TIP3    H118360   1.488   1.700   0.311 -0.6821 -1.0102 -0.1169
 6132TIP3    H218361   1.497   1.577   0.223 -0.7776 -0.2857 -1.1540
 6133TIP3   OH218362   6.718   5.315   1.143  0.4497  0.6146 -0.0336
 6133TIP3    H118363   6.622   5.317   1.142  0.4349  3.3990  0.7857
 6133TIP3    H218364   6.741   5.317   1.236  1.3695 -1.3542 -0.1654
 6134TIP3   OH218365   5.531   0.424   2.172 -0.7128 -0.0283 -0.5067
 6134TIP3    H118366   5.462   0.379   2.124  0.0028  0.2135 -1.7959
 6134TIP3    H218367   5.548   0.367   2.247 -1.7421 -0.4945 -0.6064
 6135TIP3   OH218368   1.084   4.489   4.172  0.1188  0.5140 -0.2051
 6135TIP3    H118369   1.117   4.490   4.082  1.7956 -2.8092  0.2067
 6135TIP3    H218370   1.020   4.418   4.174 -1.1756  1.6516  0.8949
 6136TIP3   OH218371   4.723   1.608   3.175 -0.1822 -0.5369  0.6500
 6136TIP3    H118372   4.706   1.582   3.084 -2.1138 -0.9221  1.0785
 6136TIP3    H218373   4.818   1.608   3.182  0.0698  0.5492 -1.6648
 6137TIP3   OH218374   3.090   4.581   1.290  0.4736 -0.2664  0.1408
 6137TIP3    H118375   3.113   4.639   1.362  1.9219  0.2076 -0.6664
 6137TIP3    H218376   3.105   4.493   1.326 -0.2432 -0.1061  0.8709
 6138TIP3   OH218377   3.445   6.480   0.254  0.4140  0.1585 -0.9823
 6138TIP3    H118378   3.440   6.451   0.163  0.1126  2.1242 -1.6419
 6138TIP3    H218379   3.362   6.452   0.293  2.6289 -5.7753  0.4586
 6139TIP3   OH218380   2.176   5.081   1.822 -0.3299 -0.5601  0.0927
 6139TIP3    H118381   2.188   5.159   1.875 -1.5378  0.6920 -1.3681
 6139TIP3    H218382   2.081   5.070   1.815 -0.2022 -2.7393  1.0265
 6140TIP3   OH218383   3.187   4.670   3.300 -0.3194  0.4301  0.4194
 6140TIP3    H118384   3.101   4.665   3.259  0.2562 -1.2065 -0.6674
 6140TIP3    H218385   3.179   4.616   3.378 -1.0932  2.6838  2.0320
 6141TIP3   OH218386   5.289   0.018   2.570  0.2396  0.2540 -0.2415
 6141TIP3    H118387   5.296   0.103   2.612 -0.4719 -0.1162  0.6455
 6141TIP3    H218388   5.380  -0.012   2.560  0.4626 -0.6789  3.2041
 6142TIP3   OH218389   4.936   0.672   0.544 -0.5740 -0.2369  0.6783
 6142TIP3    H118390   4.871   0.687   0.476 -1.6994 -1.5730  1.4105
 6142TIP3    H218391   4.956   0.579   0.538 -0.2710 -0.2579  1.8064
 6143TIP3   OH218392   3.468   2.766   3.569  0.2224  1.1930 -0.1196
 6143TIP3    H118393   3.374   2.761   3.550  0.2450 -0.3591  0.0226
 6143TIP3    H218394   3.508   2.793   3.487 -0.3000  1.4079 -0.3097
 6144TIP3   OH218395   1.982   4.878   0.811  0.7513  0.0402 -0.1809
 6144TIP3    H118396   1.911   4.939   0.830  2.4313  2.5521 -1.4304
 6144TIP3    H218397   1.953   4.832   0.732  1.0225  2.0741 -1.5349
 6145TIP3   OH218398   4.200   6.237   1.382  0.4600  0.6577 -0.2632
 6145TIP3    H118399   4.242   6.211   1.300 -0.5439  1.0639 -0.9189
 6145TIP3    H218400   4.241   6.181   1.448  2.7052  1.6431 -0.7114
 6146TIP3   OH218401   2.496   1.898   3.911  0.2648  0.4383 -0.1759
 6146TIP3    H118402   2.580   1.896   3.866 -0.3923 -0.9810 -1.4273
 6146TIP3    H218403   2.459   1.984   3.887  0.1003 -0.1118 -2.1086
 6147TIP3   OH218404   6.160   5.200   5.430 -0.2108  0.3343 -0.0385
 6147TIP3    H118405   6.226   5.160   5.486  0.9562 -0.1937 -1.7139
 6147TIP3    H218406   6.162   5.293   5.452  3.4340  0.9407 -2.2017
 6148TIP3   OH218407   2.854   0.329   2.113 -0.0216  0.1210 -0.1815
 6148TIP3    H118408   2.846   0.421   2.138 -0.7342  0.1215 -0.3946
 6148TIP3    H218409   2.932   0.298   2.160  0.7189  1.0443 -0.7660
 6149TIP3   OH218410   0.425   5.966   1.681  0.1753  0.1395 -0.0440
 6149TIP3    H118411   0.404   5.964   1.587  0.3036 -0.9901 -0.0610
 6149TIP3    H218412   0.500   6.025   1.687 -1.7044  2.7064 -0.2298
 6150TIP3   OH218413   4.898   1.325   4.295  0.0788 -0.3212 -0.3817
 6150TIP3    H118414   4.934   1.318   4.207 -0.9043  0.2343 -0.8470
 6150TIP3    H218415   4.863   1.414   4.300  0.4034 -0.2307  0.6891
 6151TIP3   OH218416   3.907   6.356   3.108 -0.5754 -0.2037  0.5684
 6151TIP3    H118417   3.952   6.344   3.192  0.1080 -0.3627  0.1915
 6151TIP3    H218418   3.899   6.450   3.098  0.8991 -0.1007  0.0346
 6152TIP3   OH218419   5.237   3.784   3.989 -0.1172  0.1744  0.2259
 6152TIP3    H118420   5.241   3.735   3.907  0.9378  0.1171  0.2971
 6152TIP3    H218421   5.241   3.876   3.962  1.3199  0.1378  0.2454
 6153TIP3   OH218422   7.001  -0.023   0.502  0.2944 -0.3879  0.6458
 6153TIP3    H118423   6.967  -0.018   0.413 -0.5210 -1.7668  0.8523
 6153TIP3    H218424   6.975   0.060   0.543  0.3601  0.1010 -0.2672
 6154TIP3   OH218425   4.256   1.031   5.587  0.7908  0.4568 -0.1257
 6154TIP3    H118426   4.255   0.945   5.627 -1.7903  0.2199 -0.5117
 6154TIP3    H218427   4.250   1.014   5.493  0.4200  1.0177 -0.2161
 6155TIP3   OH218428   6.489   4.772   4.679  0.1189 -0.3039  0.5961
 6155TIP3    H118429   6.523   4.713   4.612  0.6045 -0.4327  0.9489
 6155TIP3    H218430   6.448   4.715   4.744 -3.1524 -0.0555 -1.0546
 6156TIP3   OH218431   3.978   0.086   0.661 -0.3009 -0.2255 -0.6970
 6156TIP3    H118432   3.914   0.015   0.659 -0.6697  0.1096 -1.9126
 6156TIP3    H218433   3.927   0.165   0.644  0.1353  0.3179  0.4335
 6157TIP3   OH218434   5.425   6.159   4.188  0.3129  0.2399  0.4051
 6157TIP3    H118435   5.478   6.122   4.118  0.2587 -1.2987  1.1394
 6157TIP3    H218436   5.405   6.248   4.159 -0.2222 -0.5436 -1.8084
 6158TIP3   OH218437   1.134   6.096   4.840  0.1197  0.4834  0.0303
 6158TIP3    H118438   1.121   6.156   4.914  0.3613  0.6917 -0.0904
 6158TIP3    H218439   1.193   6.144   4.781  0.6085 -0.0166  0.0999
 6159TIP3   OH218440   0.919   5.445   4.602  0.4241 -0.0445  0.2812
 6159TIP3    H118441   0.937   5.359   4.563  1.6238  0.6099 -0.6719
 6159TIP3    H218442   0.977   5.505   4.555 -1.3022  1.5137  0.0758
 6160TIP3   OH218443   3.627   0.822   1.428 -0.1524  0.0237  0.2229
 6160TIP3    H118444   3.555   0.812   1.366 -0.1110  2.1978 -0.2301
 6160TIP3    H218445   3.592   0.877   1.497  1.0150  1.0164  0.0578
 6161TIP3   OH218446   0.169   0.357   1.668  0.2381 -0.2083  0.3115
 6161TIP3    H118447   0.117   0.434   1.645  0.7679 -0.1901 -0.8800
 6161TIP3    H218448   0.258   0.391   1.681  0.3833 -0.5524  0.2281
 6162TIP3   OH218449   5.952   6.707   1.748 -0.1857  0.6441  0.3243
 6162TIP3    H118450   5.975   6.772   1.683 -3.9333 -0.1019 -2.0746
 6162TIP3    H218451   5.927   6.630   1.698  0.1614 -1.2728  2.8622
 6163TIP3   OH218452   5.634   2.900   1.560  0.3924  0.5878  0.2758
 6163TIP3    H118453   5.675   2.873   1.642  0.7313  1.8877  0.5468
 6163TIP3    H218454   5.555   2.946   1.587 -1.1698 -1.5961 -0.2312
 6164TIP3   OH218455   3.648   0.285   1.655  0.0235 -0.1627  0.0135
 6164TIP3    H118456   3.573   0.240   1.617  0.3626 -1.2113  0.5602
 6164TIP3    H218457   3.622   0.303   1.745  0.2671 -0.1583  0.0823
 6165TIP3   OH218458   5.672   6.169   3.728  0.3772  0.1531 -0.1511
 6165TIP3    H118459   5.659   6.252   3.682  0.2457  1.1076  1.5176
 6165TIP3    H218460   5.664   6.102   3.660  0.0015  1.4771 -1.4582
 6166TIP3   OH218461   1.692   1.365   4.941 -0.1797  0.1523  0.2121
 6166TIP3    H118462   1.779   1.366   4.901 -0.3040 -0.8458 -0.1246
 6166TIP3    H218463   1.659   1.454   4.931  0.7945  0.5282  0.3138
 6167TIP3   OH218464   5.520   0.375   5.702  0.2474 -0.0647  0.2859
 6167TIP3    H118465   5.513   0.415   5.788 -1.5858  0.7282 -0.1668
 6167TIP3    H218466   5.566   0.292   5.717  0.5859  0.3826  1.8953
 6168TIP3   OH218467   0.240   0.775   0.985 -0.3330 -0.7070 -0.2184
 6168TIP3    H118468   0.170   0.839   0.997 -1.9463 -2.5307  0.8047
 6168TIP3    H218469   0.222   0.736   0.899  1.8572  1.5088 -1.7918
 6169TIP3   OH218470   1.518   4.953   4.122  0.2059 -0.5871  0.5519
 6169TIP3    H118471   1.502   5.025   4.062 -1.2257  0.3949  2.0283
 6169TIP3    H218472   1.572   4.891   4.072  2.5238  1.9960 -0.4197
 6170TIP3   OH218473   5.645   3.201   0.712  0.0571 -0.2109  0.4954
 6170TIP3    H118474   5.599   3.230   0.790 -0.2013 -1.4225  0.8233
 6170TIP3    H218475   5.723   3.156   0.745 -0.1463 -0.8915  0.0712
 6171TIP3   OH218476   3.942   3.780   2.117 -0.4649  0.0064  0.0171
 6171TIP3    H118477   4.014   3.727   2.152  0.4430  0.3082 -1.3107
 6171TIP3    H218478   3.925   3.742   2.031  0.5509  2.1083 -1.1896
 6172TIP3   OH218479   3.956   4.372   2.385  0.2760 -0.2429  0.0540
 6172TIP3    H118480   3.965   4.292   2.437 -3.0561 -2.3324 -2.1990
 6172TIP3    H218481   3.917   4.343   2.302  1.0318  3.4700 -1.8371
 6173TIP3   OH218482   0.492   3.690   3.074 -0.2439  0.0847  0.6112
 6173TIP3    H118483   0.418   3.749   3.060  0.5554  0.7638 -1.0178
 6173TIP3    H218484   0.457   3.620   3.129 -1.9391  0.6852  0.3483
 6174TIP3   OH218485   2.732   2.900   4.803 -0.5355 -0.0088  1.0527
 6174TIP3    H118486   2.824   2.875   4.793 -0.7050  0.0246 -1.1866
 6174TIP3    H218487   2.732   2.966   4.873  1.1414 -0.0037  1.0754
 6175TIP3   OH218488   4.937   5.735   5.868  0.0467 -0.0809  0.7241
 6175TIP3    H118489   4.930   5.684   5.787  0.0476 -1.9787  1.8475
 6175TIP3    H218490   4.861   5.793   5.866 -1.1195 -1.5397  0.2845
 6176TIP3   OH218491   5.032   0.287   1.271  0.3412  0.1027 -0.0254
 6176TIP3    H118492   4.982   0.225   1.324 -0.1249  0.4067 -0.1032
 6176TIP3    H218493   5.059   0.355   1.332  2.9966 -1.3842  0.6087
 6177TIP3   OH218494   6.619   4.120   2.335 -0.2937 -0.5696 -0.4338
 6177TIP3    H118495   6.673   4.091   2.409 -0.7553  1.2228  0.6823
 6177TIP3    H218496   6.662   4.085   2.258  1.6012 -0.4735  0.5303
 6178TIP3   OH218497   1.663   3.935   1.816  0.5158  1.0060 -0.3451
 6178TIP3    H118498   1.713   3.871   1.867  0.3445  0.0131 -1.3854
 6178TIP3    H218499   1.654   4.010   1.874  1.5580  0.4567  0.5558
 6179TIP3   OH218500   4.118   2.719   0.287 -0.3025 -0.5431 -0.9890
 6179TIP3    H118501   4.130   2.763   0.371  0.7203 -0.9453 -0.9079
 6179TIP3    H218502   4.154   2.779   0.222  1.8773 -1.5486 -0.7958
 6180TIP3   OH218503   6.617   5.524   4.483 -0.5696 -0.2906 -0.3928
 6180TIP3    H118504   6.539   5.495   4.437 -0.0754  0.8854 -2.0667
 6180TIP3    H218505   6.689   5.477   4.441 -0.0201  1.4684 -1.5258
 6181TIP3   OH218506   1.384   4.474   5.596  0.7202 -0.2018  0.7011
 6181TIP3    H118507   1.326   4.507   5.664  1.2682  0.2311  0.9686
 6181TIP3    H218508   1.453   4.428   5.644  0.8703 -0.2778  0.4134
 6182TIP3   OH218509   3.057   5.531   4.430  0.6270  0.6838 -0.9420
 6182TIP3    H118510   3.096   5.444   4.431  0.2180  0.5054 -0.4911
 6182TIP3    H218511   3.095   5.577   4.504 -1.7955 -0.2965  1.0587
 6183TIP3   OH218512   2.879  -0.013   5.609 -0.0236 -0.2964 -0.8736
 6183TIP3    H118513   2.963  -0.011   5.654 -1.4920  0.2521  2.0687
 6183TIP3    H218514   2.879   0.067   5.555  0.7793  0.4889  0.2325
 6184TIP3   OH218515   3.798   6.369   4.766 -0.1834 -0.2591  0.4223
 6184TIP3    H118516   3.817   6.304   4.698 -1.1159 -0.2339  0.1310
 6184TIP3    H218517   3.802   6.320   4.848 -0.1830 -0.5309  0.2595
 6185TIP3   OH218518   6.926   1.914   2.515 -0.1986 -0.3999  0.2001
 6185TIP3    H118519   6.899   1.856   2.586 -0.5321 -1.2506 -0.6013
 6185TIP3    H218520   6.960   1.856   2.447  1.4879  0.4894  0.2178
 6186TIP3   OH218521   6.425   2.977   4.990  0.1831  0.0329 -0.2860
 6186TIP3    H118522   6.387   3.008   5.073  1.1164 -1.1128  0.6105
 6186TIP3    H218523   6.394   2.886   4.983 -0.7338  0.4307 -1.7496
 6187TIP3   OH218524   4.302   5.995   2.704  0.1124 -0.1863 -0.4839
 6187TIP3    H118525   4.384   5.982   2.656 -0.7040 -2.1617 -1.4352
 6187TIP3    H218526   4.322   5.965   2.793  0.1665 -1.7158 -0.9783
 6188TIP3   OH218527   2.479   0.453   2.055 -0.1375  0.4972  0.4922
 6188TIP3    H118528   2.395   0.495   2.037 -0.0010  1.0776  1.1906
 6188TIP3    H218529   2.507   0.488   2.139  0.1622 -0.7182  0.9182
 6189TIP3   OH218530   2.644   4.271   1.490  0.1846 -0.4230 -0.1871
 6189TIP3    H118531   2.583   4.283   1.563 -1.0099 -1.7521 -0.9193
 6189TIP3    H218532   2.719   4.325   1.513  0.6814 -2.2078  2.9630
 6190TIP3   OH218533   0.208   3.437   5.310  0.0049 -0.0834  0.4642
 6190TIP3    H118534   0.274   3.411   5.375  0.0235  0.3783  0.6356
 6190TIP3    H218535   0.258   3.448   5.229  0.4956  2.0300  0.9777
 6191TIP3   OH218536   7.166   2.227   2.697  0.2299 -0.2980 -0.0516
 6191TIP3    H118537   7.181   2.315   2.732  1.5622 -1.3105  2.1578
 6191TIP3    H218538   7.252   2.200   2.663  0.2631 -1.3053  0.7676
 6192TIP3   OH218539   4.722   5.289   4.103  0.9518  0.6861  0.5439
 6192TIP3    H118540   4.736   5.197   4.125  0.1562  0.2470 -0.7245
 6192TIP3    H218541   4.705   5.332   4.187  1.1349 -0.3574  1.1201
 6193TIP3   OH218542   2.556   1.170   3.475  0.2066  0.4863  0.6665
 6193TIP3    H118543   2.589   1.243   3.423  0.2159  0.4537  0.6257
 6193TIP3    H218544   2.566   1.094   3.417  3.1750 -0.1138  1.7906
 6194TIP3   OH218545   3.395   6.089   4.645  0.8064 -1.1788  0.2768
 6194TIP3    H118546   3.308   6.118   4.617  0.1734 -2.8433  0.4297
 6194TIP3    H218547   3.456   6.144   4.596 -0.3109  1.0875  1.2968
 6195TIP3   OH218548   0.854   5.313   3.956  0.2211 -0.1329 -0.0351
 6195TIP3    H118549   0.913   5.251   3.999 -0.8866 -1.2777 -0.1049
 6195TIP3    H218550   0.780   5.320   4.016 -1.8087 -2.4952 -2.0508
 6196TIP3   OH218551   1.512   3.499   5.075  0.0949  0.0894 -0.3126
 6196TIP3    H118552   1.515   3.555   4.998  1.4594 -0.3028 -0.5789
 6196TIP3    H218553   1.604   3.487   5.099 -0.3187  0.8081  1.8260
 6197TIP3   OH218554   6.795   2.386   4.844  0.1436  0.0852 -0.3780
 6197TIP3    H118555   6.756   2.473   4.843  1.0741  0.5570  0.9344
 6197TIP3    H218556   6.730   2.329   4.802 -0.4964  1.3916 -1.2012
 6198TIP3   OH218557   3.088   4.585   0.834 -0.2486 -0.1939 -0.1442
 6198TIP3    H118558   3.012   4.636   0.808  0.1763  0.5262 -0.0037
 6198TIP3    H218559   3.108   4.530   0.758  0.2926  1.0557 -0.9284
 6199TIP3   OH218560   4.504   2.170   2.562  0.1852  0.1343  0.4197
 6199TIP3    H118561   4.485   2.088   2.608 -0.5992  0.7569  1.2326
 6199TIP3    H218562   4.552   2.223   2.625 -1.2899  1.1733  0.7260
 6200TIP3   OH218563   4.796   6.289   2.044  0.5649  0.1030  0.1541
 6200TIP3    H118564   4.874   6.339   2.020  0.5204  0.5620  0.9498
 6200TIP3    H218565   4.727   6.354   2.054 -0.0248 -0.3344 -0.8904
 6201TIP3   OH218566   4.664   3.215   5.328 -0.1399  0.1651  0.6670
 6201TIP3    H118567   4.635   3.137   5.281 -0.0200  1.1052 -1.0618
 6201TIP3    H218568   4.759   3.204   5.336 -0.2837 -0.5045  1.7322
 6202TIP3   OH218569   3.303   2.433   0.402  0.4910 -0.1879  0.0822
 6202TIP3    H118570   3.310   2.338   0.396  0.7741 -0.2191  0.7725
 6202TIP3    H218571   3.382   2.465   0.358  1.3814 -0.3404  1.4984
 6203TIP3   OH218572   6.914   4.557   4.883 -0.4596  0.4289  0.0516
 6203TIP3    H118573   6.848   4.612   4.926 -0.7503  0.3442 -0.2831
 6203TIP3    H218574   6.924   4.482   4.941 -0.4036  0.6068  0.2758
 6204TIP3   OH218575   5.241   1.493   1.459  0.2629 -0.6154  0.1462
 6204TIP3    H118576   5.302   1.566   1.465 -1.4589  0.8645  0.5537
 6204TIP3    H218577   5.249   1.448   1.543  0.8522 -0.4934  0.1590
 6205TIP3   OH218578   5.437   1.887   4.220 -0.0547  0.0105 -0.2525
 6205TIP3    H118579   5.391   1.969   4.204  0.0192  0.3222  1.0776
 6205TIP3    H218580   5.482   1.899   4.303  1.6653 -0.6458 -1.0409
 6206TIP3   OH218581   5.008   4.146   1.002  0.0117 -0.2761  0.1893
 6206TIP3    H118582   4.928   4.127   0.953  0.1904 -0.1038 -0.1677
 6206TIP3    H218583   4.989   4.115   1.091  0.4760 -2.6338 -0.4741
 6207TIP3   OH218584   1.208   6.343   0.842  0.3307  0.2272 -0.3248
 6207TIP3    H118585   1.178   6.403   0.774  0.4398 -0.0388 -0.6133
 6207TIP3    H218586   1.250   6.399   0.907 -0.2416  0.5415 -0.2148
 6208TIP3   OH218587   4.970   4.486   1.648  0.4246 -0.2082  0.5712
 6208TIP3    H118588   4.942   4.577   1.653  0.9667 -0.0845  1.6159
 6208TIP3    H218589   4.958   4.462   1.556  2.0705  1.4724 -0.1344
 6209TIP3   OH218590   3.507   5.781   3.328 -0.1352 -0.1700  0.6299
 6209TIP3    H118591   3.427   5.729   3.333 -0.6299  0.6930  2.6921
 6209TIP3    H218592   3.477   5.872   3.335  1.0034  0.1835  1.0573
 6210TIP3   OH218593   5.577   2.114   4.656  0.2821  0.4370 -0.2166
 6210TIP3    H118594   5.648   2.156   4.608  1.7617 -0.5752  1.0087
 6210TIP3    H218595   5.605   2.116   4.747 -1.9317  1.2892  0.5223
 6211TIP3   OH218596   0.774   0.362   4.080  0.1087 -0.0861 -0.2756
 6211TIP3    H118597   0.719   0.404   4.145  0.7930 -0.4203  0.5323
 6211TIP3    H218598   0.748   0.402   3.997 -2.0284 -0.9259 -0.0621
 6212TIP3   OH218599   3.158   6.248   2.114 -0.2694 -0.1343 -0.1426
 6212TIP3    H118600   3.147   6.301   2.193  0.0127 -0.0295 -0.1703
 6212TIP3    H218601   3.103   6.290   2.049  0.6218  0.6470 -0.4105
 6213TIP3   OH218602   3.062   3.087   3.325  0.0238  0.6068 -0.0830
 6213TIP3    H118603   3.098   3.174   3.345 -0.0839  0.6520 -0.0876
 6213TIP3    H218604   2.967   3.100   3.322 -0.0909  0.2187  1.2373
 6214TIP3   OH218605   2.724   4.670   2.908  0.3505  0.5462  0.2720
 6214TIP3    H118606   2.797   4.652   2.967  0.5383  0.8055  0.1176
 6214TIP3    H218607   2.718   4.592   2.853 -0.8743 -0.4229  1.7015
 6215TIP3   OH218608   4.676   5.648   0.434 -0.7819  0.0481  0.3397
 6215TIP3    H118609   4.584   5.656   0.412 -0.4235  0.7074 -1.0787
 6215TIP3    H218610   4.688   5.556   0.456 -1.5625 -0.2905 -0.5771
 6216TIP3   OH218611   3.930   3.161   5.312  0.0768  0.1387 -0.4056
 6216TIP3    H118612   3.870   3.219   5.360  0.9922  0.4861  0.3499
 6216TIP3    H218613   3.907   3.073   5.342  0.5301  0.3382  0.5959
 6217TIP3   OH218614   4.531   2.346   0.553 -0.3768 -0.3432  0.1129
 6217TIP3    H118615   4.524   2.433   0.514  2.1855 -0.4387 -0.7474
 6217TIP3    H218616   4.605   2.305   0.508  0.6071 -1.7374  2.7613
 6218TIP3   OH218617   6.967   4.764   1.361  0.4201  0.0502  0.1790
 6218TIP3    H118618   6.913   4.728   1.291  1.6040  0.8733 -1.2182
 6218TIP3    H218619   6.904   4.796   1.426 -0.9010  2.3106 -2.0552
 6219TIP3   OH218620   1.945   5.599   2.005 -0.0198  0.0324  0.7821
 6219TIP3    H118621   1.957   5.596   2.100  0.7800  0.3432  0.6985
 6219TIP3    H218622   1.860   5.641   1.993 -0.1036  0.0351  1.3600
 6220TIP3   OH218623   5.865   5.464   5.082 -0.5448  0.0725  0.2204
 6220TIP3    H118624   5.922   5.393   5.111 -1.3623 -2.1749 -3.0495
 6220TIP3    H218625   5.812   5.486   5.158  0.6114 -1.9481  1.6924
 6221TIP3   OH218626   4.218   3.217   1.024  0.4853  0.3876 -0.5354
 6221TIP3    H118627   4.279   3.148   0.995  0.4714  0.2552 -0.2560
 6221TIP3    H218628   4.265   3.261   1.095 -0.8076 -1.4639  1.5667
 6222TIP3   OH218629   3.786   4.863   1.722 -0.3522 -0.4218  0.0758
 6222TIP3    H118630   3.706   4.811   1.723 -0.7087  0.0613  1.9344
 6222TIP3    H218631   3.828   4.842   1.639 -0.4288 -3.7178  0.7581
 6223TIP3   OH218632   5.483   0.632   1.998 -0.3502  0.5967  0.2687
 6223TIP3    H118633   5.529   0.568   2.051 -1.2839  0.2485  0.6790
 6223TIP3    H218634   5.514   0.617   1.909  0.1113  0.1889  0.4975
 6224TIP3   OH218635   3.599   0.600   2.043  0.0449 -0.0413  0.1481
 6224TIP3    H118636   3.560   0.576   2.127 -0.9427  1.7191  0.2428
 6224TIP3    H218637   3.686   0.632   2.066  0.7588 -1.9001  0.1864
 6225TIP3   OH218638   5.485   2.600   1.674  0.2686 -0.1248  0.3151
 6225TIP3    H118639   5.464   2.598   1.580  2.7884  3.4437 -0.5415
 6225TIP3    H218640   5.571   2.558   1.680  0.9022  1.1650  0.6689
 6226TIP3   OH218641   4.621   5.824   5.509  0.4670 -0.0186  0.1923
 6226TIP3    H118642   4.635   5.913   5.475  1.7288  0.1668  1.1267
 6226TIP3    H218643   4.661   5.767   5.444 -1.0132  0.0138 -0.7953
 6227TIP3   OH218644   6.314   3.031   3.911  0.3223 -0.4660 -0.2179
 6227TIP3    H118645   6.402   2.993   3.899 -0.5013 -2.1766 -1.3205
 6227TIP3    H218646   6.312   3.057   4.002  1.8804 -0.7011 -0.0837
 6228TIP3   OH218647   3.598   4.628   4.087  0.3571 -0.1272  0.4503
 6228TIP3    H118648   3.640   4.544   4.105  1.7385  0.6965  1.1835
 6228TIP3    H218649   3.616   4.645   3.995  0.5431 -0.3824  0.4401
 6229TIP3   OH218650   4.970   3.855   5.260 -0.3911  0.1294  0.2705
 6229TIP3    H118651   4.895   3.804   5.291 -0.5131 -1.0476 -1.7819
 6229TIP3    H218652   5.031   3.855   5.334 -0.9539 -1.8603  0.8051
 6230TIP3   OH218653   3.139   4.354   1.518  0.1495 -0.7173 -0.2411
 6230TIP3    H118654   3.144   4.351   1.614  2.6795  2.4843 -0.1035
 6230TIP3    H218655   3.210   4.297   1.488  0.0408 -0.8709 -0.2116
 6231TIP3   OH218656   0.962   5.908   2.685 -0.2879  0.3720  0.4904
 6231TIP3    H118657   1.020   5.832   2.678  1.4041  1.5864  0.8600
 6231TIP3    H218658   0.945   5.934   2.594 -2.4120 -1.4922  0.2604
 6232TIP3   OH218659   4.441   1.698   4.656 -0.9734  0.7306  0.0711
 6232TIP3    H118660   4.389   1.767   4.698 -2.0226 -0.9849  1.7867
 6232TIP3    H218661   4.399   1.616   4.684  1.3816 -0.6862 -0.2610
 6233TIP3   OH218662   2.637   1.517   2.706 -0.0031 -0.2485 -0.0714
 6233TIP3    H118663   2.700   1.553   2.769  0.3167 -0.7350 -0.1099
 6233TIP3    H218664   2.606   1.436   2.746  0.5324 -0.7882 -0.7370
 6234TIP3   OH218665   3.450   1.006   5.664  0.4136 -0.1218 -0.4693
 6234TIP3    H118666   3.419   1.094   5.684  1.1759 -0.0378  0.4239
 6234TIP3    H218667   3.419   0.989   5.575 -0.8007  0.5523 -0.1965
 6235TIP3   OH218668   0.976   1.097   3.653  0.1534 -0.2700  0.7627
 6235TIP3    H118669   0.977   1.193   3.650 -0.1589 -0.2878 -0.7027
 6235TIP3    H218670   0.892   1.075   3.693 -0.6438  0.0812 -0.6426
 6236TIP3   OH218671   2.752   1.114   2.260 -0.4308 -0.2338  0.0697
 6236TIP3    H118672   2.748   1.093   2.353 -0.5538 -0.9314 -0.0903
 6236TIP3    H218673   2.669   1.083   2.225  0.6321 -2.3860 -0.7433
 6237TIP3   OH218674   4.798   0.876   3.023  0.3333  0.0632  0.1931
 6237TIP3    H118675   4.868   0.940   3.027 -0.5267  1.0463 -0.0437
 6237TIP3    H218676   4.732   0.909   3.085 -0.6764  0.1167 -0.8864
 6238TIP3   OH218677   6.970   5.146   4.537  0.4497  0.0569 -0.2374
 6238TIP3    H118678   6.940   5.059   4.566 -0.5838  0.8878  1.3162
 6238TIP3    H218679   7.065   5.143   4.548  0.5341 -1.1618 -1.0482
 6239TIP3   OH218680   3.518   1.662   2.698  0.5760  0.0303 -0.2045
 6239TIP3    H118681   3.467   1.592   2.737  0.5199  0.3193  0.2462
 6239TIP3    H218682   3.462   1.740   2.704  1.1157  0.3805  0.4318
 6240TIP3   OH218683   1.948   2.222   1.510 -0.0507 -0.4018  0.8286
 6240TIP3    H118684   1.891   2.247   1.437  0.8588  0.5186  0.4191
 6240TIP3    H218685   1.961   2.128   1.498 -0.6506 -0.4339  0.3419
 6241TIP3   OH218686   5.032   4.041   2.254  0.7396  0.0170 -0.4655
 6241TIP3    H118687   5.027   3.986   2.332  1.5010  0.9748  0.3024
 6241TIP3    H218688   4.946   4.035   2.214 -0.3468  1.0513  1.5686
 6242TIP3   OH218689   0.414   5.523   4.939  0.2557 -0.1056 -0.1010
 6242TIP3    H118690   0.493   5.473   4.961 -0.1211 -0.7636 -0.2160
 6242TIP3    H218691   0.444   5.613   4.931  1.7129 -0.7435 -3.6629
 6243TIP3   OH218692   0.298   4.092   0.302  0.6677  0.7459 -0.0675
 6243TIP3    H118693   0.389   4.070   0.282  0.6392 -0.3954  0.9730
 6243TIP3    H218694   0.303   4.174   0.350  1.2722  0.0591  1.0875
 6244TIP3   OH218695   0.641   3.206   2.498 -0.3104  0.2850 -0.5339
 6244TIP3    H118696   0.679   3.292   2.477 -2.1888  1.2843 -0.1002
 6244TIP3    H218697   0.608   3.174   2.414  1.7476 -0.8030 -1.0054
 6245TIP3   OH218698   6.583   0.807   3.407  0.7899 -0.0006  0.3019
 6245TIP3    H118699   6.520   0.852   3.464  0.3135 -0.2158 -0.0495
 6245TIP3    H218700   6.546   0.815   3.319  0.9694 -0.6141  0.1656
 6246TIP3   OH218701   1.396   4.286   1.540 -0.1565  0.0122 -0.0364
 6246TIP3    H118702   1.431   4.371   1.565 -1.5899  0.2937  1.1679
 6246TIP3    H218703   1.360   4.250   1.621 -3.3055  0.1145 -1.2130
 6247TIP3   OH218704   0.436   4.650   2.880  0.2165  0.2263  0.0950
 6247TIP3    H118705   0.424   4.735   2.839 -1.2105 -0.8733 -1.9325
 6247TIP3    H218706   0.351   4.607   2.872  1.5628 -2.3995 -1.5171
 6248TIP3   OH218707   2.015   0.753   3.895 -0.4289 -0.2440  0.2835
 6248TIP3    H118708   2.007   0.694   3.820 -1.1631 -0.3814  0.4602
 6248TIP3    H218709   2.100   0.731   3.934 -0.0158 -0.1258 -0.5378
 6249TIP3   OH218710   0.453   5.893   3.174 -0.8669  0.0605  0.9997
 6249TIP3    H118711   0.448   5.969   3.232  1.1537  0.6375  0.4936
 6249TIP3    H218712   0.464   5.818   3.233  0.4839  0.5686  1.4258
 6250TIP3   OH218713   2.813   6.664   4.487 -0.1878 -0.1933 -0.1757
 6250TIP3    H118714   2.833   6.610   4.563 -0.3156  0.0744  0.0495
 6250TIP3    H218715   2.898   6.696   4.457 -0.1773  0.0629  0.1250
 6251TIP3   OH218716   3.725   3.979   0.695 -0.3014 -0.2503 -0.1555
 6251TIP3    H118717   3.664   3.933   0.638  1.4821 -0.0457 -2.4089
 6251TIP3    H218718   3.801   3.920   0.700 -0.3960 -0.2566  2.0863
 6252TIP3   OH218719   3.641   3.688   3.690  0.2296  0.1118  0.4208
 6252TIP3    H118720   3.590   3.763   3.718 -0.7291 -0.4056  0.1062
 6252TIP3    H218721   3.686   3.658   3.769  0.7647  1.1080  0.5095
 6253TIP3   OH218722   5.392   3.689   3.311  0.7160 -0.1410 -0.2393
 6253TIP3    H118723   5.435   3.605   3.298  0.0726 -0.5090 -0.0171
 6253TIP3    H218724   5.378   3.695   3.406 -1.7237 -1.0566 -0.4675
 6254TIP3   OH218725   2.572   5.668   3.729 -0.2122 -0.3184 -0.1850
 6254TIP3    H118726   2.598   5.612   3.655 -0.6101  0.6035 -1.0364
 6254TIP3    H218727   2.610   5.753   3.710 -0.2312 -0.0884  0.7415
 6255TIP3   OH218728   5.325   3.414   5.511 -0.5925  0.5186 -0.0230
 6255TIP3    H118729   5.311   3.456   5.426 -0.8224 -0.4999 -0.5164
 6255TIP3    H218730   5.336   3.486   5.573 -2.5456  1.3169 -0.5528
 6256TIP3   OH218731   1.601   4.292   0.433 -0.1036 -0.2263  0.5385
 6256TIP3    H118732   1.602   4.196   0.432 -0.8080 -0.2580  1.8679
 6256TIP3    H218733   1.656   4.316   0.507  0.0012  0.3995  0.2598
 6257TIP3   OH218734   1.059   2.418   2.129  0.7078 -0.0798 -0.3111
 6257TIP3    H118735   1.104   2.483   2.075 -1.7748  1.1805 -1.0197
 6257TIP3    H218736   1.015   2.361   2.066 -2.4251  1.5454  0.2481
 6258TIP3   OH218737   5.600   5.236   1.241 -0.0583 -0.2312  0.2941
 6258TIP3    H118738   5.591   5.331   1.247 -1.9776 -0.0941 -2.5233
 6258TIP3    H218739   5.641   5.221   1.156 -1.5041 -1.9157 -0.1873
 6259TIP3   OH218740   5.816   3.117   3.550 -0.1133  0.0107 -0.1933
 6259TIP3    H118741   5.876   3.059   3.597 -1.2712  0.5849  2.1498
 6259TIP3    H218742   5.730   3.077   3.560 -0.9546  2.0345  1.5012
 6260TIP3   OH218743   4.121   3.219   2.950  0.3224  0.5458  0.1905
 6260TIP3    H118744   4.040   3.258   2.982  1.4520  1.4118  2.1554
 6260TIP3    H218745   4.124   3.244   2.858 -1.5952  0.5199  0.0695
 6261TIP3   OH218746   4.094   6.695   4.944  0.6529  0.2826  0.1291
 6261TIP3    H118747   4.119   6.612   4.986  2.0965  0.1025 -0.9983
 6261TIP3    H218748   4.174   6.748   4.946  0.4700  0.6606 -1.4074
 6262TIP3   OH218749   4.155   5.019   3.920 -0.0696 -0.0632 -0.1351
 6262TIP3    H118750   4.189   4.931   3.905  0.5337  0.2862 -0.8872
 6262TIP3    H218751   4.070   5.019   3.875  0.6158  0.1971 -1.4980
 6263TIP3   OH218752   4.051   6.571   0.685 -0.1704 -0.1164 -0.0841
 6263TIP3    H118753   4.014   6.652   0.652 -0.1781 -0.3796 -0.7277
 6263TIP3    H218754   4.059   6.514   0.608  2.6305  0.3109 -0.2091
 6264TIP3   OH218755   3.888   6.539   1.817 -0.8311 -0.7905  0.3602
 6264TIP3    H118756   3.907   6.541   1.911  1.6417  1.7595 -0.0647
 6264TIP3    H218757   3.963   6.493   1.779  0.6880  2.2554 -0.6636
 6265TIP3   OH218758   3.617   4.949   4.740 -0.8340 -0.8954 -0.4977
 6265TIP3    H118759   3.618   5.036   4.780 -1.2869 -0.5992 -1.1227
 6265TIP3    H218760   3.660   4.893   4.804 -2.1317 -0.5594  0.7243
 6266TIP3   OH218761   2.618   4.887   1.282  0.3419 -0.3318 -0.5274
 6266TIP3    H118762   2.569   4.830   1.224 -2.2652  1.0736  0.1677
 6266TIP3    H218763   2.635   4.966   1.231 -0.8000  0.3792  0.1531
 6267TIP3   OH218764   1.767   5.230   4.698  0.3979 -0.2761 -0.0772
 6267TIP3    H118765   1.766   5.325   4.709  1.3928 -0.3600  0.8942
 6267TIP3    H218766   1.821   5.216   4.621  0.3212 -0.0606 -0.1733
 6268TIP3   OH218767   3.080   5.112   3.438 -0.1991 -0.1637 -0.0201
 6268TIP3    H118768   3.006   5.168   3.463 -0.6800 -1.1352  0.8039
 6268TIP3    H218769   3.149   5.136   3.500  0.4356  1.1981 -1.1892
 6269TIP3   OH218770   6.446   5.257   2.337 -0.5036 -0.0446 -0.1839
 6269TIP3    H118771   6.384   5.209   2.392 -0.2003  0.0584  0.2571
 6269TIP3    H218772   6.532   5.229   2.368 -0.3182  0.7581  0.0709
 6270TIP3   OH218773   3.299   5.047   4.182  0.3302 -0.0935 -0.0396
 6270TIP3    H118774   3.393   5.029   4.190  1.6644  4.8488 -1.0907
 6270TIP3    H218775   3.286   5.062   4.088 -1.2190  0.5453  0.2506
 6271TIP3   OH218776   0.954   1.267   4.064  0.0719 -0.0416 -0.1173
 6271TIP3    H118777   0.870   1.293   4.025 -0.2502 -1.4715 -0.4516
 6271TIP3    H218778   1.013   1.258   3.989  0.1967 -0.1781 -0.0029
 6272TIP3   OH218779   0.200   6.159   0.727  0.6895  0.2638  0.0966
 6272TIP3    H118780   0.209   6.251   0.750 -0.2079  1.0178 -2.3029
 6272TIP3    H218781   0.286   6.133   0.694  0.6434  0.5946 -0.2932
 6273TIP3   OH218782   2.145   0.886   4.181  0.1660 -0.4570  0.2934
 6273TIP3    H118783   2.147   0.795   4.154 -1.7570 -0.0169 -1.5560
 6273TIP3    H218784   2.059   0.898   4.220 -0.4940  1.0190 -1.4621
 6274TIP3   OH218785   6.290   4.778   1.660  0.7168 -0.2170 -0.2340
 6274TIP3    H118786   6.320   4.813   1.576  1.4747 -0.3055 -0.0109
 6274TIP3    H218787   6.219   4.718   1.637 -0.3881  1.2041 -0.6394
 6275TIP3   OH218788   4.403   5.914   1.063  0.4317  0.3875  0.1149
 6275TIP3    H118789   4.443   5.939   0.980 -2.0742  2.3160 -0.6406
 6275TIP3    H218790   4.379   5.822   1.052  0.6311  0.4647 -1.0634
 6276TIP3   OH218791   1.430   0.425   3.797 -0.3079  0.3633  0.1945
 6276TIP3    H118792   1.394   0.362   3.860  0.4213 -0.0919  0.1670
 6276TIP3    H218793   1.392   0.509   3.823 -2.1840 -0.2363 -0.4488
 6277TIP3   OH218794   1.187   6.444   5.074 -0.0311 -0.4001 -0.0482
 6277TIP3    H118795   1.245   6.511   5.037  0.6127 -0.6265  0.5279
 6277TIP3    H218796   1.152   6.483   5.154  0.8485 -0.9570  0.6399
 6278TIP3   OH218797   4.085   0.349   5.332  0.6365  0.0997 -0.1790
 6278TIP3    H118798   3.990   0.351   5.324  0.3064 -2.9679  1.4946
 6278TIP3    H218799   4.113   0.279   5.273  1.6773 -0.1645  0.5943
 6279TIP3   OH218800   1.477   0.051   5.590  0.0517  0.3096 -0.0144
 6279TIP3    H118801   1.460   0.100   5.510  0.9400  1.4122  0.4207
 6279TIP3    H218802   1.516   0.116   5.649  0.0980 -0.6457  1.0501
 6280TIP3   OH218803   2.580   6.541   5.376  0.3057  0.2337  0.0411
 6280TIP3    H118804   2.635   6.605   5.421  0.3381 -1.3767  2.4697
 6280TIP3    H218805   2.491   6.576   5.386  0.5346  1.1767 -0.9922
 6281TIP3   OH218806   4.552   4.284   2.635 -0.3091  0.1641 -0.5757
 6281TIP3    H118807   4.570   4.312   2.725 -0.9855  0.4766 -0.5276
 6281TIP3    H218808   4.555   4.364   2.583 -0.8129  0.1254 -0.6756
 6282TIP3   OH218809   7.163   4.061   2.302  0.2788  0.2481  0.6939
 6282TIP3    H118810   7.203   4.063   2.389  1.2899 -0.4196  0.2642
 6282TIP3    H218811   7.195   4.140   2.259 -0.0949  0.4978  0.8752
 6283TIP3   OH218812   5.344   4.761   2.034 -0.3658 -0.4352  0.8007
 6283TIP3    H118813   5.372   4.837   1.983 -3.1241  2.4538  3.1366
 6283TIP3    H218814   5.270   4.725   1.985 -0.6378 -0.0151  0.8982
 6284TIP3   OH218815   6.859   3.583   4.814 -0.3051 -0.6452  0.4380
 6284TIP3    H118816   6.793   3.619   4.873 -1.4068 -2.1068  0.1384
 6284TIP3    H218817   6.901   3.660   4.775 -0.2841  0.3388  2.2827
 6285TIP3   OH218818   4.902   0.671   4.528 -0.5510  0.2690 -0.0218
 6285TIP3    H118819   4.884   0.708   4.441  0.2381  0.4683 -0.1058
 6285TIP3    H218820   4.997   0.679   4.538 -0.2162 -2.4401 -0.3712
 6286TIP3   OH218821   3.600   4.800   3.053  0.7925  0.1144 -0.2992
 6286TIP3    H118822   3.621   4.887   3.019  0.5609  0.8847  1.4304
 6286TIP3    H218823   3.526   4.815   3.112  0.3117 -1.3699 -0.4973
 6287TIP3   OH218824   0.491   2.326   2.473  0.0470 -0.2522  0.1207
 6287TIP3    H118825   0.424   2.361   2.531 -0.9423 -0.3665 -0.9314
 6287TIP3    H218826   0.472   2.233   2.466  0.0132 -0.2028 -0.5603
 6288TIP3   OH218827   4.691   2.029   4.186  0.2890  0.0115  0.1669
 6288TIP3    H118828   4.784   2.022   4.208  0.3276 -1.3971 -0.2875
 6288TIP3    H218829   4.655   2.088   4.251  1.5812  0.9112  0.1039
 6289TIP3   OH218830   5.629   5.135   3.131  0.0925  0.3416 -0.3205
 6289TIP3    H118831   5.690   5.141   3.204 -0.3920 -0.6115  0.1861
 6289TIP3    H218832   5.551   5.094   3.169  0.3230 -1.4321 -1.6675
 6290TIP3   OH218833   4.179   1.471   0.648 -0.3956 -0.4604  0.3513
 6290TIP3    H118834   4.220   1.557   0.663  0.4780 -0.5887 -1.1308
 6290TIP3    H218835   4.088   1.491   0.627 -0.2219  0.1023  0.1132
 6291TIP3   OH218836   5.626   0.165   1.597  0.2305 -0.0388  0.3633
 6291TIP3    H118837   5.641   0.088   1.542  1.4646  1.1027 -1.0014
 6291TIP3    H218838   5.535   0.158   1.625 -0.3592 -0.8376 -1.5990
 6292TIP3   OH218839   0.183   1.430   4.087  0.6161  0.3937  0.5271
 6292TIP3    H118840   0.115   1.396   4.030  0.3006 -0.3072  1.3073
 6292TIP3    H218841   0.231   1.493   4.033 -0.5172  0.7441 -0.0939
 6293TIP3   OH218842   7.167   6.564   3.024 -0.5863  0.0147 -0.1893
 6293TIP3    H118843   7.203   6.477   3.008  1.6509  0.8471 -0.0473
 6293TIP3    H218844   7.158   6.603   2.937  0.0904  0.2680 -0.1452
 6294TIP3   OH218845   6.027   1.828   3.525 -0.1041 -0.3302 -0.6325
 6294TIP3    H118846   6.064   1.869   3.447  1.2567  1.2206  0.7380
 6294TIP3    H218847   6.064   1.740   3.526 -1.7257 -1.0935 -2.7377
 6295TIP3   OH218848   0.899   2.142   3.264  0.3442  0.0811 -0.0312
 6295TIP3    H118849   0.806   2.137   3.242  0.4983  0.7549 -0.9081
 6295TIP3    H218850   0.910   2.080   3.336 -0.7225 -0.2325 -0.1182
 6296TIP3   OH218851   3.631   1.680   2.335  0.3358  0.1917 -0.2961
 6296TIP3    H118852   3.572   1.724   2.274 -0.7914 -0.6671  0.1450
 6296TIP3    H218853   3.575   1.654   2.409  1.5622  0.7219  0.8679
 6297TIP3   OH218854   3.873   5.020   1.951  0.5889 -0.0813  0.2822
 6297TIP3    H118855   3.851   4.960   1.879  1.2492 -0.2270  0.2017
 6297TIP3    H218856   3.893   4.962   2.024  2.2463 -0.0053 -0.0793
 6298TIP3   OH218857   1.250   6.186   3.962  0.7340 -0.3697 -0.0779
 6298TIP3    H118858   1.224   6.128   4.033 -0.7584 -1.2384 -1.2869
 6298TIP3    H218859   1.307   6.133   3.906 -0.1142 -0.4886 -0.8436
 6299TIP3   OH218860   0.440   4.913   0.203  0.7286  0.1163 -0.6791
 6299TIP3    H118861   0.391   4.831   0.204  2.1433 -0.7755  0.4503
 6299TIP3    H218862   0.437   4.945   0.293  1.4301  0.5151 -0.7850
 6300TIP3   OH218863   3.904   5.778   3.367  0.4669 -0.0575 -0.7315
 6300TIP3    H118864   3.996   5.752   3.378  0.2919 -0.4308 -0.0801
 6300TIP3    H218865   3.893   5.852   3.426  0.4200  0.1647 -1.0199
 6301TIP3   OH218866   3.916   1.783   1.392 -0.1179 -0.0230 -0.1056
 6301TIP3    H118867   3.832   1.738   1.393 -0.3443  0.3772  1.6803
 6301TIP3    H218868   3.904   1.856   1.331 -1.0721  0.0425  0.1492
 6302TIP3   OH218869   6.245   4.295   4.869  0.0752  0.4705  0.3006
 6302TIP3    H118870   6.207   4.239   4.937  0.8069 -1.0579 -0.5096
 6302TIP3    H218871   6.286   4.367   4.918  2.0933 -1.4692  1.6855
 6303TIP3   OH218872   4.279   1.757   1.724  0.3552 -0.0488 -0.7978
 6303TIP3    H118873   4.307   1.700   1.796  2.0861  1.0896 -0.5081
 6303TIP3    H218874   4.334   1.732   1.650  0.9940  1.0534 -0.7236
 6304TIP3   OH218875   2.400   1.751   5.862  0.6621 -0.1476  0.3445
 6304TIP3    H118876   2.402   1.726   5.770  0.4284 -1.3652  0.6502
 6304TIP3    H218877   2.492   1.760   5.887  0.7149  0.7840 -0.1470
 6305TIP3   OH218878   1.248   1.128   4.285  0.4593 -0.3122 -0.2085
 6305TIP3    H118879   1.152   1.122   4.282  0.5075 -1.2901  0.0062
 6305TIP3    H218880   1.267   1.166   4.370  0.2331  0.9143 -0.6781
 6306TIP3   OH218881   0.538   6.643   4.706  0.0706  0.4488 -0.1530
 6306TIP3    H118882   0.599   6.642   4.780 -0.0942 -0.1902 -0.0243
 6306TIP3    H218883   0.451   6.642   4.747 -0.0572 -2.1639 -0.3334
 6307TIP3   OH218884   6.978   3.190   4.347  0.0825  0.6204  0.5485
 6307TIP3    H118885   7.003   3.236   4.267 -0.4634 -0.2893 -0.1673
 6307TIP3    H218886   7.059   3.149   4.377 -0.0866 -0.6850 -0.6677
 6308TIP3   OH218887   3.344   4.198   1.422 -0.3857  0.1664 -0.4430
 6308TIP3    H118888   3.280   4.128   1.414  0.3247 -1.4109  4.1531
 6308TIP3    H218889   3.427   4.152   1.438  0.1515  1.8834  2.4915
 6309TIP3   OH218890   1.345   1.818   0.445  0.1923 -0.1475 -0.2051
 6309TIP3    H118891   1.315   1.809   0.535  0.3043 -1.1931 -0.2629
 6309TIP3    H218892   1.429   1.863   0.451  0.2348 -0.2864  0.2225
 6310TIP3   OH218893   4.355   4.293   1.434 -0.5657 -0.4376  0.5155
 6310TIP3    H118894   4.422   4.227   1.417 -0.6152 -0.8886  1.9550
 6310TIP3    H218895   4.288   4.276   1.368  0.2498 -0.6346 -0.2911
 6311TIP3   OH218896   1.121   5.799   2.444 -0.1137  0.0729  0.6078
 6311TIP3    H118897   1.099   5.707   2.455 -1.7068  0.4922  1.2349
 6311TIP3    H218898   1.038   5.845   2.455  0.6143  1.5760  0.1127
 6312TIP3   OH218899   6.724   5.658   0.802 -1.1832  0.0355 -1.0013
 6312TIP3    H118900   6.658   5.727   0.800 -1.6147 -0.2075  1.4344
 6312TIP3    H218901   6.759   5.655   0.713 -1.8741  2.6676 -1.4367
 6313TIP3   OH218902   1.964   1.359   0.729 -0.0085  0.3478 -0.4171
 6313TIP3    H118903   2.035   1.423   0.727  0.3772 -0.0194  0.7996
 6313TIP3    H218904   1.981   1.307   0.807 -2.1417  0.8932  0.4845
 6314TIP3   OH218905   0.427   4.780   3.867 -0.4029 -0.5377  0.2636
 6314TIP3    H118906   0.372   4.858   3.860 -0.4516 -0.6256 -0.4407
 6314TIP3    H218907   0.509   4.805   3.823 -0.2978 -0.7816  0.3213
 6315TIP3   OH218908   3.284   1.995   4.551 -0.1847 -0.2937  0.9465
 6315TIP3    H118909   3.289   2.088   4.572  0.0977 -0.0621 -0.0922
 6315TIP3    H218910   3.199   1.985   4.507 -0.9584 -0.8479  2.4830
 6316TIP3   OH218911   4.385   0.230   2.897 -0.5956  0.1223 -0.1261
 6316TIP3    H118912   4.367   0.163   2.830  1.2484 -0.5333 -0.0247
 6316TIP3    H218913   4.474   0.258   2.879 -1.3003  2.5587 -0.1136
 6317TIP3   OH218914   1.692   4.124   1.564 -0.1938  0.7105 -0.4277
 6317TIP3    H118915   1.769   4.149   1.513  0.1376 -0.9885 -0.7966
 6317TIP3    H218916   1.717   4.044   1.609 -1.1809  1.0693  0.8232
 6318TIP3   OH218917   6.079   1.596   1.043 -0.4461 -0.3730 -0.3453
 6318TIP3    H118918   6.015   1.525   1.046 -0.2063 -0.7069 -2.2049
 6318TIP3    H218919   6.133   1.583   1.121 -1.2890 -1.3813  0.0845
 6319TIP3   OH218920   6.474   5.321   5.311  0.5281 -0.4245  0.0075
 6319TIP3    H118921   6.418   5.389   5.274  0.9335 -0.9423 -1.6452
 6319TIP3    H218922   6.504   5.357   5.394 -0.7304  0.6401  0.0220
 6320TIP3   OH218923   3.955   1.762   4.014  0.5107  0.6633  0.3054
 6320TIP3    H118924   3.909   1.741   4.095  1.2709  1.2591  0.9164
 6320TIP3    H218925   4.024   1.822   4.041  1.4843  0.0008 -0.6111
 6321TIP3   OH218926   3.360   2.261   0.728 -0.2592  0.5150  0.2453
 6321TIP3    H118927   3.278   2.223   0.697  0.4945 -0.7262 -0.2877
 6321TIP3    H218928   3.424   2.236   0.662  0.7231  0.7190  1.1070
 6322TIP3   OH218929   1.382   0.658   2.602 -0.1186 -0.5105 -0.4982
 6322TIP3    H118930   1.424   0.727   2.550  1.5841 -1.3402 -0.2987
 6322TIP3    H218931   1.321   0.616   2.542 -0.7546  0.7842 -0.7846
 6323TIP3   OH218932   4.694   6.661   4.481 -0.1706  0.2784  0.4215
 6323TIP3    H118933   4.639   6.677   4.558  0.2963  0.9211  0.6206
 6323TIP3    H218934   4.698   6.745   4.436  0.7069  0.2626  0.4482
 6324TIP3   OH218935   6.283   1.521   4.992  0.1370 -0.1124 -0.3754
 6324TIP3    H118936   6.290   1.429   4.967 -2.2064 -0.3770 -0.2577
 6324TIP3    H218937   6.196   1.548   4.962  1.0738  2.3301 -1.1674
 6325TIP3   OH218938   4.737   0.370   0.763 -0.5009  0.1587  0.1794
 6325TIP3    H118939   4.799   0.416   0.820 -1.0979  0.5403  0.5285
 6325TIP3    H218940   4.699   0.302   0.819 -1.6550  1.0218  0.4863
 6326TIP3   OH218941   3.050   3.699   3.468  0.3003 -0.0462  0.2677
 6326TIP3    H118942   3.107   3.639   3.419  0.4278 -0.8958  1.4006
 6326TIP3    H218943   2.980   3.721   3.406 -0.1351 -1.9474 -0.0054
 6327TIP3   OH218944   6.597   1.937   2.217  0.3608  0.2039  0.7476
 6327TIP3    H118945   6.571   1.860   2.268  2.8501 -0.9142  0.4992
 6327TIP3    H218946   6.656   1.985   2.276 -0.2549  1.3163  0.4774
 6328TIP3   OH218947   2.124   1.025   5.245 -0.4193 -0.5141 -0.4183
 6328TIP3    H118948   2.033   1.008   5.220 -1.4033  1.6643  1.3330
 6328TIP3    H218949   2.129   0.996   5.336  0.5556 -0.3405 -0.4131
 6329TIP3   OH218950   1.475   0.662   1.423 -0.8304 -0.2453 -0.1065
 6329TIP3    H118951   1.478   0.735   1.485 -2.0592 -0.0008 -0.3004
 6329TIP3    H218952   1.465   0.585   1.479 -0.9238 -0.1271  0.0430
 6330TIP3   OH218953   3.754   4.802   3.304  0.2835  0.4739  0.2634
 6330TIP3    H118954   3.714   4.850   3.377  1.1937  2.3750 -0.4464
 6330TIP3    H218955   3.704   4.829   3.227  0.9930  0.5222 -0.1904
 6331TIP3   OH218956   6.866   1.920   0.844 -0.1744  0.1951 -0.4297
 6331TIP3    H118957   6.807   1.983   0.885  0.6035 -0.3908  1.7161
 6331TIP3    H218958   6.809   1.856   0.802 -1.0885 -0.1930  1.3328
 6332TIP3   OH218959   6.671   3.759   4.630  0.5790  0.6578  0.6003
 6332TIP3    H118960   6.692   3.840   4.676 -0.0616  0.9655  0.3762
 6332TIP3    H218961   6.685   3.689   4.695 -0.2613  1.0779  1.2550
 6333TIP3   OH218962   4.063   5.854   3.080  0.2685  0.0576 -0.0973
 6333TIP3    H118963   4.089   5.785   3.018  0.1898  1.4943 -1.7898
 6333TIP3    H218964   3.968   5.853   3.078  0.2441  1.2431 -1.3989
 6334TIP3   OH218965   5.289   1.550   5.431 -0.8832  0.3143  0.8889
 6334TIP3    H118966   5.357   1.511   5.376 -0.4890  1.1177  0.7994
 6334TIP3    H218967   5.226   1.479   5.444 -1.7604  0.4451 -1.8379
 6335TIP3   OH218968   2.944   4.998   1.205 -0.3353 -0.4621 -0.1500
 6335TIP3    H118969   2.976   5.088   1.203  0.5678 -0.7825 -1.4708
 6335TIP3    H218970   2.933   4.979   1.298  1.1623  0.4390  0.2489
 6336TIP3   OH218971   5.882   2.706   2.942  0.1165 -0.5246 -0.5827
 6336TIP3    H118972   5.875   2.801   2.933  0.1376 -0.1645  2.2098
 6336TIP3    H218973   5.960   2.683   2.891  1.6698  1.3953  0.7857
 6337TIP3   OH218974   4.600   2.808   5.627 -1.0111  0.4146  0.7089
 6337TIP3    H118975   4.534   2.752   5.667 -0.7356 -0.7556 -0.3868
 6337TIP3    H218976   4.605   2.777   5.536  0.2560  1.2097  0.4841
 6338TIP3   OH218977   5.018   2.578   5.075 -0.4767  0.2986 -0.5317
 6338TIP3    H118978   5.070   2.654   5.098  0.3991 -0.1466 -0.9717
 6338TIP3    H218979   5.065   2.504   5.114 -0.3922 -0.1826 -1.5228
 6339TIP3   OH218980   1.446   5.906   4.195 -0.0494 -0.0750  0.3149
 6339TIP3    H118981   1.488   5.826   4.162  1.1293  0.2716  0.9327
 6339TIP3    H218982   1.444   5.894   4.290 -2.0716 -0.4113  0.2720
 6340TIP3   OH218983   1.117   6.051   3.017 -0.0339  0.5958 -0.7243
 6340TIP3    H118984   1.201   6.019   2.984  0.4260 -1.6936  2.2307
 6340TIP3    H218985   1.056   5.978   3.004 -0.4592  0.6022  0.9731
 6341TIP3   OH218986   4.570   5.035   0.053 -0.0774  0.5009 -0.5537
 6341TIP3    H118987   4.643   5.091   0.027 -1.0200  1.9216 -0.2478
 6341TIP3    H218988   4.604   4.983   0.125  1.0399  0.1242 -1.3171
 6342TIP3   OH218989   0.947   1.940   3.465  0.0509 -0.1928  0.0612
 6342TIP3    H118990   0.937   1.873   3.398  2.4508 -2.3271  1.6509
 6342TIP3    H218991   0.866   1.935   3.516 -1.5939  1.1261 -2.2369
 6343TIP3   OH218992   4.501   1.107   1.456  0.1220 -0.3331  0.1501
 6343TIP3    H118993   4.532   1.066   1.536  0.7079 -2.8085 -1.2393
 6343TIP3    H218994   4.570   1.170   1.434  0.1119  0.1279  1.3856
 6344TIP3   OH218995   4.008   1.043   2.838  0.2100  0.4129 -0.4626
 6344TIP3    H118996   4.062   1.043   2.916 -0.4596  1.7392  0.0453
 6344TIP3    H218997   4.005   0.952   2.810  1.8087  0.1590  0.0988
 6345TIP3   OH218998   0.122   4.872   1.286  0.0167 -0.2305  0.2478
 6345TIP3    H118999   0.168   4.845   1.366  0.6117  2.4652  0.8976
 6345TIP3    H219000   0.034   4.897   1.317  0.2386  0.7928  0.0843
 6346TIP3   OH219001   6.370   6.074   3.410  0.1006  0.2857  0.3624
 6346TIP3    H119002   6.348   6.085   3.503  1.4949 -0.2576  0.7837
 6346TIP3    H219003   6.313   6.137   3.365 -0.9941  0.1740  1.5188
 6347TIP3   OH219004   5.375   3.026   1.659 -0.1845 -0.0518  0.1761
 6347TIP3    H119005   5.301   3.059   1.607 -1.1879 -0.1070  1.5142
 6347TIP3    H219006   5.404   3.103   1.708 -0.4559 -0.4116  0.9097
 6348TIP3   OH219007   5.151   0.405   3.323 -0.5556 -0.1363 -0.1924
 6348TIP3    H119008   5.194   0.384   3.406 -0.4360  0.5763 -0.0690
 6348TIP3    H219009   5.146   0.321   3.277  0.1020 -0.3973  0.1944
 6349TIP3   OH219010   3.073   0.436   1.717  0.1391  0.0084  0.7425
 6349TIP3    H119011   3.132   0.472   1.651  1.0172 -0.8595  1.0238
 6349TIP3    H219012   3.012   0.507   1.736  1.9643  1.4525  1.4911
 6350TIP3   OH219013   0.625   5.636   3.978  0.1382  0.1736 -0.2155
 6350TIP3    H119014   0.563   5.642   3.906 -0.9845 -1.7628  0.5228
 6350TIP3    H219015   0.609   5.714   4.030 -1.5100 -0.1521 -0.2008
 6351TIP3   OH219016   0.407   0.407   0.957 -0.6482 -0.0431  0.0260
 6351TIP3    H119017   0.390   0.359   1.038 -1.2320 -0.9878 -0.6218
 6351TIP3    H219018   0.499   0.434   0.964 -1.1355  1.3370  1.6973
 6352TIP3   OH219019   4.038   3.845   1.740  0.4689  0.2013 -0.1633
 6352TIP3    H119020   4.040   3.870   1.648 -1.0607 -0.8902 -0.5277
 6352TIP3    H219021   4.065   3.924   1.787  0.6113  0.9742 -1.5035
 6353TIP3   OH219022   2.504   4.145   3.936 -0.1833 -0.0730  0.0010
 6353TIP3    H119023   2.424   4.118   3.890  0.6098 -1.3257 -0.6957
 6353TIP3    H219024   2.494   4.111   4.024  0.2546 -1.6694 -0.5258
 6354TIP3   OH219025   5.808   2.629   2.120  0.2849 -0.1188  0.3850
 6354TIP3    H119026   5.737   2.638   2.057  1.0480 -0.7721 -0.5988
 6354TIP3    H219027   5.850   2.546   2.097 -0.2173 -1.0836  2.6028
 6355TIP3   OH219028   5.434   2.938   3.466 -0.6880  0.1283 -0.0701
 6355TIP3    H119029   5.455   2.990   3.543 -2.0575  0.2934  0.2271
 6355TIP3    H219030   5.373   2.871   3.499 -1.2669  0.1884 -1.0025
 6356TIP3   OH219031   2.546   0.334   3.686  0.6136 -0.0911  0.2518
 6356TIP3    H119032   2.586   0.302   3.605  2.5697 -1.2779  1.5949
 6356TIP3    H219033   2.580   0.276   3.754  0.3082  1.8488  2.1602
 6357TIP3   OH219034   6.845   4.784   0.130  0.2893 -0.5022 -0.0678
 6357TIP3    H119035   6.763   4.802   0.084  0.4155 -0.0162 -0.1170
 6357TIP3    H219036   6.868   4.868   0.170  1.0986 -0.4584 -0.5961
 6358TIP3   OH219037   1.169   4.739   1.619 -0.3608  0.0229  0.1513
 6358TIP3    H119038   1.178   4.667   1.557 -1.1791 -0.4841  0.6092
 6358TIP3    H219039   1.259   4.757   1.648 -0.1565 -0.8789  0.1010
 6359TIP3   OH219040   2.599   5.558   1.600 -0.1206  0.0153  0.1471
 6359TIP3    H119041   2.684   5.577   1.639 -0.1449  1.6932 -0.5242
 6359TIP3    H219042   2.620   5.509   1.521  0.1960 -0.0642  0.2800
 6360TIP3   OH219043   0.488   5.839   4.411  0.2134 -0.0707 -0.0927
 6360TIP3    H119044   0.464   5.765   4.466 -0.3066 -0.0769 -0.3217
 6360TIP3    H219045   0.514   5.907   4.473  1.8086 -0.7965  0.0963
 6361TIP3   OH219046   3.311   1.518   5.813  0.6184 -0.4999  0.2206
 6361TIP3    H119047   3.234   1.522   5.870  0.8553 -2.5856  0.7434
 6361TIP3    H219048   3.320   1.608   5.780 -2.2223 -0.2480 -0.1491
 6362TIP3   OH219049   5.783   2.260   2.825  0.5950  0.2059  0.3758
 6362TIP3    H119050   5.792   2.203   2.902  0.6107 -0.4507 -0.0999
 6362TIP3    H219051   5.860   2.317   2.828  0.1700  0.7522  1.2995
 6363TIP3   OH219052   3.473   0.266   5.692  0.4367  1.0914  0.1891
 6363TIP3    H119053   3.487   0.327   5.621 -0.8668  1.0259 -0.1434
 6363TIP3    H219054   3.481   0.179   5.651  1.0779  1.0306  0.4199
 6364TIP3   OH219055   5.079   1.695   2.366 -0.1084  0.0777 -0.2195
 6364TIP3    H119056   5.010   1.754   2.395 -1.4785 -1.4530 -0.1934
 6364TIP3    H219057   5.155   1.751   2.352 -1.6165  1.9771 -1.1893
 6365TIP3   OH219058   1.470   1.870   3.889  0.6431 -0.1020  0.1450
 6365TIP3    H119059   1.515   1.791   3.859 -1.1348 -1.2899  0.3890
 6365TIP3    H219060   1.389   1.837   3.929  0.9406  1.6756  2.4523
 6366TIP3   OH219061   2.139   2.225   3.306 -0.2512 -0.3071 -0.1428
 6366TIP3    H119062   2.044   2.214   3.295 -0.1858 -0.8704 -0.1833
 6366TIP3    H219063   2.169   2.260   3.223 -0.6780  1.7012  0.4740
 6367TIP3   OH219064   6.608   1.948   3.402  0.1392  0.0267  0.3648
 6367TIP3    H119065   6.662   1.971   3.326 -0.8863  0.5646 -0.2157
 6367TIP3    H219066   6.561   1.870   3.375  1.3192 -1.0170  1.2258
 6368TIP3   OH219067   1.377   5.075   0.144  0.3481  0.2218 -0.1026
 6368TIP3    H119068   1.394   5.003   0.083  0.1238  0.8245 -0.8947
 6368TIP3    H219069   1.441   5.063   0.214 -0.1577 -1.1672  0.1674
 6369TIP3   OH219070   3.480   3.571   4.857  0.0489 -0.1820  0.1368
 6369TIP3    H119071   3.407   3.519   4.821  0.2203 -0.3376  0.0130
 6369TIP3    H219072   3.474   3.654   4.811  0.3106 -0.4065 -0.3102
 6370TIP3   OH219073   5.529   6.353   3.395 -0.0741 -0.0137 -0.5864
 6370TIP3    H119074   5.504   6.271   3.352  0.7387 -1.5675  1.6622
 6370TIP3    H219075   5.586   6.397   3.332  1.5289 -2.4246 -0.9671
 6371TIP3   OH219076   2.034   2.772   5.590  0.0627  0.1432  0.0865
 6371TIP3    H119077   2.117   2.744   5.550 -0.0184 -0.8209  0.5578
 6371TIP3    H219078   1.988   2.690   5.608 -0.7905  0.6554  0.2713
 6372TIP3   OH219079   3.561   3.092   0.835  0.0961 -0.0924 -0.4447
 6372TIP3    H119080   3.493   3.076   0.770 -0.2013 -0.2265 -0.1020
 6372TIP3    H219081   3.633   3.034   0.808 -0.1131 -0.3173 -0.5199
 6373TIP3   OH219082   5.585   2.902   5.521  0.1672 -0.2561  0.0177
 6373TIP3    H119083   5.619   2.866   5.439  2.7006  0.6934  0.5528
 6373TIP3    H219084   5.531   2.976   5.494 -0.2262 -0.8306 -0.8331
 6374TIP3   OH219085   1.632   2.060   3.000  0.3769  0.1358  0.6339
 6374TIP3    H119086   1.591   2.093   3.080 -1.9069  0.1951 -0.4736
 6374TIP3    H219087   1.582   2.101   2.929  1.3701 -1.0619 -0.8199
 6375TIP3   OH219088   1.431   3.031   5.543  0.2944 -0.3436  0.0183
 6375TIP3    H119089   1.377   3.038   5.464 -0.1038 -1.9970  0.0875
 6375TIP3    H219090   1.378   3.071   5.612  2.0876  4.4034 -1.0401
 6376TIP3   OH219091   5.654   6.416   2.041  0.3628 -0.1960 -0.2497
 6376TIP3    H119092   5.660   6.415   2.137 -1.0924 -0.0345 -0.1406
 6376TIP3    H219093   5.734   6.372   2.012  1.2983  0.6123  1.0008
 6377TIP3   OH219094   6.075   0.898   4.139 -0.3971  0.3989 -0.4327
 6377TIP3    H119095   6.014   0.956   4.185  0.0752  0.5126  0.0622
 6377TIP3    H219096   6.154   0.951   4.128  0.2576 -0.3294  0.5701
 6378TIP3   OH219097   1.904   3.046   1.228 -0.1739 -0.5486  0.2450
 6378TIP3    H119098   1.952   3.108   1.284 -1.2684  0.4829  0.0770
 6378TIP3    H219099   1.946   2.962   1.245  1.8639  0.3270 -0.0802
 6379TIP3   OH219100   0.606   3.485   5.115 -0.1597  0.4931 -0.2099
 6379TIP3    H119101   0.612   3.411   5.054  0.1950 -0.7604  1.2998
 6379TIP3    H219102   0.607   3.562   5.058 -3.2682 -0.6228 -2.0584
 6380TIP3   OH219103   1.354   1.383   4.034  0.2967  0.1050  0.6720
 6380TIP3    H119104   1.284   1.420   4.088 -0.7126 -0.9092  0.1322
 6380TIP3    H219105   1.433   1.393   4.086 -0.5619 -0.4055  2.1529
 6381TIP3   OH219106   0.692   2.347   2.660  0.4463  0.1715 -0.1221
 6381TIP3    H119107   0.663   2.260   2.687  0.7707 -0.1622 -0.8150
 6381TIP3    H219108   0.696   2.342   2.564 -0.5853  1.2815 -0.2526
 6382TIP3   OH219109   0.207   3.999   2.024 -0.0932  0.3041 -0.0941
 6382TIP3    H119110   0.284   3.946   2.042  1.3479  2.0046 -0.9784
 6382TIP3    H219111   0.176   3.969   1.938 -0.4116 -0.3531  0.2455
 6383TIP3   OH219112   4.647   1.524   5.530 -0.0017  0.3822  0.5858
 6383TIP3    H119113   4.576   1.465   5.557 -1.3123  0.8945 -1.5361
 6383TIP3    H219114   4.719   1.503   5.590 -1.8647 -0.2623  2.7468
 6384TIP3   OH219115   3.599   5.980   2.918 -0.3091 -0.2437  0.3581
 6384TIP3    H119116   3.516   5.987   2.965 -0.2368  1.0517  0.3238
 6384TIP3    H219117   3.641   6.065   2.930  0.5487 -0.5240 -0.5072
 6385TIP3   OH219118   4.578   2.847   2.264  0.2600 -0.0264 -0.1157
 6385TIP3    H119119   4.656   2.806   2.226  0.5809  1.4186 -1.0853
 6385TIP3    H219120   4.527   2.774   2.298  1.3844 -1.1209 -0.6954
 6386TIP3   OH219121   2.477   5.563   3.944 -0.2723 -0.0321  0.1906
 6386TIP3    H119122   2.494   5.615   3.865  0.3194  0.3550  0.5628
 6386TIP3    H219123   2.442   5.480   3.911  0.2656  0.0048 -0.5041
 6387TIP3   OH219124   1.928   1.017   1.268  0.1015  0.0477 -0.3726
 6387TIP3    H119125   2.023   1.010   1.261  0.4149  2.1398  0.6851
 6387TIP3    H219126   1.896   1.006   1.179  1.4207  0.1718 -0.8867
 6388TIP3   OH219127   6.127   1.316   4.123 -0.0470 -0.0353 -0.1143
 6388TIP3    H119128   6.165   1.375   4.057  2.0096 -0.2234  0.8351
 6388TIP3    H219129   6.092   1.243   4.072  0.4556  0.3754 -1.0823
 6389TIP3   OH219130   3.908   0.721   1.999  0.5886 -0.0870  0.5580
 6389TIP3    H119131   3.898   0.709   1.905 -0.2385  2.1970  0.2822
 6389TIP3    H219132   3.999   0.750   2.010  0.3656  0.7069  0.3235
 6390TIP3   OH219133   2.494   3.477   2.604  0.3307  0.4207 -0.0869
 6390TIP3    H119134   2.472   3.527   2.525 -0.5509  0.1241 -0.0345
 6390TIP3    H219135   2.471   3.386   2.582 -0.8455  0.4748  0.8456
 6391TIP3   OH219136   2.112   5.567   2.747  0.5380  0.2484  0.4999
 6391TIP3    H119137   2.196   5.588   2.788  1.0798 -2.0031  0.6853
 6391TIP3    H219138   2.070   5.506   2.807 -0.3307 -0.2322 -0.5503
 6392TIP3   OH219139   2.302   6.199   3.805 -0.3064 -0.1452  0.0824
 6392TIP3    H119140   2.208   6.203   3.789 -0.2173  0.7868 -0.2566
 6392TIP3    H219141   2.314   6.249   3.886 -0.2737 -1.5599  0.9914
 6393TIP3   OH219142   4.390   3.551   0.922 -0.2160 -0.1055  0.1886
 6393TIP3    H119143   4.295   3.557   0.930 -0.3376 -0.5448 -0.8056
 6393TIP3    H219144   4.405   3.473   0.869  0.8138 -1.4290  2.2995
 6394TIP3   OH219145   2.923   0.179   5.161 -0.4302 -0.2758 -0.5378
 6394TIP3    H119146   2.885   0.142   5.081 -0.3340 -1.3740 -0.0877
 6394TIP3    H219147   2.886   0.267   5.165 -0.5914 -0.2705 -1.6864
 6395TIP3   OH219148   5.847   0.708   3.100 -0.1422 -0.0755  0.8074
 6395TIP3    H119149   5.817   0.796   3.122 -1.8215 -0.4200  0.1045
 6395TIP3    H219150   5.790   0.650   3.151 -1.9481 -0.8032 -1.8160
 6396TIP3   OH219151   2.033   4.053   3.945  0.4569  0.2915  0.5815
 6396TIP3    H119152   1.953   4.001   3.948  0.0896  0.9060  1.6720
 6396TIP3    H219153   2.024   4.117   4.015  0.6989  2.1539 -1.0085
 6397TIP3   OH219154   6.852   1.289   1.565  0.3146  0.0522 -0.2166
 6397TIP3    H119155   6.805   1.368   1.592  0.9503  0.0821  0.8427
 6397TIP3    H219156   6.908   1.318   1.493  0.7501  0.6441  0.3500
 6398TIP3   OH219157   5.014   4.062   5.563 -0.0149 -0.0796 -0.6883
 6398TIP3    H119158   4.921   4.079   5.579 -0.2902 -1.1067 -1.1774
 6398TIP3    H219159   5.027   4.083   5.471  0.5164  1.1620 -0.3655
 6399TIP3   OH219160   0.450   4.535   5.507 -0.2978 -0.5089  0.1801
 6399TIP3    H119161   0.420   4.625   5.498  0.1717 -0.3321  0.3662
 6399TIP3    H219162   0.402   4.500   5.582  0.8176  0.1456  1.2444
 6400TIP3   OH219163   5.010   3.017   5.025  0.5481  0.0762 -0.2977
 6400TIP3    H119164   5.039   3.094   4.977 -2.2678  1.7776  0.4806
 6400TIP3    H219165   4.957   2.968   4.962  0.3085  0.0972 -0.1159
 6401TIP3   OH219166   4.554   5.474   1.144 -0.0325 -0.3530  0.0674
 6401TIP3    H119167   4.528   5.565   1.147 -0.1097 -0.3811  0.3184
 6401TIP3    H219168   4.516   5.440   1.063 -0.4852 -0.3083  0.2579
 6402TIP3   OH219169   5.609   3.947   0.626  0.4289  0.0549 -0.2386
 6402TIP3    H119170   5.581   3.881   0.563 -1.6460  1.5582 -0.9993
 6402TIP3    H219171   5.659   4.011   0.574  0.0674  0.4884 -0.0622
 6403TIP3   OH219172   5.774   0.385   2.467  0.0751 -0.3312 -0.2079
 6403TIP3    H119173   5.824   0.393   2.385 -0.7913 -1.2659 -0.8507
 6403TIP3    H219174   5.725   0.466   2.473  1.5344  0.5487  0.3650
 6404TIP3   OH219175   1.302   0.634   3.889  0.3257  0.1676 -0.1300
 6404TIP3    H119176   1.234   0.650   3.823  0.2983 -0.1891 -0.1890
 6404TIP3    H219177   1.316   0.720   3.929 -0.8398  0.0617  0.5475
 6405TIP3   OH219178   1.340   3.563   0.353 -0.2248 -0.3893  0.2424
 6405TIP3    H119179   1.423   3.584   0.396 -0.5199 -0.4507  0.8556
 6405TIP3    H219180   1.298   3.501   0.412 -0.9736  0.1049  0.2367
 6406TIP3   OH219181   4.295   1.896   4.790 -0.4834  0.3871  0.0524
 6406TIP3    H119182   4.206   1.878   4.819 -0.6879  0.9182 -0.2463
 6406TIP3    H219183   4.299   1.991   4.780 -0.6060  0.2052 -2.2382
 6407TIP3   OH219184   3.670   5.500   5.270 -0.3822 -0.2246  0.9812
 6407TIP3    H119185   3.692   5.499   5.176  1.5163 -2.1579  1.3584
 6407TIP3    H219186   3.575   5.499   5.272 -0.6105  3.0162 -0.8630
 6408TIP3   OH219187   5.400   6.561   3.058 -0.0928  0.0859 -0.2766
 6408TIP3    H119188   5.330   6.496   3.061 -1.0498  0.9141 -2.5284
 6408TIP3    H219189   5.440   6.550   2.971  0.8134  1.3874 -0.0575
 6409TIP3   OH219190   3.498   4.235   3.963 -0.5773  0.0074 -0.2595
 6409TIP3    H119191   3.405   4.211   3.955 -0.9130  0.9897  0.4723
 6409TIP3    H219192   3.514   4.235   4.058  0.0923  0.1422 -0.3701
 6410TIP3   OH219193   4.979   5.875   5.190  0.4664  0.4062  0.2024
 6410TIP3    H119194   4.964   5.780   5.188  1.0332  0.3266 -0.3534
 6410TIP3    H219195   5.006   5.897   5.101 -3.2753  1.7062 -0.8351
 6411TIP3   OH219196   6.074   3.195   0.959  0.6319 -0.1344 -0.8006
 6411TIP3    H119197   6.146   3.132   0.949 -0.1442 -0.9740 -1.1513
 6411TIP3    H219198   6.009   3.168   0.894 -1.2646 -1.1551  1.3652
 6412TIP3   OH219199   4.551   0.800   2.516 -0.3819 -0.0867  0.4385
 6412TIP3    H119200   4.455   0.803   2.521 -0.5029  1.7144 -1.4891
 6412TIP3    H219201   4.569   0.748   2.437  0.3867 -2.5721  2.1231
 6413TIP3   OH219202   6.689   6.276   2.656  0.2138 -0.0012 -0.1303
 6413TIP3    H119203   6.752   6.214   2.620  1.1657  1.2743 -0.7814
 6413TIP3    H219204   6.714   6.286   2.748  0.7391  0.2081 -0.2924
 6414TIP3   OH219205   6.813   4.130   3.990 -0.1725 -0.3703  0.3429
 6414TIP3    H119206   6.738   4.080   4.024 -0.4709 -0.0868  0.0965
 6414TIP3    H219207   6.819   4.105   3.898 -0.8124  0.6404  0.0111
 6415TIP3   OH219208   2.918   2.318   5.171  0.2025 -0.2294 -0.1324
 6415TIP3    H119209   2.940   2.407   5.196  2.1860 -0.7472  0.1722
 6415TIP3    H219210   2.973   2.301   5.094  0.0658 -1.2568 -0.0196
 6416TIP3   OH219211   5.699   1.066   2.282 -0.7844  0.2318  0.3358
 6416TIP3    H119212   5.652   1.148   2.294 -2.1056 -0.2806 -0.9199
 6416TIP3    H219213   5.722   1.038   2.371 -0.7174  1.7086  0.8095
 6417TIP3   OH219214   3.417   5.800   4.681 -0.1454  0.3146 -0.1614
 6417TIP3    H119215   3.467   5.776   4.759  0.2606 -0.1858 -0.5651
 6417TIP3    H219216   3.453   5.884   4.655 -0.5164  0.6511  0.3787
 6418TIP3   OH219217   5.843   6.484   2.761 -0.1616 -0.1565  0.2587
 6418TIP3    H119218   5.925   6.480   2.712  0.3933  1.3479  1.0000
 6418TIP3    H219219   5.785   6.539   2.708 -0.7487 -1.2834 -0.3039
 6419TIP3   OH219220   4.265   1.626   1.960 -0.5454 -0.0688  0.1228
 6419TIP3    H119221   4.244   1.636   2.053 -0.3530  0.4053  0.1180
 6419TIP3    H219222   4.209   1.554   1.930 -0.8126 -0.0348  0.5354
 6420TIP3   OH219223   2.499   2.431   4.870 -0.0480  0.3888 -0.1725
 6420TIP3    H119224   2.594   2.427   4.877  0.0725  1.6717 -0.7110
 6420TIP3    H219225   2.467   2.414   4.958  0.4819 -3.3480 -0.5523
 6421TIP3   OH219226   4.650   4.480   4.336 -0.0264 -0.0161 -0.2422
 6421TIP3    H119227   4.653   4.397   4.288  0.9106 -0.8306  1.1114
 6421TIP3    H219228   4.599   4.539   4.281 -0.6793 -1.4793 -1.2708
 6422TIP3   OH219229   5.890   1.669   1.810  0.1708 -0.2047 -0.0595
 6422TIP3    H119230   5.917   1.755   1.778 -0.4621 -0.4398 -1.2903
 6422TIP3    H219231   5.971   1.618   1.814  0.6106  0.5366  1.0507
 6423TIP3   OH219232   2.046   3.441   1.807  0.2567 -0.2148  0.1433
 6423TIP3    H119233   1.966   3.418   1.854 -0.6576  0.9733 -0.8027
 6423TIP3    H219234   2.076   3.358   1.770 -0.2574 -0.7561  0.8950
 6424TIP3   OH219235   3.711   3.469   3.392 -0.7476 -0.1299 -0.0433
 6424TIP3    H119236   3.788   3.526   3.396  0.1504 -1.2724 -0.2926
 6424TIP3    H219237   3.639   3.523   3.424  0.0074  1.2190 -0.5251
 6425TIP3   OH219238   0.430   2.257   3.248  0.5676  0.5430 -0.2307
 6425TIP3    H119239   0.338   2.253   3.221  0.7261 -0.7970 -0.6490
 6425TIP3    H219240   0.426   2.264   3.344  0.0203  0.4411 -0.2379
 6426TIP3   OH219241   4.616   4.768   3.738 -0.1307 -0.0437 -0.6063
 6426TIP3    H119242   4.664   4.705   3.792  0.1786  1.0044  0.3783
 6426TIP3    H219243   4.551   4.806   3.797 -2.6991 -1.8482 -2.0380
 6427TIP3   OH219244   5.964   1.914   4.301 -0.1105  0.3952  0.1678
 6427TIP3    H119245   5.975   1.951   4.213 -0.2635  1.8203  0.7290
 6427TIP3    H219246   5.914   1.834   4.286  0.8809 -0.0170 -1.1618
 6428TIP3   OH219247   5.514   4.776   3.610  0.2306  0.3203  0.1246
 6428TIP3    H119248   5.425   4.740   3.618 -0.0932  0.8325 -0.9730
 6428TIP3    H219249   5.532   4.815   3.695 -0.6623  0.3435  0.3129
 6429TIP3   OH219250   0.789   6.264   0.626 -0.3801  0.0085 -0.0324
 6429TIP3    H119251   0.809   6.342   0.573 -0.7121  0.6710  0.7812
 6429TIP3    H219252   0.699   6.279   0.656  0.2991  0.3859  1.9310
 6430TIP3   OH219253   5.485   5.707   4.690  0.2679  0.6446  0.5448
 6430TIP3    H119254   5.525   5.763   4.756 -1.3811  2.1035  0.3783
 6430TIP3    H219255   5.498   5.754   4.607  0.8500 -0.3509  0.0525
 6431TIP3   OH219256   6.563   6.578   5.312  0.8384 -0.6259  0.0648
 6431TIP3    H119257   6.562   6.667   5.276  1.3702 -0.9186 -0.6951
 6431TIP3    H219258   6.523   6.524   5.244 -0.9759 -0.7602  1.1618
 6432TIP3   OH219259   3.999   0.276   3.377  0.0226  0.1263 -0.1935
 6432TIP3    H119260   3.948   0.339   3.327 -0.1569 -0.6279 -1.0015
 6432TIP3    H219261   3.961   0.191   3.355  0.2045 -0.2619  0.9334
 6433TIP3   OH219262   6.008   4.013   0.075 -0.1084 -0.0053 -0.3890
 6433TIP3    H119263   5.947   3.940   0.066 -1.5015  0.5980  2.7992
 6433TIP3    H219264   6.086   3.974   0.115 -0.5499  0.0882  0.5853
 6434TIP3   OH219265   1.269   4.422   2.283  0.0136  0.1874  0.1236
 6434TIP3    H119266   1.221   4.355   2.331 -1.1417  0.6389 -0.3789
 6434TIP3    H219267   1.283   4.492   2.347  1.1030 -0.4383  0.6105
 6435TIP3   OH219268   3.814   4.460   4.285  0.8262 -0.3387 -0.3120
 6435TIP3    H119269   3.890   4.482   4.339  1.3069 -0.3216 -0.9827
 6435TIP3    H219270   3.846   4.392   4.226  0.3948 -0.1465 -0.7747
 6436TIP3   OH219271   5.375   5.521   4.123 -0.4554  0.4009  0.0596
 6436TIP3    H119272   5.356   5.432   4.093  1.7860  1.0086 -3.9823
 6436TIP3    H219273   5.436   5.509   4.196  0.5686 -1.4479 -1.0114
 6437TIP3   OH219274   2.287   1.879   0.316 -0.2843 -0.1774  0.0600
 6437TIP3    H119275   2.202   1.922   0.309  0.1464  0.6542 -0.2505
 6437TIP3    H219276   2.267   1.787   0.333 -1.2968 -0.5063 -2.5430
 6438TIP3   OH219277   3.893   4.232   0.409  0.2636 -0.4966  0.1346
 6438TIP3    H119278   3.896   4.172   0.483 -0.4127 -1.3324 -0.5031
 6438TIP3    H219279   3.812   4.210   0.363 -1.0279  2.1284  0.8985
 6439TIP3   OH219280   4.369   2.739   5.764 -0.7455  0.3324  0.1971
 6439TIP3    H119281   4.370   2.812   5.826  2.6917  0.5459  0.0933
 6439TIP3    H219282   4.407   2.665   5.813 -0.6870 -0.3101 -0.7788
 6440TIP3   OH219283   1.333   5.059   5.506  0.3626 -0.2290  0.2975
 6440TIP3    H119284   1.388   5.103   5.441 -0.1180  0.0716  0.0891
 6440TIP3    H219285   1.338   5.116   5.584  0.8338 -0.5215  0.4844
 6441TIP3   OH219286   5.565   5.816   4.454  0.3304  0.0108 -0.0072
 6441TIP3    H119287   5.511   5.763   4.396 -0.2247  1.0678 -0.4655
 6441TIP3    H219288   5.655   5.802   4.423  0.1001  0.0267 -0.6725
 6442TIP3   OH219289   6.549   0.466   3.262 -0.0375 -0.1479  0.1579
 6442TIP3    H119290   6.616   0.454   3.194 -0.1505 -2.0933  0.3365
 6442TIP3    H219291   6.599   0.483   3.342  0.1316  0.7636 -0.1178
 6443TIP3   OH219292   2.505   5.246   0.339 -0.3364 -0.0637 -0.1826
 6443TIP3    H119293   2.499   5.152   0.323  1.0181 -0.0577 -0.8381
 6443TIP3    H219294   2.487   5.287   0.254 -3.0594  0.3943  0.5370
 6444TIP3   OH219295   5.939   4.247   3.468  0.3175  0.1906 -0.8011
 6444TIP3    H119296   5.945   4.189   3.543  0.8322 -0.7582 -1.5572
 6444TIP3    H219297   5.991   4.324   3.492 -0.0852  0.2047  0.0654
 6445TIP3   OH219298   4.807   2.264   4.827 -0.0882 -0.1745  0.6525
 6445TIP3    H119299   4.712   2.277   4.837 -0.0666  0.0016  0.6420
 6445TIP3    H219300   4.818   2.170   4.819 -0.3267 -0.1473 -0.0192
 6446TIP3   OH219301   5.722   6.040   4.095  0.2596 -0.1698  0.4264
 6446TIP3    H119302   5.757   6.124   4.066  1.0716 -0.0777  1.5759
 6446TIP3    H219303   5.736   5.980   4.021 -2.2553  1.1503 -1.2331
 6447TIP3   OH219304   5.988   4.676   5.577  0.6228  0.5432 -0.1522
 6447TIP3    H119305   5.981   4.750   5.638 -0.9599  0.2923  0.0261
 6447TIP3    H219306   6.017   4.603   5.632  0.3586  0.5952  0.0609
 6448TIP3   OH219307   0.846   3.654   3.872 -0.2686 -0.2182  0.3581
 6448TIP3    H119308   0.886   3.571   3.898 -0.7143  0.3407  3.2247
 6448TIP3    H219309   0.899   3.721   3.917  0.3912  1.1715 -2.2671
 6449TIP3   OH219310   2.678   0.221   4.640  0.6136  0.0659  0.4601
 6449TIP3    H119311   2.682   0.216   4.544  0.2589  2.9232  0.1949
 6449TIP3    H219312   2.604   0.166   4.664  1.5634 -1.8256 -0.7315
 6450TIP3   OH219313   1.954   0.498   3.790  0.5861 -0.3841  0.3954
 6450TIP3    H119314   1.950   0.417   3.841 -0.0281 -0.8164 -0.3100
 6450TIP3    H219315   1.897   0.559   3.836  1.3023 -0.2401  1.1071
 6451TIP3   OH219316   6.038   1.787   2.434  0.2821 -0.0589 -0.0760
 6451TIP3    H119317   6.114   1.839   2.408  0.8437 -0.5956  0.4392
 6451TIP3    H219318   5.964   1.847   2.426  0.4948 -0.0089 -2.2420
 6452TIP3   OH219319   0.843   1.056   5.838  1.3680 -0.3067  0.1877
 6452TIP3    H119320   0.840   0.967   5.874 -0.4838 -0.1013  0.6625
 6452TIP3    H219321   0.790   1.108   5.899  0.9053  0.7368 -1.0520
 6453TIP3   OH219322   1.353   4.636   4.048 -0.1592 -0.1664 -0.1903
 6453TIP3    H119323   1.306   4.719   4.061 -2.1509 -1.3644  0.5809
 6453TIP3    H219324   1.433   4.662   4.003  0.9634  2.6607  2.9417
 6454TIP3   OH219325   3.532   0.438   2.251 -0.1137  0.6602  0.0289
 6454TIP3    H119326   3.443   0.446   2.285 -0.1826 -0.4877  0.1487
 6454TIP3    H219327   3.585   0.415   2.327  0.3253  1.4865 -0.0131
 6455TIP3   OH219328   2.030   4.858   2.346  0.0124  0.2751 -0.1469
 6455TIP3    H119329   2.073   4.919   2.405  1.0453 -2.0091  1.6096
 6455TIP3    H219330   1.961   4.818   2.398 -0.3099 -0.4313 -1.0777
 6456TIP3   OH219331   6.079   5.535   2.138  0.2801 -0.4023  0.1837
 6456TIP3    H119332   6.159   5.483   2.131  0.6280  0.1070  0.3519
 6456TIP3    H219333   6.109   5.626   2.139 -0.2202 -0.2284  1.2481
 6457TIP3   OH219334   4.913   0.083   4.700 -0.2684  0.4340 -0.5191
 6457TIP3    H119335   4.843   0.129   4.745  0.2401  1.2451 -0.5335
 6457TIP3    H219336   4.938   0.141   4.628  0.5324  0.2432 -0.4043
 6458TIP3   OH219337   5.059   3.173   4.252  0.1673 -0.3412  1.0289
 6458TIP3    H119338   5.076   3.161   4.158  0.7566 -2.1974  1.3380
 6458TIP3    H219339   5.014   3.093   4.279  2.2218 -0.9960  2.8232
 6459TIP3   OH219340   4.096   5.109   1.492  0.3575 -0.1750  0.2278
 6459TIP3    H119341   4.162   5.063   1.544  0.1335  0.7401  1.3493
 6459TIP3    H219342   4.018   5.110   1.548 -0.3397 -0.4196 -0.7083
 6460TIP3   OH219343   2.461   1.700   2.798 -0.4296 -0.1986 -0.1532
 6460TIP3    H119344   2.529   1.642   2.764 -0.1613  0.6972 -1.1982
 6460TIP3    H219345   2.454   1.676   2.891  0.2232 -1.3456 -0.3773
 6461TIP3   OH219346   1.382   4.415   4.207 -0.1169 -0.4582 -0.4794
 6461TIP3    H119347   1.345   4.483   4.151  0.8025  0.7419  0.3145
 6461TIP3    H219348   1.471   4.403   4.175  0.0349 -0.6075 -0.0035
 6462TIP3   OH219349   6.826   2.443   2.388 -0.3590  0.5109  0.5206
 6462TIP3    H119350   6.862   2.518   2.435  0.0068 -0.4696  1.8679
 6462TIP3    H219351   6.816   2.375   2.455  0.8925 -1.2114 -0.9359
 6463TIP3   OH219352   3.057   0.939   1.270  0.4358  0.3602  0.2596
 6463TIP3    H119353   3.014   1.025   1.265 -0.2349 -0.0265 -2.2356
 6463TIP3    H219354   2.997   0.886   1.323  0.4992  1.2303  1.2266
 6464TIP3   OH219355   4.410   2.623   2.228  0.0131 -0.0328  0.1714
 6464TIP3    H119356   4.341   2.601   2.290  0.8455 -3.3089  0.1330
 6464TIP3    H219357   4.364   2.647   2.147 -1.1578 -2.2213  0.1105
 6465TIP3   OH219358   3.047   0.198   1.369 -0.3170  0.4610 -0.5197
 6465TIP3    H119359   3.052   0.134   1.440  0.5823  2.1853  1.0631
 6465TIP3    H219360   2.984   0.160   1.307 -0.1145 -1.7251  0.5169
 6466TIP3   OH219361   0.672   4.539   2.915  0.4252  0.4889 -0.1335
 6466TIP3    H119362   0.581   4.566   2.899  0.2797  0.2451  0.2751
 6466TIP3    H219363   0.665   4.448   2.945  0.9752 -0.4413 -2.5979
 6467TIP3   OH219364   2.464   2.611   0.795  0.4407  0.3741  0.4589
 6467TIP3    H119365   2.452   2.683   0.732  0.6343  0.9259  1.0415
 6467TIP3    H219366   2.375   2.591   0.825  0.1936 -0.7710 -0.9236
 6468TIP3   OH219367   6.969   5.192   3.304 -0.6253 -0.3776  0.3098
 6468TIP3    H119368   6.907   5.228   3.241 -0.0568  0.4996  0.2222
 6468TIP3    H219369   6.939   5.225   3.389 -1.2852 -1.4074  0.4806
 6469TIP3   OH219370   6.742   0.662   1.402  0.3097 -0.1128 -0.1614
 6469TIP3    H119371   6.787   0.676   1.319 -0.8513  2.0745 -0.5232
 6469TIP3    H219372   6.674   0.730   1.403  0.2958 -0.0660  2.5731
 6470TIP3   OH219373   4.842   3.230   4.466 -0.0550  0.2901 -0.1009
 6470TIP3    H119374   4.856   3.279   4.547 -0.2427 -1.5377  1.0788
 6470TIP3    H219375   4.918   3.250   4.412  1.3076 -0.3448  1.5134
 6471TIP3   OH219376   6.773   1.037   1.653 -0.1321 -0.2778 -0.4009
 6471TIP3    H119377   6.794   1.027   1.746 -0.5497 -1.3051 -0.4036
 6471TIP3    H219378   6.804   1.125   1.631  1.9031 -0.7937  0.1907
 6472TIP3   OH219379   4.735   5.859   4.120 -0.4610  0.6052  0.0699
 6472TIP3    H119380   4.738   5.828   4.210  0.8397  1.5304  0.3690
 6472TIP3    H219381   4.667   5.805   4.078 -0.4358 -0.4664  1.3471
 6473TIP3   OH219382   1.200   5.455   1.278  0.0253 -0.2202  0.1617
 6473TIP3    H119383   1.149   5.449   1.198 -0.0495  2.2797 -0.0561
 6473TIP3    H219384   1.291   5.447   1.250  0.1344  2.4205 -0.5372
 6474TIP3   OH219385   1.171   6.526   5.623 -0.4361  0.1886  0.5077
 6474TIP3    H119386   1.261   6.559   5.619 -1.3292  2.6911 -2.1900
 6474TIP3    H219387   1.156   6.486   5.538 -2.3717  1.2925  0.2909
 6475TIP3   OH219388   2.577   2.721   4.927  0.1337 -0.4699  0.2393
 6475TIP3    H119389   2.618   2.768   4.855 -1.4910  1.1553  0.3269
 6475TIP3    H219390   2.574   2.630   4.898  0.0844  0.0494 -1.4603
 6476TIP3   OH219391   5.269   0.644   0.934 -0.0541  0.5694 -0.0132
 6476TIP3    H119392   5.270   0.636   1.030  0.4087  1.8977  0.1104
 6476TIP3    H219393   5.332   0.579   0.904 -1.2038 -0.8371  0.4794
 6477TIP3   OH219394   5.222   6.171   5.285 -0.2391 -0.0802  0.4390
 6477TIP3    H119395   5.300   6.221   5.306  0.3752 -1.2190  0.9739
 6477TIP3    H219396   5.245   6.119   5.208 -1.0859  0.9206 -0.5174
 6478TIP3   OH219397   5.255   6.645   2.410 -0.1810 -0.1822  0.0278
 6478TIP3    H119398   5.226   6.736   2.423  0.3761  0.0102 -0.0104
 6478TIP3    H219399   5.240   6.603   2.495  0.2656  0.1541  0.2810
 6479TIP3   OH219400   3.645   3.119   4.616 -0.1117 -0.5776 -0.3556
 6479TIP3    H119401   3.680   3.201   4.650 -2.7023  1.2499 -1.7358
 6479TIP3    H219402   3.652   3.058   4.689 -0.2416  1.5380  1.5248
 6480TIP3   OH219403   1.138   3.639   3.019  0.1371  0.5767  0.0251
 6480TIP3    H119404   1.050   3.673   3.001  0.2506  1.7991  1.5359
 6480TIP3    H219405   1.122   3.564   3.076  0.0380  0.1655 -0.5369
 6481TIP3   OH219406   1.760   4.046   2.700 -0.1233 -0.2676 -0.0535
 6481TIP3    H119407   1.717   3.960   2.702 -0.0354 -0.3286  2.4431
 6481TIP3    H219408   1.688   4.108   2.712  0.0049 -0.0810 -0.2459
 6482TIP3   OH219409   6.744   1.516   1.087 -0.3253  0.1830 -0.2168
 6482TIP3    H119410   6.707   1.604   1.091 -0.3329  0.2035 -0.6862
 6482TIP3    H219411   6.802   1.519   1.010  0.3112  0.0272  0.2491
 6483TIP3   OH219412   4.000   5.099   3.346  0.5624 -0.2448 -0.5667
 6483TIP3    H119413   4.041   5.014   3.331  1.5583  0.1406 -0.1766
 6483TIP3    H219414   4.062   5.145   3.403 -1.5713 -0.5041  2.1631
 6484TIP3   OH219415   2.256   5.238   0.103  0.3294 -0.2260 -0.2307
 6484TIP3    H119416   2.178   5.245   0.048  0.7878  0.0424 -0.8501
 6484TIP3    H219417   2.272   5.327   0.134  1.3885  0.0420 -1.5003
 6485TIP3   OH219418   2.092   6.571   0.014 -0.1860 -0.0821 -0.3035
 6485TIP3    H119419   2.146   6.605   0.085 -1.0828 -0.2319  0.4887
 6485TIP3    H219420   2.081   6.478   0.035 -0.3459 -0.1590 -0.7128
 6486TIP3   OH219421   0.064   5.114   4.591 -0.3007 -0.1891 -0.2039
 6486TIP3    H119422   0.102   5.093   4.505 -0.2061 -1.4402  0.1328
 6486TIP3    H219423   0.129   5.084   4.654 -1.3473 -1.3605  0.3540
 6487TIP3   OH219424   4.337   2.979   4.935  0.3070 -0.2859  0.7711
 6487TIP3    H119425   4.407   2.959   4.997  0.3037 -1.8579  0.2914
 6487TIP3    H219426   4.369   3.058   4.889  1.7209 -0.8895  0.6545
 6488TIP3   OH219427   0.354   3.697   0.922  0.1294  0.0975  0.2569
 6488TIP3    H119428   0.385   3.664   1.006 -2.1032 -2.0589  0.3579
 6488TIP3    H219429   0.268   3.734   0.942  0.3592  1.2734 -0.8035
 6489TIP3   OH219430   3.405   4.813   3.249 -0.7398  0.5813  0.4816
 6489TIP3    H119431   3.391   4.892   3.301 -2.3416  0.9113 -0.3847
 6489TIP3    H219432   3.324   4.763   3.259 -0.0589 -0.5801  0.3771
 6490TIP3   OH219433   6.238   0.022   3.821 -0.0364 -0.0463  0.6131
 6490TIP3    H119434   6.321  -0.007   3.784  0.7811  1.5280  1.0958
 6490TIP3    H219435   6.200   0.079   3.754 -0.4919 -0.3576  0.6016
 6491TIP3   OH219436   2.552   2.815   4.088  0.3298  0.2469  0.1161
 6491TIP3    H119437   2.594   2.888   4.043 -0.8308  0.5762 -0.4805
 6491TIP3    H219438   2.494   2.857   4.152 -0.7868 -0.1088 -0.6333
 6492TIP3   OH219439   5.966   2.637   2.361  0.1257 -0.3889 -0.0502
 6492TIP3    H119440   5.925   2.630   2.275  0.2940 -1.8761 -0.0334
 6492TIP3    H219441   6.052   2.674   2.345 -0.1764  0.1645 -0.4095
 6493TIP3   OH219442   2.582   5.703   0.426  0.2733 -0.3215  0.4637
 6493TIP3    H119443   2.527   5.717   0.503  1.0850 -0.0892  0.9997
 6493TIP3    H219444   2.598   5.609   0.426  2.5310 -0.0002  2.1578
 6494TIP3   OH219445   3.986   2.073   5.580  0.3267 -0.7935 -0.2096
 6494TIP3    H119446   4.058   2.068   5.642  1.3910 -0.5794 -1.3940
 6494TIP3    H219447   3.929   2.143   5.614  0.7190 -0.8967  0.6753
 6495TIP3   OH219448   0.225   2.574   5.540  0.0360 -0.0976 -0.4219
 6495TIP3    H119449   0.199   2.484   5.524 -0.0406  0.0948 -1.4533
 6495TIP3    H219450   0.218   2.585   5.635 -0.4930 -1.0075 -0.3479
 6496TIP3   OH219451   5.946   2.786   1.348  0.1120  0.2342  0.0065
 6496TIP3    H119452   5.970   2.859   1.405 -0.5922  1.6248 -1.3928
 6496TIP3    H219453   5.865   2.751   1.387  1.8384 -1.6275  2.2115
 6497TIP3   OH219454   5.512   5.424   1.998 -0.3875 -0.5265  0.3974
 6497TIP3    H119455   5.525   5.507   1.952 -0.6108 -0.3243  0.6966
 6497TIP3    H219456   5.576   5.426   2.070  0.0730 -0.9126  0.0087
 6498TIP3   OH219457   0.421   1.892   0.239  0.4797 -0.2623  0.2582
 6498TIP3    H119458   0.506   1.856   0.214  0.4001 -1.2237  1.2361
 6498TIP3    H219459   0.439   1.940   0.320 -0.0996 -1.6387  1.2489
 6499TIP3   OH219460   6.629   0.302   0.823  0.1818 -0.4394 -0.2622
 6499TIP3    H119461   6.561   0.235   0.817 -1.0212  0.7267 -0.2312
 6499TIP3    H219462   6.581   0.382   0.848  1.8994 -0.1186  2.3176
 6500TIP3   OH219463   1.204   3.839   1.623 -0.2798  0.2338 -0.2970
 6500TIP3    H119464   1.274   3.875   1.677  1.4229 -3.3553  0.1788
 6500TIP3    H219465   1.123   3.870   1.665  1.0030  0.8763  1.8564
 6501TIP3   OH219466   1.482   6.780   1.568 -0.1034 -0.2824  0.2936
 6501TIP3    H119467   1.424   6.755   1.641 -0.5239  1.1165  0.4631
 6501TIP3    H219468   1.560   6.815   1.611 -0.2100  0.2287  0.0697
 6502TIP3   OH219469   6.230   3.819   5.774 -0.4059 -0.5041  0.4039
 6502TIP3    H119470   6.142   3.783   5.756 -0.7258 -0.4311  1.7384
 6502TIP3    H219471   6.255   3.861   5.692 -1.6930 -0.3830  0.0394
 6503TIP3   OH219472   4.141   6.381   4.894  0.3853  0.6305  0.1798
 6503TIP3    H119473   4.094   6.307   4.857 -0.1378  0.4892  1.1193
 6503TIP3    H219474   4.109   6.389   4.983  2.4071  0.2804  1.0023
 6504TIP3   OH219475   5.511   2.257   2.095  0.3978 -0.7116 -0.1046
 6504TIP3    H119476   5.522   2.339   2.142  1.3929 -1.7487  1.5955
 6504TIP3    H219477   5.484   2.282   2.007  1.1765  1.4364  0.2231
 6505TIP3   OH219478   4.415   6.683   1.437  0.4429  0.1328  0.4533
 6505TIP3    H119479   4.374   6.605   1.473  1.1859  0.1802  1.4551
 6505TIP3    H219480   4.378   6.755   1.488  0.8117  0.2930  0.4995
 6506TIP3   OH219481   3.229   5.160   0.020  0.0389 -0.2054 -0.0038
 6506TIP3    H119482   3.299   5.094   0.026  0.0345 -0.2088  0.0083
 6506TIP3    H219483   3.176   5.146   0.098  1.8377  1.8594  1.7122
 6507TIP3   OH219484   3.161   5.660   4.655  0.0913  0.3379 -0.1499
 6507TIP3    H119485   3.251   5.692   4.667 -0.2488  0.7190  1.6863
 6507TIP3    H219486   3.111   5.737   4.628  0.1559  0.3089 -0.3538
 6508TIP3   OH219487   0.283   0.548   4.841 -0.6323  0.7232  0.5495
 6508TIP3    H119488   0.209   0.505   4.884  0.3465  0.1244  1.6705
 6508TIP3    H219489   0.258   0.640   4.839 -0.3891  0.9196  3.1613
 6509TIP3   OH219490   4.716   2.738   2.777 -0.3300  0.2572 -0.2718
 6509TIP3    H119491   4.718   2.805   2.709 -0.0141 -1.1057 -1.6671
 6509TIP3    H219492   4.804   2.737   2.813  0.8894 -1.9656 -2.9491
 6510TIP3   OH219493   3.739   1.530   3.896 -0.8894 -0.4212  0.0337
 6510TIP3    H119494   3.813   1.589   3.912 -0.5344 -1.1052  0.9865
 6510TIP3    H219495   3.779   1.448   3.869 -1.3715 -0.3608 -0.9044
 6511TIP3   OH219496   6.065   3.688   3.439  0.3792 -1.0907  0.0177
 6511TIP3    H119497   6.149   3.715   3.402  2.0957  0.4227  4.3673
 6511TIP3    H219498   6.082   3.601   3.475  0.1282 -0.7381  1.0064
 6512TIP3   OH219499   4.502   5.821   1.825  0.1684  0.1063  0.0684
 6512TIP3    H119500   4.500   5.757   1.754 -1.2580 -1.6903  1.6242
 6512TIP3    H219501   4.595   5.828   1.848  0.3540 -1.5293 -0.0665
 6513TIP3   OH219502   6.714   5.553   4.741 -0.6943 -0.0001  0.2474
 6513TIP3    H119503   6.673   5.564   4.656  0.3091  2.9466  0.0131
 6513TIP3    H219504   6.808   5.559   4.723 -0.4900  1.2830  1.5814
 6514TIP3   OH219505   2.192   3.697   4.928 -0.3483  0.8454 -0.0893
 6514TIP3    H119506   2.184   3.769   4.991  0.5077  1.0037 -0.1494
 6514TIP3    H219507   2.277   3.658   4.948 -0.0711  0.8915 -1.1457
 6515TIP3   OH219508   2.687   0.444   0.498  0.0481  0.3643 -0.0951
 6515TIP3    H119509   2.659   0.518   0.553  3.1628  1.0450  0.7926
 6515TIP3    H219510   2.645   0.368   0.539 -1.6251  1.3695  0.1920
 6516TIP3   OH219511   0.284   1.698   2.971  0.5866 -0.0123 -0.5871
 6516TIP3    H119512   0.241   1.672   3.052  2.0352  0.1245  0.2546
 6516TIP3    H219513   0.219   1.680   2.903 -1.9237  2.6974  0.8212
 6517TIP3   OH219514   4.685   4.426  -0.002 -0.6663  0.6277  0.3199
 6517TIP3    H119515   4.600   4.435   0.041 -0.8830  1.7334 -0.2980
 6517TIP3    H219516   4.739   4.496   0.035  0.5566 -1.0641  1.9388
 6518TIP3   OH219517   4.972   3.726   3.083  0.1210  0.3769  0.3310
 6518TIP3    H119518   4.957   3.758   2.994  1.2879  0.0908  0.0079
 6518TIP3    H219519   4.950   3.800   3.139  0.1507  0.8304 -0.2460
 6519TIP3   OH219520   6.448   6.743   3.706 -0.3093 -0.1561 -0.7134
 6519TIP3    H119521   6.355   6.765   3.704  0.2681  2.5825 -0.4636
 6519TIP3    H219522   6.468   6.714   3.616 -1.5463 -1.7382 -0.5246
 6520TIP3   OH219523   4.872   0.618   2.660 -0.4800  0.1053 -0.0224
 6520TIP3    H119524   4.883   0.586   2.571 -3.3444 -0.1056 -0.4108
 6520TIP3    H219525   4.860   0.713   2.650 -0.1783  0.1697  0.2128
 6521TIP3   OH219526   5.513   4.940   1.135 -0.1323 -0.0765 -0.5876
 6521TIP3    H119527   5.494   4.997   1.060  2.5491  0.6310 -0.8339
 6521TIP3    H219528   5.591   4.891   1.109  0.1516 -0.7050  1.2851
 6522TIP3   OH219529   3.268   4.646   3.707 -0.5722  0.6085  0.3329
 6522TIP3    H119530   3.324   4.573   3.736 -1.7609 -0.1736  0.7269
 6522TIP3    H219531   3.179   4.617   3.727 -1.4046  0.5785 -2.9301
 6523TIP3   OH219532   2.563   0.531   2.320 -0.1810  0.6686  0.4531
 6523TIP3    H119533   2.593   0.465   2.383 -2.6554 -1.2388 -0.1878
 6523TIP3    H219534   2.642   0.579   2.296  1.4991 -1.1103  2.0688
 6524TIP3   OH219535   4.662   6.430   0.564  0.3690 -0.0547  0.1149
 6524TIP3    H119536   4.672   6.453   0.472  0.6074  1.5964  0.5279
 6524TIP3    H219537   4.726   6.360   0.578  1.9832  1.2317 -0.4660
 6525TIP3   OH219538   1.767   1.878   0.584 -0.7334 -0.1415 -0.0628
 6525TIP3    H119539   1.701   1.811   0.571 -0.3285 -0.6712  0.5346
 6525TIP3    H219540   1.843   1.848   0.534  0.0267 -1.0148  1.5105
 6526TIP3   OH219541   4.010   5.717   1.764 -0.5820  0.5628  0.5522
 6526TIP3    H119542   4.017   5.802   1.807  2.1399  0.6722  0.0525
 6526TIP3    H219543   3.960   5.663   1.825 -0.8836  2.0394  1.6489
 6527TIP3   OH219544   3.899   3.899   3.926  0.2022 -0.2484  0.4886
 6527TIP3    H119545   3.830   3.961   3.902  0.4159 -0.3414 -0.3951
 6527TIP3    H219546   3.855   3.833   3.979 -0.4630 -0.4946 -0.3585
 6528TIP3   OH219547   3.638   0.921   3.860  0.9764 -0.0670  0.1960
 6528TIP3    H119548   3.706   0.874   3.907  1.5293 -1.4198 -1.8171
 6528TIP3    H219549   3.679   0.947   3.778 -0.4454  0.6375 -0.3374
 6529TIP3   OH219550   0.629   0.110   2.317  0.2529 -0.2589  0.8788
 6529TIP3    H119551   0.625   0.158   2.235  1.6800  1.7654  1.8915
 6529TIP3    H219552   0.546   0.129   2.361  0.1399 -0.0478  0.5694
 6530TIP3   OH219553   5.173   3.685   2.066 -0.0477 -0.2412 -0.1100
 6530TIP3    H119554   5.116   3.713   2.138  0.2968  2.3007 -0.7380
 6530TIP3    H219555   5.112   3.651   2.000 -0.7786  1.3179 -0.2854
 6531TIP3   OH219556   4.722   6.399   4.383 -0.0658  0.5522 -0.4761
 6531TIP3    H119557   4.640   6.406   4.334  0.2254 -0.2684 -1.0922
 6531TIP3    H219558   4.718   6.472   4.445 -1.6070  0.1061  0.0227
 6532TIP3   OH219559   5.260   5.761   1.122  0.4249  0.3421 -0.6006
 6532TIP3    H119560   5.210   5.680   1.131  1.9133 -0.5453 -0.0835
 6532TIP3    H219561   5.263   5.777   1.028 -0.9821  0.5283 -0.6356
 6533TIP3   OH219562   6.748   0.214   4.010  0.1857  0.3107 -0.2309
 6533TIP3    H119563   6.680   0.198   4.076  1.6624  0.2824  1.3756
 6533TIP3    H219564   6.702   0.208   3.926 -1.9985  1.3782  0.7884
 6534TIP3   OH219565   6.285   5.317   0.572  0.0593 -0.3065  0.0885
 6534TIP3    H119566   6.224   5.310   0.645  1.2266 -2.0738  0.9660
 6534TIP3    H219567   6.231   5.344   0.497 -1.4368 -0.0730  1.2192
 6535TIP3   OH219568   3.262   5.022   2.387 -0.2722  0.0626  0.6220
 6535TIP3    H119569   3.301   5.081   2.453 -0.9247  0.9343  0.2498
 6535TIP3    H219570   3.180   4.993   2.426 -1.1832  1.4331 -0.2161
 6536TIP3   OH219571   6.891   2.303   0.964 -0.1953  0.1533 -0.7520
 6536TIP3    H119572   6.835   2.292   0.887 -2.2750 -0.4292  0.7499
 6536TIP3    H219573   6.895   2.397   0.978 -2.8912  0.1817  0.4541
 6537TIP3   OH219574   3.284   1.975   4.896 -0.6758  0.2354 -0.2083
 6537TIP3    H119575   3.282   1.975   4.801 -0.3216  1.4645 -0.2378
 6537TIP3    H219576   3.287   1.883   4.921 -0.7007 -0.0901 -1.3844
 6538TIP3   OH219577   0.128   0.327   3.274  0.1166 -0.0167 -0.1755
 6538TIP3    H119578   0.103   0.351   3.363 -1.0979  0.1069 -0.5255
 6538TIP3    H219579   0.086   0.243   3.259 -0.7604  0.5519 -1.0518
 6539TIP3   OH219580   5.837   0.655   2.833  0.1111  0.1920  0.5777
 6539TIP3    H119581   5.863   0.651   2.925 -0.9016 -1.9994  0.8328
 6539TIP3    H219582   5.741   0.657   2.834  0.0851  0.3819 -0.4330
 6540TIP3   OH219583   7.096   4.965   1.887  0.1989  0.0237 -0.6480
 6540TIP3    H119584   7.189   4.946   1.874  0.1662 -1.2116  0.7030
 6540TIP3    H219585   7.068   4.903   1.954 -1.2037  1.5093  0.1959
 6541TIP3   OH219586   3.956   6.141   1.436 -0.7615  0.6994 -0.4398
 6541TIP3    H119587   4.038   6.184   1.414  0.2420  0.4153  2.3665
 6541TIP3    H219588   3.937   6.086   1.359  2.5241 -0.4484 -0.5887
 6542TIP3   OH219589   6.984   1.267   2.515  0.0448 -0.1021  0.2969
 6542TIP3    H119590   6.950   1.318   2.589  1.7671 -0.8534  1.6514
 6542TIP3    H219591   7.078   1.283   2.516  0.1704 -0.5381 -1.4454
 6543TIP3   OH219592   5.388   1.239   3.644 -0.1142  0.4511  0.1622
 6543TIP3    H119593   5.395   1.283   3.729  1.5547  1.9954 -0.7130
 6543TIP3    H219594   5.332   1.296   3.592 -0.3609 -0.0150 -0.0906
 6544TIP3   OH219595   1.883   1.241   2.919  0.1645  0.6424 -0.9647
 6544TIP3    H119596   1.970   1.274   2.942  0.0898 -1.0065  2.4339
 6544TIP3    H219597   1.822   1.301   2.963 -0.0839 -1.2892  1.6062
 6545TIP3   OH219598   0.867   2.568   0.061  0.5408  0.3252 -0.2311
 6545TIP3    H119599   0.793   2.624   0.085 -2.0768 -3.0395  0.2980
 6545TIP3    H219600   0.910   2.548   0.145 -2.1741 -2.9569  0.5961
 6546TIP3   OH219601   5.047   1.502   4.594 -0.3910 -0.1436  0.7087
 6546TIP3    H119602   4.976   1.552   4.633 -0.4084  0.4749 -0.1062
 6546TIP3    H219603   5.043   1.416   4.638 -0.7687  0.3386  1.6378
 6547TIP3   OH219604   0.535   0.804   5.684  0.0822  0.3442 -0.2572
 6547TIP3    H119605   0.619   0.831   5.647  0.9602  0.3961  1.6243
 6547TIP3    H219606   0.552   0.720   5.727 -1.9696 -2.0406 -3.6393
 6548TIP3   OH219607   6.096   4.492   5.752 -0.2870 -0.0887  0.4513
 6548TIP3    H119608   6.081   4.439   5.830 -0.2420  0.0839  0.5783
 6548TIP3    H219609   6.164   4.446   5.704 -0.2905 -0.1771  0.5315
 6549TIP3   OH219610   0.380   5.504   1.143  0.2894 -0.5493 -0.0308
 6549TIP3    H119611   0.409   5.592   1.117  0.4801 -0.8251 -0.7866
 6549TIP3    H219612   0.299   5.519   1.190  1.2355  0.1793  1.4456
 6550TIP3   OH219613   2.883   4.568   1.821  0.3849 -0.5774  0.0616
 6550TIP3    H119614   2.842   4.537   1.902 -1.3797  1.2603 -0.0179
 6550TIP3    H219615   2.970   4.528   1.820 -0.6320 -3.0184  1.3299
 6551TIP3   OH219616   0.435   0.440   1.699  0.1449 -0.2490 -0.0543
 6551TIP3    H119617   0.489   0.379   1.749 -0.2401 -1.3332 -0.9395
 6551TIP3    H219618   0.497   0.502   1.660  0.9561 -2.2778 -2.1964
 6552TIP3   OH219619   5.332   4.259   0.329  0.3935  0.9297 -0.7908
 6552TIP3    H119620   5.305   4.349   0.314 -0.6406  0.5057 -1.6219
 6552TIP3    H219621   5.368   4.259   0.417 -2.6288  1.5204  0.5727
 6553TIP3   OH219622   6.539   3.784   1.756  0.4513 -0.1965  0.0105
 6553TIP3    H119623   6.537   3.850   1.826  0.5930  1.9479 -1.8772
 6553TIP3    H219624   6.621   3.736   1.769  2.5760  2.8793 -0.9217
 6554TIP3   OH219625   3.806   5.776   1.356 -0.3450 -0.1095 -0.2253
 6554TIP3    H119626   3.895   5.798   1.384 -0.2918  0.5179 -0.8460
 6554TIP3    H219627   3.806   5.681   1.350  0.3763 -0.1050 -0.4734
 6555TIP3   OH219628   5.756   3.731   5.353  0.4092  0.2519  0.0684
 6555TIP3    H119629   5.801   3.690   5.427  0.9954 -1.1104 -1.0042
 6555TIP3    H219630   5.663   3.724   5.375  0.5057 -1.4891  0.0123
 6556TIP3   OH219631   3.431   1.276   3.818  0.2111 -0.1446  0.0613
 6556TIP3    H119632   3.476   1.204   3.863 -0.3530 -0.8316 -0.4570
 6556TIP3    H219633   3.490   1.300   3.746  0.4541 -0.0089  0.3063
 6557TIP3   OH219634   4.872   0.614   5.088  0.0058  0.1969  0.8756
 6557TIP3    H119635   4.901   0.536   5.041 -0.0359  1.8369 -2.1645
 6557TIP3    H219636   4.781   0.626   5.062  0.1842  1.5498  0.7681
 6558TIP3   OH219637   0.207   1.516   3.204  0.1403 -0.0147 -0.6782
 6558TIP3    H119638   0.136   1.579   3.194  0.6337  0.7700  0.4928
 6558TIP3    H219639   0.187   1.470   3.286  0.3364 -0.6600 -0.9844
 6559TIP3   OH219640   2.455   5.331   3.801  0.1583  0.1613 -0.3443
 6559TIP3    H119641   2.374   5.374   3.773 -0.1040  0.3964  0.7148
 6559TIP3    H219642   2.507   5.323   3.721 -1.2450 -0.7641 -1.2176
 6560TIP3   OH219643   0.557   0.263   3.671 -0.0905 -0.6705  0.4078
 6560TIP3    H119644   0.542   0.321   3.597  2.4213 -1.6936 -1.0159
 6560TIP3    H219645   0.520   0.179   3.643  0.9767 -1.0927  0.1928
 6561TIP3   OH219646   3.771   4.252   4.102  0.3759 -0.4443 -0.3435
 6561TIP3    H119647   3.686   4.229   4.065  0.1949 -1.2913  0.5431
 6561TIP3    H219648   3.814   4.305   4.035 -0.4629 -0.8231 -1.1898
 6562TIP3   OH219649   5.106   0.510   0.113 -0.5151  0.1934  0.1760
 6562TIP3    H119650   5.191   0.552   0.098 -1.1903  1.4334 -0.3023
 6562TIP3    H219651   5.124   0.416   0.104  0.6048  0.4804 -0.9442
 6563TIP3   OH219652   0.121   1.184   3.672 -0.4543  0.2641  0.4540
 6563TIP3    H119653   0.167   1.119   3.619  0.8425  0.0165  1.8190
 6563TIP3    H219654   0.174   1.192   3.751 -1.6760  1.5195  1.1843
 6564TIP3   OH219655   6.778   1.159   5.282  0.4780  0.1499  0.0495
 6564TIP3    H119656   6.774   1.128   5.373  0.1130 -0.8741 -0.3019
 6564TIP3    H219657   6.709   1.111   5.237  1.1607  0.0526 -0.9447
 6565TIP3   OH219658   0.378   4.597   0.423 -0.6600  0.2849 -0.2501
 6565TIP3    H119659   0.457   4.564   0.382 -0.6546 -0.3663  0.2565
 6565TIP3    H219660   0.390   4.580   0.517 -1.5608 -0.2034 -0.2040
 6566TIP3   OH219661   4.950   2.535   2.363  0.3242 -0.2665 -0.1045
 6566TIP3    H119662   4.901   2.471   2.414  0.5847  0.9543  1.7595
 6566TIP3    H219663   4.989   2.593   2.428 -0.3225  2.0988 -1.7096
 6567TIP3   OH219664   5.086   0.122   0.497  0.1652  0.0861 -0.0452
 6567TIP3    H119665   5.042   0.159   0.573  0.7401 -0.6147  0.6457
 6567TIP3    H219666   5.037   0.042   0.478  1.5156 -1.1034  1.1896
 6568TIP3   OH219667   1.560   4.972   0.767 -0.0253  0.6676  0.0905
 6568TIP3    H119668   1.554   4.993   0.674  1.6023  0.3401 -0.1175
 6568TIP3    H219669   1.469   4.968   0.797 -0.6315 -0.5557 -1.7757
 6569TIP3   OH219670   1.549   6.552   3.355  0.1394  0.3081  0.5110
 6569TIP3    H119671   1.543   6.513   3.268  1.5533 -0.4160  0.7078
 6569TIP3    H219672   1.465   6.596   3.367  0.2410  1.2248 -1.5872
 6570TIP3   OH219673   0.314   2.509   0.362  0.0017  0.2893  0.0850
 6570TIP3    H119674   0.294   2.542   0.450  1.3643  1.8980 -0.1633
 6570TIP3    H219675   0.306   2.586   0.306 -0.2432 -0.5921 -1.1028
 6571TIP3   OH219676   3.473   4.559   2.121 -0.1342 -0.4979  0.0423
 6571TIP3    H119677   3.520   4.506   2.186 -0.2731 -1.6398 -0.7573
 6571TIP3    H219678   3.419   4.618   2.173  0.2581 -0.9338  0.9741
 6572TIP3   OH219679   6.480   2.260   4.505 -0.4928 -0.0188  0.3383
 6572TIP3    H119680   6.541   2.192   4.532 -0.5883 -0.0510  0.4769
 6572TIP3    H219681   6.397   2.213   4.492 -0.1935 -0.1851 -1.0598
 6573TIP3   OH219682   7.074   6.229   1.875 -0.1188 -0.1095  0.2005
 6573TIP3    H119683   7.152   6.174   1.864  1.1891  1.7061 -0.1908
 6573TIP3    H219684   7.099   6.313   1.837 -3.2358 -0.1917 -2.4070
 6574TIP3   OH219685   6.709   3.038   5.034  0.3083 -0.1810  0.1610
 6574TIP3    H119686   6.725   3.010   4.944 -1.7156  1.9422 -0.9775
 6574TIP3    H219687   6.615   3.029   5.047  0.2287  1.5546  1.2699
 6575TIP3   OH219688   3.370   2.705   2.287  0.1429 -0.1388  0.5132
 6575TIP3    H119689   3.333   2.744   2.366  0.1440  0.1993  0.3494
 6575TIP3    H219690   3.368   2.611   2.303 -3.7187 -0.4510 -0.7324
 6576TIP3   OH219691   4.308   0.622   4.838 -0.5780 -0.5442 -0.1183
 6576TIP3    H119692   4.395   0.629   4.799  0.0017  1.2836  1.3640
 6576TIP3    H219693   4.324   0.614   4.932 -2.0148  0.4635  0.2450
 6577TIP3   OH219694   4.427   6.354   2.519  0.0294  0.1204 -0.3392
 6577TIP3    H119695   4.370   6.383   2.590 -0.5940 -1.9506  0.0727
 6577TIP3    H219696   4.487   6.292   2.559  1.2551  0.7052 -1.1860
 6578TIP3   OH219697   0.459   2.556   5.820  0.2598  0.3438 -0.5028
 6578TIP3    H119698   0.368   2.571   5.844  1.2580  0.5037  4.3423
 6578TIP3    H219699   0.504   2.637   5.845  2.0891 -0.9140  0.5637
 6579TIP3   OH219700   2.639   1.475   4.493 -0.0658 -0.1047  0.4058
 6579TIP3    H119701   2.708   1.415   4.467  0.7468  0.7380  0.5742
 6579TIP3    H219702   2.559   1.422   4.492  0.7704 -1.4619  1.5738
 6580TIP3   OH219703   3.963   1.501   2.805  0.4439  0.8028  0.1166
 6580TIP3    H119704   4.033   1.471   2.747  1.8775  1.1453  1.5980
 6580TIP3    H219705   3.899   1.542   2.746  0.9770 -0.4151 -1.3789
 6581TIP3   OH219706   2.980   4.515   5.243  0.1358  0.2454 -0.2231
 6581TIP3    H119707   3.052   4.577   5.258  0.0039  1.1929 -2.8689
 6581TIP3    H219708   2.920   4.562   5.184 -1.5727 -1.3031  0.1786
 6582TIP3   OH219709   6.693   0.899   2.758  0.4593 -0.8318  0.0877
 6582TIP3    H119710   6.614   0.883   2.810  1.3450 -1.2842  1.3522
 6582TIP3    H219711   6.694   0.993   2.744  0.6501 -0.5561  1.7101
 6583TIP3   OH219712   1.043   0.789   3.433  0.1918 -0.2671  0.1424
 6583TIP3    H119713   1.073   0.726   3.497  1.6987  0.1673 -0.1041
 6583TIP3    H219714   1.123   0.831   3.400 -0.6466  0.5944 -0.8981
 6584TIP3   OH219715   2.511   5.818   4.913  0.7226  0.2879  0.1197
 6584TIP3    H119716   2.547   5.838   5.000  0.5533  1.1814 -0.0036
 6584TIP3    H219717   2.500   5.723   4.913  0.5085  0.2971  1.1656
 6585TIP3   OH219718   5.306   5.934   4.631  0.0540 -0.5084 -0.2760
 6585TIP3    H119719   5.329   6.017   4.589 -1.8948  0.5669  0.6781
 6585TIP3    H219720   5.367   5.927   4.705 -1.2651  1.3185  1.0637
 6586TIP3   OH219721   5.643   5.475   1.327 -0.1936  0.2934  0.2858
 6586TIP3    H119722   5.588   5.553   1.318  0.9584  1.2907  1.3797
 6586TIP3    H219723   5.732   5.508   1.313  0.3353 -0.7883  1.0170
 6587TIP3   OH219724   6.282   5.357   2.153  0.0326  0.0574  0.0254
 6587TIP3    H119725   6.341   5.295   2.195 -1.8122 -2.5912 -1.0412
 6587TIP3    H219726   6.325   5.378   2.070  0.4358 -0.1489  0.1783
 6588TIP3   OH219727   1.375   5.246   1.125 -0.2594  0.5780  0.0618
 6588TIP3    H119728   1.423   5.328   1.120 -0.5630  0.6991 -1.1846
 6588TIP3    H219729   1.383   5.219   1.217  1.1818  1.1793  0.1419
 6589TIP3   OH219730   3.258   2.254   1.066 -0.4478 -0.4319 -0.2225
 6589TIP3    H119731   3.206   2.331   1.086  0.0324 -0.4823  1.4122
 6589TIP3    H219732   3.327   2.285   1.007  0.9920  0.9401  2.0079
 6590TIP3   OH219733   5.545   3.257   4.222 -0.1302 -0.1366  0.0525
 6590TIP3    H119734   5.482   3.293   4.159  2.2069  0.4765 -2.1097
 6590TIP3    H219735   5.577   3.332   4.270  2.2656  0.3468 -2.1139
 6591TIP3   OH219736   0.131   2.402   0.768  0.0509  0.2281  0.0431
 6591TIP3    H119737   0.212   2.353   0.750 -1.1881 -1.3065 -1.7016
 6591TIP3    H219738   0.120   2.394   0.863  1.8215  0.3292  0.3053
 6592TIP3   OH219739   4.699   4.421   0.804  0.3506 -0.1845 -0.0780
 6592TIP3    H119740   4.604   4.417   0.796  0.4746 -1.8512 -1.1334
 6592TIP3    H219741   4.732   4.373   0.728  2.0380  0.2268  0.3518
 6593TIP3   OH219742   0.752   5.395   1.473 -0.7566  0.2540  0.6845
 6593TIP3    H119743   0.733   5.328   1.407 -1.8194  0.5822  0.6378
 6593TIP3    H219744   0.668   5.441   1.485 -0.5079  0.3798  2.0660
 6594TIP3   OH219745   6.809   0.885   0.986 -0.0804  0.2562  0.2883
 6594TIP3    H119746   6.737   0.863   0.927  0.2052 -1.0204  0.3982
 6594TIP3    H219747   6.777   0.962   1.034 -1.5545 -0.5369  0.6414
 6595TIP3   OH219748   0.044   2.468   1.026  0.3448  0.0054  0.3075
 6595TIP3    H119749  -0.026   2.511   0.977 -0.1713  2.1613  2.6832
 6595TIP3    H219750   0.003   2.389   1.061 -0.6703  0.7426  0.8658
 6596TIP3   OH219751   2.014   2.480   1.248 -0.1497 -0.4916 -0.0911
 6596TIP3    H119752   1.974   2.554   1.203  1.3385 -0.3355 -1.2328
 6596TIP3    H219753   2.011   2.408   1.185 -1.4938 -1.4302  0.9700
 6597TIP3   OH219754   1.539   1.462   5.324  0.0987  0.3874 -0.8597
 6597TIP3    H119755   1.468   1.450   5.261  0.3332 -0.4180 -0.9810
 6597TIP3    H219756   1.577   1.546   5.302 -0.7248  0.7681 -0.8867
 6598TIP3   OH219757   1.249   2.577   1.451  0.1392 -0.1431 -0.6879
 6598TIP3    H119758   1.300   2.549   1.527  0.0610  1.3223 -0.0687
 6598TIP3    H219759   1.175   2.516   1.449  1.4700 -1.8139 -1.1504
 6599TIP3   OH219760   3.653   2.525   1.253 -0.5355  0.2008  0.6013
 6599TIP3    H119761   3.721   2.462   1.229 -0.0270  0.4481  1.3364
 6599TIP3    H219762   3.700   2.609   1.260 -1.0426  0.4991  0.4808
 6600TIP3   OH219763   5.484   4.621   5.411 -0.6024 -0.1026 -0.3965
 6600TIP3    H119764   5.421   4.562   5.371  0.3278 -1.7358  0.4438
 6600TIP3    H219765   5.495   4.692   5.347 -1.3869 -1.0793 -1.6571
 6601TIP3   OH219766   2.956   4.618   2.686 -0.2267  0.3839 -0.3600
 6601TIP3    H119767   2.889   4.676   2.648 -2.1669 -0.8980  0.9160
 6601TIP3    H219768   2.996   4.670   2.756 -0.5940  0.8339 -0.4819
 6602TIP3   OH219769   6.485   6.643   0.849  0.8154 -0.1344 -0.6118
 6602TIP3    H119770   6.537   6.593   0.786  0.7628 -1.4910  0.3651
 6602TIP3    H219771   6.448   6.715   0.799  1.7561 -0.4747 -1.8399
 6603TIP3   OH219772   2.768   4.338   3.169 -0.1630  0.0349  0.3943
 6603TIP3    H119773   2.747   4.280   3.096 -0.6493  1.1404 -0.3757
 6603TIP3    H219774   2.687   4.342   3.220 -0.0038 -0.2782  0.6738
 6604TIP3   OH219775   6.925   4.573   5.506 -0.0860 -0.1951 -0.4917
 6604TIP3    H119776   6.830   4.586   5.515  0.0904  1.0576 -0.2500
 6604TIP3    H219777   6.959   4.660   5.483  0.9865 -0.6637 -0.7307
 6605TIP3   OH219778   2.427   0.436   1.356 -0.2881 -0.4719  0.2902
 6605TIP3    H119779   2.482   0.374   1.405 -1.2839 -0.9421  0.8628
 6605TIP3    H219780   2.427   0.515   1.410  3.0044  1.0644 -1.6140
 6606TIP3   OH219781   2.999   3.817   3.215 -0.5367 -0.0724 -0.0836
 6606TIP3    H119782   2.989   3.912   3.205  0.4465 -0.0766 -1.3835
 6606TIP3    H219783   3.020   3.786   3.127  1.5124 -1.1655  0.7215
 6607TIP3   OH219784   6.774   0.514   0.716  0.0711  0.2685 -0.2166
 6607TIP3    H119785   6.856   0.504   0.765  0.3956 -1.0453 -0.9776
 6607TIP3    H219786   6.723   0.437   0.739 -1.9567  2.1182  1.9766
 6608TIP3   OH219787   2.276   2.639   5.516 -0.4200  0.1166 -0.0086
 6608TIP3    H119788   2.298   2.546   5.517  0.4969  0.3276  1.1457
 6608TIP3    H219789   2.296   2.669   5.604 -2.3248  1.0588  0.1438
 6609TIP3   OH219790   3.794   3.745   4.964 -0.1758  0.0750 -0.1032
 6609TIP3    H119791   3.768   3.653   4.959  2.5402 -0.8758  1.3082
 6609TIP3    H219792   3.800   3.773   4.873  0.3832 -1.6124 -0.6322
 6610TIP3   OH219793   2.744   5.449   3.863  0.0904 -0.2574 -0.7559
 6610TIP3    H119794   2.685   5.377   3.886  0.3417 -0.2483 -0.0577
 6610TIP3    H219795   2.695   5.528   3.885  0.4379 -0.2536  0.0441
 6611TIP3   OH219796   4.558   4.485   0.557 -0.4960 -0.1452 -0.0607
 6611TIP3    H119797   4.572   4.421   0.488  1.4845 -0.2761  0.4018
 6611TIP3    H219798   4.468   4.468   0.588 -0.2354 -2.2977 -0.3465
 6612TIP3   OH219799   1.319   6.313   1.885 -0.2854 -0.3307  0.3506
 6612TIP3    H119800   1.236   6.351   1.856  1.4006  0.8185 -3.5672
 6612TIP3    H219801   1.374   6.389   1.907 -0.1345 -1.0741  2.9402
 6613TIP3   OH219802   3.238   6.022   4.892 -0.0939 -0.4245  0.0029
 6613TIP3    H119803   3.290   6.094   4.929 -1.0553  0.3734 -0.1695
 6613TIP3    H219804   3.283   6.000   4.810  0.7447 -0.6790  0.5124
 6614TIP3   OH219805   5.210   2.374   2.643  0.0873 -0.0683 -0.5727
 6614TIP3    H119806   5.292   2.338   2.611  0.0844  1.3252 -2.2508
 6614TIP3    H219807   5.202   2.459   2.600 -1.1468  0.8256  1.2996
 6615TIP3   OH219808   3.492   1.359   5.363  0.4140  0.0081  0.2422
 6615TIP3    H119809   3.551   1.411   5.309  0.9258  0.6208  1.3499
 6615TIP3    H219810   3.534   1.356   5.449 -1.4383  1.0479  1.2706
 6616TIP3   OH219811   1.219   4.919   4.445 -0.3480 -0.4644 -0.0176
 6616TIP3    H119812   1.213   4.969   4.363  0.3849  0.1510  0.2952
 6616TIP3    H219813   1.264   4.838   4.420  1.1738  0.3328  0.0180
 6617TIP3   OH219814   1.442   5.755   4.460  0.4139 -0.1839  0.3618
 6617TIP3    H119815   1.400   5.672   4.482 -0.3399  0.1580  0.2448
 6617TIP3    H219816   1.514   5.763   4.521 -0.7885  0.0876  1.7999
 6618TIP3   OH219817   2.702   3.665   5.748  0.0361  0.3550  0.0458
 6618TIP3    H119818   2.706   3.730   5.818 -0.1200 -0.4742  0.8603
 6618TIP3    H219819   2.624   3.614   5.768  1.0685 -1.1618  0.4524
 6619TIP3   OH219820   1.313   5.667   3.229 -0.1520  0.4435 -0.4174
 6619TIP3    H119821   1.233   5.717   3.214 -0.6618 -0.6406 -1.5180
 6619TIP3    H219822   1.384   5.731   3.221 -0.8258  1.1423 -0.9302
 6620TIP3   OH219823   0.839   5.022   5.711 -0.3581 -0.0102  0.8640
 6620TIP3    H119824   0.796   4.955   5.763 -0.6669 -0.7545 -0.3073
 6620TIP3    H219825   0.800   5.013   5.624  0.9726  0.4174  0.2008
 6621TIP3   OH219826   1.461   6.061   3.028 -0.1535 -0.2104 -0.2168
 6621TIP3    H119827   1.425   6.053   3.116 -0.6991 -0.7163 -0.4799
 6621TIP3    H219828   1.436   5.980   2.984  0.4492 -0.1375 -0.7224
 6622TIP3   OH219829   3.885   0.309   1.535 -0.0922  0.0495  0.0256
 6622TIP3    H119830   3.878   0.217   1.508 -0.8814 -0.5768  2.1447
 6622TIP3    H219831   3.798   0.331   1.568  0.6221  0.9066  1.4119
 6623TIP3   OH219832   5.109   3.297   2.806  0.8681  0.0926 -0.4480
 6623TIP3    H119833   5.055   3.269   2.879  0.7800 -3.5642 -1.7188
 6623TIP3    H219834   5.052   3.290   2.729  1.9214  0.3910 -1.2964
 6624TIP3   OH219835   1.191   5.666   0.190  0.1322  0.7752  0.2309
 6624TIP3    H119836   1.248   5.740   0.212  0.5284  0.6073 -0.2100
 6624TIP3    H219837   1.250   5.602   0.151 -0.0595 -0.1175  1.3457
 6625TIP3   OH219838   1.600   6.116   0.629 -0.4714  0.0788  0.2584
 6625TIP3    H119839   1.631   6.048   0.687 -1.0264 -1.1451 -0.8214
 6625TIP3    H219840   1.617   6.082   0.541 -2.7820  0.3100 -0.3449
 6626TIP3   OH219841   4.830   2.596   1.136 -0.9189 -0.6571 -0.1905
 6626TIP3    H119842   4.902   2.621   1.194 -0.5345 -0.3654 -0.7848
 6626TIP3    H219843   4.751   2.627   1.182 -0.4392  2.2804 -1.1591
 6627TIP3   OH219844   2.616   6.326   1.317  0.0781 -1.0115  0.1132
 6627TIP3    H119845   2.604   6.257   1.383 -2.0984 -0.4359  0.4131
 6627TIP3    H219846   2.528   6.339   1.280  0.1810  2.2198  0.7005
 6628TIP3   OH219847   6.602   6.097   4.915 -0.0719  0.1774  0.1019
 6628TIP3    H119848   6.537   6.036   4.880  1.5757 -0.2512 -2.5057
 6628TIP3    H219849   6.618   6.067   5.004 -0.9693 -1.8043 -0.3447
 6629TIP3   OH219850   1.860   4.493   4.229 -0.2162  0.1553 -0.9298
 6629TIP3    H119851   1.823   4.514   4.143 -1.8232  1.3738 -0.0055
 6629TIP3    H219852   1.954   4.491   4.214 -0.4882 -0.5109 -2.8852
 6630TIP3   OH219853   0.301   1.606   5.242  0.0198 -0.1594 -0.2536
 6630TIP3    H119854   0.272   1.610   5.333  1.2624 -0.0798  0.1450
 6630TIP3    H219855   0.321   1.513   5.228  1.7687  0.1289  0.1849
 6631TIP3   OH219856   0.964   0.079   0.932 -0.2749  0.2927 -0.0122
 6631TIP3    H119857   1.023   0.088   1.006 -0.8473 -0.5979  0.5698
 6631TIP3    H219858   0.948   0.168   0.903 -0.6895  0.7264  1.4651
 6632TIP3   OH219859   6.755   1.919   1.403 -0.0607 -0.0665 -0.0620
 6632TIP3    H119860   6.698   1.866   1.348 -0.2437  0.0527  0.0118
 6632TIP3    H219861   6.826   1.859   1.429  0.4544  0.0918 -1.0690
 6633TIP3   OH219862   1.698   6.422   0.528  0.3173  0.2141  0.0004
 6633TIP3    H119863   1.638   6.407   0.455  0.4103  1.6727 -0.4188
 6633TIP3    H219864   1.762   6.352   0.522 -0.9606 -0.9958  0.0594
 6634TIP3   OH219865   2.182   2.361   3.064  0.0729 -0.0051 -0.0599
 6634TIP3    H119866   2.196   2.443   3.017  1.2162 -1.0998 -1.7224
 6634TIP3    H219867   2.258   2.307   3.042 -0.6530 -1.5330  0.9952
 6635TIP3   OH219868   3.037   5.672   5.401  0.1045  0.2864  0.1653
 6635TIP3    H119869   3.032   5.581   5.433  0.0565  0.1354 -0.2624
 6635TIP3    H219870   3.129   5.684   5.378 -0.0997 -0.0462 -0.8865
 6636TIP3   OH219871   5.972   2.707   4.522 -0.5490 -0.4706 -0.0358
 6636TIP3    H119872   6.011   2.716   4.435  0.6090 -0.4376  0.4576
 6636TIP3    H219873   6.034   2.751   4.580  0.3616 -3.1496  1.2112
 6637TIP3   OH219874   5.611   4.083   5.770  0.0090 -0.2522 -0.3070
 6637TIP3    H119875   5.692   4.068   5.721 -0.4299 -0.8528 -0.8663
 6637TIP3    H219876   5.567   3.998   5.769 -0.8244  0.1796 -0.3799
 6638TIP3   OH219877   1.895   6.826   4.653 -0.3009  0.3121 -0.2312
 6638TIP3    H119878   1.931   6.738   4.650  0.6364  0.6682  0.2257
 6638TIP3    H219879   1.803   6.814   4.677 -0.0946 -0.5064  0.1727
 6639TIP3   OH219880   5.071   2.889   0.964  0.0552  0.2591  0.0344
 6639TIP3    H119881   5.046   2.936   1.044  0.4804  0.2365  0.1802
 6639TIP3    H219882   5.138   2.827   0.993 -1.4427 -1.3991  0.1196
 6640TIP3   OH219883   0.294   3.408   5.778 -0.4271  0.5218 -0.0966
 6640TIP3    H119884   0.325   3.477   5.719 -0.1164  1.1015  0.7261
 6640TIP3    H219885   0.199   3.423   5.785 -0.4510  0.5039 -0.3747
 6641TIP3   OH219886   5.036   5.308   1.539  0.1169 -0.7711  0.2011
 6641TIP3    H119887   4.948   5.345   1.532 -1.0453 -2.1910  4.3159
 6641TIP3    H219888   5.082   5.367   1.599  0.6071 -2.0907  1.1712
 6642TIP3   OH219889   5.021   4.900   0.158 -0.6913  0.2756 -0.4389
 6642TIP3    H119890   4.962   4.847   0.103 -0.5749  1.1858 -1.4785
 6642TIP3    H219891   4.963   4.962   0.203 -0.7272 -0.1130  0.0555
 6643TIP3   OH219892   3.872   3.694   5.660 -0.2651 -0.7556 -0.1615
 6643TIP3    H119893   3.920   3.612   5.671  0.3509 -0.1220  2.6576
 6643TIP3    H219894   3.855   3.699   5.566  2.5525 -2.5025 -0.8967
 6644TIP3   OH219895   1.736   5.173   1.148 -0.0746  0.0342  0.2295
 6644TIP3    H119896   1.671   5.112   1.184  1.3363 -1.8299 -0.2200
 6644TIP3    H219897   1.773   5.217   1.225 -1.9228  1.2596  0.4795
 6645TIP3   OH219898   1.386   1.699   4.306  0.4681  0.0857  0.3124
 6645TIP3    H119899   1.324   1.637   4.266 -0.2044 -0.0137  1.4639
 6645TIP3    H219900   1.447   1.720   4.235 -0.8495  0.1482 -0.8648
 6646TIP3   OH219901   5.760   6.536   1.635  0.0752 -0.4968 -0.3044
 6646TIP3    H119902   5.735   6.576   1.552 -0.5259  1.6871  0.8421
 6646TIP3    H219903   5.718   6.450   1.634 -0.5593 -0.1973 -1.9207
 6647TIP3   OH219904   1.596   5.883   1.874  0.3404 -0.0462  0.4036
 6647TIP3    H119905   1.543   5.962   1.888  1.2458  0.2198  2.6440
 6647TIP3    H219906   1.649   5.903   1.797 -0.5304  0.9074  0.0291
 6648TIP3   OH219907   2.806   1.037   1.962  0.3342 -0.0192  0.6382
 6648TIP3    H119908   2.794   1.005   2.052  3.2532 -1.8170  0.5484
 6648TIP3    H219909   2.845   1.124   1.973 -1.4047  0.7465  1.0206
 6649TIP3   OH219910   0.294   6.728   4.043 -0.8782 -0.2165  0.0016
 6649TIP3    H119911   0.302   6.814   4.002 -1.6185 -0.0427  0.1953
 6649TIP3    H219912   0.376   6.716   4.091 -1.1211  0.7791  0.7033
 6650TIP3   OH219913   5.202   0.646   1.964  0.3318 -0.0575  0.7288
 6650TIP3    H119914   5.203   0.657   2.059  0.3569  0.2932  0.6884
 6650TIP3    H219915   5.294   0.653   1.938  0.1817  1.4640  0.5011
 6651TIP3   OH219916   6.344   4.947   2.834 -0.1078 -0.5647  0.0205
 6651TIP3    H119917   6.320   5.039   2.830  1.6166 -0.0665  0.2385
 6651TIP3    H219918   6.339   4.917   2.743  0.5859  0.1038 -0.2472
 6652TIP3   OH219919   1.257   0.802   0.652 -0.0362  0.4619  0.1922
 6652TIP3    H119920   1.297   0.888   0.641 -0.0558  0.9167  2.9424
 6652TIP3    H219921   1.235   0.774   0.563 -0.1118  3.3096 -0.7863
 6653TIP3   OH219922   0.955   0.582   2.743 -0.2546 -0.9935 -0.2789
 6653TIP3    H119923   0.960   0.668   2.702  3.4676 -0.3529  1.1636
 6653TIP3    H219924   0.990   0.521   2.677 -0.0552 -0.9238 -0.2379
 6654TIP3   OH219925   4.020   4.301   3.757  0.1432 -0.3774  0.4996
 6654TIP3    H119926   4.006   4.218   3.804 -0.8164  0.2205  1.3153
 6654TIP3    H219927   3.999   4.368   3.821 -0.0321  0.4918 -0.4502
 6655TIP3   OH219928   0.393   2.903   5.166  0.1528  0.2049  0.4313
 6655TIP3    H119929   0.448   2.870   5.095  0.9956 -1.7174  1.8971
 6655TIP3    H219930   0.309   2.859   5.155  0.5288 -0.6763  1.0524
 6656TIP3   OH219931   0.162   4.487   0.729  0.0102 -0.2855 -0.0557
 6656TIP3    H119932   0.172   4.580   0.710 -1.2237 -0.0072  0.5401
 6656TIP3    H219933   0.212   4.443   0.660  0.4366  0.8044 -0.4643
 6657TIP3   OH219934   2.961   2.950   4.509 -0.3883  0.5123  0.5177
 6657TIP3    H119935   3.040   3.003   4.499 -0.2826  0.2176 -0.3052
 6657TIP3    H219936   2.920   2.982   4.589  0.7497  0.4364  1.1563
 6658TIP3   OH219937   6.246   5.695   4.269 -0.2173 -0.0922 -0.2512
 6658TIP3    H119938   6.170   5.745   4.240  0.3008 -0.4086 -2.3403
 6658TIP3    H219939   6.315   5.761   4.282 -0.1276 -0.0313 -0.9627
 6659TIP3   OH219940   0.989   0.833   2.606  0.6492  0.3158 -0.2246
 6659TIP3    H119941   0.993   0.908   2.666  0.2528 -1.4645  2.1584
 6659TIP3    H219942   1.049   0.856   2.535  0.9888  2.6120  0.7083
 6660TIP3   OH219943   5.696   5.100   4.220 -0.3331 -0.6165 -0.1624
 6660TIP3    H119944   5.697   5.032   4.153 -1.5566 -0.2429 -0.6024
 6660TIP3    H219945   5.723   5.179   4.174  0.2046 -0.6309  0.1281
 6661TIP3   OH219946   0.493   5.856   5.565 -0.2777 -0.3127  0.2203
 6661TIP3    H119947   0.487   5.931   5.506 -0.6990  0.6596  1.4475
 6661TIP3    H219948   0.463   5.782   5.513  0.6139  0.2663 -1.1738
 6662TIP3   OH219949   6.371   6.027   1.013  0.1096  0.2649 -0.6212
 6662TIP3    H119950   6.396   5.968   1.085  0.2718  0.9117 -0.1438
 6662TIP3    H219951   6.323   5.970   0.953  0.3303 -0.3802 -0.2080
 6663TIP3   OH219952   0.385   6.733   1.849 -0.0085 -0.0732  0.2079
 6663TIP3    H119953   0.413   6.678   1.776 -1.9896  0.3353 -0.9018
 6663TIP3    H219954   0.384   6.822   1.814 -0.3803  0.2178  0.9306
 6664TIP3   OH219955   5.549   6.034   2.999 -0.0243 -0.6679 -0.1041
 6664TIP3    H119956   5.547   5.985   3.081 -0.0983 -1.4214 -0.5480
 6664TIP3    H219957   5.500   5.980   2.937  0.9003 -0.6096 -0.9156
 6665TIP3   OH219958   2.320   0.783   3.296  0.8944  0.6716 -0.1730
 6665TIP3    H119959   2.294   0.773   3.388 -1.2432  2.8045 -0.4602
 6665TIP3    H219960   2.345   0.694   3.269 -0.1367 -0.3465  1.9691
 6666TIP3   OH219961   4.211   4.025   5.358 -0.2303 -0.0600  0.0378
 6666TIP3    H119962   4.174   4.013   5.271  0.6466  0.2915 -0.3976
 6666TIP3    H219963   4.136   4.023   5.417 -0.9406  0.6963 -0.8252
 6667TIP3   OH219964   5.146   3.089   5.402 -0.2774 -0.0897 -0.1197
 6667TIP3    H119965   5.073   3.040   5.442 -1.1501  1.5665  0.4045
 6667TIP3    H219966   5.208   3.021   5.375 -0.8214 -1.4384  1.7677
 6668TIP3   OH219967   1.987   2.609   3.219  0.3322  0.3768  0.2910
 6668TIP3    H119968   2.056   2.544   3.204 -0.4556 -0.6331  0.8753
 6668TIP3    H219969   2.028   2.675   3.275  0.6374 -0.5716  1.2162
 6669TIP3   OH219970   1.701   0.691   0.445 -0.4167 -0.2588  0.0737
 6669TIP3    H119971   1.618   0.654   0.416 -2.0447  2.3840  1.0512
 6669TIP3    H219972   1.723   0.757   0.379 -1.3018  1.9333  1.8610
 6670TIP3   OH219973   6.118   1.416   1.476 -0.4095  0.1602  0.3737
 6670TIP3    H119974   6.177   1.443   1.406 -0.8090  0.5073  0.1650
 6670TIP3    H219975   6.117   1.321   1.471 -1.3559  0.2034 -0.8794
 6671TIP3   OH219976   6.184   4.417   1.060 -0.2781 -0.4493  0.1217
 6671TIP3    H119977   6.218   4.415   1.150  0.8041 -1.1831 -0.2871
 6671TIP3    H219978   6.239   4.356   1.012 -1.1407 -0.4140 -0.9536
 6672TIP3   OH219979   1.507   3.257   0.530 -0.2309 -0.5014  0.1086
 6672TIP3    H119980   1.545   3.207   0.458  0.0444 -1.1225  0.6702
 6672TIP3    H219981   1.413   3.258   0.512 -0.1904 -0.8638 -0.1317
 6673TIP3   OH219982   0.577   2.809   5.862 -0.4814 -0.1477 -0.4378
 6673TIP3    H119983   0.561   2.876   5.929 -0.7224 -0.2599 -0.3796
 6673TIP3    H219984   0.574   2.857   5.779 -0.1305  0.0001 -0.3641
 6674TIP3   OH219985   2.816   1.846   0.695 -0.1992  0.0414 -0.4106
 6674TIP3    H119986   2.816   1.784   0.767 -0.8845 -0.1696 -0.5887
 6674TIP3    H219987   2.899   1.831   0.649 -0.1621 -0.4249 -0.1871
 6675TIP3   OH219988   5.484   3.182   5.510 -0.4282 -0.1572  0.4679
 6675TIP3    H119989   5.464   3.171   5.603  1.0516  2.3050  1.1581
 6675TIP3    H219990   5.426   3.253   5.482  1.1925  1.1609  0.3201
 6676TIP3   OH219991   6.981   0.124   4.588 -0.0026  0.0711  1.0542
 6676TIP3    H119992   6.891   0.145   4.562  0.3449  1.5830  1.0224
 6676TIP3    H219993   7.028   0.113   4.506 -0.2645 -1.2973  1.0662
 6677TIP3   OH219994   5.746   4.231   0.422 -0.4365  0.2507  0.0019
 6677TIP3    H119995   5.775   4.192   0.504  0.5064 -1.4204 -1.0561
 6677TIP3    H219996   5.707   4.158   0.374 -2.4191  1.5375 -0.4186
 6678TIP3   OH219997   0.092   2.492   1.288 -0.0836  0.5656  0.7299
 6678TIP3    H119998   0.080   2.501   1.193  0.1394  2.5846  0.8546
 6678TIP3    H219999   0.042   2.414   1.311 -0.0778 -0.0173 -1.0523
 6679TIP3   OH220000   7.057   4.849   0.423  0.2334 -0.1283 -0.7956
 6679TIP3    H120001   7.041   4.759   0.451 -1.9950  0.5534  0.4083
 6679TIP3    H220002   7.150   4.863   0.437  0.5969 -2.1825 -0.8777
 6680TIP3   OH220003   0.956   6.689   3.268 -0.0027  0.3031 -0.6787
 6680TIP3    H120004   0.901   6.610   3.277  0.2240  0.1123 -0.9555
 6680TIP3    H220005   1.014   6.687   3.344 -0.7854  0.8366 -0.0410
 6681TIP3   OH220006   6.570   0.993   5.217 -0.1895 -0.7330 -0.8181
 6681TIP3    H120007   6.522   0.988   5.134  0.2903 -0.5471 -1.1120
 6681TIP3    H220008   6.511   0.955   5.282 -0.8737 -0.1725 -1.1104
 6682TIP3   OH220009   1.375   1.525   1.291 -0.0480 -0.4597 -0.2745
 6682TIP3    H120010   1.463   1.563   1.299 -0.2902  0.0584 -0.0105
 6682TIP3    H220011   1.369   1.498   1.200  0.8530 -1.6670 -0.0004
 6683TIP3   OH220012   4.642   5.404   4.651  0.0294 -0.1709  0.5433
 6683TIP3    H120013   4.660   5.314   4.677  0.4181 -0.1826  0.2477
 6683TIP3    H220014   4.546   5.409   4.645 -0.0040 -0.4917  0.8067
 6684TIP3   OH220015   3.575   6.286   0.879  0.1580 -0.1789 -0.2592
 6684TIP3    H120016   3.494   6.316   0.838 -1.2597 -2.2102  0.8084
 6684TIP3    H220017   3.573   6.324   0.967 -0.8669 -1.9465  0.5553
 6685TIP3   OH220018   5.662   0.663   0.325 -0.2561 -0.3809  0.1058
 6685TIP3    H120019   5.717   0.716   0.267  0.1818 -0.4798  0.4278
 6685TIP3    H220020   5.638   0.587   0.273 -2.4777  0.9948 -1.0469
 6686TIP3   OH220021   1.561   4.293   0.129 -0.0334  0.0741  0.0416
 6686TIP3    H120022   1.559   4.261   0.219 -1.2138  0.6059  0.2201
 6686TIP3    H220023   1.494   4.361   0.126 -0.3794 -0.2859 -1.3660
 6687TIP3   OH220024   5.879   3.410   2.345 -0.9048  0.2753 -0.3326
 6687TIP3    H120025   5.942   3.472   2.381 -1.9520  1.8731 -1.1054
 6687TIP3    H220026   5.881   3.336   2.404  1.7863  0.1943 -0.4202
 6688TIP3   OH220027   0.663   5.767   2.388  0.1301  0.3254  0.6454
 6688TIP3    H120028   0.568   5.758   2.402 -0.2395 -0.5904 -1.9131
 6688TIP3    H220029   0.701   5.708   2.454 -1.1913 -0.7138  0.5487
 6689TIP3   OH220030   2.516   2.310   2.138 -0.5107  0.0925 -0.5514
 6689TIP3    H120031   2.534   2.232   2.087 -0.4913 -1.2661  1.4439
 6689TIP3    H220032   2.429   2.295   2.176 -0.5715  1.0921 -0.2583
 6690TIP3   OH220033   6.218   3.171   5.901 -0.3417  0.1886  0.0003
 6690TIP3    H120034   6.249   3.252   5.860  2.8943 -1.5778 -1.3842
 6690TIP3    H220035   6.191   3.116   5.827 -2.0841 -0.2038  0.8922
 6691TIP3   OH220036   1.694   6.602   4.126  0.3645  0.1700 -0.1719
 6691TIP3    H120037   1.701   6.634   4.036  1.0326  1.4030  0.2938
 6691TIP3    H220038   1.785   6.589   4.153  0.2012  0.7376  0.6483
 6692TIP3   OH220039   0.483   1.053   3.744 -0.1755  0.0255 -0.7053
 6692TIP3    H120040   0.428   0.980   3.774 -0.0559 -0.3329 -1.3580
 6692TIP3    H220041   0.432   1.132   3.765 -0.2194 -0.2303  0.1781
 6693TIP3   OH220042   2.215   4.082   1.496 -0.3592  0.1193  0.8378
 6693TIP3    H120043   2.239   3.997   1.531  0.3611 -0.3459 -0.7270
 6693TIP3    H220044   2.286   4.105   1.436 -1.8880  0.5107 -0.9134
 6694TIP3   OH220045   3.141   3.816   2.107  0.0952  0.0536  0.0980
 6694TIP3    H120046   3.072   3.751   2.089 -0.4803  0.7321 -0.1873
 6694TIP3    H220047   3.140   3.826   2.202  0.9286 -1.1445  0.2585
 6695TIP3   OH220048   6.202   3.367   3.304  0.0117 -0.2460  0.3690
 6695TIP3    H120049   6.112   3.340   3.324  0.0167  0.2411  1.1135
 6695TIP3    H220050   6.191   3.442   3.244 -0.0399 -0.9031 -0.4577
 6696TIP3   OH220051   5.852   3.858   3.569 -0.3329 -1.1411  0.1620
 6696TIP3    H120052   5.943   3.836   3.548  0.4199  1.3735  0.4032
 6696TIP3    H220053   5.819   3.901   3.490 -2.0097 -3.6879 -0.6282
 6697TIP3   OH220054   3.951   5.124   5.653  0.0325  0.2720 -0.0355
 6697TIP3    H120055   4.015   5.194   5.637 -2.5122  2.3134 -2.3444
 6697TIP3    H220056   3.915   5.143   5.740  1.1633  0.2655  0.4449
 6698TIP3   OH220057   2.847   3.193   1.007 -0.9944  0.6047 -0.4647
 6698TIP3    H120058   2.860   3.168   0.915  0.5801 -1.3583  0.2114
 6698TIP3    H220059   2.911   3.263   1.022  0.3035 -0.5455 -0.3708
 6699TIP3   OH220060   4.483   5.124   2.138 -0.4620 -0.3899 -0.3364
 6699TIP3    H120061   4.495   5.042   2.185 -1.4825 -0.4736 -0.2078
 6699TIP3    H220062   4.459   5.099   2.049  0.0977 -0.2256 -0.5405
 6700TIP3   OH220063   5.512   1.397   3.410  0.4533 -0.0206 -0.7601
 6700TIP3    H120064   5.539   1.470   3.466  1.3972 -0.4148 -0.6767
 6700TIP3    H220065   5.416   1.396   3.416  0.5256 -0.7301  1.7833
 6701TIP3   OH220066   6.614   3.232   2.465 -0.3051  0.5420 -0.1628
 6701TIP3    H120067   6.628   3.302   2.530  1.9553 -0.2451  0.3037
 6701TIP3    H220068   6.608   3.152   2.517 -2.1442  0.2588 -0.7418
 6702TIP3   OH220069   0.242   2.399   1.629  0.0510 -0.0051  0.2521
 6702TIP3    H120070   0.289   2.465   1.578  0.5054  1.3615  2.3211
 6702TIP3    H220071   0.305   2.370   1.695 -1.1695 -0.0139  1.4701
 6703TIP3   OH220072   7.152   1.972   4.136  0.1161 -0.3148  0.2062
 6703TIP3    H120073   7.190   2.057   4.117 -0.1135 -0.3741 -0.5292
 6703TIP3    H220074   7.134   1.933   4.050 -1.7521 -0.2206  0.5159
 6704TIP3   OH220075   2.326   2.391   5.129 -0.1133 -0.1436  0.1802
 6704TIP3    H120076   2.265   2.441   5.075 -0.6627 -1.2213 -0.2433
 6704TIP3    H220077   2.367   2.456   5.185 -0.5971  0.8095 -0.5292
 6705TIP3   OH220078   3.171   3.483   1.747  0.3156 -0.1285 -0.0231
 6705TIP3    H120079   3.202   3.566   1.783 -0.3106  0.1343 -0.0872
 6705TIP3    H220080   3.244   3.454   1.692  0.5205  0.4084 -0.0502
 6706TIP3   OH220081   1.259   0.469   5.275 -0.3200 -0.4443  0.6656
 6706TIP3    H120082   1.299   0.548   5.238 -0.4702 -0.4347  0.5227
 6706TIP3    H220083   1.249   0.410   5.200 -0.0309 -0.6740  0.8050
 6707TIP3   OH220084   2.559   5.595   4.467 -0.1171 -0.0105 -0.0706
 6707TIP3    H120085   2.551   5.505   4.436 -0.2873  0.1557 -0.5263
 6707TIP3    H220086   2.642   5.626   4.430  0.1207 -0.0980  0.3904
 6708TIP3   OH220087   4.034   1.466   2.354  0.0125  0.3678 -0.2393
 6708TIP3    H120088   3.957   1.413   2.331  0.4407 -0.4042  0.0759
 6708TIP3    H220089   4.053   1.517   2.275 -1.2695  1.1358 -0.0903
 6709TIP3   OH220090   3.460   5.442   2.278  0.2400  0.5679  0.3952
 6709TIP3    H120091   3.510   5.398   2.346 -2.0337 -1.0345  1.1818
 6709TIP3    H220092   3.428   5.372   2.222 -0.5909  1.5498 -0.4205
 6710TIP3   OH220093   4.319   6.128   2.213 -0.0116  0.3135  0.0126
 6710TIP3    H120094   4.394   6.134   2.272 -0.6305 -0.1018  0.8526
 6710TIP3    H220095   4.262   6.200   2.239 -0.5126 -0.1628  0.2498
 6711TIP3   OH220096   2.464   3.972   2.104 -0.0001  0.2101  0.1007
 6711TIP3    H120097   2.497   3.882   2.109 -1.1586 -0.1863  0.8986
 6711TIP3    H220098   2.499   4.005   2.021  0.8217 -0.8104  0.0135
 6712TIP3   OH220099   0.022   4.282   0.954 -0.3745  0.0805 -0.0026
 6712TIP3    H120100   0.028   4.286   1.050 -1.6704 -0.6338  0.1281
 6712TIP3    H220101  -0.008   4.369   0.928 -0.9169 -0.0024  0.3288
 6713TIP3   OH220102   6.945   5.006   3.821 -0.9527 -0.7856 -0.0682
 6713TIP3    H120103   6.987   5.015   3.906  0.2634  1.4591 -0.8325
 6713TIP3    H220104   6.984   4.927   3.783  0.9847  0.0106  0.1500
 6714TIP3   OH220105   2.287   0.497   2.303  0.2955  0.2978 -0.3369
 6714TIP3    H120106   2.380   0.520   2.306  0.4142 -0.2901  1.4155
 6714TIP3    H220107   2.261   0.488   2.395 -1.8743  1.9151 -0.7013
 6715TIP3   OH220108   5.054   1.980   4.419  0.2822  0.0880  0.0172
 6715TIP3    H120109   5.054   2.009   4.328  0.8817  1.4027  0.4027
 6715TIP3    H220110   5.144   1.955   4.437  0.1644 -0.1807  0.2399
 6716TIP3   OH220111   1.403   3.907   4.697  0.1097 -0.6717 -0.1601
 6716TIP3    H120112   1.380   3.942   4.611  3.5867  0.7613 -0.6595
 6716TIP3    H220113   1.363   3.820   4.699 -3.1580  0.6395 -1.6488
 6717TIP3   OH220114   6.080   2.191   4.040 -0.0015 -0.0899 -0.2471
 6717TIP3    H120115   6.147   2.243   4.085  0.2053 -0.3029 -0.3038
 6717TIP3    H220116   6.106   2.100   4.056 -0.1885 -0.1718 -0.4037
 6718TIP3   OH220117   6.716   0.147   4.514 -0.0718 -0.1728 -0.3202
 6718TIP3    H120118   6.623   0.122   4.510  0.2306 -1.1628 -1.5569
 6718TIP3    H220119   6.717   0.225   4.570 -1.6239 -0.2750 -0.1099
 6719TIP3   OH220120   5.190   4.231   2.884  0.0451 -0.2752 -0.4005
 6719TIP3    H120121   5.152   4.152   2.845  0.1855 -0.2464 -0.5976
 6719TIP3    H220122   5.188   4.296   2.813 -1.3014  0.3074  0.1318
 6720TIP3   OH220123   5.090   5.638   3.374 -0.3232  0.2003 -0.2459
 6720TIP3    H120124   5.085   5.603   3.463 -2.0492 -0.1680 -0.4484
 6720TIP3    H220125   5.184   5.639   3.354 -0.0260 -2.1022  0.6546
 6721TIP3   OH220126   6.712   3.817   2.848  0.1895 -0.0245 -0.0540
 6721TIP3    H120127   6.659   3.814   2.768  2.0856 -1.7681 -1.3330
 6721TIP3    H220128   6.795   3.856   2.821  0.7810 -0.4096  1.1248
 6722TIP3   OH220129   3.150   5.471   4.882  0.7111 -0.4957  0.4537
 6722TIP3    H120130   3.152   5.514   4.796  2.5310 -1.7590 -0.2038
 6722TIP3    H220131   3.157   5.542   4.945 -1.0990  0.5009 -0.3756
 6723TIP3   OH220132   3.928   5.753   2.384  0.0586 -0.0808  0.2333
 6723TIP3    H120133   3.974   5.820   2.334 -1.2575 -0.2114 -1.2116
 6723TIP3    H220134   3.993   5.722   2.447  2.0053 -0.3302 -1.7602
 6724TIP3   OH220135   4.440   5.728   4.684 -0.3797 -0.5004  0.3802
 6724TIP3    H120136   4.402   5.742   4.770 -0.2581  0.3409  0.3105
 6724TIP3    H220137   4.384   5.778   4.625 -0.4946 -1.1137 -0.0350
 6725TIP3   OH220138   5.635   0.364   0.289  0.0489 -0.0918  0.4194
 6725TIP3    H120139   5.724   0.382   0.320  0.4986  2.4379 -1.9701
 6725TIP3    H220140   5.580   0.372   0.368  1.8964 -2.2364  2.0536
 6726TIP3   OH220141   1.448   1.400   3.146 -0.6111 -0.2573  0.1213
 6726TIP3    H120142   1.365   1.434   3.113 -0.2156  1.9931  1.2659
 6726TIP3    H220143   1.496   1.477   3.175  1.3164 -1.6330  0.8030
 6727TIP3   OH220144   6.184   6.292   5.246  0.2523  0.1945  0.0187
 6727TIP3    H120145   6.142   6.207   5.233  1.0969 -0.1186 -0.7954
 6727TIP3    H220146   6.132   6.354   5.195 -0.4099  0.1896  0.6741
 6728TIP3   OH220147   4.815   6.199   2.319  0.1381  0.2174 -0.4733
 6728TIP3    H120148   4.835   6.233   2.232  1.1351  0.7656 -0.0423
 6728TIP3    H220149   4.858   6.260   2.379 -2.1610  0.9987  0.4869
 6729TIP3   OH220150   2.757   3.945   5.184 -0.2461  0.1520  0.2116
 6729TIP3    H120151   2.793   3.900   5.261  1.1823 -0.0590 -0.5500
 6729TIP3    H220152   2.762   3.880   5.114 -0.1406  0.8111 -0.4053
 6730TIP3   OH220153   5.028   6.339   5.185  0.0039  0.0490 -0.4419
 6730TIP3    H120154   5.084   6.270   5.220  0.0526  1.9105  3.6501
 6730TIP3    H220155   4.939   6.310   5.205 -0.0943  0.2370 -0.6023
 6731TIP3   OH220156   1.344   1.845   3.381 -0.4034  0.4647 -0.4128
 6731TIP3    H120157   1.313   1.918   3.327 -0.5457  0.4782 -0.3129
 6731TIP3    H220158   1.275   1.831   3.445 -0.5861 -0.0483 -0.7082
 6732TIP3   OH220159   0.591   2.195   5.269  0.4614 -0.0671  0.2294
 6732TIP3    H120160   0.511   2.185   5.218  0.9722 -1.2718 -0.3791
 6732TIP3    H220161   0.568   2.162   5.356 -0.6585  2.7939  1.0996
 6733TIP3   OH220162   6.572   4.909   5.172 -0.7733 -0.7378  0.6884
 6733TIP3    H120163   6.554   4.924   5.265 -1.6168 -0.9287  0.5625
 6733TIP3    H220164   6.518   4.973   5.126  0.5119  0.1392  0.3497
 6734TIP3   OH220165   2.434   6.203   2.761 -0.1356 -0.0816  0.3421
 6734TIP3    H120166   2.438   6.270   2.829 -1.6534  1.8275 -1.3042
 6734TIP3    H220167   2.359   6.149   2.785 -1.3978  1.3003 -0.3554
 6735TIP3   OH220168   6.574   4.310   1.301  0.3854  0.0903  0.1273
 6735TIP3    H120169   6.628   4.357   1.238  0.2905 -0.1328 -0.1222
 6735TIP3    H220170   6.607   4.337   1.387  2.3829 -1.7315  0.0183
 6736TIP3   OH220171   3.401   2.709   4.681  0.0323  0.0175 -0.6302
 6736TIP3    H120172   3.327   2.691   4.624 -0.6557  1.4433 -0.2260
 6736TIP3    H220173   3.380   2.792   4.724  2.1239  0.7800 -0.9362
 6737TIP3   OH220174   3.291   2.272   2.429  0.3759 -0.0018 -0.3627
 6737TIP3    H120175   3.333   2.186   2.419  0.1454 -0.1556 -0.0441
 6737TIP3    H220176   3.198   2.251   2.440  0.1298  0.3610 -1.5866
 6738TIP3   OH220177   1.199   2.201   2.663 -0.6973  0.6277 -0.0784
 6738TIP3    H120178   1.211   2.109   2.689 -0.5104  0.8185  0.5284
 6738TIP3    H220179   1.263   2.214   2.593 -1.6359 -0.0652 -1.0891
 6739TIP3   OH220180   5.910   6.651   2.028  0.3626 -0.1910  0.1060
 6739TIP3    H120181   5.961   6.570   2.028  1.3540  0.4038  0.6346
 6739TIP3    H220182   5.931   6.694   1.945  0.7783  0.0781  0.3458
 6740TIP3   OH220183   1.594   2.505   2.569  0.1490 -0.0713 -0.2998
 6740TIP3    H120184   1.648   2.510   2.648 -0.0416  3.0160 -0.2081
 6740TIP3    H220185   1.647   2.548   2.502 -0.9629  0.2402 -1.0016
 6741TIP3   OH220186   2.120   2.089   5.581 -0.5101 -0.4996 -0.4100
 6741TIP3    H120187   2.169   2.008   5.597  0.5710  0.3005  0.4866
 6741TIP3    H220188   2.154   2.150   5.646 -3.3826 -0.1521  0.9027
 6742TIP3   OH220189   2.610   2.960   0.435 -0.4331  0.3187 -0.4426
 6742TIP3    H120190   2.658   2.892   0.390 -0.7116 -0.0877 -0.1323
 6742TIP3    H220191   2.657   3.041   0.414 -1.1052  0.2896 -2.2390
 6743TIP3   OH220192   5.574   0.857   4.738 -0.2702  0.4598  0.4454
 6743TIP3    H120193   5.520   0.822   4.808 -0.0725 -0.8944 -0.0504
 6743TIP3    H220194   5.628   0.783   4.710  0.4005  1.2554 -0.4168
 6744TIP3   OH220195   3.086   6.512   2.405 -0.0455 -0.0774 -0.2836
 6744TIP3    H120196   3.105   6.524   2.312  0.1319 -0.7785 -0.3425
 6744TIP3    H220197   3.021   6.442   2.407  1.5860 -1.6272  0.2378
 6745TIP3   OH220198   4.569   1.735   5.392  0.3310  0.2509  0.1757
 6745TIP3    H120199   4.597   1.650   5.425 -0.0294  0.0970  0.0886
 6745TIP3    H220200   4.478   1.744   5.421  0.5095  0.8101  0.5780
 6746TIP3   OH220201   4.581   4.374   1.084 -0.0971 -0.0311 -0.3379
 6746TIP3    H120202   4.654   4.314   1.067  0.7293  0.4504  1.3108
 6746TIP3    H220203   4.526   4.368   1.005  1.9017 -0.1069 -1.7902
 6747TIP3   OH220204   0.347   1.266   0.537  0.3996  0.1547  0.6377
 6747TIP3    H120205   0.384   1.248   0.623  1.8774 -1.4894 -0.2663
 6747TIP3    H220206   0.314   1.181   0.507 -2.8697  1.2558  0.7537
 6748TIP3   OH220207   2.702   6.121   0.167 -0.1573 -0.3615  0.0167
 6748TIP3    H120208   2.784   6.151   0.208 -1.1036  1.2111  0.8327
 6748TIP3    H220209   2.666   6.059   0.229 -0.3677  0.1534  0.4127
 6749TIP3   OH220210   5.807   0.862   5.010 -0.0037  0.4738  0.0315
 6749TIP3    H120211   5.834   0.809   4.935 -0.9528 -0.4178  0.2958
 6749TIP3    H220212   5.887   0.906   5.038  0.8265 -0.8156 -0.2144
 6750TIP3   OH220213   0.215   5.910   1.142  0.3666  0.3482  0.1088
 6750TIP3    H120214   0.270   5.985   1.165  1.5996 -0.2088 -0.8421
 6750TIP3    H220215   0.269   5.860   1.080 -1.8735  0.6490 -2.2357
 6751TIP3   OH220216   5.139   1.029   0.786 -0.6332 -0.8096  0.4553
 6751TIP3    H120217   5.091   0.957   0.826 -0.4520 -0.7825  0.7238
 6751TIP3    H220218   5.226   0.993   0.768 -0.5244 -0.6432  0.6424
 6752TIP3   OH220219   3.748   4.515   2.025 -0.4367  0.4819 -0.1521
 6752TIP3    H120220   3.655   4.534   2.013 -0.7913 -0.9121  0.1851
 6752TIP3    H220221   3.789   4.541   1.942 -1.3142  0.0740 -0.7226
 6753TIP3   OH220222   4.138   2.043   1.445 -1.0032  0.4695  0.0792
 6753TIP3    H120223   4.136   2.014   1.536  1.1943  1.5608  0.5388
 6753TIP3    H220224   4.208   1.990   1.405 -0.3037  1.6621 -0.3251
 6754TIP3   OH220225   4.705   6.757   2.594  0.8992 -0.4058 -0.3081
 6754TIP3    H120226   4.792   6.783   2.566  1.0078 -1.1711 -0.7009
 6754TIP3    H220227   4.700   6.664   2.576  0.0139 -0.3844 -0.2498
 6755TIP3   OH220228   3.827   4.909   1.225  0.3333 -0.2639 -0.4254
 6755TIP3    H120229   3.768   4.953   1.163  1.7215  0.7933 -1.0572
 6755TIP3    H220230   3.914   4.937   1.198  1.1102 -1.4495  0.7523
 6756TIP3   OH220231   5.079   3.771   5.840 -0.1692  0.0522 -0.4367
 6756TIP3    H120232   5.015   3.720   5.890 -0.1741  0.5432  0.0677
 6756TIP3    H220233   5.123   3.825   5.906  1.7813 -1.2969 -0.5241
 6757TIP3   OH220234   0.779   2.360   2.361  0.6923 -0.1583 -0.4506
 6757TIP3    H120235   0.727   2.319   2.292 -0.4022 -1.1686  0.9212
 6757TIP3    H220236   0.762   2.453   2.352 -1.3387 -0.4511 -0.0915
 6758TIP3   OH220237   0.213   0.218   2.274  0.4215  0.0951 -0.2349
 6758TIP3    H120238   0.132   0.204   2.226 -0.2980  1.4235  0.5126
 6758TIP3    H220239   0.265   0.275   2.217  0.9156 -0.8688 -0.7752
 6759TIP3   OH220240   1.266   4.245   3.856  0.2703 -0.1401  0.3966
 6759TIP3    H120241   1.239   4.181   3.790  0.1940 -0.3253  0.6046
 6759TIP3    H220242   1.243   4.204   3.939  1.4987 -0.4563  0.6033
 6760TIP3   OH220243   4.278   2.607   0.024  0.3734  0.2478 -0.0527
 6760TIP3    H120244   4.253   2.574   0.111  1.4803  1.2890  0.6952
 6760TIP3    H220245   4.361   2.653   0.039  1.2333 -0.6247 -1.9052
 6761TIP3   OH220246   1.811   4.277   3.821  0.0918  0.1787 -0.2781
 6761TIP3    H120247   1.803   4.204   3.882 -0.5682  1.1516  0.8415
 6761TIP3    H220248   1.883   4.330   3.855 -0.6069  0.9960 -0.0390
 6762TIP3   OH220249   5.463   2.929   2.008  0.7285  0.7329 -0.0010
 6762TIP3    H120250   5.417   3.011   1.992 -0.4511  0.0006 -0.5130
 6762TIP3    H220251   5.426   2.896   2.090  0.3943  0.1797 -0.3692
 6763TIP3   OH220252   6.385   3.327   4.176 -0.0325 -0.5810  0.2355
 6763TIP3    H120253   6.452   3.330   4.245  1.2497  1.8862 -0.9490
 6763TIP3    H220254   6.306   3.298   4.220  1.4597 -2.2807  2.0096
 6764TIP3   OH220255   6.118   2.386   5.501  0.0142  0.1871  0.1377
 6764TIP3    H120256   6.045   2.354   5.554 -0.4250  0.6091 -0.2028
 6764TIP3    H220257   6.195   2.376   5.557 -0.4667  0.7919  0.9177
 6765TIP3   OH220258   2.021   2.030   5.299 -0.5695  0.0545  0.5037
 6765TIP3    H120259   2.057   2.116   5.277 -1.5489  0.3462 -0.0006
 6765TIP3    H220260   2.038   2.021   5.393  2.8489 -0.8172 -0.0727
 6766TIP3   OH220261   2.572   4.948   4.242  0.2516  0.4373 -0.0531
 6766TIP3    H120262   2.567   5.030   4.193  0.1940 -0.0328 -0.8495
 6766TIP3    H220263   2.576   4.975   4.334  1.6675  1.3797 -0.3653
 6767TIP3   OH220264   4.823   3.939   2.053 -0.0526  0.1043  0.0728
 6767TIP3    H120265   4.733   3.922   2.027 -0.3298 -0.6237  1.4414
 6767TIP3    H220266   4.844   3.869   2.115  0.9537  1.1001  0.8992
 6768TIP3   OH220267   0.356   1.013   1.066  0.1974 -0.1068 -0.3256
 6768TIP3    H120268   0.343   0.920   1.047  0.6276 -0.2729  0.1722
 6768TIP3    H220269   0.415   1.014   1.141  0.1541  0.5705 -0.2962
 6769TIP3   OH220270   4.963   3.002   1.212 -0.5713 -0.0802 -0.6756
 6769TIP3    H120271   4.985   3.095   1.219  0.2008 -0.2095 -1.2170
 6769TIP3    H220272   4.882   2.993   1.262 -0.2984  0.7573 -0.0512
 6770TIP3   OH220273   0.495   5.320   5.838 -0.9035  0.0956 -0.2837
 6770TIP3    H120274   0.561   5.362   5.893 -0.7988  1.5804 -1.4853
 6770TIP3    H220275   0.412   5.344   5.879 -0.7690 -1.1261  0.7790
 6771TIP3   OH220276   0.660   4.250   0.704 -0.6352 -0.2049  0.5743
 6771TIP3    H120277   0.703   4.165   0.709 -1.4301 -0.7802 -1.5027
 6771TIP3    H220278   0.732   4.312   0.690 -0.1470 -0.6416  1.1039
 6772TIP3   OH220279   2.874   4.964   0.226  0.0170 -0.2352 -0.3423
 6772TIP3    H120280   2.951   5.016   0.248  0.0137 -0.5278  0.3734
 6772TIP3    H220281   2.862   4.978   0.132  0.1840  0.8316 -0.2162
 6773TIP3   OH220282   1.186   1.157   2.367  0.6636 -0.0979 -0.0876
 6773TIP3    H120283   1.262   1.155   2.308  1.2151  0.5488  0.5782
 6773TIP3    H220284   1.179   1.067   2.399  1.3158 -0.1144  0.0348
 6774TIP3   OH220285   3.968   3.938   4.537  0.0843 -0.3937  0.0471
 6774TIP3    H120286   4.001   3.862   4.489 -1.4905 -1.3623  0.4191
 6774TIP3    H220287   3.932   3.996   4.469  0.0134 -0.6450 -0.1318
 6775TIP3   OH220288   3.985   4.681   3.468 -0.0664 -0.2754 -0.0922
 6775TIP3    H120289   3.925   4.736   3.417 -1.9451 -0.4319  1.8163
 6775TIP3    H220290   4.034   4.631   3.403 -2.3774 -0.4992 -1.7530
 6776TIP3   OH220291   1.327   5.241   4.583 -0.2713  0.3984  0.0051
 6776TIP3    H120292   1.276   5.202   4.513  0.0220 -0.1205  0.0737
 6776TIP3    H220293   1.410   5.193   4.582  0.8297  2.2034 -1.0991
 6777TIP3   OH220294   4.614   6.734   1.237  0.2476  0.9873  0.5233
 6777TIP3    H120295   4.537   6.736   1.294 -0.9465  1.9842 -1.0426
 6777TIP3    H220296   4.618   6.644   1.204 -0.6643  1.0972  0.0960
 6778TIP3   OH220297   4.148   4.349   5.347  0.5185 -0.1748  0.2248
 6778TIP3    H120298   4.071   4.343   5.291  2.0685  2.6154 -2.4666
 6778TIP3    H220299   4.193   4.265   5.335 -0.2638 -0.4420 -1.0573
 6779TIP3   OH220300   5.901   3.881   4.105 -0.1063 -0.2527 -0.1755
 6779TIP3    H120301   5.911   3.970   4.140 -0.8574 -0.3265  0.2577
 6779TIP3    H220302   5.891   3.893   4.011  0.8647  0.0314 -0.2578
 6780TIP3   OH220303   6.308   1.508   2.448 -0.0197 -0.3620  0.3284
 6780TIP3    H120304   6.329   1.416   2.435 -2.6589 -0.9757 -0.1750
 6780TIP3    H220305   6.266   1.535   2.367  0.7761  1.3415  0.4415
 6781TIP3   OH220306   1.343   6.067   0.524 -0.5276  0.0348  0.3570
 6781TIP3    H120307   1.283   6.049   0.596  0.2883 -1.6535  0.6703
 6781TIP3    H220308   1.420   6.105   0.567  0.5554 -2.3103  0.6512
 6782TIP3   OH220309   6.204   0.465   0.964 -0.2454 -0.1959  0.0674
 6782TIP3    H120310   6.248   0.540   0.923 -2.1595  0.2761 -1.2349
 6782TIP3    H220311   6.242   0.389   0.921  0.1191  0.1354 -0.2053
 6783TIP3   OH220312   2.486   5.438   0.938 -0.1456 -0.3427  0.7413
 6783TIP3    H120313   2.548   5.374   0.904  0.1596 -1.7010  3.5873
 6783TIP3    H220314   2.512   5.521   0.898  3.6430 -0.8143  1.8693
 6784TIP3   OH220315   3.135   2.091   3.690 -0.2364  0.4139  0.6630
 6784TIP3    H120316   3.095   2.026   3.748 -0.1047  0.7899  1.1832
 6784TIP3    H220317   3.063   2.148   3.663 -0.2626  0.3631  0.6256
 6785TIP3   OH220318   0.616   1.170   3.520  0.1239  0.2954 -0.3041
 6785TIP3    H120319   0.682   1.105   3.496 -0.6370 -0.8732  0.6626
 6785TIP3    H220320   0.557   1.123   3.579 -1.6171  1.2813 -1.1938
 6786TIP3   OH220321   2.727   6.083   3.224 -0.2498  0.7792 -0.5545
 6786TIP3    H120322   2.700   6.151   3.286  2.4681  1.8307 -0.3772
 6786TIP3    H220323   2.818   6.064   3.247 -0.3710 -1.6689 -1.7764
 6787TIP3   OH220324   2.477   0.945   0.872 -0.0076 -0.7255  0.3259
 6787TIP3    H120325   2.572   0.933   0.868  0.1223 -0.3122  1.5214
 6787TIP3    H220326   2.462   0.977   0.961 -1.2012 -0.1448 -0.0727
 6788TIP3   OH220327   3.067   5.791   4.033 -0.4446  0.3222  0.7780
 6788TIP3    H120328   3.121   5.731   3.981 -0.6769  0.7897 -0.0075
 6788TIP3    H220329   2.989   5.740   4.054 -0.5929  0.3095  0.2079
 6789TIP3   OH220330   0.576   6.337   5.614  0.0855 -0.2273  0.1972
 6789TIP3    H120331   0.635   6.408   5.588 -1.2450  0.8975  0.1230
 6789TIP3    H220332   0.503   6.382   5.657 -1.5218 -1.3810 -1.1926
 6790TIP3   OH220333   3.477   5.210   5.157  0.7493 -0.0483 -0.1377
 6790TIP3    H120334   3.391   5.253   5.163  1.0809  0.5319  0.7011
 6790TIP3    H220335   3.524   5.259   5.090  0.7742  0.2867  0.1185
 6791TIP3   OH220336   6.813   3.952   4.232  0.0585 -0.1492  0.5997
 6791TIP3    H120337   6.896   3.976   4.273  0.5307 -0.3515 -0.2164
 6791TIP3    H220338   6.764   4.034   4.228  1.2181  0.5336 -1.1475
 6792TIP3   OH220339   4.047   1.428   1.336 -0.9999 -0.3714  0.1071
 6792TIP3    H120340   4.111   1.497   1.352 -1.0470 -0.4460  0.6138
 6792TIP3    H220341   4.088   1.374   1.268  0.0643 -1.1566  1.3069
 6793TIP3   OH220342   3.288   4.623   0.215  0.0036  0.0117 -0.0196
 6793TIP3    H120343   3.280   4.686   0.142 -0.0726 -0.5582 -0.5141
 6793TIP3    H220344   3.272   4.676   0.293 -1.4337  0.3627 -0.5096
 6794TIP3   OH220345   4.049   4.104   5.562 -0.4705 -0.0055  0.8056
 6794TIP3    H120346   3.953   4.097   5.566 -0.5805  0.9892  0.1239
 6794TIP3    H220347   4.069   4.186   5.607  0.1499 -0.6811  1.7930
 6795TIP3   OH220348   2.231   3.823   2.012 -0.0004  0.0460 -0.5487
 6795TIP3    H120349   2.217   3.813   1.918 -0.3375  0.3342 -0.5328
 6795TIP3    H220350   2.322   3.850   2.021  0.0161  0.0702 -0.7981
 6796TIP3   OH220351   7.235   0.299   0.491 -0.2127  0.1010 -0.3828
 6796TIP3    H120352   7.163   0.294   0.429 -0.0963  1.4771 -0.6602
 6796TIP3    H220353   7.195   0.282   0.576 -1.3672  3.0584 -0.2255
 6797TIP3   OH220354   1.069   5.599   4.446 -0.3468  0.1221 -0.2268
 6797TIP3    H120355   1.150   5.575   4.491 -1.5052  0.8465  2.4548
 6797TIP3    H220356   1.085   5.687   4.411  0.1083  0.1767  0.1180
 6798TIP3   OH220357   2.857   2.457   5.758  0.2187 -0.5100 -1.0870
 6798TIP3    H120358   2.894   2.530   5.809 -0.1643 -1.1906  0.2239
 6798TIP3    H220359   2.920   2.443   5.687 -0.1931  1.7262 -1.9843
 6799TIP3   OH220360   3.521   4.716   3.618 -0.7005 -0.0507 -0.1584
 6799TIP3    H120361   3.442   4.746   3.663  0.2675 -0.4451  1.9209
 6799TIP3    H220362   3.557   4.795   3.577 -1.8786  0.2247 -0.6865
 6800TIP3   OH220363   1.876   0.467   4.589  0.4327  0.0543 -0.2920
 6800TIP3    H120364   1.815   0.478   4.516 -0.3529 -1.5190  0.0853
 6800TIP3    H220365   1.872   0.549   4.637 -1.2101  0.0801 -0.4279
 6801TIP3   OH220366   3.151   6.143   1.714 -0.0145 -0.2571 -0.6832
 6801TIP3    H120367   3.169   6.068   1.771 -0.2039 -1.2553 -1.8911
 6801TIP3    H220368   3.195   6.217   1.756  1.4520 -1.3414 -0.2516
 6802TIP3   OH220369   0.605   1.851   1.798  0.3375 -0.4691 -0.5183
 6802TIP3    H120370   0.602   1.905   1.877 -0.3509  2.0892 -2.1648
 6802TIP3    H220371   0.695   1.863   1.765  0.3355 -0.7574 -0.6308
 6803TIP3   OH220372   4.377   6.526   0.330  0.0982 -0.8787  0.6594
 6803TIP3    H120373   4.282   6.515   0.321  0.1492 -2.5996  1.7456
 6803TIP3    H220374   4.396   6.608   0.285 -1.9674 -0.2646  0.7963
 6804TIP3   OH220375   0.479   2.781   0.475 -0.3834  0.1001  0.6742
 6804TIP3    H120376   0.394   2.820   0.495  0.7822  3.8103 -0.6321
 6804TIP3    H220377   0.485   2.704   0.532 -3.0173  1.8159  3.5876
 6805TIP3   OH220378   0.793   2.788   2.171 -0.4322 -0.4984  0.5886
 6805TIP3    H120379   0.880   2.784   2.211 -0.2475 -1.1265  0.1359
 6805TIP3    H220380   0.808   2.765   2.079 -1.2788 -2.0521  0.8248
 6806TIP3   OH220381   5.053   2.841   0.129 -0.1848 -1.0706 -0.3496
 6806TIP3    H120382   5.052   2.809   0.219  0.9838 -0.8228 -0.2319
 6806TIP3    H220383   5.098   2.926   0.134 -1.4813 -0.3213 -0.9425
 6807TIP3   OH220384   6.963   1.976   3.511 -0.1180 -0.1356 -0.3809
 6807TIP3    H120385   6.900   1.997   3.442 -0.3867 -0.8117 -0.3459
 6807TIP3    H220386   7.018   2.054   3.518 -1.4887  0.8193  0.1852
 6808TIP3   OH220387   2.348   1.762   3.162 -0.7435 -0.4459  0.5894
 6808TIP3    H120388   2.316   1.790   3.247 -2.0022  1.3033 -0.3962
 6808TIP3    H220389   2.270   1.734   3.115 -0.2875  0.0546 -0.5008
 6809TIP3   OH220390   3.572   4.443   1.158  0.0628  0.1556  0.2165
 6809TIP3    H120391   3.587   4.529   1.118  0.0517  0.0617  0.0120
 6809TIP3    H220392   3.527   4.463   1.240 -1.4418  0.2432 -0.6020
 6810TIP3   OH220393   1.080   5.401   5.667  0.1325  0.7593  0.0549
 6810TIP3    H120394   1.061   5.363   5.581 -3.5076 -2.1033  1.8160
 6810TIP3    H220395   1.032   5.483   5.668 -0.6211  0.3316 -0.3399
 6811TIP3   OH220396   6.652   5.015   0.479  0.1874  0.0650 -0.0642
 6811TIP3    H120397   6.565   4.992   0.448 -0.6282 -0.1320  2.1948
 6811TIP3    H220398   6.641   5.100   0.522  1.1011 -0.0005  0.3340
 6812TIP3   OH220399   4.497   4.398   3.994  0.2767 -0.2217 -0.1281
 6812TIP3    H120400   4.495   4.480   4.043 -3.1456 -0.1990 -0.0370
 6812TIP3    H220401   4.441   4.414   3.918 -3.3643 -3.2382  1.5741
 6813TIP3   OH220402   3.102   1.406   1.866 -0.2184  0.0223 -0.5953
 6813TIP3    H120403   3.164   1.336   1.849 -1.2810 -0.7381 -1.5606
 6813TIP3    H220404   3.134   1.480   1.814  0.7509  0.1758  0.2049
 6814TIP3   OH220405   2.170   6.181   2.253  0.3738  0.0755 -1.1683
 6814TIP3    H120406   2.105   6.167   2.184 -1.3518  2.4306 -0.1806
 6814TIP3    H220407   2.231   6.245   2.216 -0.0071  0.6229 -0.8670
 6815TIP3   OH220408   4.749   3.377   1.364  0.3588  0.8485  0.2369
 6815TIP3    H120409   4.710   3.290   1.360  2.4995 -0.2494  1.2887
 6815TIP3    H220410   4.743   3.411   1.275 -1.4729  0.1126  0.0333
 6816TIP3   OH220411   3.717   4.045   5.296 -0.1328 -0.6820  0.0301
 6816TIP3    H120412   3.649   3.999   5.248 -0.7040  1.1790 -1.0215
 6816TIP3    H220413   3.679   4.058   5.383 -0.7510 -0.4527 -0.2682
 6817TIP3   OH220414   6.817   3.073   4.537 -0.0617  0.4812  0.0111
 6817TIP3    H120415   6.871   3.111   4.468  0.1459  2.0303  0.9672
 6817TIP3    H220416   6.789   3.149   4.589 -1.6144 -0.4668  0.6327
 6818TIP3   OH220417   5.193   2.139   3.729 -0.1978  0.2461  0.2414
 6818TIP3    H120418   5.211   2.058   3.778 -1.4766 -0.1005  0.1720
 6818TIP3    H220419   5.155   2.108   3.647 -1.7751  0.9269  0.6788
 6819TIP3   OH220420   1.007   2.794   5.589 -0.3310  0.3917  0.1800
 6819TIP3    H120421   1.094   2.761   5.567 -0.2461 -0.2087  1.3351
 6819TIP3    H220422   0.970   2.820   5.505  0.0776 -1.4993 -0.6468
 6820TIP3   OH220423   4.200   4.090   1.617  0.4418 -0.3405 -0.8537
 6820TIP3    H120424   4.110   4.077   1.586  0.2509  1.0382 -0.9400
 6820TIP3    H220425   4.237   4.156   1.558  1.9678 -1.7991 -1.6272
 6821TIP3   OH220426   6.702   2.852   3.123 -0.2356  0.4644  0.4892
 6821TIP3    H120427   6.792   2.827   3.143 -0.9133 -1.4399  1.4252
 6821TIP3    H220428   6.684   2.811   3.038 -0.3366  0.5456  0.4712
 6822TIP3   OH220429   5.860   6.518   5.299 -0.0851  0.0613  1.0260
 6822TIP3    H120430   5.848   6.513   5.204  0.2893  2.1549  0.8127
 6822TIP3    H220431   5.810   6.445   5.334  1.9619 -2.4755 -0.9164
 6823TIP3   OH220432   1.988   5.601   4.523  0.0032  0.0480  0.3708
 6823TIP3    H120433   1.935   5.579   4.446 -0.8118 -1.4962  1.3485
 6823TIP3    H220434   2.077   5.612   4.488 -0.2605 -1.1251 -0.7299
 6824TIP3   OH220435   2.786   0.702   2.777 -0.1646  0.3745  0.2304
 6824TIP3    H120436   2.828   0.683   2.693  0.7998  0.4972  0.6702
 6824TIP3    H220437   2.754   0.617   2.807 -0.3086  0.2924 -0.1542
 6825TIP3   OH220438   2.305   2.157   4.141 -0.2132 -0.8543  0.1147
 6825TIP3    H120439   2.304   2.251   4.160 -0.8888 -0.9956  0.8082
 6825TIP3    H220440   2.388   2.143   4.096 -0.3699  0.1826 -0.5471
 6826TIP3   OH220441   5.645   4.799   3.159  0.2071 -0.4079 -0.0255
 6826TIP3    H120442   5.740   4.804   3.171  0.4325 -3.0318 -0.1742
 6826TIP3    H220443   5.626   4.867   3.094  1.9463  0.2737  0.1241
 6827TIP3   OH220444   7.094   0.663   3.397  0.4970  0.0960 -0.1382
 6827TIP3    H120445   7.144   0.598   3.446  1.7689  1.0863 -0.0788
 6827TIP3    H220446   7.043   0.611   3.334  0.8052 -1.0021  0.4899
 6828TIP3   OH220447   3.228   5.335   5.132  0.6963  0.1598  0.3928
 6828TIP3    H120448   3.150   5.289   5.163  1.1330 -1.0144 -0.1821
 6828TIP3    H220449   3.200   5.377   5.051  0.4339  0.4609  0.6385
 6829TIP3   OH220450   0.655   6.135   1.799 -0.0575  0.1284 -0.0284
 6829TIP3    H120451   0.662   6.116   1.893 -0.4831 -0.5796 -0.1377
 6829TIP3    H220452   0.711   6.069   1.757 -1.5122 -0.8998 -0.4096
 6830TIP3   OH220453   3.674   0.446   2.818 -0.5070  0.0552  0.1995
 6830TIP3    H120454   3.675   0.379   2.887  1.6548 -0.8819 -0.6455
 6830TIP3    H220455   3.676   0.396   2.737  0.1916  1.1492 -0.4727
 6831TIP3   OH220456   1.498   5.076   0.397 -0.0350  0.8417 -0.0002
 6831TIP3    H120457   1.547   5.111   0.471  0.1627 -1.0314  0.7961
 6831TIP3    H220458   1.532   4.988   0.384 -0.9932  0.6466 -1.4820
 6832TIP3   OH220459   7.115   5.961   2.687  0.1059  0.0613  0.1157
 6832TIP3    H120460   7.153   6.036   2.641  1.3933  0.2767  1.4682
 6832TIP3    H220461   7.189   5.905   2.708 -0.5024 -0.2427  1.5469
 6833TIP3   OH220462   0.555   1.618   5.606 -0.6108 -0.1763 -0.4375
 6833TIP3    H120463   0.549   1.638   5.513  0.8100 -1.8793 -0.9408
 6833TIP3    H220464   0.621   1.549   5.612  3.0235  3.1067  2.3167
 6834TIP3   OH220465   1.960   5.908   1.117  0.2055 -0.0774 -0.2445
 6834TIP3    H120466   2.020   5.838   1.090  1.4071  1.2700 -1.1850
 6834TIP3    H220467   1.876   5.886   1.076  1.3667  0.6533 -3.2578
 6835TIP3   OH220468   6.582   4.251   3.698 -0.2441 -0.0340 -0.3228
 6835TIP3    H120469   6.525   4.175   3.689  1.0708 -1.1220  0.0660
 6835TIP3    H220470   6.670   4.214   3.709  0.1422  1.4184  2.6234
 6836TIP3   OH220471   2.255   2.250   0.951  0.4903  0.5514 -0.5932
 6836TIP3    H120472   2.207   2.332   0.942  1.1569  0.7546 -3.2484
 6836TIP3    H220473   2.198   2.184   0.909  2.0351  0.6675 -3.1097
 6837TIP3   OH220474   0.876   4.409   0.621 -0.1685 -0.2460  0.0800
 6837TIP3    H120475   0.970   4.429   0.619 -0.2501  0.3198  1.1766
 6837TIP3    H220476   0.841   4.453   0.543  0.2220  0.9720  0.5624
 6838TIP3   OH220477   4.828   1.850   2.170  0.1383 -0.2183 -0.0206
 6838TIP3    H120478   4.810   1.898   2.251 -0.2197 -1.3473  0.5875
 6838TIP3    H220479   4.807   1.912   2.100  1.0671  0.9962  0.7310
 6839TIP3   OH220480   3.760   5.576   1.054  0.5224 -0.7329  0.0888
 6839TIP3    H120481   3.693   5.641   1.076 -0.3558 -1.4066 -0.5117
 6839TIP3    H220482   3.843   5.621   1.068 -0.0596  0.2912  0.3513
 6840TIP3   OH220483   5.613   1.999   5.463 -0.6003 -0.7899 -0.3202
 6840TIP3    H120484   5.577   2.032   5.381 -1.2678  0.9831  0.6306
 6840TIP3    H220485   5.687   1.945   5.437 -1.1679 -0.7676 -2.1002
 6841TIP3   OH220486   6.532   4.273   5.583 -0.0229 -0.6633  0.0711
 6841TIP3    H120487   6.604   4.211   5.594 -0.7220 -1.3100  1.4065
 6841TIP3    H220488   6.573   4.359   5.579  0.8408 -1.0522  0.4435
 6842TIP3   OH220489   4.560   6.384   3.453  0.0170  0.1462 -0.3376
 6842TIP3    H120490   4.472   6.357   3.427  0.8164 -2.1510 -0.8750
 6842TIP3    H220491   4.596   6.425   3.374  0.4315 -1.6571 -1.1480
 6843TIP3   OH220492   3.034   5.245   1.171 -0.5815 -0.0688  0.3476
 6843TIP3    H120493   3.104   5.276   1.229 -1.3474 -0.1803  1.3667
 6843TIP3    H220494   3.008   5.323   1.122 -1.1165  0.4664  1.4344
 6844TIP3   OH220495   5.180   5.444   0.078 -0.1349 -0.0004  0.2168
 6844TIP3    H120496   5.165   5.516   0.138  1.7725  1.8847 -1.4134
 6844TIP3    H220497   5.092   5.414   0.054 -1.0618  2.7175 -0.1029
 6845TIP3   OH220498   3.379   5.452   1.859  0.3084 -0.5544  0.0510
 6845TIP3    H120499   3.455   5.394   1.865  1.0011 -0.0342 -2.4328
 6845TIP3    H220500   3.304   5.392   1.858  0.9666 -1.4466 -1.7816
 6846TIP3   OH220501   5.441   2.164   0.713  0.2395 -0.3602 -0.3851
 6846TIP3    H120502   5.355   2.121   0.707 -0.3324  0.4675  1.2901
 6846TIP3    H220503   5.503   2.096   0.686 -0.8598 -1.2778 -0.7244
 6847TIP3   OH220504   6.220   2.629   0.645  0.3160 -0.6658  0.4162
 6847TIP3    H120505   6.303   2.636   0.691  0.0575  0.0904  0.7869
 6847TIP3    H220506   6.235   2.564   0.577  1.4943  0.1490 -0.1309
 6848TIP3   OH220507   5.764   2.267   4.528  0.0902  0.1084  0.5549
 6848TIP3    H120508   5.771   2.238   4.437  1.7201  1.3855  0.2288
 6848TIP3    H220509   5.759   2.363   4.522  1.1426  0.2758  1.8360
 6849TIP3   OH220510   1.949   2.917   2.026 -0.1322  0.1138 -0.1559
 6849TIP3    H120511   2.032   2.871   2.012 -0.9632 -0.9086 -2.0684
 6849TIP3    H220512   1.958   2.956   2.113  1.3697 -2.1066  0.7863
 6850TIP3   OH220513   6.446   2.246   2.482 -0.1091 -0.0489  0.1533
 6850TIP3    H120514   6.352   2.251   2.500 -0.2416 -0.4348 -0.4060
 6850TIP3    H220515   6.472   2.159   2.512 -0.4102 -0.8573 -1.7634
 6851TIP3   OH220516   4.127   0.286   5.794 -0.2438 -0.4880  0.1230
 6851TIP3    H120517   4.189   0.356   5.811 -0.0012 -0.7063  0.1368
 6851TIP3    H220518   4.097   0.301   5.704 -0.7787  0.0828  0.3907
 6852TIP3   OH220519   3.791   6.671   2.125  0.1398  0.0487 -0.3303
 6852TIP3    H120520   3.787   6.763   2.099 -0.4651 -0.2651 -1.3897
 6852TIP3    H220521   3.733   6.666   2.201  1.0651  0.7491  0.4587
 6853TIP3   OH220522   7.127   2.165   4.521 -0.3108  0.3679 -0.1772
 6853TIP3    H120523   7.199   2.103   4.528  0.1862  0.7944 -1.3417
 6853TIP3    H220524   7.168   2.247   4.492 -0.9661  1.2302  1.1917
 6854TIP3   OH220525   0.351   1.078   5.465  0.3719 -1.1466  0.5414
 6854TIP3    H120526   0.422   1.120   5.415  0.5967 -1.1405  0.8623
 6854TIP3    H220527   0.275   1.084   5.408  0.3861 -0.2368  0.6053
 6855TIP3   OH220528   3.372   1.091   5.394 -0.1172  0.0291  0.6552
 6855TIP3    H120529   3.349   1.082   5.301  3.1036 -1.0316 -0.1461
 6855TIP3    H220530   3.403   1.181   5.402 -0.9787  0.3156  0.8847
 6856TIP3   OH220531   2.312   4.559   1.737  0.2333 -0.3811  0.1221
 6856TIP3    H120532   2.398   4.561   1.781  0.2030 -1.1171  0.2373
 6856TIP3    H220533   2.265   4.634   1.773  0.6110 -0.3266  0.5207
 6857TIP3   OH220534   3.836   3.632   5.374  0.1389 -0.3803  0.4979
 6857TIP3    H120535   3.854   3.715   5.329 -0.5237 -0.9355 -0.8449
 6857TIP3    H220536   3.896   3.570   5.333  0.7581 -0.5443  1.6240
 6858TIP3   OH220537   0.038   5.109   2.188  0.3359 -0.0927  0.0851
 6858TIP3    H120538   0.020   5.020   2.218 -0.1215  0.1130  0.4477
 6858TIP3    H220539  -0.046   5.139   2.154  0.7971 -0.2498 -1.2377
 6859TIP3   OH220540   5.151   4.153   5.175  0.2711  0.3245 -0.5391
 6859TIP3    H120541   5.085   4.206   5.219  0.5343  0.0914  0.1590
 6859TIP3    H220542   5.227   4.157   5.233  0.3181 -0.7503 -0.5031
 6860TIP3   OH220543   2.126   3.571   2.103  0.0563 -0.1365  0.1380
 6860TIP3    H120544   2.179   3.637   2.057  1.4646 -1.4305 -0.1538
 6860TIP3    H220545   2.067   3.537   2.036  0.7386 -0.6044 -0.2384
 6861TIP3   OH220546   0.807   2.189   4.305  1.1915  0.3575 -0.0528
 6861TIP3    H120547   0.730   2.241   4.329  0.6896 -0.2701 -0.2639
 6861TIP3    H220548   0.847   2.167   4.389  1.8341  1.6940  0.0068
 6862TIP3   OH220549   4.410   3.874   5.727 -0.1756  0.1891 -0.8283
 6862TIP3    H120550   4.398   3.816   5.652 -3.0991  0.4818 -0.6974
 6862TIP3    H220551   4.489   3.840   5.770 -0.1442 -1.8904 -2.3327
 6863TIP3   OH220552   6.095   4.834   0.179  0.7477 -0.3353 -0.3301
 6863TIP3    H120553   6.076   4.769   0.111  0.8735 -0.0653 -0.6296
 6863TIP3    H220554   6.156   4.789   0.238 -0.4878 -1.0690  0.4293
 6864TIP3   OH220555   3.511   0.925   0.691 -0.3653 -0.5077 -0.0758
 6864TIP3    H120556   3.479   1.011   0.663 -0.4551 -0.4734  0.1359
 6864TIP3    H220557   3.602   0.923   0.659 -0.4335 -0.4279 -0.2824
 6865TIP3   OH220558   0.046   5.081   3.222  0.2063 -0.5235  0.3569
 6865TIP3    H120559  -0.042   5.118   3.224  0.3934 -0.1065  1.3308
 6865TIP3    H220560   0.031   4.986   3.221 -0.2532 -0.4542  0.1561
 6866TIP3   OH220561   0.049   1.258   2.434  0.0521  0.2092 -0.1654
 6866TIP3    H120562   0.045   1.166   2.461  0.4571  0.8397  2.2766
 6866TIP3    H220563   0.085   1.255   2.345 -0.1600 -1.9807 -0.2430
 6867TIP3   OH220564   7.058   0.275   5.525  0.4150  0.1770  0.0933
 6867TIP3    H120565   7.106   0.302   5.603  0.2204  0.7741  0.0145
 6867TIP3    H220566   7.116   0.296   5.452 -0.3952  1.9709 -0.0790
 6868TIP3   OH220567   5.490   5.824   5.479 -0.3273 -0.0232  0.1974
 6868TIP3    H120568   5.579   5.790   5.482 -0.4951 -0.4255  0.7312
 6868TIP3    H220569   5.435   5.750   5.502 -0.9942 -0.3882 -2.2644
 6869TIP3   OH220570   4.592   0.571   1.220 -0.4266  0.6480  0.0275
 6869TIP3    H120571   4.623   0.654   1.183 -2.6000  0.6838 -1.9267
 6869TIP3    H220572   4.573   0.591   1.312 -1.2321  2.4464 -0.4857
 6870TIP3   OH220573   1.551   1.237   0.072 -0.2814 -0.3505  0.3845
 6870TIP3    H120574   1.535   1.286   0.153  0.1395 -0.6654  0.6619
 6870TIP3    H220575   1.594   1.301   0.014  0.6022 -0.4862  0.8778
 6871TIP3   OH220576   5.760   5.925   3.858 -0.2918 -0.9465  0.1242
 6871TIP3    H120577   5.856   5.921   3.861 -0.2722 -0.2269  2.0002
 6871TIP3    H220578   5.738   5.919   3.765  1.5712 -1.0617 -0.3442
 6872TIP3   OH220579   0.247   0.529   0.299 -0.2717 -0.6263  0.6740
 6872TIP3    H120580   0.296   0.484   0.368  0.2518 -0.8531  0.1587
 6872TIP3    H220581   0.253   0.621   0.322 -0.4059 -0.7273  1.1279
 6873TIP3   OH220582   6.031   5.273   2.196 -0.0255 -0.9382 -0.0801
 6873TIP3    H120583   5.986   5.356   2.208  0.9356 -0.4660  0.3401
 6873TIP3    H220584   6.118   5.297   2.164 -0.1527 -1.8453 -1.1502
 6874TIP3   OH220585   5.675   3.964   0.279  0.0562 -0.1785 -0.2318
 6874TIP3    H120586   5.622   3.893   0.314 -0.1376  1.0721  2.1874
 6874TIP3    H220587   5.655   3.964   0.185 -0.5137 -2.7712 -0.1869
 6875TIP3   OH220588   5.460   2.550   2.160 -0.1036 -0.0943  0.6659
 6875TIP3    H120589   5.499   2.607   2.094  1.7112  0.9859  2.5248
 6875TIP3    H220590   5.367   2.551   2.141  0.2087  1.2379 -1.0649
 6876TIP3   OH220591   1.012   1.153   5.605 -0.0576 -0.2009  0.0415
 6876TIP3    H120592   1.080   1.087   5.601 -0.1472 -0.2305 -1.3229
 6876TIP3    H220593   0.952   1.121   5.673 -0.7867 -2.2086 -1.4548
 6877TIP3   OH220594   6.553   6.194   3.230 -0.2697  0.0453 -0.2397
 6877TIP3    H120595   6.629   6.157   3.274 -0.8857 -0.3578  0.5245
 6877TIP3    H220596   6.478   6.164   3.282 -0.9195  0.8407 -0.6831
 6878TIP3   OH220597   3.086   1.342   2.493  0.1612 -0.0178  0.5917
 6878TIP3    H120598   3.049   1.363   2.579  1.4300  2.8157  0.5536
 6878TIP3    H220599   3.015   1.363   2.432 -0.1092 -0.1988  0.8374
 6879TIP3   OH220600   6.930   4.024   1.222 -0.8753 -0.4604  0.2689
 6879TIP3    H120601   6.993   4.012   1.151  1.2813  0.1718  1.9633
 6879TIP3    H220602   6.845   4.030   1.179  0.6170  3.5421 -2.6267
 6880TIP3   OH220603   0.926   1.175   2.252  0.3350  0.0922  0.1579
 6880TIP3    H120604   0.913   1.100   2.193  0.5728  0.7452 -0.7521
 6880TIP3    H220605   1.011   1.158   2.293 -0.9655 -1.6601  2.3082
 6881TIP3   OH220606   6.630   3.559   0.827  0.1036 -0.7502 -0.6195
 6881TIP3    H120607   6.612   3.609   0.906  1.4787  0.5766 -1.1043
 6881TIP3    H220608   6.549   3.562   0.777 -1.2763 -2.7975  1.2809
 6882TIP3   OH220609   2.987   5.980   0.324  0.0834  0.1088 -0.1128
 6882TIP3    H120610   3.022   5.984   0.413 -1.2615  1.6318  0.3926
 6882TIP3    H220611   2.926   5.907   0.325  1.8996 -1.4894 -0.5358
 6883TIP3   OH220612   5.803   0.967   1.133  0.1104 -0.3388  0.0121
 6883TIP3    H120613   5.880   0.994   1.083 -0.6209  2.6791  0.3078
 6883TIP3    H220614   5.837   0.949   1.221  0.4818  1.7551  0.3644
 6884TIP3   OH220615   3.645   5.158   4.902  0.2158 -0.5541  0.5088
 6884TIP3    H120616   3.652   5.244   4.861  0.7803 -1.7660 -2.1104
 6884TIP3    H220617   3.727   5.149   4.951  0.4106  0.1300  0.3280
 6885TIP3   OH220618   6.756   1.608   2.899  0.4341  0.4559  0.0875
 6885TIP3    H120619   6.739   1.596   2.992  0.0159  0.2924 -0.0079
 6885TIP3    H220620   6.701   1.543   2.856  1.4638 -0.2227 -0.2302
 6886TIP3   OH220621   6.727   1.358   2.972  0.1715  0.4093  0.5551
 6886TIP3    H120622   6.819   1.333   2.987 -0.3480 -0.9694  1.7139
 6886TIP3    H220623   6.686   1.350   3.058 -1.1123  0.6606 -0.0144
 6887TIP3   OH220624   2.464   1.174   4.699 -0.9436 -0.3425 -0.1015
 6887TIP3    H120625   2.546   1.139   4.666 -0.8877  0.3304 -0.7009
 6887TIP3    H220626   2.426   1.221   4.624 -1.0487  0.8072  0.6545
 6888TIP3   OH220627   6.467   6.461   1.832 -0.0831 -0.0211  0.4447
 6888TIP3    H120628   6.521   6.508   1.768 -0.5528  1.6351  1.1956
 6888TIP3    H220629   6.513   6.379   1.847  0.7313  0.1317 -1.0177
 6889TIP3   OH220630   6.130   1.018   0.091  0.3367  0.5284  0.3724
 6889TIP3    H120631   6.174   1.059   0.165 -1.0566  0.0088  1.5262
 6889TIP3    H220632   6.149   0.924   0.101  1.0075  0.5521 -0.5454
 6890TIP3   OH220633   4.022   2.438   5.240  0.0017 -0.1017  0.2569
 6890TIP3    H120634   4.090   2.479   5.187  2.7668 -0.4002  3.2365
 6890TIP3    H220635   4.020   2.347   5.210 -0.2300  0.2643 -0.8845
 6891TIP3   OH220636   7.034   3.827   2.871 -0.0424 -0.2337 -0.2963
 6891TIP3    H120637   7.107   3.766   2.884  1.3481  1.4672  0.1210
 6891TIP3    H220638   7.002   3.845   2.959  0.4465  0.6799 -0.2978
 6892TIP3   OH220639   3.276   0.438   1.970  0.1978 -0.3802 -0.4346
 6892TIP3    H120640   3.241   0.445   2.059 -2.7696  0.3801 -1.5323
 6892TIP3    H220641   3.200   0.455   1.913  2.1297 -0.0611 -3.1151
 6893TIP3   OH220642   5.453   1.141   0.133 -0.0882 -0.1972  0.2448
 6893TIP3    H120643   5.524   1.204   0.141  1.4141 -1.9524  2.1040
 6893TIP3    H220644   5.405   1.148   0.216  0.0527 -1.3557  0.4530
 6894TIP3   OH220645   0.875   5.122   4.668  0.1863  0.1812  0.0679
 6894TIP3    H120646   0.919   5.129   4.583 -0.7004  0.4558 -0.3816
 6894TIP3    H220647   0.871   5.028   4.685  1.0507  0.1547  0.1853
 6895TIP3   OH220648   4.524   6.278   0.334 -0.0307  0.1049  0.1682
 6895TIP3    H120649   4.475   6.358   0.315  2.0071  0.9076 -2.2107
 6895TIP3    H220650   4.599   6.307   0.386  0.4633 -0.3009 -0.3011
 6896TIP3   OH220651   7.075   0.982   2.810  0.4003 -0.3163 -0.0736
 6896TIP3    H120652   7.111   0.920   2.873 -0.6842 -1.0972 -0.1969
 6896TIP3    H220653   6.985   0.997   2.839 -0.1948 -0.8619 -1.5150
 6897TIP3   OH220654   2.109   0.334   4.734 -1.2598  0.4381 -0.3660
 6897TIP3    H120655   2.076   0.395   4.668 -1.2000  1.3899  0.4618
 6897TIP3    H220656   2.197   0.312   4.705 -1.3250  0.6493 -0.7323
 6898TIP3   OH220657   5.870   0.362   0.877 -0.1529  0.6417  0.8831
 6898TIP3    H120658   5.864   0.423   0.951 -0.0018 -0.5285  1.8980
 6898TIP3    H220659   5.814   0.289   0.902  1.0910 -0.4594  0.5402
 6899TIP3   OH220660   1.528   1.201   3.361  0.0609  0.5221 -0.1260
 6899TIP3    H120661   1.444   1.164   3.332 -0.7313  1.7221  0.5537
 6899TIP3    H220662   1.543   1.275   3.302  1.2180 -0.3215 -0.9421
 6900TIP3   OH220663   5.413   6.641   5.680  0.3759 -0.4840 -0.4564
 6900TIP3    H120664   5.392   6.733   5.696 -1.2919 -0.9110  0.0442
 6900TIP3    H220665   5.414   6.601   5.767 -1.6230 -1.4343 -0.8007
 6901TIP3   OH220666   0.845   6.753   0.899  0.5129 -0.2199  0.1244
 6901TIP3    H120667   0.848   6.658   0.912 -1.3987 -0.3966 -0.3932
 6901TIP3    H220668   0.931   6.775   0.862  1.3171 -1.5911  1.0835
 6902TIP3   OH220669  -0.000   2.505   2.710 -0.5334  0.1020  0.1795
 6902TIP3    H120670  -0.033   2.520   2.621 -0.4678 -0.3503  0.0767
 6902TIP3    H220671   0.033   2.591   2.738 -2.0604  0.6551  0.3962
 6903TIP3   OH220672   4.125   4.967   1.260 -0.2823 -0.0290 -0.1836
 6903TIP3    H120673   4.102   5.017   1.338 -0.5137 -0.6154  0.1266
 6903TIP3    H220674   4.219   4.981   1.249 -0.4613  0.9888 -0.4705
 6904TIP3   OH220675   0.636   4.688   0.580 -0.0419 -0.3123 -0.2719
 6904TIP3    H120676   0.585   4.769   0.574  0.0788 -0.3216 -1.8756
 6904TIP3    H220677   0.683   4.683   0.497 -0.6339 -2.4304 -0.5468
 6905TIP3   OH220678   2.816   1.602   5.853  0.0105  0.4502 -0.0505
 6905TIP3    H120679   2.760   1.554   5.914  0.2609  1.8915  1.3715
 6905TIP3    H220680   2.760   1.670   5.817  0.2115  0.4037 -0.4509
 6906TIP3   OH220681   5.361   0.238   2.071  0.3832 -0.4898 -0.5193
 6906TIP3    H120682   5.274   0.261   2.037  0.9853 -0.5451 -2.1823
 6906TIP3    H220683   5.343   0.191   2.153 -1.0690  1.1625  0.1768
 6907TIP3   OH220684   2.686   6.445   2.927 -0.2304  0.0433  0.0635
 6907TIP3    H120685   2.734   6.514   2.972  0.8007  0.2258 -1.2790
 6907TIP3    H220686   2.680   6.474   2.836 -0.0912 -1.4472 -0.4542
 6908TIP3   OH220687   2.416   3.923   2.578 -0.1484  0.0510 -0.2840
 6908TIP3    H120688   2.324   3.920   2.604 -0.5867 -2.8464 -1.7450
 6908TIP3    H220689   2.431   4.014   2.550 -1.5509  1.4584  3.0702
 6909TIP3   OH220690   4.884   1.313   4.869  0.0275 -0.1878  0.1794
 6909TIP3    H120691   4.855   1.228   4.836 -1.8557  1.1813 -1.9500
 6909TIP3    H220692   4.973   1.324   4.834  0.4785 -1.4103  0.8619
 6910TIP3   OH220693   6.763   4.828   4.382 -0.0988  0.1401  0.3013
 6910TIP3    H120694   6.856   4.803   4.378 -0.0690  0.3431 -1.2318
 6910TIP3    H220695   6.715   4.747   4.367 -0.1894 -0.0104  1.3568
 6911TIP3   OH220696   5.983   5.195   3.493 -0.1958  0.1804 -0.3554
 6911TIP3    H120697   6.074   5.179   3.515  0.9274  1.2970 -3.5738
 6911TIP3    H220698   5.975   5.291   3.489 -1.1691  0.0903 -1.2223
 6912TIP3   OH220699   2.443   4.368   5.761  0.1570  0.1679 -0.0351
 6912TIP3    H120700   2.426   4.435   5.827 -0.4633  0.0673 -0.0832
 6912TIP3    H220701   2.538   4.357   5.761  0.4524  2.2302 -1.1845
 6913TIP3   OH220702   5.836   2.890   4.215  0.0987  0.6157  0.2512
 6913TIP3    H120703   5.928   2.875   4.234  0.0713 -0.2703 -0.2421
 6913TIP3    H220704   5.791   2.874   4.298  0.2399 -0.5509  0.1213
 6914TIP3   OH220705   4.822   0.939   0.896 -0.2256  0.1590  0.0256
 6914TIP3    H120706   4.893   0.892   0.853  0.3755  1.7996 -0.8329
 6914TIP3    H220707   4.755   0.950   0.828 -1.8497 -2.2928  1.0849
 6915TIP3   OH220708   3.274   6.027   2.795  0.1748 -0.2985 -0.0027
 6915TIP3    H120709   3.259   5.998   2.705  0.4623 -0.0787 -0.1234
 6915TIP3    H220710   3.190   6.064   2.823  0.3388  0.4677 -0.4980
 6916TIP3   OH220711   1.926   3.866   1.469  0.9031  0.2510 -0.4676
 6916TIP3    H120712   1.881   3.795   1.514 -1.0877  0.9035 -1.3079
 6916TIP3    H220713   2.019   3.848   1.482  0.4497 -0.3595  2.5939
 6917TIP3   OH220714   0.776   6.073   2.057  0.3015  0.6200 -0.2494
 6917TIP3    H120715   0.711   6.062   2.127 -0.1358 -1.4507 -0.9017
 6917TIP3    H220716   0.823   5.990   2.056  1.9327  1.5160 -0.8355
 6918TIP3   OH220717   3.570   6.568   3.591 -0.0939  0.0314 -0.3775
 6918TIP3    H120718   3.593   6.602   3.677 -1.1397 -0.7060  0.2240
 6918TIP3    H220719   3.519   6.489   3.609 -1.2808  0.4548 -1.6301
 6919TIP3   OH220720   2.366   5.226   1.637  0.3202 -0.4168  0.9639
 6919TIP3    H120721   2.320   5.161   1.689  0.7009  0.3655  2.3159
 6919TIP3    H220722   2.450   5.238   1.681  0.6168  0.3334  0.2248
 6920TIP3   OH220723   2.429   0.149   3.911 -0.4534  0.2488  0.0285
 6920TIP3    H120724   2.367   0.211   3.948  1.2719  0.7104  2.4187
 6920TIP3    H220725   2.514   0.192   3.920  0.4419 -1.1554 -1.2721
 6921TIP3   OH220726   6.083   5.706   4.907 -0.7735  0.4596  0.0765
 6921TIP3    H120727   6.043   5.740   4.828 -0.2806  1.8491  0.3850
 6921TIP3    H220728   6.138   5.633   4.878 -0.7455  0.8355 -0.8274
 6922TIP3   OH220729   6.441   1.296   1.539  0.2844 -0.1679 -0.0615
 6922TIP3    H120730   6.534   1.272   1.541  0.5937  0.9384 -0.2926
 6922TIP3    H220731   6.434   1.357   1.466 -0.0910  1.8393  1.5697
 6923TIP3   OH220732   4.437   4.430   1.857 -0.6972  0.2090  0.0124
 6923TIP3    H120733   4.362   4.489   1.864  0.2997  1.6427 -0.8390
 6923TIP3    H220734   4.473   4.446   1.770  0.1259 -1.0566  0.0862
 6924TIP3   OH220735   5.092   2.793   0.691  0.0631 -0.1267 -0.9504
 6924TIP3    H120736   5.164   2.730   0.694 -1.0416 -1.4432 -1.3230
 6924TIP3    H220737   5.079   2.819   0.782  0.3330 -0.6694 -0.7510
 6925TIP3   OH220738   0.457   3.263   5.333 -0.1334 -0.3757 -0.0655
 6925TIP3    H120739   0.499   3.281   5.249 -0.3169  1.7282  0.2622
 6925TIP3    H220740   0.495   3.326   5.394 -0.6622 -1.2682  1.2473
 6926TIP3   OH220741   4.109   4.172   4.493  0.1339 -0.5080  0.2145
 6926TIP3    H120742   4.107   4.088   4.538  0.3783 -0.5988  0.0605
 6926TIP3    H220743   4.052   4.229   4.545  0.8140 -0.4627  0.9237
 6927TIP3   OH220744   4.848   1.595   4.749  0.0629  0.0729 -0.3419
 6927TIP3    H120745   4.805   1.597   4.834 -1.6653  2.4317 -1.1533
 6927TIP3    H220746   4.776   1.593   4.686  1.2194  0.7814 -1.7493
 6928TIP3   OH220747   2.033   1.614   4.826  0.3807  0.1063 -0.5083
 6928TIP3    H120748   2.085   1.629   4.746  0.5953 -1.5053 -0.7079
 6928TIP3    H220749   2.079   1.663   4.894  1.8218 -0.7390 -0.8256
 6929TIP3   OH220750   0.212   5.751   5.440  0.4531 -0.2378 -0.3882
 6929TIP3    H120751   0.167   5.678   5.397 -2.1968  1.9563 -1.6531
 6929TIP3    H220752   0.217   5.725   5.532 -2.1603 -1.2906 -0.4429
 6930TIP3   OH220753   7.175   5.201   5.466  0.4405  0.0293 -0.7428
 6930TIP3    H120754   7.111   5.272   5.466 -0.2800 -0.5570  1.1208
 6930TIP3    H220755   7.240   5.228   5.531  0.4373 -0.7889 -0.3954
 6931TIP3   OH220756   6.350   4.180   0.977 -0.2273 -0.3116  0.3732
 6931TIP3    H120757   6.345   4.112   1.044 -1.1997 -0.3581  0.2606
 6931TIP3    H220758   6.314   4.140   0.898 -2.2956  0.7710  0.6897
 6932TIP3   OH220759   6.619   3.082   0.936  0.3027  0.4330  0.2732
 6932TIP3    H120760   6.598   3.174   0.952  0.9419  0.8147 -0.9854
 6932TIP3    H220761   6.535   3.042   0.914  0.0877  0.7940  0.4304
 6933TIP3   OH220762   3.098   0.368   3.676  0.0153 -0.2098 -0.2382
 6933TIP3    H120763   3.022   0.348   3.731 -0.5110  1.1498 -0.4200
 6933TIP3    H220764   3.065   0.430   3.611  0.5282 -2.0472 -2.3812
 6934TIP3   OH220765   0.837   4.443   2.460  0.1895 -0.1321 -0.1650
 6934TIP3    H120766   0.852   4.480   2.373  0.6589 -1.2985 -0.6121
 6934TIP3    H220767   0.784   4.508   2.506  0.5167  0.8096 -1.0862
 6935TIP3   OH220768   1.476   3.253   1.705  0.1646 -0.6248 -0.1113
 6935TIP3    H120769   1.553   3.198   1.712 -0.2915 -1.2691 -0.0878
 6935TIP3    H220770   1.439   3.233   1.619 -1.0637 -1.7912  0.6486
 6936TIP3   OH220771   4.008   5.986   1.893  0.1585 -0.4579  0.4570
 6936TIP3    H120772   4.083   6.007   1.837 -0.4576 -0.5682 -0.4274
 6936TIP3    H220773   4.006   6.058   1.957  0.3407  0.1695 -0.2194
 6937TIP3   OH220774   6.983   0.197   5.140  0.0811 -0.1437  0.3151
 6937TIP3    H120775   6.970   0.103   5.125  3.6051 -0.9643  1.4778
 6937TIP3    H220776   6.898   0.227   5.174 -1.6267 -2.5031 -1.4711
 6938TIP3   OH220777   6.687   1.721   3.832 -0.5906  0.1405 -0.7411
 6938TIP3    H120778   6.634   1.649   3.866  1.9195 -0.6427  1.8633
 6938TIP3    H220779   6.715   1.691   3.746  0.9935 -2.4639  0.5604
 6939TIP3   OH220780   6.098   0.717   2.159  0.4202  0.1536 -0.2162
 6939TIP3    H120781   6.062   0.805   2.149  1.0712  0.4194 -0.2313
 6939TIP3    H220782   6.024   0.659   2.138  0.2410  0.6934 -1.1332
 6940TIP3   OH220783   0.723   5.633   1.996 -0.6070  0.6619 -0.3060
 6940TIP3    H120784   0.806   5.633   2.045 -1.9080  0.5336  2.0474
 6940TIP3    H220785   0.745   5.594   1.912  1.5671 -0.0792  0.5338
 6941TIP3   OH220786   5.982   0.335   4.388  0.5036  0.1315  0.2394
 6941TIP3    H120787   5.899   0.298   4.417  0.2909  0.3817 -0.0465
 6941TIP3    H220788   5.979   0.427   4.416  1.1850 -0.1397  1.2776
 6942TIP3   OH220789   5.188   4.659   1.565 -0.3752  0.4560  0.4918
 6942TIP3    H120790   5.158   4.594   1.628  0.4085  0.3463  0.7590
 6942TIP3    H220791   5.239   4.609   1.501  1.2115  0.9341  1.3265
 6943TIP3   OH220792   2.279   5.939   4.831  0.5269 -0.3720  0.1125
 6943TIP3    H120793   2.212   5.884   4.792 -0.4940  0.5424  0.5282
 6943TIP3    H220794   2.360   5.888   4.823  0.3822 -0.3078 -3.0778
 6944TIP3   OH220795   0.198   6.067   3.464  0.3418  0.9447 -0.1549
 6944TIP3    H120796   0.172   6.149   3.507  0.2375  0.5631  0.5254
 6944TIP3    H220797   0.118   6.016   3.459  0.3816  0.9363 -0.6988
 6945TIP3   OH220798   6.198   4.690   3.536  0.2750 -0.0611 -0.0309
 6945TIP3    H120799   6.137   4.738   3.592  2.0971  0.0650  2.0140
 6945TIP3    H220800   6.229   4.755   3.472  1.7846  1.2782  1.9258
 6946TIP3   OH220801   3.870   5.250   5.063  0.2784  0.5775 -0.3931
 6946TIP3    H120802   3.860   5.246   5.158 -0.2695  3.1750 -0.2445
 6946TIP3    H220803   3.960   5.221   5.047 -0.1609 -1.5597  0.6853
 6947TIP3   OH220804   5.261   2.747   3.632 -0.5697 -0.6031 -0.3634
 6947TIP3    H120805   5.176   2.779   3.601 -0.8208 -0.1324  0.7700
 6947TIP3    H220806   5.239   2.679   3.696 -0.0675 -1.0617 -0.6680
 6948TIP3   OH220807   4.493   1.901   4.050  0.6010  0.2785 -0.2656
 6948TIP3    H120808   4.439   1.979   4.062 -2.1561 -1.1524 -2.2862
 6948TIP3    H220809   4.578   1.925   4.087 -0.7222  3.4632  1.0727
 6949TIP3   OH220810   3.489   3.873   0.577 -0.3809 -0.0088 -0.2748
 6949TIP3    H120811   3.468   3.958   0.538 -0.5815  0.5046  0.8842
 6949TIP3    H220812   3.462   3.809   0.512 -0.9883  0.7962 -0.8383
 6950TIP3   OH220813   5.253   1.407   0.086  0.2308  0.1893 -0.3440
 6950TIP3    H120814   5.328   1.366   0.042  0.1531  1.0645 -1.3476
 6950TIP3    H220815   5.279   1.499   0.095 -1.0292  0.6732 -1.4124
 6951TIP3   OH220816   1.894   3.989   4.383  0.4056  0.2642 -0.4036
 6951TIP3    H120817   1.864   3.992   4.473 -0.8545  0.0573 -0.7944
 6951TIP3    H220818   1.875   3.899   4.355 -2.1640  1.1332 -1.8021
 6952TIP3   OH220819   3.019   3.326   0.305 -0.1521  0.2688  0.4092
 6952TIP3    H120820   2.972   3.408   0.313  0.7898  0.8341  0.3153
 6952TIP3    H220821   3.065   3.316   0.388 -0.5254 -0.3422  0.5527
 6953TIP3   OH220822   6.061   3.464   0.999 -0.2370 -0.6476 -0.0134
 6953TIP3    H120823   5.975   3.488   1.034 -0.7460  0.0412 -1.6453
 6953TIP3    H220824   6.051   3.373   0.971  0.1081 -1.1311  1.3588
 6954TIP3   OH220825   5.453   3.103   3.242  0.6037  1.1878  0.4083
 6954TIP3    H120826   5.447   3.033   3.307  0.8993 -0.7600 -1.5551
 6954TIP3    H220827   5.546   3.122   3.235  0.5741  1.3805  0.5129
 6955TIP3   OH220828   2.924   0.596   5.412  0.1691  0.1330  0.7568
 6955TIP3    H120829   2.833   0.615   5.390  0.0456  0.9188  1.8457
 6955TIP3    H220830   2.957   0.678   5.448  1.4291 -0.0300  0.0455
 6956TIP3   OH220831   4.901   4.999   2.386 -0.3928  0.6282  0.0040
 6956TIP3    H120832   4.862   5.078   2.423  2.4048  1.0948  2.3809
 6956TIP3    H220833   4.847   4.927   2.420 -1.1551  1.3887  0.4230
 6957TIP3   OH220834   5.180   5.708   2.161 -0.1476 -0.5667 -0.0770
 6957TIP3    H120835   5.139   5.787   2.196  0.0696 -0.1403 -0.7605
 6957TIP3    H220836   5.141   5.637   2.210  0.4332  0.0357  1.3112
 6958TIP3   OH220837   1.317   3.527   5.239  0.0451  0.4475  1.0896
 6958TIP3    H120838   1.397   3.524   5.187 -1.1717 -0.2527 -0.8293
 6958TIP3    H220839   1.277   3.611   5.216 -0.1037  0.4951  1.5191
 6959TIP3   OH220840   5.243   1.352   1.684 -0.8459 -0.2055  0.2692
 6959TIP3    H120841   5.167   1.301   1.712 -1.6335  1.2875  0.9496
 6959TIP3    H220842   5.283   1.384   1.765 -1.8797  2.3552 -0.1294
 6960TIP3   OH220843   2.614   4.347   0.465 -0.1164 -0.1208 -0.5720
 6960TIP3    H120844   2.632   4.253   0.461 -1.0874 -0.3114 -0.8492
 6960TIP3    H220845   2.700   4.388   0.467  0.3339 -1.0614  0.7314
 6961TIP3   OH220846   3.035   1.091   0.698  0.1742 -0.0001  0.1601
 6961TIP3    H120847   3.068   1.067   0.611  0.7324  1.4760 -0.0612
 6961TIP3    H220848   2.940   1.086   0.689  0.2388 -0.5829 -0.3044
 6962TIP3   OH220849   1.953   1.823   3.768 -0.2913 -0.0918 -0.6530
 6962TIP3    H120850   1.920   1.910   3.745 -1.2464 -0.4340 -0.6165
 6962TIP3    H220851   2.045   1.838   3.791  0.2327  0.5662 -2.8389
 6963TIP3   OH220852   2.065   4.662   4.608 -0.0667  0.4262 -0.1745
 6963TIP3    H120853   2.095   4.700   4.525  0.6046  1.5124  0.5479
 6963TIP3    H220854   2.056   4.737   4.667 -0.6106 -0.3229  0.7192
 6964TIP3   OH220855   0.442   1.174   0.813 -0.0288  0.1320 -0.0513
 6964TIP3    H120856   0.403   1.120   0.882 -0.2274 -0.5520 -0.6889
 6964TIP3    H220857   0.525   1.204   0.850  0.2190 -0.8463  0.2163
 6965TIP3   OH220858   1.451   1.693   5.839  0.1908  0.1346 -0.3302
 6965TIP3    H120859   1.392   1.760   5.873  0.4132  0.1193  0.0939
 6965TIP3    H220860   1.441   1.699   5.744 -2.6617 -1.8218 -0.2711
 6966TIP3   OH220861   1.886   1.923   2.397 -0.2524 -0.2327  0.4918
 6966TIP3    H120862   1.872   1.877   2.315 -1.9767 -2.1096  1.7536
 6966TIP3    H220863   1.924   1.857   2.455 -0.2641  0.6928  1.5780
 6967TIP3   OH220864   5.848   6.465   0.654  0.0311  0.1332  0.8301
 6967TIP3    H120865   5.857   6.500   0.743  0.7064 -2.0207  1.6868
 6967TIP3    H220866   5.925   6.410   0.643 -0.8838 -0.9409 -0.4575
 6968TIP3   OH220867   4.343   5.887   4.945 -0.1997 -0.5286  1.1030
 6968TIP3    H120868   4.251   5.866   4.956  0.1218 -0.9630  3.3171
 6968TIP3    H220869   4.344   5.976   4.910 -1.4355 -0.8868  0.0712
 6969TIP3   OH220870   3.756   5.276   1.194  0.6940 -0.3982 -0.2410
 6969TIP3    H120871   3.831   5.230   1.156  2.0893  0.0190  1.8328
 6969TIP3    H220872   3.790   5.361   1.220 -0.4907 -0.1889  0.7360
 6970TIP3   OH220873   5.421   5.187   3.722 -0.0674  0.7316 -0.0238
 6970TIP3    H120874   5.463   5.191   3.636  0.2904 -0.1474  0.0986
 6970TIP3    H220875   5.327   5.193   3.703 -0.1354 -1.5278 -0.6800
 6971TIP3   OH220876   3.018   4.298   2.773  0.4971 -0.1187  1.5398
 6971TIP3    H120877   3.103   4.342   2.764  0.5986 -0.6297 -0.4077
 6971TIP3    H220878   3.040   4.206   2.784  0.2406 -0.5791 -1.1440
 6972TIP3   OH220879   1.106   0.345   0.239  0.4511 -0.2226 -0.1525
 6972TIP3    H120880   1.166   0.368   0.310  0.2571  1.0412 -0.3773
 6972TIP3    H220881   1.019   0.349   0.278 -0.0425  4.2483 -1.2215
 6973TIP3   OH220882   0.377   2.341   1.849 -0.0582  0.0000  0.1742
 6973TIP3    H120883   0.375   2.400   1.924 -1.6810 -0.8946  0.8804
 6973TIP3    H220884   0.380   2.253   1.886 -2.5570 -0.5334 -0.7077
 6974TIP3   OH220885   6.915   0.739   2.688 -0.4279  0.4327 -0.0940
 6974TIP3    H120886   7.003   0.759   2.719 -0.7752  3.6375 -0.8783
 6974TIP3    H220887   6.871   0.824   2.682 -2.7958 -0.7992 -2.0517
 6975TIP3   OH220888   2.472   2.719   0.097  0.2287  0.3741  0.0346
 6975TIP3    H120889   2.383   2.710   0.062 -0.6296  3.3211  1.1256
 6975TIP3    H220890   2.486   2.813   0.101  3.2082 -0.0025  0.5025
 6976TIP3   OH220891   2.546   3.364   3.109  0.1049  0.1352  0.7894
 6976TIP3    H120892   2.627   3.391   3.153  2.6821 -3.4039 -1.1822
 6976TIP3    H220893   2.503   3.307   3.172 -0.4712  1.3900  1.5559
 6977TIP3   OH220894   2.852   1.493   5.097  0.1187 -0.4657 -0.3433
 6977TIP3    H120895   2.888   1.459   5.178 -0.3634 -0.4138 -0.1025
 6977TIP3    H220896   2.765   1.526   5.121 -0.8318 -2.1725 -1.2502
 6978TIP3   OH220897   5.061   2.551   3.682  0.5638 -0.2152  0.4339
 6978TIP3    H120898   5.021   2.511   3.605  0.0707 -0.7850  0.9659
 6978TIP3    H220899   5.012   2.632   3.695  0.8501  0.0333 -0.0266
 6979TIP3   OH220900   6.558   5.450   4.924  0.5255  0.0907 -0.2610
 6979TIP3    H120901   6.626   5.486   4.866  1.5375 -1.0631  0.1853
 6979TIP3    H220902   6.560   5.356   4.908 -1.0630  0.0324 -0.3109
 6980TIP3   OH220903   5.046   0.273   4.537  0.0877  0.0248 -0.3018
 6980TIP3    H120904   5.104   0.275   4.614 -0.8623  0.5400  0.4175
 6980TIP3    H220905   5.079   0.343   4.481 -1.5036  2.2803  1.3918
 6981TIP3   OH220906   2.535   1.610   3.042  0.5105  0.1970  0.2140
 6981TIP3    H120907   2.467   1.664   3.082 -0.4500 -0.9538  0.1599
 6981TIP3    H220908   2.616   1.637   3.087 -0.2101  0.4896  1.3765
 6982TIP3   OH220909   2.502   6.031   2.536 -0.1438  0.3485  0.2892
 6982TIP3    H120910   2.455   6.107   2.569  1.2242  0.9430  0.9252
 6982TIP3    H220911   2.519   6.051   2.444 -0.9253  0.2096  0.1021
 6983TIP3   OH220912   6.867   1.335   0.624 -0.5634 -0.1296  0.5388
 6983TIP3    H120913   6.947   1.311   0.577  0.7783  0.9862  2.1134
 6983TIP3    H220914   6.880   1.301   0.713 -0.3937  2.6594  1.6873
 6984TIP3   OH220915   0.688   3.523   2.944 -0.6822  0.7551  0.0884
 6984TIP3    H120916   0.649   3.578   3.012 -1.3365 -0.4259  0.6918
 6984TIP3    H220917   0.672   3.571   2.863 -1.6047  1.2534  0.5512
 6985TIP3   OH220918   0.127   2.318   0.466  0.1623  0.4490  0.3010
 6985TIP3    H120919   0.187   2.375   0.419  2.4220 -1.8528  0.1759
 6985TIP3    H220920   0.174   2.294   0.546 -0.6893 -1.2266  0.3384
 6986TIP3   OH220921   2.977   5.391   0.319  0.2694  0.5973  0.5496
 6986TIP3    H120922   2.945   5.333   0.250  1.2729 -1.2172  1.5359
 6986TIP3    H220923   2.913   5.382   0.390  1.2530 -0.6514  1.3331
 6987TIP3   OH220924   1.140   6.289   2.739 -0.2030  0.4067  0.1056
 6987TIP3    H120925   1.216   6.308   2.794 -1.1541  0.2868  1.5278
 6987TIP3    H220926   1.068   6.336   2.782 -0.9130  0.6010 -1.2682
 6988TIP3   OH220927   5.588   2.659   1.933 -0.4748 -0.3809  0.1120
 6988TIP3    H120928   5.601   2.754   1.926 -3.5207  0.1856  0.8790
 6988TIP3    H220929   5.550   2.634   1.849 -0.5597 -0.7712  0.2680
 6989TIP3   OH220930   2.466   0.630   1.577  0.0028  0.3484  0.6458
 6989TIP3    H120931   2.454   0.718   1.613  0.6647  0.4849  0.5381
 6989TIP3    H220932   2.559   0.624   1.557 -0.4545  0.6514 -1.9984
 6990TIP3   OH220933   2.919   3.789   4.613 -0.4224  0.3863 -0.6391
 6990TIP3    H120934   2.981   3.716   4.613 -2.9789 -1.9684 -0.1754
 6990TIP3    H220935   2.937   3.836   4.532  1.1289 -0.9052 -1.1048
 6991TIP3   OH220936   1.850   0.516   2.582  0.2520 -0.0202 -0.1367
 6991TIP3    H120937   1.880   0.606   2.596 -1.9130  0.4810  2.1759
 6991TIP3    H220938   1.928   0.462   2.594  1.6582  1.5018 -1.8564
 6992TIP3   OH220939   6.751   1.893   1.801 -0.3212  0.1086 -0.0120
 6992TIP3    H120940   6.832   1.887   1.749  1.2046  0.4104  2.1777
 6992TIP3    H220941   6.756   1.819   1.861 -1.5789  0.2723  0.3087
 6993TIP3   OH220942   4.106   6.629   5.658  0.7113  0.0366 -0.1147
 6993TIP3    H120943   4.139   6.703   5.711  0.7750 -0.5596  0.6989
 6993TIP3    H220944   4.088   6.668   5.572 -1.1056  1.4385  0.8189
 6994TIP3   OH220945   6.223   0.025   1.824 -0.2966  0.1215  0.1767
 6994TIP3    H120946   6.261  -0.060   1.803  1.6735  0.6804  1.1932
 6994TIP3    H220947   6.189   0.058   1.741 -0.4156 -1.3193 -0.3763
 6995TIP3   OH220948   6.002   5.892   2.424 -0.1104  0.0273 -0.4455
 6995TIP3    H120949   5.943   5.889   2.348  0.5608 -0.7536 -0.9551
 6995TIP3    H220950   6.030   5.983   2.428 -0.8824  0.2842 -0.5560
 6996TIP3   OH220951   4.254   5.877   1.738  0.4476 -0.1585  0.0481
 6996TIP3    H120952   4.218   5.790   1.724  0.1752  0.0002 -0.2594
 6996TIP3    H220953   4.335   5.863   1.787 -0.0014 -0.5247  0.7061
 6997TIP3   OH220954   1.429   5.936   1.258 -0.1018 -0.2634 -0.3854
 6997TIP3    H120955   1.396   5.953   1.170  0.2329  1.2289 -0.2426
 6997TIP3    H220956   1.520   5.908   1.245 -0.1063 -0.2172 -0.5190
 6998TIP3   OH220957   3.366   4.261   0.824  0.2443 -0.2887  0.2162
 6998TIP3    H120958   3.381   4.354   0.842 -0.4690 -0.2045  0.3768
 6998TIP3    H220959   3.443   4.234   0.773 -0.4744  0.8546 -1.5471
 6999TIP3   OH220960   4.097   1.141   2.099  0.1518  0.4032 -0.1983
 6999TIP3    H120961   4.009   1.165   2.071  0.3367  0.3718 -0.8199
 6999TIP3    H220962   4.084   1.071   2.163 -0.3082  0.9885  0.3594
 7000TIP3   OH220963   4.621   0.025   1.830  0.1941 -0.1728 -0.0901
 7000TIP3    H120964   4.644   0.109   1.871 -0.5938 -0.2603  0.5602
 7000TIP3    H220965   4.701  -0.003   1.786  1.5804 -0.7431  2.5765
 7001TIP3   OH220966   2.968   1.554   5.430  0.5505 -0.2452 -0.0746
 7001TIP3    H120967   2.874   1.558   5.449 -0.4165  1.0252 -4.0960
 7001TIP3    H220968   2.983   1.464   5.402  0.9224 -0.8090  1.7857
 7002TIP3   OH220969   1.940   6.248   3.984 -0.8571 -0.0157  0.0695
 7002TIP3    H120970   1.916   6.156   3.975 -2.2506  0.2465  0.7370
 7002TIP3    H220971   1.947   6.262   4.079 -2.2069  0.8929  0.0708
 7003TIP3   OH220972   4.204   3.758   1.175  0.0643  0.1196 -0.4164
 7003TIP3    H120973   4.145   3.711   1.118 -0.6552  1.4412 -0.8078
 7003TIP3    H220974   4.171   3.848   1.175  0.4274  0.3068  1.5498
 7004TIP3   OH220975   5.795   0.971   5.375  0.2390  0.5273  0.0423
 7004TIP3    H120976   5.770   1.062   5.357  0.1690  0.4367 -0.3320
 7004TIP3    H220977   5.891   0.972   5.377  0.2704  0.3986 -1.1170
 7005TIP3   OH220978   2.412   0.982   1.124 -0.0982 -0.1999 -0.3340
 7005TIP3    H120979   2.447   0.912   1.179  0.9528  0.1665 -0.4964
 7005TIP3    H220980   2.378   1.047   1.186  0.6610  0.0015 -0.1113
 7006TIP3   OH220981   6.564   3.856   5.733  0.4089  0.3951  0.4889
 7006TIP3    H120982   6.629   3.805   5.782 -0.1326  0.4854  1.3172
 7006TIP3    H220983   6.519   3.791   5.679 -0.0176  0.0335  1.2537
 7007TIP3   OH220984   6.219   3.798   2.510 -0.4713 -1.4022  0.8933
 7007TIP3    H120985   6.243   3.835   2.425 -0.9356 -1.4649  0.7283
 7007TIP3    H220986   6.297   3.808   2.564 -0.3612 -0.8376  0.6358
 7008TIP3   OH220987   2.769   4.778   5.574 -0.4241 -0.3422  0.0537
 7008TIP3    H120988   2.862   4.796   5.560 -0.2689 -1.8172 -1.1764
 7008TIP3    H220989   2.754   4.697   5.525 -1.9795 -1.0527  1.6283
 7009TIP3   OH220990   3.543   5.415   5.867 -0.0336 -0.1863 -0.3104
 7009TIP3    H120991   3.603   5.395   5.795  0.8521  1.5552 -0.1136
 7009TIP3    H220992   3.524   5.508   5.857 -0.8669 -0.1941  0.9968
 7010TIP3   OH220993   5.423   1.243   4.966  0.3517 -0.0083 -0.2478
 7010TIP3    H120994   5.504   1.195   4.948 -0.1380 -0.6374 -0.8902
 7010TIP3    H220995   5.447   1.335   4.962  0.5275 -0.1017 -3.2256
 7011TIP3   OH220996   1.755   2.507   2.782 -0.5927  0.5593  0.1270
 7011TIP3    H120997   1.821   2.441   2.760 -1.3986  0.3493 -1.8811
 7011TIP3    H220998   1.792   2.555   2.856  0.2690 -1.7546  1.2923
 7012TIP3   OH220999   1.875   6.625   5.504  0.2474  0.0821 -0.0336
 7012TIP3    H121000   1.832   6.589   5.426  0.4084 -0.1678 -0.0099
 7012TIP3    H221001   1.831   6.582   5.578  1.2638 -1.0209 -0.0356
 7013TIP3   OH221002   6.968   0.261   1.391  0.0463  0.3009  0.0663
 7013TIP3    H121003   7.001   0.184   1.437 -2.1886 -1.6122 -1.2820
 7013TIP3    H221004   7.024   0.269   1.314  0.6705  0.4172  0.5239
 7014TIP3   OH221005   4.763   3.490   3.108 -0.1004 -0.4966  0.4907
 7014TIP3    H121006   4.701   3.487   3.036  1.0076 -1.2114 -0.4840
 7014TIP3    H221007   4.756   3.579   3.143 -0.5850 -0.1078 -0.5693
 7015TIP3   OH221008   5.855   3.972   1.289  0.1627  0.2761 -0.4140
 7015TIP3    H121009   5.821   3.910   1.224  0.0106  0.8043 -0.8418
 7015TIP3    H221010   5.932   4.010   1.247 -0.7952  1.7369 -0.9186
 7016TIP3   OH221011   1.738   5.325   3.139 -1.3415  0.0284  0.0257
 7016TIP3    H121012   1.833   5.333   3.135 -1.3205  0.4569  0.9850
 7016TIP3    H221013   1.716   5.256   3.076 -0.4085  0.0154 -0.2858
 7017TIP3   OH221014   5.991   5.737   3.894 -0.2507  0.4924  0.3264
 7017TIP3    H121015   6.017   5.776   3.811 -0.3727  2.0672  0.9827
 7017TIP3    H221016   5.926   5.671   3.871 -0.3589  0.9767 -0.8198
 7018TIP3   OH221017   5.614   0.619   3.258  0.5008  0.1588  0.1330
 7018TIP3    H121018   5.622   0.540   3.310  1.4722  0.6181  0.6960
 7018TIP3    H221019   5.520   0.640   3.261  0.2036 -1.0494 -0.1745
 7019TIP3   OH221020   6.140   4.999   2.154 -0.2475  0.1097 -0.3751
 7019TIP3    H121021   6.084   5.075   2.167  0.3962  0.3590  1.0199
 7019TIP3    H221022   6.085   4.938   2.104 -1.4643  0.6843  0.2196
 7020TIP3   OH221023   1.811   4.923   3.461 -0.5180 -0.0427 -0.1028
 7020TIP3    H121024   1.890   4.952   3.416  1.5095 -3.0504  1.1655
 7020TIP3    H221025   1.816   4.963   3.547  0.3512 -1.1888  0.4036
 7021TIP3   OH221026   0.902   5.644   5.673 -0.3826  0.1573  0.0251
 7021TIP3    H121027   0.857   5.727   5.683  0.3546  0.4899  0.7043
 7021TIP3    H221028   0.837   5.578   5.696 -0.2309  0.6704  2.1903
 7022TIP3   OH221029   1.689   2.445   3.284  0.2571  0.0059 -0.2841
 7022TIP3    H121030   1.616   2.460   3.343  0.6820 -1.4207  0.6559
 7022TIP3    H221031   1.648   2.437   3.197 -0.8407 -1.7318  0.3520
 7023TIP3   OH221032   2.712   3.128   0.085 -0.7101 -0.2685 -0.0668
 7023TIP3    H121033   2.678   3.180   0.013 -1.2504  0.5339  0.7480
 7023TIP3    H221034   2.807   3.130   0.074 -0.4985  2.9208  1.2252
 7024TIP3   OH221035   3.004   5.318   0.799 -0.3948  0.3368  0.1861
 7024TIP3    H121036   3.019   5.244   0.859 -0.0791  0.0629 -0.2250
 7024TIP3    H221037   3.091   5.341   0.767 -0.5311  0.6663  0.0505
 7025TIP3   OH221038   5.994   5.168   2.808 -0.0056  0.2718 -0.4105
 7025TIP3    H121039   6.008   5.148   2.900  0.0103  0.4832 -0.3662
 7025TIP3    H221040   5.957   5.256   2.808 -1.8904 -0.4738 -0.4773
 7026TIP3   OH221041   6.388   2.621   2.063 -0.0828  0.1782  0.0078
 7026TIP3    H121042   6.443   2.648   2.136 -0.8649 -0.6108  0.9076
 7026TIP3    H221043   6.449   2.582   2.000  0.4062 -0.5605  0.9232
 7027TIP3   OH221044   6.142   1.678   4.410  0.0826 -0.5046 -0.0590
 7027TIP3    H121045   6.201   1.610   4.376  2.3485  2.3727 -2.4892
 7027TIP3    H221046   6.055   1.652   4.381  1.0266 -1.8698 -1.8675
 7028TIP3   OH221047   6.175   2.348   2.264 -0.3185  0.2291  0.2334
 7028TIP3    H121048   6.160   2.366   2.357 -0.8111 -0.9083  0.3894
 7028TIP3    H221049   6.268   2.329   2.258 -0.5037 -0.9662  0.7440
 7029TIP3   OH221050   1.570   0.962   2.175 -0.7707 -0.2527 -0.1883
 7029TIP3    H121051   1.604   1.001   2.094 -2.1523  1.1383 -0.1452
 7029TIP3    H221052   1.543   0.874   2.150  0.7877 -0.6259 -0.7097
 7030TIP3   OH221053   1.223   2.642   2.025 -0.4727 -0.5098 -0.1581
 7030TIP3    H121054   1.192   2.733   2.031  1.4341  0.3490 -2.1861
 7030TIP3    H221055   1.316   2.648   2.044 -0.1984 -1.9610 -0.9697
 7031TIP3   OH221056   2.987   4.119   4.597 -0.4327  0.1953 -0.0945
 7031TIP3    H121057   3.041   4.130   4.518 -0.3746 -1.1010 -0.2574
 7031TIP3    H221058   3.041   4.067   4.656 -0.1658  1.8035  1.1467
 7032TIP3   OH221059   0.671   1.516   0.659  0.0696  0.3509 -0.4059
 7032TIP3    H121060   0.685   1.545   0.750 -0.7298 -1.1725  0.2494
 7032TIP3    H221061   0.587   1.555   0.634 -0.8716 -1.0746  0.3771
 7033TIP3   OH221062   0.227   1.368   2.253 -0.4589  0.7703  0.0088
 7033TIP3    H121063   0.307   1.393   2.300 -1.0175  0.5989  1.0989
 7033TIP3    H221064   0.191   1.451   2.222 -1.1572  1.1642  1.7222
 7034TIP3   OH221065   4.660   6.705   1.598  0.5508  1.1804 -0.2932
 7034TIP3    H121066   4.607   6.768   1.646  0.3021 -0.3876  1.6165
 7034TIP3    H221067   4.600   6.668   1.533 -0.1170  0.9436  0.4373
 7035TIP3   OH221068   3.560   5.794   4.937 -0.2266 -0.2761  0.4189
 7035TIP3    H121069   3.500   5.766   5.006 -0.2737 -2.3083 -0.3853
 7035TIP3    H221070   3.646   5.794   4.979 -0.4202 -0.2183  0.8188
 7036TIP3   OH221071   4.640   3.644   4.281  0.1929  0.6740 -0.0536
 7036TIP3    H121072   4.633   3.736   4.306  0.1212  0.4847  0.6207
 7036TIP3    H221073   4.696   3.645   4.203 -0.8369  1.4111 -0.8205
 7037TIP3   OH221074   2.173   5.590   0.396  0.4859  0.1960 -0.0022
 7037TIP3    H121075   2.251   5.535   0.396  1.6329  1.7445  0.7803
 7037TIP3    H221076   2.186   5.650   0.323 -0.1139  0.2942 -0.0359
 7038TIP3   OH221077   2.507   3.697   0.362 -0.9133 -0.3116 -0.1898
 7038TIP3    H121078   2.462   3.751   0.426  0.4813 -0.9025  1.3580
 7038TIP3    H221079   2.528   3.757   0.290 -2.9826  0.2408 -0.3927
 7039TIP3   OH221080   0.241   6.668   4.889 -0.3518  0.6305 -0.1421
 7039TIP3    H121081   0.200   6.607   4.950 -0.4195 -0.4223 -1.2021
 7039TIP3    H221082   0.307   6.713   4.941  0.4210 -1.1008  0.4688
 7040TIP3   OH221083   7.200   1.101   5.830 -0.5688 -1.0434 -0.4182
 7040TIP3    H121084   7.117   1.148   5.825 -0.7176 -1.2891 -0.2321
 7040TIP3    H221085   7.264   1.164   5.796 -0.3587  0.2329  2.0743
 7041TIP3   OH221086   2.524   3.018   3.035 -0.0200 -0.1164 -0.1082
 7041TIP3    H121087   2.498   3.056   2.951 -0.4044 -1.0301 -0.4116
 7041TIP3    H221088   2.498   3.083   3.100  0.4470  0.6785 -0.7052
 7042TIP3   OH221089   2.974   5.578   0.718 -0.1857 -0.8769  0.5806
 7042TIP3    H121090   3.020   5.606   0.797 -1.2653 -0.4983  1.0982
 7042TIP3    H221091   2.977   5.482   0.721  0.1755 -0.8600  0.8318
 7043TIP3   OH221092   0.834   3.247   4.729 -0.1299 -0.5702 -0.2220
 7043TIP3    H121093   0.823   3.217   4.819 -1.6988 -0.3190 -0.2994
 7043TIP3    H221094   0.898   3.318   4.735 -1.2794  0.4245  0.9331
 7044TIP3   OH221095   5.966   0.828   1.581 -0.4928  0.2486 -0.1944
 7044TIP3    H121096   5.939   0.882   1.507 -1.3691  0.6834  0.4190
 7044TIP3    H221097   6.056   0.802   1.561 -1.2265 -0.9595 -2.1493
 7045TIP3   OH221098   1.275   3.369   4.380  0.3598 -0.5779  0.3622
 7045TIP3    H121099   1.276   3.453   4.334 -0.7897 -1.4484 -1.3624
 7045TIP3    H221100   1.275   3.393   4.473  0.1586  1.3108 -0.0753
 7046TIP3   OH221101   2.281   3.027   2.267 -0.3634 -0.0377 -0.5595
 7046TIP3    H121102   2.188   3.008   2.261 -0.1610 -0.8316 -1.4937
 7046TIP3    H221103   2.309   3.043   2.177  0.1637  1.4579 -0.1530
 7047TIP3   OH221104   4.825   3.230   3.805  0.3961 -0.1659  0.3474
 7047TIP3    H121105   4.791   3.317   3.785  3.5631  0.8747 -1.0517
 7047TIP3    H221106   4.752   3.185   3.847 -1.9324  2.5265 -0.5379
 7048TIP3   OH221107   0.861   0.400   3.073  0.6215  0.0486 -0.3475
 7048TIP3    H121108   0.798   0.366   3.010  0.3311  0.3990 -0.2535
 7048TIP3    H221109   0.946   0.371   3.041  0.2929 -2.1222  0.5905
 7049TIP3   OH221110   2.906   6.690   3.353  0.2397  0.1502 -0.0167
 7049TIP3    H121111   2.962   6.641   3.413 -0.0975  2.0576  1.9889
 7049TIP3    H221112   2.827   6.637   3.345  0.8755 -0.8262  0.0752
 7050TIP3   OH221113   1.732   6.772   3.626 -0.3927  0.2685  0.4778
 7050TIP3    H121114   1.744   6.742   3.536  0.0208  0.3122  0.5205
 7050TIP3    H221115   1.640   6.750   3.646 -0.3213 -0.2666  0.2430
 7051TIP3   OH221116   3.688   1.143   3.366  0.3961  0.5176 -0.0140
 7051TIP3    H121117   3.746   1.070   3.387  0.2572  0.5741  0.5766
 7051TIP3    H221118   3.702   1.158   3.272 -0.7514 -1.3094 -0.5287
 7052TIP3   OH221119   6.455   6.283   4.426 -0.1840  0.8537  0.2167
 7052TIP3    H121120   6.434   6.194   4.454  0.0924  0.4075 -0.9281
 7052TIP3    H221121   6.388   6.337   4.467 -0.9969 -0.0202  0.0795
 7053TIP3   OH221122   1.860   3.198   1.910 -0.2675  0.0148  0.3030
 7053TIP3    H121123   1.863   3.183   2.005 -2.8655  2.0682  0.8388
 7053TIP3    H221124   1.804   3.128   1.877 -1.3494  0.6802  0.6902
 7054TIP3   OH221125   0.554   2.587   4.866  0.3227 -0.3505 -0.0757
 7054TIP3    H121126   0.569   2.521   4.799 -0.8315 -1.1751  0.4289
 7054TIP3    H221127   0.567   2.541   4.949 -0.8832 -0.0835  0.2923
 7055TIP3   OH221128   2.618   3.131   4.968  0.4371 -0.1353 -0.1901
 7055TIP3    H121129   2.645   3.194   4.901  0.3577 -0.9342 -0.9805
 7055TIP3    H221130   2.534   3.097   4.937  0.6713 -0.9246  0.0343
 7056TIP3   OH221131   1.328   2.695   2.377 -0.6535  0.0031  0.1638
 7056TIP3    H121132   1.341   2.717   2.470 -0.6484 -1.3775  0.5105
 7056TIP3    H221133   1.408   2.648   2.352 -1.1446 -0.6534 -0.2084
 7057TIP3   OH221134   2.805   0.849   4.301 -0.5147  0.1121  0.4924
 7057TIP3    H121135   2.839   0.766   4.333  0.2338  0.2833  0.1624
 7057TIP3    H221136   2.881   0.894   4.263 -1.7166 -1.3023 -4.3216
 7058TIP3   OH221137   2.943   6.402   4.161  0.5599  0.8771  0.5358
 7058TIP3    H121138   3.022   6.395   4.107  1.1638  2.3072  1.1848
 7058TIP3    H221139   2.900   6.482   4.132 -1.8085 -0.8678 -1.2024
 7059TIP3   OH221140   1.404   2.610   3.105  0.9011  0.1766 -0.2766
 7059TIP3    H121141   1.401   2.573   3.193 -0.0497 -0.4175 -0.5476
 7059TIP3    H221142   1.449   2.544   3.053 -1.5969 -1.0791 -0.9541
 7060TIP3   OH221143   4.123   2.834   4.670  0.0279  0.1752 -0.0384
 7060TIP3    H121144   4.102   2.926   4.680 -1.7913  0.1812 -2.7127
 7060TIP3    H221145   4.214   2.832   4.640  0.6299  0.9184  1.6307
 7061TIP3   OH221146   1.275   6.266   5.499 -0.1223  0.1431  0.0947
 7061TIP3    H121147   1.344   6.207   5.529 -0.7073 -0.7046 -0.1888
 7061TIP3    H221148   1.218   6.276   5.575  0.6935  1.4651  0.5766
 7062TIP3   OH221149   6.171   0.456   1.647  0.1424  0.1130  0.2787
 7062TIP3    H121150   6.178   0.362   1.635  0.7229 -0.0062  1.4320
 7062TIP3    H221151   6.121   0.467   1.728  0.9503  0.7613  0.7145
 7063TIP3   OH221152   3.027   4.084   0.491  0.0899  0.3680 -0.9241
 7063TIP3    H121153   2.995   4.156   0.545 -3.1474 -0.4981 -1.5135
 7063TIP3    H221154   3.020   4.118   0.401  0.6308  0.0518 -1.0895
 7064TIP3   OH221155   1.644   6.670   4.520 -0.5227 -0.2205  0.2945
 7064TIP3    H121156   1.643   6.631   4.432  0.3845  0.1676  0.0938
 7064TIP3    H221157   1.697   6.609   4.572 -0.3101  0.0062  0.3454
 7065TIP3   OH221158   0.500   5.391   0.217 -0.1009  0.0632  0.0092
 7065TIP3    H121159   0.570   5.366   0.277  0.4983 -0.4200 -0.8714
 7065TIP3    H221160   0.533   5.367   0.131 -1.6360 -0.8238 -0.3693
 7066TIP3   OH221161   7.143   4.132   4.897 -0.3759  0.0123  0.1682
 7066TIP3    H121162   7.140   4.044   4.859 -1.5161 -0.2524  0.8320
 7066TIP3    H221163   7.203   4.125   4.971 -2.9580 -1.1188  2.3241
 7067TIP3   OH221164   4.264   0.511   2.235  0.4618 -0.2768  0.1965
 7067TIP3    H121165   4.308   0.595   2.220 -0.2507  0.2071  0.7154
 7067TIP3    H221166   4.275   0.463   2.153  1.1880  0.1803  0.0163
 7068TIP3   OH221167   4.852   0.846   1.358  0.6128  0.2868 -0.1710
 7068TIP3    H121168   4.864   0.932   1.399  0.9672  0.1235  0.0749
 7068TIP3    H221169   4.908   0.849   1.281  1.0266  0.0893  0.1216
 7069TIP3   OH221170   6.026   2.324   1.816 -0.8524 -0.0365  0.1357
 7069TIP3    H121171   6.111   2.303   1.852 -0.8657 -0.9474 -0.3366
 7069TIP3    H221172   6.038   2.408   1.772 -0.2399 -0.0891  0.2058
 7070TIP3   OH221173   0.344   5.763   0.193 -0.3188  0.5203 -0.5874
 7070TIP3    H121174   0.378   5.782   0.106  0.2723  1.5245 -0.1548
 7070TIP3    H221175   0.362   5.842   0.244 -0.8810  0.0470  0.3799
 7071TIP3   OH221176   1.103   5.664   0.439 -0.3077  0.6238  0.6526
 7071TIP3    H121177   1.133   5.703   0.357 -1.1800  0.4992  0.2593
 7071TIP3    H221178   1.066   5.580   0.413  0.7775 -0.0911  1.3817
 7072TIP3   OH221179   4.352   3.655   4.780 -0.0092  0.5661  0.0590
 7072TIP3    H121180   4.335   3.667   4.874 -0.5186  0.9236 -0.0776
 7072TIP3    H221181   4.419   3.721   4.761  1.5154 -0.7531  0.5630
 7073TIP3   OH221182   2.933   5.774   5.645 -0.7125  0.4473 -0.2325
 7073TIP3    H121183   2.962   5.757   5.556 -1.7455  0.2794 -0.5474
 7073TIP3    H221184   3.013   5.772   5.697  0.0227  1.5958 -1.2977
 7074TIP3   OH221185   5.873   5.931   0.134 -0.6791  0.3945 -0.3246
 7074TIP3    H121186   5.818   6.009   0.135 -1.5052 -0.1734 -0.4188
 7074TIP3    H221187   5.830   5.871   0.195  0.5301  0.3955  0.5563
 7075TIP3   OH221188   5.641   3.027   4.719  0.1793  0.3232 -0.0695
 7075TIP3    H121189   5.618   2.936   4.740  1.6592  0.4099  2.2772
 7075TIP3    H221190   5.587   3.079   4.778 -1.8474  1.1433 -2.4976
 7076TIP3   OH221191   0.529   3.806   1.281  0.3397 -0.4189  0.3141
 7076TIP3    H121192   0.451   3.861   1.296  0.4366 -0.5323  1.3559
 7076TIP3    H221193   0.602   3.867   1.287  0.2928  0.0094 -2.4138
 7077TIP3   OH221194   1.267   2.954   0.375  0.1293 -0.3352 -0.1244
 7077TIP3    H121195   1.187   2.948   0.428  0.7286  0.8233  0.9715
 7077TIP3    H221196   1.337   2.934   0.436  0.6585 -2.4097 -1.3240
 7078TIP3   OH221197   2.583   6.094   4.809  0.7861 -0.3714 -0.4069
 7078TIP3    H121198   2.558   6.150   4.882  1.6919  1.5619 -1.5294
 7078TIP3    H221199   2.562   6.005   4.839 -0.2373  0.4960  1.5997
 7079TIP3   OH221200   0.879   0.292   4.735  0.3579 -0.0789 -0.0811
 7079TIP3    H121201   0.831   0.366   4.773  1.1636 -0.9535  2.9085
 7079TIP3    H221202   0.956   0.332   4.694  0.6100  0.7892  1.1902
 7080TIP3   OH221203   2.045   2.312   5.236  0.2292 -0.0130 -1.0017
 7080TIP3    H121204   2.134   2.347   5.229 -0.2887  1.5875 -0.2037
 7080TIP3    H221205   1.997   2.380   5.285 -0.8947 -1.8264  0.5376
 7081TIP3   OH221206   2.070   2.840   1.412 -0.5136 -0.0957 -0.2270
 7081TIP3    H121207   2.121   2.890   1.476 -2.4805 -0.8994  2.1367
 7081TIP3    H221208   2.136   2.794   1.360  1.2457  2.6520 -0.6013
 7082TIP3   OH221209   2.222   0.522   2.578 -0.0575 -0.2675 -0.0863
 7082TIP3    H121210   2.163   0.583   2.623 -0.7565  0.9540 -2.4704
 7082TIP3    H221211   2.308   0.541   2.615 -0.6824  0.1729  1.2098
 7083TIP3   OH221212   0.086   6.495   5.822  0.1352  0.3372  0.0081
 7083TIP3    H121213   0.173   6.515   5.785  0.9556 -0.3230  1.4974
 7083TIP3    H221214   0.053   6.581   5.850 -0.2490  0.7660 -1.6327
 7084TIP3   OH221215   4.049   1.687   5.115 -0.2064 -0.0296 -0.8342
 7084TIP3    H121216   4.044   1.650   5.204 -0.6417 -0.4632 -1.0359
 7084TIP3    H221217   4.142   1.681   5.093 -0.1486 -0.2583 -0.5481
 7085TIP3   OH221218   0.048   4.066   0.765 -0.6254  0.7556  0.0309
 7085TIP3    H121219   0.033   4.074   0.671  0.3293  0.3578 -0.1648
 7085TIP3    H221220   0.013   4.147   0.802 -0.3483  1.2417 -0.7463
 7086TIP3   OH221221   2.615   5.044   5.027  0.3513  0.3713 -0.3074
 7086TIP3    H121222   2.629   4.989   5.104 -1.0236 -0.0044 -0.3122
 7086TIP3    H221223   2.528   5.021   4.996  0.1998  1.7541 -0.9795
 7087TIP3   OH221224   0.625   4.782   4.569  0.2474  0.2965 -0.3419
 7087TIP3    H121225   0.633   4.857   4.511  1.6264  0.8348  0.5056
 7087TIP3    H221226   0.555   4.729   4.530 -0.7192  1.9741 -0.9810
 7088TIP3   OH221227   5.468   2.963   5.863  0.2606 -0.6705 -0.0795
 7088TIP3    H121228   5.562   2.948   5.853  0.2657 -0.3343 -0.5663
 7088TIP3    H221229   5.427   2.886   5.822  0.3265 -1.8884  2.0172
 7089TIP3   OH221230   5.793   2.365   0.246  0.3085 -0.1171  0.2097
 7089TIP3    H121231   5.713   2.393   0.203 -0.0249 -2.5600 -0.9455
 7089TIP3    H221232   5.851   2.338   0.175  1.9578  1.0041  1.0601
 7090TIP3   OH221233   4.043   5.655   5.240 -0.3140 -0.5469  0.7045
 7090TIP3    H121234   4.121   5.675   5.292 -1.4089 -1.1042  2.6636
 7090TIP3    H221235   4.056   5.564   5.212 -0.0395 -0.4752  0.5936
 7091TIP3   OH221236   3.741   2.969   1.604 -0.1347 -0.1864 -0.1007
 7091TIP3    H121237   3.801   2.903   1.637 -0.9097 -1.3889 -1.0075
 7091TIP3    H221238   3.772   3.051   1.642  3.7905 -0.2544 -2.6434
 7092TIP3   OH221239   0.398   0.656   4.346 -0.6690 -0.5206  0.8481
 7092TIP3    H121240   0.361   0.738   4.378 -0.0235 -0.2717  0.9894
 7092TIP3    H221241   0.424   0.609   4.425  0.3642 -0.1774  0.7296
 7093TIP3   OH221242   4.772   1.989   5.172  0.3325 -0.8521  0.0458
 7093TIP3    H121243   4.797   1.966   5.083 -0.4472  0.9630 -0.7020
 7093TIP3    H221244   4.677   1.974   5.175 -0.0043  0.9567 -0.1235
 7094TIP3   OH221245   1.092   4.375   3.069  0.0171  0.4117 -0.2118
 7094TIP3    H121246   1.134   4.357   2.985 -1.3482  0.3326 -0.9162
 7094TIP3    H221247   1.032   4.447   3.051  1.0579  1.6907  1.1667
 7095TIP3   OH221248   0.804   5.456   2.923 -0.1338  0.1679  0.0181
 7095TIP3    H121249   0.888   5.411   2.924  0.0654  0.4685 -1.4396
 7095TIP3    H221250   0.743   5.392   2.885 -0.5266  0.0395  0.8323
 7096TIP3   OH221251   0.856   0.088   3.177 -0.5079 -0.2337 -0.3247
 7096TIP3    H121252   0.824   0.161   3.125 -0.7947 -0.4647 -0.4697
 7096TIP3    H221253   0.778   0.036   3.197 -0.3587 -0.3064  0.0816
 7097TIP3   OH221254   5.656   1.119   4.924 -0.5034  0.6175 -0.5500
 7097TIP3    H121255   5.693   1.031   4.917  0.5812  1.0424 -0.3876
 7097TIP3    H221256   5.713   1.173   4.869 -0.5395  1.3908  0.1491
 7098TIP3   OH221257   6.076   0.747   5.000  0.1431 -0.1594 -0.2066
 7098TIP3    H121258   6.161   0.777   4.968  0.4394  1.1581  1.7067
 7098TIP3    H221259   6.021   0.744   4.921  1.0319  2.2029 -0.9939
 7099TIP3   OH221260   3.848   6.069   5.603  0.4211 -0.4514 -0.4122
 7099TIP3    H121261   3.889   6.143   5.559  0.5408 -1.2928 -1.7770
 7099TIP3    H221262   3.780   6.040   5.542  0.7763 -1.8215 -0.1823
 7100TIP3   OH221263   3.204   5.279   2.200  0.4969  0.2688 -0.8694
 7100TIP3    H121264   3.172   5.189   2.192  0.9914 -0.1127  0.9561
 7100TIP3    H221265   3.204   5.313   2.110 -2.3608 -0.6068 -1.2905
 7101TIP3   OH221266   2.119   1.402   1.387  0.1475 -0.6537 -0.0304
 7101TIP3    H121267   2.068   1.433   1.312  0.6874 -1.2349 -0.6533
 7101TIP3    H221268   2.065   1.422   1.463 -1.4983 -2.1801 -0.7418
 7102TIP3   OH221269   3.600   1.430   4.294 -0.0817 -0.3806  0.3569
 7102TIP3    H121270   3.515   1.387   4.297 -0.9829  1.3535  3.1110
 7102TIP3    H221271   3.658   1.372   4.343 -0.2125 -0.5167  0.3510
 7103TIP3   OH221272   5.070   2.739   0.420  0.5145  0.5685  0.1062
 7103TIP3    H121273   5.078   2.764   0.512  0.2026  0.5608  0.1357
 7103TIP3    H221274   4.988   2.691   0.415 -0.5589  2.3938 -0.5840
 7104TIP3   OH221275   4.367   3.497   3.564  0.1926 -0.2563  0.2606
 7104TIP3    H121276   4.317   3.427   3.522  0.4856 -1.3478  1.6512
 7104TIP3    H221277   4.310   3.574   3.559  0.0042 -0.4850 -1.5894
 7105TIP3   OH221278   0.290   3.721   3.797 -0.1073  0.5393 -0.3832
 7105TIP3    H121279   0.226   3.740   3.865  1.3455  0.6224  1.0153
 7105TIP3    H221280   0.330   3.806   3.778 -0.0309  0.3996 -0.8642
 7106TIP3   OH221281   6.144   5.255   0.121  0.3286 -0.4782 -0.1131
 7106TIP3    H121282   6.094   5.205   0.186  0.6700 -3.1836 -1.7753
 7106TIP3    H221283   6.184   5.326   0.172 -2.5800 -0.0613  1.8378
 7107TIP3   OH221284   0.120   4.475   3.805  0.3302 -0.6417  0.0631
 7107TIP3    H121285   0.129   4.554   3.753  0.4617  0.3654  1.5644
 7107TIP3    H221286   0.200   4.426   3.788  0.3195 -0.3961 -0.7541
 7108TIP3   OH221287   6.385   6.052   1.803 -0.2570  0.4135  0.3700
 7108TIP3    H121288   6.449   6.094   1.745  1.1952  0.3797  1.8795
 7108TIP3    H221289   6.428   6.049   1.888 -2.0459 -0.2036  1.3011
 7109TIP3   OH221290   6.023   6.227   2.147  0.5285  0.2944 -0.4518
 7109TIP3    H121291   5.962   6.159   2.118  1.1262 -1.2060  1.5512
 7109TIP3    H221292   6.028   6.288   2.074  0.4126 -2.1226 -2.6149
 7110TIP3   OH221293   2.874   0.548   3.168  0.1807 -0.2821  0.4057
 7110TIP3    H121294   2.964   0.567   3.195  1.4048  0.2996 -3.5177
 7110TIP3    H221295   2.869   0.452   3.167  0.2473 -0.3313  1.9091
 7111TIP3   OH221296   4.771   5.038   1.832 -0.0430  0.0749  0.4617
 7111TIP3    H121297   4.801   5.097   1.902  1.1826 -0.9698  0.8526
 7111TIP3    H221298   4.849   5.021   1.780 -0.9765  1.0289 -1.3737
 7112TIP3   OH221299   4.430   0.091   5.881  0.3580 -0.2939 -0.2500
 7112TIP3    H121300   4.468   0.012   5.843 -0.8590 -0.4339 -1.2415
 7112TIP3    H221301   4.503   0.135   5.924  1.2781 -1.3879 -0.6619
 7113TIP3   OH221302   2.262   4.295   4.468 -0.1443  0.0861 -0.1409
 7113TIP3    H121303   2.318   4.219   4.488  0.5149  0.7446  0.5962
 7113TIP3    H221304   2.285   4.359   4.535 -0.0797  1.2636 -1.2590
 7114TIP3   OH221305   6.392   1.191   2.444  0.6542  0.3863  0.4276
 7114TIP3    H121306   6.309   1.215   2.403  0.6463  0.1583  0.3038
 7114TIP3    H221307   6.457   1.245   2.399  0.8205 -0.7874 -0.8338
 7115TIP3   OH221308   1.809   1.665   4.634 -0.2599 -0.4593  0.0519
 7115TIP3    H121309   1.836   1.683   4.544  1.3943  1.4580  0.8517
 7115TIP3    H221310   1.882   1.615   4.671 -0.3475 -0.1275  0.6757
 7116TIP3   OH221311   6.109   0.206   3.617  0.4175  0.3234  0.0490
 7116TIP3    H121312   6.121   0.138   3.551  1.4725  0.4894  0.0484
 7116TIP3    H221313   6.120   0.288   3.568 -0.8891  0.5139  0.0370
 7117TIP3   OH221314   1.153   4.850   2.666 -0.0146  0.3350  0.2284
 7117TIP3    H121315   1.244   4.822   2.663  0.1306  0.6975  1.0254
 7117TIP3    H221316   1.119   4.831   2.578  0.5179 -0.8157  0.2494
 7118TIP3   OH221317   0.212   3.654   3.171  0.2924  0.1345  0.1567
 7118TIP3    H121318   0.207   3.698   3.256  1.0406 -0.8927  0.7597
 7118TIP3    H221319   0.184   3.564   3.189 -0.5956  0.1797 -0.9131
 7119TIP3   OH221320   6.335   0.110   4.871 -0.5404 -0.5879  0.2392
 7119TIP3    H121321   6.388   0.031   4.881 -0.2406 -0.3008  0.9974
 7119TIP3    H221322   6.317   0.139   4.960 -2.0927 -0.7370  0.0068
 7120TIP3   OH221323   6.727   2.674   2.056 -0.0358  0.4127  0.0562
 7120TIP3    H121324   6.719   2.648   1.964 -0.2830 -1.4461  0.5561
 7120TIP3    H221325   6.753   2.593   2.101 -0.4074  1.1738  1.6963
 7121TIP3   OH221326   0.219   0.177   0.240  0.1110 -0.6058  0.5116
 7121TIP3    H121327   0.186   0.128   0.316 -0.5587 -1.8016 -0.5121
 7121TIP3    H221328   0.153   0.245   0.226  0.3533 -0.2331  1.1257
 7122TIP3   OH221329   5.693   4.713   2.480  0.5557  0.2013  0.3714
 7122TIP3    H121330   5.618   4.660   2.455  0.8196 -1.7519  3.2218
 7122TIP3    H221331   5.699   4.703   2.575  3.2950  1.8501  0.4907
 7123TIP3   OH221332   3.292   1.145   4.570 -0.2344 -0.1948 -0.2767
 7123TIP3    H121333   3.233   1.175   4.639 -0.2325 -0.8345  0.0113
 7123TIP3    H221334   3.306   1.052   4.589  1.0673 -0.0003 -0.1966
 7124TIP3   OH221335   1.107   3.296   2.354 -0.3791  0.0901 -0.2118
 7124TIP3    H121336   1.075   3.246   2.429 -0.0841  1.1009  0.6051
 7124TIP3    H221337   1.055   3.377   2.355  0.9675  0.9793  0.0914
 7125TIP3   OH221338   2.237   0.817   4.432  0.3228 -0.1051  0.0060
 7125TIP3    H121339   2.232   0.852   4.343  0.0988  0.8859  0.3993
 7125TIP3    H221340   2.161   0.854   4.477 -0.1427 -1.3974  0.3514
 7126TIP3   OH221341   4.438   0.402   4.085 -0.2380  0.3010  0.4510
 7126TIP3    H121342   4.404   0.352   4.160  1.6428  0.4753  1.4796
 7126TIP3    H221343   4.532   0.403   4.098  0.0395  1.3068 -1.3537
 7127TIP3   OH221344   5.871   1.950   1.809 -0.3401  0.2787  0.5162
 7127TIP3    H121345   5.870   1.974   1.716 -0.1459  0.8865  0.6705
 7127TIP3    H221346   5.781   1.963   1.839 -0.6886 -1.0522  0.1366
 7128TIP3   OH221347   0.856   0.089   1.549 -0.5523  0.5786 -0.0188
 7128TIP3    H121348   0.870   0.055   1.460 -0.1953 -0.5502  0.4585
 7128TIP3    H221349   0.780   0.146   1.540 -0.2160  0.8872 -1.1532
 7129TIP3   OH221350   1.023   1.552   3.321 -0.3179 -0.2240  0.4762
 7129TIP3    H121351   0.973   1.473   3.342 -1.6252  0.4720  0.1502
 7129TIP3    H221352   0.958   1.611   3.280  0.9707  0.4081 -0.7439
 7130TIP3   OH221353   4.658   4.673   3.292  0.5286 -0.0271 -0.2619
 7130TIP3    H121354   4.619   4.627   3.366 -1.6246 -0.6486 -1.7046
 7130TIP3    H221355   4.733   4.720   3.330 -0.4447 -0.3697  2.2693
 7131TIP3   OH221356   3.745   6.636   4.966 -0.3262 -0.2661 -0.0804
 7131TIP3    H121357   3.781   6.592   4.888 -0.1185 -0.7309  0.2717
 7131TIP3    H221358   3.821   6.679   5.006 -0.8539  2.2363 -1.5586
 7132TIP3   OH221359   3.455   6.579   5.499 -0.1655 -0.3909  0.8495
 7132TIP3    H121360   3.440   6.572   5.593 -0.1694 -1.8004  0.7666
 7132TIP3    H221361   3.386   6.526   5.459  0.2884 -0.4272  0.0835
 7133TIP3   OH221362   5.140   5.132   3.761 -0.3682  0.0991  0.3881
 7133TIP3    H121363   5.131   5.081   3.681 -0.3693  0.0710  0.4059
 7133TIP3    H221364   5.051   5.136   3.797 -0.0647 -1.5533  1.4064
 7134TIP3   OH221365   1.829   2.813   0.769 -0.0846  0.0029  0.1931
 7134TIP3    H121366   1.866   2.868   0.699 -2.1738  1.5566  0.2130
 7134TIP3    H221367   1.851   2.860   0.850  0.3397 -0.5815  0.4240
 7135TIP3   OH221368   2.348   0.198   2.660 -0.2523  0.6057  0.5148
 7135TIP3    H121369   2.286   0.169   2.593  0.0215  1.4411 -0.1239
 7135TIP3    H221370   2.306   0.274   2.700 -0.3925  0.1364  1.2640
 7136TIP3   OH221371   6.331   0.722   3.923  0.4650 -0.1506  0.1610
 7136TIP3    H121372   6.364   0.662   3.991  0.3521 -0.4859 -0.0789
 7136TIP3    H221373   6.355   0.679   3.840  1.7554  0.8673 -0.0287
 7137TIP3   OH221374   2.676   2.399   5.383  0.4218  0.0856  0.5984
 7137TIP3    H121375   2.699   2.392   5.475  1.7490  0.9977  0.3687
 7137TIP3    H221376   2.754   2.438   5.342 -0.5437  0.6890 -0.7252
 7138TIP3   OH221377   4.250   2.992   2.388  0.0134 -0.1598 -0.0455
 7138TIP3    H121378   4.246   2.950   2.302  2.0101 -1.7301  0.5791
 7138TIP3    H221379   4.173   2.959   2.435 -0.0873 -0.7108 -0.5994
 7139TIP3   OH221380   2.233   0.315   4.003  0.5114 -0.2143 -0.1350
 7139TIP3    H121381   2.146   0.285   3.975  0.1899  0.4184  0.1718
 7139TIP3    H221382   2.235   0.408   3.980  0.9142 -0.1071  0.3277
 7140TIP3   OH221383   0.567   3.915   1.732 -0.3989 -0.0216 -0.0131
 7140TIP3    H121384   0.521   3.836   1.761  1.8037 -1.2676  0.3673
 7140TIP3    H221385   0.650   3.882   1.697  1.3530  2.1796  1.7339
 7141TIP3   OH221386   6.088   1.751   3.126  0.4294 -0.2606 -0.7722
 7141TIP3    H121387   6.110   1.670   3.174  1.2584 -0.2930 -1.1822
 7141TIP3    H221388   6.139   1.819   3.169 -1.6477  0.4347  0.7565
 7142TIP3   OH221389   0.710   3.973   2.222 -0.4429  0.0880 -0.0626
 7142TIP3    H121390   0.777   4.041   2.234  0.9416 -0.8867 -1.7636
 7142TIP3    H221391   0.670   3.994   2.137  0.8703 -1.8537 -1.2334
 7143TIP3   OH221392   6.546   3.605   5.570 -0.2026  0.3550 -0.2700
 7143TIP3    H121393   6.582   3.516   5.569 -1.2554 -0.0963  0.2301
 7143TIP3    H221394   6.474   3.602   5.507 -0.2552  0.8498 -0.2365
 7144TIP3   OH221395   6.769   6.311   0.078  0.2181 -0.4302 -0.4461
 7144TIP3    H121396   6.747   6.400   0.105  1.5664 -0.1145 -0.2945
 7144TIP3    H221397   6.824   6.278   0.149 -1.9779 -2.1814  0.5379
 7145TIP3   OH221398   4.190   0.491   4.325  0.4236  0.0519 -0.3920
 7145TIP3    H121399   4.108   0.472   4.370  0.1159  0.7925 -0.6363
 7145TIP3    H221400   4.164   0.522   4.238  0.9411  0.6568 -0.3389
 7146TIP3   OH221401   5.946   5.900   0.909 -0.0760  0.1300  0.3476
 7146TIP3    H121402   5.912   5.930   0.993 -0.3758  1.7057 -0.3020
 7146TIP3    H221403   6.041   5.913   0.916 -0.0720 -0.0042  0.5406
 7147TIP3   OH221404   2.617   0.718   4.882  0.2819 -0.4203  0.0597
 7147TIP3    H121405   2.628   0.655   4.810 -1.4332 -0.0628 -0.5569
 7147TIP3    H221406   2.683   0.785   4.865  1.8685 -1.8036  0.5010
 7148TIP3   OH221407   6.402   5.093   3.850 -0.0496  0.0315  0.0367
 7148TIP3    H121408   6.423   5.037   3.925  1.6774 -0.2192 -0.5855
 7148TIP3    H221409   6.466   5.069   3.783 -1.7828 -0.0149 -1.6958
 7149TIP3   OH221410   4.684   0.662   2.922 -0.6311 -0.3817  0.1695
 7149TIP3    H121411   4.706   0.744   2.965 -2.8548 -0.4203  1.5166
 7149TIP3    H221412   4.763   0.639   2.873  0.1280  2.4149 -0.0787
 7150TIP3   OH221413   5.636   3.168   1.399  0.0954  0.1444 -0.6605
 7150TIP3    H121414   5.629   3.078   1.431 -0.8281  0.3320 -0.3093
 7150TIP3    H221415   5.730   3.181   1.386  0.3630 -0.4751  0.4455
 7151TIP3   OH221416   3.221   4.750   1.973  0.1250  0.4294 -0.0713
 7151TIP3    H121417   3.192   4.828   2.020  0.1790  0.3558  0.0858
 7151TIP3    H221418   3.194   4.677   2.029 -0.5421  0.3015 -0.5518
 7152TIP3   OH221419   2.071   2.710   4.162  0.7132  0.3999  0.7576
 7152TIP3    H121420   1.977   2.708   4.146  0.8143  0.3723  0.1475
 7152TIP3    H221421   2.083   2.658   4.242  0.5346 -2.4165 -0.8970
 7153TIP3   OH221422   0.441   5.458   5.596  0.0522  0.3879  0.2942
 7153TIP3    H121423   0.375   5.527   5.603 -0.0419  0.3309 -0.0031
 7153TIP3    H221424   0.424   5.400   5.670 -1.0178 -0.3085 -0.4764
 7154TIP3   OH221425   3.546   6.357   0.524  0.2044 -0.0968 -0.0371
 7154TIP3    H121426   3.571   6.332   0.435  1.2075  1.6460 -0.2891
 7154TIP3    H221427   3.629   6.372   0.569 -0.2202 -2.4798  1.7234
 7155TIP3   OH221428   0.236   4.371   0.375  0.6649 -0.0031 -0.0784
 7155TIP3    H121429   0.294   4.431   0.421  1.7950 -0.6537 -0.6289
 7155TIP3    H221430   0.204   4.422   0.300  1.9145 -0.1842 -0.7532
 7156TIP3   OH221431   1.844   6.485   4.598  0.2433  0.5620 -0.1419
 7156TIP3    H121432   1.850   6.411   4.658 -0.0892 -0.6307 -1.4989
 7156TIP3    H221433   1.912   6.467   4.532 -1.4123  0.1196 -1.8307
 7157TIP3   OH221434   5.841   3.561   5.558 -0.3921 -0.4814  0.2606
 7157TIP3    H121435   5.850   3.466   5.554  1.2809 -0.4371  1.9212
 7157TIP3    H221436   5.818   3.579   5.649 -0.1794  0.7531  0.0789
 7158TIP3   OH221437   1.907   2.294   2.044  0.0226 -0.6717 -0.1277
 7158TIP3    H121438   1.879   2.244   2.121 -0.9265  0.2660  0.1671
 7158TIP3    H221439   1.858   2.377   2.051  0.4105 -0.3216 -1.4016
 7159TIP3   OH221440   6.778   6.364   2.058  0.2267  0.1361 -0.4481
 7159TIP3    H121441   6.727   6.334   2.133  0.2814  1.0669 -0.0179
 7159TIP3    H221442   6.829   6.437   2.093  1.2228 -0.2422 -1.0788
 7160TIP3   OH221443   1.601   2.714   0.518 -0.4918 -0.9168  0.2953
 7160TIP3    H121444   1.692   2.740   0.499 -1.1170  0.5987 -0.8463
 7160TIP3    H221445   1.579   2.652   0.447 -0.0061 -2.2238  1.2453
 7161TIP3   OH221446   5.939   3.872   5.788 -0.0106 -0.1332 -0.2818
 7161TIP3    H121447   5.874   3.802   5.789  0.1211 -0.2617 -0.5028
 7161TIP3    H221448   5.928   3.915   5.703 -1.8353  1.7949  0.8596
 7162TIP3   OH221449   5.588   1.046   0.543 -0.5309 -0.2732  0.1009
 7162TIP3    H121450   5.615   1.067   0.632  2.0270  0.2581 -0.7078
 7162TIP3    H221451   5.591   1.129   0.496 -1.2114 -0.6473 -0.6497
 7163TIP3   OH221452   5.204   3.380   4.966  0.6745 -0.2465 -0.3284
 7163TIP3    H121453   5.157   3.308   4.923 -1.5913  0.9777 -0.0290
 7163TIP3    H221454   5.234   3.344   5.049  1.8097 -1.5306 -1.2382
 7164TIP3   OH221455   3.042   2.547   3.301 -0.0754  0.4558 -0.2751
 7164TIP3    H121456   3.100   2.527   3.374  1.9198  0.3617 -1.8070
 7164TIP3    H221457   3.010   2.635   3.320  2.3908  1.4759 -0.4156
 7165TIP3   OH221458   2.849   5.677   4.325  0.1931  0.1881  0.4738
 7165TIP3    H121459   2.895   5.607   4.370 -0.7568 -0.5705  0.3000
 7165TIP3    H221460   2.860   5.658   4.232  0.6462  0.7553  0.4041
 7166TIP3   OH221461   2.154   4.717   3.403  0.2298  0.0673  0.1086
 7166TIP3    H121462   2.247   4.706   3.386  0.2164 -2.3255  1.1766
 7166TIP3    H221463   2.130   4.639   3.454 -2.5088  0.2274 -0.8004
 7167TIP3   OH221464   2.557   2.758   2.966 -0.4014  0.3725  0.0090
 7167TIP3    H121465   2.645   2.736   2.936 -1.0350 -0.3088 -1.4559
 7167TIP3    H221466   2.563   2.849   2.995  0.6084  0.5856 -0.8180
 7168TIP3   OH221467   1.637   1.920   4.292  0.1428  0.0125  0.0076
 7168TIP3    H121468   1.706   1.888   4.234  0.4923  2.2464 -0.9182
 7168TIP3    H221469   1.579   1.971   4.235 -1.3158 -0.3936  1.0799
 7169TIP3   OH221470   4.798   3.406   4.058 -0.1533  0.0816 -0.5338
 7169TIP3    H121471   4.868   3.453   4.103  0.2702  0.0971 -1.1884
 7169TIP3    H221472   4.792   3.449   3.972  1.0263 -1.7555 -1.6055
 7170TIP3   OH221473   5.512   6.431   0.990  0.0212 -0.4966 -0.7645
 7170TIP3    H121474   5.583   6.372   0.965  1.6441  0.9457  0.2438
 7170TIP3    H221475   5.486   6.400   1.077  1.2258  0.5156 -0.0092
 7171TIP3   OH221476   3.650   4.151   2.426  0.3270 -0.6245 -0.5221
 7171TIP3    H121477   3.741   4.144   2.397  0.5730 -1.2918  0.3630
 7171TIP3    H221478   3.647   4.101   2.507 -0.7087 -0.1436 -0.2468
 7172TIP3   OH221479   2.105   2.839   4.909  0.1381  0.0071 -0.2431
 7172TIP3    H121480   2.176   2.834   4.972  0.8282  0.4569 -0.9710
 7172TIP3    H221481   2.126   2.914   4.854 -1.8835  1.3823  0.7080
 7173TIP3   OH221482   5.124   2.234   1.695 -0.0018  0.1781  0.2327
 7173TIP3    H121483   5.219   2.250   1.696 -0.0645  1.2403 -2.4572
 7173TIP3    H221484   5.115   2.143   1.725  1.8099  0.1716  0.9150
 7174TIP3   OH221485   1.629   6.488   2.748  0.2185 -0.0056 -0.5069
 7174TIP3    H121486   1.685   6.465   2.673  1.9543  2.0948  0.0279
 7174TIP3    H221487   1.682   6.465   2.824 -0.9931 -0.8900  0.0866
 7175TIP3   OH221488   5.445   1.328   5.584 -0.1001 -0.0613  0.6386
 7175TIP3    H121489   5.480   1.347   5.497  1.3281  0.5387  1.3061
 7175TIP3    H221490   5.351   1.315   5.570  0.4605 -3.0283 -1.4635
 7176TIP3   OH221491   5.584   3.638   1.283  0.4470 -0.6837 -0.0060
 7176TIP3    H121492   5.628   3.663   1.365  0.2176  0.2504 -0.1504
 7176TIP3    H221493   5.644   3.668   1.214 -0.5100  0.8847 -0.2087
 7177TIP3   OH221494   2.021   0.075   0.343  0.7161  0.0552 -0.4064
 7177TIP3    H121495   1.965   0.075   0.265 -1.1894  0.7056  0.8681
 7177TIP3    H221496   2.065   0.160   0.341 -0.9751  0.9983  0.2698
 7178TIP3   OH221497   1.679   1.836   2.136  0.4456  0.4376  0.1725
 7178TIP3    H121498   1.769   1.855   2.110  0.0603  0.1614 -1.4785
 7178TIP3    H221499   1.687   1.803   2.226  2.1235 -0.6520 -0.3131
 7179TIP3   OH221500   5.984   0.132   2.347  0.1967  0.7441  0.2260
 7179TIP3    H121501   5.912   0.171   2.298 -2.1977 -0.7510  2.2619
 7179TIP3    H221502   5.988   0.041   2.316  0.4070  0.5026  0.9372
 7180TIP3   OH221503   7.154   3.568   5.428 -0.0401  0.4798 -0.4819
 7180TIP3    H121504   7.211   3.498   5.396  1.1871  1.5155 -0.6477
 7180TIP3    H221505   7.208   3.647   5.421 -0.5215  1.0988  1.9606
 7181TIP3   OH221506   3.544   4.866   4.170 -0.5250 -0.2439 -0.0416
 7181TIP3    H121507   3.600   4.900   4.240 -1.4412 -0.2801  0.7190
 7181TIP3    H221508   3.587   4.785   4.142  0.8797  0.7398 -0.8540
 7182TIP3   OH221509   2.889   0.186   0.583  0.3522 -0.5479 -0.6151
 7182TIP3    H121510   2.921   0.101   0.552  0.5159  0.4002 -3.3642
 7182TIP3    H221511   2.819   0.208   0.522 -1.2872  0.2968  1.4691
 7183TIP3   OH221512   6.106   2.102   2.169  0.0112 -0.2474  0.1613
 7183TIP3    H121513   6.113   2.182   2.220 -0.2781  0.1942 -0.4708
 7183TIP3    H221514   6.056   2.042   2.224  0.3578 -0.0438  0.6989
 7184TIP3   OH221515   2.943   4.800   3.497  0.1144  0.5130  0.5783
 7184TIP3    H121516   2.939   4.868   3.564  1.8693  0.1444  1.1183
 7184TIP3    H221517   2.929   4.718   3.545 -0.1282  0.3461  0.2326
 7185TIP3   OH221518   7.041   6.336   0.478 -0.0731 -0.4610  0.2154
 7185TIP3    H121519   7.100   6.406   0.504 -0.6582  1.0680 -2.2966
 7185TIP3    H221520   7.068   6.261   0.531 -0.3942  1.9433  4.1299
 7186TIP3   OH221521   3.870   6.750   2.509  0.4205  0.2443  0.1568
 7186TIP3    H121522   3.878   6.813   2.437  3.4219  0.4788  0.5660
 7186TIP3    H221523   3.870   6.804   2.588 -0.8352 -0.1198  0.4240
 7187TIP3   OH221524   0.860   1.040   3.421 -0.1237 -0.5674 -0.2406
 7187TIP3    H121525   0.883   0.957   3.379  0.8899 -0.4770  0.1136
 7187TIP3    H221526   0.914   1.043   3.499 -0.0475  0.4965 -0.3209
 7188TIP3   OH221527   2.281   0.368   5.778 -0.1283 -0.0662 -0.3077
 7188TIP3    H121528   2.248   0.281   5.801 -2.1498  0.8894  0.6286
 7188TIP3    H221529   2.203   0.422   5.769  1.0690  1.6135 -1.1216
 7189TIP3   OH221530   2.031   5.881   5.231  0.3427  0.0860  0.3245
 7189TIP3    H121531   2.080   5.963   5.216  0.7653 -0.0963  0.6634
 7189TIP3    H221532   2.093   5.812   5.208  0.2172 -0.1468  0.6711
 7190TIP3   OH221533   1.991   3.563   2.327 -0.5853  0.0961 -0.0096
 7190TIP3    H121534   2.043   3.585   2.250  0.1248  0.7178  0.6307
 7190TIP3    H221535   2.046   3.504   2.379 -0.5949  0.5847  0.5702
 7191TIP3   OH221536   3.898   1.014   3.736  0.2847  0.2574 -0.3327
 7191TIP3    H121537   3.973   1.032   3.680  1.7341 -0.8673  1.1350
 7191TIP3    H221538   3.930   0.949   3.800 -1.2157  1.5095  1.8544
 7192TIP3   OH221539   1.883   3.724   5.479 -0.2987  0.2190  0.4976
 7192TIP3    H121540   1.823   3.798   5.492  0.6328  1.0593  0.1733
 7192TIP3    H221541   1.855   3.659   5.543 -2.3615  0.0538 -0.4995
 7193TIP3   OH221542   7.015   4.813   5.507 -0.3265 -0.1492  0.4615
 7193TIP3    H121543   6.954   4.880   5.476 -3.6449 -1.7558  2.9106
 7193TIP3    H221544   7.076   4.860   5.564  2.0167  1.7518 -3.1355
 7194TIP3   OH221545   6.464   0.907   0.953  0.2866 -0.4237  0.2544
 7194TIP3    H121546   6.415   0.981   0.916  0.1152 -1.4039 -1.5927
 7194TIP3    H221547   6.506   0.943   1.032 -0.6816  1.3263  0.0263
 7195TIP3   OH221548   6.280   6.337   5.510  0.6933 -0.7857 -0.0267
 7195TIP3    H121549   6.233   6.255   5.524 -2.0934  0.2293 -2.4367
 7195TIP3    H221550   6.239   6.376   5.433  3.5716  1.7280 -0.5076
 7196TIP3   OH221551   6.779   5.275   2.363  0.3553  0.0634 -0.5597
 7196TIP3    H121552   6.747   5.252   2.450  1.2098  0.9327 -0.0020
 7196TIP3    H221553   6.804   5.367   2.370  1.4823 -0.1524 -1.4096
 7197TIP3   OH221554   3.607   1.686   5.633 -0.3676  0.2469  0.2265
 7197TIP3    H121555   3.536   1.717   5.689 -1.1952 -0.2605 -0.5188
 7197TIP3    H221556   3.680   1.744   5.652 -1.3947  1.6535  0.0133
 7198TIP3   OH221557   1.892   5.566   1.299 -0.2550 -0.4384 -0.6924
 7198TIP3    H121558   1.970   5.614   1.272  0.3114 -0.4704  0.7912
 7198TIP3    H221559   1.824   5.594   1.237  0.7386  0.1847 -1.5236
 7199TIP3   OH221560   3.805   2.072   2.627 -0.2273  0.3702 -0.2520
 7199TIP3    H121561   3.715   2.104   2.620  0.0317  1.1101 -0.2982
 7199TIP3    H221562   3.824   2.032   2.542 -0.8485 -0.7206  0.0961
 7200TIP3   OH221563   6.330   2.458   1.581 -0.6147 -0.1832 -0.2799
 7200TIP3    H121564   6.323   2.365   1.603  0.4198 -0.0178  0.8643
 7200TIP3    H221565   6.251   2.477   1.531  0.0753 -2.1510 -2.2997
 7201TIP3   OH221566   0.636   2.817   5.392 -0.1612  0.0407  0.0714
 7201TIP3    H121567   0.611   2.749   5.455  0.8039 -0.4054 -0.0024
 7201TIP3    H221568   0.554   2.858   5.367 -0.5666  0.3546  1.7548
 7202TIP3   OH221569   2.265   4.262   0.135 -1.0840  0.7583  0.5059
 7202TIP3    H121570   2.326   4.230   0.201  0.1638 -0.0010 -0.9552
 7202TIP3    H221571   2.321   4.299   0.066 -2.0546 -1.8208 -1.8657
 7203TIP3   OH221572   2.251   1.844   2.330  0.0454  0.5817 -0.2600
 7203TIP3    H121573   2.207   1.927   2.310  0.9834  0.6505 -2.3662
 7203TIP3    H221574   2.312   1.866   2.400 -1.3815  1.0865  0.8719
 7204TIP3   OH221575   2.802   1.019   1.267  0.2879 -0.2609  0.0745
 7204TIP3    H121576   2.727   0.962   1.251  0.0968  0.1729 -0.6358
 7204TIP3    H221577   2.770   1.085   1.328 -0.6087  1.2468 -1.9286
 7205TIP3   OH221578   3.521   4.138   1.851 -0.5122  0.3437  0.7800
 7205TIP3    H121579   3.433   4.132   1.814 -1.1382 -0.5549  2.3007
 7205TIP3    H221580   3.569   4.196   1.792 -1.2382 -1.5166 -1.7512
 7206TIP3   OH221581   4.685   4.457   3.732 -0.1977 -0.4022  0.6877
 7206TIP3    H121582   4.658   4.452   3.824 -0.3303  2.2876  0.8847
 7206TIP3    H221583   4.781   4.448   3.736 -0.2095 -0.3952  1.0904
 7207TIP3   OH221584   4.681   0.214   2.286 -0.4996  0.3755 -0.4339
 7207TIP3    H121585   4.655   0.205   2.378 -2.1554 -0.1869 -0.9162
 7207TIP3    H221586   4.610   0.266   2.247  0.7792  1.6390 -1.1614
 7208TIP3   OH221587   6.458   3.740   3.008 -0.0341 -0.0736 -0.2883
 7208TIP3    H121588   6.509   3.663   3.032  0.0813 -0.1738 -0.8440
 7208TIP3    H221589   6.518   3.814   3.022  0.1489 -0.1618 -0.6062
 7209TIP3   OH221590   4.579   2.155   4.633 -0.6082  0.0498  0.2507
 7209TIP3    H121591   4.575   2.060   4.621 -0.9053  0.3351 -2.8948
 7209TIP3    H221592   4.499   2.176   4.682  0.7892 -1.4681  3.4711
 7210TIP3   OH221593   2.383   1.446   2.205  0.1160 -0.4454  0.1097
 7210TIP3    H121594   2.450   1.515   2.211  1.2392 -1.4254 -0.8076
 7210TIP3    H221595   2.305   1.485   2.245  1.2562  0.6910  1.3029
 7211TIP3   OH221596   6.397   2.653   1.158  0.1409 -0.5120 -0.2383
 7211TIP3    H121597   6.303   2.643   1.170 -0.0579 -1.8831 -2.4424
 7211TIP3    H221598   6.407   2.742   1.124 -0.3355 -0.3273  0.0929
 7212TIP3   OH221599   2.644   3.541   5.364  0.0338 -0.4181  0.2601
 7212TIP3    H121600   2.594   3.610   5.410  0.3078 -0.9177  1.3354
 7212TIP3    H221601   2.624   3.461   5.412  1.1408 -0.7892  0.1211
 7213TIP3   OH221602   0.261   5.523   0.284 -0.0860  0.2899 -0.4217
 7213TIP3    H121603   0.291   5.614   0.277 -1.3349  0.7374 -0.1664
 7213TIP3    H221604   0.337   5.471   0.257  0.9883  1.3589  0.4312
 7214TIP3   OH221605   4.984   3.440   4.296  0.4893  0.0606  0.4522
 7214TIP3    H121606   5.017   3.352   4.279 -1.3905 -0.8989  1.4178
 7214TIP3    H221607   5.046   3.498   4.252  1.2152 -1.7758 -1.0825
 7215TIP3   OH221608   1.687   6.380   3.496  0.2680  0.3704 -0.5514
 7215TIP3    H121609   1.633   6.454   3.467 -0.3309 -0.2829 -1.1300
 7215TIP3    H221610   1.693   6.323   3.420  1.2002  0.0928 -0.2764
 7216TIP3   OH221611   6.654   2.159   2.060 -0.1299 -0.5856 -0.4687
 7216TIP3    H121612   6.591   2.146   1.989 -2.3130  0.9504  1.0485
 7216TIP3    H221613   6.647   2.079   2.112  1.3386 -1.6344 -1.7952
 7217TIP3   OH221614   4.664   4.058   4.273 -0.5297 -0.3463  0.2622
 7217TIP3    H121615   4.693   4.144   4.241  1.1546 -0.9199  0.1421
 7217TIP3    H221616   4.745   4.013   4.296 -1.3887 -1.8865  0.3855
 7218TIP3   OH221617   4.596   4.920   4.949 -0.1096  0.1898 -0.2095
 7218TIP3    H121618   4.690   4.921   4.928  0.2653 -0.2339  1.2966
 7218TIP3    H221619   4.588   4.852   5.015 -1.1475  1.5408  1.1194
 7219TIP3   OH221620   1.558   0.032   2.412  0.3209  0.6251  0.7958
 7219TIP3    H121621   1.535  -0.060   2.399  1.9018  0.3964 -0.8188
 7219TIP3    H221622   1.620   0.031   2.485 -0.6602  0.5837  1.6356
 7220TIP3   OH221623   4.783   0.214   3.629  0.4123  0.0819 -0.6544
 7220TIP3    H121624   4.816   0.143   3.573  0.2409  0.2280 -0.9416
 7220TIP3    H221625   4.714   0.255   3.577 -0.0083 -0.0185 -0.1825
 7221TIP3   OH221626   4.887   6.358   5.604  0.1691 -0.0252 -0.8966
 7221TIP3    H121627   4.923   6.445   5.619 -0.0561  0.1938 -1.6226
 7221TIP3    H221628   4.957   6.298   5.632 -0.2982  0.3435  1.2437
 7222TIP3   OH221629   5.352   0.661   3.319  0.1493  0.5587  0.0929
 7222TIP3    H121630   5.309   0.653   3.233  0.4795  1.4087 -0.1580
 7222TIP3    H221631   5.281   0.679   3.380  0.0128  0.7983 -0.1368
 7223TIP3   OH221632   0.375   6.487   4.216  0.1348 -0.3407  0.3460
 7223TIP3    H121633   0.433   6.467   4.290  0.9412  1.0920  0.1411
 7223TIP3    H221634   0.317   6.555   4.250 -0.3349 -0.5856  0.0366
 7224TIP3   OH221635   1.443   0.115   4.964  0.3686  0.1566  0.3018
 7224TIP3    H121636   1.501   0.043   4.939 -0.4730 -0.4339 -0.0403
 7224TIP3    H221637   1.362   0.071   4.990 -0.0916  0.9757  0.2798
 7225TIP3   OH221638   1.607   5.229   0.591  0.3870 -0.2530 -0.4346
 7225TIP3    H121639   1.610   5.308   0.537  2.1067  0.4425  0.5737
 7225TIP3    H221640   1.562   5.256   0.671  0.2474 -0.5136 -0.4265
 7226TIP3   OH221641   1.589   2.928   5.045  0.0989 -0.0459 -0.1976
 7226TIP3    H121642   1.673   2.892   5.018 -0.8110 -2.3146 -0.2326
 7226TIP3    H221643   1.546   2.954   4.964  0.3242  0.1474 -0.2582
 7227TIP3   OH221644   3.108   3.653   3.856 -0.0888 -0.0150  0.1158
 7227TIP3    H121645   3.066   3.652   3.942 -1.6353  1.4404 -0.5638
 7227TIP3    H221646   3.035   3.655   3.794  0.9545  1.4559 -1.1541
 7228TIP3   OH221647   5.314   0.957   1.687 -0.1505 -0.1930  0.3926
 7228TIP3    H121648   5.388   1.016   1.701  1.1593 -2.0706  1.8446
 7228TIP3    H221649   5.271   0.951   1.772 -2.0113  0.8198 -0.4071
 7229TIP3   OH221650   3.363   4.778   5.074  0.6960  0.1604  0.2969
 7229TIP3    H121651   3.457   4.795   5.063  0.0806  2.8831 -1.9573
 7229TIP3    H221652   3.337   4.739   4.991  0.2671 -3.7001  2.0404
 7230TIP3   OH221653   5.531   0.590   4.976  0.5079 -0.3469 -0.1345
 7230TIP3    H121654   5.525   0.512   5.031 -1.6769 -0.3315 -0.2747
 7230TIP3    H221655   5.579   0.560   4.899 -1.4099 -1.9530 -0.7834
 7231TIP3   OH221656   5.957   5.022   5.430 -0.1637  0.6039  0.0669
 7231TIP3    H121657   6.047   5.053   5.436  0.5056 -1.3277  0.9732
 7231TIP3    H221658   5.940   4.983   5.516 -0.6590 -2.0094 -1.1046
 7232TIP3   OH221659   5.379   4.340   0.090 -0.0784 -0.1224  0.7594
 7232TIP3    H121660   5.391   4.313   0.181 -1.5698 -1.9636  0.4865
 7232TIP3    H221661   5.441   4.287   0.040 -1.0100 -1.0108  0.4994
 7233TIP3   OH221662   3.659   4.753   3.850 -0.6847  0.3592  0.7258
 7233TIP3    H121663   3.740   4.753   3.799 -1.3183 -1.6943 -0.4084
 7233TIP3    H221664   3.592   4.723   3.789 -1.9232  0.0418  2.1684
 7234TIP3   OH221665   2.045   0.701   4.898  0.0197 -0.5894  0.3748
 7234TIP3    H121666   2.028   0.635   4.965  0.7021 -2.5360 -1.2765
 7234TIP3    H221667   2.141   0.706   4.894 -0.0218  0.4456  0.3972
 7235TIP3   OH221668   1.401   5.533   4.837 -0.0998 -0.0987 -0.2493
 7235TIP3    H121669   1.332   5.497   4.894  0.0427  0.7159  0.4669
 7235TIP3    H221670   1.477   5.540   4.894  0.1315  0.4547 -0.6190
 7236TIP3   OH221671   2.333   1.936   4.967 -0.6864  0.2382 -0.3770
 7236TIP3    H121672   2.318   1.968   5.055 -0.3926 -1.3280  0.2852
 7236TIP3    H221673   2.406   1.988   4.934 -1.3071  1.3622 -0.0089
 7237TIP3   OH221674   6.961   5.316   3.558  0.3440  0.2024 -0.5407
 7237TIP3    H121675   6.978   5.410   3.551  0.1350  0.5730  2.4815
 7237TIP3    H221676   7.024   5.285   3.623 -0.7220 -1.3831 -0.2122
 7238TIP3   OH221677   5.792   0.972   1.982  0.0706  0.2938  0.1371
 7238TIP3    H121678   5.777   1.058   2.020  0.0453  0.5988 -0.5584
 7238TIP3    H221679   5.708   0.947   1.944  0.2780  0.3101 -0.3467
 7239TIP3   OH221680   0.769   4.367   1.629  0.1569 -0.3697 -0.4348
 7239TIP3    H121681   0.764   4.462   1.638 -0.4187 -0.4260 -0.1566
 7239TIP3    H221682   0.790   4.353   1.536 -1.8718 -0.0310 -0.9788
 7240TIP3   OH221683   0.399   3.715   3.418  0.4361 -0.0145  0.1178
 7240TIP3    H121684   0.349   3.666   3.483 -1.2463  0.5217 -0.7214
 7240TIP3    H221685   0.337   3.779   3.383  1.0727 -0.6813 -2.4421
 7241TIP3   OH221686   1.391   0.136   1.864 -0.6043 -0.0839 -0.3674
 7241TIP3    H121687   1.388   0.161   1.772 -1.8927 -2.3529 -1.0284
 7241TIP3    H221688   1.307   0.165   1.900 -0.7282 -0.4989 -0.3112
 7242TIP3   OH221689   2.973   1.721   2.699  0.5707 -0.2499  0.2408
 7242TIP3    H121690   2.994   1.763   2.616 -1.8055  1.9450  0.6538
 7242TIP3    H221691   2.999   1.785   2.766 -2.7170  0.5654  0.9002
 7243TIP3   OH221692   0.368   1.611   1.935  0.4152 -0.7427 -0.4592
 7243TIP3    H121693   0.319   1.583   1.858  1.4638 -2.3446 -0.5931
 7243TIP3    H221694   0.456   1.628   1.902  0.4478  0.2856  0.1028
 7244TIP3   OH221695   1.469   3.803   0.472 -0.4503  0.0201  0.0123
 7244TIP3    H121696   1.384   3.847   0.474  0.6062  2.1254  0.6082
 7244TIP3    H221697   1.521   3.853   0.409  0.6092 -0.7375  0.2626
 7245TIP3   OH221698   2.514   4.458   1.142  0.2402 -0.0770 -0.1930
 7245TIP3    H121699   2.442   4.453   1.205  0.7777 -0.1024  0.4351
 7245TIP3    H221700   2.593   4.464   1.197  0.7939 -1.0645 -0.8405
 7246TIP3   OH221701   0.696   2.676   2.402 -0.1436  0.4374 -0.7733
 7246TIP3    H121702   0.691   2.759   2.450  5.3726  0.4095  0.5262
 7246TIP3    H221703   0.735   2.699   2.318  3.4129 -0.7932  0.3726
 7247TIP3   OH221704   3.574   5.327   4.299 -0.0791  0.4919 -0.4097
 7247TIP3    H121705   3.591   5.234   4.286 -1.2291  0.3063 -0.6887
 7247TIP3    H221706   3.561   5.361   4.211  0.7543  1.0135 -0.3410
 7248TIP3   OH221707   1.928   4.111   2.458 -0.0560 -0.4332 -0.5183
 7248TIP3    H121708   1.888   4.124   2.544  0.8801 -0.5691 -0.0545
 7248TIP3    H221709   1.867   4.053   2.412 -0.3047 -0.7877  0.2424
 7249TIP3   OH221710   2.540   4.444   5.048  0.1479 -0.0089  0.3707
 7249TIP3    H121711   2.515   4.536   5.043 -0.3280 -0.1832 -0.7851
 7249TIP3    H221712   2.632   4.445   5.075 -0.5755  0.6979  3.1224
 7250TIP3   OH221713   4.920   3.932   3.264 -0.3778 -0.0444 -0.0085
 7250TIP3    H121714   4.889   4.021   3.283  1.2760  1.0282 -1.9349
 7250TIP3    H221715   5.015   3.942   3.255 -0.1783 -1.9989 -0.4084
 7251TIP3   OH221716   0.290   5.129   5.256 -0.0592 -0.4249  0.6018
 7251TIP3    H121717   0.368   5.134   5.201 -0.6078  1.2026 -0.1032
 7251TIP3    H221718   0.291   5.210   5.307 -2.0145  0.3691 -0.4956
 7252TIP3   OH221719   2.968   2.335   1.188 -0.3233  0.8049 -0.2313
 7252TIP3    H121720   3.008   2.421   1.175  0.2510  0.5017 -0.5049
 7252TIP3    H221721   2.951   2.331   1.282 -1.4963  1.7064 -0.3803
 7253TIP3   OH221722   3.844   2.703   5.571 -0.1117 -0.2960  0.2212
 7253TIP3    H121723   3.931   2.715   5.533 -0.6613  0.7937 -0.7540
 7253TIP3    H221724   3.814   2.619   5.535 -0.0476  0.0371 -0.6366
 7254TIP3   OH221725   7.108   0.467   3.094  0.1344 -0.4081  0.2480
 7254TIP3    H121726   7.196   0.439   3.121  0.3720  1.5353  1.6994
 7254TIP3    H221727   7.115   0.475   2.999  2.1488  1.4597  0.4663
 7255TIP3   OH221728   4.030   0.408   0.874  0.7301  0.2176  0.2998
 7255TIP3    H121729   4.116   0.370   0.890  1.0222  1.4458  2.0281
 7255TIP3    H221730   3.969   0.349   0.918  0.8459  0.0974  0.2993
 7256TIP3   OH221731   1.935   6.109   2.457  0.5214 -0.3337 -0.5973
 7256TIP3    H121732   1.909   6.139   2.370 -1.5148 -1.0381 -0.2938
 7256TIP3    H221733   2.031   6.110   2.455  0.5440  1.4856 -2.1854
 7257TIP3   OH221734   0.838   0.682   5.693  0.5520 -0.0911 -0.1742
 7257TIP3    H121735   0.914   0.626   5.680  0.5706  0.0651 -0.7709
 7257TIP3    H221736   0.837   0.700   5.787 -0.2313 -2.1645  0.2701
 7258TIP3   OH221737   1.437   6.549   2.026 -0.2147 -0.0334 -1.3279
 7258TIP3    H121738   1.378   6.547   2.101 -1.9069 -0.2581 -2.6033
 7258TIP3    H221739   1.498   6.621   2.045 -0.8536  0.1755  0.0557
 7259TIP3   OH221740   3.750   4.529   5.803  0.1449  0.0432  0.4075
 7259TIP3    H121741   3.822   4.545   5.864 -1.5696 -0.6550  2.7615
 7259TIP3    H221742   3.710   4.614   5.791  0.3021  0.1364  0.5312
 7260TIP3   OH221743   0.539   2.149   4.840 -0.7943  0.5628 -0.0113
 7260TIP3    H121744   0.483   2.079   4.806 -0.8935  0.4666  0.3466
 7260TIP3    H221745   0.613   2.103   4.880 -0.1239  0.7033 -1.0474
 7261TIP3   OH221746   1.901   1.605   5.875 -0.1237 -0.0118 -0.0095
 7261TIP3    H121747   1.987   1.621   5.913  0.4862  0.1433 -1.3970
 7261TIP3    H221748   1.912   1.527   5.821 -0.5609  0.5932 -1.0219
 7262TIP3   OH221749   1.080   6.020   0.183 -0.4001 -0.1082 -0.1233
 7262TIP3    H121750   1.098   6.114   0.188 -1.4282  0.1838 -1.2949
 7262TIP3    H221751   1.154   5.978   0.227 -0.4671  1.2868  1.3754
 7263TIP3   OH221752   1.425   4.390   4.761  0.1306 -0.6257  0.0876
 7263TIP3    H121753   1.517   4.405   4.780  0.2328 -0.4540 -0.5287
 7263TIP3    H221754   1.386   4.477   4.756  0.6329 -0.4719 -3.0166
 7264TIP3   OH221755   1.664   1.212   2.370  0.0934  0.0031  0.2710
 7264TIP3    H121756   1.610   1.141   2.403  0.2216  0.4114  1.4348
 7264TIP3    H221757   1.725   1.231   2.442 -0.4502  1.8001  0.3179
 7265TIP3   OH221758   4.828   0.364   5.365 -0.0108 -0.1710 -0.4673
 7265TIP3    H121759   4.897   0.413   5.320  0.5810 -0.2245  0.3491
 7265TIP3    H221760   4.840   0.273   5.337  0.2339 -0.1743 -0.3527
 7266TIP3   OH221761   7.119   1.965   1.322  0.0651 -0.2660  0.4581
 7266TIP3    H121762   7.208   1.938   1.300  0.3341  0.7877  0.2073
 7266TIP3    H221763   7.063   1.916   1.262  0.5187 -0.4483  0.1836
 7267TIP3   OH221764   6.164   0.306   4.736 -0.2352  0.0892 -0.0835
 7267TIP3    H121765   6.213   0.232   4.773 -0.7749  1.0572  2.8190
 7267TIP3    H221766   6.088   0.316   4.793 -1.5753  1.3005 -1.9552
 7268TIP3   OH221767   1.825   1.345   5.255 -0.7139  0.4945  0.0098
 7268TIP3    H121768   1.731   1.359   5.256 -1.1254 -1.8871 -0.3275
 7268TIP3    H221769   1.840   1.286   5.182  1.5630  3.5744 -2.3200
 7269TIP3   OH221770   5.433   0.911   4.186  0.2288  0.2618  0.2924
 7269TIP3    H121771   5.489   0.846   4.227  0.5469  0.2762 -0.1151
 7269TIP3    H221772   5.345   0.874   4.192  0.3987 -0.1722  0.1225
 7270TIP3   OH221773   6.033   5.692   2.804 -0.1569 -0.5889 -0.3600
 7270TIP3    H121774   5.980   5.770   2.791  0.3192  0.0226  1.2089
 7270TIP3    H221775   6.088   5.687   2.726 -0.9674 -0.0202 -0.9914
 7271TIP3   OH221776   7.131   0.816   3.650  0.1977  0.5261 -0.1326
 7271TIP3    H121777   7.167   0.807   3.738  0.9656  1.9246 -0.2856
 7271TIP3    H221778   7.124   0.726   3.619  2.2284  0.0941  0.4579
 7272TIP3   OH221779   6.506   3.992   1.937  0.2090 -0.6638 -0.4528
 7272TIP3    H121780   6.415   4.021   1.935  0.2009 -0.7250 -1.6114
 7272TIP3    H221781   6.554   4.062   1.893  1.3493  1.3394  3.5826
 7273TIP3   OH221782   1.784   5.058   0.891  0.0276  0.1750  0.1633
 7273TIP3    H121783   1.700   5.045   0.846  1.1669  0.2836 -2.1613
 7273TIP3    H221784   1.760   5.101   0.974 -2.2018  0.1201 -0.3735
 7274TIP3   OH221785   0.448   5.284   3.628  0.1907 -0.4289 -0.1563
 7274TIP3    H121786   0.393   5.358   3.605  0.0252 -0.9742 -1.6295
 7274TIP3    H221787   0.388   5.209   3.631  0.2964 -0.4732  1.6332
 7275TIP3   OH221788   6.939   1.192   3.420  0.0186  0.2157 -0.6084
 7275TIP3    H121789   7.009   1.131   3.396  1.5127  1.1993  1.0074
 7275TIP3    H221790   6.859   1.142   3.407  1.1378 -1.8260 -0.1186
 7276TIP3   OH221791   0.628   1.139   4.226  0.3238 -0.1636  0.5158
 7276TIP3    H121792   0.544   1.176   4.200  1.1305  0.3061 -1.5918
 7276TIP3    H221793   0.665   1.103   4.146  2.3552  0.0649  1.2811
 7277TIP3   OH221794   4.807   3.001   3.643  0.4413  0.6600 -0.0578
 7277TIP3    H121795   4.726   2.963   3.675  1.7158 -0.3067  2.2461
 7277TIP3    H221796   4.798   3.095   3.657 -1.2117  0.8773 -2.1817
 7278TIP3   OH221797   0.451   2.621   0.799  0.0873 -0.1952 -0.0404
 7278TIP3    H121798   0.430   2.539   0.844  0.0380 -0.1329  0.0489
 7278TIP3    H221799   0.408   2.613   0.714  3.1123 -1.9289 -1.6069
 7279TIP3   OH221800   6.655   2.975   0.108  0.2854 -0.4418  0.8840
 7279TIP3    H121801   6.737   2.989   0.156  1.3687 -1.7317 -0.4746
 7279TIP3    H221802   6.680   2.920   0.034 -1.5125  0.5104 -0.5164
 7280TIP3   OH221803   6.937   0.253   2.197 -0.6212  0.3978 -0.6634
 7280TIP3    H121804   6.846   0.258   2.168 -0.1297  1.6074 -2.1326
 7280TIP3    H221805   6.936   0.192   2.271 -2.7651  1.1434 -0.0248
 7281TIP3   OH221806   5.486   1.142   3.999 -0.1438  0.1401 -0.3733
 7281TIP3    H121807   5.475   1.076   4.067 -1.1451  0.9006  0.2260
 7281TIP3    H221808   5.570   1.184   4.019  0.3134 -0.6803 -0.5385
 7282TIP3   OH221809   5.799   1.448   4.554  0.3528 -0.0719 -0.7472
 7282TIP3    H121810   5.872   1.434   4.494  0.2748 -0.5513 -0.7357
 7282TIP3    H221811   5.727   1.398   4.515  0.3910 -0.6611 -0.0855
 7283TIP3   OH221812   6.190   3.775   0.949  0.7218  0.2206  0.4792
 7283TIP3    H121813   6.144   3.695   0.924  0.5566  0.2355  0.7378
 7283TIP3    H221814   6.122   3.843   0.948  0.8242  0.3237  0.4458
 7284TIP3   OH221815   1.697   0.305   4.757  0.1780 -0.1143  0.1556
 7284TIP3    H121816   1.735   0.337   4.839  0.4532  0.6229 -0.2474
 7284TIP3    H221817   1.746   0.351   4.689 -0.6024 -0.0973 -0.4053
 7285TIP3   OH221818   7.127   6.529   5.199 -0.7872 -0.5665 -0.0696
 7285TIP3    H121819   7.133   6.448   5.249 -2.0934  0.3076  1.5734
 7285TIP3    H221820   7.211   6.535   5.154  1.3510 -0.4085  3.5928
 7286TIP3   OH221821   5.520   5.717   1.198  0.2900 -0.1098 -0.1584
 7286TIP3    H121822   5.562   5.768   1.128 -0.0455  0.1974 -0.1392
 7286TIP3    H221823   5.426   5.728   1.184  0.2007  0.9219  1.0157
 7287TIP3   OH221824   0.491   4.201   1.231 -0.4201  0.3120  0.1104
 7287TIP3    H121825   0.444   4.118   1.246  0.3861  0.0186  1.0711
 7287TIP3    H221826   0.448   4.238   1.154 -0.8068 -1.0006 -0.3449
 7288TIP3   OH221827   3.150   4.171   4.396 -0.2563  0.1427 -0.4152
 7288TIP3    H121828   3.151   4.259   4.360  2.1226  0.5506  0.4610
 7288TIP3    H221829   3.197   4.118   4.331  1.9379  0.4110  0.8454
 7289TIP3   OH221830   4.985   5.666   2.864  0.2783 -0.4024 -0.1991
 7289TIP3    H121831   5.058   5.627   2.816  0.9544  1.0350 -0.3821
 7289TIP3    H221832   4.934   5.710   2.797 -0.0041 -0.2541  0.1122
 7290TIP3   OH221833   6.559   1.377   0.630 -0.0048  0.4503  0.3764
 7290TIP3    H121834   6.650   1.347   0.619 -0.7097 -0.8735 -3.1221
 7290TIP3    H221835   6.527   1.389   0.540 -3.0135  1.9020  1.5186
 7291TIP3   OH221836   5.122   2.207   4.237  0.2208  0.4315 -0.0868
 7291TIP3    H121837   5.216   2.213   4.225  0.2055 -0.4810 -0.7658
 7291TIP3    H221838   5.086   2.273   4.178  0.3447 -1.0760 -1.9627
 7292TIP3   OH221839   3.720   2.790   1.227 -0.1907  0.4324  0.5951
 7292TIP3    H121840   3.656   2.780   1.298 -2.2148  0.7790 -1.0936
 7292TIP3    H221841   3.697   2.872   1.185  2.8381  1.7532  1.2236
 7293TIP3   OH221842   2.011   6.637   0.831 -0.3130 -0.0617  0.4544
 7293TIP3    H121843   1.957   6.631   0.752 -0.8810  1.8656  0.6573
 7293TIP3    H221844   1.985   6.561   0.883 -0.1873 -1.1635 -1.0230
 7294TIP3   OH221845   0.247   6.506   3.789 -0.4374 -0.1306  0.2664
 7294TIP3    H121846   0.162   6.464   3.807 -0.4246 -0.1012  0.3951
 7294TIP3    H221847   0.232   6.598   3.807  0.3232 -0.4430  2.8742
 7295TIP3   OH221848   6.106   3.398   2.661 -0.2969 -0.0326 -0.7614
 7295TIP3    H121849   6.025   3.408   2.710 -0.2108 -0.4941 -0.5212
 7295TIP3    H221850   6.118   3.303   2.654  1.1516 -0.0067  0.7515
 7296TIP3   OH221851   0.304   1.431   0.135  0.1301 -0.2198 -0.5439
 7296TIP3    H121852   0.363   1.462   0.204  0.2342 -0.6268 -0.4455
 7296TIP3    H221853   0.255   1.509   0.108 -0.2710 -0.1528  0.3420
 7297TIP3   OH221854   3.299   0.997   0.264  0.2852 -0.2760  0.6560
 7297TIP3    H121855   3.378   0.946   0.247  0.1400  0.1060 -1.3960
 7297TIP3    H221856   3.308   1.075   0.209 -1.1548  0.1704  1.0011
 7298TIP3   OH221857   3.466   2.134   4.359 -0.5374  0.0499  0.0038
 7298TIP3    H121858   3.450   2.081   4.436  0.3244 -2.3493 -1.3701
 7298TIP3    H221859   3.399   2.106   4.296  0.8549 -0.5291 -1.2613
 7299TIP3   OH221860   0.110   6.119   2.247  0.2748 -0.5255  0.6896
 7299TIP3    H121861   0.203   6.128   2.229  0.0009  0.9407 -0.1780
 7299TIP3    H221862   0.085   6.035   2.207  0.8309  0.0286 -0.8994
 7300TIP3   OH221863   6.172   3.132   4.168  0.2454 -0.6258  1.1278
 7300TIP3    H121864   6.103   3.155   4.230  0.3565  0.6878  0.8002
 7300TIP3    H221865   6.127   3.130   4.083  0.2734 -1.5032  1.1294
 7301TIP3   OH221866   0.629   2.919   0.799 -0.0541 -0.3131 -0.0478
 7301TIP3    H121867   0.627   2.935   0.704  0.7443 -2.6874 -0.5382
 7301TIP3    H221868   0.567   2.982   0.835 -0.8306  0.2690 -2.2086
 7302TIP3   OH221869   3.441   5.092   3.417  0.3161 -0.2906 -0.8326
 7302TIP3    H121870   3.391   5.162   3.375 -0.2487 -0.8277 -1.0533
 7302TIP3    H221871   3.375   5.032   3.451  0.7044  0.4421  1.4265
 7303TIP3   OH221872   2.211   5.148   3.785  0.1210 -0.3905 -0.5723
 7303TIP3    H121873   2.155   5.074   3.759  0.7826 -1.4818  0.9738
 7303TIP3    H221874   2.251   5.177   3.703 -0.2168 -1.7070 -1.2388
 7304TIP3   OH221875   6.621   1.510   4.001  0.4228  0.1888  0.3288
 7304TIP3    H121876   6.530   1.478   3.999  0.6831 -0.5648 -0.3289
 7304TIP3    H221877   6.672   1.434   4.030  0.7743  0.8214  1.4169
 7305TIP3   OH221878   1.798   2.250   0.653  0.7465 -0.2432 -0.3417
 7305TIP3    H121879   1.882   2.294   0.666  1.5449 -1.5543 -0.9340
 7305TIP3    H221880   1.795   2.230   0.559  0.3226 -1.2807 -0.1200
 7306TIP3   OH221881   5.663   5.091   4.481 -0.2338  0.1271 -0.3858
 7306TIP3    H121882   5.597   5.024   4.461 -1.8558  1.8544 -1.0626
 7306TIP3    H221883   5.702   5.112   4.396 -0.8292  1.0911 -0.4427
 7307TIP3   OH221884   2.263   0.091   4.188 -0.3716  0.1870  0.9861
 7307TIP3    H121885   2.284   0.169   4.137 -1.9397  0.4659  0.7021
 7307TIP3    H221886   2.229   0.029   4.124 -2.3697  0.5414  1.6256
 7308TIP3   OH221887   4.258   2.403   3.135 -0.4066  0.4096 -0.3405
 7308TIP3    H121888   4.262   2.390   3.040 -1.6010 -1.0228 -0.2387
 7308TIP3    H221889   4.181   2.353   3.162  0.0013  0.6725  1.4086
 7309TIP3   OH221890   1.391   1.032   1.889 -0.2506  0.0985 -0.2607
 7309TIP3    H121891   1.370   1.091   1.816  0.4831  0.9644  0.2164
 7309TIP3    H221892   1.372   1.084   1.967  2.9731  0.7383  0.2175
 7310TIP3   OH221893   2.910   3.836   1.911 -0.4533  0.3356  0.2981
 7310TIP3    H121894   2.835   3.819   1.854 -0.4320 -0.0031  0.3709
 7310TIP3    H221895   2.917   3.758   1.965 -1.1613  1.1100  1.5537
 7311TIP3   OH221896   1.996   0.369   2.911  1.0715 -0.7515  0.6520
 7311TIP3    H121897   1.925   0.307   2.931 -0.1971  0.6227  0.6082
 7311TIP3    H221898   2.015   0.354   2.819 -0.3908  0.0266  0.1964
 7312TIP3   OH221899   5.642   2.519   2.877  0.0129  0.0506  0.1985
 7312TIP3    H121900   5.719   2.573   2.889  0.6797 -0.4658 -1.5712
 7312TIP3    H221901   5.665   2.457   2.808 -1.0423 -1.9023  1.4721
 7313TIP3   OH221902   0.980   4.766   4.207  0.0287 -0.3391 -0.5906
 7313TIP3    H121903   0.991   4.672   4.225  0.6562 -0.5216 -1.8473
 7313TIP3    H221904   1.069   4.799   4.194 -0.0937  0.6775  0.8782
 7314TIP3   OH221905   6.332   3.521   4.700  0.8682  0.4539 -0.0161
 7314TIP3    H121906   6.238   3.542   4.708 -0.1507 -2.6448 -2.1483
 7314TIP3    H221907   6.352   3.470   4.778  0.5168  0.2996 -0.0253
 7315TIP3   OH221908   2.138   3.998   2.597 -0.0894 -0.4039 -0.4401
 7315TIP3    H121909   2.110   4.059   2.529 -1.6824  0.7088  1.1195
 7315TIP3    H221910   2.075   3.927   2.593  0.2032 -0.6631 -0.5267
 7316TIP3   OH221911   0.326   0.725   2.244  0.2099  0.5156 -0.3318
 7316TIP3    H121912   0.236   0.729   2.213 -0.8942  0.3746  2.5453
 7316TIP3    H221913   0.360   0.813   2.231 -0.1892  0.4806 -1.7564
 7317TIP3   OH221914   3.903   4.798   1.463  0.5894 -0.4072 -0.4396
 7317TIP3    H121915   3.913   4.849   1.382 -0.4287 -0.7626 -0.7977
 7317TIP3    H221916   3.865   4.715   1.435  0.3082 -0.5723  0.3967
 7318TIP3   OH221917   3.798   1.367   0.239 -0.3091  0.0589  0.6038
 7318TIP3    H121918   3.736   1.294   0.248  0.1686 -0.2301  1.7848
 7318TIP3    H221919   3.826   1.363   0.148 -1.3375 -0.3630  0.2881
 7319TIP3   OH221920   4.029   5.259   4.349 -0.1362 -0.1132 -0.0997
 7319TIP3    H121921   4.090   5.187   4.364  0.2538  0.3452  0.5413
 7319TIP3    H221922   4.042   5.284   4.258  0.5329 -0.1101 -0.0052
 7320TIP3   OH221923   7.046   4.590   0.504 -0.5452  0.6032  0.4502
 7320TIP3    H121924   6.993   4.510   0.510 -0.4778  0.3913 -1.3220
 7320TIP3    H221925   7.128   4.561   0.464 -0.2408  1.4476  0.4507
 7321TIP3   OH221926   2.246   5.691   3.042 -0.0117 -0.2521 -0.2775
 7321TIP3    H121927   2.273   5.783   3.038  0.9205 -0.4777  0.2439
 7321TIP3    H221928   2.308   5.646   2.985  0.2371 -0.6931  0.3289
 7322TIP3   OH221929   0.606   2.228   1.615 -0.0740  0.2995 -0.0095
 7322TIP3    H121930   0.600   2.135   1.637  2.1337 -0.2469 -1.3875
 7322TIP3    H221931   0.571   2.234   1.526  1.8235  0.3039 -0.8184
 7323TIP3   OH221932   5.903   0.882   4.536 -0.3656 -0.2392  0.6485
 7323TIP3    H121933   5.828   0.931   4.503 -0.1542  0.0511  0.5893
 7323TIP3    H221934   5.975   0.946   4.536  0.4526 -1.0647 -1.4518
 7324TIP3   OH221935   5.293   2.176   1.050 -0.4998  0.5220 -0.2931
 7324TIP3    H121936   5.312   2.152   1.140  0.2362 -1.3441 -0.9101
 7324TIP3    H221937   5.283   2.271   1.052 -0.0591  0.5573  1.6570
 7325TIP3   OH221938   0.444   6.453   0.235 -0.1481  0.3927  0.0960
 7325TIP3    H121939   0.405   6.391   0.173  0.0214 -0.1028  0.4811
 7325TIP3    H221940   0.439   6.538   0.190 -1.6015  0.3387  0.1114
 7326TIP3   OH221941   1.114   5.860   1.808 -0.4175 -0.2830 -0.9614
 7326TIP3    H121942   1.140   5.768   1.806  2.1331  0.2447  1.0628
 7326TIP3    H221943   1.059   5.868   1.886  1.0914  0.1935  0.1070
 7327TIP3   OH221944   6.333   1.502   3.952 -0.1890 -0.4783  0.1139
 7327TIP3    H121945   6.387   1.541   3.884  1.6347  1.3320  2.3969
 7327TIP3    H221946   6.281   1.436   3.907  0.6901  0.7788 -3.0112
 7328TIP3   OH221947   1.130   0.213   1.955 -0.6686  0.0287 -0.1157
 7328TIP3    H121948   1.055   0.170   1.914 -0.8582  0.9895 -0.8195
 7328TIP3    H221949   1.091   0.284   2.006 -0.1872  1.6227 -1.8371
 7329TIP3   OH221950   7.079   2.644   3.699 -0.4450  0.3421  0.2342
 7329TIP3    H121951   7.093   2.708   3.769  1.0495 -0.3870  0.6534
 7329TIP3    H221952   7.132   2.569   3.725 -1.9149 -0.9567 -0.4082
 7330TIP3   OH221953   6.667   4.973   3.798  0.5579 -0.0935 -0.4893
 7330TIP3    H121954   6.670   4.895   3.853  0.9723 -0.9246 -1.6396
 7330TIP3    H221955   6.757   4.983   3.767  0.3704  0.4497 -0.8728
 7331TIP3   OH221956   0.210   0.051   3.466 -0.1807  0.3800  0.4616
 7331TIP3    H121957   0.198   0.063   3.372 -1.5318  0.4393  0.6208
 7331TIP3    H221958   0.269   0.122   3.493 -0.9544  1.2569 -0.0992
 7332TIP3   OH221959   3.156   6.065   3.898 -0.2640 -0.2582 -0.3699
 7332TIP3    H121960   3.117   6.060   3.986  0.2276  0.0826 -0.1269
 7332TIP3    H221961   3.231   6.123   3.909 -1.1757  1.1643 -1.3733
 7333TIP3   OH221962   4.276   4.531   3.444  0.1436  0.6309 -0.2928
 7333TIP3    H121963   4.264   4.453   3.498  2.2487 -1.3427 -2.4275
 7333TIP3    H221964   4.362   4.564   3.469 -0.2026  1.5577 -0.2972
 7334TIP3   OH221965   5.775   0.550   5.824 -0.1676 -0.4283  0.0372
 7334TIP3    H121966   5.824   0.473   5.795 -0.5003 -0.9887  0.9317
 7334TIP3    H221967   5.713   0.516   5.888 -0.6419  0.5196  0.0940
 7335TIP3   OH221968   1.256   4.850   5.638  0.0683 -0.3894 -0.2340
 7335TIP3    H121969   1.328   4.846   5.700 -1.0620  1.1523  1.2782
 7335TIP3    H221970   1.270   4.931   5.589 -1.0179  0.3794  0.6570
 7336TIP3   OH221971   5.788   2.827   1.799 -0.1296  0.4266  0.0850
 7336TIP3    H121972   5.873   2.865   1.821 -0.0067  1.6505 -2.2097
 7336TIP3    H221973   5.809   2.742   1.761  0.1556  1.0252 -1.1312
 7337TIP3   OH221974   5.729   0.349   4.868 -0.1869  0.5345 -0.1190
 7337TIP3    H121975   5.803   0.386   4.916  0.8738 -1.4329 -0.1503
 7337TIP3    H221976   5.733   0.392   4.782  1.8574 -0.5906 -0.6463
 7338TIP3   OH221977   1.560   0.747   4.272  0.1493  0.4936 -0.0902
 7338TIP3    H121978   1.544   0.841   4.266 -0.5427  0.4606  0.8893
 7338TIP3    H221979   1.494   0.707   4.215  1.1597  0.6248 -1.3983
 7339TIP3   OH221980   4.021   3.412   2.419  0.5012  0.1862  0.0417
 7339TIP3    H121981   3.929   3.440   2.421  0.4282  0.0661 -1.1997
 7339TIP3    H221982   4.065   3.470   2.482  0.1975  2.5702 -1.7737
 7340TIP3   OH221983   0.985   3.522   2.406 -0.8366 -0.1808 -0.6901
 7340TIP3    H121984   0.918   3.583   2.376 -0.3621  0.7219  0.0377
 7340TIP3    H221985   0.944   3.476   2.480 -0.3405  1.0790  0.4014
 7341TIP3   OH221986   5.169   2.782   5.146  0.1077 -0.0362  0.3182
 7341TIP3    H121987   5.120   2.861   5.122  0.3611 -0.2663 -1.0153
 7341TIP3    H221988   5.240   2.778   5.082 -1.4698 -2.7984 -1.4442
 7342TIP3   OH221989   6.603   3.448   2.690 -0.0978 -0.1802 -0.0287
 7342TIP3    H121990   6.634   3.523   2.638  0.7689 -0.6057 -0.1481
 7342TIP3    H221991   6.518   3.476   2.724  0.0822  0.7500 -0.3038
 7343TIP3   OH221992   5.765   6.269   5.326  0.5804 -0.5309  0.0823
 7343TIP3    H121993   5.851   6.267   5.283  0.2760 -2.3634 -0.5773
 7343TIP3    H221994   5.768   6.196   5.388 -0.1021  0.1128  0.8860
 7344TIP3   OH221995   3.145   1.578   1.651 -0.5248  0.1072  0.1169
 7344TIP3    H121996   3.074   1.561   1.589 -1.3243 -0.4980  1.1709
 7344TIP3    H221997   3.155   1.674   1.650 -1.4035  0.2091 -0.0065
 7345TIP3   OH221998   1.345   0.172   2.582 -0.1287  0.1127 -0.0936
 7345TIP3    H121999   1.382   0.090   2.614 -1.5150 -0.5393 -0.0817
 7345TIP3    H222000   1.373   0.178   2.491 -1.7776 -1.4963 -0.7571
 7346TIP3   OH222001   0.811   0.086   4.442  0.0909  0.0037  0.5388
 7346TIP3    H122002   0.748   0.117   4.508  0.3111  0.0642  0.7211
 7346TIP3    H222003   0.796  -0.008   4.437 -2.3629  0.3888 -1.8489
 7347TIP3   OH222004   1.293   2.222   3.976  0.0831 -0.4807  0.0754
 7347TIP3    H122005   1.264   2.189   4.061  0.8692  0.4948  0.7353
 7347TIP3    H222006   1.212   2.238   3.928 -0.3547 -1.6007  0.4098
 7348TIP3   OH222007   4.830   5.347   4.943  0.2600  0.5177 -0.0699
 7348TIP3    H122008   4.887   5.323   4.870  0.3206 -3.5138  1.0425
 7348TIP3    H222009   4.890   5.371   5.013  0.3921  0.4427 -0.1566
 7349TIP3   OH222010   3.619   3.123   2.927  0.4084 -0.0268  0.3508
 7349TIP3    H122011   3.636   3.071   2.848  0.6832 -0.6221  0.8020
 7349TIP3    H222012   3.532   3.096   2.955  0.5941 -0.3184  0.6449
 7350TIP3   OH222013   2.428   5.756   4.160  0.1679  0.2822 -0.1969
 7350TIP3    H122014   2.420   5.827   4.097 -1.7361  0.8964  0.6672
 7350TIP3    H222015   2.472   5.686   4.112  2.3536  2.0874 -0.9930
 7351TIP3   OH222016   1.875   2.538   5.633 -0.3887 -0.4350  0.5974
 7351TIP3    H122017   1.918   2.453   5.639 -0.9215 -0.6320  2.3613
 7351TIP3    H222018   1.841   2.543   5.544 -1.8697 -2.8229  0.9670
 7352TIP3   OH222019   1.880   4.908   2.088 -0.2141 -0.4940 -0.0753
 7352TIP3    H122020   1.813   4.977   2.089  0.5563  0.2610 -0.1744
 7352TIP3    H222021   1.925   4.917   2.172 -0.1660 -0.9358 -0.0516
 7353TIP3   OH222022   4.160   1.428   3.409 -0.0933  0.1982 -0.3286
 7353TIP3    H122023   4.097   1.429   3.481  1.9203  0.6209  1.5241
 7353TIP3    H222024   4.123   1.367   3.346 -0.9895 -1.7862  1.9678
 7354TIP3   OH222025   3.164   1.542   0.725 -0.6656 -0.0635  0.0774
 7354TIP3    H122026   3.123   1.629   0.723 -1.1397 -0.2645  0.8425
 7354TIP3    H222027   3.254   1.559   0.754  0.3088  0.5440 -2.8773
 7355TIP3   OH222028   1.742   1.056   3.477 -0.2859 -0.2227 -0.2659
 7355TIP3    H122029   1.710   1.029   3.563  0.6975 -0.0365  0.1691
 7355TIP3    H222030   1.675   1.115   3.444 -0.2202  0.4913  0.8069
 7356TIP3   OH222031   3.604   0.742   3.333  0.1104  0.0530 -0.6662
 7356TIP3    H122032   3.581   0.654   3.303 -1.4404  0.0956  0.2838
 7356TIP3    H222033   3.534   0.798   3.298  0.8851  0.8594 -0.9561
 7357TIP3   OH222034   0.201   6.655   4.375  0.3266  0.3444 -0.7436
 7357TIP3    H122035   0.164   6.640   4.462 -2.1588  2.3836 -1.3276
 7357TIP3    H222036   0.293   6.676   4.392  0.1142 -0.1136  1.3076
 7358TIP3   OH222037   6.145   4.503   3.211  0.6179 -0.3543  0.7072
 7358TIP3    H122038   6.050   4.491   3.212  0.7004 -1.0482  1.1296
 7358TIP3    H222039   6.170   4.496   3.303  0.9708  0.7697  0.6999
 7359TIP3   OH222040   3.968   1.153   1.627 -0.2664 -0.0999 -0.0232
 7359TIP3    H122041   3.914   1.099   1.684 -1.2545 -0.6309 -1.3966
 7359TIP3    H222042   4.056   1.145   1.663 -0.9943  0.4511  2.0256
 7360TIP3   OH222043   0.063   5.377   4.609 -0.4365  0.3749 -0.3392
 7360TIP3    H122044   0.137   5.360   4.550 -0.1955 -0.0431  0.0854
 7360TIP3    H222045   0.029   5.291   4.631  0.7622  0.3784  1.7901
 7361TIP3   OH222046   7.134   0.451   0.703  0.4017 -0.8430 -0.9335
 7361TIP3    H122047   7.136   0.528   0.645  0.9008  0.1852  0.3768
 7361TIP3    H222048   7.225   0.442   0.732 -0.2338  0.2939  1.6756
 7362TIP3   OH222049   0.670   1.897   0.517  0.5355 -0.2533 -0.3968
 7362TIP3    H122050   0.590   1.943   0.543 -0.4601 -2.2325  0.2279
 7362TIP3    H222051   0.740   1.956   0.545 -0.6525  0.6533  0.8800
 7363TIP3   OH222052   5.100   5.944   0.461 -0.1559 -0.4259 -0.2024
 7363TIP3    H122053   5.127   5.893   0.384 -0.3196  0.3460 -0.7914
 7363TIP3    H222054   5.004   5.937   0.461 -0.0741 -1.8613  0.9638
 7364TIP3   OH222055   4.401   5.998   5.596  0.0941  0.2541  0.0696
 7364TIP3    H122056   4.349   6.044   5.530 -0.3265  0.0815  0.2736
 7364TIP3    H222057   4.463   6.063   5.627 -0.0159  0.4719 -0.1645
 7365TIP3   OH222058   3.355   1.353   3.176 -0.3645  0.0736  0.9785
 7365TIP3    H122059   3.449   1.363   3.195 -0.5424  1.1130  1.3842
 7365TIP3    H222060   3.350   1.344   3.081  0.1571 -0.1941  0.9711
 7366TIP3   OH222061   1.899   4.460   5.387  0.1974 -0.4949 -0.2151
 7366TIP3    H122062   1.830   4.398   5.362 -0.0604  0.1670 -1.2294
 7366TIP3    H222063   1.951   4.470   5.307  0.2702  0.5417 -0.0492
 7367TIP3   OH222064   2.235   3.330   0.130 -0.1450 -0.0366 -0.0781
 7367TIP3    H122065   2.181   3.405   0.155 -0.3528 -0.1810 -0.0938
 7367TIP3    H222066   2.325   3.363   0.134 -0.3163  0.7310 -1.7768
 7368TIP3   OH222067   6.327   6.461   3.999 -0.0294  0.1576  0.3512
 7368TIP3    H122068   6.354   6.380   4.043 -0.2859 -1.1687 -1.8000
 7368TIP3    H222069   6.235   6.472   4.026 -0.5102 -1.2217 -0.6215
 7369TIP3   OH222070   4.434   1.488   3.332  0.1450 -0.1967 -0.1433
 7369TIP3    H122071   4.344   1.459   3.344 -0.2447  0.5391 -1.1871
 7369TIP3    H222072   4.480   1.452   3.408 -1.0467 -0.4619  0.4914
 7370TIP3   OH222073   2.481   5.678   3.389 -0.0373 -0.1198 -0.5024
 7370TIP3    H122074   2.569   5.646   3.408  0.1451  0.7862  0.2318
 7370TIP3    H222075   2.471   5.756   3.443 -1.0256  0.2097 -1.1222
 7371TIP3   OH222076   5.398   0.565   5.310 -0.3145  0.6797 -0.1196
 7371TIP3    H122077   5.377   0.473   5.296 -0.5647  0.4253  1.6125
 7371TIP3    H222078   5.457   0.565   5.385 -0.3908  1.9246 -0.0371
 7372TIP3   OH222079   1.918   0.021   5.008 -0.4411  0.0954  0.0370
 7372TIP3    H122080   1.917   0.113   4.980 -2.2309  0.1995  0.2967
 7372TIP3    H222081   1.984  -0.020   4.952  1.0652  1.6943  0.5463
 7373TIP3   OH222082   1.239   3.268   0.486  0.2379 -0.1470 -0.4007
 7373TIP3    H122083   1.147   3.280   0.461 -0.0255  0.6758  0.8567
 7373TIP3    H222084   1.236   3.213   0.564  0.4974  2.4507  1.6019
 7374TIP3   OH222085   0.880   3.812   0.360 -0.3722  0.0777 -0.4660
 7374TIP3    H122086   0.944   3.848   0.299 -0.0774  0.4039  0.0293
 7374TIP3    H222087   0.932   3.779   0.433 -0.6671 -1.0201 -0.7285
 7375TIP3   OH222088   4.385   3.423   4.632  0.1557  0.5602  0.4594
 7375TIP3    H122089   4.358   3.494   4.690 -0.3510  1.7581 -1.1866
 7375TIP3    H222090   4.462   3.457   4.587 -0.1894  0.1584 -0.4622
 7376TIP3   OH222091   2.882   0.395   4.331  0.4165 -0.2789  0.3700
 7376TIP3    H122092   2.869   0.303   4.355 -1.6586 -0.1248 -0.0432
 7376TIP3    H222093   2.906   0.438   4.414 -0.0096 -0.9450  0.8498
 7377TIP3   OH222094   0.439   0.992   2.136 -0.2432 -0.1396 -0.0774
 7377TIP3    H122095   0.505   1.030   2.078  0.1163  0.0111  0.4255
 7377TIP3    H222096   0.372   0.957   2.076  0.7471 -1.1506 -0.6208
 7378TIP3   OH222097   4.051   2.133   5.217  0.0213  0.7055  0.6047
 7378TIP3    H122098   4.145   2.115   5.227  0.5812  2.1938 -1.2465
 7378TIP3    H222099   4.009   2.048   5.225  2.0774 -0.9720 -3.5667
 7379TIP3   OH222100   4.482   2.387   0.135 -0.7778  0.3013 -0.8070
 7379TIP3    H122101   4.412   2.369   0.199  0.3450  1.3887  0.7954
 7379TIP3    H222102   4.506   2.301   0.101 -1.1970 -0.3501  0.4852
 7380TIP3   OH222103   1.479   3.157   4.893 -0.1760 -0.3999  0.2363
 7380TIP3    H122104   1.488   3.211   4.971 -1.1769  0.0506  0.0553
 7380TIP3    H222105   1.552   3.184   4.837  0.0343 -0.1084  0.6464
 7381TIP3   OH222106   0.195   3.715   1.387  0.2956  0.3014 -0.5643
 7381TIP3    H122107   0.123   3.736   1.327  0.9130  0.2559 -1.3405
 7381TIP3    H222108   0.160   3.647   1.444 -0.6903  1.1737 -0.1032
 7382TIP3   OH222109   2.087   4.034   4.645 -0.3273  0.4893 -1.0281
 7382TIP3    H122110   2.132   4.063   4.725 -1.8694  1.1944 -0.3647
 7382TIP3    H222111   2.042   4.112   4.614 -1.6586 -0.3422 -1.2508
 7383TIP3   OH222112   1.415   5.881   5.757  0.4683 -0.7586 -0.2529
 7383TIP3    H122113   1.388   5.824   5.829  1.3729 -1.0718 -0.1465
 7383TIP3    H222114   1.378   5.841   5.679 -1.5935  0.2648  0.1380
 7384TIP3   OH222115   7.084   0.021   4.809 -0.1235 -0.0577  0.1526
 7384TIP3    H122116   7.032   0.059   4.739  1.1702  0.2263 -0.6693
 7384TIP3    H222117   7.030  -0.052   4.842 -0.8344 -0.0635 -0.9830
 7385TIP3   OH222118   0.161   3.504   1.587 -0.4635  0.5048  0.3679
 7385TIP3    H122119   0.213   3.435   1.545  0.4259 -0.4881  2.9101
 7385TIP3    H222120   0.071   3.471   1.583 -0.2429 -0.0981  0.2063
 7386TIP3   OH222121   2.514   2.460   3.136 -0.2613  0.0449  0.0567
 7386TIP3    H122122   2.596   2.493   3.174 -1.3729  1.3455  1.4405
 7386TIP3    H222123   2.506   2.371   3.167 -0.1174  0.4199  1.1970
 7387TIP3   OH222124   5.733   4.161   4.925  0.0774  0.0463  0.3892
 7387TIP3    H122125   5.816   4.122   4.898  0.0765  0.7268 -0.6571
 7387TIP3    H222126   5.677   4.086   4.946  0.9670 -0.4219  1.2057
 7388TIP3   OH222127   5.907   2.645   3.227 -0.0254 -0.9995  0.5288
 7388TIP3    H122128   5.883   2.686   3.144 -0.9758  0.3922  1.4417
 7388TIP3    H222129   5.823   2.622   3.268  0.2739  0.5320  2.1346
 7389TIP3   OH222130   2.432   4.598   2.034 -0.1538 -0.5415 -0.4340
 7389TIP3    H122131   2.352   4.619   2.083  0.1867  0.0263 -0.1282
 7389TIP3    H222132   2.502   4.643   2.080  0.1260  0.3265 -1.6597
 7390TIP3   OH222133   3.231   3.638   0.568 -0.4186  0.4015 -0.6566
 7390TIP3    H122134   3.147   3.593   0.560 -1.6389  2.7638 -2.8897
 7390TIP3    H222135   3.217   3.703   0.637 -0.4134  0.6838 -0.9161
 7391TIP3   OH222136   1.102   6.601   1.595 -0.6072  0.2485  0.0465
 7391TIP3    H122137   1.187   6.628   1.558 -0.5451 -1.3114 -1.0565
 7391TIP3    H222138   1.094   6.652   1.675  1.5880  0.1644  0.4059
 7392TIP3   OH222139   6.963   4.362   3.013  0.1277 -0.2671  0.2232
 7392TIP3    H122140   6.926   4.429   2.955 -0.9550  0.2348  1.4503
 7392TIP3    H222141   6.913   4.283   2.995  0.9107 -0.5830 -0.6885
 7393TIP3   OH222142   5.074   2.000   1.206 -0.3209 -0.2829  0.4083
 7393TIP3    H122143   5.027   2.048   1.137  1.0756 -0.9813 -1.0804
 7393TIP3    H222144   5.008   1.987   1.274 -2.4601 -1.5600 -1.7566
 7394TIP3   OH222145   4.833   0.735   3.297 -0.1690  0.4972 -0.3458
 7394TIP3    H122146   4.859   0.672   3.230 -1.1381  0.9839 -1.2155
 7394TIP3    H222147   4.756   0.697   3.339  0.7157 -0.0264  0.8475
 7395TIP3   OH222148   4.914   0.524   3.130 -0.5892  0.0531 -0.2898
 7395TIP3    H122149   4.908   0.449   3.189  3.9525  0.0240  0.4610
 7395TIP3    H222150   4.899   0.487   3.043 -0.2000 -1.3988  0.2305
 7396TIP3   OH222151   6.011   3.475   0.191 -0.0153 -0.5705  0.1853
 7396TIP3    H122152   6.041   3.429   0.269  1.3999 -1.2140 -0.7045
 7396TIP3    H222153   6.070   3.446   0.121 -2.6510 -1.8694 -1.6823
 7397TIP3   OH222154   3.187   0.296   4.807  0.1166  0.3110  0.6150
 7397TIP3    H122155   3.116   0.262   4.753  1.2292 -0.3545 -0.4835
 7397TIP3    H222156   3.227   0.364   4.752  2.3288 -1.5217 -0.2122
 7398TIP3   OH222157   1.942   0.302   4.946 -0.4044  0.2779  0.2049
 7398TIP3    H122158   1.978   0.345   5.023 -1.7492 -1.1627  1.7306
 7398TIP3    H222159   2.009   0.312   4.878  1.8584 -0.3429  2.2136
 7399TIP3   OH222160   2.850   2.606   1.106  0.4351 -0.1079  0.4439
 7399TIP3    H122161   2.806   2.686   1.135  0.8048  0.3837 -0.3187
 7399TIP3    H222162   2.779   2.543   1.093  0.0293  0.4118  0.0740
 7400TIP3   OH222163   5.585   1.419   5.797 -0.1741 -0.3702 -0.0887
 7400TIP3    H122164   5.521   1.400   5.729 -1.2244  2.0679  0.1267
 7400TIP3    H222165   5.551   1.375   5.875  0.3108 -2.0151 -0.7690
 7401TIP3   OH222166   1.459   5.624   2.579  0.4858  0.4080  0.2527
 7401TIP3    H122167   1.481   5.546   2.630 -2.5534 -0.4979  0.3129
 7401TIP3    H222168   1.388   5.665   2.627 -0.1788  1.4147 -1.5103
 7402TIP3   OH222169   1.465   2.514   0.356 -0.1257  0.7319  0.3254
 7402TIP3    H122170   1.371   2.510   0.336 -0.1538  1.5316  0.2342
 7402TIP3    H222171   1.503   2.558   0.280  0.6234 -1.2735 -0.5258
 7403TIP3   OH222172   3.193   1.168   4.843  0.2351  0.6299  0.1262
 7403TIP3    H122173   3.226   1.234   4.904 -0.6916  0.4495  0.8528
 7403TIP3    H222174   3.134   1.216   4.785  1.7609  0.9689 -1.2278
 7404TIP3   OH222175   2.911   1.315   4.879 -0.5076  0.6917  0.1627
 7404TIP3    H122176   2.864   1.349   4.955 -1.1995  1.2537 -0.5016
 7404TIP3    H222177   2.967   1.387   4.851  2.3503 -0.5715  2.1191
 7405TIP3   OH222178   1.637   6.001   0.376 -0.8581  0.3385 -0.2735
 7405TIP3    H122179   1.684   6.008   0.293 -0.6983  1.0772 -0.1287
 7405TIP3    H222180   1.637   5.908   0.396  1.1315  0.3788  0.0684
 7406TIP3   OH222181   1.533   1.032   4.501  0.4969 -0.2699 -0.1860
 7406TIP3    H122182   1.538   0.948   4.547  0.0877 -0.3086 -0.2106
 7406TIP3    H222183   1.517   1.007   4.410  1.8709 -0.2170 -0.4606
 7407TIP3   OH222184   0.942   4.834   2.123  0.4649 -0.6058  0.2316
 7407TIP3    H122185   1.020   4.827   2.068 -0.2359  0.5472 -0.9672
 7407TIP3    H222186   0.911   4.923   2.110 -1.4949 -1.2589  0.0655
 7408TIP3   OH222187   3.339   3.015   0.663 -0.1611 -0.0597  0.0375
 7408TIP3    H122188   3.373   2.932   0.629 -1.1625 -0.2175 -0.6374
 7408TIP3    H222189   3.276   2.989   0.730  0.6088  0.2117  0.8799
 7409TIP3   OH222190   5.222   3.841   2.883  0.1048  0.0016  0.0470
 7409TIP3    H122191   5.209   3.886   2.966 -0.2583  2.1628 -1.0926
 7409TIP3    H222192   5.164   3.888   2.822  0.8836 -1.0572 -1.5647
 7410TIP3   OH222193   6.069   5.001   2.599 -0.0398  0.1514 -0.0163
 7410TIP3    H122194   6.040   5.038   2.682 -0.0798 -0.3604  0.2049
 7410TIP3    H222195   6.009   5.036   2.534  1.1506  2.1221 -0.1525
 7411TIP3   OH222196   3.410   1.827   3.740 -0.2903 -0.0841  0.1316
 7411TIP3    H122197   3.398   1.906   3.793 -0.6121  0.9725 -1.4564
 7411TIP3    H222198   3.344   1.766   3.773  0.0123  0.2485  1.4326
 7412TIP3   OH222199   3.733   1.954   4.974 -0.7856 -0.0426  0.2142
 7412TIP3    H122200   3.743   1.859   4.969  0.0767 -0.1053  2.0728
 7412TIP3    H222201   3.718   1.971   5.067 -1.0227  1.6397 -0.0975
 7413TIP3   OH222202   7.213   6.038   4.988  0.3056  0.4187 -0.0499
 7413TIP3    H122203   7.121   6.011   5.000 -0.1709  1.4189 -1.1962
 7413TIP3    H222204   7.219   6.058   4.894  1.2975  1.8185  0.2933
 7414TIP3   OH222205   1.067   1.063   0.776 -0.6483  0.5401 -0.4448
 7414TIP3    H122206   1.161   1.075   0.785 -0.6415  0.2155 -0.0421
 7414TIP3    H222207   1.046   0.991   0.835 -1.3507  1.4450  0.4505
 7415TIP3   OH222208   3.141   5.681   0.442 -0.4495 -0.5870 -0.2167
 7415TIP3    H122209   3.153   5.671   0.536 -1.8101 -1.2949 -0.0897
 7415TIP3    H222210   3.057   5.727   0.433 -0.8134 -1.3630 -1.0785
 7416TIP3   OH222211   1.357   4.783   4.954  0.2719  0.4165 -0.8306
 7416TIP3    H122212   1.318   4.744   4.875  1.6879 -1.1540 -0.7931
 7416TIP3    H222213   1.417   4.849   4.920 -0.3905  0.9596 -0.9786
 7417TIP3   OH222214   5.419   1.609   0.430  0.1943 -0.1364  0.1840
 7417TIP3    H122215   5.511   1.607   0.458  0.3151 -0.3083 -0.2131
 7417TIP3    H222216   5.423   1.591   0.336 -0.0995  1.6633 -0.2114
 7418TIP3   OH222217   4.903   0.623   2.135  0.2030  0.3072 -0.1394
 7418TIP3    H122218   4.966   0.684   2.171  0.3239 -0.0335  0.2289
 7418TIP3    H222219   4.822   0.674   2.127  0.2933  0.5062  0.1996
 7419TIP3   OH222220   4.122   3.363   4.529  0.0617 -0.0739  0.4512
 7419TIP3    H122221   4.217   3.377   4.535  0.2672 -0.7173 -1.0535
 7419TIP3    H222222   4.088   3.443   4.488  0.0977 -0.2901 -0.0044
 7420TIP3   OH222223   0.966   2.371   5.259  0.1967 -0.0269  0.6678
 7420TIP3    H122224   0.923   2.428   5.194 -0.3327 -1.1077  0.0380
 7420TIP3    H222225   1.043   2.420   5.287 -1.1118  1.7038  1.3669
 7421TIP3   OH222226   3.897   6.728   3.284  0.3209  0.7300 -0.3054
 7421TIP3    H122227   3.824   6.747   3.226 -0.5597 -0.9210  0.2134
 7421TIP3    H222228   3.875   6.645   3.326  2.4338  0.2288 -0.0369
 7422TIP3   OH222229   0.609   0.738   4.180  0.4207 -0.6701 -0.4950
 7422TIP3    H122230   0.689   0.751   4.231  0.1652 -2.1115  0.3192
 7422TIP3    H222231   0.542   0.721   4.246 -0.3500 -0.5152 -1.2214
 7423TIP3   OH222232   0.391   4.712   2.160  0.3366 -0.2423 -0.0157
 7423TIP3    H122233   0.452   4.749   2.096 -0.3985 -0.8494 -1.1004
 7423TIP3    H222234   0.319   4.776   2.164  1.1385  0.6233  1.4853
 7424TIP3   OH222235   2.279   1.256   0.126 -0.0905  0.6027 -0.1472
 7424TIP3    H122236   2.320   1.342   0.125  0.7576  0.2031 -1.0119
 7424TIP3    H222237   2.300   1.220   0.212  0.4032  0.8615 -0.1570
 7425TIP3   OH222238   4.532   1.566   4.146  0.8933  0.2018  0.9477
 7425TIP3    H122239   4.514   1.475   4.126  0.4779  0.1788  1.4128
 7425TIP3    H222240   4.532   1.610   4.061 -3.4970  0.6171  0.9686
 7426TIP3   OH222241   6.688   5.756   4.271 -0.2802  0.2978  0.2688
 7426TIP3    H122242   6.713   5.788   4.185 -1.0687  0.2871  0.0252
 7426TIP3    H222243   6.656   5.667   4.255 -2.5251  1.0586  0.1970
 7427TIP3   OH222244   7.017   4.681   1.668  0.3997 -0.0435  0.1641
 7427TIP3    H122245   7.016   4.589   1.641 -0.4305 -0.1273  0.4569
 7427TIP3    H222246   7.028   4.730   1.587 -1.6489 -0.3022 -0.3192
 7428TIP3   OH222247   0.904   5.571   4.905  0.1677  0.4468  0.1861
 7428TIP3    H122248   0.856   5.581   4.822  1.1928  0.5408 -0.4033
 7428TIP3    H222249   0.929   5.478   4.907 -0.7723  0.1923  0.9155
 7429TIP3   OH222250   3.538   2.206   0.537  0.2099 -0.3769 -0.0332
 7429TIP3    H122251   3.616   2.245   0.577  0.9744 -2.5030  0.6883
 7429TIP3    H222252   3.561   2.197   0.445 -0.0559  0.9914 -0.2543
 7430TIP3   OH222253   1.681   6.041   4.403 -0.1466 -0.3734 -0.6519
 7430TIP3    H122254   1.727   5.957   4.409 -0.4171 -0.4234  1.7438
 7430TIP3    H222255   1.607   6.032   4.464 -1.0260  1.1023 -1.4450
 7431TIP3   OH222256   1.175   0.100   5.853  0.2583  0.1685 -0.4135
 7431TIP3    H122257   1.171   0.196   5.859  0.3000  0.2108 -1.0075
 7431TIP3    H222258   1.083   0.073   5.853  0.2090  0.3014 -1.5528
 7432TIP3   OH222259   4.406   6.535   5.248  0.0536 -0.0609 -0.3707
 7432TIP3    H122260   4.492   6.563   5.279  0.7775 -0.5730 -1.8097
 7432TIP3    H222261   4.413   6.440   5.239 -0.1497  0.0446 -1.9241
 7433TIP3   OH222262   3.203   0.609   4.393 -0.4605 -0.0459 -0.4777
 7433TIP3    H122263   3.224   0.523   4.355 -0.6460 -0.3839  0.1630
 7433TIP3    H222264   3.286   0.657   4.390  0.8373 -1.6744  2.8385
 7434TIP3   OH222265   4.200   0.944   0.440 -0.3429  0.6786 -0.3710
 7434TIP3    H122266   4.142   0.898   0.380 -2.7604  1.2307  1.4079
 7434TIP3    H222267   4.161   1.031   0.451  1.8347  1.7503 -0.4375
 7435TIP3   OH222268   6.519   5.608   5.143 -0.1083  0.2490 -0.1664
 7435TIP3    H122269   6.551   5.542   5.082  0.8970  0.9204 -0.3805
 7435TIP3    H222270   6.557   5.690   5.113 -0.1853  0.7070  0.9357
 7436TIP3   OH222271   2.835   6.023   5.578 -0.4093 -0.0251  0.3936
 7436TIP3    H122272   2.814   5.992   5.491 -0.1160  0.4627  0.1419
 7436TIP3    H222273   2.871   5.947   5.623 -2.0690 -0.7139  0.6328
 7437TIP3   OH222274   0.846   1.158   0.298  0.0262  0.6939  0.3828
 7437TIP3    H122275   0.815   1.222   0.362  0.1309  0.5609  0.5675
 7437TIP3    H222276   0.866   1.080   0.350 -1.9396 -0.1617 -0.0538
 7438TIP3   OH222277   2.014   3.485   3.645  0.6896 -0.1467  0.5096
 7438TIP3    H122278   2.016   3.565   3.593  1.1866 -0.6153 -0.2195
 7438TIP3    H222279   1.944   3.498   3.708  1.4228  1.2720  1.0635
 7439TIP3   OH222280   0.165   6.582   3.438  0.0296 -0.0457 -0.0906
 7439TIP3    H122281   0.179   6.603   3.345  1.2837  0.3386  0.1624
 7439TIP3    H222282   0.179   6.665   3.483  0.3369 -0.4212  0.5153
 7440TIP3   OH222283   2.829   0.776   1.083  0.0780  0.0015  0.4444
 7440TIP3    H122284   2.872   0.862   1.087 -0.7405  0.5199 -1.0926
 7440TIP3    H222285   2.901   0.713   1.079  0.6946  0.7057  0.1700
 7441TIP3   OH222286   4.767   0.925   3.683 -0.5233  0.6194 -0.2945
 7441TIP3    H122287   4.745   0.945   3.593 -1.2668 -0.2282 -0.3226
 7441TIP3    H222288   4.859   0.901   3.681 -1.1119 -1.9275 -1.3372
 7442TIP3   OH222289   3.444   2.387   3.459 -0.3620  0.1428 -0.9746
 7442TIP3    H122290   3.526   2.431   3.476 -0.3709 -0.1888 -0.0356
 7442TIP3    H222291   3.450   2.305   3.508 -1.6218  0.5374 -0.1078
 7443TIP3   OH222292   3.750   0.701   2.783  0.2479  0.4906 -0.1301
 7443TIP3    H122293   3.661   0.734   2.771  0.0960  0.0827 -0.1470
 7443TIP3    H222294   3.738   0.612   2.815  0.6453 -0.1188 -1.5962
 7444TIP3   OH222295   2.548   5.429   2.620  0.0378 -0.3408  0.8178
 7444TIP3    H122296   2.516   5.339   2.619 -0.1443 -0.2765 -0.4045
 7444TIP3    H222297   2.498   5.473   2.551 -0.4836  0.9127  1.9397
 7445TIP3   OH222298   5.164   6.022   2.454  0.1200  0.6152  0.5119
 7445TIP3    H122299   5.226   6.002   2.525  0.6768 -1.3933 -0.4682
 7445TIP3    H222300   5.175   6.115   2.438  1.1702  0.7714  1.9720
 7446TIP3   OH222301   5.970   1.342   1.028  0.4787 -0.0898 -0.4939
 7446TIP3    H122302   5.923   1.338   1.111  1.8868  0.3513  0.3655
 7446TIP3    H222303   6.051   1.292   1.044  0.6036 -0.3089 -1.7167
 7447TIP3   OH222304   6.468   3.552   3.979  0.6758  0.2241  0.0896
 7447TIP3    H122305   6.405   3.480   3.982 -1.0747  1.6748 -0.2968
 7447TIP3    H222306   6.552   3.509   3.960 -0.1920 -1.7475  0.4257
 7448TIP3   OH222307   4.781   2.860   4.053  0.2840 -0.4218 -0.1053
 7448TIP3    H122308   4.859   2.838   4.003 -0.8908 -0.1795 -2.1796
 7448TIP3    H222309   4.715   2.797   4.024 -0.5263 -0.0947  0.9455
 7449TIP3   OH222310   0.286   1.507   4.335 -0.3955 -0.3745  0.4386
 7449TIP3    H122311   0.225   1.494   4.262  0.7429  2.8045 -1.2774
 7449TIP3    H222312   0.373   1.504   4.295  0.3214  0.2057  1.8779
 7450TIP3   OH222313   1.623   2.892   4.687 -0.0795  0.2457  0.2073
 7450TIP3    H122314   1.578   2.975   4.675 -0.2823  0.4805  2.2550
 7450TIP3    H222315   1.713   2.909   4.658 -0.1091  1.1986  0.6489
 7451TIP3   OH222316   0.080   0.450   5.009  0.1589  0.4076 -0.2195
 7451TIP3    H122317   0.039   0.514   5.068 -1.5994  0.0672 -1.0088
 7451TIP3    H222318   0.147   0.408   5.062  0.2168  1.7443  0.8161
 7452TIP3   OH222319   5.749   3.624   1.983 -0.2752 -0.2569  0.2713
 7452TIP3    H122320   5.699   3.687   2.036 -1.5829 -1.2645  0.3041
 7452TIP3    H222321   5.821   3.597   2.040  0.5838  1.5050  0.0971
 7453TIP3   OH222322   6.786   5.213   0.165 -0.1688  0.8437  0.5649
 7453TIP3    H122323   6.819   5.137   0.213 -0.5102 -0.6878 -1.4567
 7453TIP3    H222324   6.858   5.235   0.105 -1.6038 -0.8061 -1.9703
 7454TIP3   OH222325   6.865   4.652   0.767 -0.1575 -0.0927 -0.2709
 7454TIP3    H122326   6.919   4.718   0.723 -1.3515  0.8980 -0.3108
 7454TIP3    H222327   6.872   4.675   0.860 -1.5346  0.8686 -0.3829
 7455TIP3   OH222328   3.735   3.554   3.903 -0.1813  0.3379 -0.2728
 7455TIP3    H122329   3.823   3.530   3.931 -0.7368  0.5093  1.8557
 7455TIP3    H222330   3.677   3.501   3.958 -1.4169  0.0450 -1.7973
 7456TIP3   OH222331   5.386   5.024   0.886 -0.2760 -0.5234  0.3978
 7456TIP3    H122332   5.374   4.936   0.922  0.8516 -1.0529 -0.4881
 7456TIP3    H222333   5.456   5.015   0.822 -0.2074  1.0112  0.2235
 7457TIP3   OH222334   3.627   6.746   4.256 -0.3685  0.2428 -0.2919
 7457TIP3    H122335   3.701   6.726   4.199 -0.2294 -0.6584  0.1913
 7457TIP3    H222336   3.667   6.762   4.342 -0.8199 -1.6694  0.3127
 7458TIP3   OH222337   0.433   1.331   5.665 -1.1178 -0.6209 -0.4374
 7458TIP3    H122338   0.475   1.247   5.646  0.3288 -0.2547  0.9193
 7458TIP3    H222339   0.501   1.382   5.709 -1.8684  1.4017 -1.5190
 7459TIP3   OH222340   4.726   4.322   1.463 -0.0704 -0.0830  0.3483
 7459TIP3    H122341   4.813   4.317   1.424 -0.0971  1.1353  0.0849
 7459TIP3    H222342   4.687   4.237   1.446  0.0880  0.2387 -1.9114
 7460TIP3   OH222343   3.345   4.448   1.899 -0.4035  0.3115  0.3221
 7460TIP3    H122344   3.388   4.461   1.984  0.5125  2.6940 -0.4176
 7460TIP3    H222345   3.404   4.489   1.836 -2.4910  1.3167 -1.0765
 7461TIP3   OH222346   3.357   4.459   4.573  0.0239  0.7201 -0.4451
 7461TIP3    H122347   3.332   4.542   4.533  0.1586  0.9636 -0.0295
 7461TIP3    H222348   3.428   4.426   4.518 -0.6574  0.4194 -1.1550
 7462TIP3   OH222349   6.852   6.143   0.667 -0.3005 -0.5786  0.4266
 7462TIP3    H122350   6.847   6.056   0.627  0.3122 -0.3309 -0.1974
 7462TIP3    H222351   6.938   6.145   0.709 -0.6542 -0.5758  1.1656
 7463TIP3   OH222352   0.264   2.039   3.727  0.0219 -0.1850  0.6223
 7463TIP3    H122353   0.335   1.981   3.697 -1.3952 -2.0985  0.7735
 7463TIP3    H222354   0.263   2.027   3.822  0.7101  1.3385  0.8460
 7464TIP3   OH222355   5.575   1.327   0.389  0.4410  0.1369 -0.1489
 7464TIP3    H122356   5.607   1.344   0.477  1.0975  1.8892 -0.6719
 7464TIP3    H222357   5.486   1.294   0.402  0.1846  1.2362  1.1623
 7465TIP3   OH222358   6.417   1.282   5.179  0.0520  0.0228  0.0796
 7465TIP3    H122359   6.508   1.254   5.173  0.1671  0.4322 -0.1074
 7465TIP3    H222360   6.418   1.353   5.243 -0.3373 -0.8093  1.0334
 7466TIP3   OH222361   3.276   1.211   5.733 -0.0188  0.2384  0.3199
 7466TIP3    H122362   3.295   1.304   5.740 -1.4579  0.5503  0.3983
 7466TIP3    H222363   3.184   1.203   5.759 -0.1343 -1.0988 -0.3909
 7467TIP3   OH222364   5.736   6.447   2.323  0.0326  0.3676 -0.4147
 7467TIP3    H122365   5.668   6.514   2.315  0.3018  0.9669  1.6654
 7467TIP3    H222366   5.694   6.377   2.374  0.0694 -0.6445 -1.7165
 7468TIP3   OH222367   2.632   3.729   2.083 -0.4995 -0.2675 -0.0295
 7468TIP3    H122368   2.610   3.707   1.993  0.5027 -1.1466 -0.0858
 7468TIP3    H222369   2.668   3.648   2.119  0.0764  0.3524  0.8361
 7469TIP3   OH222370   6.407   0.910   3.582 -0.0496  0.0703 -0.3471
 7469TIP3    H122371   6.452   0.895   3.666  0.2791 -0.1436 -0.5608
 7469TIP3    H222372   6.326   0.860   3.590  0.1974 -0.3332 -0.3362
 7470TIP3   OH222373   0.206   6.197   5.141  0.2567  0.0012  0.4808
 7470TIP3    H122374   0.138   6.164   5.083 -0.6790  0.9417  1.0061
 7470TIP3    H222375   0.203   6.140   5.218 -0.2963  0.3445  0.7196
 7471TIP3   OH222376   1.497   2.072   4.068 -0.3248  0.4013  0.0216
 7471TIP3    H122377   1.505   1.998   4.007 -0.3362 -0.2828  0.8405
 7471TIP3    H222378   1.422   2.122   4.035 -1.9291 -1.3187  0.8805
 7472TIP3   OH222379   3.139   2.304   3.446  0.4975 -0.7275  0.0286
 7472TIP3    H122380   3.113   2.217   3.415  1.1474 -1.1923  0.7353
 7472TIP3    H222381   3.229   2.315   3.414  0.1766 -0.0078 -0.6558
 7473TIP3   OH222382   5.205   3.706   0.445  0.1313  0.3753  0.5924
 7473TIP3    H122383   5.301   3.702   0.445  0.1454  0.4758 -0.2531
 7473TIP3    H222384   5.183   3.740   0.358 -0.7260 -1.0952  0.2073
 7474TIP3   OH222385   3.638   0.296   3.713 -0.2757 -0.2272 -0.0219
 7474TIP3    H122386   3.635   0.212   3.758 -1.9924  0.1416  0.6499
 7474TIP3    H222387   3.550   0.305   3.674  0.3435  0.6144 -1.3079
 7475TIP3   OH222388   6.974   1.825   1.689 -0.7963 -0.4124 -0.6411
 7475TIP3    H122389   7.042   1.879   1.648 -2.2655  2.6611  0.6451
 7475TIP3    H222390   7.021   1.751   1.726  1.6777  0.9463 -0.8557
 7476TIP3   OH222391   6.996   4.279   4.117 -0.2841 -0.4747  0.0886
 7476TIP3    H122392   7.003   4.227   4.197  1.2900  1.1568  1.0977
 7476TIP3    H222393   6.927   4.236   4.066 -0.9088 -1.9280  2.0313
 7477TIP3   OH222394   0.374   4.134   3.119 -0.2465  0.0771 -0.1633
 7477TIP3    H122395   0.396   4.147   3.211  2.5233 -1.0603 -0.5622
 7477TIP3    H222396   0.454   4.158   3.072 -1.0016 -1.0218 -2.1176
 7478TIP3   OH222397   2.892   0.573   2.234 -0.2205 -0.0638  0.5519
 7478TIP3    H122398   2.939   0.638   2.287 -0.2067  1.1806 -0.9058
 7478TIP3    H222399   2.886   0.614   2.148 -1.1175 -1.6052 -0.1406
 7479TIP3   OH222400   4.928   5.896   2.417  0.4729 -0.0459 -0.0189
 7479TIP3    H122401   4.864   5.965   2.402 -1.5506 -1.1726  2.6018
 7479TIP3    H222402   5.011   5.942   2.431 -0.5953  1.7961  0.5114
 7480TIP3   OH222403   1.585   3.513   4.329 -0.3978 -0.2131  0.0157
 7480TIP3    H122404   1.493   3.529   4.307 -0.3112  0.5191  0.1498
 7480TIP3    H222405   1.626   3.599   4.321  0.1602 -0.4318  0.5039
 7481TIP3   OH222406   3.753   3.873   1.263  0.2539  0.4831 -0.0244
 7481TIP3    H122407   3.728   3.914   1.180 -0.2590 -0.9728 -0.6446
 7481TIP3    H222408   3.748   3.943   1.327  2.7966  2.2035 -1.5287
 7482TIP3   OH222409   6.788   0.848   4.553  0.5706  0.1144  0.4474
 7482TIP3    H122410   6.861   0.802   4.512  0.3692 -0.3907  0.6468
 7482TIP3    H222411   6.752   0.904   4.484 -1.2421 -2.4278 -0.7942
 7483TIP3   OH222412   5.701   5.810   3.293  0.2950  0.0106  0.0605
 7483TIP3    H122413   5.649   5.732   3.313 -0.9194  0.4292 -1.3375
 7483TIP3    H222414   5.757   5.784   3.220 -2.6580  1.3339 -2.9274
 7484TIP3   OH222415   2.971   4.088   3.198 -0.0563 -0.1598  0.0515
 7484TIP3    H122416   3.032   4.152   3.160 -0.2468 -0.6621 -1.1444
 7484TIP3    H222417   2.907   4.140   3.245  1.6264  0.3660  1.9016
 7485TIP3   OH222418   0.604   0.162   4.605 -0.8988 -0.4070  0.0462
 7485TIP3    H122419   0.570   0.225   4.669 -1.1363 -1.7335  1.2714
 7485TIP3    H222420   0.577   0.198   4.520 -0.9221  1.1932  0.6903
 7486TIP3   OH222421   4.796   2.173   1.319 -0.1555 -0.2680  0.5305
 7486TIP3    H122422   4.836   2.235   1.381 -1.8657  0.9755  0.4630
 7486TIP3    H222423   4.809   2.088   1.359  0.2454  0.3489  1.7680
 7487TIP3   OH222424   0.554   1.372   4.720 -0.6853  0.3466 -0.2356
 7487TIP3    H122425   0.584   1.430   4.790 -1.1983 -0.4944  0.6988
 7487TIP3    H222426   0.460   1.392   4.712 -0.7292  0.0937 -0.3481
 7488TIP3   OH222427   4.230   4.282   3.263  0.8286  0.2442 -0.8643
 7488TIP3    H122428   4.148   4.331   3.266  0.3909 -0.4853 -0.5554
 7488TIP3    H222429   4.220   4.222   3.189  0.3770 -1.0108  0.1673
 7489TIP3   OH222430   0.767   4.100   5.245 -0.0873 -0.2639 -0.0459
 7489TIP3    H122431   0.787   4.131   5.333 -0.5674  0.2147 -0.0954
 7489TIP3    H222432   0.814   4.160   5.187 -1.5793  0.8634 -0.1623
 7490TIP3   OH222433   2.579   3.428   4.532 -0.2367  0.1300  0.2685
 7490TIP3    H122434   2.518   3.461   4.597 -0.7001  0.4590 -0.3275
 7490TIP3    H222435   2.595   3.502   4.473 -0.1714 -0.2875 -0.2486
 7491TIP3   OH222436   6.662   4.322   3.297  0.1987  0.0155 -0.2567
 7491TIP3    H122437   6.614   4.250   3.255  0.5149 -0.4184  0.1116
 7491TIP3    H222438   6.616   4.336   3.380  0.6294 -0.3301  0.0499
 7492TIP3   OH222439   5.600   0.230   0.704 -0.2468  0.0636 -0.0174
 7492TIP3    H122440   5.593   0.146   0.749 -0.1450  0.5542  0.9319
 7492TIP3    H222441   5.678   0.221   0.649 -0.0514 -0.3513  0.3232
 7493TIP3   OH222442   6.100   5.515   5.453  0.0751  0.0357 -0.1556
 7493TIP3    H122443   6.172   5.513   5.391  1.0216  0.5370  0.9020
 7493TIP3    H222444   6.131   5.570   5.525 -0.8863 -0.7204  0.8784
 7494TIP3   OH222445   3.165   3.066   5.493 -0.1398  0.1918 -0.1972
 7494TIP3    H122446   3.168   3.128   5.420  1.2216  1.6806  1.0736
 7494TIP3    H222447   3.076   3.073   5.527 -0.9932 -0.9720 -2.0368
 7495TIP3   OH222448   6.220   0.230   0.548  0.1718  0.5481 -0.2491
 7495TIP3    H122449   6.155   0.283   0.594 -0.4733  0.4015 -0.9758
 7495TIP3    H222450   6.222   0.266   0.459  1.9217  1.2937  0.0365
 7496TIP3   OH222451   5.388   2.169   3.425 -0.0010 -0.0149 -0.6777
 7496TIP3    H122452   5.424   2.104   3.486 -0.5313 -0.7616 -1.1463
 7496TIP3    H222453   5.436   2.250   3.446  0.2141 -0.3848  0.3533
 7497TIP3   OH222454   0.664   6.204   2.454  0.0009  0.4860  0.9928
 7497TIP3    H122455   0.582   6.251   2.473  0.0729  1.0295  0.0016
 7497TIP3    H222456   0.692   6.170   2.539 -1.5501 -0.2055  1.2658
 7498TIP3   OH222457   5.580   0.044   2.105 -0.4216  0.5179 -0.3130
 7498TIP3    H122458   5.584   0.114   2.170 -2.6092  1.5069 -1.1449
 7498TIP3    H222459   5.524   0.079   2.036 -0.9456 -1.7668 -1.1303
 7499TIP3   OH222460   0.420   3.752   5.515  0.2245  0.5384  0.0609
 7499TIP3    H122461   0.390   3.762   5.425  2.9668  0.4228 -0.9532
 7499TIP3    H222462   0.504   3.797   5.517  1.4200 -1.5892  1.8821
 7500TIP3   OH222463   6.852   4.993   5.394 -0.3150  0.2159 -0.3827
 7500TIP3    H122464   6.889   4.946   5.320 -1.9728 -0.0610 -1.0951
 7500TIP3    H222465   6.845   5.083   5.364  1.6885  0.7070  0.5225
 7501TIP3   OH222466   4.890   3.959   4.795 -0.0177 -0.0834  0.0625
 7501TIP3    H122467   4.983   3.944   4.777 -0.7219 -2.1213 -2.5863
 7501TIP3    H222468   4.867   4.034   4.740 -0.3856 -1.0483 -1.1422
 7502TIP3   OH222469   6.033   3.597   2.498  0.3948 -0.0259  0.2888
 7502TIP3    H122470   6.107   3.658   2.493  1.2355 -1.0902 -2.8170
 7502TIP3    H222471   6.072   3.514   2.524  0.1696 -0.3818 -0.4766
 7503TIP3   OH222472   6.937   3.271   5.638  0.2219  0.2723  0.5154
 7503TIP3    H122473   6.914   3.220   5.716 -2.9221 -0.4904 -0.7848
 7503TIP3    H222474   7.016   3.229   5.605 -0.9658 -2.3485  0.7842
 7504TIP3   OH222475   3.792   1.365   2.238 -0.8311  0.1685  0.3089
 7504TIP3    H122476   3.792   1.274   2.209 -1.9351 -0.2714  1.5556
 7504TIP3    H222477   3.820   1.415   2.162 -0.7679 -1.1644 -0.5721
 7505TIP3   OH222478   4.166   4.729   3.837  0.1225  0.1506  0.2677
 7505TIP3    H122479   4.239   4.668   3.824 -0.1731  0.1432 -1.6089
 7505TIP3    H222480   4.159   4.776   3.754 -1.1361  1.1294  0.8970
 7506TIP3   OH222481   3.097   3.539   4.367 -0.0723 -0.5979 -0.1500
 7506TIP3    H122482   3.039   3.569   4.296  0.0958 -0.7032 -0.3333
 7506TIP3    H222483   3.169   3.495   4.322  0.8760  0.7351 -0.0180
 7507TIP3   OH222484   4.754   6.129   4.985  0.4732  0.3262  0.3467
 7507TIP3    H122485   4.689   6.074   5.028  0.6795  0.5573  0.9620
 7507TIP3    H222486   4.783   6.077   4.910  1.5089 -0.9352  1.5477
 7508TIP3   OH222487   1.046   0.322   5.405 -0.0398  0.1489 -0.1463
 7508TIP3    H122488   1.053   0.255   5.337 -0.1617  2.0677 -2.1899
 7508TIP3    H222489   1.115   0.385   5.384  0.7693  0.1897  2.3502
 7509TIP3   OH222490   3.708   5.570   3.465  0.1113 -0.1289  0.2618
 7509TIP3    H122491   3.801   5.569   3.490  0.1591 -3.2953  0.3080
 7509TIP3    H222492   3.663   5.607   3.540  1.2122  0.3165  0.7295
 7510TIP3   OH222493   5.220   4.053   3.899 -0.2770 -0.1909 -0.9263
 7510TIP3    H122494   5.222   4.124   3.836 -1.2427 -0.9784 -1.8792
 7510TIP3    H222495   5.153   4.079   3.963  0.6053  0.5422 -0.2680
 7511TIP3   OH222496   6.946   0.851   0.165 -0.1922  0.1622  0.8716
 7511TIP3    H122497   6.931   0.885   0.077  0.0195  2.6049  1.7199
 7511TIP3    H222498   7.039   0.865   0.181 -0.2027 -0.3959  1.4454
 7512TIP3   OH222499   4.961   3.544   0.889 -0.2881  0.4507  0.3275
 7512TIP3    H122500   5.004   3.594   0.819 -4.0124 -0.6964 -3.2117
 7512TIP3    H222501   4.899   3.605   0.928  1.0231  0.7754  2.0079
 7513TIP3   OH222502   0.950   1.474   0.295  0.5980  0.1225 -0.2506
 7513TIP3    H122503   1.015   1.426   0.243  0.6547 -0.5670  0.4471
 7513TIP3    H222504   0.912   1.536   0.233 -0.6486 -1.9144 -1.6613
 7514TIP3   OH222505   2.874   3.343   3.514 -0.7765  0.6674 -1.0723
 7514TIP3    H122506   2.840   3.397   3.586 -0.0818 -0.7970  0.4255
 7514TIP3    H222507   2.810   3.353   3.444 -3.0574 -0.0888  0.7803
 7515TIP3   OH222508   2.538   1.065   1.878 -0.0700  0.0726  0.5913
 7515TIP3    H122509   2.515   1.103   1.962 -0.6453  1.6406 -0.2325
 7515TIP3    H222510   2.633   1.051   1.883  0.3583  2.5457  0.6231
 7516TIP3   OH222511   2.085   4.092   4.995  0.2091  0.5491 -0.3397
 7516TIP3    H122512   2.105   4.045   5.076 -0.8619  0.3318 -0.1821
 7516TIP3    H222513   2.006   4.142   5.016  0.4484  1.2067 -0.9835
 7517TIP3   OH222514   2.603   0.179   2.788 -0.6384  0.0174 -0.5457
 7517TIP3    H122515   2.511   0.168   2.764 -1.0608  2.6473 -0.3583
 7517TIP3    H222516   2.602   0.233   2.866  1.0490 -1.6545  0.7311
 7518TIP3   OH222517   3.197   0.765   5.560  0.6403  0.2653 -0.8527
 7518TIP3    H122518   3.150   0.722   5.632  1.7434  1.3911  0.6045
 7518TIP3    H222519   3.163   0.854   5.559  0.0099  0.0363 -2.3491
 7519TIP3   OH222520   5.279   6.608   0.095 -0.3865 -1.0708 -0.3570
 7519TIP3    H122521   5.221   6.625   0.021  0.6642 -0.8720 -1.1542
 7519TIP3    H222522   5.288   6.692   0.139 -2.4196 -1.5342  1.0909
 7520TIP3   OH222523   4.169   2.265   2.409 -0.0339 -0.0085 -0.1651
 7520TIP3    H122524   4.081   2.277   2.447  0.1535 -2.6953  1.3391
 7520TIP3    H222525   4.155   2.207   2.335  0.3234  0.7852 -0.8690
 7521TIP3   OH222526   5.364   1.890   2.034  0.3829 -0.5942 -0.1824
 7521TIP3    H122527   5.270   1.903   2.049  0.4283 -0.2177 -0.2045
 7521TIP3    H222528   5.369   1.816   1.973 -0.0168  0.8707 -2.0867
 7522TIP3   OH222529   4.295   4.650   0.819  0.5833 -0.3919 -0.1784
 7522TIP3    H122530   4.318   4.690   0.735  2.0235 -2.4245 -0.8175
 7522TIP3    H222531   4.371   4.666   0.875  0.6292 -1.0943 -0.0314
 7523TIP3   OH222532   1.470   2.261   5.687  0.2472  0.1869  0.8070
 7523TIP3    H122533   1.440   2.221   5.769  0.2559  0.0893  0.7623
 7523TIP3    H222534   1.425   2.346   5.684  0.8550  0.5316  1.2994
 7524TIP3   OH222535   4.090   4.722   1.137  0.8319 -0.3728 -0.2999
 7524TIP3    H122536   4.099   4.796   1.198  0.2562 -0.8879  0.4252
 7524TIP3    H222537   4.025   4.665   1.178  0.7502 -0.9436 -1.1972
 7525TIP3   OH222538   2.268   1.814   0.637  0.1466 -0.2174  0.2859
 7525TIP3    H122539   2.338   1.862   0.682  0.7891 -0.0767 -0.8487
 7525TIP3    H222540   2.298   1.806   0.547 -0.1444 -2.3960  0.3366
 7526TIP3   OH222541   6.626   1.066   4.370  0.1479 -0.1637  0.4181
 7526TIP3    H122542   6.531   1.059   4.361  0.1091  1.4260 -0.9270
 7526TIP3    H222543   6.641   1.156   4.400  1.2145 -0.6221  1.3560
 7527TIP3   OH222544   2.718   5.316   0.873 -0.1169 -0.4916 -0.3931
 7527TIP3    H122545   2.692   5.231   0.838 -0.1193 -0.6851  0.0682
 7527TIP3    H222546   2.805   5.331   0.837  1.3429 -2.2413  2.0970
 7528TIP3   OH222547   5.162   4.137   2.000  0.1967 -0.2142  0.1677
 7528TIP3    H122548   5.256   4.121   1.987  0.2937  1.9190 -2.5459
 7528TIP3    H222549   5.142   4.093   2.083  2.9239 -3.2483 -0.5668
 7529TIP3   OH222550   2.092   5.072   2.499 -0.3054  0.2473  0.2940
 7529TIP3    H122551   2.045   5.082   2.581 -1.8646 -0.6549 -0.4488
 7529TIP3    H222552   2.071   5.151   2.449 -1.1994 -0.2156 -0.0905
 7530TIP3   OH222553   5.980   5.465   3.385  0.1151 -0.7032  0.5551
 7530TIP3    H122554   5.915   5.529   3.416  0.0654 -0.7386  0.5246
 7530TIP3    H222555   6.055   5.478   3.443  0.1361 -0.5608  0.4962
 7531TIP3   OH222556   3.162   5.082   3.713 -0.2013  0.3514  0.1238
 7531TIP3    H122557   3.073   5.049   3.717  0.1532 -1.3961 -3.3364
 7531TIP3    H222558   3.212   5.023   3.770 -0.8433 -0.3153  0.0118
 7532TIP3   OH222559   0.117   1.911   0.876 -0.7168 -0.0472  0.3388
 7532TIP3    H122560   0.044   1.934   0.934 -2.2283 -0.0817 -1.4611
 7532TIP3    H222561   0.079   1.850   0.812  1.4253 -1.7633  0.5897
 7533TIP3   OH222562   2.568   1.441   1.206  0.0548 -0.2153 -0.2182
 7533TIP3    H122563   2.519   1.449   1.287  0.3650  2.5682 -0.1859
 7533TIP3    H222564   2.516   1.383   1.151 -0.6669 -1.3326  1.5818
 7534TIP3   OH222565   3.843   4.293   2.690 -0.3390 -0.6650 -0.4995
 7534TIP3    H122566   3.810   4.383   2.697  1.2088  0.0585 -1.8171
 7534TIP3    H222567   3.782   4.249   2.631 -0.8824 -0.3642 -0.1643
 7535TIP3   OH222568   3.114   4.119   0.888 -0.3038  0.2345  0.2802
 7535TIP3    H122569   3.040   4.138   0.830 -0.8505 -2.3277  0.0286
 7535TIP3    H222570   3.178   4.187   0.868 -0.9961  0.2146 -2.4026
 7536TIP3   OH222571   4.870   4.121   4.520  0.0004  0.6005 -0.2770
 7536TIP3    H122572   4.871   4.211   4.552 -0.5114 -0.4408  3.0858
 7536TIP3    H222573   4.960   4.090   4.531 -0.5242 -0.2894  2.1071
 7537TIP3   OH222574   3.903   4.517   0.507  0.3818 -0.2314 -0.1102
 7537TIP3    H122575   3.936   4.595   0.462 -0.8784  0.8699  0.8083
 7537TIP3    H222576   3.976   4.455   0.503  1.2201  0.7644 -1.3566
 7538TIP3   OH222577   1.065   3.994   5.710  0.0940  0.0795 -0.0507
 7538TIP3    H122578   0.990   3.951   5.751  0.7867 -0.2521  0.8994
 7538TIP3    H222579   1.077   3.946   5.627 -0.7498  0.1577 -0.2291
 7539TIP3   OH222580   3.649   0.896   5.852 -0.7147  0.3170  0.1566
 7539TIP3    H122581   3.574   0.946   5.818 -0.2274 -0.1920 -1.7994
 7539TIP3    H222582   3.624   0.804   5.839 -0.3280  0.1153  0.8211
 7540TIP3   OH222583   6.017   3.970   5.141  0.0163 -0.0767 -0.2678
 7540TIP3    H122584   6.079   3.898   5.143 -0.7744 -0.8127 -1.0904
 7540TIP3    H222585   5.939   3.933   5.099 -0.4602  1.2132 -0.5582
 7541TIP3   OH222586   4.399   2.779   5.241 -0.0988 -0.2619  0.3859
 7541TIP3    H122587   4.429   2.843   5.177 -1.7969 -0.2331 -0.4097
 7541TIP3    H222588   4.346   2.830   5.303  0.0749 -0.5994  0.8218
 7542TIP3   OH222589   0.895   1.447   2.369 -0.0592  0.0761 -0.1756
 7542TIP3    H122590   0.931   1.391   2.438  2.1622 -0.9062 -1.9910
 7542TIP3    H222591   0.837   1.389   2.320 -1.1383  0.5944  0.4717
 7543TIP3   OH222592   1.089   0.893   1.269 -0.0958 -0.3563 -0.8566
 7543TIP3    H122593   1.145   0.905   1.346  0.6494 -0.4186 -1.3810
 7543TIP3    H222594   1.014   0.951   1.285  1.2414  1.5805 -1.2324
 7544TIP3   OH222595   6.171   0.749   0.160 -0.0156  0.2669 -0.3920
 7544TIP3    H122596   6.121   0.696   0.098  0.3404  0.9396 -1.2797
 7544TIP3    H222597   6.114   0.756   0.237  0.7515 -3.1047  0.6585
 7545TIP3   OH222598   4.746   4.038   2.968 -0.1655 -0.1316 -0.2961
 7545TIP3    H122599   4.726   4.091   3.045  1.9139  1.7933 -0.9831
 7545TIP3    H222600   4.711   4.089   2.895  0.3229 -0.5680 -0.8389
 7546TIP3   OH222601   6.566   6.195   0.703  0.2045  0.3013 -0.5566
 7546TIP3    H122602   6.591   6.241   0.623  0.1419 -0.3954 -0.9823
 7546TIP3    H222603   6.625   6.230   0.770  2.1549 -1.0788 -1.4546
 7547TIP3   OH222604   2.376   2.182   1.665 -0.2822  0.4311 -0.0845
 7547TIP3    H122605   2.453   2.185   1.608 -0.7927  0.0647 -0.8113
 7547TIP3    H222606   2.404   2.226   1.745  1.3012 -1.3577  0.4212
 7548TIP3   OH222607   0.111   5.554   0.659  0.3031 -0.5436  0.1544
 7548TIP3    H122608   0.169   5.479   0.645  2.3574  0.7438  1.1906
 7548TIP3    H222609   0.166   5.630   0.638 -1.2960  0.7290  0.4051
 7549TIP3   OH222610   1.542   2.959   2.196 -0.2741  0.3571 -0.2676
 7549TIP3    H122611   1.451   2.974   2.223 -0.3164 -1.5430  0.8846
 7549TIP3    H222612   1.562   3.031   2.137 -1.8781  1.9378  0.9912
 7550TIP3   OH222613   5.931   3.687   3.165 -0.1514 -0.3860 -0.6531
 7550TIP3    H122614   5.966   3.605   3.128 -1.8007 -1.4260 -0.0168
 7550TIP3    H222615   5.969   3.691   3.252  0.4556 -0.1191 -0.9263
 7551TIP3   OH222616   0.134   3.187   5.201  0.0236 -0.0538 -0.4799
 7551TIP3    H122617   0.100   3.135   5.275  0.1433  0.6195  0.0593
 7551TIP3    H222618   0.188   3.254   5.243  0.2137  0.2429 -1.2002
 7552TIP3   OH222619   7.230   1.775   1.981  0.2422 -0.2870 -0.2964
 7552TIP3    H122620   7.156   1.820   2.021  0.4503 -1.1067  1.0512
 7552TIP3    H222621   7.190   1.708   1.925 -0.0435 -0.2830 -0.0982
 7553TIP3   OH222622   5.018   0.530   5.828  0.0369  0.4935  0.0010
 7553TIP3    H122623   4.994   0.619   5.856 -0.9365 -0.0612  1.0557
 7553TIP3    H222624   4.946   0.503   5.771 -0.9955 -0.4995  1.6831
 7554TIP3   OH222625   7.016   4.882   5.204 -0.4089  0.2306  0.1403
 7554TIP3    H122626   7.046   4.930   5.127  1.4490 -0.0476  0.6468
 7554TIP3    H222627   7.074   4.807   5.210 -0.4504  0.2937  1.8690
 7555TIP3   OH222628   0.841   2.090   2.409 -0.0089  0.6854 -0.0272
 7555TIP3    H122629   0.824   2.181   2.383 -1.1468  0.6767  0.6555
 7555TIP3    H222630   0.779   2.073   2.479  0.6154 -0.4367  0.2729
 7556TIP3   OH222631   2.950   2.344   3.846  0.0853 -0.5025 -0.3290
 7556TIP3    H122632   2.903   2.352   3.763  0.0662 -0.4632 -0.3138
 7556TIP3    H222633   2.920   2.261   3.883  1.0303 -1.1479 -0.9679
 7557TIP3   OH222634   2.192   1.255   5.508  0.4377 -0.2029 -0.6606
 7557TIP3    H122635   2.182   1.259   5.603  0.3162  1.6426 -0.7009
 7557TIP3    H222636   2.102   1.253   5.474  0.4651 -0.0646 -0.7434
 7558TIP3   OH222637   3.294   0.538   1.556 -0.0502  0.1942  0.3556
 7558TIP3    H122638   3.385   0.510   1.551  0.4532  1.9749 -1.3211
 7558TIP3    H222639   3.298   0.634   1.554 -2.0039  0.2932 -0.7753
 7559TIP3   OH222640   1.500   3.935   5.078 -0.1440 -0.5915  0.5087
 7559TIP3    H122641   1.575   3.878   5.066  0.0207 -0.1884 -0.4523
 7559TIP3    H222642   1.512   4.005   5.013  0.6706  1.6249  2.8735
 7560TIP3   OH222643   0.380   4.532   3.302 -0.0555  0.2479  0.3622
 7560TIP3    H122644   0.383   4.527   3.397 -0.2049  0.3494  0.3730
 7560TIP3    H222645   0.444   4.599   3.279  0.3273 -0.1165  0.3604
 7561TIP3   OH222646   5.981   3.441   4.520  0.2927  0.1427 -0.0972
 7561TIP3    H122647   5.896   3.407   4.547  0.2782  0.5248  0.3640
 7561TIP3    H222648   6.025   3.461   4.602  0.0514  1.8207 -0.3359
 7562TIP3   OH222649   3.814   1.940   3.728  0.0569 -0.5992  0.3615
 7562TIP3    H122650   3.754   1.883   3.679 -3.7104  2.0526  1.3908
 7562TIP3    H222651   3.802   1.913   3.819  1.5288 -0.8887  0.4812
 7563TIP3   OH222652   4.107   1.475   1.614  0.6213 -0.4410  0.0769
 7563TIP3    H122653   4.044   1.509   1.551 -0.3932 -0.5801  0.9778
 7563TIP3    H222654   4.174   1.432   1.561  0.0547 -0.1320 -0.9110
 7564TIP3   OH222655   4.424   5.904   0.554  0.1577 -0.0444  0.0888
 7564TIP3    H122656   4.389   5.848   0.485  0.8340  0.7632 -0.9499
 7564TIP3    H222657   4.501   5.944   0.515 -0.3917  1.7284  0.7122
 7565TIP3   OH222658   4.112   6.681   4.612  0.0261  0.1976  0.3756
 7565TIP3    H122659   4.146   6.592   4.619  2.6658  1.1912  1.5068
 7565TIP3    H222660   4.133   6.722   4.696  0.6361  2.4028 -0.7530
 7566TIP3   OH222661   5.335   2.660   0.626  0.0973  0.0304 -0.2055
 7566TIP3    H122662   5.379   2.727   0.679  0.4733 -0.6116  0.3026
 7566TIP3    H222663   5.400   2.634   0.560  0.0702 -0.0755 -0.1905
 7567TIP3   OH222664   1.215   1.611   0.327 -0.1321 -0.3350  0.4583
 7567TIP3    H122665   1.245   1.699   0.350 -1.2857  0.2054 -0.0242
 7567TIP3    H222666   1.120   1.614   0.339 -0.1352 -1.6885  0.9719
 7568TIP3   OH222667   7.059   3.784   1.652  0.2523  0.6537  0.0900
 7568TIP3    H122668   7.073   3.694   1.683  0.4639  1.0402  1.1598
 7568TIP3    H222669   7.015   3.773   1.568 -1.2768 -0.4395  0.9611
 7569TIP3   OH222670   5.110   2.366   3.879  0.9318  0.0270 -0.5772
 7569TIP3    H122671   5.119   2.426   3.805 -2.0020 -0.6869 -1.6252
 7569TIP3    H222672   5.138   2.281   3.844  2.2541  0.1974  0.0236
 7570TIP3   OH222673   4.863   5.722   2.078  0.1057  0.1233  0.2162
 7570TIP3    H122674   4.906   5.666   2.142  2.2931 -1.8228 -2.6704
 7570TIP3    H222675   4.817   5.661   2.021 -1.3144  1.7170 -0.4185
 7571TIP3   OH222676   1.869   3.180   2.553  0.6337  0.4229 -0.2156
 7571TIP3    H122677   1.774   3.184   2.567  0.4268  2.8474 -1.7894
 7571TIP3    H222678   1.889   3.086   2.558 -2.4386 -0.6305 -3.3918
 7572TIP3   OH222679   0.831   6.466   3.368 -0.6052  0.7307 -0.4961
 7572TIP3    H122680   0.784   6.420   3.298  0.8340  0.0933 -1.1140
 7572TIP3    H222681   0.867   6.395   3.422 -0.4113  1.1953 -0.0112
 7573TIP3   OH222682   6.949   6.028   2.380  0.1456 -0.6169 -0.4601
 7573TIP3    H122683   7.007   6.027   2.304  0.5592 -0.1330 -0.1673
 7573TIP3    H222684   6.991   6.090   2.440 -0.8841  0.0540 -0.4019
 7574TIP3   OH222685   1.961   3.763   2.559 -0.2902 -0.5130  0.4834
 7574TIP3    H122686   1.870   3.745   2.537 -0.5493  0.6351  0.5269
 7574TIP3    H222687   2.007   3.761   2.474 -0.6577  0.4494  0.2409
 7575TIP3   OH222688   3.972   5.550   3.548  0.0908  0.1561  0.0961
 7575TIP3    H122689   4.055   5.509   3.524 -1.0090 -2.0291 -0.2430
 7575TIP3    H222690   3.996   5.623   3.605  2.3952  1.4470 -2.3160
 7576TIP3   OH222691   2.272   4.023   1.118 -0.6900 -0.3909 -0.4015
 7576TIP3    H122692   2.335   4.068   1.063 -0.2251  2.1866  1.9736
 7576TIP3    H222693   2.304   4.036   1.207 -2.6055 -2.2855  0.6723
 7577TIP3   OH222694   0.879   0.893   3.138 -0.0170 -0.1011  0.3387
 7577TIP3    H122695   0.821   0.818   3.150 -0.2544  0.0788  0.2991
 7577TIP3    H222696   0.933   0.869   3.062  1.3735 -1.1702  1.5993
 7578TIP3   OH222697   1.870   4.378   2.989 -0.1192  0.8059  0.0106
 7578TIP3    H122698   1.790   4.335   3.021  0.7858  0.1396  1.4592
 7578TIP3    H222699   1.920   4.308   2.947  1.3958  0.3285  2.4446
 7579TIP3   OH222700   4.487   0.154   0.665  0.3000 -0.0740 -0.2636
 7579TIP3    H122701   4.503   0.187   0.753  0.3821 -1.5322  0.2962
 7579TIP3    H222702   4.538   0.073   0.660 -0.2053 -0.3450 -1.4207
 7580TIP3   OH222703   6.368   2.818   1.465 -0.1305  0.3138  0.5128
 7580TIP3    H122704   6.304   2.887   1.450 -2.7716 -1.7484  1.4166
 7580TIP3    H222705   6.405   2.799   1.379  0.1849  2.3568  0.1615
 7581TIP3   OH222706   4.845   0.530   2.414  1.0765  0.4995 -0.3619
 7581TIP3    H122707   4.886   0.459   2.365  0.1705 -0.4994  0.2930
 7581TIP3    H222708   4.878   0.610   2.372  0.6970 -0.3013 -2.2773
 7582TIP3   OH222709   2.514   2.239   1.017  0.0935 -0.1604 -0.5178
 7582TIP3    H122710   2.545   2.151   0.997  1.3552  0.0303  0.4834
 7582TIP3    H222711   2.422   2.239   0.989  0.1930 -1.6444 -0.9289
 7583TIP3   OH222712   3.351   5.412   5.577  0.4255  0.3817  0.0275
 7583TIP3    H122713   3.424   5.426   5.639  1.6910 -2.5423 -0.6335
 7583TIP3    H222714   3.274   5.404   5.633  0.9026  1.5734  0.9040
 7584TIP3   OH222715   5.737   6.458   3.236  0.8831 -0.6927  0.0123
 7584TIP3    H122716   5.706   6.504   3.159 -2.7045 -1.1444  1.0183
 7584TIP3    H222717   5.732   6.365   3.213  0.2224 -0.8157  0.6333
 7585TIP3   OH222718   2.004   2.103   0.349 -0.3360  0.4717  0.5977
 7585TIP3    H122719   1.932   2.167   0.360  0.1489  1.0620  0.4027
 7585TIP3    H222720   2.064   2.123   0.421 -0.4378 -0.1251  0.8519
 7586TIP3   OH222721   2.484   0.736   3.946 -0.4335 -0.1246  0.7026
 7586TIP3    H122722   2.542   0.780   4.007  0.3070  0.0716 -0.1249
 7586TIP3    H222723   2.430   0.806   3.909  0.9335  0.1891 -0.8211
 7587TIP3   OH222724   0.740   5.097   3.026  0.0501 -0.0508 -0.5097
 7587TIP3    H122725   0.740   5.047   3.107  0.3229  0.6586 -0.0591
 7587TIP3    H222726   0.833   5.105   3.003 -0.0019  0.0823 -0.6784
 7588TIP3   OH222727   2.705   2.892   3.678 -0.9950  1.2966 -0.5307
 7588TIP3    H122728   2.756   2.818   3.645 -0.1950  2.3659 -1.8074
 7588TIP3    H222729   2.614   2.865   3.667 -0.7138  0.5255 -1.0653
 7589TIP3   OH222730   6.584   6.203   1.686 -0.5502 -0.1802  0.5290
 7589TIP3    H122731   6.560   6.271   1.623 -1.7846 -0.8523  0.2383
 7589TIP3    H222732   6.678   6.215   1.700 -0.6107  1.1190 -0.0594
 7590TIP3   OH222733   3.085   3.842   2.376  0.2347  0.0228  0.1831
 7590TIP3    H122734   3.161   3.860   2.432 -0.4662  1.1570  0.8020
 7590TIP3    H222735   3.013   3.828   2.438 -0.2713 -0.0306 -0.4154
 7591TIP3   OH222736   0.678   5.470   0.969  0.2503 -0.0640 -0.9871
 7591TIP3    H122737   0.640   5.388   0.999  1.7430 -0.9201 -1.3300
 7591TIP3    H222738   0.708   5.452   0.880 -1.2745  1.4989 -1.8889
 7592TIP3   OH222739   3.560   4.557   4.363  0.0478 -0.2292  0.6117
 7592TIP3    H122740   3.545   4.612   4.285 -1.4249  0.3708  1.2791
 7592TIP3    H222741   3.647   4.519   4.349 -0.5755 -0.9639 -1.8295
 7593TIP3   OH222742   2.014   2.982   2.286 -0.4588 -0.4832 -0.7351
 7593TIP3    H122743   2.000   2.966   2.380  1.9379 -0.1741 -0.2623
 7593TIP3    H222744   1.951   3.051   2.264  0.1516  0.7473  1.1291
 7594TIP3   OH222745   3.393   4.435   3.219  0.2330  0.1042  0.1689
 7594TIP3    H122746   3.434   4.407   3.301 -0.2860 -0.2826  0.3038
 7594TIP3    H222747   3.362   4.524   3.238 -2.5843 -1.0221  1.4531
 7595TIP3   OH222748   6.561   5.855   0.030 -0.3126 -0.0705 -0.2217
 7595TIP3    H122749   6.485   5.827   0.080 -1.3280  0.8358 -1.1955
 7595TIP3    H222750   6.616   5.777   0.023  0.0583 -0.1622  2.5282
 7596TIP3   OH222751   0.809   0.628   1.867 -0.5708 -0.0579 -0.1698
 7596TIP3    H122752   0.716   0.653   1.870 -0.2719  1.0537  0.1942
 7596TIP3    H222753   0.852   0.699   1.820  0.5771  1.1248  2.4591
 7597TIP3   OH222754   6.525   6.040   2.064  1.1743 -0.1868 -0.2710
 7597TIP3    H122755   6.613   6.048   2.028  1.3437 -1.8557 -0.3404
 7597TIP3    H222756   6.531   5.967   2.125  0.1522  0.5837  0.7910
 7598TIP3   OH222757   1.042   3.827   2.399 -0.3471  0.1559  0.2248
 7598TIP3    H122758   0.949   3.815   2.385 -0.5523  3.1612 -1.6939
 7598TIP3    H222759   1.084   3.784   2.324 -0.4736  1.7660 -0.8258
 7599TIP3   OH222760   1.336   4.499   1.309 -0.0633 -0.3385  0.6656
 7599TIP3    H122761   1.290   4.478   1.391  0.2692  0.8773  1.1880
 7599TIP3    H222762   1.428   4.487   1.330  0.0320  0.1212  0.5260
 7600TIP3   OH222763   3.321   2.716   3.261 -0.4561  0.0579 -0.2886
 7600TIP3    H122764   3.287   2.686   3.345  0.1066  0.3722  0.0539
 7600TIP3    H222765   3.382   2.787   3.283 -0.7334  0.5331 -0.9949
 7601TIP3   OH222766   1.750   2.242   0.378  0.0288  0.0447  0.0878
 7601TIP3    H122767   1.722   2.333   0.385 -1.8075 -0.5525  1.0498
 7601TIP3    H222768   1.679   2.198   0.332  0.6608 -1.0165  0.0827
 7602TIP3   OH222769   5.942   3.632   3.868 -0.4603 -0.0286  0.1500
 7602TIP3    H122770   6.030   3.596   3.883 -0.1441  0.9556  0.7892
 7602TIP3    H222771   5.895   3.612   3.949 -0.5214  0.3078  0.1965
 7603TIP3   OH222772   0.012   1.355   5.102 -0.7831  0.1551 -0.0408
 7603TIP3    H122773  -0.028   1.434   5.066 -1.5818 -0.6189 -0.9106
 7603TIP3    H222774   0.106   1.373   5.102 -0.3077 -0.6714 -5.1031
 7604TIP3   OH222775   4.635   5.343   0.092  0.3266 -0.4007  0.5771
 7604TIP3    H122776   4.700   5.309   0.031 -1.4617 -2.4677 -0.3260
 7604TIP3    H222777   4.665   5.316   0.178  0.8101 -1.0842  0.1992
 7605TIP3   OH222778   6.005   6.545   2.978  0.6595 -0.4557 -0.0136
 7605TIP3    H122779   5.932   6.523   2.920  1.3084  0.9319 -1.4304
 7605TIP3    H222780   6.001   6.640   2.986  0.4284 -0.6136  2.5173
 7606TIP3   OH222781   4.856   3.709   2.809  0.1112 -0.1377 -0.1560
 7606TIP3    H122782   4.930   3.648   2.808 -0.3423 -0.7152 -1.4908
 7606TIP3    H222783   4.839   3.727   2.716 -3.0092 -2.0439 -0.0983
 7607TIP3   OH222784   7.032   4.247   0.331  0.0463 -0.3628  0.2388
 7607TIP3    H122785   6.993   4.191   0.264 -1.1672 -0.1321  0.7279
 7607TIP3    H222786   6.958   4.295   0.368  1.0145  1.4435 -0.0359
 7608TIP3   OH222787   2.706   1.057   4.606  0.1253 -0.5511  0.8007
 7608TIP3    H122788   2.693   0.962   4.607  0.5612 -0.6193  2.3778
 7608TIP3    H222789   2.801   1.069   4.601  0.0358 -0.1708 -0.2609
 7609TIP3   OH222790   4.289   2.245   0.634  0.5245  0.6173  0.1875
 7609TIP3    H122791   4.319   2.160   0.664  1.0494  0.5049 -0.6305
 7609TIP3    H222792   4.369   2.296   0.620  0.3093  0.6491 -1.0378
 7610TIP3   OH222793   5.896   5.919   2.714 -0.0862  0.0396 -0.3556
 7610TIP3    H122794   5.903   5.916   2.619 -2.6666 -0.3392 -0.6199
 7610TIP3    H222795   5.858   6.005   2.732  0.0294 -0.0426  0.2900
 7611TIP3   OH222796   0.080   6.087   0.030  0.0424 -0.3814  0.3830
 7611TIP3    H122797   0.063   6.156  -0.035  0.0288 -1.3500 -0.6805
 7611TIP3    H222798   0.167   6.054   0.007 -0.4469 -1.5316  0.0856
 7612TIP3   OH222799   4.463   6.484   1.743 -0.0460 -0.2138  0.1200
 7612TIP3    H122800   4.538   6.541   1.753  0.0590 -0.2775 -0.2796
 7612TIP3    H222801   4.405   6.507   1.816  0.9811 -1.1435  1.2858
 7613TIP3   OH222802   3.308   3.700   1.929  0.3294 -0.7597  0.3789
 7613TIP3    H122803   3.382   3.746   1.967  1.1678 -0.5983 -1.3455
 7613TIP3    H222804   3.236   3.715   1.990  1.0163  1.3713  0.7342
 7614TIP3   OH222805   2.006   1.972   1.485 -0.4458 -0.0991  1.0063
 7614TIP3    H122806   1.927   1.960   1.538 -1.1182  0.0328  0.0599
 7614TIP3    H222807   2.040   1.884   1.472 -0.0416 -0.1034  1.9750
 7615TIP3   OH222808   5.396   2.362   4.329 -0.0384 -0.1916 -0.5684
 7615TIP3    H122809   5.371   2.431   4.267 -1.8555 -1.2394 -1.0624
 7615TIP3    H222810   5.455   2.306   4.278 -0.6845 -0.4632 -1.0323
 7616TIP3   OH222811   5.057   6.685   2.789 -0.2054  0.4082 -0.0452
 7616TIP3    H122812   5.081   6.729   2.871 -0.9544 -0.4786  0.6808
 7616TIP3    H222813   4.997   6.746   2.745 -0.8621  0.3333  0.7192
 7617TIP3   OH222814   4.806   5.919   4.786 -0.2037  0.2086 -0.4581
 7617TIP3    H122815   4.759   5.842   4.818  0.0223  1.2121  2.6705
 7617TIP3    H222816   4.884   5.884   4.743 -1.3138 -1.3171 -1.3364
 7618TIP3   OH222817   5.124   0.238   3.063 -0.7943  0.4453 -0.2355
 7618TIP3    H122818   5.156   0.319   3.025  0.0512  0.7484  1.0525
 7618TIP3    H222819   5.203   0.187   3.081 -1.3580 -1.0670 -1.8365
 7619TIP3   OH222820   6.964   4.396   5.110  0.0677  0.6938  0.3700
 7619TIP3    H122821   7.050   4.367   5.139  0.5546  3.4737  2.0634
 7619TIP3    H222822   6.904   4.331   5.147  1.3124 -0.5382  0.3164
 7620TIP3   OH222823   1.564   1.865   4.810 -0.5301 -0.0606 -0.1240
 7620TIP3    H122824   1.650   1.903   4.829 -0.3612 -0.4086 -0.1849
 7620TIP3    H222825   1.554   1.875   4.715 -0.0849 -0.9926 -0.2753
 7621TIP3   OH222826   2.511   2.030   2.100 -0.4880 -0.0170  0.1360
 7621TIP3    H122827   2.520   1.982   2.183  0.9201  2.4945  1.5788
 7621TIP3    H222828   2.591   2.009   2.052 -0.0119  0.6038  0.6375
 7622TIP3   OH222829   2.597   3.146   3.512  0.4495  0.3020  0.0899
 7622TIP3    H122830   2.603   3.170   3.605  0.1755 -0.1743  0.2363
 7622TIP3    H222831   2.646   3.064   3.506 -0.7512 -0.4435  0.1139
 7623TIP3   OH222832   4.389   1.318   4.107 -0.1863  0.3415  0.5236
 7623TIP3    H122833   4.381   1.251   4.175  0.7332 -1.3708 -0.9723
 7623TIP3    H222834   4.299   1.346   4.090 -0.6287 -0.7681  0.9487
 7624TIP3   OH222835   3.153   1.936   3.982 -0.1218  0.7051 -0.8544
 7624TIP3    H122836   3.109   1.875   3.923 -0.9995  0.4748  0.0063
 7624TIP3    H222837   3.233   1.890   4.008 -0.7720 -0.0938 -0.2192
 7625TIP3   OH222838   4.185   3.511   0.452  0.0556  0.1747  1.0997
 7625TIP3    H122839   4.117   3.496   0.518 -1.9517  0.7226 -0.7335
 7625TIP3    H222840   4.189   3.430   0.402 -0.8591  0.8663 -0.1494
 7626TIP3   OH222841   5.503   6.051   2.192  0.1300 -0.6664 -0.0814
 7626TIP3    H122842   5.462   5.967   2.212 -0.0123 -1.1793 -2.2734
 7626TIP3    H222843   5.592   6.029   2.165  0.0286 -0.1555 -0.8785
 7627TIP3   OH222844   5.282   2.170   1.332  0.4216 -0.0982  0.2226
 7627TIP3    H122845   5.213   2.236   1.322 -0.7139 -1.2158  0.4922
 7627TIP3    H222846   5.240   2.087   1.310  1.5127 -0.8989  1.0260
 7628TIP3   OH222847   6.196   5.888   0.816  0.1845 -0.1336  0.5543
 7628TIP3    H122848   6.222   5.960   0.758 -0.7145  0.0184  0.3285
 7628TIP3    H222849   6.255   5.816   0.792 -0.4786 -0.2278 -0.9042
 7629TIP3   OH222850   2.546   4.394   4.552 -0.5058  0.5584 -0.3118
 7629TIP3    H122851   2.533   4.310   4.596 -2.2135  0.4358 -0.9584
 7629TIP3    H222852   2.621   4.380   4.495  1.0275  0.3733  1.6327
 7630TIP3   OH222853   2.776   6.277   1.030  0.1997  0.0184  0.3745
 7630TIP3    H122854   2.837   6.348   1.051  0.0037  0.4317 -0.4006
 7630TIP3    H222855   2.694   6.320   1.010  0.0323 -0.4328  0.0529
 7631TIP3   OH222856   5.383   2.290   2.839  0.0470 -0.4297  0.5786
 7631TIP3    H122857   5.390   2.229   2.766  0.7193 -0.3525  0.5731
 7631TIP3    H222858   5.367   2.375   2.797  1.5934 -0.1763  0.4311
 7632TIP3   OH222859   3.812   1.176   4.717  0.1933 -0.1544  0.5726
 7632TIP3    H122860   3.898   1.152   4.753  0.4675 -1.5480 -0.8553
 7632TIP3    H222861   3.796   1.109   4.650 -0.8261  1.5733 -0.9906
 7633TIP3   OH222862   0.176   5.090   4.277 -0.2960  0.3790 -0.0760
 7633TIP3    H122863   0.184   5.182   4.301 -0.8442  0.0871  1.3256
 7633TIP3    H222864   0.267   5.061   4.264  0.0173  0.7159  1.1719
 7634TIP3   OH222865   1.456   1.003   5.735  0.1949  0.6295  0.1160
 7634TIP3    H122866   1.446   1.077   5.795 -0.2213  1.8407 -1.3598
 7634TIP3    H222867   1.367   0.983   5.707 -0.2010 -2.8494  3.0982
 7635TIP3   OH222868   1.441   5.796   2.917 -0.1764 -0.2241  0.3389
 7635TIP3    H122869   1.528   5.800   2.878  0.0826 -0.8672  0.8467
 7635TIP3    H222870   1.387   5.752   2.850 -0.2104  0.4962 -0.1255
 7636TIP3   OH222871   5.723   6.629   5.919  0.2762  0.5417  0.3225
 7636TIP3    H122872   5.720   6.711   5.870  0.2866 -0.2769 -1.1031
 7636TIP3    H222873   5.736   6.561   5.852  1.2591 -0.5409  1.5479
 7637TIP3   OH222874   0.883   2.583   5.062 -0.8806  0.4336  0.1463
 7637TIP3    H122875   0.865   2.648   4.993 -0.1047  0.8618  0.3383
 7637TIP3    H222876   0.799   2.572   5.107 -0.9716  1.4856  0.2617
 7638TIP3   OH222877   4.784   4.964   3.609 -0.6902  0.0771 -0.5566
 7638TIP3    H122878   4.815   4.912   3.536 -0.6600 -0.5921 -0.0750
 7638TIP3    H222879   4.734   4.903   3.663 -1.0942  0.6681 -0.2551
 7639TIP3   OH222880   4.921   6.423   4.200  0.2688  0.8994  0.5816
 7639TIP3    H122881   4.923   6.506   4.153 -1.7515 -0.6646 -2.6141
 7639TIP3    H222882   4.838   6.423   4.247 -1.6723 -0.5853 -2.4734
 7640TIP3   OH222883   0.677   2.617   4.542  0.3414 -0.0042 -0.2788
 7640TIP3    H122884   0.705   2.600   4.452 -1.2290  0.2845 -0.8634
 7640TIP3    H222885   0.595   2.569   4.551  0.8749 -0.6780  1.2787
 7641TIP3   OH222886   1.730   0.698   1.626 -0.3772  0.2834  0.0478
 7641TIP3    H122887   1.780   0.778   1.612 -1.5092  0.9886 -0.0739
 7641TIP3    H222888   1.728   0.655   1.540  0.6403 -0.1425  0.2196
 7642TIP3   OH222889   1.077   2.588   5.781 -0.4873 -0.6030  0.2099
 7642TIP3    H122890   0.987   2.583   5.749 -0.1384 -0.0288 -0.9241
 7642TIP3    H222891   1.069   2.585   5.876 -1.5381 -2.9638  0.1293
 7643TIP3   OH222892   1.506   2.678   1.275  0.2149 -0.2622 -0.2625
 7643TIP3    H122893   1.449   2.673   1.352  1.0423  0.3928  0.4214
 7643TIP3    H222894   1.530   2.771   1.269 -0.8608 -0.0611 -2.0947
 7644TIP3   OH222895   4.999   1.176   5.162 -0.2652 -0.0056  0.1217
 7644TIP3    H122896   5.038   1.263   5.170  0.5194 -0.4483  1.4347
 7644TIP3    H222897   5.039   1.125   5.233  0.2239 -1.7761 -1.3278
 7645TIP3   OH222898   4.180   0.189   3.987  0.0911  0.1454  0.2445
 7645TIP3    H122899   4.100   0.162   4.031  0.4721 -0.6578  0.4547
 7645TIP3    H222900   4.151   0.214   3.899 -0.5850  1.2158  0.7460
 7646TIP3   OH222901   2.630   2.275   5.123 -0.3024 -0.7931 -0.6405
 7646TIP3    H122902   2.720   2.306   5.135 -1.5746  3.1013  0.6110
 7646TIP3    H222903   2.598   2.261   5.212 -0.7986 -2.9477 -1.0992
 7647TIP3   OH222904   2.710   5.907   3.682  0.8866 -0.1616 -0.0100
 7647TIP3    H122905   2.789   5.902   3.735  0.6388  1.2824  0.5410
 7647TIP3    H222906   2.657   5.976   3.723 -0.7708 -1.2300 -0.2321
 7648TIP3   OH222907   2.472   5.890   1.475 -0.0122 -0.3475 -0.6554
 7648TIP3    H122908   2.412   5.823   1.508 -0.2893 -0.0814 -0.6173
 7648TIP3    H222909   2.483   5.868   1.382  0.4684 -0.8715 -0.4800
 7649TIP3   OH222910   3.688   2.095   0.335  0.7339 -0.2882 -0.5639
 7649TIP3    H122911   3.674   2.017   0.389  2.6997 -1.0103 -1.0146
 7649TIP3    H222912   3.650   2.072   0.250 -2.9719  1.0960  0.5185
 7650TIP3   OH222913   1.210   4.072   2.687 -0.3474 -0.0094  0.5688
 7650TIP3    H122914   1.277   4.042   2.624 -0.7132 -0.4350  0.3708
 7650TIP3    H222915   1.206   4.001   2.751 -1.2430 -0.4138  0.0818
 7651TIP3   OH222916   2.255   2.631   0.308  0.0473  0.3549  0.2195
 7651TIP3    H122917   2.340   2.647   0.268 -0.3423  0.2991 -0.6737
 7651TIP3    H222918   2.212   2.570   0.248 -0.8184  0.7938  0.3835
 7652TIP3   OH222919   7.091   1.152   5.191 -0.2277  0.3614 -0.4923
 7652TIP3    H122920   7.163   1.211   5.170 -0.4171  0.1724 -1.7779
 7652TIP3    H222921   7.012   1.205   5.176 -0.3707  0.2029 -0.3022
 7653TIP3   OH222922   3.244   4.146   3.927 -0.0657 -0.2049  0.8680
 7653TIP3    H122923   3.229   4.084   3.856  0.9298 -2.4555  2.5357
 7653TIP3    H222924   3.162   4.194   3.935 -1.2431 -2.0259  0.1935
 7654TIP3   OH222925   1.037   0.446   5.663 -0.2258 -0.4376 -0.7002
 7654TIP3    H122926   1.039   0.410   5.574  0.9479 -1.5879 -0.2436
 7654TIP3    H222927   1.126   0.478   5.678 -0.7986  1.0854 -0.4442
 7655TIP3   OH222928   6.992   3.345   2.308 -0.0675  0.3963 -0.4539
 7655TIP3    H122929   6.911   3.390   2.328  0.2495  0.8478 -0.1684
 7655TIP3    H222930   7.059   3.414   2.309  0.4590 -0.1052  0.2025
 7656TIP3   OH222931   0.692   0.919   0.876 -0.2160 -0.4213  0.0249
 7656TIP3    H122932   0.735   0.982   0.934 -0.2325 -1.0266  0.7000
 7656TIP3    H222933   0.708   0.954   0.788 -0.2887  0.5662  0.3878
 7657TIP3   OH222934   4.906   4.199   3.331 -0.8800 -0.0499  0.0672
 7657TIP3    H122935   4.997   4.212   3.305 -1.0797 -0.1507 -0.7294
 7657TIP3    H222936   4.909   4.181   3.424 -0.0837 -0.0522  0.0446
 7658TIP3   OH222937   2.202   0.016   0.540  0.0316 -0.0278 -0.2413
 7658TIP3    H122938   2.138   0.034   0.471  1.4477 -0.4971 -1.7523
 7658TIP3    H222939   2.193   0.089   0.601 -1.6221  0.1315 -0.6357
 7659TIP3   OH222940   1.692   0.563   1.005 -0.0224 -0.1843  0.3743
 7659TIP3    H122941   1.780   0.584   0.975 -1.0354  1.2603 -1.8115
 7659TIP3    H222942   1.695   0.469   1.023  2.5591  0.2130  2.7849
 7660TIP3   OH222943   4.617   3.585   2.883  0.5885 -0.2761 -0.4805
 7660TIP3    H122944   4.548   3.578   2.817 -0.1375 -1.3443  0.3535
 7660TIP3    H222945   4.685   3.637   2.841 -0.1317 -0.3817 -1.8377
 7661TIP3   OH222946   5.734   2.220   1.230  0.0242 -0.6697 -0.7282
 7661TIP3    H122947   5.694   2.210   1.144  1.4901  0.5840 -1.6034
 7661TIP3    H222948   5.819   2.262   1.213 -0.2215  0.8834  1.4228
 7662TIP3   OH222949   3.573   1.119   4.043  0.3994 -0.0208  0.1129
 7662TIP3    H122950   3.592   1.035   4.000  0.5031 -0.0579  0.2289
 7662TIP3    H222951   3.659   1.154   4.066  0.3137 -0.5061  1.2376
 7663TIP3   OH222952   7.174   4.402   5.807 -0.0936 -0.5602  0.1158
 7663TIP3    H122953   7.193   4.368   5.720  0.0228  0.4095 -0.2486
 7663TIP3    H222954   7.172   4.324   5.863  0.8689 -1.0982 -0.5586
 7664TIP3   OH222955   2.267   0.258   3.211 -0.4447  0.2540 -0.6515
 7664TIP3    H122956   2.258   0.185   3.149  1.0556  0.6194 -1.3313
 7664TIP3    H222957   2.283   0.217   3.295 -2.5625 -0.2546 -0.4413
 7665TIP3   OH222958   2.853   1.396   2.273 -0.2896  0.0564 -0.4407
 7665TIP3    H122959   2.817   1.307   2.274 -1.8278  0.6472  0.3271
 7665TIP3    H222960   2.846   1.423   2.181 -0.5524 -0.3421 -0.5421
 7666TIP3   OH222961   5.275   5.828   0.856  0.1355  0.2746 -0.4894
 7666TIP3    H122962   5.287   5.893   0.786 -1.8845 -0.3486 -1.4676
 7666TIP3    H222963   5.263   5.745   0.811  0.0483 -0.3598  0.6506
 7667TIP3   OH222964   3.419   3.472   5.610  0.3031  0.1881 -0.0968
 7667TIP3    H122965   3.396   3.380   5.601  0.7928  0.1461 -0.9642
 7667TIP3    H222966   3.418   3.506   5.521 -0.4137  1.1569  0.2714
 7668TIP3   OH222967   0.314   6.671   0.645  0.4284 -0.3303 -0.3196
 7668TIP3    H122968   0.337   6.687   0.737 -0.0203 -1.3345 -0.0152
 7668TIP3    H222969   0.397   6.671   0.599  0.7951 -1.1181  0.3102
 7669TIP3   OH222970   6.646   0.822   4.127  0.8866  0.6752 -0.0556
 7669TIP3    H122971   6.710   0.799   4.194  0.8244 -0.3300 -0.3190
 7669TIP3    H222972   6.634   0.741   4.077 -0.7962  0.7792  0.1507
 7670TIP3   OH222973   0.073   3.739   0.661 -0.3067  0.0384  0.5402
 7670TIP3    H122974   0.034   3.653   0.647 -1.6502  0.6384  0.3783
 7670TIP3    H222975   0.039   3.767   0.746  0.9399  0.0021  1.0684
 7671TIP3   OH222976   5.252   0.742   1.495  0.4119 -0.2007 -0.4003
 7671TIP3    H122977   5.162   0.716   1.514 -0.2529  1.5193 -1.0046
 7671TIP3    H222978   5.271   0.811   1.558  1.1944 -0.3027 -0.5079
 7672TIP3   OH222979   3.176   4.992   2.139  0.0538  0.2650 -0.3846
 7672TIP3    H122980   3.239   5.038   2.083  1.2968 -1.7127 -0.6992
 7672TIP3    H222981   3.213   4.998   2.227  1.5785 -2.1596 -0.7700
 7673TIP3   OH222982   1.297   2.755   5.819  0.4673  0.3007 -0.4229
 7673TIP3    H122983   1.220   2.707   5.788 -0.9490  1.8863  0.4621
 7673TIP3    H222984   1.363   2.741   5.750 -0.1475 -2.0915 -0.6281
 7674TIP3   OH222985   1.027   5.082   1.684 -0.0325 -0.7109 -0.1158
 7674TIP3    H122986   1.002   5.083   1.591  1.1661  1.9557 -0.5037
 7674TIP3    H222987   1.121   5.069   1.684 -0.2479 -2.5292  0.8751
 7675TIP3   OH222988   0.309   1.158   1.478  0.3962  0.3660  0.3434
 7675TIP3    H122989   0.312   1.168   1.573 -1.1175  1.0396  0.3495
 7675TIP3    H222990   0.291   1.066   1.463 -0.8921  0.5363  0.7717
 7676TIP3   OH222991   1.972   2.922   2.551 -0.5062  0.0254  0.6348
 7676TIP3    H122992   2.050   2.939   2.604 -2.3299  3.0272  2.7395
 7676TIP3    H222993   1.917   2.867   2.607 -1.7560  1.8323  1.2782
 7677TIP3   OH222994   1.699   5.503   0.647  0.3617  0.5886 -0.3503
 7677TIP3    H122995   1.624   5.472   0.698 -0.4848  1.3690 -1.0732
 7677TIP3    H222996   1.773   5.452   0.680 -0.3205  0.4050  0.9790
 7678TIP3   OH222997   6.315   5.482   2.849 -0.4126  0.1971 -0.0937
 7678TIP3    H122998   6.369   5.529   2.785 -0.1103 -0.4022 -0.2775
 7678TIP3    H222999   6.257   5.550   2.884 -1.1780  0.3618 -1.6225
 7679TIP3   OH223000   5.339   0.919   5.596 -0.1001  0.6338  0.2660
 7679TIP3    H123001   5.267   0.937   5.656  0.3614 -0.0044  1.0243
 7679TIP3    H223002   5.415   0.959   5.637  0.0508  1.0093 -0.3662
 7680TIP3   OH223003   3.506   4.811   1.958  0.0628 -0.2102  0.1460
 7680TIP3    H123004   3.437   4.747   1.976  0.2204 -0.1839  0.8864
 7680TIP3    H223005   3.525   4.800   1.865  0.0755 -1.2404  0.2575
 7681TIP3   OH223006   4.830   4.312   2.845 -0.1732 -0.3956 -0.2141
 7681TIP3    H123007   4.909   4.357   2.872  1.9277 -3.5382 -0.6119
 7681TIP3    H223008   4.762   4.346   2.903  1.4009  2.4400  0.1239
 7682TIP3   OH223009   3.802   3.003   2.281 -0.5503  0.9065  0.2487
 7682TIP3    H123010   3.721   2.957   2.261 -0.1649 -0.0710  0.8415
 7682TIP3    H223011   3.851   3.003   2.199 -1.0019  1.2200 -0.0282
 7683TIP3   OH223012   1.269   5.273   2.987  0.0459  0.4114  0.0416
 7683TIP3    H123013   1.265   5.207   3.056 -0.2529  0.7328  0.3390
 7683TIP3    H223014   1.360   5.273   2.959  0.3924  0.9488  1.1141
 7684TIP3   OH223015   0.343   1.757   4.160 -0.4316  0.7020  0.3088
 7684TIP3    H123016   0.248   1.743   4.162 -0.1091 -2.5076 -0.6160
 7684TIP3    H223017   0.369   1.728   4.072  1.3467  2.2969  0.2560
 7685TIP3   OH223018   6.408   5.482   4.327  0.4667  0.2951 -0.8850
 7685TIP3    H123019   6.398   5.452   4.237 -1.1760 -0.6181 -0.4262
 7685TIP3    H223020   6.358   5.563   4.332 -3.5875 -2.0346  0.2992
 7686TIP3   OH223021   4.519   2.339   5.744  0.3815 -0.3512 -0.0795
 7686TIP3    H123022   4.428   2.323   5.767  0.3208 -0.4072 -0.3603
 7686TIP3    H223023   4.544   2.264   5.690  0.5714 -0.2988 -0.0651
 7687TIP3   OH223024   5.190   0.367   4.316 -0.5273 -0.2290  0.3944
 7687TIP3    H123025   5.225   0.280   4.295  0.7721  0.3417  0.0407
 7687TIP3    H223026   5.176   0.408   4.230  1.7637  0.9716  0.5234
 7688TIP3   OH223027   1.289   1.038   4.005 -0.1446 -0.0535  0.6651
 7688TIP3    H123028   1.295   1.115   3.947  2.1438 -0.6688 -0.0135
 7688TIP3    H223029   1.272   1.075   4.091 -0.0055  1.1599  0.2021
 7689TIP3   OH223030   0.760   2.035   5.915 -0.5487  0.3341 -0.1163
 7689TIP3    H123031   0.795   1.959   5.869 -2.1590 -0.5302 -0.0022
 7689TIP3    H223032   0.700   2.075   5.852  0.0936  1.3912 -0.0812
 7690TIP3   OH223033   0.691   2.281   2.084 -0.1690 -0.1378  0.4605
 7690TIP3    H123034   0.754   2.282   2.012 -0.6681  0.4331  0.0187
 7690TIP3    H223035   0.638   2.360   2.071 -0.4600 -0.1842  1.2844
 7691TIP3   OH223036   2.269   0.043   1.499  0.1013  0.4501  0.3764
 7691TIP3    H123037   2.240   0.003   1.580 -2.1094  1.2527  0.0398
 7691TIP3    H223038   2.334   0.108   1.526 -0.2500  0.3707  1.4507
 7692TIP3   OH223039   4.201   1.756   5.848  0.3869  0.8958 -0.6345
 7692TIP3    H123040   4.213   1.837   5.797  1.1296  1.1379 -0.1021
 7692TIP3    H223041   4.267   1.762   5.917 -0.7708  0.6967  0.5184
 7693TIP3   OH223042   2.293   3.971   1.787 -0.2449  0.2685 -0.4131
 7693TIP3    H123043   2.382   4.006   1.780  0.5222 -1.6419 -0.9209
 7693TIP3    H223044   2.242   4.041   1.828  0.8774  2.4376 -2.4736
 7694TIP3   OH223045   0.876   1.513   1.723 -0.0478 -0.1957 -0.3581
 7694TIP3    H123046   0.952   1.538   1.776 -0.0018 -0.7831 -0.1454
 7694TIP3    H223047   0.859   1.590   1.669  0.2066  0.2342  0.1598
 7695TIP3   OH223048   1.901   6.505   0.255  1.0177  0.1795 -0.2630
 7695TIP3    H123049   1.819   6.500   0.206  0.4335  1.3029  0.5553
 7695TIP3    H223050   1.927   6.414   0.267 -0.0485 -0.1941 -0.6432
 7696TIP3   OH223051   3.383   1.727   4.506  0.0770 -0.1720 -0.5392
 7696TIP3    H123052   3.369   1.813   4.544  1.7023  0.2607 -0.8441
 7696TIP3    H223053   3.332   1.728   4.425 -2.5824 -0.7385  0.9847
 7697TIP3   OH223054   1.191   5.362   3.676 -0.1175 -0.4645  0.0156
 7697TIP3    H123055   1.220   5.388   3.588 -0.8066 -0.3381 -0.1803
 7697TIP3    H223056   1.177   5.267   3.670 -0.7028 -0.3735 -0.1789
 7698TIP3   OH223057   6.769   0.406   3.054  0.2660 -0.2740 -0.1826
 7698TIP3    H123058   6.849   0.450   3.083  1.9377 -2.5627 -1.0331
 7698TIP3    H223059   6.771   0.321   3.098 -1.7233 -0.4015 -0.2455
 7699TIP3   OH223060   0.269   3.027   4.449 -0.0326 -0.0367  0.8717
 7699TIP3    H123061   0.256   2.998   4.359  0.9640  0.2592  0.6201
 7699TIP3    H223062   0.338   3.093   4.443 -0.1994  0.2364  1.8112
 7700TIP3   OH223063   0.184   3.951   0.968  0.2942 -0.4328 -0.1624
 7700TIP3    H123064   0.266   4.001   0.975  0.1095 -0.1528  0.0205
 7700TIP3    H223065   0.138   3.991   0.894  0.4543 -0.7898 -0.4633
 7701TIP3   OH223066   2.210   5.453   0.796  0.3468 -0.2228 -0.5627
 7701TIP3    H123067   2.233   5.360   0.785  2.8489  0.3559 -0.9192
 7701TIP3    H223068   2.288   5.493   0.834 -1.3960  1.4202  1.5112
 7702TIP3   OH223069   1.933   3.684   4.063  0.4049 -0.2561 -0.2242
 7702TIP3    H123070   2.022   3.695   4.097  0.0701  0.1626  0.5384
 7702TIP3    H223071   1.937   3.719   3.974  1.2094 -1.0459 -0.5176
 7703TIP3   OH223072   0.107   2.392   2.438  0.2433 -0.3259 -0.3630
 7703TIP3    H123073   0.163   2.334   2.386  0.9578 -0.3631  0.4315
 7703TIP3    H223074   0.159   2.414   2.514 -0.2870  0.8065 -0.3030
 7704TIP3   OH223075   1.293   4.939   1.365  0.3180  0.2680 -0.2642
 7704TIP3    H123076   1.330   5.027   1.369  1.2677 -0.1291 -0.2522
 7704TIP3    H223077   1.336   4.891   1.435  0.8437 -0.5984 -1.1669
 7705TIP3   OH223078   6.543   2.003   0.341 -0.4575  0.4525 -0.0686
 7705TIP3    H123079   6.538   2.051   0.258  0.2603 -0.1562 -0.4868
 7705TIP3    H223080   6.456   1.966   0.353 -1.2743  2.4641  0.6706
 7706TIP3   OH223081   0.555   1.666   1.159 -0.2275  0.0842  0.5033
 7706TIP3    H123082   0.558   1.759   1.182 -1.0932 -0.1513  1.6588
 7706TIP3    H223083   0.462   1.644   1.162 -0.0800 -0.6939 -0.3435
 7707TIP3   OH223084   5.305   3.115   0.010 -0.6658 -0.1223 -0.4246
 7707TIP3    H123085   5.328   3.077   0.094  2.6508 -0.3773 -1.3361
 7707TIP3    H223086   5.284   3.206   0.030  0.6790 -0.0230  0.6456
 7708TIP3   OH223087   4.115   5.427   1.010  0.1462 -0.2265 -0.2154
 7708TIP3    H123088   4.100   5.411   1.104  0.2556  0.0491 -0.1516
 7708TIP3    H223089   4.185   5.365   0.987  1.3797  0.9349  0.3015
 7709TIP3   OH223090   1.010   6.715   5.321  0.3057 -0.0676  0.7823
 7709TIP3    H123091   0.942   6.770   5.358  0.3215 -0.1813  0.9851
 7709TIP3    H223092   0.966   6.661   5.256  0.8846  2.6679 -2.1092
 7710TIP3   OH223093   3.953   1.693   2.450  0.4798  0.0926 -0.0175
 7710TIP3    H123094   3.956   1.601   2.422 -1.5641 -0.0907  0.1913
 7710TIP3    H223095   3.902   1.691   2.531 -1.8707  1.6372 -1.3393
 7711TIP3   OH223096   4.907   4.305   2.590 -0.1189 -0.4456  0.0611
 7711TIP3    H123097   4.918   4.400   2.587 -0.3744 -0.4268 -0.7347
 7711TIP3    H223098   4.848   4.290   2.664  0.1416 -0.0121  0.3623
 7712TIP3   OH223099   1.092   2.862   1.982 -0.1530 -0.2791 -0.2285
 7712TIP3    H123100   1.024   2.870   1.916 -0.4944  1.0920  0.2520
 7712TIP3    H223101   1.053   2.898   2.062  1.1037  0.5021  0.0668
 7713TIP3   OH223102   0.786   3.721   2.340 -0.9966  0.1377  0.5388
 7713TIP3    H123103   0.736   3.645   2.310 -1.6183  0.9320 -0.5128
 7713TIP3    H223104   0.740   3.796   2.302  0.0527  0.9932  0.9181
 7714TIP3   OH223105   5.688   3.727   4.506  0.4804  0.0386 -0.0587
 7714TIP3    H123106   5.661   3.715   4.597 -1.1855  2.7635 -0.0822
 7714TIP3    H223107   5.762   3.788   4.511  0.3520  0.2367 -0.5219
 7715TIP3   OH223108   1.098   0.318   4.335 -0.0942 -0.3738 -0.0576
 7715TIP3    H123109   1.003   0.321   4.320 -0.2433 -0.6465  0.7647
 7715TIP3    H223110   1.134   0.380   4.272 -0.7940 -0.4759 -0.5777
 7716TIP3   OH223111   3.760   0.600   0.520  0.6930 -0.4364 -0.1268
 7716TIP3    H123112   3.712   0.622   0.600 -2.7746 -2.4025 -1.4319
 7716TIP3    H223113   3.780   0.684   0.480 -1.2958  0.5409  0.7861
 7717TIP3   OH223114   5.183   2.447   0.622 -0.2134  0.1105 -0.3454
 7717TIP3    H123115   5.108   2.505   0.631 -0.8342 -0.8552  1.2787
 7717TIP3    H223116   5.259   2.505   0.617 -0.8121  1.0786  1.2408
 7718TIP3   OH223117   6.218   2.014   0.531 -0.9905 -0.6565 -0.5438
 7718TIP3    H123118   6.298   1.964   0.542  0.8415  2.0864 -0.3294
 7718TIP3    H223119   6.218   2.076   0.604 -2.4540  0.4544 -1.4259
 7719TIP3   OH223120   1.254   5.082   2.342  0.3642  0.8324  0.1515
 7719TIP3    H123121   1.300   5.158   2.305  0.7688  0.7057  0.3825
 7719TIP3    H223122   1.162   5.098   2.325  0.6342 -0.4419 -3.3089
 7720TIP3   OH223123   7.012   4.044   0.114  0.0971 -0.3289 -0.7646
 7720TIP3    H123124   6.950   4.017   0.182  2.3305  1.8822  2.5007
 7720TIP3    H223125   7.032   3.964   0.066 -1.5816 -2.0757  1.2445
 7721TIP3   OH223126   5.747   6.091   5.047  0.5160 -0.2426 -0.4603
 7721TIP3    H123127   5.700   6.173   5.031  0.9362 -0.2776 -2.0217
 7721TIP3    H223128   5.718   6.063   5.134  1.9095  2.6287  1.0833
 7722TIP3   OH223129   5.338   6.684   3.296 -0.3826  0.3804  0.4659
 7722TIP3    H123130   5.352   6.645   3.210 -0.0014  0.9891  0.2417
 7722TIP3    H223131   5.426   6.685   3.336 -0.6854 -0.6790  1.2130
 7723TIP3   OH223132   3.421   0.656   1.850 -0.3762 -0.0594 -0.0069
 7723TIP3    H123133   3.495   0.649   1.910  0.0662  0.9319 -0.4046
 7723TIP3    H223134   3.364   0.583   1.872  1.8985 -2.4073 -1.3648
 7724TIP3   OH223135   1.869   1.702   2.780  0.0407  0.2744 -0.2496
 7724TIP3    H123136   1.798   1.642   2.760 -1.0128  0.5432  2.2864
 7724TIP3    H223137   1.845   1.741   2.864  3.5120 -0.1330  1.1338
 7725TIP3   OH223138   2.026   1.829   0.298 -0.9541 -0.0302  0.1724
 7725TIP3    H123139   2.000   1.911   0.342 -1.6483 -0.5269  0.7163
 7725TIP3    H223140   1.943   1.791   0.269 -0.7484 -1.0997  0.9336
 7726TIP3   OH223141   5.991   6.413   1.947 -0.4377 -0.2899 -0.3924
 7726TIP3    H123142   6.066   6.462   1.914  0.1414 -1.7232 -1.2997
 7726TIP3    H223143   5.949   6.378   1.868  1.0541 -3.9163  0.2245
 7727TIP3   OH223144   5.357   3.707   4.375 -0.2882 -0.0137  0.3044
 7727TIP3    H123145   5.432   3.688   4.431 -0.6215  0.2455  0.8406
 7727TIP3    H223146   5.393   3.759   4.303 -0.0481  0.5656  0.8404
 7728TIP3   OH223147   6.706   4.088   5.662  0.4000 -0.2168  0.3623
 7728TIP3    H123148   6.654   4.011   5.686  1.8335 -1.1958  0.4094
 7728TIP3    H223149   6.771   4.096   5.731  0.7802  0.5600 -0.0735
 7729TIP3   OH223150   5.231   0.209   1.061 -0.0025  0.5056  0.0463
 7729TIP3    H123151   5.176   0.221   1.138  0.5144  0.6347  0.4024
 7729TIP3    H223152   5.275   0.294   1.050  0.3080  0.3300 -0.0845
 7730TIP3   OH223153   4.207   5.581   1.943  0.0836 -0.6156  0.3027
 7730TIP3    H123154   4.183   5.502   1.894  0.1272 -0.8410  0.6395
 7730TIP3    H223155   4.199   5.555   2.035  0.4948 -0.3473  0.4149
 7731TIP3   OH223156   4.275   2.427   2.853 -0.7991  0.0279 -0.2787
 7731TIP3    H123157   4.343   2.485   2.819 -0.4353 -0.7787 -0.9531
 7731TIP3    H223158   4.259   2.365   2.782 -0.7043 -1.1152  0.6676
 7732TIP3   OH223159   5.206   6.175   3.396  0.3428 -0.0850  0.8986
 7732TIP3    H123160   5.261   6.096   3.398  1.2153  0.2085 -3.0309
 7732TIP3    H223161   5.118   6.143   3.376  0.9329 -0.1515 -2.0301
 7733TIP3   OH223162   5.348   4.583   5.619  0.1925  0.5015 -0.3133
 7733TIP3    H123163   5.425   4.606   5.567  1.2749 -0.5794  0.7567
 7733TIP3    H223164   5.374   4.505   5.667 -0.4454  1.9225  2.5129
 7734TIP3   OH223165   4.669   0.788   2.108  0.3949 -0.4915  0.3971
 7734TIP3    H123166   4.674   0.828   2.194  0.3569  0.3172  0.0298
 7734TIP3    H223167   4.684   0.860   2.047  2.2660 -1.3451 -0.2473
 7735TIP3   OH223168   4.079   4.561   0.033 -0.5790  0.4776  0.1942
 7735TIP3    H123169   4.069   4.654   0.052 -1.4306  0.3997  0.1665
 7735TIP3    H223170   4.049   4.517   0.113 -1.6116  0.2067 -0.3299
 7736TIP3   OH223171   4.490   4.868   2.263 -0.3023  0.5822  0.4449
 7736TIP3    H123172   4.575   4.872   2.308 -0.3726  0.1547  0.6230
 7736TIP3    H223173   4.478   4.775   2.243 -0.4476  0.7214 -0.1265
 7737TIP3   OH223174   0.136   2.959   1.025 -0.3929  0.2946 -0.3464
 7737TIP3    H123175   0.193   2.950   0.949 -0.6574 -0.3013 -0.4798
 7737TIP3    H223176   0.064   3.014   0.995 -0.5666 -0.0516 -0.5702
 7738TIP3   OH223177   6.132   5.363   3.775  0.3081 -0.5114 -0.0116
 7738TIP3    H123178   6.226   5.348   3.789  0.5135 -0.2404 -0.9887
 7738TIP3    H223179   6.129   5.437   3.713 -0.5285 -1.0366 -0.6132
 7739TIP3   OH223180   4.416   1.141   5.032  0.1074  0.3687  0.1444
 7739TIP3    H123181   4.371   1.074   5.083 -0.2522  0.2992 -0.2579
 7739TIP3    H223182   4.509   1.129   5.053  0.3979 -2.0692 -1.9408
 7740TIP3   OH223183   1.691   1.714   2.361 -0.4393  0.5064  0.2927
 7740TIP3    H123184   1.681   1.646   2.295 -0.5584  1.2419 -0.4600
 7740TIP3    H223185   1.619   1.699   2.422  0.2850 -0.8252  0.8583
 7741TIP3   OH223186   2.088  -0.007   1.729  0.4294 -0.1713 -0.2001
 7741TIP3    H123187   2.068   0.080   1.762 -1.0818 -0.5818  0.0678
 7741TIP3    H223188   2.029  -0.065   1.778  1.9655 -1.4658  0.2335
 7742TIP3   OH223189   3.728   2.473   3.419 -0.1354  0.0841 -0.3483
 7742TIP3    H123190   3.796   2.501   3.358 -0.3627 -0.3907 -0.8336
 7742TIP3    H223191   3.720   2.544   3.482  1.8766 -0.4934  0.6137
 7743TIP3   OH223192   5.448   2.661   3.152  0.0264  0.2574 -0.1475
 7743TIP3    H123193   5.509   2.587   3.146 -0.3394 -0.1303  0.7946
 7743TIP3    H223194   5.394   2.641   3.228 -0.8860  0.9000 -0.6156
 7744TIP3   OH223195   5.572   0.040   3.288 -0.2597 -0.0376  0.0377
 7744TIP3    H123196   5.627  -0.006   3.351 -1.3233  1.0015  1.8537
 7744TIP3    H223197   5.488  -0.007   3.291 -0.2724 -0.0628 -0.7186
 7745TIP3   OH223198   2.009   5.074   3.044 -0.2991 -0.1425 -0.1534
 7745TIP3    H123199   2.018   5.169   3.058  1.5371 -0.3632  0.3883
 7745TIP3    H223200   2.006   5.037   3.132 -1.4333 -0.5812 -0.3636
 7746TIP3   OH223201   2.375   0.066   5.387  0.3896  0.2094 -0.2602
 7746TIP3    H123202   2.358   0.126   5.460  1.5930  0.0752  0.1501
 7746TIP3    H223203   2.449   0.013   5.416 -1.1939 -2.1614 -0.2047
 7747TIP3   OH223204   5.874   3.000   2.228  0.5385  0.0061  0.1541
 7747TIP3    H123205   5.943   2.959   2.176  1.0756  0.2930  0.6291
 7747TIP3    H223206   5.796   2.995   2.173  1.0772  0.2433 -0.6375
 7748TIP3   OH223207   2.373   3.446   0.408  0.1145 -0.4760 -0.2984
 7748TIP3    H123208   2.378   3.474   0.499 -0.4677 -1.7594  0.1601
 7748TIP3    H223209   2.341   3.522   0.360 -0.6003 -0.1090  0.7436
 7749TIP3   OH223210   5.161   5.361   2.996 -0.5709  0.4651  0.1610
 7749TIP3    H123211   5.094   5.292   3.001 -1.0266  0.8652 -0.3202
 7749TIP3    H223212   5.126   5.424   2.933  0.8461  0.0243 -1.1353
 7750TIP3   OH223213   3.347   5.219   1.110 -0.3672 -0.2123 -0.3375
 7750TIP3    H123214   3.331   5.300   1.159  1.5459 -0.4614  0.8155
 7750TIP3    H223215   3.327   5.149   1.172  1.1192 -0.5480 -0.1998
 7751TIP3   OH223216   1.401   1.765  -0.024  0.7488  0.1429 -0.4076
 7751TIP3    H123217   1.444   1.717   0.046  0.1889  0.1064 -0.0797
 7751TIP3    H223218   1.404   1.856   0.003 -1.5871 -0.0767  0.8867
 7752TIP3   OH223219   0.917   0.217   0.671  0.2252 -0.0641  0.1481
 7752TIP3    H123220   0.953   0.135   0.637  0.2861 -0.1456  0.4000
 7752TIP3    H223221   0.826   0.218   0.641  0.5943  0.4340 -1.0071
 7753TIP3   OH223222   2.487   0.552   2.679  0.1679  0.5610 -0.3365
 7753TIP3    H123223   2.572   0.509   2.675  0.0154  0.1574  0.5707
 7753TIP3    H223224   2.505   0.644   2.657  0.7789  0.4176 -0.4433
 7754TIP3   OH223225   6.183   6.526   3.339 -0.1574  0.4845  0.1530
 7754TIP3    H123226   6.211   6.580   3.413  0.4929  0.6945 -0.2387
 7754TIP3    H223227   6.156   6.588   3.272  1.5554  0.4095 -0.6839
 7755TIP3   OH223228   4.028   3.431   1.690  0.2495  0.0054 -0.2953
 7755TIP3    H123229   4.111   3.440   1.644 -0.7235 -0.0225 -2.1428
 7755TIP3    H223230   3.965   3.410   1.622 -1.2720 -0.0681  1.0758
 7756TIP3   OH223231   7.109   1.523   4.124 -0.1134  0.2290  0.0744
 7756TIP3    H123232   7.113   1.459   4.195 -0.1362  0.7945  0.5949
 7756TIP3    H223233   7.130   1.473   4.045 -0.6028 -0.5156  0.4058
 7757TIP3   OH223234   5.047   0.257   2.753 -0.1842 -0.0034 -0.2618
 7757TIP3    H123235   5.037   0.205   2.673  1.5771 -0.7166 -0.0535
 7757TIP3    H223236   5.139   0.283   2.754 -0.5616  1.4088  0.6970
 7758TIP3   OH223237   0.656   6.164   3.408  0.1475 -0.2781  0.1220
 7758TIP3    H123238   0.715   6.112   3.354  0.1135 -0.2079  0.0164
 7758TIP3    H223239   0.569   6.141   3.376  0.1039 -0.5634  0.4390
 7759TIP3   OH223240   1.303   6.505   2.477 -0.3590  0.1472  0.4901
 7759TIP3    H123241   1.250   6.431   2.506 -0.9278  0.3243 -0.0659
 7759TIP3    H223242   1.377   6.466   2.431 -0.6978 -0.0793  0.1331
 7760TIP3   OH223243   0.274   0.616   1.847  0.0929  0.5481 -0.2944
 7760TIP3    H123244   0.255   0.550   1.913 -0.8047 -1.0443 -2.0426
 7760TIP3    H223245   0.334   0.573   1.787 -0.5802  1.2664 -1.5209
 7761TIP3   OH223246   2.726   3.365   5.773 -0.0792 -0.1923  0.4509
 7761TIP3    H123247   2.732   3.460   5.769  2.2741 -0.3368 -1.0920
 7761TIP3    H223248   2.649   3.344   5.720  0.6523  0.7948 -1.0768
 7762TIP3   OH223249   1.130   2.498   3.802 -0.4152  0.0873  0.3289
 7762TIP3    H123250   1.211   2.540   3.774  0.3317 -1.9307 -0.7901
 7762TIP3    H223251   1.083   2.565   3.851  1.5095  1.5945  0.2144
 7763TIP3   OH223252   5.988   2.419   2.813 -0.2019  0.4084 -0.4622
 7763TIP3    H123253   5.997   2.466   2.730  0.0373  0.7497 -0.2482
 7763TIP3    H223254   6.078   2.411   2.845 -0.4339  2.4025  0.9221
 7764TIP3   OH223255   6.350   3.174   4.530 -0.3965 -0.0643  0.0089
 7764TIP3    H123256   6.256   3.178   4.544 -0.4069 -0.8227  0.1720
 7764TIP3    H223257   6.386   3.238   4.592 -0.7737 -0.0167  0.1817
 7765TIP3   OH223258   6.544   4.033   3.929 -0.5983 -0.3985 -0.3395
 7765TIP3    H123259   6.551   4.084   3.848  0.2151 -0.4372 -0.3054
 7765TIP3    H223260   6.489   4.086   3.986 -3.3302 -1.4839 -1.7539
 7766TIP3   OH223261   6.572   6.751   2.624 -0.2521  0.1673  0.0956
 7766TIP3    H123262   6.616   6.766   2.707  0.1002  0.3635 -0.1197
 7766TIP3    H223263   6.604   6.665   2.595  3.4828  2.0083 -2.1222
 7767TIP3   OH223264   3.608   6.022   0.791 -0.0773 -0.0447 -0.2518
 7767TIP3    H123265   3.588   6.116   0.794  0.4950  0.0955 -0.6746
 7767TIP3    H223266   3.666   6.008   0.866  0.1237  0.0069 -0.3987
 7768TIP3   OH223267   1.780   6.036   4.117 -0.3603 -0.1645  0.0584
 7768TIP3    H123268   1.801   6.055   4.209  1.2779 -0.7439 -0.1673
 7768TIP3    H223269   1.691   6.002   4.120 -0.2806 -0.3268  1.4603
 7769TIP3   OH223270   2.848   2.115   0.434 -0.1313  0.3608 -0.9372
 7769TIP3    H123271   2.878   2.161   0.513  2.0463 -1.2932 -0.7062
 7769TIP3    H223272   2.911   2.140   0.366  0.2537 -1.1097 -1.1564
 7770TIP3   OH223273   5.701   5.027   5.198  0.3859  0.3577 -0.6581
 7770TIP3    H123274   5.646   5.046   5.122 -0.7367  2.0800  0.4955
 7770TIP3    H223275   5.645   4.976   5.256  0.1841  1.5163  0.2185
 7771TIP3   OH223276   2.744   1.384   3.568  0.2429 -0.0737 -0.2945
 7771TIP3    H123277   2.662   1.376   3.617 -0.1464 -0.6469 -1.0159
 7771TIP3    H223278   2.812   1.386   3.635 -0.3616  0.5737  0.3268
 7772TIP3   OH223279   1.294   0.871   3.316 -0.9557  0.3268 -0.1232
 7772TIP3    H123280   1.292   0.819   3.235 -1.1823  0.5815 -0.2834
 7772TIP3    H223281   1.313   0.960   3.286  0.3321  0.1883  0.2322
 7773TIP3   OH223282   7.055   3.369   4.125 -0.2890  0.2293 -0.3606
 7773TIP3    H123283   7.002   3.444   4.097 -0.7361  0.0963  0.1168
 7773TIP3    H223284   7.114   3.404   4.192  0.0015  0.3041 -0.6510
 7774TIP3   OH223285   4.485   6.356   4.636 -0.1104  0.3645  0.0064
 7774TIP3    H123286   4.535   6.276   4.653  1.8196  1.3357 -0.8553
 7774TIP3    H223287   4.422   6.330   4.568  1.0713 -0.2201 -0.8941
 7775TIP3   OH223288   1.265   5.698   0.997 -0.1441 -0.4467  0.2618
 7775TIP3    H123289   1.203   5.764   1.028  0.3907  0.1632  0.0350
 7775TIP3    H223290   1.314   5.741   0.927  0.8015 -0.7979  0.6930
 7776TIP3   OH223291   2.602   3.130   2.708  0.1659 -0.2545  0.2488
 7776TIP3    H123292   2.691   3.164   2.712  0.2790 -0.5379  0.1634
 7776TIP3    H223293   2.548   3.201   2.742  0.4840 -0.3202  0.8979
 7777TIP3   OH223294   5.313   5.447   3.404  1.0518 -0.0653 -0.5148
 7777TIP3    H123295   5.324   5.460   3.498  1.3819  0.9581 -0.6805
 7777TIP3    H223296   5.263   5.366   3.397  0.6468  0.0703  0.5564
 7778TIP3   OH223297   5.176   3.132   4.565 -0.1331  1.1074  0.1285
 7778TIP3    H123298   5.240   3.061   4.570 -1.1338  0.2249  0.7597
 7778TIP3    H223299   5.185   3.166   4.476  0.3710  0.2041 -0.1799
 7779TIP3   OH223300   3.098   2.868   5.813 -0.4796 -0.5679 -0.1707
 7779TIP3    H123301   3.186   2.840   5.840 -0.2423 -0.5939 -0.9354
 7779TIP3    H223302   3.063   2.914   5.889  0.5487  0.2183 -0.1501
 7780TIP3   OH223303   5.909   1.837   0.725 -0.5041  0.5555 -0.3199
 7780TIP3    H123304   5.915   1.815   0.632 -1.8482  0.0824 -0.3235
 7780TIP3    H223305   5.989   1.803   0.764 -0.7496 -0.8480 -1.0105
 7781TIP3   OH223306   1.720   5.984   2.228 -0.3138  0.1573 -0.5408
 7781TIP3    H123307   1.700   5.894   2.252 -1.4251  0.4905 -0.1125
 7781TIP3    H223308   1.642   6.015   2.183 -0.0802  0.9953 -0.3967
 7782TIP3   OH223309   2.846   3.880   2.979 -0.4416 -0.1506  0.2698
 7782TIP3    H123310   2.783   3.838   2.922 -1.8444 -0.7339  2.1362
 7782TIP3    H223311   2.800   3.957   3.013  1.0358  1.2594 -0.8123
 7783TIP3   OH223312   5.342   1.350   3.950  0.6147  0.0385  0.0428
 7783TIP3    H123313   5.369   1.383   4.036  1.0020 -0.0312 -0.0508
 7783TIP3    H223314   5.370   1.258   3.950  1.7247  0.3623 -0.6232
 7784TIP3   OH223315   1.219   1.793   3.926  0.1129  0.0026 -0.2126
 7784TIP3    H123316   1.160   1.867   3.909 -0.4145  0.0814  1.7581
 7784TIP3    H223317   1.165   1.729   3.973  1.0124 -0.9246 -0.4049
 7785TIP3   OH223318   0.488   1.956   5.398  0.2020  0.1877 -0.0074
 7785TIP3    H123319   0.506   1.952   5.491  0.5021 -0.0053 -0.0702
 7785TIP3    H223320   0.396   1.980   5.392 -0.2420 -1.2882  0.3695
 7786TIP3   OH223321   0.743   2.874   0.414  0.4166  0.9960 -0.0385
 7786TIP3    H123322   0.720   2.955   0.461 -1.7597  0.7206 -0.4968
 7786TIP3    H223323   0.668   2.816   0.428  1.3508 -0.4669 -0.8117
 7787TIP3   OH223324   6.165   1.929   4.628  0.3427 -0.3300  0.0525
 7787TIP3    H123325   6.226   1.949   4.700  1.1861  1.3374 -1.0465
 7787TIP3    H223326   6.084   1.973   4.653  0.3319 -0.5658  0.4332
 7788TIP3   OH223327   1.826   0.343   4.218 -0.2213  0.1702 -0.0769
 7788TIP3    H123328   1.819   0.259   4.264 -0.7158  0.7364  0.9336
 7788TIP3    H223329   1.757   0.397   4.258 -0.3798  0.8245 -1.2120
 7789TIP3   OH223330   3.797   4.097   3.385 -0.3535 -0.0387 -0.2275
 7789TIP3    H123331   3.849   4.169   3.421 -1.0855 -1.0676  3.1678
 7789TIP3    H223332   3.724   4.141   3.341  0.2716  1.3249  0.0358
 7790TIP3   OH223333   4.071   0.800   5.219 -0.5338  0.1199  0.8238
 7790TIP3    H123334   4.074   0.715   5.174 -1.4474  0.7699 -0.5343
 7790TIP3    H223335   4.006   0.787   5.288 -2.2314  0.2432 -0.6621
 7791TIP3   OH223336   2.565   6.675   0.433  0.3752 -0.0023  0.0329
 7791TIP3    H123337   2.613   6.632   0.503  2.1869  0.6569 -0.7298
 7791TIP3    H223338   2.577   6.617   0.357  1.1647  0.8192 -0.4990
 7792TIP3   OH223339   6.671   1.113   4.709  0.8654  0.6583  0.4652
 7792TIP3    H123340   6.713   1.041   4.662  0.3006 -1.0523  2.4401
 7792TIP3    H223341   6.713   1.113   4.795 -3.1128 -1.3872  2.7157
 7793TIP3   OH223342   3.160   4.278   3.137 -0.3416  0.5216 -0.3707
 7793TIP3    H123343   3.233   4.306   3.193  2.1604  0.4405 -3.2563
 7793TIP3    H223344   3.151   4.349   3.073 -2.6472  0.3733 -0.2756
 7794TIP3   OH223345   6.911   4.037   2.381  0.3217 -0.1842 -0.4550
 7794TIP3    H123346   7.006   4.040   2.370  0.2735 -0.9324 -1.1860
 7794TIP3    H223347   6.889   3.944   2.372 -0.2117 -0.3836  2.1011
 7795TIP3   OH223348   0.573   0.408   2.771  0.3935  0.1228  0.4919
 7795TIP3    H123349   0.606   0.319   2.781  0.1962  0.2968  3.4930
 7795TIP3    H223350   0.501   0.415   2.834 -1.0192  1.7946 -1.1711
 7796TIP3   OH223351   2.958   3.446   3.090  0.0513 -0.5698 -0.3403
 7796TIP3    H123352   2.901   3.465   3.016 -0.8353 -4.1829 -0.7802
 7796TIP3    H223353   3.047   3.457   3.056 -0.3591 -0.1471 -1.2899
 7797TIP3   OH223354   2.242   1.442   0.596 -0.4862  0.2773  0.1457
 7797TIP3    H123355   2.252   1.426   0.689 -0.1083  1.8809  0.4066
 7797TIP3    H223356   2.216   1.357   0.560  1.5753 -0.9557  1.3544
 7798TIP3   OH223357   4.521   4.722   0.958 -0.0590  0.7374  0.2548
 7798TIP3    H123358   4.570   4.754   0.882 -0.0262  0.5725  0.2066
 7798TIP3    H223359   4.589   4.702   1.022  0.0148 -0.5324 -0.2016
 7799TIP3   OH223360   5.762   5.360   2.578 -0.0878 -0.1024 -0.0925
 7799TIP3    H123361   5.668   5.370   2.559 -0.0290  0.2814 -0.1864
 7799TIP3    H223362   5.777   5.415   2.654 -0.1621 -1.0499  0.6191
 7800TIP3   OH223363   5.552   5.968   5.232 -0.1184 -0.0061 -0.3786
 7800TIP3    H123364   5.472   5.946   5.183 -0.3892  0.5003 -0.1792
 7800TIP3    H223365   5.539   5.927   5.317 -0.2173  0.1593 -0.3120
 7801TIP3   OH223366   6.348   2.110   3.873  0.4979 -0.6147 -0.3680
 7801TIP3    H123367   6.266   2.153   3.898  0.4413  0.2863 -1.9611
 7801TIP3    H223368   6.368   2.146   3.786  0.7949 -3.3443 -1.5224
 7802TIP3   OH223369   3.371   3.828   3.875  0.7665 -0.1098 -0.4440
 7802TIP3    H123370   3.409   3.794   3.956  2.0973 -1.1475 -1.4612
 7802TIP3    H223371   3.305   3.763   3.851  1.2932 -0.4994 -0.8659
 7803TIP3   OH223372   4.270   4.396   3.839  0.3505 -0.0447 -0.1961
 7803TIP3    H123373   4.218   4.354   3.771 -0.2171 -0.0187  0.2147
 7803TIP3    H223374   4.244   4.352   3.920  1.3706 -0.4049 -0.0512
 7804TIP3   OH223375   5.004   2.827   3.905 -0.6528  0.2922  0.1144
 7804TIP3    H123376   5.091   2.797   3.933 -0.8976  1.0133  1.7893
 7804TIP3    H223377   4.975   2.761   3.842  0.9646 -0.1350 -0.2507
 7805TIP3   OH223378   4.267   1.465   4.699 -0.4976 -0.0592 -0.4327
 7805TIP3    H123379   4.188   1.454   4.646 -0.8152  0.4238 -0.0765
 7805TIP3    H223380   4.324   1.392   4.674 -0.5031  0.3449 -1.6634
 7806TIP3   OH223381   1.284   2.882   3.372 -0.8591  0.6682 -0.1350
 7806TIP3    H123382   1.268   2.821   3.300  1.4188 -0.0438 -0.1168
 7806TIP3    H223383   1.373   2.862   3.401 -0.6770  2.8570  1.0245
 7807TIP3   OH223384   0.512   0.906   4.823 -0.6362  0.1302  0.0450
 7807TIP3    H123385   0.507   0.979   4.761  0.6501  1.5747  1.5500
 7807TIP3    H223386   0.590   0.924   4.875 -0.4069 -2.2435  0.6239
 7808TIP3   OH223387   6.646   3.368   3.367 -0.8917 -0.7074  0.6568
 7808TIP3    H123388   6.558   3.335   3.349 -1.5978  1.9492 -1.4505
 7808TIP3    H223389   6.701   3.325   3.302 -0.6550 -2.0246  1.6835
 7809TIP3   OH223390   1.355   1.672   4.568  0.1134 -0.1198  0.4221
 7809TIP3    H123391   1.376   1.679   4.475 -2.1106  0.4204 -0.1050
 7809TIP3    H223392   1.263   1.647   4.570  0.5185 -1.7791  2.5071
 7810TIP3   OH223393   6.304   4.000   1.215  0.4423  0.5240 -0.4719
 7810TIP3    H123394   6.250   4.029   1.289 -0.1350  1.5116 -1.2519
 7810TIP3    H223395   6.280   3.908   1.203  0.1141  0.5150  0.2060
 7811TIP3   OH223396   3.250   2.098   4.170 -0.0116 -0.1462 -0.3697
 7811TIP3    H123397   3.202   2.047   4.105 -1.0535  0.9737 -0.5210
 7811TIP3    H223398   3.222   2.188   4.156  1.3336  0.4116  0.2712
 7812TIP3   OH223399   3.652   2.942   4.851 -0.1867  0.2410  0.0199
 7812TIP3    H123400   3.714   2.965   4.920  2.4728 -1.2042 -1.7031
 7812TIP3    H223401   3.619   2.856   4.876 -0.6027  0.4943  0.3515
 7813TIP3   OH223402   5.836   2.101   1.552  0.3497  0.4019 -0.6443
 7813TIP3    H123403   5.798   2.163   1.613 -1.7253 -0.8835 -0.5226
 7813TIP3    H223404   5.912   2.146   1.516  0.2920  2.0680  1.1570
 7814TIP3   OH223405   6.768   3.749   5.485  0.0515  0.6062  0.0650
 7814TIP3    H123406   6.689   3.699   5.505 -0.3479  0.5133 -1.6419
 7814TIP3    H223407   6.839   3.685   5.489 -0.2693  0.1916 -0.6398
 7815TIP3   OH223408   5.220   1.222   5.484 -0.0149  0.1927 -0.0475
 7815TIP3    H123409   5.260   1.179   5.408 -0.3991  0.0184 -0.1584
 7815TIP3    H223410   5.146   1.165   5.506  0.2659  0.0904  0.6392
 7816TIP3   OH223411   5.200   0.353   1.821  0.1238  0.4727  0.3027
 7816TIP3    H123412   5.276   0.410   1.838  1.9791 -1.8633  0.3558
 7816TIP3    H223413   5.224   0.305   1.742 -1.6863  0.2237 -0.1276
 7817TIP3   OH223414   7.057   6.381   4.099  0.0882 -0.6934 -0.2055
 7817TIP3    H123415   6.972   6.425   4.107 -0.1397 -0.6509 -2.3716
 7817TIP3    H223416   7.121   6.447   4.123 -0.4494 -0.6238  1.1237
 7818TIP3   OH223417   5.313   6.572   4.492  0.5363 -0.2073  0.5404
 7818TIP3    H123418   5.281   6.606   4.409  0.5090 -0.3659  0.4842
 7818TIP3    H223419   5.247   6.507   4.518  0.7476 -0.4478  0.4830
 7819TIP3   OH223420   7.217   3.491   5.739 -0.0806  0.0597  0.0871
 7819TIP3    H123421   7.133   3.469   5.700  0.7842 -0.1387 -1.7995
 7819TIP3    H223422   7.205   3.477   5.833 -2.5086  1.2862  0.0329
 7820TIP3   OH223423   0.418   5.741   1.026  0.0195 -0.1949  0.6988
 7820TIP3    H123424   0.462   5.825   1.035 -0.5148  0.3823 -1.5325
 7820TIP3    H223425   0.463   5.699   0.952 -1.0862 -0.9472  0.4374
 7821TIP3   OH223426   1.571   4.011   0.322 -0.0593 -0.6561  0.2659
 7821TIP3    H123427   1.592   3.988   0.232  1.7045  1.5484  0.0263
 7821TIP3    H223428   1.488   4.059   0.315  0.8152  0.8215 -0.4476
 7822TIP3   OH223429   6.930   4.060   2.692 -0.1210  0.5032 -0.4641
 7822TIP3    H123430   6.969   4.130   2.640 -1.0179  0.2040 -1.5853
 7822TIP3    H223431   6.974   3.981   2.663 -0.1745  0.4101 -0.2951
 7823TIP3   OH223432   1.937   5.647   5.693  0.0787 -0.3352  0.2932
 7823TIP3    H123433   1.977   5.656   5.780  0.1855 -0.2816  0.2388
 7823TIP3    H223434   1.999   5.690   5.634 -0.5903  0.7178  0.3484
 7824TIP3   OH223435   6.788   4.144   5.178  0.1100  0.0006 -0.1938
 7824TIP3    H123436   6.793   4.054   5.145 -0.6758 -0.2662  0.3978
 7824TIP3    H223437   6.816   4.138   5.269  2.3584  0.7499 -0.7531
 7825TIP3   OH223438   4.123   0.937   2.286 -0.1493 -0.6358 -0.0349
 7825TIP3    H123439   4.101   0.845   2.298  0.3542 -0.5961  1.4280
 7825TIP3    H223440   4.207   0.947   2.331 -1.4150  1.0847  2.1011
 7826TIP3   OH223441   0.971   3.440   5.099 -0.4045  0.3800  0.1971
 7826TIP3    H123442   0.925   3.491   5.033 -0.7074 -2.4773 -1.9955
 7826TIP3    H223443   1.060   3.433   5.067 -1.2453 -3.7347 -1.9546
 7827TIP3   OH223444   5.915   3.338   3.411  0.3104 -0.0303  0.0643
 7827TIP3    H123445   5.967   3.384   3.477 -0.5146 -0.3935  0.9755
 7827TIP3    H223446   5.866   3.273   3.459 -0.4318 -0.1987 -0.8887
 7828TIP3   OH223447   2.044   5.355   2.496 -0.1927 -0.3759  0.2358
 7828TIP3    H123448   2.109   5.333   2.562 -0.0073 -0.3067  0.0764
 7828TIP3    H223449   2.064   5.445   2.471 -1.4586  0.2886  1.4780
 7829TIP3   OH223450   4.555   0.481   0.015 -0.0635 -0.2363  0.0921
 7829TIP3    H123451   4.551   0.566  -0.030  3.4897  1.0553  1.8151
 7829TIP3    H223452   4.494   0.490   0.089  0.9334  1.2543  0.7842
 7830TIP3   OH223453   1.479   3.798   5.768  0.0220  0.1623  0.3199
 7830TIP3    H123454   1.407   3.782   5.829  0.9607 -0.2466  1.3633
 7830TIP3    H223455   1.438   3.838   5.692 -1.3684 -0.4621  0.7089
 7831TIP3   OH223456   1.527   0.693   0.828  0.2400  0.2657 -0.2554
 7831TIP3    H123457   1.577   0.634   0.884  2.0822  0.4077 -1.6635
 7831TIP3    H223458   1.475   0.746   0.889 -0.2042 -1.6394  1.1183
 7832TIP3   OH223459   6.267   1.882   0.179  0.4213 -0.0521 -0.7574
 7832TIP3    H123460   6.184   1.927   0.191  0.5877  0.2771 -0.8169
 7832TIP3    H223461   6.306   1.923   0.102  0.4761 -0.4528 -0.9472
 7833TIP3   OH223462   4.836   6.037   2.791  0.0442  0.1316 -0.0841
 7833TIP3    H123463   4.924   6.005   2.770  0.3726  0.9553  0.0214
 7833TIP3    H223464   4.787   5.958   2.814  0.4221 -0.4813 -1.2937
 7834TIP3   OH223465   1.897   4.679   2.512 -0.6152 -0.6894 -0.0253
 7834TIP3    H123466   1.822   4.682   2.453 -1.0682 -1.4043  0.4911
 7834TIP3    H223467   1.925   4.587   2.511  1.8819 -0.0483 -2.1738
 7835TIP3   OH223468   3.342   1.201   1.169 -0.4389 -0.3841  0.0086
 7835TIP3    H123469   3.264   1.186   1.116 -1.6546 -1.0745  1.8763
 7835TIP3    H223470   3.414   1.164   1.117 -1.6411 -1.5096 -0.9199
 7836TIP3   OH223471   2.714   5.164   3.771  0.2465  0.3095  0.9262
 7836TIP3    H123472   2.635   5.178   3.719  0.1154  1.4051  1.3923
 7836TIP3    H223473   2.778   5.225   3.733  1.4182 -1.7315 -0.5302
 7837TIP3   OH223474   0.690   1.815   4.855  0.2186 -0.3091  0.6018
 7837TIP3    H123475   0.614   1.822   4.914  0.2157  0.2883  0.5352
 7837TIP3    H223476   0.743   1.893   4.874 -0.2425  0.4024 -0.8124
 7838TIP3   OH223477   4.383   1.315   0.966 -0.3958  0.3211  0.3164
 7838TIP3    H123478   4.446   1.244   0.978  0.3419  0.3913 -2.4789
 7838TIP3    H223479   4.419   1.387   1.018  1.7674  0.2745 -0.9673
 7839TIP3   OH223480   3.946   3.438   4.885  0.2087 -0.1428  0.1337
 7839TIP3    H123481   3.905   3.378   4.823  1.8511 -1.0423 -0.1620
 7839TIP3    H223482   3.984   3.507   4.831  1.5441 -0.8657  0.1143
 7840TIP3   OH223483   6.367   4.634   0.855 -0.4159  0.2669  0.2229
 7840TIP3    H123484   6.372   4.723   0.821 -1.0516  0.0478 -0.4725
 7840TIP3    H223485   6.337   4.643   0.945 -0.0528  0.7762  0.2972
 7841TIP3   OH223486   1.259   3.274   1.144 -0.4449 -0.0294  0.3056
 7841TIP3    H123487   1.348   3.242   1.125 -0.5605 -0.6328  0.7481
 7841TIP3    H223488   1.242   3.339   1.076 -0.9677 -2.3118 -1.9453
 7842TIP3   OH223489   5.323   0.407   2.435  0.2223 -0.1758 -0.7430
 7842TIP3    H123490   5.256   0.475   2.436  0.3407 -0.0624 -0.5951
 7842TIP3    H223491   5.402   0.451   2.405 -0.1057 -0.6177 -2.3589
 7843TIP3   OH223492   4.151   0.264   3.725  0.4095 -0.0686  0.3908
 7843TIP3    H123493   4.058   0.286   3.718  0.2167 -0.6969  0.8863
 7843TIP3    H223494   4.167   0.206   3.651  0.7530  1.1596 -0.5148
 7844TIP3   OH223495   2.658   6.200   5.812 -0.0587 -0.6064 -0.3748
 7844TIP3    H123496   2.740   6.173   5.852 -0.2034 -0.7107 -0.1489
 7844TIP3    H223497   2.627   6.272   5.868  0.5760  0.3831 -1.2503
 7845TIP3   OH223498   1.606   0.605   5.761  0.4353 -0.2471  0.2755
 7845TIP3    H123499   1.623   0.542   5.690  0.1485 -0.2833  0.2394
 7845TIP3    H223500   1.553   0.556   5.824  0.2473 -0.0537  0.2675
 7846TIP3   OH223501   6.734   3.253   4.165  0.6595 -0.2360  0.7494
 7846TIP3    H123502   6.808   3.297   4.208 -0.0183  2.4246 -0.5931
 7846TIP3    H223503   6.672   3.236   4.235  0.6643  1.6613  1.2528
 7847TIP3   OH223504   1.661   1.005   2.580  0.8601  0.4962 -0.0863
 7847TIP3    H123505   1.681   1.028   2.671  1.0636 -1.9742  0.5579
 7847TIP3    H223506   1.743   0.967   2.547  0.1052 -0.8447 -0.4954
 7848TIP3   OH223507   0.660   3.436   0.338  0.3052  0.2016 -0.0393
 7848TIP3    H123508   0.644   3.351   0.297 -0.8937 -0.2874  1.3564
 7848TIP3    H223509   0.716   3.418   0.412  0.4103  0.7049  0.0116
 7849TIP3   OH223510   0.214   1.824   0.411  0.1283 -0.4529 -0.1462
 7849TIP3    H123511   0.274   1.836   0.338 -0.5764 -1.0728 -0.8436
 7849TIP3    H223512   0.174   1.910   0.424 -1.2739 -0.7803 -1.8915
 7850TIP3   OH223513   2.454   1.557   2.480 -0.3215 -0.9152  0.8668
 7850TIP3    H123514   2.504   1.592   2.407 -2.9786 -0.9228 -1.0932
 7850TIP3    H223515   2.520   1.541   2.549  2.0214  0.7600 -0.8301
 7851TIP3   OH223516   1.444   3.311   1.415 -0.4979  0.6734 -0.4582
 7851TIP3    H123517   1.534   3.304   1.383  0.0483  0.5521  1.0354
 7851TIP3    H223518   1.425   3.405   1.414  0.6019  0.9690  1.6598
 7852TIP3   OH223519   0.192   6.178   0.408 -0.6323 -0.1212  0.1362
 7852TIP3    H123520   0.137   6.248   0.374 -0.9352 -1.0751 -1.4322
 7852TIP3    H223521   0.156   6.159   0.495 -0.8725  1.2687  0.3645
 7853TIP3   OH223522   0.524   0.487   2.193  0.3034  0.1786 -0.2558
 7853TIP3    H123523   0.552   0.471   2.283  1.6412  0.8803 -0.5204
 7853TIP3    H223524   0.445   0.541   2.201 -0.3384 -0.8526  0.5038
 7854TIP3   OH223525   1.189   4.549   5.770 -0.3867  0.1174 -0.2579
 7854TIP3    H123526   1.231   4.493   5.836 -0.6977 -0.9570 -0.9514
 7854TIP3    H223527   1.224   4.636   5.788 -0.1812 -0.2136  1.0949
 7855TIP3   OH223528   2.622   1.658   5.238 -0.0079  0.2175 -0.1548
 7855TIP3    H123529   2.538   1.623   5.207 -1.8761  1.5999  2.8776
 7855TIP3    H223530   2.608   1.753   5.246  1.9794  0.5475  0.0547
 7856TIP3   OH223531   6.835   5.975   3.938  0.3169 -0.0365 -0.3153
 7856TIP3    H123532   6.899   5.931   3.882  0.2598 -0.4717 -0.0399
 7856TIP3    H223533   6.884   6.004   4.014  0.3922  0.5507 -0.5779
 7857TIP3   OH223534   6.760   0.560   4.879  0.0128  0.0774  0.2078
 7857TIP3    H123535   6.830   0.512   4.922  0.3817  0.3016 -0.1356
 7857TIP3    H223536   6.744   0.511   4.798 -0.6690 -0.3375  0.5773
 7858TIP3   OH223537   4.433   2.634   1.906  0.7676  0.1651 -0.3033
 7858TIP3    H123538   4.467   2.721   1.930 -1.2480  0.4106  2.0940
 7858TIP3    H223539   4.398   2.646   1.818  2.1329  1.2646 -0.7384
 7859TIP3   OH223540   2.413  -0.027   5.859  0.4446  0.0116 -0.3499
 7859TIP3    H123541   2.324   0.006   5.870  0.1330 -0.5307 -1.1160
 7859TIP3    H223542   2.449   0.024   5.786  0.3366 -0.5918 -0.8290
 7860TIP3   OH223543   4.122   4.045   0.238  0.3102  0.6003  0.1831
 7860TIP3    H123544   4.091   4.121   0.188 -0.7284  0.1617  0.1360
 7860TIP3    H223545   4.217   4.046   0.226  0.1122  0.4309 -1.9619
 7861TIP3   OH223546   2.616   4.531   0.751 -0.0234  0.3113  0.8239
 7861TIP3    H123547   2.523   4.554   0.751 -0.0616  0.1755  1.2907
 7861TIP3    H223548   2.625   4.469   0.679 -0.3675  0.0525  0.9956
 7862TIP3   OH223549   1.283   5.086   1.643 -0.5728  0.0362  0.0110
 7862TIP3    H123550   1.338   5.008   1.633  1.8791  1.4880  1.2201
 7862TIP3    H223551   1.320   5.149   1.581 -1.6843  0.6906 -0.0182
 7863TIP3   OH223552   3.289   6.273   2.501  0.1387  0.5663 -0.2781
 7863TIP3    H123553   3.343   6.194   2.504  0.7863  1.0134  0.9832
 7863TIP3    H223554   3.199   6.241   2.500  0.3864 -0.2127  0.5452
 7864TIP3   OH223555   1.020   4.165   1.219 -0.0680  0.1663  0.1040
 7864TIP3    H123556   0.936   4.202   1.189 -0.1574 -0.7052 -0.7822
 7864TIP3    H223557   1.079   4.240   1.221 -0.8011  0.7523  0.4963
 7865TIP3   OH223558   3.422   5.263   3.844  0.3328  0.1843  0.0679
 7865TIP3    H123559   3.463   5.272   3.758  1.3764 -1.8764  0.2704
 7865TIP3    H223560   3.381   5.176   3.842 -0.5648  0.5445  1.2938
 7866TIP3   OH223561   6.194   3.981   4.884 -0.0947  0.3446 -0.3292
 7866TIP3    H123562   6.276   4.029   4.897 -1.2119  1.9176  1.2649
 7866TIP3    H223563   6.222   3.891   4.866  1.9904  1.0135 -0.7421
 7867TIP3   OH223564   1.254   1.682   5.161  0.0633 -0.4222  0.2448
 7867TIP3    H123565   1.327   1.626   5.134 -0.1491 -0.5957  0.0315
 7867TIP3    H223566   1.229   1.728   5.081  0.5644  0.3528  0.5218
 7868TIP3   OH223567   5.913   2.155   4.745  0.2288  0.0586 -0.5533
 7868TIP3    H123568   5.916   2.236   4.694 -2.6680  0.2506 -0.5649
 7868TIP3    H223569   5.882   2.089   4.683  0.3046 -0.5486  0.0461
 7869TIP3   OH223570   5.528   1.092   5.696 -0.1466 -0.3640  0.0900
 7869TIP3    H123571   5.510   1.165   5.637  0.6008 -0.7582 -0.6455
 7869TIP3    H223572   5.489   1.119   5.780  0.9451  1.3125  0.1145
 7870TIP3   OH223573   3.756   0.090   4.801  0.0234  0.2668 -0.7947
 7870TIP3    H123574   3.773   0.178   4.835  0.0964 -1.2165  3.6684
 7870TIP3    H223575   3.660   0.083   4.799  0.0149  0.1508 -0.1585
 7871TIP3   OH223576   1.337   4.772   2.028  0.4014 -0.1805 -0.4524
 7871TIP3    H123577   1.395   4.729   1.964 -1.4432  1.8370 -3.8039
 7871TIP3    H223578   1.263   4.712   2.037  1.1078 -0.9206  0.6599
 7872TIP3   OH223579   1.249   2.172   5.508 -0.2100 -0.5185  0.2302
 7872TIP3    H123580   1.293   2.186   5.425 -2.4469  3.5651 -0.5539
 7872TIP3    H223581   1.301   2.221   5.572 -0.9209  0.2170  0.2641
 7873TIP3   OH223582   5.713   3.665   0.024 -0.2301 -0.2678 -0.0739
 7873TIP3    H123583   5.760   3.632  -0.052 -0.7329 -1.5693  0.1551
 7873TIP3    H223584   5.780   3.675   0.091  0.2267  0.9512 -0.6814
 7874TIP3   OH223585   1.642   1.994   1.274  0.0571  0.2812  0.9291
 7874TIP3    H123586   1.698   2.070   1.289 -1.3275  1.4345  0.4336
 7874TIP3    H223587   1.575   2.025   1.213  1.4263 -2.2573 -2.1807
 7875TIP3   OH223588   2.080   3.953   2.257 -0.0387 -0.0636 -0.0311
 7875TIP3    H123589   2.031   4.011   2.198 -0.0495  0.8928  0.8894
 7875TIP3    H223590   2.133   3.898   2.198 -0.5618  0.3846 -0.9497
 7876TIP3   OH223591   2.526   0.408   2.956  0.4432 -0.3925 -0.4520
 7876TIP3    H123592   2.444   0.422   2.909  0.8039  1.3182 -0.6252
 7876TIP3    H223593   2.559   0.496   2.974  0.8699 -0.9942  2.0823
 7877TIP3   OH223594   2.383   4.872   2.732  0.0694 -0.3221 -0.0109
 7877TIP3    H123595   2.364   4.782   2.702 -1.6624  0.0740 -0.1866
 7877TIP3    H223596   2.350   4.875   2.822 -1.5834  0.6324 -0.6076
 7878TIP3   OH223597   0.444   6.448   3.152 -0.2307 -0.1696  0.1431
 7878TIP3    H123598   0.427   6.467   3.244 -0.2528  0.0096  0.1028
 7878TIP3    H223599   0.400   6.519   3.104  0.8566  0.4627  0.0494
 7879TIP3   OH223600   1.568   2.241   2.737  0.4025 -0.2457  0.5409
 7879TIP3    H123601   1.612   2.167   2.697  0.6536 -0.5029  1.2679
 7879TIP3    H223602   1.548   2.300   2.664 -0.2051 -1.2245 -0.1021
 7880TIP3   OH223603   6.679   2.468   3.095 -0.5793  0.4195 -0.1423
 7880TIP3    H123604   6.632   2.389   3.121  1.0504 -1.1361 -1.5982
 7880TIP3    H223605   6.724   2.497   3.175  1.9381 -2.5022 -0.2948
 7881TIP3   OH223606   2.077   5.395   5.498 -0.3854 -0.1957 -0.1596
 7881TIP3    H123607   2.074   5.423   5.589  0.4393  0.7387 -0.3955
 7881TIP3    H223608   2.036   5.309   5.497  2.2559 -1.6129  1.6235
 7882TIP3   OH223609   0.429   5.408   2.330  0.8165  0.4897  0.1011
 7882TIP3    H123610   0.512   5.366   2.306  1.3811  1.7393 -0.2151
 7882TIP3    H223611   0.365   5.370   2.270  1.1780 -0.3878  0.2546
 7883TIP3   OH223612   7.081   6.233   2.500 -0.3644  0.2042  0.1856
 7883TIP3    H123613   7.053   6.324   2.489  0.6932  0.3359 -1.9137
 7883TIP3    H223614   7.174   6.239   2.521 -0.3897 -0.3950  0.4939
 7884TIP3   OH223615   2.584   0.569   5.104 -0.2171  0.4426  0.3975
 7884TIP3    H123616   2.589   0.635   5.034 -0.9997  2.3635  2.0656
 7884TIP3    H223617   2.490   0.551   5.113  0.0396 -2.0883 -0.9898
 7885TIP3   OH223618   7.093   1.603   1.802 -0.0076 -0.0668 -0.6631
 7885TIP3    H123619   7.044   1.525   1.828 -0.8361  0.6031 -0.2028
 7885TIP3    H223620   7.184   1.574   1.800 -0.1355 -0.6568  1.0207
 7886TIP3   OH223621   1.590   4.640   4.663  0.1523 -1.0607 -0.2205
 7886TIP3    H123622   1.552   4.568   4.612 -1.6349 -0.5531  0.3519
 7886TIP3    H223623   1.662   4.672   4.608 -2.8417  0.7241 -3.4844
 7887TIP3   OH223624   0.747   5.510   2.254  0.0607  0.0661  0.2001
 7887TIP3    H123625   0.836   5.546   2.257 -0.0568  0.2922  1.2740
 7887TIP3    H223626   0.693   5.584   2.225  0.1072  0.1571  0.3448
 7888TIP3   OH223627   2.885   0.712   0.690  0.1732  0.4509 -0.0502
 7888TIP3    H123628   2.881   0.702   0.595 -4.3754 -1.6317  0.0969
 7888TIP3    H223629   2.978   0.721   0.710  1.6569 -2.2962 -4.4223
 7889TIP3   OH223630   6.022   0.371   4.956 -0.4443  0.0113  0.3524
 7889TIP3    H123631   6.064   0.302   5.008 -1.4495 -1.1614 -0.3318
 7889TIP3    H223632   6.025   0.449   5.012  4.1031  0.5597 -0.2130
 7890TIP3   OH223633   4.269  -0.027   3.852  0.4940  0.3882  0.3953
 7890TIP3    H123634   4.235   0.044   3.905  0.1476  0.2574  0.3501
 7890TIP3    H223635   4.228  -0.016   3.766 -0.5918 -0.6233  0.7566
 7891TIP3   OH223636   3.047   5.917   5.111  0.0283  0.2925  0.1891
 7891TIP3    H123637   3.096   5.962   5.042 -3.0911  1.3612 -1.4805
 7891TIP3    H223638   2.956   5.920   5.083 -1.1962 -0.8623  3.5070
 7892TIP3   OH223639   6.079   2.770   4.251  0.3869 -0.0302  0.6197
 7892TIP3    H123640   6.080   2.799   4.160 -0.9196 -0.2607  0.5098
 7892TIP3    H223641   6.159   2.718   4.261 -0.1862 -1.2826 -0.8410
 7893TIP3   OH223642   6.566   3.847   4.293 -0.1957 -0.4367  0.4724
 7893TIP3    H123643   6.600   3.926   4.334 -0.5692 -0.0293  0.0152
 7893TIP3    H223644   6.640   3.813   4.241  0.8562 -1.9249  2.7664
 7894TIP3   OH223645   1.440   6.628   0.579 -0.6476 -0.2470  0.4792
 7894TIP3    H123646   1.440   6.533   0.568  0.7783 -0.0608 -1.7214
 7894TIP3    H223647   1.360   6.657   0.535 -0.2193 -0.3343 -0.3894
 7895TIP3   OH223648   2.722   3.724   1.469  0.5203  0.3663  0.4200
 7895TIP3    H123649   2.719   3.794   1.403 -0.7523 -0.9536 -0.9921
 7895TIP3    H223650   2.794   3.668   1.443  0.9038  0.5907  0.9765
 7896TIP3   OH223651   2.937   1.617   0.940  0.1539  0.0614 -0.0583
 7896TIP3    H123652   2.956   1.524   0.924  0.0850  0.0402 -0.0173
 7896TIP3    H223653   2.851   1.617   0.981  0.4782  0.0925  0.6404
 7897TIP3   OH223654   7.192   2.636   0.270 -0.7768 -0.1524 -0.0427
 7897TIP3    H123655   7.168   2.657   0.180 -0.8754 -0.4780 -0.0940
 7897TIP3    H223656   7.255   2.564   0.261 -0.8891 -0.2744  0.1532
 7898TIP3   OH223657   1.042   1.221   2.869 -0.0436 -0.2057 -0.5770
 7898TIP3    H123658   1.083   1.153   2.815 -1.1488 -1.3872  0.0157
 7898TIP3    H223659   1.042   1.185   2.958 -0.7369  0.5307 -0.2627
 7899TIP3   OH223660   5.093   0.451   0.826 -0.6415  0.0981  0.7064
 7899TIP3    H123661   5.159   0.432   0.760 -2.4479  0.6629 -1.3471
 7899TIP3    H223662   5.120   0.535   0.863  0.9283 -0.7015  1.4665
 7900TIP3   OH223663   2.823   4.380   2.296  0.0502  0.4177 -0.0556
 7900TIP3    H123664   2.736   4.392   2.333  0.3381  0.3063  0.6846
 7900TIP3    H223665   2.881   4.380   2.372  0.7142  0.6764 -0.5556
 7901TIP3   OH223666   1.188   0.893   2.392 -0.0844 -0.8316 -0.7015
 7901TIP3    H123667   1.206   0.857   2.305 -0.0674 -0.6721 -0.7646
 7901TIP3    H223668   1.267   0.876   2.442 -0.2071 -1.1936 -0.6288
 7902TIP3   OH223669   4.459   5.609   5.198 -0.7819 -0.0347 -0.3157
 7902TIP3    H123670   4.461   5.623   5.103  1.0591  1.4769 -0.1281
 7902TIP3    H223671   4.486   5.517   5.209 -0.1029  0.0345 -1.2484
 7903TIP3   OH223672   2.133   0.934   1.026 -0.8139  0.7281 -0.3564
 7903TIP3    H123673   2.087   0.850   1.024 -1.7871  0.8649  4.1414
 7903TIP3    H223674   2.224   0.911   1.045 -1.2659  0.5624  1.9189
 7904TIP3   OH223675   6.822   2.976   5.377  0.1867  0.3080 -0.2090
 7904TIP3    H123676   6.860   3.060   5.401  1.5045 -0.7142  1.5133
 7904TIP3    H223677   6.863   2.954   5.293  1.9575  0.1620  0.6493
 7905TIP3   OH223678   6.233   6.141   2.826  0.0570 -0.2381 -0.0427
 7905TIP3    H123679   6.272   6.122   2.740 -0.9021  0.2490 -0.6084
 7905TIP3    H223680   6.306   6.136   2.887  0.6544 -1.2091 -0.8018
 7906TIP3   OH223681   5.384   4.336   4.528 -0.0206  0.7264  0.2591
 7906TIP3    H123682   5.465   4.318   4.577  1.0365 -0.6133 -1.8393
 7906TIP3    H223683   5.413   4.381   4.449 -1.1331 -0.8413 -1.1185
 7907TIP3   OH223684   6.700   6.393   3.117  0.0544 -0.0125  0.0386
 7907TIP3    H123685   6.765   6.368   3.182  0.5852  0.2479 -0.3847
 7907TIP3    H223686   6.620   6.349   3.145  0.0105  0.8850  1.4296
 7908TIP3   OH223687   4.550   2.688   0.391 -0.6486  0.4188 -0.1759
 7908TIP3    H123688   4.519   2.658   0.305 -1.8222 -0.5531  0.5637
 7908TIP3    H223689   4.492   2.760   0.414 -0.1944  0.8258 -0.2755
 7909TIP3   OH223690   0.970   6.330   1.195  0.0047 -0.2956  0.0594
 7909TIP3    H123691   0.943   6.238   1.194  0.3660 -0.4030 -0.1781
 7909TIP3    H223692   0.993   6.347   1.287 -0.6279 -0.2695  0.2157
 7910TIP3   OH223693   2.171   5.070   5.678  0.1613 -0.4455  0.1489
 7910TIP3    H123694   2.142   4.980   5.692  0.4091 -0.3113  1.7355
 7910TIP3    H223695   2.103   5.124   5.718  0.1035  0.0817 -0.6341
 7911TIP3   OH223696   6.836   3.061   4.009  0.0429  0.1446  0.5288
 7911TIP3    H123697   6.919   3.099   3.980 -0.9410  0.9390 -1.4233
 7911TIP3    H223698   6.791   3.134   4.052 -0.3097  0.1831  0.1032
 7912TIP3   OH223699   2.117   3.817   0.665  0.5267 -0.5426  0.0285
 7912TIP3    H123700   2.046   3.846   0.722 -0.7119 -2.4237 -0.4483
 7912TIP3    H223701   2.196   3.834   0.716 -0.2209  1.5595  0.6016
 7913TIP3   OH223702   2.197   4.218   5.754 -0.4170 -0.3394  0.1605
 7913TIP3    H123703   2.286   4.254   5.762 -0.9834  0.8128  1.5176
 7913TIP3    H223704   2.168   4.249   5.668 -0.0211  0.4738  0.3048
 7914TIP3   OH223705   6.574   0.049   2.369  0.0958  0.6536  0.1867
 7914TIP3    H123706   6.605   0.072   2.456 -0.3344  2.1751 -0.0221
 7914TIP3    H223707   6.490   0.094   2.361 -0.0083  0.2987 -0.8969
 7915TIP3   OH223708   1.480   6.104   1.920 -0.0851  0.0200 -0.0273
 7915TIP3    H123709   1.565   6.146   1.905 -0.3038  1.0889  1.4716
 7915TIP3    H223710   1.417   6.175   1.910 -0.5343 -0.0731  1.7391
 7916TIP3   OH223711   2.031   5.375   4.793 -0.2371 -0.1303 -0.0242
 7916TIP3    H123712   2.081   5.309   4.744  1.4745  1.8293 -1.0826
 7916TIP3    H223713   1.945   5.374   4.752  0.3771 -0.3305 -1.3866
 7917TIP3   OH223714   3.306   1.625   1.206 -0.3940 -0.0891  0.0473
 7917TIP3    H123715   3.258   1.690   1.258  2.6477  0.5412  2.3519
 7917TIP3    H223716   3.312   1.548   1.263  0.3718 -0.5305 -0.6106
 7918TIP3   OH223717   3.015   3.993   2.781  0.4757 -0.3717 -0.0368
 7918TIP3    H123718   2.939   3.970   2.834 -0.6354  1.2457 -0.8431
 7918TIP3    H223719   2.987   3.978   2.691  1.0692  0.3054 -0.3505
 7919TIP3   OH223720   0.728   4.340   3.711  0.6589 -0.0620 -0.1341
 7919TIP3    H123721   0.801   4.389   3.674  0.2225  0.4156 -0.3922
 7919TIP3    H223722   0.724   4.369   3.802  1.2584 -0.6586  0.0799
 7920TIP3   OH223723   6.253   6.453   4.515  0.0195 -0.2402  0.1265
 7920TIP3    H123724   6.262   6.439   4.609  0.2732  0.6380  0.2422
 7920TIP3    H223725   6.179   6.513   4.506  0.8914  0.8402 -0.1153
 7921TIP3   OH223726   4.449   0.382   1.076  0.2497  0.2591 -0.8351
 7921TIP3    H123727   4.502   0.442   1.129 -0.5169  1.3518 -1.2802
 7921TIP3    H223728   4.360   0.395   1.107  0.3263 -3.1366  1.4411
 7922TIP3   OH223729   4.788   5.542   0.745  0.2652  1.0191 -0.3996
 7922TIP3    H123730   4.781   5.637   0.746 -2.1126  0.9234  1.0844
 7922TIP3    H223731   4.709   5.513   0.698  0.0342 -0.2194  0.7036
 7923TIP3   OH223732   2.365   0.026   3.687  0.6237 -0.2114  0.1530
 7923TIP3    H123733   2.458   0.007   3.678  0.6396 -0.0687  0.0079
 7923TIP3    H223734   2.357   0.072   3.771  0.6299 -0.5616  0.3489
 7924TIP3   OH223735   5.098   2.391   4.470 -0.4339 -0.3989  0.1057
 7924TIP3    H123736   5.098   2.323   4.403 -0.5066 -3.6923  3.1548
 7924TIP3    H223737   5.182   2.380   4.516 -0.9457  0.7809  1.4240
 7925TIP3   OH223738   1.576   1.370   3.602  0.3744 -0.5329  0.6906
 7925TIP3    H123739   1.570   1.325   3.518  0.6437  0.2827  0.2244
 7925TIP3    H223740   1.504   1.335   3.654  0.1407 -0.9599  0.0838
 7926TIP3   OH223741   6.315   0.623   2.960 -0.4739 -0.7336 -0.0475
 7926TIP3    H123742   6.248   0.592   2.899 -0.9494  1.6400 -0.8364
 7926TIP3    H223743   6.339   0.710   2.927  2.5438 -1.2115  0.5925
 7927TIP3   OH223744   6.227   3.198   1.755  0.3551 -0.2607  0.2398
 7927TIP3    H123745   6.197   3.174   1.668 -0.8163 -0.6798  0.7380
 7927TIP3    H223746   6.320   3.174   1.755  0.6299  0.6958 -1.2045
 7928TIP3   OH223747   0.776   0.721   3.545 -0.3932 -0.0833 -0.0440
 7928TIP3    H123748   0.835   0.727   3.470 -1.1796 -2.4292 -0.9515
 7928TIP3    H223749   0.783   0.630   3.573 -0.6024  0.5825  2.3698
 7929TIP3   OH223750   5.817   2.843   2.526 -0.0070 -0.1600 -0.2112
 7929TIP3    H123751   5.769   2.844   2.443  1.4002 -0.0126 -1.0503
 7929TIP3    H223752   5.877   2.768   2.518  1.1262  0.6868  0.0753
 7930TIP3   OH223753   0.592   4.863   4.813 -0.2046  0.0554  0.1875
 7930TIP3    H123754   0.561   4.951   4.796 -0.5864  0.0468  0.8021
 7930TIP3    H223755   0.594   4.820   4.727  1.0631  0.9924 -0.2919
 7931TIP3   OH223756   4.694   6.193   3.894 -0.0393 -0.3870  0.1066
 7931TIP3    H123757   4.701   6.151   3.809 -0.1429 -1.4897  0.6288
 7931TIP3    H223758   4.765   6.155   3.946 -1.0800 -1.0725  1.0559
 7932TIP3   OH223759   1.186   5.973   4.141 -0.3959  0.2172 -0.4412
 7932TIP3    H123760   1.158   5.932   4.223  0.0608  1.4918  0.3759
 7932TIP3    H223761   1.281   5.982   4.151 -0.5393  1.8843 -0.3893
 7933TIP3   OH223762   6.503   4.689   1.832  0.3899 -0.0481 -0.2577
 7933TIP3    H123763   6.563   4.654   1.766  1.6841  0.1378  0.7938
 7933TIP3    H223764   6.429   4.724   1.781  1.1962 -0.2102 -1.5787
 7934TIP3   OH223765   0.731   0.764   4.731 -0.0870 -0.1289 -0.0860
 7934TIP3    H123766   0.793   0.830   4.701  0.9427 -1.0174 -0.0013
 7934TIP3    H223767   0.646   0.808   4.731  0.6476  1.3510  0.5161
 7935TIP3   OH223768   2.117   4.693   2.074 -0.6613  0.1680  0.1068
 7935TIP3    H123769   2.126   4.747   1.996  0.8571 -1.0845 -0.6548
 7935TIP3    H223770   2.030   4.714   2.109 -0.6383  2.0784 -0.8765
 7936TIP3   OH223771   5.856   5.490   1.740 -0.0253 -0.2856  0.0846
 7936TIP3    H123772   5.903   5.529   1.666 -1.1910  0.6852 -0.1712
 7936TIP3    H223773   5.923   5.442   1.788  1.3335  1.4556  0.0169
 7937TIP3   OH223774   2.973   1.137   0.240  0.0595 -0.0580 -0.0257
 7937TIP3    H123775   3.028   1.212   0.217  0.0139  0.1042  0.4016
 7937TIP3    H223776   2.886   1.160   0.209  0.0884 -0.0254 -0.0826
 7938TIP3   OH223777   3.569   6.487   5.111  0.3449 -0.1917  1.1426
 7938TIP3    H123778   3.632   6.542   5.065  1.0541  1.0541  3.3996
 7938TIP3    H223779   3.602   6.398   5.099 -1.2721 -0.4287 -3.2767
 7939TIP3   OH223780   1.150   3.955   1.008 -0.0981  0.4402 -0.3595
 7939TIP3    H123781   1.168   4.032   1.061 -0.0192 -0.2991  0.7167
 7939TIP3    H223782   1.193   3.972   0.924  1.6589  0.6915  0.5579
 7940TIP3   OH223783   2.017   4.363   4.565  0.1556 -0.1880  0.2251
 7940TIP3    H123784   2.097   4.350   4.514  0.7536 -0.5646  1.2347
 7940TIP3    H223785   2.000   4.457   4.559 -0.6589 -0.4025 -1.9119
 7941TIP3   OH223786   1.595   1.592   0.906 -0.7992  0.0066 -0.3136
 7941TIP3    H123787   1.673   1.615   0.856 -0.3972  0.0180  0.3032
 7941TIP3    H223788   1.532   1.561   0.841 -0.0918 -0.4969 -0.7632
 7942TIP3   OH223789   5.598   5.389   3.016 -0.3343 -0.0069 -0.2737
 7942TIP3    H123790   5.674   5.411   3.069 -1.0768  2.0371  0.0171
 7942TIP3    H223791   5.577   5.299   3.042 -0.9574  1.0005  3.3669
 7943TIP3   OH223792   3.440   2.009   1.224 -0.0048  0.2925 -0.0432
 7943TIP3    H123793   3.509   2.058   1.179  0.6734 -0.7316 -0.1402
 7943TIP3    H223794   3.485   1.933   1.261 -1.0709 -0.3500 -0.0429
 7944TIP3   OH223795   1.260   1.149   5.195  0.4948 -0.4610  0.1931
 7944TIP3    H123796   1.200   1.209   5.240  0.5594 -0.6483  0.5348
 7944TIP3    H223797   1.227   1.145   5.105  0.5048  0.1046  0.1618
 7945TIP3   OH223798   3.790   3.745   4.683  0.1832 -0.1181  0.2126
 7945TIP3    H123799   3.791   3.802   4.605 -0.0025  0.6336  0.7513
 7945TIP3    H223800   3.760   3.661   4.650 -1.0315  0.5022 -0.3327
 7946TIP3   OH223801   4.213   0.197   0.760  0.3683 -0.2423  0.1734
 7946TIP3    H123802   4.136   0.149   0.730 -0.5378  1.6214 -0.5897
 7946TIP3    H223803   4.278   0.183   0.691 -0.8026  1.7799 -1.4433
 7947TIP3   OH223804   0.551   5.214   0.840  0.0594  1.0443 -0.2262
 7947TIP3    H123805   0.616   5.175   0.781 -0.4373 -0.7595  0.3601
 7947TIP3    H223806   0.485   5.251   0.781  0.3502  0.6490 -0.8141
 7948TIP3   OH223807   4.026   3.217   3.326 -0.5596  0.1036 -0.2979
 7948TIP3    H123808   3.971   3.141   3.305  0.7166 -1.0354  0.3452
 7948TIP3    H223809   4.013   3.277   3.252 -1.9091 -0.5463 -0.6182
 7949TIP3   OH223810   2.340   4.991   2.446  0.4799  0.4612 -0.5148
 7949TIP3    H123811   2.367   4.964   2.533 -0.4403  1.1780  0.0017
 7949TIP3    H223812   2.249   5.017   2.455 -0.0950 -0.8076 -1.9849
 7950TIP3   OH223813   0.073   5.335   3.811 -0.6544 -0.3098 -0.0795
 7950TIP3    H123814   0.087   5.427   3.789 -1.5766  0.8130  3.4333
 7950TIP3    H223815   0.156   5.306   3.849 -0.7449 -0.5995 -0.0966
 7951TIP3   OH223816   3.205   0.525   2.245  0.3726  0.2221 -0.1432
 7951TIP3    H123817   3.196   0.616   2.275 -3.1646  0.1121 -0.4819
 7951TIP3    H223818   3.210   0.474   2.326  0.7779  0.5673  0.0604
 7952TIP3   OH223819   1.614   5.793   3.585  0.0238  0.2831 -0.7857
 7952TIP3    H123820   1.522   5.785   3.607  0.3219  0.6395  0.7633
 7952TIP3    H223821   1.652   5.842   3.658  1.3357  0.6366 -1.6566
 7953TIP3   OH223822   2.548   0.929   4.202 -0.7187 -0.4868 -0.4994
 7953TIP3    H123823   2.641   0.910   4.208 -0.8105 -1.1088 -0.8791
 7953TIP3    H223824   2.506   0.858   4.252 -0.9312  0.5835  0.9050
 7954TIP3   OH223825   0.567   1.949   1.145  0.1229 -0.6750  0.1633
 7954TIP3    H123826   0.480   1.978   1.117 -0.1120 -1.4729  0.0480
 7954TIP3    H223827   0.617   1.939   1.065  0.4253  0.0865  0.2498
 7955TIP3   OH223828   2.233   0.881   5.656  0.5856 -0.1356  0.6428
 7955TIP3    H123829   2.253   0.867   5.748  0.2047 -0.2796  0.7035
 7955TIP3    H223830   2.233   0.976   5.645  1.6651 -0.1305  0.5600
 7956TIP3   OH223831   5.866   2.510   0.704 -0.3418  0.0516  0.3074
 7956TIP3    H123832   5.907   2.426   0.687 -0.4522 -0.0149  0.3655
 7956TIP3    H223833   5.879   2.561   0.624 -0.2261 -0.0009  0.2935
 7957TIP3   OH223834   6.677   1.388   5.605  0.0290 -0.4014 -0.0718
 7957TIP3    H123835   6.667   1.452   5.675  0.4017  0.8528 -1.1186
 7957TIP3    H223836   6.771   1.378   5.594 -0.0219 -0.2036 -0.7238
 7958TIP3   OH223837   1.104   4.763   3.182 -0.2791  0.7245 -0.3161
 7958TIP3    H123838   1.026   4.793   3.229 -1.0996 -2.4695  0.5564
 7958TIP3    H223839   1.081   4.773   3.090 -0.7471  2.0511 -0.0828
 7959TIP3   OH223840   0.665   4.492   5.312 -0.0698  0.3563  0.0334
 7959TIP3    H123841   0.716   4.531   5.383 -0.7368 -1.4366  1.5774
 7959TIP3    H223842   0.577   4.483   5.347  0.4053 -4.2043  0.6525
 7960TIP3   OH223843   1.340   3.546   2.858  0.0910 -0.0033 -0.1258
 7960TIP3    H123844   1.396   3.494   2.915 -0.9569  0.1518  1.0740
 7960TIP3    H223845   1.261   3.563   2.909 -0.0241  1.9228 -0.8455
 7961TIP3   OH223846   0.077   6.059   3.794  0.4104 -0.2100 -0.5859
 7961TIP3    H123847   0.116   6.060   3.882  0.2009  2.1102 -0.4641
 7961TIP3    H223848   0.006   6.122   3.799 -0.8886 -1.5117 -1.9193
 7962TIP3   OH223849   2.369   5.639   4.662  0.1766  0.1364  0.2643
 7962TIP3    H123850   2.390   5.576   4.730  1.2227  0.2640  0.0782
 7962TIP3    H223851   2.442   5.634   4.601 -0.5061  0.3714 -0.6033
 7963TIP3   OH223852   5.314   1.923   3.262  0.0077 -0.1699 -0.3059
 7963TIP3    H123853   5.360   1.963   3.189 -0.7460 -0.2148 -0.8126
 7963TIP3    H223854   5.334   1.979   3.337 -1.5086  1.5180 -1.1065
 7964TIP3   OH223855   1.610   1.591   2.008 -0.1110 -0.1112  0.1183
 7964TIP3    H123856   1.644   1.541   2.082  0.2553 -1.9330 -1.2216
 7964TIP3    H223857   1.631   1.682   2.030  2.7680 -0.8438  0.8433
 7965TIP3   OH223858   5.984   6.428   4.876  0.0318  0.1621 -0.2768
 7965TIP3    H123859   5.957   6.340   4.851  1.1672  0.1682 -1.6623
 7965TIP3    H223860   5.908   6.464   4.923  0.5192 -2.4781  2.8586
 7966TIP3   OH223861   6.735   6.577   0.187  0.0090 -0.2273  0.0910
 7966TIP3    H123862   6.794   6.645   0.153 -1.0781  1.3073  1.1125
 7966TIP3    H223863   6.674   6.625   0.244 -2.4940 -1.6267 -1.2091
 7967TIP3   OH223864   4.818   2.688   3.724  0.0741 -0.1616 -0.1074
 7967TIP3    H123865   4.755   2.756   3.751  0.4997 -0.3358  1.4307
 7967TIP3    H223866   4.772   2.605   3.741 -0.4884 -0.3156 -2.0858
 7968TIP3   OH223867   0.445   5.328   4.656  0.1580 -0.3687  0.3896
 7968TIP3    H123868   0.507   5.373   4.714 -0.4743 -0.3637  1.0675
 7968TIP3    H223869   0.497   5.309   4.578  0.8350  0.2397  0.6705
 7969TIP3   OH223870   3.569   5.276   2.474  0.3062  0.4928 -0.6867
 7969TIP3    H123871   3.492   5.238   2.517  0.6004 -0.6973 -1.2022
 7969TIP3    H223872   3.638   5.211   2.485  0.6942  0.6679 -1.9898
 7970TIP3   OH223873   5.868   2.943   2.788  0.0671 -0.0540 -0.0703
 7970TIP3    H123874   5.826   2.899   2.713  0.9971  0.3698 -0.8558
 7970TIP3    H223875   5.816   3.022   2.802  0.9020  0.7590 -1.4016
 7971TIP3   OH223876   4.586   0.712   3.705 -0.0186 -0.1720 -0.6608
 7971TIP3    H123877   4.514   0.723   3.642  0.4963 -1.7349 -1.5823
 7971TIP3    H223878   4.616   0.801   3.723 -1.5126  0.4341 -1.0469
 7972TIP3   OH223879   5.913   1.317   3.213 -0.1148  0.0930  0.3384
 7972TIP3    H123880   5.847   1.265   3.259 -0.3372 -1.1576 -1.2633
 7972TIP3    H223881   5.926   1.270   3.130  2.0001  0.9115  0.1430
 7973TIP3   OH223882   4.490   3.108   2.347  0.1983  0.5023 -0.4331
 7973TIP3    H123883   4.533   3.023   2.349  1.3897  1.0789  1.3205
 7973TIP3    H223884   4.402   3.092   2.381  0.2648 -0.1066 -0.5388
 7974TIP3   OH223885   5.757   2.130   0.407  0.3188  0.1701  0.1754
 7974TIP3    H123886   5.778   2.212   0.362 -0.2881 -0.1722 -0.7418
 7974TIP3    H223887   5.790   2.061   0.350 -1.4030 -0.3051 -0.2974
 7975TIP3   OH223888   3.827   2.299   1.280  0.1647  0.4541  0.2391
 7975TIP3    H123889   3.762   2.268   1.343  1.3363 -1.4873  0.5808
 7975TIP3    H223890   3.907   2.309   1.332  0.8594 -0.0347 -0.7188
 7976TIP3   OH223891   5.747   5.317   1.560  0.3713  0.3181 -0.4183
 7976TIP3    H123892   5.749   5.372   1.639 -1.3361 -0.2048  0.0141
 7976TIP3    H223893   5.723   5.377   1.490 -1.7352  0.1251  0.0923
 7977TIP3   OH223894   5.208   6.107   1.141  0.3478  0.4724  0.2253
 7977TIP3    H123895   5.193   6.189   1.189 -1.6802 -0.1225  0.6938
 7977TIP3    H223896   5.210   6.039   1.208  4.1699  0.2229  0.0943
 7978TIP3   OH223897   1.459   0.841   3.989 -0.1851 -0.3867 -0.7382
 7978TIP3    H123898   1.552   0.856   4.004 -0.0584 -0.0936 -1.7109
 7978TIP3    H223899   1.417   0.923   4.014  0.1356  0.4773 -2.8289
 7979TIP3   OH223900   2.938   3.008   3.692  0.1015  0.3649  0.4680
 7979TIP3    H123901   2.851   2.970   3.681  0.2649  0.4792 -1.5089
 7979TIP3    H223902   2.933   3.093   3.648  1.1518  0.4472  0.4789
 7980TIP3   OH223903   0.312   5.061   5.547 -0.3179 -1.0108  0.8993
 7980TIP3    H123904   0.249   5.127   5.573  0.7384 -0.4131  2.0440
 7980TIP3    H223905   0.390   5.081   5.598  1.9712  0.2347 -2.7068
 7981TIP3   OH223906   5.066   2.137   2.409 -0.0735 -0.1538 -0.3188
 7981TIP3    H123907   4.994   2.184   2.367 -0.8099 -1.3494 -0.4606
 7981TIP3    H223908   5.143   2.159   2.358 -0.6885 -0.3576 -1.3712
 7982TIP3   OH223909   2.228   2.419   4.172  0.0459 -1.0427  0.1892
 7982TIP3    H123910   2.143   2.420   4.128 -1.2315  0.0671  2.5649
 7982TIP3    H223911   2.276   2.491   4.132 -1.1143 -0.0042  0.6275
 7983TIP3   OH223912   0.191   0.614   1.216  0.0301  0.5348 -0.2185
 7983TIP3    H123913   0.189   0.673   1.141  1.6235  0.9574  0.0400
 7983TIP3    H223914   0.283   0.593   1.228 -0.2137  0.2772  1.4709
 7984TIP3   OH223915   1.315   4.196   5.624  0.3329 -0.1458  0.3647
 7984TIP3    H123916   1.350   4.269   5.574  0.6687 -0.2595  0.4348
 7984TIP3    H223917   1.229   4.179   5.585  0.5796 -0.2185 -0.1570
 7985TIP3   OH223918   6.761   2.785   5.867  0.0400 -0.0268 -1.1038
 7985TIP3    H123919   6.674   2.799   5.831 -0.2827  0.1063 -0.2733
 7985TIP3    H223920   6.820   2.802   5.793 -0.4860  2.4312 -1.0675
 7986TIP3   OH223921   5.984   4.705   5.192  0.1609 -0.2141 -0.0311
 7986TIP3    H123922   5.989   4.685   5.286  0.4774 -0.7633 -0.1626
 7986TIP3    H223923   6.010   4.624   5.149 -0.5914 -0.1617 -0.6078
 7987TIP3   OH223924   1.723   2.594   1.700 -0.2559  0.0195 -0.0937
 7987TIP3    H123925   1.652   2.538   1.670 -0.0635  0.4841 -1.4574
 7987TIP3    H223926   1.778   2.607   1.623  3.2533 -3.0464  1.5884
 7988TIP3   OH223927   4.050   6.383   0.411  0.0906 -0.8249  0.4328
 7988TIP3    H123928   4.106   6.316   0.372  1.5731  1.5943 -1.9844
 7988TIP3    H223929   4.017   6.433   0.336 -0.5343  1.4482  2.1152
 7989TIP3   OH223930   3.115   1.788   3.324 -0.4250 -0.0323  0.1323
 7989TIP3    H123931   3.156   1.747   3.400  0.7289  1.5949  0.4484
 7989TIP3    H223932   3.170   1.762   3.250 -1.3060 -1.2729 -0.1150
 7990TIP3   OH223933   0.841   4.525   1.050 -0.3307 -0.1972  0.4214
 7990TIP3    H123934   0.925   4.567   1.034 -0.3680  0.4426  1.8054
 7990TIP3    H223935   0.791   4.539   0.969 -0.8547  3.6713  1.2653
 7991TIP3   OH223936   6.318   1.869   2.770  0.4072 -0.2206  0.4015
 7991TIP3    H123937   6.276   1.955   2.775  2.8527  1.0329  1.1397
 7991TIP3    H223938   6.343   1.850   2.861  1.2328 -0.9737  0.0291
 7992TIP3   OH223939   5.312   4.780   4.820 -0.1397  0.1202 -0.3705
 7992TIP3    H123940   5.400   4.749   4.841 -0.3415  0.3023  0.8454
 7992TIP3    H223941   5.308   4.778   4.725  1.0804 -0.1589 -0.4381
 7993TIP3   OH223942   5.319   4.830   1.337 -0.1110  0.0914  0.1567
 7993TIP3    H123943   5.367   4.767   1.284  1.0137  1.0265  0.0284
 7993TIP3    H223944   5.312   4.790   1.423  0.0091 -0.4873 -0.1002
 7994TIP3   OH223945   4.530   6.104   1.867  0.2096  0.2362  0.2118
 7994TIP3    H123946   4.568   6.076   1.783 -0.4052 -1.2624  0.4033
 7994TIP3    H223947   4.563   6.040   1.930  1.8168  2.1465  1.4396
 7995TIP3   OH223948   7.220   0.074   1.392 -0.1389 -0.3171 -0.2150
 7995TIP3    H123949   7.199   0.130   1.317 -2.1184 -0.4897  0.1491
 7995TIP3    H223950   7.169  -0.006   1.377 -1.6609  0.1655  1.9204
 7996TIP3   OH223951   1.688   0.531   4.391  0.3517 -0.1476 -0.3543
 7996TIP3    H123952   1.625   0.503   4.458  0.6508  0.3588  0.1468
 7996TIP3    H223953   1.645   0.605   4.348  1.2561  1.2863  1.0975
 7997TIP3   OH223954   0.665   0.902   1.535 -0.3917 -0.1573 -0.2962
 7997TIP3    H123955   0.746   0.892   1.586  0.1221 -1.6501 -1.3022
 7997TIP3    H223956   0.596   0.913   1.600  0.5516  0.5425  0.6045
 7998TIP3   OH223957   1.448   5.393   0.753 -0.2209 -0.4494 -0.3428
 7998TIP3    H123958   1.388   5.437   0.693  0.1108  1.6257  0.7317
 7998TIP3    H223959   1.395   5.376   0.831  0.2341  0.2516  0.1369
 7999TIP3   OH223960   2.712   1.409   3.298  0.7359 -0.0964 -0.1583
 7999TIP3    H123961   2.663   1.489   3.281  1.6832  0.4729 -0.2259
 7999TIP3    H223962   2.735   1.414   3.391  1.9701  0.3819 -0.4740
 8000TIP3   OH223963   6.074   3.417   2.023  0.1840  0.3009  0.1767
 8000TIP3    H123964   6.062   3.511   2.034 -2.0840  0.1920 -0.9549
 8000TIP3    H223965   5.995   3.378   2.061  1.2273 -1.1845  0.9112
 8001TIP3   OH223966   4.361   4.129   1.088  0.1851  0.1776  0.5674
 8001TIP3    H123967   4.423   4.103   1.156 -1.1582  0.3884  1.9382
 8001TIP3    H223968   4.416   4.169   1.020  1.5143  0.7101  1.8892
 8002TIP3   OH223969   3.497   3.967   1.496  0.2711  0.5352  0.0139
 8002TIP3    H123970   3.478   3.877   1.523  1.3521  0.6208  1.1423
 8002TIP3    H223971   3.451   4.022   1.561  0.5570  0.7819  0.0102
 8003TIP3   OH223972   2.405   4.121   5.481  0.1728 -0.1871 -0.5304
 8003TIP3    H123973   2.496   4.147   5.494 -0.0717  2.0459 -2.7171
 8003TIP3    H223974   2.354   4.188   5.527 -0.3858 -0.0171 -1.3750
 8004TIP3   OH223975   6.741   0.876   2.409  0.0687 -0.3160  0.1394
 8004TIP3    H123976   6.833   0.853   2.423  0.7085  2.0391  0.1790
 8004TIP3    H223977   6.738   0.971   2.421 -2.6008 -0.4593  1.3778
 8005TIP3   OH223978   0.608   2.944   1.937 -0.7184  0.3811 -0.2329
 8005TIP3    H123979   0.639   2.854   1.941  0.2044  0.7093  0.1490
 8005TIP3    H223980   0.619   2.970   1.845  0.3904  0.5725 -0.0558
 8006TIP3   OH223981   3.642   6.162   3.862 -0.6232  0.1517  0.3959
 8006TIP3    H123982   3.722   6.109   3.864 -0.1601  0.8300  0.0913
 8006TIP3    H223983   3.573   6.099   3.840 -0.0631 -0.3008 -0.1272
 8007TIP3   OH223984   5.612   4.067   1.721  0.0568  0.2063  0.1173
 8007TIP3    H123985   5.634   4.158   1.737 -2.2105  0.8125  0.0829
 8007TIP3    H223986   5.627   4.055   1.627  0.9107  0.3621  0.2291
 8008TIP3   OH223987   5.709   1.527   2.088  0.1002  0.2391 -0.1542
 8008TIP3    H123988   5.798   1.549   2.061  0.9694 -1.1791  1.3813
 8008TIP3    H223989   5.693   1.441   2.051 -0.5744  0.3991 -0.2571
 8009TIP3   OH223990   1.445   5.720   2.047  1.1071  0.3683 -0.4825
 8009TIP3    H123991   1.414   5.764   2.126  0.8978 -0.5708 -0.0217
 8009TIP3    H223992   1.509   5.780   2.009  0.0589  1.5202 -0.4580
 8010TIP3   OH223993   2.491   3.630   1.572  0.4932  0.1273 -0.2518
 8010TIP3    H123994   2.522   3.543   1.596  2.1156  1.1103  1.5026
 8010TIP3    H223995   2.564   3.671   1.527  0.3050  1.0776  0.2713
 8011TIP3   OH223996   5.810   3.593   4.123  0.2544 -0.3672  0.4176
 8011TIP3    H123997   5.863   3.522   4.158 -0.7521 -0.3131  2.2101
 8011TIP3    H223998   5.864   3.672   4.136  0.4627 -0.5289  0.5400
 8012TIP3   OH223999   0.608   4.558   2.602  0.1126  0.0457 -0.5801
 8012TIP3    H124000   0.619   4.494   2.671 -1.7860 -0.1043 -0.3498
 8012TIP3    H224001   0.570   4.634   2.646  0.7435  0.6898 -1.1324
 8013TIP3   OH224002   6.727   0.664   0.461 -0.0295 -0.5462  0.5249
 8013TIP3    H124003   6.748   0.627   0.547  2.3278  1.2565  0.8419
 8013TIP3    H224004   6.671   0.740   0.482  0.4772 -0.1565  0.4894
 8014TIP3   OH224005   0.813   2.612   3.712  0.4873 -0.3339 -0.6736
 8014TIP3    H124006   0.796   2.529   3.755  1.4470 -0.6739 -0.9245
 8014TIP3    H224007   0.899   2.638   3.744  1.0263 -0.3776 -2.0324
 8015TIP3   OH224008   1.740   5.241   5.050 -0.6697  0.4833 -0.5557
 8015TIP3    H124009   1.826   5.280   5.067 -1.0249  1.6469 -1.3433
 8015TIP3    H224010   1.739   5.225   4.956 -0.4648 -1.6882 -0.2442
 8016TIP3   OH224011   5.828   4.889   1.372 -0.0326 -0.0002  0.1053
 8016TIP3    H124012   5.791   4.970   1.338  1.3497 -0.4996 -3.0113
 8016TIP3    H224013   5.754   4.843   1.412 -0.8826  2.6235  1.7883
 8017TIP3   OH224014   6.281   6.743   2.776 -0.0800 -0.1429  0.0290
 8017TIP3    H124015   6.373   6.766   2.785  0.5137 -1.6991 -1.4956
 8017TIP3    H224016   6.262   6.686   2.851  0.4537 -0.5334 -0.1298
 8018TIP3   OH224017   5.633   2.488   5.534  0.0644  0.7779 -0.1568
 8018TIP3    H124018   5.620   2.472   5.441  0.3872 -1.4692  0.1103
 8018TIP3    H224019   5.717   2.448   5.554 -0.0259  1.1776  1.1133
 8019TIP3   OH224020   0.871   4.375   5.180 -0.1725  0.2075  0.0070
 8019TIP3    H124021   0.780   4.391   5.206 -0.1058 -1.4394  1.4748
 8019TIP3    H224022   0.923   4.412   5.252  0.1507 -1.5705  0.7482
 8020TIP3   OH224023   3.155   6.775   2.506 -0.5609 -0.1000  0.0789
 8020TIP3    H124024   3.134   6.688   2.472  0.9666 -0.8753  1.0240
 8020TIP3    H224025   3.203   6.759   2.587 -1.5090  1.6578  1.0741
 8021TIP3   OH224026   3.253   4.368   2.401  0.0252  0.3800  0.3585
 8021TIP3    H124027   3.162   4.367   2.431  0.2469  0.9700  1.1124
 8021TIP3    H224028   3.248   4.389   2.308 -0.6567 -0.6707  0.1460
 8022TIP3   OH224029   5.229   2.270   0.413  0.0514  0.2559  0.5592
 8022TIP3    H124030   5.198   2.317   0.490 -1.6184  2.6706 -1.4005
 8022TIP3    H224031   5.297   2.326   0.376  0.2868 -0.4635 -0.1242
 8023TIP3   OH224032   5.387   2.930   0.910 -0.7929 -0.0804  0.5289
 8023TIP3    H124033   5.454   2.946   0.843 -0.4615 -1.2821  0.5499
 8023TIP3    H224034   5.391   3.007   0.967  0.6546 -0.1924  0.6021
 8024TIP3   OH224035   0.376   3.104   3.915  0.5116 -0.5786  0.4811
 8024TIP3    H124036   0.382   3.161   3.839 -1.3164 -0.1753  0.5960
 8024TIP3    H224037   0.355   3.162   3.988 -0.7194 -1.2781  0.7231
 8025TIP3   OH224038   5.804   5.547   5.345  0.2827  0.1417 -0.6669
 8025TIP3    H124039   5.768   5.551   5.434  0.6333  1.4290 -0.5558
 8025TIP3    H224040   5.899   5.556   5.358  0.4144 -0.5962 -1.1163
 8026TIP3   OH224041   5.272   1.524   2.199  0.2413 -0.4516 -0.2226
 8026TIP3    H124042   5.317   1.605   2.219  0.8877 -1.5015  3.1122
 8026TIP3    H224043   5.189   1.529   2.246  0.0181 -1.4536 -0.4731
 8027TIP3   OH224044   0.910   0.085   5.826  0.0507 -0.2331 -0.3911
 8027TIP3    H124045   0.840   0.130   5.873 -0.9479 -2.4029  0.3803
 8027TIP3    H224046   0.903   0.116   5.736  0.0914  1.8305  0.2782
 8028TIP3   OH224047   1.916   2.571   3.479 -0.2313  0.1696  0.2273
 8028TIP3    H124048   1.875   2.657   3.476  0.4157  0.4428 -1.6265
 8028TIP3    H224049   1.910   2.537   3.390 -0.1598 -1.5740  0.8400
 8029TIP3   OH224050   6.801   3.680   5.783 -0.2316 -0.5832 -0.1455
 8029TIP3    H124051   6.842   3.660   5.699 -1.0931  2.3312 -1.3784
 8029TIP3    H224052   6.868   3.730   5.830 -0.7894  0.4400 -0.4030
 8030TIP3   OH224053   3.650   6.296   4.225 -0.4431 -0.2920 -0.4705
 8030TIP3    H124054   3.742   6.270   4.232 -0.6180 -0.7054  0.4462
 8030TIP3    H224055   3.650   6.389   4.247  0.0777  0.3706 -2.9794
 8031TIP3   OH224056   4.996   1.265   3.694  0.3984  0.2316  0.2844
 8031TIP3    H124057   5.014   1.337   3.634  0.5390 -0.3998 -0.4397
 8031TIP3    H224058   4.939   1.303   3.761  0.6705  1.0735  0.0462
 8032TIP3   OH224059   4.293   4.472   0.295 -0.3119  0.0265 -0.1807
 8032TIP3    H124060   4.199   4.482   0.280 -0.4836 -1.2837 -0.1464
 8032TIP3    H224061   4.300   4.451   0.388  0.1962  1.9456  0.2501
 8033TIP3   OH224062   3.221   0.949   4.364 -0.9461  0.0793  0.1478
 8033TIP3    H124063   3.223   1.043   4.382  1.1589  0.3587 -1.1138
 8033TIP3    H224064   3.163   0.940   4.288 -1.8726  0.2234  0.8330
 8034TIP3   OH224065   5.059   3.201   3.592  0.4240 -0.0167  0.3503
 8034TIP3    H124066   5.068   3.295   3.580 -0.6691  0.1571  0.8336
 8034TIP3    H224067   4.975   3.189   3.635  1.2202 -1.0869  1.7352
 8035TIP3   OH224068   0.565   4.553   0.042  0.5565 -0.2221  0.5810
 8035TIP3    H124069   0.557   4.542   0.137  1.0556 -0.3171  0.6098
 8035TIP3    H224070   0.495   4.615   0.020  0.9017  0.3759  1.1192
 8036TIP3   OH224071   5.632   1.022   2.886  0.3476 -0.0789  0.0029
 8036TIP3    H124072   5.711   1.006   2.835  0.5933 -2.2008  0.9454
 8036TIP3    H224073   5.584   1.088   2.836  1.8395 -0.0920 -1.5272
 8037TIP3   OH224074   4.620   3.249   2.119  0.2840 -0.0684 -0.3622
 8037TIP3    H124075   4.684   3.307   2.160 -0.8277  0.1562  1.1460
 8037TIP3    H224076   4.585   3.196   2.191 -0.7811 -0.6134 -1.2366
 8038TIP3   OH224077   4.161   3.871   3.227 -0.2698  0.1310 -0.4914
 8038TIP3    H124078   4.118   3.897   3.308  0.2691 -0.1394 -0.1145
 8038TIP3    H224079   4.251   3.904   3.236  0.9209 -3.0804  0.6601
 8039TIP3   OH224080   1.978   3.356   0.903  0.2875 -0.0604  0.0584
 8039TIP3    H124081   1.931   3.404   0.971  0.4862  1.8443 -1.0782
 8039TIP3    H224082   1.909   3.322   0.846  0.1468 -1.1826  0.8607
 8040TIP3   OH224083   1.431   6.445   1.017  0.0379  0.6255  0.2839
 8040TIP3    H124084   1.346   6.444   1.060  0.1619 -0.6611  0.5557
 8040TIP3    H224085   1.490   6.483   1.082 -0.1380  0.5465  0.4925
 8041TIP3   OH224086   1.345   6.669   3.991 -0.5252 -0.1444 -0.0303
 8041TIP3    H124087   1.397   6.595   3.958 -0.4915 -0.0158 -0.2685
 8041TIP3    H224088   1.262   6.629   4.019 -0.1408 -0.4134  0.7605
 8042TIP3   OH224089   4.411   2.976   5.457 -0.1242  0.3589 -0.4796
 8042TIP3    H124090   4.500   3.011   5.465  0.1647 -0.3277 -0.6015
 8042TIP3    H224091   4.368   3.001   5.539  0.5906 -0.4311  0.1634
 8043TIP3   OH224092   1.829   2.826   4.941 -0.2866 -0.3543  0.4284
 8043TIP3    H124093   1.823   2.739   4.902 -0.7513 -0.4572  0.7220
 8043TIP3    H224094   1.923   2.844   4.945 -0.2372  0.1696 -1.8128
 8044TIP3   OH224095   1.509   1.017   4.236  0.4513  0.1355 -0.4293
 8044TIP3    H124096   1.432   1.072   4.219  2.1345  2.2932 -1.5626
 8044TIP3    H224097   1.582   1.067   4.201  2.6355 -1.0306  2.1523
 8045TIP3   OH224098   3.087   0.206   4.004 -0.0397  0.5034 -0.3025
 8045TIP3    H124099   3.174   0.207   3.965 -1.0422 -0.2425 -2.7326
 8045TIP3    H224100   3.034   0.156   3.943 -1.9717  0.0746  1.6180
 8046TIP3   OH224101   6.224   2.649   3.806  0.4806  0.1498 -0.1461
 8046TIP3    H124102   6.188   2.561   3.817 -0.4757  0.3126 -1.6456
 8046TIP3    H224103   6.263   2.648   3.719 -0.3606  1.4526 -0.5735
 8047TIP3   OH224104   0.904   1.746   0.390  0.6558  0.1514 -0.4612
 8047TIP3    H124105   0.906   1.734   0.295 -0.5160 -2.1685 -0.2684
 8047TIP3    H224106   0.813   1.768   0.410  0.6557 -0.4339  0.2147
 8048TIP3   OH224107   0.124   3.605   1.094 -0.0610 -0.1965  0.2572
 8048TIP3    H124108   0.091   3.695   1.090  1.0142  0.1726 -1.7318
 8048TIP3    H224109   0.046   3.551   1.106 -0.9141  0.9040 -0.1705
 8049TIP3   OH224110   6.961   0.008   5.440 -1.0974  0.0644  0.0845
 8049TIP3    H124111   6.987   0.089   5.484 -0.6075  0.0228 -0.1197
 8049TIP3    H224112   7.043  -0.026   5.402 -0.7824 -1.8376  2.2684
 8050TIP3   OH224113   0.485   1.353   1.646  0.5946  0.9021  0.9911
 8050TIP3    H124114   0.450   1.264   1.638  1.2729  0.3404  3.4323
 8050TIP3    H224115   0.517   1.374   1.558  1.6678 -1.8079  0.6151
 8051TIP3   OH224116   4.182   4.243   3.543 -0.1551  0.8879 -0.1292
 8051TIP3    H124117   4.149   4.218   3.457 -0.9125 -1.5424  0.7617
 8051TIP3    H224118   4.105   4.239   3.600  0.7079  0.2107  1.0413
 8052TIP3   OH224119   1.968   0.186   0.647 -0.5297 -0.2382  0.3658
 8052TIP3    H124120   1.925   0.266   0.677 -0.8540 -0.3281  0.1513
 8052TIP3    H224121   1.962   0.190   0.551  0.6139  0.1136  0.2932
 8053TIP3   OH224122   0.218   1.575   1.728  0.5506  0.3108 -0.6246
 8053TIP3    H124123   0.257   1.632   1.662  0.0046  1.2876 -0.1234
 8053TIP3    H224124   0.178   1.504   1.679  2.3467 -0.3661 -1.1970
 8054TIP3   OH224125   1.907   5.180   5.502  0.0085  0.5351 -0.4021
 8054TIP3    H124126   1.836   5.173   5.438 -0.5077  1.4144  0.0606
 8054TIP3    H224127   1.934   5.089   5.518 -0.2972  0.2595 -1.3636
 8055TIP3   OH224128   3.971   1.693   3.729 -0.1498 -0.2133  0.6035
 8055TIP3    H124129   3.996   1.727   3.815  2.9961  1.1809 -0.7225
 8055TIP3    H224130   4.030   1.619   3.714 -0.8746 -0.6414 -0.2648
 8056TIP3   OH224131   1.863   3.839   1.990 -0.3254 -0.3771  0.3668
 8056TIP3    H124132   1.885   3.931   2.005  0.0247 -0.3443 -0.3238
 8056TIP3    H224133   1.939   3.803   1.944 -0.6827 -0.8879  0.1669
 8057TIP3   OH224134   3.732   2.542   2.589 -0.8220 -0.1547 -0.0418
 8057TIP3    H124135   3.729   2.574   2.679  0.0701 -0.7535  0.2109
 8057TIP3    H224136   3.709   2.618   2.536  3.0236  1.5651  0.4201
 8058TIP3   OH224137   6.577   2.314   4.206  0.8701  0.1428 -0.0392
 8058TIP3    H124138   6.623   2.376   4.264 -0.5342  0.8844  0.3435
 8058TIP3    H224139   6.594   2.228   4.244 -1.8573  0.7264  3.0120
 8059TIP3   OH224140   7.009   2.675   5.043  0.5381 -0.0622 -0.4482
 8059TIP3    H124141   7.028   2.752   5.097 -0.3050 -0.3404  0.2703
 8059TIP3    H224142   6.914   2.679   5.028  0.2505 -1.6449  0.7088
 8060TIP3   OH224143   5.381   5.850   3.177  0.8872 -0.2637 -0.4536
 8060TIP3    H124144   5.422   5.766   3.200  1.5352 -0.3193 -1.6992
 8060TIP3    H224145   5.390   5.904   3.255 -2.0114 -2.1999  1.4246
 8061TIP3   OH224146   0.788   3.740   0.807 -0.1959  0.2489  0.4075
 8061TIP3    H124147   0.738   3.750   0.888  2.0400  2.2767  1.6747
 8061TIP3    H224148   0.832   3.655   0.816 -1.9803 -0.7561  0.0480
 8062TIP3   OH224149   1.443   4.143   4.872  0.2219 -0.5050  0.2725
 8062TIP3    H124150   1.418   4.073   4.811  2.3844 -0.2939 -0.9276
 8062TIP3    H224151   1.448   4.222   4.817  0.6785 -0.0032  1.0233
 8063TIP3   OH224152   5.502   2.888   0.650 -0.1035 -0.0205  0.0075
 8063TIP3    H124153   5.587   2.931   0.639 -0.3336  0.7331  0.9575
 8063TIP3    H224154   5.441   2.941   0.598 -0.1821  0.0995  0.2211
 8064TIP3   OH224155   2.961   5.583   2.695  0.0026 -0.1011 -0.2302
 8064TIP3    H124156   2.897   5.518   2.723  0.9404 -1.2771 -0.7169
 8064TIP3    H224157   2.953   5.585   2.600  2.1324 -1.9279 -0.5477
 8065TIP3   OH224158   3.875   5.521   4.994 -0.3190  0.4854  0.1834
 8065TIP3    H124159   3.861   5.427   5.004 -1.6940  0.5035 -1.2564
 8065TIP3    H224160   3.970   5.529   4.980 -0.2637 -0.7478 -0.2900
 8066TIP3   OH224161   2.842   0.925   1.719 -0.4553 -0.5080 -0.6972
 8066TIP3    H124162   2.917   0.969   1.679  1.6891 -1.3613  2.0522
 8066TIP3    H224163   2.834   0.967   1.805 -1.1613 -2.4968  0.2540
 8067TIP3   OH224164   0.892   6.257   4.398 -0.3116  0.7512 -0.3494
 8067TIP3    H124165   0.936   6.270   4.482 -0.2437  0.4177 -0.3326
 8067TIP3    H224166   0.939   6.315   4.338  0.4177  0.1124 -0.4202
 8068TIP3   OH224167   1.483   1.340   1.982  0.0026  0.2878 -0.8402
 8068TIP3    H124168   1.427   1.357   1.906 -0.6653  1.0447 -0.1941
 8068TIP3    H224169   1.520   1.426   2.004  0.6129 -0.0210 -0.6289
 8069TIP3   OH224170   4.897   1.387   2.832  0.3830  0.1100  0.1045
 8069TIP3    H124171   4.854   1.339   2.903 -1.7683  2.2978  0.4103
 8069TIP3    H224172   4.944   1.457   2.876 -0.2942  0.9977 -0.5520
 8070TIP3   OH224173   5.069   0.047   1.556  0.4683 -0.0027  0.1456
 8070TIP3    H124174   5.119   0.128   1.549 -1.0547  1.1094  1.4300
 8070TIP3    H224175   4.985   0.068   1.515 -0.5553 -0.3614  1.9861
 8071TIP3   OH224176   5.842   0.799   3.458 -0.2020  0.2627 -0.5492
 8071TIP3    H124177   5.809   0.799   3.548 -0.4890  0.9156 -0.6473
 8071TIP3    H224178   5.916   0.859   3.460  1.6277 -1.8830 -0.1255
 8072TIP3   OH224179   6.507   2.536   4.447 -0.0801  0.5177  0.0397
 8072TIP3    H124180   6.439   2.565   4.508 -0.5073  1.0781 -0.6783
 8072TIP3    H224181   6.494   2.442   4.439 -0.8752  0.6377 -0.1992
 8073TIP3   OH224182   3.196   5.775   5.750 -0.4371 -0.2084 -0.0613
 8073TIP3    H124183   3.233   5.824   5.823 -0.0428  0.2337 -0.5509
 8073TIP3    H224184   3.260   5.785   5.679 -0.2237 -1.6313 -0.0987
 8074TIP3   OH224185   6.949   0.172   3.383  0.1486 -0.3787  0.0915
 8074TIP3    H124186   6.947   0.087   3.340 -0.0595 -0.8691  1.0459
 8074TIP3    H224187   7.040   0.201   3.373  0.2666 -0.7983 -0.0734
 8075TIP3   OH224188   6.344   0.190   5.415 -0.4868  0.1997 -0.1603
 8075TIP3    H124189   6.356   0.274   5.370 -0.7073  0.5033  0.3376
 8075TIP3    H224190   6.428   0.175   5.459  0.3910 -1.0166 -2.1610
 8076TIP3   OH224191   3.966   6.085   2.431  0.0372  0.2643 -0.5642
 8076TIP3    H124192   4.047   6.135   2.441  0.3589 -0.1617 -1.0043
 8076TIP3    H224193   3.962   6.030   2.509  0.2317  0.2054 -0.5946
 8077TIP3   OH224194   6.797   3.688   1.807 -0.3853 -0.2825  0.1161
 8077TIP3    H124195   6.858   3.751   1.845 -0.6232 -0.0016  0.0387
 8077TIP3    H224196   6.764   3.639   1.882 -2.0566  1.3227  0.5109
 8078TIP3   OH224197   1.982   1.437   2.694  0.5169 -0.3432  0.1333
 8078TIP3    H124198   1.965   1.378   2.767 -0.2180  2.0964  2.0446
 8078TIP3    H224199   2.077   1.453   2.698  0.7564 -1.4178 -0.5106
 8079TIP3   OH224200   0.880   2.479   3.025  0.1045  0.7076 -0.7621
 8079TIP3    H124201   0.958   2.499   3.076 -0.4793 -0.1611  0.5046
 8079TIP3    H224202   0.906   2.407   2.968 -0.1741 -0.6172  0.7436
 8080TIP3   OH224203   1.342   0.329   3.551  0.1318  0.7349  0.5264
 8080TIP3    H124204   1.298   0.382   3.484 -1.6810  1.7853  2.4270
 8080TIP3    H224205   1.375   0.393   3.614  1.3327 -0.2484  0.9208
 8081TIP3   OH224206   3.770   5.488   2.477 -0.2759  0.7944 -0.3264
 8081TIP3    H124207   3.696   5.431   2.497  0.0945  1.0476  2.1290
 8081TIP3    H224208   3.732   5.559   2.425 -1.6258  0.5118  0.2214
 8082TIP3   OH224209   0.912   3.890   2.664  0.5101  0.1024  0.0301
 8082TIP3    H124210   0.966   3.873   2.587 -1.1901  0.1115 -1.2451
 8082TIP3    H224211   0.880   3.979   2.651 -0.2143 -0.0876  0.4581
 8083TIP3   OH224212   2.904   4.976   3.720  0.5664  0.0769  0.3355
 8083TIP3    H124213   2.895   4.913   3.792 -0.6351 -2.0032 -1.4841
 8083TIP3    H224214   2.826   5.032   3.727  0.4372 -0.1432  0.6554
 8084TIP3   OH224215   3.072   3.916   4.056 -0.1463 -0.2872 -0.2497
 8084TIP3    H124216   3.154   3.929   4.009 -0.2254  0.2268 -0.2446
 8084TIP3    H224217   3.029   3.844   4.010  0.2533 -0.4865 -0.3178
 8085TIP3   OH224218   6.186   0.156   2.064 -0.1423 -0.2709 -0.3826
 8085TIP3    H124219   6.184   0.103   1.985  2.4190 -0.3952 -0.4587
 8085TIP3    H224220   6.171   0.246   2.033 -0.1240 -0.4359 -0.8812
 8086TIP3   OH224221   3.880   6.470   4.151 -0.0016  0.2049  0.1465
 8086TIP3    H124222   3.902   6.461   4.244  0.7258 -1.3075 -0.1524
 8086TIP3    H224223   3.872   6.564   4.138  4.0116  0.8036  0.8270
 8087TIP3   OH224224   0.596   3.566   3.907 -0.0385 -0.0349  0.1094
 8087TIP3    H124225   0.524   3.626   3.928  1.3239  1.1150  1.8231
 8087TIP3    H224226   0.669   3.623   3.886  0.7764 -1.1477 -0.1481
 8088TIP3   OH224227   6.985   1.862   4.600 -0.0767 -0.4769  0.0314
 8088TIP3    H124228   7.001   1.939   4.655  0.2077 -1.3792  1.2609
 8088TIP3    H224229   6.954   1.898   4.517  0.0743  0.9613  0.5652
 8089TIP3   OH224230   1.749   2.838   0.080  0.0281  0.0260 -0.1099
 8089TIP3    H124231   1.676   2.839   0.018 -0.6323  1.2129  0.6428
 8089TIP3    H224232   1.807   2.908   0.051 -0.5904  1.0054  0.9248
 8090TIP3   OH224233   3.232   0.154   5.036  0.1033 -0.1816  0.6110
 8090TIP3    H124234   3.175   0.180   5.109  0.5409 -0.0119  0.8938
 8090TIP3    H224235   3.189   0.189   4.958 -0.2449 -0.1601  0.8106
 8091TIP3   OH224236   3.714   4.612   1.397  0.2204  0.2982  0.5473
 8091TIP3    H124237   3.653   4.683   1.414 -3.5463 -1.9859 -1.9583
 8091TIP3    H224238   3.670   4.534   1.430  1.9074 -1.4522 -1.1066
 8092TIP3   OH224239   4.971   5.501   2.193 -0.5486  0.3083 -0.2273
 8092TIP3    H124240   4.961   5.495   2.288  0.4496  0.6295 -0.0908
 8092TIP3    H224241   4.903   5.444   2.158 -0.2241 -0.6792  0.7058
 8093TIP3   OH224242   5.196   5.534   2.739 -0.1964 -0.8308  0.3123
 8093TIP3    H124243   5.285   5.516   2.771  0.1164  0.1438  0.0135
 8093TIP3    H224244   5.168   5.451   2.700  0.4636 -1.2372  0.6715
 8094TIP3   OH224245   3.999   3.663   2.783  0.2544 -0.4696  0.0891
 8094TIP3    H124246   4.076   3.621   2.743  0.3322 -0.2652  0.0233
 8094TIP3    H224247   4.032   3.699   2.865  0.1181 -0.7986  0.2889
 8095TIP3   OH224248   6.698   1.491   1.662  0.3942  0.1884  0.0293
 8095TIP3    H124249   6.673   1.577   1.629 -1.0448 -0.5489 -0.9054
 8095TIP3    H224250   6.644   1.478   1.740 -0.2070 -0.2894 -0.4502
 8096TIP3   OH224251   3.940   2.525   2.928 -0.0105 -0.3575 -0.5485
 8096TIP3    H124252   3.938   2.436   2.891  1.4509  0.0125 -1.5676
 8096TIP3    H224253   4.033   2.543   2.942 -0.3779  0.4242  1.1863
 8097TIP3   OH224254   4.095   2.147   2.147 -0.0091 -0.3750 -0.0047
 8097TIP3    H124255   4.140   2.115   2.069 -2.1016  1.7567 -2.2638
 8097TIP3    H224256   4.019   2.090   2.157 -1.6631  1.3875 -1.7564
 8098TIP3   OH224257   3.764   1.300   2.811 -0.6709  0.1040 -0.6150
 8098TIP3    H124258   3.845   1.349   2.820 -1.2862  1.2656 -1.1570
 8098TIP3    H224259   3.749   1.296   2.716 -0.4756 -1.4159 -0.6014
 8099TIP3   OH224260   5.707   1.159   5.188  0.3187  0.1938  0.0670
 8099TIP3    H124261   5.708   1.155   5.093 -0.5380  0.5385  0.0356
 8099TIP3    H224262   5.656   1.238   5.209  1.3869  0.7138  0.8030
 8100TIP3   OH224263   3.402   0.291   4.403 -0.4907 -0.4125 -0.0076
 8100TIP3    H124264   3.423   0.199   4.385 -1.1103 -0.7995  1.1886
 8100TIP3    H224265   3.311   0.300   4.375 -0.3472 -0.0733 -0.3819
 8101TIP3   OH224266   1.993   1.149   1.914  0.0431  0.0462  0.0280
 8101TIP3    H124267   2.027   1.149   2.003 -0.0700 -1.6486  0.1103
 8101TIP3    H224268   1.902   1.177   1.923  0.5178  1.6089  0.1950
 8102TIP3   OH224269   2.103   6.420   0.558 -0.4444  0.5136  0.2698
 8102TIP3    H124270   2.016   6.387   0.578 -0.2645  0.1687  0.4914
 8102TIP3    H224271   2.154   6.342   0.536 -0.5073  0.8197 -1.0709
 8103TIP3   OH224272   5.624   3.525   0.614  0.4723  0.0367 -0.0908
 8103TIP3    H124273   5.569   3.462   0.569  1.1871  0.7054 -1.9812
 8103TIP3    H224274   5.627   3.602   0.556  3.1913  0.1035 -0.0170
 8104TIP3   OH224275   5.084   6.721   3.191 -0.2068  0.1551  0.1067
 8104TIP3    H124276   5.122   6.792   3.140  0.3075 -0.5108 -0.4632
 8104TIP3    H224277   5.157   6.682   3.238 -0.7324  0.9646  1.6306
 8105TIP3   OH224278   2.458   2.226   3.263 -0.8151 -0.2811 -0.0250
 8105TIP3    H124279   2.372   2.238   3.302 -1.1354  1.1593 -1.1047
 8105TIP3    H224280   2.470   2.131   3.259 -1.7513 -0.4863  1.3927
 8106TIP3   OH224281   5.592   1.934   1.564  0.1530  0.1017  0.3024
 8106TIP3    H124282   5.519   1.973   1.611 -0.5504 -0.3272 -0.3977
 8106TIP3    H224283   5.631   2.007   1.515 -1.1919 -0.0312 -1.0508
 8107TIP3   OH224284   4.542   5.845   3.461  0.2818 -0.2647  0.0452
 8107TIP3    H124285   4.558   5.927   3.508  1.0424 -1.3876  1.8878
 8107TIP3    H224286   4.580   5.859   3.375  0.6432  1.2326  0.4189
 8108TIP3   OH224287   0.476   3.429   3.159 -0.3982 -0.4794  0.9427
 8108TIP3    H124288   0.541   3.379   3.111 -0.9110  0.1457 -0.4441
 8108TIP3    H224289   0.397   3.374   3.156 -0.8319  0.1813 -0.1863
 8109TIP3   OH224290   1.277   0.275   2.260 -1.1282 -0.8855  0.2825
 8109TIP3    H124291   1.192   0.292   2.219 -1.2900 -0.5547  0.7344
 8109TIP3    H224292   1.341   0.308   2.198 -1.3438 -0.9266  0.0367
 8110TIP3   OH224293   0.632   0.710   1.161 -0.3928 -0.5126 -0.2726
 8110TIP3    H124294   0.644   0.694   1.068  0.3984 -1.9295  0.0366
 8110TIP3    H224295   0.721   0.716   1.196 -0.6783 -0.0947  0.4166
 8111TIP3   OH224296   3.267   5.438   2.694 -0.3824 -0.0501 -0.2491
 8111TIP3    H124297   3.227   5.358   2.727  0.3339 -0.2886  0.0491
 8111TIP3    H224298   3.222   5.455   2.611  0.4685 -1.5680 -1.0505
 8112TIP3   OH224299   1.642   3.286   1.054 -0.0345  0.0958  0.1364
 8112TIP3    H124300   1.596   3.206   1.027  0.3010  0.3070 -1.1304
 8112TIP3    H224301   1.622   3.349   0.984  0.3620  0.8749  0.7141
 8113TIP3   OH224302   3.514   5.471   1.216  0.2675  0.2122 -0.1349
 8113TIP3    H124303   3.538   5.522   1.293 -0.0881  0.6809 -0.3282
 8113TIP3    H224304   3.598   5.451   1.174  0.5304 -0.8134  0.8391
 8114TIP3   OH224305   4.746   5.187   1.580  0.1800 -1.0509  0.0344
 8114TIP3    H124306   4.731   5.157   1.670  0.3776  0.9061  0.7685
 8114TIP3    H224307   4.659   5.215   1.550  0.4193  0.0499  0.3222
 8115TIP3   OH224308   3.218   2.466   0.875  0.2307 -0.1613  0.1102
 8115TIP3    H124309   3.149   2.513   0.828 -1.0269 -1.5382  0.5576
 8115TIP3    H224310   3.270   2.426   0.805 -1.3162 -1.7531 -0.1921
 8116TIP3   OH224311   4.227   0.790   4.433  0.0152 -0.0759 -0.7872
 8116TIP3    H124312   4.200   0.728   4.501  1.7750 -0.1501 -0.0854
 8116TIP3    H224313   4.250   0.735   4.359  0.5741 -0.2034 -0.5261
 8117TIP3   OH224314   4.998   1.026   5.712 -0.5320 -0.0667  0.3324
 8117TIP3    H124315   4.990   1.068   5.626  0.7118 -1.4482 -0.5002
 8117TIP3    H224316   4.936   0.953   5.709  0.0535 -0.5649  0.3252
 8118TIP3   OH224317   0.740   6.716   4.379  0.0471  0.3365 -0.4029
 8118TIP3    H124318   0.803   6.669   4.433 -1.2884 -1.1204 -0.0061
 8118TIP3    H224319   0.779   6.717   4.291  1.1968  0.6755  0.0934
 8119TIP3   OH224320   5.748   1.903   5.216  0.0993  0.2219  0.6499
 8119TIP3    H124321   5.842   1.915   5.203 -0.0960  0.5011 -0.6177
 8119TIP3    H224322   5.709   1.983   5.181 -0.6309  0.0267  1.0013
 8120TIP3   OH224323   5.431   5.846   4.187  0.6542 -0.0596 -0.1747
 8120TIP3    H124324   5.423   5.941   4.180  0.0761 -0.0744  0.2702
 8120TIP3    H224325   5.347   5.817   4.222  0.9926 -0.6888  0.1270
 8121TIP3   OH224326   4.402   4.454   0.020 -0.0448  0.1834  0.1067
 8121TIP3    H124327   4.347   4.452   0.099 -0.9645 -1.6739 -0.5240
 8121TIP3    H224328   4.360   4.393  -0.040  0.6233  1.5602 -1.8682
 8122TIP3   OH224329   5.061   0.152   4.162  0.1480 -0.2919 -0.4779
 8122TIP3    H124330   4.972   0.120   4.174  0.7037 -1.5658  0.5039
 8122TIP3    H224331   5.106   0.131   4.244  1.1288  1.1336 -0.6076
 8123TIP3   OH224332   2.106   3.323   2.431 -0.2562  0.2659  0.5610
 8123TIP3    H124333   2.027   3.270   2.434  1.2407 -2.2272 -0.5638
 8123TIP3    H224334   2.155   3.298   2.510  0.0752  0.6529  0.4842
 8124TIP3   OH224335   2.457   1.215   5.442 -0.3275  0.4039 -0.1822
 8124TIP3    H124336   2.460   1.213   5.347  0.9238  0.7883 -0.1626
 8124TIP3    H224337   2.364   1.227   5.463 -0.4410  1.8709 -1.3851
 8125TIP3   OH224338   0.172   5.005   4.836  0.1093 -0.6524  1.1854
 8125TIP3    H124339   0.204   4.949   4.907  2.9138  0.2880  0.7746
 8125TIP3    H224340   0.211   5.090   4.853  0.5380 -0.2954 -1.2443
 8126TIP3   OH224341   1.089   6.290   3.487 -0.4005 -0.4381  0.0382
 8126TIP3    H124342   1.059   6.215   3.539 -1.3035 -1.4032 -1.8009
 8126TIP3    H224343   1.112   6.252   3.402 -1.3022  1.4422 -1.0864
 8127TIP3   OH224344   3.140   0.354   0.170  0.0811 -0.8692 -0.1828
 8127TIP3    H124345   3.223   0.307   0.163  0.1793 -1.3017  2.8186
 8127TIP3    H224346   3.160   0.431   0.223 -1.3621 -0.8305  0.3527
 8128TIP3   OH224347   1.820   5.582   5.430  0.2237 -0.3998 -0.1274
 8128TIP3    H124348   1.842   5.558   5.340 -1.2910 -1.7519 -0.1788
 8128TIP3    H224349   1.901   5.565   5.479  0.4627 -1.6634 -0.8986
 8129TIP3   OH224350   2.175   2.652   0.561  0.0857 -0.4868  0.2964
 8129TIP3    H124351   2.242   2.716   0.584 -1.3760  0.8298  1.1263
 8129TIP3    H224352   2.175   2.650   0.465  0.5851  0.2789  0.2758
 8130TIP3   OH224353   4.980   1.094   2.991 -0.5208 -0.1470 -0.1542
 8130TIP3    H124354   5.062   1.131   3.025  1.0434 -3.3228 -0.1310
 8130TIP3    H224355   4.914   1.159   3.013  1.8433  2.2551  0.4630
 8131TIP3   OH224356   4.593   2.892   3.764 -0.1699 -0.5918  0.7590
 8131TIP3    H124357   4.503   2.860   3.762 -0.3576 -0.0541  0.0329
 8131TIP3    H224358   4.588   2.974   3.814 -0.4168  0.3371 -0.7110
 8132TIP3   OH224359   2.185   2.742   1.998 -0.5312 -0.1754  0.0280
 8132TIP3    H124360   2.233   2.792   1.932 -1.9067 -0.0338 -0.9208
 8132TIP3    H224361   2.138   2.675   1.949  1.0366 -2.2759  1.2585
 8133TIP3   OH224362   5.580   2.362   3.416 -0.4022  0.0868 -0.0204
 8133TIP3    H124363   5.605   2.321   3.333 -0.2900  0.8338 -0.3713
 8133TIP3    H224364   5.568   2.455   3.394  0.3267  0.4243  0.9432
 8134TIP3   OH224365   1.582   4.553   1.440 -0.1452 -0.0235  0.2588
 8134TIP3    H124366   1.620   4.506   1.514  0.1932 -1.5281 -0.8336
 8134TIP3    H224367   1.579   4.644   1.469  4.1758  0.2263  0.5042
 8135TIP3   OH224368   6.975   3.709   1.337 -0.0978  0.0918 -0.1716
 8135TIP3    H124369   6.888   3.746   1.321  0.5844  2.7046  1.5513
 8135TIP3    H224370   6.960   3.615   1.343 -2.6173  0.3640 -0.9983
 8136TIP3   OH224371   4.937   4.028   1.237  0.1365  0.4973 -0.3068
 8136TIP3    H124372   4.977   3.942   1.226  0.4652  0.6592 -0.4033
 8136TIP3    H224373   4.919   4.034   1.331 -0.7044 -0.0276 -0.4229
 8137TIP3   OH224374   7.156   1.006   2.153  0.1261 -0.7579 -0.1961
 8137TIP3    H124375   7.107   0.960   2.221 -0.5526  0.4604  0.1650
 8137TIP3    H224376   7.244   1.015   2.190  0.1276 -1.2936 -0.0562
 8138TIP3   OH224377   3.088   6.715   4.473  0.1127  0.1522  0.1831
 8138TIP3    H124378   3.169   6.692   4.428  0.7899  0.7722  1.0477
 8138TIP3    H224379   3.100   6.681   4.562 -0.9813 -0.5972  0.0607
 8139TIP3   OH224380   2.594   1.414   4.858 -0.0199 -0.6265 -0.7446
 8139TIP3    H124381   2.653   1.469   4.806  1.4087 -0.5987  0.8109
 8139TIP3    H224382   2.603   1.327   4.821  0.8987 -0.5910 -0.6108
 8140TIP3   OH224383   0.228   3.305   3.158  0.2163 -0.0150 -0.1972
 8140TIP3    H124384   0.183   3.271   3.235  1.7044 -0.3203  0.5766
 8140TIP3    H224385   0.253   3.227   3.109 -1.5855  0.1996 -1.5515
 8141TIP3   OH224386   6.235   4.741   1.092  0.2450  0.0350 -0.2915
 8141TIP3    H124387   6.247   4.675   1.161 -1.8487 -0.9542 -0.7832
 8141TIP3    H224388   6.251   4.824   1.136  0.2803 -0.6473  1.0504
 8142TIP3   OH224389   3.300   6.307   2.980  0.5476  0.4407 -0.2508
 8142TIP3    H124390   3.244   6.267   2.913 -0.3469  0.9432  0.1788
 8142TIP3    H224391   3.241   6.363   3.030  1.4173  0.8794  0.3056
 8143TIP3   OH224392   3.637   5.032   2.284  0.0138 -0.4061  0.2995
 8143TIP3    H124393   3.543   5.044   2.272 -0.0697 -1.2778 -0.0027
 8143TIP3    H224394   3.649   4.937   2.283  1.0051 -0.2920 -0.5445
 8144TIP3   OH224395   6.362   4.201   2.339  0.3510 -0.1612 -0.1895
 8144TIP3    H124396   6.365   4.296   2.350 -1.0062  0.4426 -3.6774
 8144TIP3    H224397   6.454   4.175   2.333  0.7255  1.2307 -0.9069
 8145TIP3   OH224398   2.140   3.092   3.873  0.0248 -0.0321 -0.3952
 8145TIP3    H124399   2.081   3.131   3.938  0.0705 -1.1725  0.3532
 8145TIP3    H224400   2.228   3.109   3.908  0.2456  2.2563 -1.8386
 8146TIP3   OH224401   4.654   3.553   0.273  0.4475 -0.0691  0.0643
 8146TIP3    H124402   4.747   3.535   0.283  0.6282  0.8013  0.0133
 8146TIP3    H224403   4.619   3.476   0.229  0.7318 -1.3584  1.9822
 8147TIP3   OH224404   2.886   6.517   5.177  0.1928 -0.3768  0.2193
 8147TIP3    H124405   2.885   6.612   5.167 -1.0325 -0.4704 -0.6929
 8147TIP3    H224406   2.917   6.503   5.267  0.3928  0.8699  0.3624
 8148TIP3   OH224407   3.941   1.756   3.472 -0.6526 -0.2852 -0.9125
 8148TIP3    H124408   3.960   1.738   3.564  4.1744  0.2849 -1.5322
 8148TIP3    H224409   3.845   1.749   3.465 -1.2114 -0.8068  3.9560
 8149TIP3   OH224410   3.183   3.364   4.777  0.3089  0.0084 -0.1698
 8149TIP3    H124411   3.226   3.366   4.863  1.6653  0.5793 -0.8366
 8149TIP3    H224412   3.154   3.274   4.768 -2.5533  0.5541  2.1354
 8150TIP3   OH224413   4.700   5.657   4.597 -0.0188 -0.5909  0.4487
 8150TIP3    H124414   4.687   5.562   4.602 -1.4404 -0.6461 -2.2117
 8150TIP3    H224415   4.612   5.693   4.610  0.0200  0.1660 -1.1947
 8151TIP3   OH224416   2.389   5.969   3.957  0.0933  0.0099 -0.2540
 8151TIP3    H124417   2.363   6.034   3.892 -0.3687 -0.3478 -0.4305
 8151TIP3    H224418   2.455   6.014   4.010  1.2939 -0.0654 -1.6419
 8152TIP3   OH224419   1.275   4.629   4.734 -0.0448 -0.2346  0.1127
 8152TIP3    H124420   1.201   4.573   4.757  0.1803 -0.6636 -0.1934
 8152TIP3    H224421   1.268   4.639   4.639  0.9163 -1.1928 -0.0790
 8153TIP3   OH224422   3.755   5.127   4.198  0.2236  0.6847 -0.1223
 8153TIP3    H124423   3.792   5.201   4.149 -0.1783  1.5963  0.8965
 8153TIP3    H224424   3.826   5.062   4.200  0.6383  1.0909 -0.9105
 8154TIP3   OH224425   1.397   6.602   2.804 -0.3452  0.2453  0.5655
 8154TIP3    H124426   1.359   6.542   2.868 -0.1242 -1.0716 -0.4952
 8154TIP3    H224427   1.473   6.556   2.769 -0.6728  0.7572 -0.9109
 8155TIP3   OH224428   6.327   0.988   4.808 -0.2420  0.1244 -0.3715
 8155TIP3    H124429   6.379   0.927   4.755 -0.0191 -1.2922  1.3794
 8155TIP3    H224430   6.303   1.058   4.748  1.3241 -0.6143 -1.9296
 8156TIP3   OH224431   5.889   5.251   3.783 -0.1950 -0.0166  0.3185
 8156TIP3    H124432   5.977   5.288   3.780 -0.4961  0.7626  1.0044
 8156TIP3    H224433   5.885   5.195   3.706  1.1802 -0.6936  0.6978
 8157TIP3   OH224434   2.272   1.518   5.242  0.4743  0.4830  0.2579
 8157TIP3    H124435   2.273   1.423   5.238 -0.5322  0.4656  0.2039
 8157TIP3    H224436   2.333   1.546   5.174 -1.4563 -0.0920 -1.8249
 8158TIP3   OH224437   0.023   4.895   5.678  0.3305 -0.4634  0.1092
 8158TIP3    H124438   0.084   4.898   5.752  0.3639  0.9630  0.0382
 8158TIP3    H224439   0.046   4.814   5.632  1.1927 -0.6894  0.9019
 8159TIP3   OH224440   6.395   0.448   4.875  0.7235  0.0248 -0.3989
 8159TIP3    H124441   6.415   0.481   4.787 -1.2096 -2.3528 -1.8779
 8159TIP3    H224442   6.304   0.472   4.890  0.4643 -1.1979  0.1264
 8160TIP3   OH224443   6.924   4.818   2.812  0.0085 -0.2745  0.0485
 8160TIP3    H124444   6.899   4.835   2.721  0.5065  0.9042  0.1116
 8160TIP3    H224445   7.004   4.765   2.805 -0.0751 -0.3746 -0.1911
 8161TIP3   OH224446   5.686   6.636   2.607  0.6484  0.0851  0.4898
 8161TIP3    H124447   5.660   6.624   2.515  0.7576  2.5693  0.0718
 8161TIP3    H224448   5.682   6.731   2.621  0.1865 -0.2517  3.2142
 8162TIP3   OH224449   4.660   3.407   3.577  0.0744  0.4707 -0.0401
 8162TIP3    H124450   4.692   3.379   3.492  0.0751 -1.5004  0.5593
 8162TIP3    H224451   4.565   3.412   3.567  0.2100  2.5964 -0.7679
 8163TIP3   OH224452   7.108   0.150   0.766 -0.2724  0.4176  0.2049
 8163TIP3    H124453   7.038   0.120   0.824 -2.0866  0.7953 -1.6465
 8163TIP3    H224454   7.093   0.244   0.757 -2.4707 -0.0544 -3.6203
 8164TIP3   OH224455   4.260   6.619   1.901  0.4046 -0.3307 -0.2041
 8164TIP3    H124456   4.254   6.708   1.936  1.7364  0.4201 -1.7957
 8164TIP3    H224457   4.172   6.584   1.911  0.0501  0.8561  1.2165
 8165TIP3   OH224458   4.261   0.110   1.998  0.6499  0.2738  0.2926
 8165TIP3    H124459   4.262   0.195   2.041  1.4128  0.7440 -0.5986
 8165TIP3    H224460   4.313   0.123   1.918  0.5014 -0.9382 -0.0285
 8166TIP3   OH224461   4.694   3.313   3.320  0.3468 -0.0845  0.5950
 8166TIP3    H124462   4.730   3.369   3.251  0.4467 -2.2703 -1.2433
 8166TIP3    H224463   4.698   3.224   3.283 -1.0713 -1.1571  2.8269
 8167TIP3   OH224464   4.090   6.093   4.730  0.1773  0.2486  0.0457
 8167TIP3    H124465   4.104   6.001   4.709 -1.1369 -0.4753  2.0562
 8167TIP3    H224466   3.999   6.110   4.704 -0.0132  0.5862  0.9041
 8168TIP3   OH224467   4.869   5.928   1.672  0.1111  0.0934  0.1685
 8168TIP3    H124468   4.906   5.975   1.746  0.9968 -0.7324  0.2729
 8168TIP3    H224469   4.890   5.836   1.689  0.3273 -0.1151 -1.0816
 8169TIP3   OH224470   2.243   3.868   5.175 -0.7894  0.3222  0.2551
 8169TIP3    H124471   2.329   3.910   5.182 -0.5803 -0.0473 -0.0522
 8169TIP3    H224472   2.253   3.784   5.220 -1.0207  0.3224  0.3080
 8170TIP3   OH224473   2.644   0.667   1.868  0.2415  0.1474 -0.2777
 8170TIP3    H124474   2.597   0.730   1.813 -1.3591  0.5881  1.4670
 8170TIP3    H224475   2.580   0.642   1.935  1.7706 -1.1314  0.7716
 8171TIP3   OH224476   4.677   1.147   3.858  0.6139  0.0487 -0.5079
 8171TIP3    H124477   4.740   1.217   3.841  0.5206  0.0626 -0.7934
 8171TIP3    H224478   4.700   1.079   3.795 -0.4529  0.5534 -1.4678
 8172TIP3   OH224479   3.437   0.685   1.119  0.2122  0.2889 -0.0996
 8172TIP3    H124480   3.452   0.692   1.025 -0.7038 -0.2537 -0.3021
 8172TIP3    H224481   3.485   0.759   1.157  1.8171 -0.3369 -0.8359
 8173TIP3   OH224482   4.877   0.856   2.342  0.4937  0.5089  0.2199
 8173TIP3    H124483   4.915   0.923   2.286 -0.7263  0.8839 -0.1839
 8173TIP3    H224484   4.878   0.895   2.430  1.6192  0.2490  0.3463
 8174TIP3   OH224485   2.255   1.012   0.312  0.0383  0.6572  0.0501
 8174TIP3    H124486   2.278   1.009   0.219  0.2864  0.2665  0.1214
 8174TIP3    H224487   2.340   1.008   0.357 -0.1589 -3.1296  0.3819
 8175TIP3   OH224488   4.536   3.585   2.630  0.1599  0.3375  0.3819
 8175TIP3    H124489   4.600   3.637   2.582  0.9485 -1.4957 -0.6549
 8175TIP3    H224490   4.526   3.506   2.578 -1.7017 -0.1601  1.4126
 8176TIP3   OH224491   3.390   2.954   2.599  0.2084  0.0695  0.1038
 8176TIP3    H124492   3.301   2.918   2.597  0.0499  0.4750 -0.4933
 8176TIP3    H224493   3.431   2.923   2.518  0.0674  1.1991 -0.4271
 8177TIP3   OH224494   1.840   2.918   4.546  0.0047 -0.2760  0.0569
 8177TIP3    H124495   1.821   2.888   4.458  0.5515 -0.7433  0.0945
 8177TIP3    H224496   1.936   2.920   4.551 -0.0075 -1.2274  0.9604
 8178TIP3   OH224497   4.716   5.746   1.175 -0.0988  0.3715 -0.1695
 8178TIP3    H124498   4.686   5.837   1.174 -1.4506 -0.0543 -0.0427
 8178TIP3    H224499   4.779   5.741   1.102 -0.8197  1.1456 -0.8729
 8179TIP3   OH224500   1.626   5.344   5.574 -0.3274 -0.1569  0.5280
 8179TIP3    H124501   1.566   5.327   5.501 -1.0809 -0.2563  1.1474
 8179TIP3    H224502   1.624   5.438   5.586 -0.7991 -0.2119  0.9030
 8180TIP3   OH224503   0.316   2.877   3.015 -0.2191  0.4338  0.2680
 8180TIP3    H124504   0.374   2.826   3.071 -1.1337 -0.6431  0.2980
 8180TIP3    H224505   0.236   2.886   3.067  0.3895  3.2067  0.8460
 8181TIP3   OH224506   0.437   1.462   0.377 -0.0293 -0.0189 -0.2214
 8181TIP3    H124507   0.396   1.412   0.447 -0.6046 -0.4589 -0.8603
 8181TIP3    H224508   0.483   1.533   0.422 -0.4382 -0.2543  0.5883
 8182TIP3   OH224509   1.605   5.763   0.565  0.2946 -0.2776 -0.0816
 8182TIP3    H124510   1.615   5.668   0.556  0.7447 -0.2909  0.4491
 8182TIP3    H224511   1.513   5.775   0.587  0.5559 -0.7355  1.3728
 8183TIP3   OH224512   4.184   4.502   1.001 -0.8430  0.7394  0.1391
 8183TIP3    H124513   4.168   4.574   1.062 -0.2651 -0.1361  1.3529
 8183TIP3    H224514   4.230   4.543   0.928 -1.4832  1.7989  0.3001
 8184TIP3   OH224515   6.412   1.353   0.421  0.2675  0.4242  0.5243
 8184TIP3    H124516   6.415   1.300   0.341 -1.0161  0.7640  0.2284
 8184TIP3    H224517   6.365   1.433   0.396 -4.4055 -1.2884  2.5385
 8185TIP3   OH224518   5.401   3.187   5.768  0.4365 -0.4836 -0.3450
 8185TIP3    H124519   5.416   3.105   5.815  1.5775 -0.0218  0.1396
 8185TIP3    H224520   5.312   3.180   5.734  0.8465 -2.3195 -1.1331
 8186TIP3   OH224521   4.200   4.897   1.977  0.8374  0.2189  0.4311
 8186TIP3    H124522   4.295   4.906   1.986  0.9016 -0.3759  0.4272
 8186TIP3    H224523   4.186   4.885   1.883  0.4563  3.3608  0.0005
 8187TIP3   OH224524   5.365   3.011   4.911 -0.1279  0.3974  0.0336
 8187TIP3    H124525   5.416   3.090   4.931 -1.2378  0.9529  0.7616
 8187TIP3    H224526   5.400   2.945   4.971  1.1476  0.1565 -0.9192
 8188TIP3   OH224527   4.409   4.589   2.528  0.3367 -0.3165 -0.4133
 8188TIP3    H124528   4.497   4.553   2.515 -0.6483 -3.0029 -0.3481
 8188TIP3    H224529   4.365   4.572   2.445 -0.1461  1.0571 -0.4629
 8189TIP3   OH224530   6.274   1.042   5.721  0.4106 -0.2749 -0.4840
 8189TIP3    H124531   6.234   1.046   5.808  0.3629 -1.8655 -0.4025
 8189TIP3    H224532   6.204   1.068   5.661  0.5103  1.0469 -0.0511
 8190TIP3   OH224533   6.645   4.788   2.270  0.9336 -0.2529  0.0999
 8190TIP3    H124534   6.648   4.880   2.296 -1.0150 -0.6402  1.9854
 8190TIP3    H224535   6.588   4.786   2.194  0.5844  0.0391  0.3531
 8191TIP3   OH224536   5.907   2.984   1.535  0.4018  0.1743  0.6234
 8191TIP3    H124537   5.830   2.929   1.543 -0.6555  1.2659 -1.3701
 8191TIP3    H224538   5.892   3.056   1.597  1.3276 -1.1570  2.4981
 8192TIP3   OH224539   0.397   3.039   0.346 -0.0704 -0.0790 -0.2441
 8192TIP3    H124540   0.442   2.974   0.399  0.7493  1.0964  0.5493
 8192TIP3    H224541   0.307   3.039   0.380  0.4324  0.6308  1.1723
 8193TIP3   OH224542   0.143   0.453   3.847 -0.5055  0.1751 -0.2297
 8193TIP3    H124543   0.137   0.425   3.755 -2.9219 -0.0961 -0.0415
 8193TIP3    H224544   0.073   0.405   3.891 -0.4304  1.5269  1.4397
 8194TIP3   OH224545   4.214   1.926   1.947 -0.6634 -0.5495 -0.1495
 8194TIP3    H124546   4.138   1.940   1.891  1.0190 -0.4142 -2.5164
 8194TIP3    H224547   4.239   1.835   1.932  0.5714 -0.1419 -0.6471
 8195TIP3   OH224548   2.535   6.129   3.716  0.2823 -0.6400 -0.1872
 8195TIP3    H124549   2.449   6.150   3.753  0.8865 -1.0835  1.6068
 8195TIP3    H224550   2.591   6.201   3.746  0.9183 -1.3062  0.2579
 8196TIP3   OH224551   6.026   4.692   2.423 -0.2731 -0.1281  0.0327
 8196TIP3    H124552   6.063   4.665   2.507 -0.7356 -1.7307 -0.2510
 8196TIP3    H224553   5.988   4.778   2.441  1.1463  0.3475  1.0078
 8197TIP3   OH224554   4.547   1.055   2.003 -0.0776  0.4527  0.1754
 8197TIP3    H124555   4.473   1.101   1.964  0.6408  0.4318 -1.2852
 8197TIP3    H224556   4.573   1.110   2.077  0.1444  1.8904 -0.9389
 8198TIP3   OH224557   4.949   5.559   5.643  0.5605  0.0086  0.5983
 8198TIP3    H124558   4.932   5.582   5.552 -0.5184  1.0665  1.0419
 8198TIP3    H224559   5.043   5.537   5.645  0.5836 -0.0854 -0.7631
 8199TIP3   OH224560   2.051   3.705   1.760 -0.0141  0.0687  0.1439
 8199TIP3    H124561   2.064   3.611   1.774 -0.8768 -0.1990 -0.7396
 8199TIP3    H224562   1.960   3.713   1.732  0.2182  1.1000 -0.3837
 8200TIP3   OH224563   2.212   1.762   0.901 -0.1533  0.3585 -0.0402
 8200TIP3    H124564   2.295   1.789   0.939 -0.1377 -0.4014  0.4955
 8200TIP3    H224565   2.232   1.747   0.808  0.0630  1.1622 -0.1263
 8201TIP3   OH224566   2.229   2.983   2.638 -0.1350 -0.3341  0.0749
 8201TIP3    H124567   2.289   2.908   2.644  1.0513  0.6400  0.9419
 8201TIP3    H224568   2.274   3.045   2.580 -1.2199 -0.3668 -0.8406
 8202TIP3   OH224569   3.659   6.526   1.142 -0.7226  0.5162  0.3079
 8202TIP3    H124570   3.629   6.440   1.171 -0.1458  0.4673  0.7666
 8202TIP3    H224571   3.754   6.522   1.148 -0.6319  0.8567 -0.6175
 8203TIP3   OH224572   5.664   4.279   3.580 -0.1613  0.2748  0.2450
 8203TIP3    H124573   5.620   4.336   3.517  1.1303  0.1703 -0.7976
 8203TIP3    H224574   5.756   4.308   3.578  0.5398 -1.8228 -0.3177
 8204TIP3   OH224575   4.960   1.452   0.277  0.3173 -0.4515 -0.7070
 8204TIP3    H124576   4.985   1.451   0.369 -1.5192 -3.4780 -0.1023
 8204TIP3    H224577   4.946   1.360   0.255 -0.7289  0.2920 -3.6203
 8205TIP3   OH224578   0.048   1.217   2.993  0.4624  0.2148 -0.4798
 8205TIP3    H124579   0.062   1.127   3.023 -1.0451 -0.5579 -1.9331
 8205TIP3    H224580   0.134   1.246   2.963  1.0683 -0.5656  0.4520
 8206TIP3   OH224581   6.482   1.708   1.637  0.0075 -0.3082  0.0103
 8206TIP3    H124582   6.505   1.758   1.715  1.1896 -1.6615  0.5820
 8206TIP3    H224583   6.491   1.770   1.565 -0.8286  0.8900  0.9024
 8207TIP3   OH224584   3.304   5.055   4.910 -0.0326 -0.4880 -0.3169
 8207TIP3    H124585   3.365   5.122   4.941 -0.5246 -0.4397  0.5815
 8207TIP3    H224586   3.308   4.986   4.976 -0.2442 -0.9083 -0.7380
 8208TIP3   OH224587   2.216   0.416   3.631 -0.3105  0.5050  0.1226
 8208TIP3    H124588   2.161   0.459   3.696  0.1831 -0.2557  1.0702
 8208TIP3    H224589   2.299   0.464   3.634 -0.4188  0.7202 -0.2428
 8209TIP3   OH224590   3.090   1.024  -0.001 -0.3536 -0.4968  0.1838
 8209TIP3    H124591   3.045   1.064   0.074 -1.2458 -0.0249 -0.5820
 8209TIP3    H224592   3.025   0.963  -0.038 -0.0983 -0.3559 -0.5038
 8210TIP3   OH224593   3.040   6.049   4.156  0.1632  0.4826 -0.3557
 8210TIP3    H124594   3.118   6.081   4.201  0.7704 -2.2596  0.7209
 8210TIP3    H224595   3.053   5.954   4.149 -2.7188  0.0249 -0.8596
 8211TIP3   OH224596   0.159   4.301   4.802 -0.7828  0.0414 -0.0256
 8211TIP3    H124597   0.231   4.238   4.796 -0.7209  0.0911  0.1779
 8211TIP3    H224598   0.080   4.247   4.799 -0.7492  0.0207 -0.7033
 8212TIP3   OH224599   0.517   3.062   1.019  0.1465 -0.4189 -0.2644
 8212TIP3    H124600   0.513   3.025   1.107 -0.3219  0.7299  0.2199
 8212TIP3    H224601   0.607   3.096   1.011 -0.0935  0.3429  0.1550
 8213TIP3   OH224602   6.308   5.615   0.942 -0.2727 -0.1640 -0.4446
 8213TIP3    H124603   6.320   5.597   0.849 -0.0986 -0.5189 -0.3552
 8213TIP3    H224604   6.220   5.583   0.962 -0.2940 -0.1259 -0.4782
 8214TIP3   OH224605   4.341   3.614   4.166  0.0134  0.0029  0.0694
 8214TIP3    H124606   4.313   3.631   4.076  3.6949  0.6748 -1.1558
 8214TIP3    H224607   4.409   3.679   4.182  0.6472 -1.1788  2.7306
 8215TIP3   OH224608   5.671   6.251   2.495  0.2245  0.0061 -0.5619
 8215TIP3    H124609   5.597   6.304   2.524 -0.3767 -1.1353  0.0930
 8215TIP3    H224610   5.666   6.172   2.549  1.8529 -0.1467 -0.6046
 8216TIP3   OH224611   6.154   5.808   0.380 -0.2408  0.1665  0.6911
 8216TIP3    H124612   6.110   5.776   0.458 -2.3365  0.2833 -0.3785
 8216TIP3    H224613   6.106   5.888   0.356 -0.5310 -0.5799 -1.4282
 8217TIP3   OH224614   6.252   3.154   2.081  0.1160 -0.3525 -0.1713
 8217TIP3    H124615   6.241   3.174   2.174  0.0828 -0.7695 -0.0859
 8217TIP3    H224616   6.264   3.059   2.077 -2.7438 -0.7676 -0.8264
 8218TIP3   OH224617   0.369   0.271   1.189 -0.2256  0.0617 -0.1562
 8218TIP3    H124618   0.386   0.194   1.244  2.2142 -0.0913 -1.0165
 8218TIP3    H224619   0.386   0.346   1.246 -2.0692  0.0231  0.5211
 8219TIP3   OH224620   3.287   4.227   3.617 -0.1852  0.0231  0.0550
 8219TIP3    H124621   3.255   4.146   3.656  0.3417  0.2993  1.0800
 8219TIP3    H224622   3.319   4.202   3.531  2.8144 -1.4607  1.4790
 8220TIP3   OH224623   6.065   4.484   3.775  0.1032  0.0998  0.3455
 8220TIP3    H124624   6.013   4.551   3.731 -1.1422  1.0768  3.0765
 8220TIP3    H224625   6.143   4.530   3.807 -0.5259  0.2114  1.8144
 8221TIP3   OH224626   7.218   4.750   3.165  0.3342  0.5415  0.0411
 8221TIP3    H124627   7.242   4.657   3.171  1.0601  0.6346 -1.1233
 8221TIP3    H224628   7.143   4.759   3.223  0.6817 -0.6286  0.7038
 8222TIP3   OH224629   6.573   1.007   1.169 -0.2442 -0.5300 -0.0078
 8222TIP3    H124630   6.616   0.983   1.250  0.2893  3.3734  1.0654
 8222TIP3    H224631   6.628   1.076   1.131 -2.5235  0.5872 -1.5746
 8223TIP3   OH224632   1.579   4.902   2.992 -0.1880 -0.2362  0.3125
 8223TIP3    H124633   1.636   4.878   2.918  1.2796  0.4589  1.1818
 8223TIP3    H224634   1.639   4.926   3.062 -1.5353  1.7275  0.8932
 8224TIP3   OH224635   0.331   1.999   3.991  0.0799  0.1333  0.0892
 8224TIP3    H124636   0.339   2.069   4.056 -1.8206  0.8406 -0.3621
 8224TIP3    H224637   0.333   1.918   4.042  1.0134  0.5511  0.7460
 8225TIP3   OH224638   4.965   5.114   4.498 -0.0839 -0.0688 -0.2504
 8225TIP3    H124639   4.944   5.094   4.589 -0.5452  1.0285 -0.0946
 8225TIP3    H224640   4.994   5.031   4.461 -1.4967 -0.9066  0.4458
 8226TIP3   OH224641   4.989   0.904   1.115 -0.1068  0.5043  0.2910
 8226TIP3    H124642   4.936   0.931   1.041 -0.9288  0.5743  0.8977
 8226TIP3    H224643   5.052   0.975   1.127 -0.2146  0.6673 -0.0956
 8227TIP3   OH224644   3.846   6.152   0.234  0.0712 -0.2915 -0.3216
 8227TIP3    H124645   3.898   6.138   0.155 -0.4933 -0.6726 -0.6409
 8227TIP3    H224646   3.838   6.247   0.242  1.7113 -0.1892  0.3448
 8228TIP3   OH224647   1.847   4.649   3.531  0.3805 -0.5711  0.1301
 8228TIP3    H124648   1.795   4.720   3.495  1.3103  0.2443  0.3453
 8228TIP3    H224649   1.826   4.573   3.477 -1.3633 -0.3994  0.5013
 8229TIP3   OH224650   6.769   2.704   0.461  0.1086  0.6771  0.6162
 8229TIP3    H124651   6.761   2.614   0.430 -1.8824  0.5738  1.2834
 8229TIP3    H224652   6.860   2.728   0.441  1.3674 -2.1591  2.2930
 8230TIP3   OH224653   5.896   6.083   0.653 -0.1523 -0.5806  0.0678
 8230TIP3    H124654   5.929   6.018   0.591 -1.7137 -0.1971 -1.2269
 8230TIP3    H224655   5.934   6.165   0.624  1.0334 -0.7308  1.1124
 8231TIP3   OH224656   1.584   4.880   4.362  0.1417 -0.0858 -0.0057
 8231TIP3    H124657   1.557   4.925   4.282  0.9038 -0.2031 -0.3376
 8231TIP3    H224658   1.522   4.808   4.372  1.4463 -1.5850 -1.8629
 8232TIP3   OH224659   3.669   4.167   1.564  0.0650  0.1562  0.8726
 8232TIP3    H124660   3.617   4.089   1.546 -0.7307  0.1884  2.8076
 8232TIP3    H224661   3.698   4.197   1.478 -0.5933 -1.5881 -0.0049
 8233TIP3   OH224662   5.852   5.531   2.315 -0.0896 -0.3809 -0.1610
 8233TIP3    H124663   5.898   5.529   2.398 -0.9383 -1.8407  0.3137
 8233TIP3    H224664   5.920   5.520   2.249  0.3752 -1.3360  0.4611
 8234TIP3   OH224665   4.268   0.832   2.532 -0.4198 -0.5710  0.1036
 8234TIP3    H124666   4.202   0.765   2.520 -0.9764 -0.0935  0.4117
 8234TIP3    H224667   4.271   0.845   2.627  0.2034 -0.6708  0.1014
 8235TIP3   OH224668   6.854   5.814   5.499  0.4490  0.2481 -0.4700
 8235TIP3    H124669   6.894   5.740   5.454  1.0632 -0.5799  1.3809
 8235TIP3    H224670   6.766   5.783   5.523  0.0913  0.7173 -1.1368
 8236TIP3   OH224671   5.700   4.341   0.095 -0.3891 -0.4108 -0.0151
 8236TIP3    H124672   5.779   4.359   0.145  0.0989 -1.7556 -0.2430
 8236TIP3    H224673   5.654   4.424   0.091  1.2213  0.5139 -0.2425
 8237TIP3   OH224674   3.287   0.164   3.340 -0.7484 -0.0922 -0.2120
 8237TIP3    H124675   3.192   0.153   3.342 -0.6864 -0.5219  0.7993
 8237TIP3    H224676   3.315   0.116   3.262 -1.6202  2.5056 -2.2954
 8238TIP3   OH224677   3.652   3.217   4.254  0.1062 -0.3416  0.1680
 8238TIP3    H124678   3.670   3.142   4.311 -0.5516  0.1747  1.0714
 8238TIP3    H224679   3.685   3.190   4.168 -1.6783 -2.3576  0.0538
 8239TIP3   OH224680   3.368   3.186   3.486  0.1839  0.1408 -0.3522
 8239TIP3    H124681   3.277   3.188   3.514  0.2885 -0.0047  0.0075
 8239TIP3    H224682   3.401   3.274   3.504 -0.4402  0.8709 -2.4205
 8240TIP3   OH224683   2.473   3.170   3.283 -0.2732 -0.3712 -0.0047
 8240TIP3    H124684   2.378   3.160   3.277 -0.6618  2.3705  0.0910
 8240TIP3    H224685   2.490   3.184   3.376  0.0165  0.5636 -0.1894
 8241TIP3   OH224686   6.310   5.026   0.034 -0.0546 -0.1923  0.9904
 8241TIP3    H124687   6.263   5.087   0.091  0.8883  0.8352  0.7009
 8241TIP3    H224688   6.371   5.081  -0.015  0.8495 -1.3787  0.7408
 8242TIP3   OH224689   6.477   3.459   3.678 -0.8067 -0.1037 -0.2063
 8242TIP3    H124690   6.561   3.429   3.710 -1.0036  0.5290  0.9513
 8242TIP3    H224691   6.412   3.414   3.732 -1.1985 -0.1128 -0.6698
 8243TIP3   OH224692   7.102   0.254   1.151  0.7363 -0.2181  0.5250
 8243TIP3    H124693   7.029   0.211   1.106  0.8415  0.0456  0.0878
 8243TIP3    H224694   7.179   0.227   1.100  1.0451 -1.1126  1.4320
 8244TIP3   OH224695   1.366   0.184   3.952  0.6881 -0.0119 -1.2605
 8244TIP3    H124696   1.295   0.165   4.013  1.0309  1.7364 -0.2716
 8244TIP3    H224697   1.445   0.155   3.998  0.6828 -2.3064 -2.5056
 8245TIP3   OH224698   5.266   6.522   5.140 -0.1057  0.1051  0.1489
 8245TIP3    H124699   5.273   6.515   5.045  0.5664 -1.2739  0.2888
 8245TIP3    H224700   5.226   6.440   5.168 -1.9918  1.2239  0.9169
 8246TIP3   OH224701   5.097   5.951   2.826  0.5477  0.5549 -0.1758
 8246TIP3    H124702   5.150   5.873   2.812 -2.3125 -1.5403 -0.1663
 8246TIP3    H224703   5.092   5.961   2.921 -1.4115 -1.0999 -0.0352
 8247TIP3   OH224704   0.823   2.043   4.956 -0.4388 -0.1013  0.1384
 8247TIP3    H124705   0.842   2.130   4.920  0.2949 -0.9008 -1.5204
 8247TIP3    H224706   0.847   2.049   5.048  1.7569  0.8269 -0.4357
 8248TIP3   OH224707   4.204   5.666   2.225  0.1091  0.0356  0.0198
 8248TIP3    H124708   4.146   5.591   2.213  0.8362 -0.5392 -0.0261
 8248TIP3    H224709   4.150   5.742   2.204 -0.3457 -0.5432 -1.0046
 8249TIP3   OH224710   6.180   2.698   3.297 -0.5159  0.4377 -0.1250
 8249TIP3    H124711   6.186   2.787   3.330  0.4642  0.7503 -1.0784
 8249TIP3    H224712   6.090   2.671   3.315  0.2278  0.0296  4.0268
 8250TIP3   OH224713   6.647   6.494   2.498  0.5174 -0.6581  0.1408
 8250TIP3    H124714   6.594   6.452   2.430  3.3962 -2.9816 -0.8954
 8250TIP3    H224715   6.677   6.422   2.553  1.5347  0.7062  1.4640
 8251TIP3   OH224716   2.344   4.488   2.638 -0.5419  0.1937  0.1525
 8251TIP3    H124717   2.305   4.436   2.568  0.0640  0.3641 -0.3211
 8251TIP3    H224718   2.274   4.547   2.666 -1.1059 -0.5972  0.4209
 8252TIP3   OH224719   1.683   1.519   1.148  0.1210 -0.2445  0.3076
 8252TIP3    H124720   1.652   1.537   1.059 -1.5588 -0.3399  0.8403
 8252TIP3    H224721   1.658   1.596   1.199  1.9964  0.2716  0.5271
 8253TIP3   OH224722   7.021   3.705   3.870  0.2735  0.6297  0.7452
 8253TIP3    H124723   6.981   3.649   3.804  2.4401  1.1269 -1.1050
 8253TIP3    H224724   6.963   3.699   3.946 -0.5627 -2.5709 -0.0299
 8254TIP3   OH224725   6.137   1.372   0.342 -0.2364 -0.2783  1.0879
 8254TIP3    H124726   6.065   1.370   0.279  0.8739 -1.9236 -0.2076
 8254TIP3    H224727   6.106   1.430   0.412 -1.2031  2.3690 -1.3281
 8255TIP3   OH224728   4.725   4.633   2.735 -0.1559 -0.0724  0.4501
 8255TIP3    H124729   4.641   4.601   2.767 -0.1470  1.0970  1.7253
 8255TIP3    H224730   4.771   4.663   2.814  1.4120 -0.5787 -0.2371
 8256TIP3   OH224731   1.584   1.633   4.955  0.4369  0.0554 -0.0355
 8256TIP3    H124732   1.586   1.706   4.894  1.5768 -1.1454 -1.5127
 8256TIP3    H224733   1.649   1.654   5.021  0.6214  0.4524 -0.3448
 8257TIP3   OH224734   1.061   3.229   4.311  0.2769 -0.1744 -0.1052
 8257TIP3    H124735   1.124   3.301   4.302 -0.1126  0.3204  0.9214
 8257TIP3    H224736   1.100   3.172   4.378  0.0715 -0.3446 -0.1329
 8258TIP3   OH224737   6.403   6.004   0.444  0.2620  0.3966 -0.7773
 8258TIP3    H124738   6.356   5.940   0.391  0.8024  0.4100 -1.2781
 8258TIP3    H224739   6.452   6.056   0.381  2.3785 -0.7459 -0.1798
 8259TIP3   OH224740   5.039   5.683   0.719  0.2676  0.1513  0.0210
 8259TIP3    H124741   4.964   5.623   0.728  0.4813 -0.0284  0.7207
 8259TIP3    H224742   5.078   5.661   0.634 -0.7945  0.6330 -0.6085
 8260TIP3   OH224743   4.736   5.602   5.351 -0.2971 -0.4288 -0.7291
 8260TIP3    H124744   4.707   5.624   5.262 -0.8305  1.6079 -0.1163
 8260TIP3    H224745   4.831   5.597   5.345 -0.2941  0.1696 -1.3279
 8261TIP3   OH224746   2.864   1.338   1.264 -0.3839  0.2615 -0.4750
 8261TIP3    H124747   2.775   1.342   1.229 -0.9361 -0.0350  0.8480
 8261TIP3    H224748   2.858   1.280   1.340  0.6032  1.4579  0.5636
 8262TIP3   OH224749   0.434   0.526   1.290  0.5238 -0.1669 -0.2341
 8262TIP3    H124750   0.509   0.573   1.254  0.1625  0.6469  0.0632
 8262TIP3    H224751   0.452   0.519   1.383 -0.8498  2.1764  0.2829
 8263TIP3   OH224752   4.571   6.555   4.967  0.0105  0.0240  0.3277
 8263TIP3    H124753   4.488   6.576   4.922  1.3454 -0.9948 -2.9069
 8263TIP3    H224754   4.554   6.472   5.010 -0.6783 -0.1647 -0.2851
 8264TIP3   OH224755   5.860   6.229   3.913 -0.3571  0.2361 -0.6536
 8264TIP3    H124756   5.842   6.322   3.926 -3.4376 -0.3419  0.0339
 8264TIP3    H224757   5.814   6.207   3.832  2.9802 -0.1616 -2.6555
 8265TIP3   OH224758   5.912   6.628   3.762 -0.1527  0.4699 -0.2012
 8265TIP3    H124759   5.876   6.696   3.705 -0.6855  0.5314  0.1927
 8265TIP3    H224760   5.971   6.578   3.707  0.0837  1.1241 -0.5562
 8266TIP3   OH224761   5.452   2.344   5.144 -0.4327 -0.2884 -0.5247
 8266TIP3    H124762   5.388   2.407   5.177  0.1731 -0.1407  0.3998
 8266TIP3    H224763   5.403   2.262   5.135 -0.7557 -0.1717  0.1683
 8267TIP3   OH224764   3.794   2.520   0.868  0.2956 -0.2349  0.0075
 8267TIP3    H124765   3.810   2.609   0.899  0.0209 -0.5800  1.1679
 8267TIP3    H224766   3.878   2.493   0.829 -0.2882  1.3792 -2.6375
 8268TIP3   OH224767   6.609   1.071   3.994 -0.2276 -0.0817  0.4853
 8268TIP3    H124768   6.647   1.019   4.065  2.2487  0.8546 -0.0638
 8268TIP3    H224769   6.624   1.018   3.915 -0.8906 -0.0904  0.3614
 8269TIP3   OH224770   1.460   6.076   1.018 -0.3255  0.4821 -0.2411
 8269TIP3    H124771   1.545   6.085   1.061 -0.6857 -1.1978  0.9254
 8269TIP3    H224772   1.451   6.155   0.965  2.3532  0.2948 -1.1194
 8270TIP3   OH224773   1.531   4.128   1.342  0.4640 -0.2272 -0.1338
 8270TIP3    H124774   1.597   4.105   1.407  1.5225  1.1597 -0.6564
 8270TIP3    H224775   1.466   4.179   1.390  1.5099  1.2458 -0.2044
 8271TIP3   OH224776   0.214   1.008   2.293  0.0526 -0.0165  0.1261
 8271TIP3    H124777   0.256   0.964   2.367  0.8824  1.6373  0.6904
 8271TIP3    H224778   0.286   1.035   2.237 -0.5747 -1.3991 -1.4401
 8272TIP3   OH224779   0.114   2.965   5.412  0.3502  0.4130  0.1290
 8272TIP3    H124780   0.201   2.960   5.452  0.5834 -1.4456 -0.4828
 8272TIP3    H224781   0.131   2.954   5.318 -0.6032 -1.2283  0.1150
 8273TIP3   OH224782   5.872   4.719   1.169  0.5619 -0.4335  0.0232
 8273TIP3    H124783   5.855   4.798   1.219 -0.1824 -0.0761 -0.7791
 8273TIP3    H224784   5.922   4.663   1.229  1.0257  0.5994  0.6214
 8274TIP3   OH224785   5.160   5.090   2.461  0.0895 -0.0290 -0.4555
 8274TIP3    H124786   5.079   5.050   2.430 -0.6600  1.3102 -0.3110
 8274TIP3    H224787   5.227   5.061   2.399 -0.3296 -1.7465 -0.1629
 8275TIP3   OH224788   3.905   4.556   1.229 -0.4614  0.0711 -0.3879
 8275TIP3    H124789   3.820   4.583   1.264 -0.3895 -1.1795  0.8592
 8275TIP3    H224790   3.943   4.502   1.298  1.1038  0.1155 -1.1644
 8276TIP3   OH224791   5.464   4.080   1.967 -0.1311  0.1752  0.1973
 8276TIP3    H124792   5.474   4.095   1.873  1.2393  1.0257  0.4580
 8276TIP3    H224793   5.482   4.165   2.008 -1.8758  0.1183  1.1870
 8277TIP3   OH224794   5.433   5.353   1.614 -0.0745 -0.4477 -0.1860
 8277TIP3    H124795   5.389   5.287   1.559  0.3940 -1.6802  0.8651
 8277TIP3    H224796   5.411   5.436   1.573 -1.2979 -1.1997 -1.1525
 8278TIP3   OH224797   2.200   4.726   1.430 -0.1408 -0.4476 -0.3032
 8278TIP3    H124798   2.188   4.742   1.337 -0.3038  0.6223 -0.1083
 8278TIP3    H224799   2.136   4.658   1.452  0.7536 -1.6465 -1.2106
 8279TIP3   OH224800   0.997   2.814   0.294  0.0021 -0.3246 -0.0485
 8279TIP3    H124801   1.035   2.784   0.377 -0.7438 -1.9576 -0.2534
 8279TIP3    H224802   0.917   2.860   0.320  0.6341  0.6803  0.2071
 8280TIP3   OH224803   6.589   2.337   3.452 -0.4382  0.2388 -0.1318
 8280TIP3    H124804   6.542   2.402   3.399  0.4321  0.7052 -0.3648
 8280TIP3    H224805   6.634   2.282   3.387 -1.5634 -0.9419  0.0412
 8281TIP3   OH224806   5.382   4.365   1.799 -0.4009  0.2901  0.1886
 8281TIP3    H124807   5.417   4.424   1.733 -1.4495 -1.2170 -1.8062
 8281TIP3    H224808   5.425   4.392   1.881  3.2990  0.2890 -1.5704
 8282TIP3   OH224809   5.932   2.737   5.371 -1.1046  0.1355  0.4188
 8282TIP3    H124810   5.848   2.766   5.335 -0.5918  2.4110  0.9100
 8282TIP3    H224811   5.993   2.741   5.297 -1.0329  0.3209  0.4876
 8283TIP3   OH224812   3.971   1.308   3.195  0.1729 -0.3908 -0.0236
 8283TIP3    H124813   3.936   1.395   3.217 -0.0207  0.0219 -1.8074
 8283TIP3    H224814   3.894   1.255   3.178  0.2873 -0.9835  1.2088
 8284TIP3   OH224815   3.336   6.444   1.354 -0.0571  0.6860  0.5597
 8284TIP3    H124816   3.301   6.442   1.265  0.8702 -0.1722  0.2118
 8284TIP3    H224817   3.280   6.383   1.403  0.0895  0.3626  0.3251
 8285TIP3   OH224818   2.956   0.347   2.555  0.7555 -0.1060  0.2476
 8285TIP3    H124819   2.915   0.264   2.529  2.1101 -1.1563  1.2566
 8285TIP3    H224820   3.019   0.365   2.485  2.3805 -1.4230  1.2816
 8286TIP3   OH224821   1.945   5.591   2.266 -0.7295  0.4040  0.2255
 8286TIP3    H124822   1.876   5.543   2.312  0.1308 -1.3898 -0.3035
 8286TIP3    H224823   1.991   5.638   2.336 -1.1370 -0.0948  0.8487
 8287TIP3   OH224824   2.602   0.258   5.058 -0.3602 -0.1560 -0.5426
 8287TIP3    H124825   2.688   0.258   5.015  0.1829  1.2262  0.4492
 8287TIP3    H224826   2.590   0.349   5.087 -2.3522 -0.2277 -1.0100
 8288TIP3   OH224827   0.588   3.745   5.807  0.6445  0.1212  0.2281
 8288TIP3    H124828   0.623   3.657   5.796  2.2451  0.6322  1.0346
 8288TIP3    H224829   0.527   3.738   5.881 -0.6429 -0.6563 -0.8526
 8289TIP3   OH224830   0.138   3.322   0.204 -0.1628  0.5927  0.2715
 8289TIP3    H124831   0.080   3.247   0.190 -0.9159  1.2970 -0.5105
 8289TIP3    H224832   0.193   3.324   0.126 -0.3756  1.0424  0.1286
 8290TIP3   OH224833   6.784   0.344   2.781 -0.2786  0.0875  0.1597
 8290TIP3    H124834   6.751   0.425   2.742 -1.0341 -0.0089  0.5877
 8290TIP3    H224835   6.771   0.355   2.875  1.4572  0.2766  0.4145
 8291TIP3   OH224836   4.354   6.264   3.316 -0.3661  0.3031  0.0234
 8291TIP3    H124837   4.322   6.345   3.275  0.1671  0.2355 -0.5356
 8291TIP3    H224838   4.315   6.194   3.264 -0.8513  0.1952  0.5263
 8292TIP3   OH224839   6.503   5.963   5.135 -0.2036  0.2479 -0.0040
 8292TIP3    H124840   6.411   5.941   5.119 -0.3870  0.3037  0.9294
 8292TIP3    H224841   6.500   6.031   5.202  0.4894  0.9570 -0.6735
 8293TIP3   OH224842   0.473   0.473   5.267 -0.0905 -0.3095 -0.3518
 8293TIP3    H124843   0.541   0.460   5.333 -0.1280  0.7048 -0.0892
 8293TIP3    H224844   0.400   0.511   5.315 -0.5903 -0.7556 -0.7551
 8294TIP3   OH224845   7.083   5.140   5.764  0.3088 -0.2341 -0.3613
 8294TIP3    H124846   7.124   5.131   5.678 -1.1985 -1.3924 -1.0142
 8294TIP3    H224847   7.127   5.074   5.818  0.5791 -0.1863 -0.5210
 8295TIP3   OH224848   4.373   2.103   2.973 -0.0381 -0.4444  0.3403
 8295TIP3    H124849   4.404   2.021   2.935 -0.5576  0.7209 -2.8720
 8295TIP3    H224850   4.452   2.145   3.006  0.9931 -0.2385 -2.1846
 8296TIP3   OH224851   1.877   5.688   0.054  0.6574 -0.3955 -0.7017
 8296TIP3    H124852   1.956   5.690   0.108  0.9118 -0.1908 -1.0788
 8296TIP3    H224853   1.841   5.600   0.068  1.5723 -0.9076 -1.4136
 8297TIP3   OH224854   7.030   6.195   3.822  0.2720  0.7414 -0.2741
 8297TIP3    H124855   6.981   6.249   3.884  1.3987  1.0738  0.3670
 8297TIP3    H224856   6.985   6.207   3.738 -0.4450  1.3986  0.1913
 8298TIP3   OH224857   6.411   0.403   1.428 -0.0654 -0.1484  0.6826
 8298TIP3    H124858   6.322   0.435   1.415 -0.0113  0.3421  1.4742
 8298TIP3    H224859   6.465   0.459   1.371 -0.2019 -0.1115  0.5894
 8299TIP3   OH224860   0.374   5.529   2.593 -0.5873  0.3602 -0.4875
 8299TIP3    H124861   0.360   5.455   2.534 -0.4734 -0.3223  0.3314
 8299TIP3    H224862   0.367   5.606   2.536 -0.8107 -0.2655 -1.3298
 8300TIP3   OH224863   1.834   5.309   1.401  0.2398  0.0904  0.2005
 8300TIP3    H124864   1.896   5.367   1.357  0.7339 -1.8850 -1.9433
 8300TIP3    H224865   1.750   5.355   1.396  0.9469  1.4321  0.3096
 8301TIP3   OH224866   4.093   2.781   0.911 -0.6435  0.0539 -0.2554
 8301TIP3    H124867   4.002   2.751   0.917 -0.0363 -1.5155  2.7435
 8301TIP3    H224868   4.097   2.856   0.971  0.1157 -0.0484 -0.1773
 8302TIP3   OH224869   3.787   3.364   5.107  0.5683  0.1211 -0.1827
 8302TIP3    H124870   3.826   3.409   5.182  0.0845  1.3053 -0.6201
 8302TIP3    H224871   3.823   3.409   5.030 -1.1425  0.8245 -0.6149
 8303TIP3   OH224872   2.265   4.862   4.095 -0.4740  0.1181  0.0518
 8303TIP3    H124873   2.352   4.871   4.056 -0.6024 -0.0730 -0.2860
 8303TIP3    H224874   2.233   4.777   4.064 -0.3714 -0.2780  0.9987
 8304TIP3   OH224875   2.240   4.265   4.761  0.4269  0.5098  0.3770
 8304TIP3    H124876   2.323   4.217   4.755 -0.4677 -1.2328  1.1836
 8304TIP3    H224877   2.265   4.357   4.754  2.1041 -0.0484 -2.5269
 8305TIP3   OH224878   3.267   5.037   4.631 -0.6041  0.0093  0.2341
 8305TIP3    H124879   3.172   5.042   4.624 -0.7439  0.4148  2.0144
 8305TIP3    H224880   3.285   5.046   4.725  1.2254  0.5553 -0.1294
 8306TIP3   OH224881   0.117   1.787   1.250  0.6295 -0.0132 -0.4258
 8306TIP3    H124882   0.092   1.712   1.304 -1.4335  0.7525 -0.2054
 8306TIP3    H224883   0.097   1.761   1.160  1.2414 -0.2347 -0.4949
 8307TIP3   OH224884   2.109   3.547   0.237  0.0749  0.6515  0.1942
 8307TIP3    H124885   2.119   3.620   0.298 -2.3045  1.2115  0.0480
 8307TIP3    H224886   2.018   3.553   0.207  0.7976 -0.2727 -2.5615
 8308TIP3   OH224887   1.355   6.687   4.517  0.2197 -0.7560 -0.1717
 8308TIP3    H124888   1.404   6.656   4.440  0.0111 -0.2434 -0.5139
 8308TIP3    H224889   1.421   6.690   4.587  1.0510  1.2613 -0.9551
 8309TIP3   OH224890   6.592   5.185   5.690  0.1571  0.0326  0.1153
 8309TIP3    H124891   6.642   5.104   5.678 -2.1682 -1.4568 -0.1993
 8309TIP3    H224892   6.612   5.212   5.779  1.4330 -0.5327  0.0279
 8310TIP3   OH224893   1.625   0.663   3.336 -0.2067  0.0954 -0.2898
 8310TIP3    H124894   1.654   0.669   3.245 -2.0990  3.1201 -0.8227
 8310TIP3    H224895   1.535   0.631   3.330 -0.2379  0.0117  0.5623
 8311TIP3   OH224896   2.252   5.884   0.558 -0.6781  0.2016  0.3139
 8311TIP3    H124897   2.230   5.869   0.650  0.1800 -1.1911  0.3269
 8311TIP3    H224898   2.283   5.799   0.527  0.2690  0.9550 -0.9068
 8312TIP3   OH224899   4.931   4.853   1.957 -0.0484 -0.3336 -0.3274
 8312TIP3    H124900   4.908   4.775   2.007  0.3630 -0.4309 -0.2871
 8312TIP3    H224901   4.909   4.926   2.015 -2.0173 -0.3382 -0.9973
 8313TIP3   OH224902   5.281   0.239   1.570 -0.7459  0.3138 -0.2221
 8313TIP3    H124903   5.296   0.212   1.480  1.7767 -0.0787  0.2301
 8313TIP3    H224904   5.308   0.331   1.572 -0.6989  0.2924  0.1555
 8314TIP3   OH224905   5.648   0.109   4.935  0.1523 -0.0497 -0.0134
 8314TIP3    H124906   5.708   0.175   4.902  0.4300 -0.0430  0.4908
 8314TIP3    H224907   5.695   0.026   4.923  0.4453 -0.0094  0.7479
 8315TIP3   OH224908   5.152   0.825   3.181  0.1196 -0.4277 -0.4420
 8315TIP3    H124909   5.056   0.827   3.186  0.1525  2.3079  2.0101
 8315TIP3    H224910   5.180   0.847   3.270  3.0321 -0.0303 -1.3734
 8316TIP3   OH224911   6.767   3.324   1.921  0.4573  0.4923 -0.6878
 8316TIP3    H124912   6.757   3.260   1.850  1.5443 -0.6025  0.1134
 8316TIP3    H224913   6.813   3.277   1.990 -1.2262  1.2869  1.0743
 8317TIP3   OH224914   2.511   3.322   5.609  0.1917 -0.3129  0.1068
 8317TIP3    H124915   2.515   3.227   5.618 -0.2606 -0.3183  0.2666
 8317TIP3    H224916   2.437   3.338   5.551 -1.0033  0.0127  1.6322
 8318TIP3   OH224917   1.627   3.506   0.436 -0.1279 -0.1365  0.1316
 8318TIP3    H124918   1.695   3.552   0.484  0.4654  0.1819 -0.9780
 8318TIP3    H224919   1.593   3.441   0.498  0.0542  0.7848  1.2267
 8319TIP3   OH224920   1.329   6.669   4.993  0.1631 -0.2206 -0.0098
 8319TIP3    H124921   1.314   6.733   4.923  0.9139  0.1673  0.1836
 8319TIP3    H224922   1.373   6.718   5.062 -0.1874 -0.7072  0.5620
 8320TIP3   OH224923   3.632   2.068   0.773 -0.1429 -0.3486  0.2128
 8320TIP3    H124924   3.611   2.099   0.684 -0.9715 -0.9621  0.1788
 8320TIP3    H224925   3.706   2.121   0.800 -1.9453  2.2356  0.4537
 8321TIP3   OH224926   6.479   3.685   1.404 -0.1386  0.4388  0.0880
 8321TIP3    H124927   6.433   3.608   1.372 -1.5027  0.7057  1.2952
 8321TIP3    H224928   6.441   3.701   1.491  4.7985 -1.6560  3.1403
 8322TIP3   OH224929   0.147   3.848   2.512 -0.1483 -0.6119 -0.3027
 8322TIP3    H124930   0.153   3.839   2.607 -0.6939  0.9624 -0.0972
 8322TIP3    H224931   0.203   3.922   2.490 -0.0802 -0.9109 -1.2125
 8323TIP3   OH224932   3.387   5.343   3.348 -0.0037  0.1530 -0.2694
 8323TIP3    H124933   3.423   5.404   3.283 -0.6909 -2.2466 -3.1267
 8323TIP3    H224934   3.297   5.372   3.361 -0.6853 -0.7690 -2.4669
 8324TIP3   OH224935   7.119   5.165   0.561  0.3423  0.6906 -0.1361
 8324TIP3    H124936   7.133   5.158   0.466  0.1226 -0.2372 -0.1147
 8324TIP3    H224937   7.074   5.084   0.584 -1.2379  1.7003  0.4806
 8325TIP3   OH224938   4.314   1.311   1.510  0.1747  0.4140 -0.1505
 8325TIP3    H124939   4.379   1.255   1.467 -0.3388 -0.8346  0.6528
 8325TIP3    H224940   4.264   1.252   1.565 -0.1467  1.7301  1.0335
 8326TIP3   OH224941   1.261   2.431   5.649 -0.3251  0.1778 -0.2700
 8326TIP3    H124942   1.212   2.492   5.704 -0.2542  0.6701 -0.7487
 8326TIP3    H224943   1.215   2.432   5.565 -0.3131 -0.4154 -0.2903
 8327TIP3   OH224944   1.793   4.688   1.870 -0.4689 -0.1544 -0.3806
 8327TIP3    H124945   1.852   4.721   1.938 -2.6354  1.3120  0.9199
 8327TIP3    H224946   1.819   4.597   1.858  1.0765  0.0186  1.2236
 8328TIP3   OH224947   6.901   2.640   2.756  0.1809 -0.3913  0.6339
 8328TIP3    H124948   6.948   2.599   2.829  1.3320 -2.7085 -1.2566
 8328TIP3    H224949   6.839   2.574   2.728  0.4969  0.0075 -1.1241
 8329TIP3   OH224950   0.070   2.521   4.115  0.6416  0.3999 -0.1597
 8329TIP3    H124951  -0.008   2.575   4.110  0.7674  0.4248 -2.9922
 8329TIP3    H224952   0.139   2.572   4.073  2.3298  0.4445  2.3807
 8330TIP3   OH224953   1.634   1.580   2.737 -0.1221 -0.2561  0.2098
 8330TIP3    H124954   1.562   1.622   2.783 -0.4355  0.1350 -0.6159
 8330TIP3    H224955   1.655   1.503   2.789 -0.9662 -0.2308  0.5946
 8331TIP3   OH224956   7.184   0.829   0.550  0.1927 -0.5693  0.2546
 8331TIP3    H124957   7.154   0.837   0.640  0.3717 -0.5463  0.3125
 8331TIP3    H224958   7.109   0.793   0.503  0.1893 -0.8402  0.4642
 8332TIP3   OH224959   5.274   2.873   3.946 -0.3549  0.0063 -0.8434
 8332TIP3    H124960   5.252   2.966   3.959  2.3003  0.4355  1.6298
 8332TIP3    H224961   5.359   2.875   3.903  0.2633 -1.2301  0.2546
 8333TIP3   OH224962   5.896   1.633   4.264 -0.9124 -0.4037  0.2345
 8333TIP3    H124963   5.807   1.607   4.288 -0.2362 -2.1850  0.9652
 8333TIP3    H224964   5.916   1.583   4.185 -0.1475 -0.9463  0.7571
 8334TIP3   OH224965   0.987   0.417   2.486 -0.3380  0.0102 -0.4839
 8334TIP3    H124966   0.944   0.484   2.433  0.3812  0.5932 -0.3528
 8334TIP3    H224967   0.952   0.334   2.453 -0.6466  0.4093 -1.1961
 8335TIP3   OH224968   4.806   6.226   0.460 -0.4738  0.4475 -0.4095
 8335TIP3    H124969   4.824   6.195   0.371  1.4961 -0.1908  0.1643
 8335TIP3    H224970   4.850   6.163   0.517 -0.8338  1.4094  0.9763
 8336TIP3   OH224971   1.147   4.706   0.526 -0.0164  0.1224  0.4378
 8336TIP3    H124972   1.055   4.726   0.540  0.0951  1.2597 -0.2862
 8336TIP3    H224973   1.191   4.738   0.605 -0.4488 -2.4168  1.7833
 8337TIP3   OH224974   4.933   3.191   5.253 -0.1789 -0.2268 -0.0070
 8337TIP3    H124975   5.008   3.200   5.312 -1.0194  1.3302  0.8923
 8337TIP3    H224976   4.955   3.116   5.199  0.7191 -1.6373  2.1667
 8338TIP3   OH224977   3.277   5.042   1.295 -0.1204  0.0497 -0.1344
 8338TIP3    H124978   3.316   4.986   1.363 -0.9974  0.8719  1.0593
 8338TIP3    H224979   3.187   5.056   1.323 -0.5462  0.2999 -1.5478
 8339TIP3   OH224980   6.636   5.744   2.442  0.1301  0.2172  0.0371
 8339TIP3    H124981   6.606   5.657   2.414  1.9997 -0.1771 -0.9435
 8339TIP3    H224982   6.661   5.733   2.533 -3.1496  0.7450  1.1503
 8340TIP3   OH224983   3.820   6.681   2.985 -0.4851 -0.4016 -0.0668
 8340TIP3    H124984   3.836   6.775   2.982 -2.0267 -0.1171 -0.0064
 8340TIP3    H224985   3.729   6.673   3.012  0.5156 -1.9898  3.4394
 8341TIP3   OH224986   2.566   1.931   5.285 -0.1127 -0.1083  0.1310
 8341TIP3    H124987   2.589   1.966   5.371  3.1840 -2.0950  0.2163
 8341TIP3    H224988   2.474   1.955   5.274  0.0466  2.5371  2.9925
 8342TIP3   OH224989   5.544   6.523   2.807 -0.1107 -0.1241 -0.1193
 8342TIP3    H124990   5.540   6.428   2.821 -0.0595 -0.1996 -0.5912
 8342TIP3    H224991   5.582   6.532   2.719 -0.0303  0.3348 -0.0360
 8343TIP3   OH224992   5.791   4.159   0.693 -0.0370 -0.0539 -0.0231
 8343TIP3    H124993   5.706   4.189   0.726  0.3126  0.4601  0.4096
 8343TIP3    H224994   5.856   4.201   0.749  0.5179 -0.3014 -0.4637
 8344TIP3   OH224995   1.151   2.178   2.254  0.2453 -0.5571 -0.0963
 8344TIP3    H124996   1.080   2.141   2.305  0.2597  1.7873  1.8164
 8344TIP3    H224997   1.121   2.266   2.230  2.4515  0.5568  0.8558
 8345TIP3   OH224998   6.021   3.487   4.252  0.7403  0.0255  0.5428
 8345TIP3    H124999   6.088   3.555   4.259  0.5439  0.2176  0.5683
 8345TIP3    H225000   6.004   3.460   4.342  2.6045 -1.8240  0.4044
 8346TIP3   OH225001   4.374   5.385   0.583 -0.4683  0.4741 -0.0234
 8346TIP3    H125002   4.284   5.399   0.613 -0.5651  0.6350 -0.3880
 8346TIP3    H225003   4.368   5.386   0.488 -0.1197  0.2209 -0.0500
 8347TIP3   OH225004   6.136   3.142   2.725 -0.0480  0.1637  0.1535
 8347TIP3    H125005   6.151   3.086   2.650  0.1874  0.3212  0.0844
 8347TIP3    H225006   6.197   3.110   2.792  0.5937  0.7923 -0.1232
 8348TIP3   OH225007   7.140   2.211   1.031  0.3939  1.0519  0.4825
 8348TIP3    H125008   7.137   2.122   0.995  0.3907  0.5289  1.7141
 8348TIP3    H225009   7.056   2.249   1.009  1.4498  1.8486 -2.6381
 8349TIP3   OH225010   4.598   6.506   3.164  0.2872 -0.5065  0.3129
 8349TIP3    H125011   4.680   6.474   3.203 -0.6457 -0.1514  2.7425
 8349TIP3    H225012   4.604   6.601   3.169 -0.7380 -0.4747  1.7145
 8350TIP3   OH225013   1.959   3.296   2.878 -0.2435  0.6591 -0.2717
 8350TIP3    H125014   2.010   3.301   2.959  0.7707  0.5896 -0.8902
 8350TIP3    H225015   2.004   3.229   2.826 -1.6217 -0.2016 -0.3982
 8351TIP3   OH225016   5.263   2.624   2.538 -0.1776 -0.2884  0.3461
 8351TIP3    H125017   5.208   2.693   2.576 -0.4600 -1.6744  2.6922
 8351TIP3    H225018   5.338   2.618   2.596  0.2473 -1.3958 -0.2802
 8352TIP3   OH225019   5.982   1.427   0.114 -0.0873  0.2644 -0.4216
 8352TIP3    H125020   5.921   1.435   0.040  0.2889  0.4103 -0.7196
 8352TIP3    H225021   6.059   1.383   0.077 -0.4015 -0.8532  0.1858
 8353TIP3   OH225022   4.690   2.479   2.932 -0.0787 -0.7424  0.2401
 8353TIP3    H125023   4.674   2.546   2.865 -1.7198 -0.8189  0.5168
 8353TIP3    H225024   4.658   2.518   3.013  0.0729 -1.4007  0.6245
 8354TIP3   OH225025   2.813   1.063   5.190 -0.2457  0.2128  0.1898
 8354TIP3    H125026   2.826   1.079   5.096  1.9586  1.7667  0.7057
 8354TIP3    H225027   2.723   1.029   5.195 -0.7393  0.8817 -2.3732
 8355TIP3   OH225028   5.619   3.141   2.316 -0.1460 -0.1520 -0.0551
 8355TIP3    H125029   5.681   3.204   2.354 -1.8486  0.7401  1.4208
 8355TIP3    H225030   5.673   3.068   2.288  1.6964  1.0931  0.0371
 8356TIP3   OH225031   3.532   5.013   0.741  0.1231  0.7417 -0.4374
 8356TIP3    H125032   3.538   5.109   0.736 -1.5888  0.8352 -2.1427
 8356TIP3    H225033   3.452   4.997   0.791  0.5268  0.1841  0.0352
 8357TIP3   OH225034   1.996   1.265   3.380 -0.3216 -0.3599  0.2684
 8357TIP3    H125035   1.992   1.212   3.460  0.4763  0.2082  0.7012
 8357TIP3    H225036   2.077   1.235   3.336 -1.2985 -1.4245 -0.8914
 8358TIP3   OH225037   0.174   0.411   0.820 -0.5753 -0.0925  0.3717
 8358TIP3    H125038   0.267   0.420   0.838 -0.1996 -1.4854 -0.6801
 8358TIP3    H225039   0.144   0.340   0.878 -0.6759 -0.5275 -0.2003
 8359TIP3   OH225040   6.294   5.794   0.128 -0.0988 -0.1187 -0.4939
 8359TIP3    H125041   6.254   5.863   0.076  0.8180  1.1871  0.4453
 8359TIP3    H225042   6.246   5.797   0.212 -0.5002 -1.0982 -0.6791
 8360TIP3   OH225043   2.883   6.228   5.080 -0.3985  0.3744  0.0523
 8360TIP3    H125044   2.826   6.288   5.127 -1.0160  0.9081 -1.3105
 8360TIP3    H225045   2.970   6.265   5.090 -0.7347  1.3827 -0.5433
 8361TIP3   OH225046   3.530   2.749   5.706  0.0961  0.2981  0.1659
 8361TIP3    H125047   3.539   2.743   5.611  0.2054  0.9618  0.1317
 8361TIP3    H225048   3.480   2.671   5.730 -1.5349  1.0459 -0.6441
 8362TIP3   OH225049   5.163   4.812   3.280 -0.2845  0.8443 -0.2046
 8362TIP3    H125050   5.159   4.842   3.189  1.7708  0.6324 -0.4162
 8362TIP3    H225051   5.243   4.760   3.285 -0.6679  0.3464  1.5940
 8363TIP3   OH225052   0.312   4.203   0.896  0.1268 -0.9169  0.3389
 8363TIP3    H125053   0.308   4.172   0.806 -0.0920  0.4611 -0.1434
 8363TIP3    H225054   0.228   4.246   0.911  0.7046  0.1230  0.7024
 8364TIP3   OH225055   4.382   3.399   4.323  0.1528  0.4332  0.2380
 8364TIP3    H125056   4.367   3.487   4.288  1.5279  0.9316  0.8411
 8364TIP3    H225057   4.464   3.406   4.371  0.0847 -1.0990  0.6233
 8365TIP3   OH225058   2.868   0.407   4.631  0.5227 -0.1241  0.5601
 8365TIP3    H125059   2.864   0.443   4.720  1.3080 -1.5217  1.1949
 8365TIP3    H225060   2.812   0.329   4.635  0.0625  0.1527 -0.3535
 8366TIP3   OH225061   2.147   2.593   2.218  0.4129 -0.5311 -0.6552
 8366TIP3    H125062   2.124   2.519   2.162  1.3332  0.1813 -2.0369
 8366TIP3    H225063   2.172   2.663   2.157 -0.2251  0.8667  0.6030
 8367TIP3   OH225064   3.423   0.928   4.951  0.1423  0.3813  0.4440
 8367TIP3    H125065   3.496   0.868   4.969  0.7376  1.5270  2.0358
 8367TIP3    H225066   3.459   0.990   4.887  0.7355  1.1967  1.5426
 8368TIP3   OH225067   4.608   5.197   5.022  0.3461  0.0140 -0.4854
 8368TIP3    H125068   4.643   5.108   5.019 -0.4265 -0.4261  1.6063
 8368TIP3    H225069   4.672   5.250   4.975  0.7274 -1.6522 -1.9429
 8369TIP3   OH225070   0.894   2.901   4.699  0.0065 -0.1625 -0.3733
 8369TIP3    H125071   0.799   2.915   4.701  0.1945  1.1422  1.2196
 8369TIP3    H225072   0.920   2.902   4.791  1.1659 -3.7404 -0.5272
 8370TIP3   OH225073   6.855   3.917   0.349  0.1676  0.0767  0.3010
 8370TIP3    H125074   6.805   3.963   0.417  0.1639  2.0918 -0.9969
 8370TIP3    H225075   6.945   3.915   0.383 -0.2017 -0.8907  1.2981
 8371TIP3   OH225076   0.285   5.900   5.748 -0.4801  0.2794 -0.6773
 8371TIP3    H125077   0.244   5.814   5.734 -0.4672  0.2380 -0.4652
 8371TIP3    H225078   0.377   5.886   5.724 -0.2115 -0.0863  0.5010
 8372TIP3   OH225079   2.371   4.279   1.637 -0.3185 -0.2789  0.5656
 8372TIP3    H125080   2.294   4.229   1.611 -0.3441  0.4645 -0.8933
 8372TIP3    H225081   2.346   4.370   1.625  0.4320  0.0128  1.1350
 8373TIP3   OH225082   3.274   1.726   5.007 -0.5277  0.1501 -0.1893
 8373TIP3    H125083   3.214   1.669   4.960  1.0963 -0.3655 -1.7859
 8373TIP3    H225084   3.235   1.738   5.093 -1.9405 -1.6678 -0.5289
 8374TIP3   OH225085   2.762   4.427   2.787  0.0304  0.2351 -0.2594
 8374TIP3    H125086   2.855   4.426   2.762  0.0184 -1.5972 -0.3519
 8374TIP3    H225087   2.758   4.368   2.863 -0.7152  2.0316  1.1721
 8375TIP3   OH225088   6.154   3.704   5.226 -0.1430  0.1868  0.2065
 8375TIP3    H125089   6.207   3.626   5.208 -1.3283 -1.0550  1.8686
 8375TIP3    H225090   6.142   3.704   5.321 -0.8349  1.9919  0.1631
 8376TIP3   OH225091   1.778   6.372   4.927 -0.1159 -0.0627  0.0498
 8376TIP3    H125092   1.692   6.395   4.892  0.1782 -0.7308 -1.1696
 8376TIP3    H225093   1.812   6.306   4.866  3.3084  3.4806 -2.3866
 8377TIP3   OH225094   1.932   1.015   0.027 -0.0916 -0.4218  0.6984
 8377TIP3    H125095   1.961   1.105   0.042 -1.5658  0.0818  0.7099
 8377TIP3    H225096   2.013   0.967   0.008  0.6871  0.9801  0.2718
 8378TIP3   OH225097   3.186   2.529   1.154  0.0320 -0.3743 -0.3990
 8378TIP3    H125098   3.164   2.621   1.168 -0.3242 -0.3918 -0.8363
 8378TIP3    H225099   3.215   2.525   1.063 -0.7194 -0.8444 -0.6199
 8379TIP3   OH225100   1.195   5.096   1.954  0.4763 -0.5239  0.8612
 8379TIP3    H125101   1.128   5.109   2.021  1.0634 -1.5627  1.6787
 8379TIP3    H225102   1.161   5.024   1.900 -0.8036  1.3934 -1.0809
 8380TIP3   OH225103   2.221   2.718   3.383  0.3909 -0.2094 -0.0185
 8380TIP3    H125104   2.282   2.737   3.311  0.5403 -1.9814 -0.3923
 8380TIP3    H225105   2.198   2.805   3.417  1.1771  0.6239 -1.4767
 8381TIP3   OH225106   4.562   4.132   1.322  0.7919  0.3487  0.5990
 8381TIP3    H125107   4.568   4.040   1.348 -0.3022 -0.2047 -0.9655
 8381TIP3    H225108   4.629   4.142   1.255 -0.0555  0.2539 -0.3005
 8382TIP3   OH225109   5.612   1.131   4.616 -0.3952  0.2848  0.5237
 8382TIP3    H125110   5.622   1.051   4.667 -0.7846  0.3969  0.7850
 8382TIP3    H225111   5.692   1.181   4.632 -0.2449  0.0398  0.5271
 8383TIP3   OH225112   2.957   2.685   1.689 -0.4574 -0.2908 -0.3362
 8383TIP3    H125113   2.947   2.690   1.594 -1.5927  0.7660 -0.1766
 8383TIP3    H225114   2.882   2.632   1.718 -1.3818  1.2166  0.1488
 8384TIP3   OH225115   4.201   1.779   2.833 -0.1478  0.3442 -0.0871
 8384TIP3    H125116   4.167   1.711   2.891  0.4928 -1.3096 -1.5861
 8384TIP3    H225117   4.124   1.823   2.799 -0.5587  0.6615  1.1925
 8385TIP3   OH225118   7.002   3.407   0.495  0.2651 -0.2458 -0.0585
 8385TIP3    H125119   6.970   3.491   0.459 -0.7487 -1.0246 -1.0557
 8385TIP3    H225120   6.952   3.396   0.575 -0.7840 -0.6359 -0.7425
 8386TIP3   OH225121   5.557   4.898   2.886  0.1506  0.6791  0.8671
 8386TIP3    H125122   5.625   4.831   2.873  0.1104  0.9028 -0.5841
 8386TIP3    H225123   5.560   4.951   2.807 -0.8251  1.5075  1.3700
 8387TIP3   OH225124   3.107   6.374   3.181  0.0734 -0.7030  0.1087
 8387TIP3    H125125   3.134   6.427   3.256  0.4392  0.9716 -1.1359
 8387TIP3    H225126   3.091   6.438   3.111 -1.3393 -2.1089 -0.9362
 8388TIP3   OH225127   0.570   0.343   1.960  0.1965 -0.0243  0.1518
 8388TIP3    H125128   0.563   0.412   2.026  0.3255  0.8034 -0.6796
 8388TIP3    H225129   0.550   0.263   2.008  1.0671  0.4542  1.3891
 8389TIP3   OH225130   0.085   3.743   3.995  0.1135 -0.3294 -0.0140
 8389TIP3    H125131   0.001   3.715   3.960 -0.6724 -0.9485  2.1860
 8389TIP3    H225132   0.097   3.690   4.074  2.2628  0.2122  0.0860
 8390TIP3   OH225133   0.280   5.284   0.084 -0.0094  0.1516 -0.2636
 8390TIP3    H125134   0.293   5.205   0.032 -0.7874  0.1204 -0.4272
 8390TIP3    H225135   0.362   5.332   0.077 -0.1946  0.2773 -1.7500
 8391TIP3   OH225136   2.703   6.594   0.679 -0.1589  0.0564  0.1467
 8391TIP3    H125137   2.707   6.672   0.734  0.6597 -1.2482  2.0303
 8391TIP3    H225138   2.622   6.551   0.706  0.5127 -0.8594  0.7747
 8392TIP3   OH225139   1.941   6.324   1.240 -0.1479 -0.4547  0.4379
 8392TIP3    H125140   1.996   6.256   1.278  0.2879  0.9086  2.4359
 8392TIP3    H225141   1.886   6.354   1.313 -0.0109  1.6013 -0.2266
 8393TIP3   OH225142   1.678   3.785   3.008  0.1041  0.1738  0.2130
 8393TIP3    H125143   1.720   3.770   2.923 -1.5269  3.2324 -1.3122
 8393TIP3    H225144   1.746   3.828   3.060  0.8082 -0.8181  0.1500
 8394TIP3   OH225145   2.755   1.357   2.957 -0.4101 -0.1033  0.5343
 8394TIP3    H125146   2.780   1.282   3.010  1.7917 -0.2998 -0.6606
 8394TIP3    H225147   2.660   1.360   2.962 -0.3605 -0.7344  3.5874
 8395TIP3   OH225148   6.587   6.010   4.145  0.0494  0.2925  0.3214
 8395TIP3    H125149   6.545   5.925   4.160 -0.4162  0.7252  1.5699
 8395TIP3    H225150   6.649   5.993   4.074 -1.5586 -0.5986 -0.9597
 8396TIP3   OH225151   2.965   0.462   0.387  0.2285 -0.2621 -0.3443
 8396TIP3    H125152   2.880   0.449   0.429  0.2018 -1.6444 -0.7533
 8396TIP3    H225153   3.028   0.427   0.449  0.8757  3.3115  1.2403
 8397TIP3   OH225154   1.445   6.291   2.900 -0.4165  0.2941  0.0251
 8397TIP3    H125155   1.473   6.219   2.957 -0.4455  0.6192  0.4530
 8397TIP3    H225156   1.492   6.276   2.818 -0.1016  0.0179  0.2526
 8398TIP3   OH225157   2.095   1.449   4.346  0.0889 -0.1952  0.1243
 8398TIP3    H125158   2.031   1.503   4.300  0.4613 -1.1603 -1.6177
 8398TIP3    H225159   2.151   1.511   4.391 -0.8801  0.7524  0.0636
 8399TIP3   OH225160   1.119   3.093   4.661  0.6421 -0.4992 -0.3799
 8399TIP3    H125161   1.053   3.162   4.669  1.5463  0.3799 -0.3431
 8399TIP3    H225162   1.160   3.089   4.747  1.2432 -0.4096 -0.6558
 8400TIP3   OH225163   3.783   4.268   2.175  0.0325 -0.0578  0.3843
 8400TIP3    H125164   3.729   4.335   2.133 -1.4666 -0.2983  1.8214
 8400TIP3    H225165   3.778   4.193   2.117  0.1862  0.4644 -0.3143
 8401TIP3   OH225166   5.448   3.622   5.766  0.0474  0.6482  0.4508
 8401TIP3    H125167   5.483   3.547   5.813 -1.5227 -0.3672  0.1062
 8401TIP3    H225168   5.449   3.694   5.830  0.6647  0.0820  1.0909
 8402TIP3   OH225169   5.258   1.735   4.087 -0.1654  0.4332 -0.1761
 8402TIP3    H125170   5.329   1.766   4.143 -0.8305  0.4362  0.6903
 8402TIP3    H225171   5.182   1.729   4.146 -0.3968 -1.5368 -0.6085
 8403TIP3   OH225172   1.252   2.933   1.130 -0.3880  0.1933 -0.0775
 8403TIP3    H125173   1.207   3.011   1.160  1.9707  1.3480  0.7295
 8403TIP3    H225174   1.328   2.925   1.188  0.6108 -1.4668 -1.4982
 8404TIP3   OH225175   4.791   2.326   5.086  1.0426 -0.1423  0.0402
 8404TIP3    H125176   4.700   2.351   5.075  0.8594 -0.8980 -0.2245
 8404TIP3    H225177   4.823   2.312   4.996  1.3384 -0.1406  0.1432
 8405TIP3   OH225178   3.644   4.253   4.402  0.0468  0.3177  0.5990
 8405TIP3    H125179   3.680   4.290   4.482  0.2153 -2.5703  2.0011
 8405TIP3    H225180   3.712   4.266   4.336  1.7861 -0.9450  2.0334
 8406TIP3   OH225181   2.043   1.639   0.585  0.1014  0.3747 -0.3740
 8406TIP3    H125182   2.104   1.569   0.560  1.8416  1.9217 -0.7037
 8406TIP3    H225183   2.099   1.713   0.606 -1.5485  0.9747  2.4754
 8407TIP3   OH225184   2.131   5.667   1.803  0.5860  0.1991 -0.4579
 8407TIP3    H125185   2.043   5.641   1.830  1.2370 -2.7420 -0.8161
 8407TIP3    H225186   2.119   5.713   1.720 -0.6259 -0.2211 -0.5271
 8408TIP3   OH225187   2.199   5.601   4.362 -0.4561  0.3553 -0.0410
 8408TIP3    H125188   2.293   5.591   4.380 -0.4788  2.2622  1.4510
 8408TIP3    H225189   2.189   5.572   4.272  0.7555 -4.1453  1.0231
 8409TIP3   OH225190   1.821   5.868   3.192 -0.0525  0.1296 -0.1831
 8409TIP3    H125191   1.897   5.810   3.189  0.2501  0.4625  0.9023
 8409TIP3    H225192   1.796   5.879   3.100  0.7109 -0.6295 -0.4903
 8410TIP3   OH225193   6.302   0.327   5.737 -0.0220  0.4365  0.1103
 8410TIP3    H125194   6.283   0.368   5.653 -0.0516  1.3252  0.5412
 8410TIP3    H225195   6.259   0.241   5.732  1.5520 -0.3123 -1.4877
 8411TIP3   OH225196   2.750   1.129   3.704  0.3502 -0.0170 -0.0691
 8411TIP3    H125197   2.750   1.201   3.767 -1.8370 -1.2494  1.4983
 8411TIP3    H225198   2.680   1.151   3.642  0.0223 -0.5196  0.1139
 8412TIP3   OH225199   4.255   5.826   1.312 -0.5504 -0.4615  0.1260
 8412TIP3    H125200   4.232   5.913   1.343  1.4627 -0.1486  0.9413
 8412TIP3    H225201   4.278   5.838   1.220  0.2485  0.0142  0.3738
 8413TIP3   OH225202   3.126   2.485   4.944  0.3988  0.1493  0.5003
 8413TIP3    H125203   3.064   2.544   4.901  0.0169 -0.0625  0.7538
 8413TIP3    H225204   3.086   2.399   4.936  0.1551  0.1508  1.5706
 8414TIP3   OH225205   2.702   4.024   4.898  0.9051  0.2472  0.3703
 8414TIP3    H125206   2.723   4.047   4.989  3.6786  2.2286 -0.6653
 8414TIP3    H225207   2.754   3.946   4.881  1.6899  0.8470  0.0006
 8415TIP3   OH225208   6.888   2.376   3.624 -0.2483  0.2147  0.3875
 8415TIP3    H125209   6.834   2.408   3.552 -0.2053  0.6275  0.5359
 8415TIP3    H225210   6.840   2.400   3.703 -0.0971  0.1258  0.5075
 8416TIP3   OH225211   3.778   4.744   5.458  0.4596  0.1708  0.2073
 8416TIP3    H125212   3.685   4.724   5.453  0.4225  0.2316  0.6402
 8416TIP3    H225213   3.816   4.672   5.509  0.5748  0.3850  0.4255
 8417TIP3   OH225214   6.232   4.811   5.102 -0.6515  0.5265  0.6416
 8417TIP3    H125215   6.166   4.747   5.130 -1.0804  0.3022 -0.8101
 8417TIP3    H225216   6.182   4.883   5.065 -0.1042  0.6988  0.2251
 8418TIP3   OH225217   4.922   4.770   1.649  0.5681  0.1929  0.9880
 8418TIP3    H125218   4.982   4.753   1.577  0.7129  1.6398  0.7292
 8418TIP3    H225219   4.950   4.855   1.684 -1.8077  1.3231  0.3209
 8419TIP3   OH225220   0.138   1.690   4.461  0.4103  0.2156 -0.0446
 8419TIP3    H125221   0.129   1.717   4.369  0.5658 -0.2605 -0.2002
 8419TIP3    H225222   0.212   1.630   4.461  1.2456  1.1970  0.6072
 8420TIP3   OH225223   5.232   0.439   3.594  0.5237  0.2893 -0.1305
 8420TIP3    H125224   5.197   0.528   3.603 -1.0279 -0.4590  2.2459
 8420TIP3    H225225   5.165   0.384   3.634  1.3921 -2.0087 -1.6598
 8421TIP3   OH225226   0.256   2.051   1.212  0.3528  0.3231  0.0701
 8421TIP3    H125227   0.216   1.966   1.229  1.1617 -0.2854 -0.9518
 8421TIP3    H225228   0.255   2.095   1.297 -1.0670 -0.2543  0.3836
 8422TIP3   OH225229   7.030   5.401   5.027  0.3630 -0.0726  0.1302
 8422TIP3    H125230   7.096   5.340   5.062  3.1602  0.9411 -2.8400
 8422TIP3    H225231   6.982   5.349   4.962  1.7910  0.4023 -1.3754
 8423TIP3   OH225232   0.353   1.128   4.103  0.3381 -0.2212 -0.4816
 8423TIP3    H125233   0.373   1.054   4.045  0.8212  1.1098 -2.0933
 8423TIP3    H225234   0.283   1.096   4.159  0.8038 -2.0247 -0.8606
 8424TIP3   OH225235   1.500   4.379   1.959  0.1286 -0.0146 -0.1986
 8424TIP3    H125236   1.469   4.398   1.871 -1.3931 -1.7893 -0.1185
 8424TIP3    H225237   1.540   4.292   1.952  1.0511  0.3275  0.6343
 8425TIP3   OH225238   3.123   3.394   1.435 -0.2209  0.1681 -0.3059
 8425TIP3    H125239   3.115   3.303   1.407 -2.4352  0.8838 -2.2724
 8425TIP3    H225240   3.211   3.400   1.472  1.7137 -1.7370 -4.0704
 8426TIP3   OH225241   6.162   5.539   3.580 -0.1380 -0.5348 -0.4826
 8426TIP3    H125242   6.240   5.543   3.524  1.1192  0.9431  1.2398
 8426TIP3    H225243   6.128   5.629   3.580 -0.5321 -0.6681  0.4860
 8427TIP3   OH225244   4.859   0.829   4.802 -0.0821  0.0488 -0.7157
 8427TIP3    H125245   4.861   0.770   4.726  1.6262 -1.5274  0.4592
 8427TIP3    H225246   4.794   0.791   4.860  0.9519 -0.7061 -0.0010
 8428TIP3   OH225247   5.183   3.571   4.173  0.1093 -0.2518  0.4734
 8428TIP3    H125248   5.200   3.641   4.110  1.2686 -0.5543  0.4398
 8428TIP3    H225249   5.223   3.601   4.254 -0.0354 -0.5552  0.6617
 8429TIP3   OH225250   5.555   4.861   5.737  0.2269 -0.3682 -0.2041
 8429TIP3    H125251   5.485   4.799   5.718 -0.0353  0.1066 -0.8142
 8429TIP3    H225252   5.532   4.940   5.687  0.5090  0.2482  0.6104
 8430TIP3   OH225253   4.989   1.814   0.842  0.3917 -0.6476  0.6309
 8430TIP3    H125254   5.058   1.748   0.853  1.2624  0.6526  5.4390
 8430TIP3    H225255   5.036   1.897   0.835 -0.7240 -0.1275 -1.0322
 8431TIP3   OH225256   4.600   3.819   0.284  0.6310  0.7439  0.0193
 8431TIP3    H125257   4.538   3.790   0.216  1.4020 -0.5378 -0.1584
 8431TIP3    H225258   4.643   3.739   0.313  2.1018  1.5908  0.2481
 8432TIP3   OH225259   1.567   5.840   5.124  0.1128  0.1822  0.0539
 8432TIP3    H125260   1.628   5.777   5.085 -0.0384  0.8673 -1.3386
 8432TIP3    H225261   1.619   5.888   5.188  1.1326  0.9183 -1.2830
 8433TIP3   OH225262   3.998   3.471   3.951  0.4672  0.1126 -0.2438
 8433TIP3    H125263   4.052   3.424   3.888  0.5156  0.1062 -0.1973
 8433TIP3    H225264   4.032   3.560   3.950  0.3967  0.1390 -0.3077
 8434TIP3   OH225265   2.994   5.008   4.664 -0.0775 -0.3819  0.0137
 8434TIP3    H125266   2.940   5.087   4.660  0.2291 -0.1858 -0.3089
 8434TIP3    H225267   2.986   4.978   4.755 -2.7943 -1.8123 -0.5923
 8435TIP3   OH225268   0.507   1.241   2.396 -0.2754  0.8305  0.1671
 8435TIP3    H125269   0.527   1.334   2.392  4.6495  0.0452 -0.6456
 8435TIP3    H225270   0.535   1.207   2.311  0.3645 -1.6211  1.2607
 8436TIP3   OH225271   6.258   1.961   1.654  0.0994 -0.3432 -0.1369
 8436TIP3    H125272   6.215   1.976   1.738 -0.7333  2.7661 -0.9653
 8436TIP3    H225273   6.196   1.907   1.605 -0.1680 -0.7909  0.6757
 8437TIP3   OH225274   4.044   1.538   5.339 -0.0273  0.0496 -0.0559
 8437TIP3    H125275   4.035   1.443   5.347 -0.9583 -0.0446 -1.8594
 8437TIP3    H225276   3.994   1.573   5.413 -1.3094 -0.8483 -0.4611
 8438TIP3   OH225277   2.754   2.853   0.228 -0.2714 -0.4068  0.4944
 8438TIP3    H125278   2.731   2.783   0.166 -1.6407  0.4705 -0.0396
 8438TIP3    H225279   2.728   2.934   0.183 -1.0940  0.2623  2.1144
 8439TIP3   OH225280   5.161   5.421   1.977  0.1496  0.4682 -0.1676
 8439TIP3    H125281   5.242   5.469   1.957 -0.1364  1.3369  0.7337
 8439TIP3    H225282   5.109   5.481   2.029 -0.7590 -0.3781 -0.0702
 8440TIP3   OH225283   3.115   1.868   1.701 -0.5252 -0.2224  0.0682
 8440TIP3    H125284   3.057   1.923   1.649 -0.4078  0.1012  0.2699
 8440TIP3    H225285   3.177   1.930   1.740  0.2223 -0.6033 -0.4939
 8441TIP3   OH225286   1.792   3.732   1.656 -0.1914 -0.3729 -0.0864
 8441TIP3    H125287   1.733   3.804   1.679 -2.8732 -2.5943  0.5128
 8441TIP3    H225288   1.737   3.654   1.659  2.2124 -2.3304 -2.1792
 8442TIP3   OH225289   1.311   6.355   3.207  0.3649 -0.2705 -0.2488
 8442TIP3    H125290   1.395   6.317   3.235  0.3123  0.2403  0.6599
 8442TIP3    H225291   1.247   6.286   3.224  0.2928  0.1243  1.2285
 8443TIP3   OH225292   6.126   4.437   0.235 -0.1920 -0.0505  0.5313
 8443TIP3    H125293   6.166   4.444   0.321 -1.1295  1.5489  0.8679
 8443TIP3    H225294   6.196   4.404   0.178  1.1271  1.1478  1.4122
 8444TIP3   OH225295   5.885   4.571   3.278  0.1447 -0.4869 -0.5069
 8444TIP3    H125296   5.869   4.591   3.371 -0.4427 -0.6986 -0.5581
 8444TIP3    H225297   5.897   4.657   3.237  1.9790 -0.4436  0.0260
 8445TIP3   OH225298   1.537   0.332   2.016  0.2339  0.2612  0.3134
 8445TIP3    H125299   1.514   0.256   1.962  0.7461 -0.2955  0.8541
 8445TIP3    H225300   1.630   0.346   1.999  0.1614  0.7256  0.2817
 8446TIP3   OH225301   3.314   1.210   2.944 -0.1804  0.5182  0.2157
 8446TIP3    H125302   3.344   1.203   2.854  0.8003 -1.4760  0.6327
 8446TIP3    H225303   3.222   1.234   2.938  0.0527  1.0991 -1.2798
 8447TIP3   OH225304   6.200   0.177   2.971  0.4315 -0.4401  0.3152
 8447TIP3    H125305   6.108   0.202   2.959  0.5423 -0.3395 -0.3731
 8447TIP3    H225306   6.241   0.256   3.008  0.7169  0.3540 -1.5770
 8448TIP3   OH225307   3.710   4.115   0.278  0.1904  0.0772  0.1331
 8448TIP3    H125308   3.762   4.049   0.231  0.6268  0.8460 -0.4954
 8448TIP3    H225309   3.633   4.128   0.223  0.1361  0.1345  0.2239
 8449TIP3   OH225310   0.080   3.049   0.314  0.3089  0.4763  0.5878
 8449TIP3    H125311  -0.011   3.041   0.344 -0.2753  0.3802 -1.1014
 8449TIP3    H225312   0.124   3.094   0.386 -0.3403 -2.0737  2.7501
 8450TIP3   OH225313   3.327   6.721   4.315 -0.0678 -0.2790  0.2720
 8450TIP3    H125314   3.415   6.740   4.280  0.5966 -2.2505  0.7097
 8450TIP3    H225315   3.273   6.711   4.237 -0.1751  1.9319  0.0129
 8451TIP3   OH225316   3.160   2.647   5.619  0.5433  0.4352  0.6455
 8451TIP3    H125317   3.122   2.709   5.681 -0.3889  0.6165 -0.0868
 8451TIP3    H225318   3.231   2.605   5.668 -0.3600  0.3427  1.9505
 8452TIP3   OH225319   2.651   0.925   1.539 -0.2747  0.2958  0.6001
 8452TIP3    H125320   2.716   0.937   1.609  1.2617  0.6378 -0.8164
 8452TIP3    H225321   2.569   0.907   1.585  0.5672  1.0375  2.4918
 8453TIP3   OH225322   5.694   3.570   4.963  0.2752  0.5745  0.2107
 8453TIP3    H125323   5.735   3.656   4.978  1.1437  0.2946 -0.4588
 8453TIP3    H225324   5.763   3.507   4.985 -0.2462  0.0505  0.3706
 8454TIP3   OH225325   5.474   4.430   1.197  0.1288 -0.3693  0.1243
 8454TIP3    H125326   5.491   4.515   1.237 -0.3171  0.6344 -1.7201
 8454TIP3    H225327   5.543   4.373   1.232 -0.1129  0.4563  2.1117
 8455TIP3   OH225328   5.008   1.664   3.260  0.3119 -0.1822 -0.1238
 8455TIP3    H125329   5.103   1.670   3.262  0.3127 -0.2971  0.3353
 8455TIP3    H225330   4.978   1.726   3.326  0.0706 -0.2247 -0.1910
 8456TIP3   OH225331   0.789   3.268   2.154  0.2090 -0.0177  0.4364
 8456TIP3    H125332   0.746   3.343   2.197  1.7524  1.1002  0.1186
 8456TIP3    H225333   0.848   3.308   2.090  1.1137 -1.5276  0.2842
 8457TIP3   OH225334   1.999   0.100   0.068  0.0189  0.1965  0.0783
 8457TIP3    H125335   1.920   0.048   0.055 -0.2147 -0.0942  2.3142
 8457TIP3    H225336   1.990   0.174   0.007 -0.7615 -1.0948 -1.4599
 8458TIP3   OH225337   6.927   1.035   4.270 -0.5106 -0.3920 -0.5761
 8458TIP3    H125338   6.835   1.026   4.247 -0.3739 -0.9276 -0.9533
 8458TIP3    H225339   6.928   1.044   4.365 -0.9334 -0.7783 -0.5317
 8459TIP3   OH225340   3.333   2.582   2.547  0.5176  0.1070 -0.3592
 8459TIP3    H125341   3.366   2.567   2.635 -0.7355  1.7438  0.4552
 8459TIP3    H225342   3.346   2.499   2.501 -1.1676 -1.6561  2.1390
 8460TIP3   OH225343   5.449   2.627   2.729 -0.5366 -0.6667 -0.2925
 8460TIP3    H125344   5.476   2.716   2.708  0.2152 -1.0598 -1.0356
 8460TIP3    H225345   5.529   2.583   2.757 -0.8994 -1.1230  0.0550
 8461TIP3   OH225346   3.372   4.419   3.813  0.4761 -0.0292  0.2852
 8461TIP3    H125347   3.349   4.362   3.739 -2.8681  1.2019  0.2360
 8461TIP3    H225348   3.424   4.362   3.870  1.2114 -1.6970 -1.8719
 8462TIP3   OH225349   5.003   5.062   1.672 -0.0704 -0.6536  0.1280
 8462TIP3    H125350   4.998   5.127   1.602  0.5718 -0.6188  0.1133
 8462TIP3    H225351   5.044   5.107   1.745 -2.3387 -0.1408  1.1831
 8463TIP3   OH225352   5.817   2.216   3.105  0.4144  0.3813  0.4894
 8463TIP3    H125353   5.891   2.258   3.147  1.2620  0.0695 -0.6436
 8463TIP3    H225354   5.814   2.128   3.143  1.1727  0.1010 -0.0863
 8464TIP3   OH225355   2.284   6.132   1.313 -0.0760  0.2358 -0.3628
 8464TIP3    H125356   2.195   6.103   1.336  0.6646 -1.6709  0.3158
 8464TIP3    H225357   2.335   6.117   1.392  0.7031  2.1478 -0.4667
 8465TIP3   OH225358   3.157   2.822   3.627 -0.3848 -0.3409 -0.0895
 8465TIP3    H125359   3.116   2.775   3.555  0.2961  0.5794 -1.1181
 8465TIP3    H225360   3.093   2.888   3.653 -0.7641 -0.8882  0.3893
 8466TIP3   OH225361   6.109   4.543   1.644 -0.3665  0.3610  0.3876
 8466TIP3    H125362   6.115   4.518   1.737  0.0424  0.6073  0.4280
 8466TIP3    H225363   6.111   4.461   1.597 -1.6377  0.1563  0.6429
 8467TIP3   OH225364   6.931   0.501   0.947  0.1257 -1.0755  0.0777
 8467TIP3    H125365   6.929   0.573   1.009 -0.9501  0.3747 -1.5781
 8467TIP3    H225366   7.020   0.504   0.910 -0.1227 -0.1678 -0.4598
 8468TIP3   OH225367   6.411   4.280   1.604  0.4838 -0.1448 -1.3550
 8468TIP3    H125368   6.461   4.244   1.677  0.9914 -1.9462 -2.5251
 8468TIP3    H225369   6.470   4.343   1.563  0.3577  0.5501 -0.4928
 8469TIP3   OH225370   2.882   5.126   3.998 -0.0515 -0.8271 -0.2111
 8469TIP3    H125371   2.805   5.145   3.944 -0.8532  0.7777  1.4057
 8469TIP3    H225372   2.955   5.131   3.937 -1.1959 -3.3352 -2.0174
 8470TIP3   OH225373   1.174   3.559   1.622 -0.7469 -0.6299 -0.0974
 8470TIP3    H125374   1.194   3.651   1.606  0.3318 -0.8371 -0.0007
 8470TIP3    H225375   1.106   3.538   1.558 -0.7173  0.1308 -0.3847
 8471TIP3   OH225376   6.419   0.679   0.284  0.3550  0.4251 -0.6731
 8471TIP3    H125377   6.338   0.718   0.250  1.3902  2.3481 -1.0461
 8471TIP3    H225378   6.398   0.657   0.375 -1.3944 -1.6606 -1.4859
 8472TIP3   OH225379   1.927   4.300   5.782 -0.0195  0.0955 -0.3025
 8472TIP3    H125380   1.933   4.249   5.701  1.7593  0.8914 -0.7204
 8472TIP3    H225381   1.909   4.235   5.850 -1.6890 -0.5708 -1.3194
 8473TIP3   OH225382   2.651   0.126   2.245 -0.4517 -0.6837 -0.1581
 8473TIP3    H125383   2.655   0.044   2.195 -0.6162 -1.4723  1.0804
 8473TIP3    H225384   2.697   0.189   2.191 -2.7265 -0.8565 -2.4976
 8474TIP3   OH225385   7.090   5.834   3.755 -0.0935 -0.4884  0.0856
 8474TIP3    H125386   7.141   5.915   3.763  1.2486 -1.3271  0.3053
 8474TIP3    H225387   7.093   5.795   3.842 -0.5229 -0.8956 -0.0823
 8475TIP3   OH225388   3.424   2.410   4.232 -0.1714 -0.0908 -0.0944
 8475TIP3    H125389   3.491   2.407   4.164 -0.7903 -1.9929 -0.6684
 8475TIP3    H225390   3.432   2.327   4.278 -1.4928  0.0749  0.4707
 8476TIP3   OH225391   4.611   3.298   0.196 -0.3855  0.7357  0.1047
 8476TIP3    H125392   4.560   3.236   0.144  0.1639  1.0243 -0.7928
 8476TIP3    H225393   4.690   3.250   0.220 -0.0848  0.9907 -0.3608
 8477TIP3   OH225394   5.280   4.470   5.281  0.3268 -0.0151 -0.3212
 8477TIP3    H125395   5.281   4.452   5.187  0.1609  1.8479 -0.7157
 8477TIP3    H225396   5.306   4.387   5.321 -0.1544 -1.0161 -1.9675
 8478TIP3   OH225397   0.181   5.851   4.602  0.0252 -0.1819  0.5901
 8478TIP3    H125398   0.201   5.761   4.577  0.7665 -0.1320  0.9580
 8478TIP3    H225399   0.261   5.900   4.582  0.3580  0.0102  2.2157
 8479TIP3   OH225400   4.807   4.877   0.967 -0.2197  0.2189 -0.6323
 8479TIP3    H125401   4.869   4.949   0.976 -0.9833  0.6279  2.4084
 8479TIP3    H225402   4.779   4.882   0.875  0.6471  3.0483 -0.8592
 8480TIP3   OH225403   6.116   2.860   0.319 -0.0837  0.3577  0.1911
 8480TIP3    H125404   6.171   2.792   0.281 -1.1209 -1.0116  1.0445
 8480TIP3    H225405   6.170   2.939   0.317  2.5179 -1.2060  2.2995
 8481TIP3   OH225406   0.856   6.355   4.085 -0.1262 -0.3939  0.3091
 8481TIP3    H125407   0.897   6.334   4.001 -0.8567 -0.4755 -0.0324
 8481TIP3    H225408   0.930   6.372   4.144  0.4425 -1.9694  0.0901
 8482TIP3   OH225409   1.289   3.194   2.162  0.1410  0.0962 -0.2685
 8482TIP3    H125410   1.286   3.099   2.175  2.1701 -0.1942 -1.5295
 8482TIP3    H225411   1.217   3.227   2.215 -1.5563 -2.2485 -0.9563
 8483TIP3   OH225412   5.589   0.877   3.364  0.2563  0.1040 -0.1815
 8483TIP3    H125413   5.681   0.877   3.390 -0.0359 -0.7708  0.9147
 8483TIP3    H225414   5.571   0.787   3.337 -0.2787  0.2696 -0.4013
 8484TIP3   OH225415   0.333   5.523   1.842  0.1604 -0.2064  0.2583
 8484TIP3    H125416   0.313   5.605   1.798  0.2136  1.0369  2.4457
 8484TIP3    H225417   0.425   5.506   1.821 -0.5076 -1.1721 -2.3377
 8485TIP3   OH225418   2.536   0.300   5.866  0.5783  0.0420 -0.3171
 8485TIP3    H125419   2.549   0.235   5.797  2.3319 -0.1474  0.1404
 8485TIP3    H225420   2.454   0.343   5.844  0.7811 -0.4497 -2.1592
 8486TIP3   OH225421   0.825   0.507   0.430  0.2831  0.4501 -0.1172
 8486TIP3    H125422   0.735   0.540   0.433  0.4594  0.8849  0.5805
 8486TIP3    H225423   0.815   0.414   0.409 -0.3544  0.3940  0.3956
 8487TIP3   OH225424   1.143   5.299   0.903  0.1459  0.6696  0.0108
 8487TIP3    H125425   1.104   5.260   0.981 -0.4673  1.5603  0.1569
 8487TIP3    H225426   1.136   5.394   0.917  0.6461  0.8385 -0.8164
 8488TIP3   OH225427   6.141   1.379   3.809 -0.4198  0.0405 -0.0740
 8488TIP3    H125428   6.141   1.289   3.777 -0.3919 -0.6812  1.8453
 8488TIP3    H225429   6.051   1.410   3.792 -0.8257 -0.8136  0.4507
 8489TIP3   OH225430   4.278   2.784   0.697  0.2111  0.1109 -0.1270
 8489TIP3    H125431   4.232   2.787   0.780  0.1920  1.9416 -0.1652
 8489TIP3    H225432   4.361   2.739   0.716  0.0175  0.1261  0.7793
 8490TIP3   OH225433   0.937   3.583   2.764  0.0807 -0.5691  0.0672
 8490TIP3    H125434   0.890   3.612   2.842 -0.8661 -0.6834 -0.4443
 8490TIP3    H225435   0.999   3.654   2.746 -1.4383  0.6621 -0.5354
 8491TIP3   OH225436   0.859   4.641   4.517  0.1554 -0.0567  0.3690
 8491TIP3    H125437   0.785   4.701   4.513  0.6899  0.5696 -2.8960
 8491TIP3    H225438   0.852   4.589   4.437  2.2480 -1.1974  0.8597
 8492TIP3   OH225439   5.390   4.264   3.446  0.7099  0.0228 -0.5165
 8492TIP3    H125440   5.420   4.243   3.358  1.3545  0.3746 -0.3822
 8492TIP3    H225441   5.338   4.188   3.472  0.7237 -0.1922 -1.1009
 8493TIP3   OH225442   3.872   1.148   4.103 -0.3793  0.1635 -0.0890
 8493TIP3    H125443   3.907   1.196   4.178 -0.5322 -0.1529  0.1876
 8493TIP3    H225444   3.940   1.085   4.081  0.3074  1.2355 -1.1614
 8494TIP3   OH225445   6.407   0.556   4.601  0.0927 -0.2297 -0.5801
 8494TIP3    H125446   6.314   0.565   4.577  0.0905 -0.5066 -0.6839
 8494TIP3    H225447   6.435   0.645   4.623 -0.3404 -0.2212 -0.0281
 8495TIP3   OH225448   6.968   5.782   2.491  0.0523 -0.0203 -0.2888
 8495TIP3    H125449   6.965   5.861   2.436 -0.4145  0.7341  0.7849
 8495TIP3    H225450   7.034   5.802   2.557 -1.6095  0.3940  1.3124
 8496TIP3   OH225451   3.978   3.927   4.819  0.3020 -0.0225  0.3615
 8496TIP3    H125452   3.955   3.838   4.845  1.4514 -0.9577 -1.5822
 8496TIP3    H225453   3.965   3.929   4.724  2.3990  1.1642  0.0164
 8497TIP3   OH225454   1.210   1.762   1.789 -0.1957  0.5223  0.3091
 8497TIP3    H125455   1.297   1.797   1.809 -0.0361  0.9426 -1.0324
 8497TIP3    H225456   1.173   1.824   1.727 -1.0992 -0.1319  0.1746
 8498TIP3   OH225457   4.951   0.203   0.711 -0.2793  0.2429 -0.7372
 8498TIP3    H125458   4.885   0.270   0.731 -0.0377  0.5155 -0.8445
 8498TIP3    H225459   5.021   0.219   0.775 -0.2870  0.0002 -0.6691
 8499TIP3   OH225460   3.506   1.234   2.384 -0.4716  0.1502  0.0913
 8499TIP3    H125461   3.541   1.146   2.373 -1.0439 -0.5987  3.2222
 8499TIP3    H225462   3.574   1.282   2.432 -0.6735  1.0269 -0.4732
 8500TIP3   OH225463   5.127   1.108   3.869  0.0242  0.6472 -0.9390
 8500TIP3    H125464   5.094   1.182   3.819 -2.3804  1.7847  2.0346
 8500TIP3    H225465   5.078   1.033   3.836 -1.0023  1.2441 -0.7931
 8501TIP3   OH225466   1.013   2.106   0.924 -0.1370 -0.4707  0.3503
 8501TIP3    H125467   0.976   2.112   0.836  2.2342  0.2556 -0.6792
 8501TIP3    H225468   0.995   2.192   0.964  0.2305 -0.1986 -0.0617
 8502TIP3   OH225469   0.879   2.908   4.368 -0.1265 -0.6460  0.4644
 8502TIP3    H125470   0.900   2.925   4.277 -0.2040 -2.8921 -0.0454
 8502TIP3    H225471   0.786   2.929   4.376  0.6288  3.0507  1.0492
 8503TIP3   OH225472   5.629   3.018   5.107  0.0818  0.4017  0.3549
 8503TIP3    H125473   5.669   3.090   5.156  0.7139  0.4535 -0.2141
 8503TIP3    H225474   5.645   3.040   5.015 -1.4505  0.5241  0.0918
 8504TIP3   OH225475   6.349   0.369   3.065 -0.5760  0.0130 -0.2052
 8504TIP3    H125476   6.413   0.406   3.126  0.5744 -0.1003 -1.3226
 8504TIP3    H225477   6.311   0.444   3.021 -1.5591  0.1097  0.7502
 8505TIP3   OH225478   3.639   0.488   1.021 -0.0528 -0.2296 -0.0837
 8505TIP3    H125479   3.578   0.415   1.033 -0.7579  0.2327 -0.7878
 8505TIP3    H225480   3.593   0.563   1.058  1.0370 -0.2797  1.4730
 8506TIP3   OH225481   6.344   0.106   1.567 -0.0830 -0.2068 -0.4641
 8506TIP3    H125482   6.331   0.012   1.556 -0.5800 -0.2771  0.6321
 8506TIP3    H225483   6.256   0.142   1.578  0.2060  0.1150  1.0059
 8507TIP3   OH225484   3.125   1.026   3.911 -0.5678  0.4844 -0.4740
 8507TIP3    H125485   3.144   1.104   3.963 -0.9509  0.4113 -0.2164
 8507TIP3    H225486   3.211   0.992   3.886 -0.4056  1.2887 -1.0538
 8508TIP3   OH225487   5.061   1.626   4.262 -0.0823  0.3185  0.7772
 8508TIP3    H125488   4.975   1.622   4.303 -0.0953  2.1751  1.0407
 8508TIP3    H225489   5.120   1.587   4.327 -0.5043  0.6081  1.3485
 8509TIP3   OH225490   5.211   4.527   2.404  0.6396 -0.1408  0.2326
 8509TIP3    H125491   5.157   4.460   2.361  1.6085 -0.2079 -0.9155
 8509TIP3    H225492   5.147   4.589   2.438 -0.2061  0.7851 -2.7196
 8510TIP3   OH225493   3.560   0.556   5.462 -0.0206 -0.1209  0.0213
 8510TIP3    H125494   3.495   0.485   5.458 -1.2445  0.8462  1.3641
 8510TIP3    H225495   3.508   0.636   5.455  1.0834  0.6811  0.6884
 8511TIP3   OH225496   2.897   3.708   3.698 -0.3215 -0.4596 -0.0439
 8511TIP3    H125497   2.940   3.722   3.614  0.2930 -1.6753  0.0362
 8511TIP3    H225498   2.818   3.659   3.676  0.5572 -2.0472  0.1790
 8512TIP3   OH225499   0.096   1.744   2.353  0.3189  0.3399 -0.3298
 8512TIP3    H125500   0.157   1.748   2.426  2.9420 -0.3104 -2.3419
 8512TIP3    H225501   0.144   1.699   2.284 -2.1237  0.6741 -2.3995
 8513TIP3   OH225502   6.357   0.316   4.240  0.3785 -0.4620  0.3068
 8513TIP3    H125503   6.327   0.232   4.273  0.6011  0.0615  1.9379
 8513TIP3    H225504   6.452   0.315   4.254  0.4345 -0.0929 -0.0174
 8514TIP3   OH225505   5.410   5.609   0.725 -0.6573  0.0913 -0.5474
 8514TIP3    H125506   5.354   5.596   0.648  0.2874 -1.1599 -1.0604
 8514TIP3    H225507   5.398   5.530   0.777 -1.8325  1.2343  0.9913
 8515TIP3   OH225508   4.624   0.621   1.792 -0.0862  0.5856 -0.0150
 8515TIP3    H125509   4.716   0.638   1.812 -0.1896  0.6974  0.3697
 8515TIP3    H225510   4.584   0.707   1.783 -0.2383  0.5401  0.2122
 8516TIP3   OH225511   4.656   3.362   4.763  0.9028  0.1372  0.5628
 8516TIP3    H125512   4.562   3.356   4.743  0.7686 -1.4824  1.4599
 8516TIP3    H225513   4.680   3.451   4.740 -0.6147  0.2635 -0.7196
 8517TIP3   OH225514   2.063   6.051   3.722 -0.1307 -0.5946 -0.3567
 8517TIP3    H125515   2.018   6.052   3.638 -0.5799 -0.8636 -0.1217
 8517TIP3    H225516   1.996   6.028   3.786 -0.4583  2.2530  0.4745
 8518TIP3   OH225517   6.416   2.548   3.347 -0.5483  0.0047  0.3235
 8518TIP3    H125518   6.436   2.547   3.441  1.3046  1.4979  0.0077
 8518TIP3    H225519   6.358   2.622   3.335 -0.2048  0.2584  0.2049
 8519TIP3   OH225520   2.475   0.344   1.048  0.2225 -0.1588 -0.2646
 8519TIP3    H125521   2.387   0.343   1.011  0.0837 -0.6054  0.0776
 8519TIP3    H225522   2.472   0.412   1.115 -0.0443 -0.6068  0.1839
 8520TIP3   OH225523   2.638   6.136   1.530  0.1276 -0.1301 -0.0776
 8520TIP3    H125524   2.732   6.126   1.548  0.3713  1.0271 -0.6027
 8520TIP3    H225525   2.607   6.047   1.514  1.0656 -0.5604  0.4192
 8521TIP3   OH225526   5.175   0.780   4.223  0.4251  0.1418 -0.2281
 8521TIP3    H125527   5.190   0.729   4.303  1.0988 -0.7282 -0.8877
 8521TIP3    H225528   5.129   0.858   4.253  1.3927  0.2291  1.1299
 8522TIP3   OH225529   6.303   3.470   2.403 -0.7994 -0.3290  0.9055
 8522TIP3    H125530   6.374   3.524   2.369 -0.3306 -1.4897  0.0083
 8522TIP3    H225531   6.325   3.458   2.496  0.0294 -0.4635  0.6954
 8523TIP3   OH225532   1.579   4.710   5.628 -0.4056 -0.1347  0.2022
 8523TIP3    H125533   1.510   4.645   5.613  1.0476 -1.8064  0.3813
 8523TIP3    H225534   1.660   4.664   5.606  0.7943  1.2395  1.5297
 8524TIP3   OH225535   2.469   5.358   5.354  0.5798 -0.3975 -0.7794
 8524TIP3    H125536   2.435   5.425   5.412 -0.8574 -0.7369 -1.2011
 8524TIP3    H225537   2.468   5.278   5.407 -0.4863 -0.6554 -1.1762
 8525TIP3   OH225538   5.988   2.682   0.915  0.3009  0.0780 -0.1487
 8525TIP3    H125539   5.903   2.717   0.886  0.1011 -1.5519 -1.6787
 8525TIP3    H225540   6.015   2.622   0.845  2.4535  0.1039  0.5846
 8526TIP3   OH225541   4.121   1.376   2.621  0.1315  0.0689 -0.3246
 8526TIP3    H125542   4.126   1.283   2.600  0.5532  0.1425 -0.5569
 8526TIP3    H225543   4.091   1.417   2.540 -1.2850  0.0057  0.1243
 8527TIP3   OH225544   4.661   1.013   1.629  0.9138 -0.1730  1.0087
 8527TIP3    H125545   4.703   0.935   1.666  2.4041  0.3177  0.4421
 8527TIP3    H225546   4.735   1.068   1.602 -0.0605 -0.3855 -2.4595
 8528TIP3   OH225547   5.847   0.557   1.773  0.3431  0.5239 -1.0594
 8528TIP3    H125548   5.913   0.586   1.711  0.9261 -0.2923 -0.8439
 8528TIP3    H225549   5.765   0.593   1.740  0.7245  0.5653 -1.9955
 8529TIP3   OH225550   2.863   5.721   0.390  0.2089  0.4740  0.1193
 8529TIP3    H125551   2.893   5.675   0.312 -0.7875 -0.8995  0.5224
 8529TIP3    H225552   2.772   5.694   0.402  0.1829  1.0547  1.4704
 8530TIP3   OH225553   3.876   4.300   3.530 -0.1981 -0.3785 -0.2956
 8530TIP3    H125554   3.916   4.318   3.615 -0.7477 -1.1917  0.1484
 8530TIP3    H225555   3.875   4.385   3.485 -0.8246  0.2627  0.9060
 8531TIP3   OH225556   6.981   1.495   5.656 -0.0722  0.2654  0.0744
 8531TIP3    H125557   7.045   1.432   5.625  0.1397  0.5400 -0.0523
 8531TIP3    H225558   7.032   1.574   5.675 -0.2598  0.2404  0.7027
 8532TIP3   OH225559   6.593   3.925   3.196  0.3230  0.1011  0.0415
 8532TIP3    H125560   6.674   3.916   3.245  1.3066  1.9087 -1.1704
 8532TIP3    H225561   6.552   4.004   3.230 -0.9148 -0.7357  0.5735
 8533TIP3   OH225562   2.864   3.608   1.105  0.1041 -0.2866 -0.2224
 8533TIP3    H125563   2.901   3.550   1.039  2.2538 -0.7485  1.2771
 8533TIP3    H225564   2.913   3.689   1.096 -0.4855  0.0986 -0.0303
 8534TIP3   OH225565   3.571   6.190   4.462  0.1732  0.5255 -0.3946
 8534TIP3    H125566   3.564   6.285   4.471 -2.0301  0.5177 -1.3650
 8534TIP3    H225567   3.530   6.170   4.378  0.6283 -1.2977 -0.2377
 8535TIP3   OH225568   6.894   1.406   4.520  0.0064 -0.0446 -0.1807
 8535TIP3    H125569   6.965   1.470   4.517  1.6604 -1.6731  1.3704
 8535TIP3    H225570   6.846   1.427   4.601 -0.8681  0.5859 -0.8393
 8536TIP3   OH225571   2.782   4.756   4.287 -0.0744  0.0271  0.3062
 8536TIP3    H125572   2.820   4.720   4.207 -0.6213 -1.2181  0.5849
 8536TIP3    H225573   2.715   4.818   4.257  0.7339  0.6915 -0.1801
 8537TIP3   OH225574   5.062   1.679   1.641  0.0916 -0.1029 -0.2608
 8537TIP3    H125575   4.971   1.653   1.622 -0.3591  0.2390  1.3276
 8537TIP3    H225576   5.115   1.612   1.598 -0.9034 -0.3984 -1.0844
 8538TIP3   OH225577   3.021   0.598   4.807  0.1551  0.2351 -0.3402
 8538TIP3    H125578   3.107   0.595   4.764 -0.4778 -1.6278 -1.6144
 8538TIP3    H225579   3.034   0.654   4.883  2.8907 -1.1383  0.3364
 8539TIP3   OH225580   6.865   2.111   2.992  0.8594 -0.5184  0.4479
 8539TIP3    H125581   6.907   2.087   2.910  1.6323  0.3743  0.5558
 8539TIP3    H225582   6.832   2.200   2.977  0.3650 -0.6237  0.8707
 8540TIP3   OH225583   6.720   1.037   2.108  0.1027 -0.4425 -0.3147
 8540TIP3    H125584   6.653   1.069   2.048  1.0731 -0.8072 -1.6348
 8540TIP3    H225585   6.687   1.059   2.195 -1.3378  0.1001 -0.9733
 8541TIP3   OH225586   5.566   3.453   5.188 -0.5748 -0.3363  0.4963
 8541TIP3    H125587   5.595   3.508   5.115 -0.6654 -1.6916 -0.5997
 8541TIP3    H225588   5.529   3.515   5.251  0.6922  0.9977 -0.0086
 8542TIP3   OH225589   2.092   6.305   2.641 -0.3950 -0.1760 -0.2760
 8542TIP3    H125590   2.177   6.334   2.608 -0.3505 -0.1974 -0.1789
 8542TIP3    H225591   2.107   6.284   2.733 -0.5221 -0.1122 -0.2397
 8543TIP3   OH225592   1.499   6.191   1.350  0.4254  0.4580  0.4607
 8543TIP3    H125593   1.491   6.129   1.278 -0.2095  1.1880 -0.1209
 8543TIP3    H225594   1.498   6.137   1.429  0.7549 -0.3227 -0.0678
 8544TIP3   OH225595   6.232   4.267   0.514  0.0795  0.2920 -0.2933
 8544TIP3    H125596   6.237   4.201   0.583  1.1421  0.0848 -0.5564
 8544TIP3    H225597   6.178   4.226   0.446  0.8606 -0.3899 -0.5239
 8545TIP3   OH225598   5.967   3.186   0.103 -0.2558 -0.1986  0.4157
 8545TIP3    H125599   6.024   3.146   0.168 -1.2090  1.2059  2.1919
 8545TIP3    H225600   6.022   3.251   0.059  0.5155 -1.4600 -0.5635
 8546TIP3   OH225601   4.230   6.234   4.524  0.4493  0.1765  0.2055
 8546TIP3    H125602   4.265   6.160   4.475  0.0540 -0.9190  1.4960
 8546TIP3    H225603   4.182   6.194   4.597  0.4376  1.7030  1.0923
 8547TIP3   OH225604   3.635   2.748   5.253  0.3825 -0.6777 -0.3440
 8547TIP3    H125605   3.587   2.696   5.318 -0.6765  1.3225  0.5575
 8547TIP3    H225606   3.698   2.798   5.304  2.2778 -1.9212 -1.3410
 8548TIP3   OH225607   4.922   2.934   5.515 -0.5733 -0.3331 -0.0180
 8548TIP3    H125608   4.983   2.861   5.529 -3.9725 -3.4824 -0.1361
 8548TIP3    H225609   4.902   2.966   5.603  0.3084 -0.0250  0.0871
 8549TIP3   OH225610   0.527   1.180   3.245  1.2523 -0.7494  0.2757
 8549TIP3    H125611   0.555   1.172   3.336 -0.3926 -0.5937  0.8384
 8549TIP3    H225612   0.580   1.116   3.198  2.8317 -0.1513  1.1564
 8550TIP3   OH225613   2.096   1.986   1.228 -0.9808 -0.7371  0.3471
 8550TIP3    H125614   2.017   1.940   1.201 -0.2600 -2.3313  0.8541
 8550TIP3    H225615   2.089   1.992   1.323 -0.9523  0.0265  0.3108
 8551TIP3   OH225616   6.731   1.530   2.485  0.4285 -0.1709 -0.8972
 8551TIP3    H125617   6.808   1.525   2.541  0.1832  0.2898 -0.5144
 8551TIP3    H225618   6.672   1.463   2.519  0.7937 -0.7685 -1.4118
 8552TIP3   OH225619   0.898   0.966   2.083 -0.0238  0.4468 -0.3064
 8552TIP3    H125620   0.899   0.871   2.100 -0.9938  0.2103 -1.4364
 8552TIP3    H225621   0.960   0.977   2.010 -1.6888  0.3019 -1.8062
 8553TIP3   OH225622   0.951   1.542   5.578  0.1554 -0.1123 -0.1929
 8553TIP3    H125623   1.003   1.598   5.636 -1.1138  1.7367 -0.7377
 8553TIP3    H225624   1.007   1.529   5.502  0.5507  0.2735  0.0266
 8554TIP3   OH225625   0.614   3.020   4.363 -0.4324  0.1039  0.1410
 8554TIP3    H125626   0.645   3.110   4.368  0.0623 -0.0148 -0.6659
 8554TIP3    H225627   0.572   3.014   4.277 -1.1195 -0.2378  0.4880
 8555TIP3   OH225628   6.315   3.319   3.845  0.3171 -0.1058 -0.4504
 8555TIP3    H125629   6.338   3.239   3.893  0.6474  0.3478  0.1618
 8555TIP3    H225630   6.230   3.345   3.881  0.4215  0.0650 -0.3247
 8556TIP3   OH225631   6.946   0.773   5.604  0.4012  0.5188  0.0590
 8556TIP3    H125632   7.002   0.801   5.531  1.1696 -2.0626 -0.4380
 8556TIP3    H225633   7.004   0.774   5.680  0.2463  0.8998  0.1737
 8557TIP3   OH225634   0.332   4.331   1.759  0.1701  0.1577  0.1518
 8557TIP3    H125635   0.336   4.413   1.709 -0.9882  0.6753  0.8565
 8557TIP3    H225636   0.298   4.267   1.696  0.2757  0.4221 -0.1773
 8558TIP3   OH225637   4.809   1.624   1.845  0.3710  0.1340  0.5560
 8558TIP3    H125638   4.831   1.567   1.771  0.7891 -0.5023  1.1586
 8558TIP3    H225639   4.894   1.657   1.876  0.3487 -0.8593  1.7324
 8559TIP3   OH225640   5.446   1.932   0.554 -0.4555  0.0818 -0.0426
 8559TIP3    H125641   5.509   1.916   0.625 -0.8792 -1.4552  0.0131
 8559TIP3    H225642   5.367   1.887   0.582 -0.7676 -0.1665 -1.2917
 8560TIP3   OH225643   2.437   1.288   2.726 -0.4133  0.0670 -0.3807
 8560TIP3    H125644   2.441   1.248   2.639 -0.9088 -2.0349  0.5092
 8560TIP3    H225645   2.444   1.214   2.786  1.0109  1.5723  1.3982
 8561TIP3   OH225646   1.541   6.262   0.311  0.1226  0.1659 -0.3939
 8561TIP3    H125647   1.600   6.195   0.344 -1.3276 -1.2838 -0.6006
 8561TIP3    H225648   1.453   6.227   0.328 -0.6833  0.8971 -2.6679
 8562TIP3   OH225649   3.368   3.267   2.669 -0.0035 -0.5291 -0.2868
 8562TIP3    H125650   3.364   3.184   2.717 -1.0042 -1.5330 -2.0157
 8562TIP3    H225651   3.443   3.256   2.610 -0.3816 -0.3665 -0.7972
 8563TIP3   OH225652   1.329   2.500   1.722 -0.3958  0.0990  0.1329
 8563TIP3    H125653   1.391   2.432   1.746  1.6479  1.0469 -2.0060
 8563TIP3    H225654   1.313   2.548   1.804  1.5373 -0.3265  0.8092
 8564TIP3   OH225655   4.608   3.465   4.464  0.1508 -0.4559  0.7057
 8564TIP3    H125656   4.609   3.537   4.401  0.3019 -1.2419 -0.2038
 8564TIP3    H225657   4.680   3.408   4.438 -0.9166 -1.7425  0.4487
 8565TIP3   OH225658   5.634   5.325   2.209 -0.1964 -0.1043 -0.0399
 8565TIP3    H125659   5.623   5.230   2.205 -0.1949 -0.0712 -1.0461
 8565TIP3    H225660   5.688   5.340   2.287 -2.2298 -0.7094  1.5825
 8566TIP3   OH225661   0.899   2.770   0.789 -0.1610  0.0110  0.7268
 8566TIP3    H125662   0.806   2.752   0.808 -1.1215  2.2424 -1.3559
 8566TIP3    H225663   0.926   2.831   0.857  0.4265 -2.0032  2.4247
 8567TIP3   OH225664   2.603   5.231   0.040  0.3263  0.3261  0.2005
 8567TIP3    H125665   2.537   5.298   0.021 -1.2655 -0.7582  1.6404
 8567TIP3    H225666   2.562   5.149   0.012  0.6376 -0.4853  2.0150
 8568TIP3   OH225667   6.055   0.113   0.782  0.2630 -0.4147  0.1513
 8568TIP3    H125668   6.000   0.186   0.810  0.6739 -0.4961  1.2182
 8568TIP3    H225669   5.998   0.036   0.787  0.3353 -0.4350  0.8462
 8569TIP3   OH225670   0.977   5.201   5.850  0.1716  0.6289 -0.1781
 8569TIP3    H125671   0.925   5.133   5.809  0.0387 -0.2675  1.3749
 8569TIP3    H225672   0.987   5.269   5.783 -2.8393  0.7710 -0.6029
 8570TIP3   OH225673   3.127   5.483   3.343  0.4720 -0.3470 -0.0908
 8570TIP3    H125674   3.044   5.446   3.312 -0.5550  1.4413  0.4127
 8570TIP3    H225675   3.130   5.571   3.306  1.0596  0.4332  1.6928
 8571TIP3   OH225676   1.954   1.686   1.438 -0.3821  0.8253 -0.0422
 8571TIP3    H125677   1.936   1.604   1.485 -0.2010 -0.2013 -1.6587
 8571TIP3    H225678   1.869   1.713   1.403 -0.2835  0.8103 -0.2949
 8572TIP3   OH225679   0.592   2.595   0.182  0.0914  0.1730 -0.7808
 8572TIP3    H125680   0.571   2.582   0.090 -0.2203 -1.4242 -0.5127
 8572TIP3    H225681   0.555   2.681   0.203 -2.2946 -0.5921 -1.4677
 8573TIP3   OH225682   3.374   1.711   0.938  0.0555  0.1335  0.0706
 8573TIP3    H125683   3.348   1.691   1.028  0.1006 -0.4918 -0.0481
 8573TIP3    H225684   3.395   1.804   0.939 -0.7887  0.3282  0.5033
 8574TIP3   OH225685   7.052   4.332   3.838  0.1140  0.1484  0.0230
 8574TIP3    H125686   7.142   4.364   3.835 -0.3309  1.3797 -1.7344
 8574TIP3    H225687   7.034   4.319   3.931  2.2040 -0.4862  0.3860
 8575TIP3   OH225688   5.615   6.615   4.827 -0.5036  0.0992 -0.2060
 8575TIP3    H125689   5.681   6.681   4.804 -0.6021  0.5994  0.8763
 8575TIP3    H225690   5.533   6.651   4.793 -1.0340  1.9256  2.6731
 8576TIP3   OH225691   3.889   0.923   1.347  0.4729  0.3976 -1.1159
 8576TIP3    H125692   3.909   0.910   1.255  1.0330 -1.5365 -0.7584
 8576TIP3    H225693   3.804   0.881   1.359  1.4339 -1.4126 -0.3146
 8577TIP3   OH225694   1.782   4.826   1.626  0.4532 -1.3005 -0.6690
 8577TIP3    H125695   1.690   4.847   1.612  0.7721  0.2559 -0.5427
 8577TIP3    H225696   1.784   4.782   1.711 -0.0593 -0.5519 -0.2639
 8578TIP3   OH225697   2.798   6.325   5.581  0.1267  0.0523  0.2445
 8578TIP3    H125698   2.854   6.248   5.571 -1.0140 -0.6749 -1.0428
 8578TIP3    H225699   2.727   6.296   5.638 -1.2904 -0.5179 -1.6736
 8579TIP3   OH225700   4.655   1.219   2.211 -0.4044  0.0109  0.1088
 8579TIP3    H125701   4.721   1.195   2.276 -1.5624 -1.1006  0.9341
 8579TIP3    H225702   4.620   1.303   2.242  0.1081  0.2471  0.0596
 8580TIP3   OH225703   1.827   0.758   5.711 -0.1976  0.5865  1.1595
 8580TIP3    H125704   1.765   0.707   5.762 -2.2178  1.4640 -0.2848
 8580TIP3    H225705   1.790   0.846   5.708  0.5299  0.8862 -0.6357
 8581TIP3   OH225706   1.108   1.884   4.754 -0.2207 -0.0764  0.9618
 8581TIP3    H125707   1.035   1.889   4.816 -0.7972 -3.9721  0.8356
 8581TIP3    H225708   1.167   1.819   4.792  1.4480  0.4093 -0.6620
 8582TIP3   OH225709   4.480   1.317   4.506  0.3602 -0.3299  0.0183
 8582TIP3    H125710   4.562   1.355   4.536  0.3741 -0.2557 -0.1177
 8582TIP3    H225711   4.505   1.247   4.447  0.3270 -0.3709  0.0519
 8583TIP3   OH225712   6.790   6.386   0.548  0.2590  0.2298  0.4442
 8583TIP3    H125713   6.851   6.425   0.485  0.5797 -0.0912  0.5450
 8583TIP3    H225714   6.832   6.303   0.573 -0.3623 -0.1358  0.2962
 8584TIP3   OH225715   3.938   0.563   3.891 -0.1189  0.8256 -0.1213
 8584TIP3    H125716   3.849   0.549   3.924  0.2882  0.7062  0.9841
 8584TIP3    H225717   3.929   0.563   3.796 -1.2268  0.3075 -0.0322
 8585TIP3   OH225718   6.295   1.572   5.588 -0.1680 -0.0965  0.2092
 8585TIP3    H125719   6.208   1.580   5.549 -0.3446  0.4268  0.6930
 8585TIP3    H225720   6.306   1.653   5.638  1.3168  0.6578 -1.2485
 8586TIP3   OH225721   0.815   1.894   4.108 -0.1746 -0.3052 -0.5272
 8586TIP3    H125722   0.791   1.956   4.040  0.9690 -0.2691 -0.9242
 8586TIP3    H225723   0.804   1.943   4.190 -1.4245 -0.3082 -0.6758
 8587TIP3   OH225724   6.568   1.331   2.608 -0.0263 -0.6623  0.4007
 8587TIP3    H125725   6.541   1.392   2.676 -0.3293 -0.4202  0.0626
 8587TIP3    H225726   6.510   1.255   2.619 -0.9459 -0.0951 -0.3997
 8588TIP3   OH225727   0.690   1.883   1.376 -0.2896 -0.4342 -0.3741
 8588TIP3    H125728   0.628   1.934   1.428  0.2843 -0.3535  0.2486
 8588TIP3    H225729   0.655   1.885   1.287 -1.0062 -0.1243 -0.0893
 8589TIP3   OH225730   6.488   1.230   5.775 -0.0155 -0.0990 -0.2177
 8589TIP3    H125731   6.421   1.176   5.734  0.2964 -1.2480  0.7308
 8589TIP3    H225732   6.566   1.215   5.722 -0.0560 -0.1982 -0.2500
 8590TIP3   OH225733   2.370   5.784   5.721  0.2924 -0.1842  0.1454
 8590TIP3    H125734   2.367   5.719   5.650  2.7608 -0.4052  0.1597
 8590TIP3    H225735   2.411   5.861   5.681  2.8142 -0.7091  1.5191
 8591TIP3   OH225736   6.770   6.735   5.856 -0.2766  0.0679  0.1028
 8591TIP3    H125737   6.690   6.721   5.805 -0.4335  1.4505 -0.0860
 8591TIP3    H225738   6.836   6.681   5.813 -0.9035 -0.4044 -0.2799
 8592TIP3   OH225739   5.074   5.208   0.390 -0.2717  0.2941 -0.0098
 8592TIP3    H125740   5.149   5.215   0.331 -0.9301 -0.6917 -0.9968
 8592TIP3    H225741   5.085   5.281   0.451  0.7369  1.0047 -0.9963
 8593TIP3   OH225742   4.514   1.564   0.513  0.2292  0.2704 -0.7508
 8593TIP3    H125743   4.524   1.532   0.602  3.5478 -0.1625 -1.1619
 8593TIP3    H225744   4.557   1.650   0.513 -1.7628  1.3391 -1.4605
 8594TIP3   OH225745   0.051   1.347   2.034  0.4210  0.0870  0.0307
 8594TIP3    H125746  -0.043   1.340   2.052  0.5782 -2.4636  0.1225
 8594TIP3    H225747   0.093   1.330   2.118  0.9961 -0.3620 -0.3456
 8595TIP3   OH225748   0.780   1.963   3.696  0.3395 -0.2084  0.5000
 8595TIP3    H125749   0.747   1.876   3.720 -1.3448  0.2640  0.0352
 8595TIP3    H225750   0.712   2.023   3.726 -1.7279  0.5154 -4.5702
 8596TIP3   OH225751   6.051   6.547   2.529 -0.4840  0.2091 -0.1033
 8596TIP3    H125752   5.989   6.619   2.517 -0.0713  1.0098  2.0754
 8596TIP3    H225753   6.110   6.553   2.454 -1.8130  0.7062 -1.1380
 8597TIP3   OH225754   1.164   0.132   1.103  0.2980 -0.0243  0.1851
 8597TIP3    H125755   1.244   0.080   1.099  0.9087  0.9053 -0.0798
 8597TIP3    H225756   1.189   0.217   1.064 -1.1385 -0.1282 -1.0516
 8598TIP3   OH225757   3.078   0.596   3.533  0.4038 -0.9272  0.2497
 8598TIP3    H125758   3.081   0.602   3.437  1.6186 -0.5015  0.2991
 8598TIP3    H225759   3.011   0.659   3.558  0.2101 -0.9007 -0.3036
 8599TIP3   OH225760   1.049   2.368   1.448  0.5378  0.3046  0.1118
 8599TIP3    H125761   0.991   2.297   1.478 -2.6683  1.6312 -2.4343
 8599TIP3    H225762   1.102   2.328   1.379 -2.6506  0.6220 -2.7398
 8600TIP3   OH225763   2.069   4.937   3.672  0.0053 -0.0388 -0.0492
 8600TIP3    H125764   2.082   4.849   3.636  0.6129  0.5097 -1.2579
 8600TIP3    H225765   2.091   4.995   3.599  0.3484  1.1289  0.9558
 8601TIP3   OH225766   0.846   1.684   1.486  0.2986 -0.2017 -0.0391
 8601TIP3    H125767   0.809   1.771   1.479  0.6352  0.0868  1.3514
 8601TIP3    H225768   0.913   1.680   1.418  0.2059  0.5835 -0.1767
 8602TIP3   OH225769   3.839   5.636   4.695 -0.0024 -0.1306 -0.3297
 8602TIP3    H125770   3.891   5.585   4.757 -0.0594  0.4581  0.2093
 8602TIP3    H225771   3.830   5.579   4.618  1.9853 -0.0086 -0.7134
 8603TIP3   OH225772   5.281   2.415   3.603 -0.2276  0.4798  0.0605
 8603TIP3    H125773   5.299   2.333   3.649  1.6282  0.8175  0.0299
 8603TIP3    H225774   5.186   2.421   3.600 -0.4151 -0.3068  2.4951
 8604TIP3   OH225775   4.562   2.744   0.090  0.5965 -0.4514  0.1254
 8604TIP3    H125776   4.649   2.780   0.104 -0.1429  1.1434  0.8339
 8604TIP3    H225777   4.514   2.812   0.044 -0.3656 -1.1944 -0.0133
 8605TIP3   OH225778   4.983   4.752   5.026 -0.0076  0.0039  0.1655
 8605TIP3    H125779   4.900   4.733   5.069 -0.2684  1.0589  0.1566
 8605TIP3    H225780   4.961   4.816   4.958  0.5323 -1.0235 -1.0206
 8606TIP3   OH225781   0.834   2.513   5.724  0.0585 -0.4568 -0.2441
 8606TIP3    H125782   0.760   2.452   5.733  0.1503 -0.4670  0.5699
 8606TIP3    H225783   0.851   2.517   5.630 -0.3269 -1.2328 -0.3562
 8607TIP3   OH225784   1.015   4.463   5.399  0.6881  0.9679 -0.0263
 8607TIP3    H125785   1.006   4.413   5.480 -0.7794  1.4124  0.1070
 8607TIP3    H225786   0.999   4.554   5.426 -0.9127  0.9919 -0.9992
 8608TIP3   OH225787   1.333   3.006   5.790 -0.3513  0.3661  0.2820
 8608TIP3    H125788   1.238   3.008   5.781 -0.7022 -1.5442  2.5351
 8608TIP3    H225789   1.355   2.913   5.794  1.7931  0.7200 -1.2751
 8609TIP3   OH225790   6.673   1.349   4.353 -0.2057  0.5495  0.0477
 8609TIP3    H125791   6.720   1.346   4.270  0.6482 -1.0390  0.5467
 8609TIP3    H225792   6.742   1.351   4.420 -0.8471 -0.1632  0.7564
 8610TIP3   OH225793   0.814   5.958   2.913 -0.2242 -0.5687 -0.1100
 8610TIP3    H125794   0.858   5.908   2.844 -1.0699 -0.7826 -0.5057
 8610TIP3    H225795   0.757   5.895   2.957 -1.5075  0.0733 -0.7883
 8611TIP3   OH225796   3.533   1.000   2.214  0.1695  0.5293 -0.4488
 8611TIP3    H125797   3.607   0.939   2.216  0.0435  0.3722 -0.5422
 8611TIP3    H225798   3.521   1.019   2.121 -0.9756 -0.7554 -0.5879
 8612TIP3   OH225799   4.030   1.804   1.635 -0.0840  0.3332 -0.2627
 8612TIP3    H125800   3.998   1.764   1.554 -1.9529  1.3254 -0.0713
 8612TIP3    H225801   4.104   1.749   1.661  1.1367  0.4976 -3.0574
 8613TIP3   OH225802   6.148   1.483   3.271  0.2379 -0.0656 -0.3879
 8613TIP3    H125803   6.188   1.446   3.350  0.4464  1.0497  0.0526
 8613TIP3    H225804   6.071   1.429   3.256 -1.3519  1.2870  2.1697
 8614TIP3   OH225805   6.631   2.091   1.621 -0.5870 -0.3104  0.2600
 8614TIP3    H125806   6.642   2.030   1.695  0.0424 -1.1972 -0.5415
 8614TIP3    H225807   6.646   2.037   1.543 -0.5176  0.7688 -0.4940
 8615TIP3   OH225808   4.384   5.309   3.791  0.0837 -0.0310 -0.0990
 8615TIP3    H125809   4.421   5.385   3.747 -1.3633 -0.2781 -1.8744
 8615TIP3    H225810   4.291   5.311   3.768 -0.5828 -0.6886  2.2756
 8616TIP3   OH225811   0.413   5.733   5.254  0.0661 -0.5065 -0.1637
 8616TIP3    H125812   0.371   5.774   5.179 -1.0525 -1.9629 -0.3785
 8616TIP3    H225813   0.352   5.749   5.327 -0.0940 -1.2651 -0.1247
 8617TIP3   OH225814   6.610   0.043   5.824 -0.1179  0.5497 -0.0048
 8617TIP3    H125815   6.589  -0.022   5.891  4.0859 -0.7057  0.3562
 8617TIP3    H225816   6.649   0.115   5.873  0.0439  1.0418 -0.8506
 8618TIP3   OH225817   5.573   0.648   2.878 -0.0234  0.0379  0.1444
 8618TIP3    H125818   5.542   0.700   2.952  1.8050  0.2216  0.8401
 8618TIP3    H225819   5.569   0.557   2.908 -1.5501 -0.1045 -0.4307
 8619TIP3   OH225820   0.350   5.814   2.920 -0.2213  0.6832  0.7118
 8619TIP3    H125821   0.440   5.797   2.895  0.1707  4.0116 -0.6983
 8619TIP3    H225822   0.354   5.836   3.013  0.4738  0.9607  0.6217
 8620TIP3   OH225823   3.229   5.007   5.625  0.0416 -0.2903  0.6216
 8620TIP3    H125824   3.180   5.034   5.547  0.2365  0.7330  0.8334
 8620TIP3    H225825   3.318   5.038   5.609  0.1284 -0.2530  1.1576
 8621TIP3   OH225826   5.847   5.335   5.878  0.0354  0.4173 -0.4052
 8621TIP3    H125827   5.891   5.321   5.794 -1.7119  1.1897 -1.5012
 8621TIP3    H225828   5.869   5.425   5.902  0.6000  0.1711  0.0295
 8622TIP3   OH225829   5.603   3.778   1.827  0.6364 -0.2003 -0.6578
 8622TIP3    H125830   5.655   3.853   1.796  0.6513  0.9667  1.9217
 8622TIP3    H225831   5.666   3.725   1.876 -0.4201  1.1829  2.4325
 8623TIP3   OH225832   1.661   5.182   5.806 -0.3213 -0.2822  0.4625
 8623TIP3    H125833   1.692   5.103   5.761  0.8948  1.0988 -1.2268
 8623TIP3    H225834   1.647   5.246   5.737  0.5903  1.6160  1.9322
 8624TIP3   OH225835   5.101   1.936   1.762  0.3966 -0.7476 -0.0552
 8624TIP3    H125836   5.083   1.867   1.697  0.1495 -1.1987  0.4872
 8624TIP3    H225837   5.107   1.890   1.845  2.3252 -0.3876  0.0527
 8625TIP3   OH225838   2.735   5.618   1.995  0.0923 -0.5873  0.6591
 8625TIP3    H125839   2.716   5.712   1.998  1.0086 -0.4089  2.1059
 8625TIP3    H225840   2.705   5.586   2.080  0.1329 -1.5355  0.3202
 8626TIP3   OH225841   5.475   6.446   2.508 -0.4149 -0.0466 -0.2557
 8626TIP3    H125842   5.402   6.474   2.563 -0.6551 -0.7567 -0.1910
 8626TIP3    H225843   5.438   6.440   2.420 -1.2232 -2.9625  0.1579
 8627TIP3   OH225844   1.606   5.528   2.974  0.1432 -0.6210 -0.2508
 8627TIP3    H125845   1.542   5.587   3.015 -0.5196 -0.8197 -0.9743
 8627TIP3    H225846   1.633   5.470   3.046 -0.0806 -0.1879  0.1923
 8628TIP3   OH225847   4.952   2.870   3.294 -0.0533  0.1601 -0.2615
 8628TIP3    H125848   4.970   2.872   3.388 -1.4725  0.5079  0.0413
 8628TIP3    H225849   4.983   2.785   3.264  1.9695  0.7095  0.1606
 8629TIP3   OH225850   4.458   1.294   3.825  0.5411  0.3899 -0.9050
 8629TIP3    H125851   4.525   1.228   3.841 -0.2821 -0.3697 -0.4503
 8629TIP3    H225852   4.443   1.334   3.911  0.5504  0.6832 -1.0406
 8630TIP3   OH225853   6.738   6.743   4.038  0.1993  0.5936 -0.4544
 8630TIP3    H125854   6.688   6.687   3.978 -2.4391  1.8044  0.4861
 8630TIP3    H225855   6.801   6.788   3.982  0.4460 -1.1248 -1.6606
 8631TIP3   OH225856   1.967   4.373   4.842 -1.1446 -0.9174  0.1294
 8631TIP3    H125857   1.999   4.286   4.866 -2.2153 -1.2112  0.5519
 8631TIP3    H225858   2.006   4.389   4.756 -2.6434 -2.7696 -0.9865
 8632TIP3   OH225859   1.297   5.406   3.430 -0.1956  1.0202  0.3000
 8632TIP3    H125860   1.384   5.381   3.401  0.2983  1.9391  0.9107
 8632TIP3    H225861   1.277   5.485   3.379  0.9879  3.0854  2.8062
 8633TIP3   OH225862   4.532   0.602   4.657 -0.5695  1.2903 -0.0727
 8633TIP3    H125863   4.593   0.532   4.634 -3.1793 -0.9105 -0.8754
 8633TIP3    H225864   4.565   0.679   4.611  2.1747  0.5521  0.4763
 8634TIP3   OH225865   0.402   4.557   4.996  0.7313  0.0985 -0.1575
 8634TIP3    H125866   0.439   4.473   5.023  0.0547 -0.2603 -0.3253
 8634TIP3    H225867   0.395   4.608   5.077 -0.4836 -0.6494  0.2208
 8635TIP3   OH225868   5.625   4.975   0.773 -0.1909  0.3273  0.4553
 8635TIP3    H125869   5.651   4.959   0.682 -2.6797  0.5195 -0.3780
 8635TIP3    H225870   5.702   4.954   0.825  1.6656  1.2376 -1.7614
 8636TIP3   OH225871   1.916   2.574   1.475 -0.1659  0.0051  0.6183
 8636TIP3    H125872   1.966   2.516   1.417  0.1048 -0.3765  1.2252
 8636TIP3    H225873   1.968   2.654   1.479  1.2508 -0.9372  2.4823
 8637TIP3   OH225874   2.932   0.462   1.327  0.1433 -0.0810 -0.0861
 8637TIP3    H125875   2.982   0.383   1.347  0.6578  0.3255  0.2332
 8637TIP3    H225876   2.881   0.438   1.250  1.2083 -0.3397 -0.7332
 8638TIP3   OH225877   5.924   3.868   4.560 -0.4950  0.3236 -0.2319
 8638TIP3    H125878   6.005   3.818   4.553 -1.0717 -0.5580 -0.7985
 8638TIP3    H225879   5.945   3.953   4.521 -0.1311 -0.2644 -1.3759
 8639TIP3   OH225880   4.356   0.687   0.401 -0.4975  0.3159 -0.2348
 8639TIP3    H125881   4.307   0.770   0.405 -1.2092 -0.0829 -0.5848
 8639TIP3    H225882   4.317   0.633   0.470  0.4297  0.5006  0.4690
 8640TIP3   OH225883   5.760   1.726   1.557 -0.0109  0.5151 -0.3774
 8640TIP3    H125884   5.778   1.702   1.648  1.3838  0.4972 -0.6397
 8640TIP3    H225885   5.700   1.800   1.563 -0.3526  0.1746  0.5445
 8641TIP3   OH225886   2.481   5.690   1.801  0.8502  0.4567 -0.7250
 8641TIP3    H125887   2.561   5.710   1.849  0.8195  0.3746 -0.6408
 8641TIP3    H225888   2.511   5.637   1.726  0.6879 -1.0150  0.2121
 8642TIP3   OH225889   3.787   6.421   0.241 -0.6545 -0.2875 -0.2902
 8642TIP3    H125890   3.709   6.395   0.193 -1.4837  3.3803 -1.2240
 8642TIP3    H225891   3.808   6.508   0.209  1.4752  0.5216  2.7868
 8643TIP3   OH225892   6.956   1.710   2.733  0.0999  0.3169  0.2534
 8643TIP3    H125893   6.882   1.703   2.794  0.1897 -0.0418  0.3236
 8643TIP3    H225894   7.024   1.754   2.783 -0.2329  1.0961  0.0330
 8644TIP3   OH225895   1.143   3.703   3.358  0.4457  0.4992  0.4025
 8644TIP3    H125896   1.238   3.706   3.361  0.4571  1.1966 -0.2994
 8644TIP3    H225897   1.123   3.614   3.328  0.8138 -0.1438  2.0169
 8645TIP3   OH225898   3.791   0.967   0.662 -0.4674 -0.1405 -0.1358
 8645TIP3    H125899   3.815   0.889   0.711 -0.2384  0.0634  0.0753
 8645TIP3    H225900   3.862   1.029   0.678 -0.9407  0.3219  0.1743
 8646TIP3   OH225901   0.112   3.712   5.242  0.1390  0.1300  0.1125
 8646TIP3    H125902   0.195   3.760   5.240  2.1553 -3.0855 -0.6020
 8646TIP3    H225903   0.138   3.621   5.255 -3.3499 -0.9905  0.0562
 8647TIP3   OH225904   7.174   1.812   2.891  0.1933  0.6400 -0.0383
 8647TIP3    H125905   7.195   1.783   2.979 -1.0806 -0.7821 -0.1668
 8647TIP3    H225906   7.158   1.906   2.900 -2.0805  0.1555  1.7143
 8648TIP3   OH225907   6.360   1.189   3.112  0.7869 -0.0409  0.6313
 8648TIP3    H125908   6.407   1.212   3.193  1.4400 -1.7577  0.7830
 8648TIP3    H225909   6.279   1.148   3.143 -0.5950  2.3388  0.3681
 8649TIP3   OH225910   1.582   0.447   4.083  0.0551 -0.6883 -0.1089
 8649TIP3    H125911   1.644   0.384   4.045 -0.7796 -0.9038 -1.1576
 8649TIP3    H225912   1.529   0.394   4.142 -1.0806 -1.1597 -1.4829
 8650TIP3   OH225913   5.026   3.129   3.237  0.3462  0.3769 -0.4931
 8650TIP3    H125914   5.037   3.128   3.332  1.7102 -0.7612 -0.6246
 8650TIP3    H225915   5.005   3.038   3.214  2.3980  0.0774 -1.4655
 8651TIP3   OH225916   2.574   0.931   3.337  0.5210 -0.7586 -0.1735
 8651TIP3    H125917   2.503   0.867   3.341 -0.3908  0.2697  0.9068
 8651TIP3    H225918   2.547   0.993   3.269  0.9884 -1.0256 -0.6133
 8652TIP3   OH225919   3.748   5.891   1.801 -0.1311  0.5930  0.4658
 8652TIP3    H125920   3.770   5.817   1.744 -1.1421  0.9704 -0.4436
 8652TIP3    H225921   3.826   5.903   1.855  0.5101 -0.3610 -0.2050
 8653TIP3   OH225922   0.210   0.401   2.019  0.1874 -0.2166  0.4276
 8653TIP3    H125923   0.255   0.341   1.959 -0.1899 -1.9882  1.8429
 8653TIP3    H225924   0.126   0.359   2.035 -1.1095  1.8922 -0.3524
 8654TIP3   OH225925   4.849   0.103   1.391 -0.0920 -0.2137 -0.2362
 8654TIP3    H125926   4.813   0.026   1.348 -0.6705  0.2983 -0.6894
 8654TIP3    H225927   4.789   0.174   1.368  0.0950  0.2569  0.6658
 8655TIP3   OH225928   6.133   1.577   3.604 -0.1410  0.1583  0.1342
 8655TIP3    H125929   6.172   1.644   3.661 -0.7436  0.0123  0.7317
 8655TIP3    H225930   6.203   1.514   3.590  0.0621  0.2745  0.6015
 8656TIP3   OH225931   7.020   3.604   0.138 -0.8019 -0.2108  0.1406
 8656TIP3    H125932   7.114   3.619   0.147 -0.6549  0.4051 -1.8870
 8656TIP3    H225933   7.003   3.523   0.186  0.4868  0.4161  1.7135
 8657TIP3   OH225934   6.044   2.577   3.560 -0.4323 -0.2693 -0.5415
 8657TIP3    H125935   5.963   2.614   3.595 -1.2044 -0.8063 -1.7154
 8657TIP3    H225936   6.107   2.649   3.567 -1.0885  0.2740  0.0407
 8658TIP3   OH225937   5.895   0.468   0.362  0.5710 -0.1412  0.3885
 8658TIP3    H125938   5.986   0.466   0.332  0.2494  0.1178 -0.6276
 8658TIP3    H225939   5.893   0.537   0.429  1.1676 -0.3176  0.5915
 8659TIP3   OH225940   6.504   0.962   5.560  0.0314  0.0494 -0.2245
 8659TIP3    H125941   6.506   0.884   5.616  1.2050 -0.6970 -1.2558
 8659TIP3    H225942   6.439   0.942   5.493  1.1700 -0.5548 -1.1704
 8660TIP3   OH225943   6.903   5.507   2.499  0.2930  0.1680 -0.9695
 8660TIP3    H125944   6.904   5.601   2.481  0.2982  0.7476  1.7237
 8660TIP3    H225945   6.838   5.496   2.568  1.9047 -1.4479  0.3889
 8661TIP3   OH225946   2.530   2.210   1.329 -0.3995 -0.6893 -0.8495
 8661TIP3    H125947   2.444   2.231   1.292 -0.3963 -0.3417 -0.6661
 8661TIP3    H225948   2.591   2.219   1.255 -0.2190  1.2191 -0.5133
 8662TIP3   OH225949   0.487   4.321   1.970  0.2731 -1.1276 -0.0015
 8662TIP3    H125950   0.494   4.226   1.966 -2.7157 -1.4555  0.1118
 8662TIP3    H225951   0.426   4.343   1.899  0.2289  0.6024  0.5333
 8663TIP3   OH225952   2.937   6.417   2.700 -0.1486 -0.1644  0.3732
 8663TIP3    H125953   2.875   6.353   2.735 -0.2049  0.2438  1.0398
 8663TIP3    H225954   2.883   6.477   2.649 -0.6022  1.1318  2.2482
 8664TIP3   OH225955   2.941   2.790   5.096  0.4340 -0.2256 -0.2970
 8664TIP3    H125956   3.033   2.772   5.113  0.4883  1.3089  1.1709
 8664TIP3    H225957   2.934   2.885   5.096 -1.2461 -0.3180  0.1536
 8665TIP3   OH225958   3.294   5.737   5.374 -0.0843 -0.0977 -0.2873
 8665TIP3    H125959   3.340   5.653   5.382  0.9068  0.4484 -0.1024
 8665TIP3    H225960   3.324   5.773   5.291 -1.4048 -0.4396 -0.9330
 8666TIP3   OH225961   5.761   4.303   4.297 -0.3370 -0.4829 -0.2104
 8666TIP3    H125962   5.692   4.330   4.238 -0.6140  0.9666  0.7261
 8666TIP3    H225963   5.765   4.372   4.363  1.2226 -1.1098  0.4090
 8667TIP3   OH225964   5.190   1.346   5.806 -0.2360  0.2713  0.5241
 8667TIP3    H125965   5.167   1.377   5.718  0.7957  1.8931  0.7700
 8667TIP3    H225966   5.128   1.392   5.863  2.0613  3.0328  1.0022
 8668TIP3   OH225967   6.950   3.596   2.092  0.5276 -0.1502  0.6755
 8668TIP3    H125968   7.024   3.612   2.150  1.0715  1.0668 -0.3139
 8668TIP3    H225969   6.986   3.539   2.023 -0.2137 -1.9248  1.6922
 8669TIP3   OH225970   4.858   2.895   1.957  0.3013  0.6108 -0.1788
 8669TIP3    H125971   4.912   2.884   1.879 -0.6081 -1.1900 -0.6010
 8669TIP3    H225972   4.792   2.960   1.933 -0.6277 -0.7015 -1.3204
 8670TIP3   OH225973   3.923   0.585   1.714  0.6531  0.0870  0.2747
 8670TIP3    H125974   3.917   0.629   1.629 -0.8287  0.7724  0.7052
 8670TIP3    H225975   3.910   0.492   1.693  1.6157  0.0833 -0.3824
 8671TIP3   OH225976   3.821   0.440   3.227 -0.2828  0.1512 -0.3652
 8671TIP3    H125977   3.823   0.529   3.190  0.5025 -0.3505 -1.6080
 8671TIP3    H225978   3.731   0.428   3.257 -0.6121  1.0641 -0.9513
 8672TIP3   OH225979   5.531   4.311   4.122 -0.0199 -0.2200 -0.4071
 8672TIP3    H125980   5.557   4.221   4.106  1.8484  0.6763 -2.9671
 8672TIP3    H225981   5.511   4.346   4.036 -0.7153  1.8223  0.5264
 8673TIP3   OH225982   5.546   1.069   1.697  0.3253 -0.0271 -0.4950
 8673TIP3    H125983   5.595   1.141   1.657  0.3144 -0.2286 -0.8774
 8673TIP3    H225984   5.603   0.993   1.686  0.5393  0.0095  0.3194
 8674TIP3   OH225985   2.955   5.857   4.583  0.2776 -0.4436  0.3525
 8674TIP3    H125986   2.935   5.949   4.568 -0.4092 -0.0660  2.9696
 8674TIP3    H225987   2.870   5.814   4.581  0.4752 -0.8278  0.2151
 8675TIP3   OH225988   3.493   5.675   5.814  0.0157  0.3955  0.3746
 8675TIP3    H125989   3.490   5.701   5.906  0.6177  1.2422  0.1607
 8675TIP3    H225990   3.582   5.697   5.786 -0.1440  0.0772 -0.3894
 8676TIP3   OH225991   0.314   3.855   0.519  1.0217  0.2894  0.7922
 8676TIP3    H125992   0.231   3.813   0.540  0.0114  1.3080 -0.9103
 8676TIP3    H225993   0.368   3.842   0.597 -0.5854 -0.7347  1.7936
 8677TIP3   OH225994   1.454  -0.017   5.273  0.5170  0.1808  0.5740
 8677TIP3    H125995   1.441   0.074   5.301  1.2133  0.2715  0.6284
 8677TIP3    H225996   1.546  -0.021   5.248  0.4943 -0.5223  0.5891
 8678TIP3   OH225997   5.752   5.159   1.008  0.1052 -0.8271 -0.3320
 8678TIP3    H125998   5.839   5.119   1.016  0.1509 -0.6239  0.2689
 8678TIP3    H225999   5.719   5.128   0.924  0.7102 -1.0041 -0.5108
 8679TIP3   OH226000   4.284   5.771   5.347 -0.0607 -0.2416 -0.6694
 8679TIP3    H126001   4.315   5.713   5.417 -0.2049  0.2451 -0.1976
 8679TIP3    H226002   4.338   5.749   5.272  0.9187  0.0624 -0.0672
 8680TIP3   OH226003   4.339   2.306   5.169  0.6936 -0.0581 -0.5753
 8680TIP3    H126004   4.394   2.306   5.248  1.9425 -1.4136 -1.3980
 8680TIP3    H226005   4.321   2.399   5.153  1.6948  0.3424  0.4290
 8681TIP3   OH226006   3.199   2.958   3.120  0.0676 -0.4209  0.1300
 8681TIP3    H126007   3.160   2.993   3.200  2.6446 -1.5726  2.0567
 8681TIP3    H226008   3.230   2.871   3.145  2.6351 -0.1112 -1.5294
 8682TIP3   OH226009   3.825   2.737   3.913  0.3519 -0.2254  0.0749
 8682TIP3    H126010   3.777   2.709   3.990  1.9379 -0.2080  1.1117
 8682TIP3    H226011   3.834   2.658   3.860  1.4711 -0.8618  1.1573
 8683TIP3   OH226012   6.622   3.346   5.573  0.4650 -0.6010 -0.2057
 8683TIP3    H126013   6.611   3.315   5.663 -0.0621  0.3683  0.0875
 8683TIP3    H226014   6.715   3.335   5.555  0.4512 -1.4561  0.2062
 8684TIP3   OH226015   5.263   1.768   1.241  0.7540 -0.6397  0.2464
 8684TIP3    H126016   5.306   1.748   1.158  3.6073  0.2873  1.3573
 8684TIP3    H226017   5.204   1.840   1.221  0.5965 -1.1371 -1.1678
 8685TIP3   OH226018   3.694   2.720   3.144 -0.1361 -0.8048 -0.0825
 8685TIP3    H126019   3.758   2.671   3.195 -1.0176 -0.6154  1.2395
 8685TIP3    H226020   3.660   2.786   3.205  1.8116  2.2913 -2.0513
 8686TIP3   OH226021   6.437   5.538   0.097  0.5166 -0.1105 -0.1468
 8686TIP3    H126022   6.460   5.506   0.185  1.9157  0.9264 -0.1012
 8686TIP3    H226023   6.383   5.615   0.113  1.0990  0.3072 -0.1894
 8687TIP3   OH226024   2.138   4.690   5.001 -0.3411 -0.2532 -0.3739
 8687TIP3    H126025   2.055   4.699   5.048 -0.4241 -0.1482 -0.5410
 8687TIP3    H226026   2.174   4.607   5.032 -0.3532 -0.1384 -0.0571
 8688TIP3   OH226027   6.802   5.011   5.652 -0.1441 -0.1277  0.3091
 8688TIP3    H126028   6.805   5.005   5.556  0.0813  1.4130  0.1915
 8688TIP3    H226029   6.893   5.025   5.678 -0.3618  0.7374  0.6305
 8689TIP3   OH226030   1.409   6.615   1.766 -0.5384  0.0081  0.5895
 8689TIP3    H126031   1.475   6.560   1.724 -0.0854  0.1023  1.1702
 8689TIP3    H226032   1.434   6.618   1.858  0.2830  2.3152  0.3685
 8690TIP3   OH226033   4.286   3.442   1.854 -0.0740  0.4903 -0.1655
 8690TIP3    H126034   4.378   3.463   1.871  1.1754 -4.4542  0.6558
 8690TIP3    H226035   4.275   3.456   1.760  2.5644 -1.5955 -0.9151
 8691TIP3   OH226036   6.493   1.749   5.428  0.3716 -0.8252 -0.0985
 8691TIP3    H126037   6.438   1.672   5.438  0.3334 -0.6410  1.2827
 8691TIP3    H226038   6.496   1.764   5.334 -1.4714 -1.1861 -0.2627
 8692TIP3   OH226039   3.119   3.578   4.632 -0.9139  0.2319  0.0606
 8692TIP3    H126040   3.100   3.559   4.540 -1.5638  1.6735 -0.1286
 8692TIP3    H226041   3.141   3.493   4.670  0.1675 -0.2964 -1.6040
 8693TIP3   OH226042   3.637   3.498   0.814  0.2052 -0.4838  0.1500
 8693TIP3    H126043   3.584   3.451   0.878 -0.5518  0.5738  0.3254
 8693TIP3    H226044   3.674   3.429   0.759 -1.9993 -1.2632 -0.4891
 8694TIP3   OH226045   4.638   6.535   2.365  0.5748 -0.1450 -0.2961
 8694TIP3    H126046   4.568   6.489   2.410  0.0102 -0.0745 -1.0828
 8694TIP3    H226047   4.600   6.560   2.281  1.0689  1.2244 -0.1324
 8695TIP3   OH226048   4.153   6.458   5.150 -0.1045  0.2367  0.5203
 8695TIP3    H126049   4.210   6.500   5.214  1.7153 -1.1119 -0.1155
 8695TIP3    H226050   4.173   6.365   5.159 -0.0815 -0.0204 -1.7168
 8696TIP3   OH226051   5.349   2.909   5.341 -0.2137  0.1401 -0.7007
 8696TIP3    H126052   5.318   2.856   5.415  1.5126  0.1619  0.0938
 8696TIP3    H226053   5.345   2.850   5.266  1.0759 -0.9748  0.0509
 8697TIP3   OH226054   6.956   4.333   0.032  0.1953 -0.3090 -0.5850
 8697TIP3    H126055   6.865   4.312   0.052  0.6366 -0.6102  1.3429
 8697TIP3    H226056   7.004   4.251   0.047  1.0988  0.4597  0.9768
 8698TIP3   OH226057   5.913   1.388   0.763 -0.0378 -0.3445 -0.4953
 8698TIP3    H126058   5.933   1.479   0.739 -2.4695  0.1941 -0.6833
 8698TIP3    H226059   5.943   1.380   0.854 -1.0191  1.1010 -0.0034
 8699TIP3   OH226060   1.128   1.820   2.351  0.2865  0.1087 -0.0746
 8699TIP3    H126061   1.201   1.759   2.356 -0.6889 -0.9935  1.4015
 8699TIP3    H226062   1.111   1.845   2.442  0.0306  1.8536 -0.5571
 8700TIP3   OH226063   1.851   5.661   2.960  0.0204 -0.3695  0.2851
 8700TIP3    H126064   1.766   5.616   2.956  0.1694 -0.6732  0.4694
 8700TIP3    H226065   1.913   5.597   2.926 -0.0921  0.5800 -1.9152
 8701TIP3   OH226066   3.717   5.631   2.217  0.3206  0.0135 -0.6458
 8701TIP3    H126067   3.790   5.671   2.264  0.1865  0.2309 -0.6199
 8701TIP3    H226068   3.730   5.657   2.126  0.4283 -0.1785 -0.6853
 8702TIP3   OH226069   4.150   0.485   4.041  0.0098 -0.1025 -0.0458
 8702TIP3    H126070   4.066   0.494   3.997 -0.9200 -0.5513  1.5692
 8702TIP3    H226071   4.195   0.416   3.992  0.2569  1.4012 -2.0668
 8703TIP3   OH226072   0.448   5.812   4.806 -0.1455 -0.5601 -0.5254
 8703TIP3    H126073   0.446   5.766   4.723 -0.1570 -0.5390 -0.5365
 8703TIP3    H226074   0.518   5.878   4.796 -0.0957 -0.6077 -0.4922
 8704TIP3   OH226075   1.404   2.354   4.435 -0.3599 -0.3869 -0.9251
 8704TIP3    H126076   1.479   2.393   4.390 -1.1115  2.7275  0.2131
 8704TIP3    H226077   1.442   2.283   4.487  1.8220  0.9216 -0.5685
 8705TIP3   OH226078   2.538   3.989   5.774  0.0917 -0.7786  0.0519
 8705TIP3    H126079   2.457   3.941   5.791 -0.2450 -0.4038 -0.4673
 8705TIP3    H226080   2.598   3.961   5.843 -0.2947 -1.4886  0.1045
 8706TIP3   OH226081   3.479   5.497   3.125 -0.4473 -0.2950  0.2300
 8706TIP3    H126082   3.492   5.456   3.039 -0.2433 -1.3355  0.7487
 8706TIP3    H226083   3.440   5.582   3.104  0.8546  0.0560 -0.9809
 8707TIP3   OH226084   5.388   2.991   0.251  0.2326  0.3481 -0.0124
 8707TIP3    H126085   5.391   3.021   0.342  3.3751 -0.6561  0.3194
 8707TIP3    H226086   5.396   2.896   0.257  1.9849  0.3702 -1.3578
 8708TIP3   OH226087   4.608   6.095   4.694  0.0302 -0.7213  0.1421
 8708TIP3    H126088   4.686   6.041   4.701  0.1518 -0.5799 -0.1190
 8708TIP3    H226089   4.575   6.102   4.783  1.5350  1.0481  0.6038
 8709TIP3   OH226090   2.522   6.597   2.073  0.1366  0.1782  0.0396
 8709TIP3    H126091   2.551   6.674   2.122 -0.5232 -0.5431  1.6427
 8709TIP3    H226092   2.440   6.625   2.031  1.1617  1.0781 -1.4640
 8710TIP3   OH226093   5.025   0.784   0.785  0.0063 -0.2137 -0.1430
 8710TIP3    H126094   5.108   0.757   0.824 -0.5905 -2.1105 -0.1138
 8710TIP3    H226095   5.020   0.736   0.703 -0.6165  0.6646 -0.6337
 8711TIP3   OH226096   6.824   6.061   0.991  0.2959  0.0475 -0.5838
 8711TIP3    H126097   6.902   6.077   0.938 -0.0397  1.1209 -0.7656
 8711TIP3    H226098   6.771   6.140   0.982  0.1930  0.2386  1.3123
 8712TIP3   OH226099   0.311   5.423   0.863  0.2389 -0.7004 -0.6296
 8712TIP3    H126100   0.369   5.465   0.800 -0.9877  2.0406 -0.1275
 8712TIP3    H226101   0.344   5.453   0.948 -1.7790  0.9225 -0.3376
 8713TIP3   OH226102   6.854   4.437   4.647  0.4534 -0.0500  0.2901
 8713TIP3    H126103   6.844   4.503   4.715 -0.8193  0.4515 -0.3540
 8713TIP3    H226104   6.830   4.355   4.690 -1.6330  0.4382  0.1562
 8714TIP3   OH226105   6.421   0.321   3.830  0.4450  0.4231 -0.4538
 8714TIP3    H126106   6.440   0.229   3.848  0.4579  0.6722  0.9412
 8714TIP3    H226107   6.431   0.330   3.735  0.1355 -1.0734 -0.6446
 8715TIP3   OH226108   0.495   3.258   4.509  0.8485 -0.1545  1.1374
 8715TIP3    H126109   0.563   3.315   4.473  0.0374  1.3551  1.8758
 8715TIP3    H226110   0.413   3.303   4.489 -0.0026 -2.1313 -0.0714
 8716TIP3   OH226111   5.244   4.123   1.707  0.2295  0.2321 -0.1639
 8716TIP3    H126112   5.285   4.202   1.743 -0.0936  0.0655  0.5829
 8716TIP3    H226113   5.165   4.111   1.759 -0.1755 -0.1061 -0.8343
 8717TIP3   OH226114   5.051   4.948   5.481  0.3488 -0.0110  0.3835
 8717TIP3    H126115   5.001   4.956   5.562 -1.4322  0.2189 -0.6741
 8717TIP3    H226116   5.002   4.884   5.429  1.6449 -0.4148 -0.3815
 8718TIP3   OH226117   4.582   2.459   2.041  0.2000 -0.0151 -0.5505
 8718TIP3    H126118   4.566   2.513   2.118  1.2393 -0.1959 -0.1941
 8718TIP3    H226119   4.560   2.516   1.967 -1.4869 -0.0668 -0.1403
 8719TIP3   OH226120   3.174   5.287   1.906  0.8056  0.4646 -0.2199
 8719TIP3    H126121   3.211   5.220   1.848  1.8611  1.7814 -1.1273
 8719TIP3    H226122   3.089   5.308   1.869 -0.7276 -2.1030  1.4966
 8720TIP3   OH226123   0.851   1.042   0.046  0.6520 -0.1145 -0.0307
 8720TIP3    H126124   0.905   0.970   0.078 -0.5759 -1.2928 -0.5079
 8720TIP3    H226125   0.849   1.105   0.118  0.8141 -1.0830  0.8426
 8721TIP3   OH226126   3.293   1.923   0.593 -0.5595  0.0441  0.0933
 8721TIP3    H126127   3.382   1.904   0.623 -0.0174 -0.7150 -1.8242
 8721TIP3    H226128   3.304   1.959   0.506 -2.1765 -2.8122 -1.4634
 8722TIP3   OH226129   1.560   3.626   1.915  0.0134  0.0753  0.8896
 8722TIP3    H126130   1.543   3.655   1.825  2.3736 -1.5749 -0.2129
 8722TIP3    H226131   1.512   3.544   1.923  0.3477 -0.1271  0.8611
 8723TIP3   OH226132   1.693   0.855   0.661 -0.1205 -0.5970  0.0239
 8723TIP3    H126133   1.629   0.817   0.721  0.3375 -0.1633  0.8035
 8723TIP3    H226134   1.691   0.798   0.584 -2.4281  0.1638 -0.5796
 8724TIP3   OH226135   6.715   4.264   0.115 -0.4926 -0.1943 -0.5703
 8724TIP3    H126136   6.623   4.240   0.125 -0.7736  1.4074  1.3737
 8724TIP3    H226137   6.718   4.357   0.140  1.7850 -0.4293  0.2334
 8725TIP3   OH226138   2.784   0.418   1.088 -0.0076 -0.3345 -0.3667
 8725TIP3    H126139   2.762   0.410   0.995 -0.8844 -0.5230 -0.1530
 8725TIP3    H226140   2.788   0.328   1.120 -1.0842 -0.2466  0.0712
 8726TIP3   OH226141   1.225   5.071   3.185  0.1018 -0.4265 -0.6456
 8726TIP3    H126142   1.251   5.041   3.272  0.5783  1.8656  0.0796
 8726TIP3    H226143   1.247   4.999   3.126  1.5851 -1.2782  0.8801
 8727TIP3   OH226144   0.296   3.899   4.577 -0.1896  0.8013 -0.2495
 8727TIP3    H126145   0.351   3.822   4.564  0.4652  1.3620 -0.9135
 8727TIP3    H226146   0.259   3.917   4.491  0.8566  2.1024 -0.4474
 8728TIP3   OH226147   1.476   4.174   1.083  0.5056 -0.2099 -0.0557
 8728TIP3    H126148   1.565   4.209   1.078  0.1136  0.7586 -0.4917
 8728TIP3    H226149   1.471   4.133   1.169  1.6618 -1.0961 -0.3989
 8729TIP3   OH226150   0.133   3.569   2.000  0.4396 -0.0367 -0.0127
 8729TIP3    H126151   0.084   3.488   2.015  1.0126 -0.3331  0.2991
 8729TIP3    H226152   0.067   3.633   1.976 -0.1700 -0.2903  0.9493
 8730TIP3   OH226153   2.895   6.237   0.352 -0.1039  0.0540  0.5599
 8730TIP3    H126154   2.948   6.281   0.419  1.2686 -1.8389  0.7831
 8730TIP3    H226155   2.925   6.146   0.353 -1.4844 -0.4797 -1.2297
 8731TIP3   OH226156   6.062   6.259   3.014  0.5315  0.1573  0.4032
 8731TIP3    H126157   6.030   6.347   2.996 -1.8670 -0.8158 -0.6045
 8731TIP3    H226158   6.138   6.248   2.957  0.3967  1.3039 -0.0136
 8732TIP3   OH226159   4.186   6.179   5.499  0.2802 -0.1801  0.6985
 8732TIP3    H126160   4.105   6.199   5.452  0.6433 -0.3138  0.0046
 8732TIP3    H226161   4.210   6.261   5.542 -0.5807 -0.3145  1.4841
 8733TIP3   OH226162   6.951   0.328   3.685  0.1979  0.3263 -0.3480
 8733TIP3    H126163   6.969   0.235   3.700 -0.0222  0.2484 -0.5508
 8733TIP3    H226164   7.022   0.358   3.630  0.3853  0.3296 -0.1044
 8734TIP3   OH226165   5.111   4.879   4.419 -0.3896  0.2757 -0.4270
 8734TIP3    H126166   5.155   4.808   4.372  0.5946  0.8161 -0.3568
 8734TIP3    H226167   5.174   4.906   4.486  0.4611  2.9873 -2.1370
 8735TIP3   OH226168   0.689   4.770   0.313 -0.2169  0.2988  1.1775
 8735TIP3    H126169   0.601   4.774   0.276  0.6826 -1.3857 -1.4013
 8735TIP3    H226170   0.737   4.841   0.270  0.2049 -0.1323  0.9189
 8736TIP3   OH226171   4.475   0.404   1.680 -0.5263 -0.1661  0.4246
 8736TIP3    H126172   4.416   0.459   1.628  1.8543  0.2029 -2.1329
 8736TIP3    H226173   4.541   0.465   1.714 -0.4928 -0.8156  1.5508
 8737TIP3   OH226174   6.856   1.676   4.242 -0.5447 -0.0147  0.5767
 8737TIP3    H126175   6.793   1.687   4.313 -0.3506 -0.5644  0.8439
 8737TIP3    H226176   6.928   1.627   4.282 -0.1728  0.1782  0.1468
 8738TIP3   OH226177   0.055   5.577   5.265  0.4715  0.1308 -0.4593
 8738TIP3    H126178   0.101   5.584   5.181 -0.6944  0.3414 -1.1090
 8738TIP3    H226179   0.066   5.486   5.292  2.1943  0.4407 -0.0349
 8739TIP3   OH226180   0.076   4.619   5.552  0.0574  0.3054  0.0806
 8739TIP3    H126181  -0.017   4.598   5.550  0.0002  0.4872  0.7007
 8739TIP3    H226182   0.114   4.555   5.612  0.3081  0.3161 -0.0657
 8740TIP3   OH226183   2.087   2.211   3.775 -0.2375 -0.1705 -0.7449
 8740TIP3    H126184   2.024   2.243   3.710  0.3197  1.6656 -0.4488
 8740TIP3    H226185   2.139   2.288   3.797  1.0362 -1.2708  0.2460
 8741TIP3   OH226186   0.387   5.798   2.433  0.2043  0.1521  0.4488
 8741TIP3    H126187   0.325   5.786   2.361 -0.8288 -2.8368  1.6427
 8741TIP3    H226188   0.343   5.858   2.493 -1.2477 -1.2177  0.8418
 8742TIP3   OH226189   4.480   2.429   2.430  0.5960 -0.4896  0.5411
 8742TIP3    H126190   4.458   2.488   2.359  2.7705 -0.1015  0.1319
 8742TIP3    H226191   4.410   2.363   2.429  0.7669 -0.7319 -2.2239
 8743TIP3   OH226192   5.065   6.346   0.601  0.1879 -0.1823 -0.3060
 8743TIP3    H126193   5.122   6.277   0.636 -1.9224 -2.0380 -0.3113
 8743TIP3    H226194   5.018   6.304   0.529  0.4615  1.9718 -1.8368
 8744TIP3   OH226195   3.614   6.426   1.505  0.5796 -0.2036  0.1021
 8744TIP3    H126196   3.554   6.365   1.462 -0.0231  1.0105 -0.8355
 8744TIP3    H226197   3.689   6.432   1.446 -0.4327  1.7914 -1.0769
 8745TIP3   OH226198   4.742   2.480   5.658  0.3128  0.1537 -0.5729
 8745TIP3    H126199   4.678   2.545   5.627  1.0125  1.6050  0.8504
 8745TIP3    H226200   4.691   2.421   5.714  0.0635  0.8858 -0.0075
 8746TIP3   OH226201   3.374   0.278   3.609 -0.4569 -0.0286  0.5659
 8746TIP3    H126202   3.290   0.320   3.626  1.8684  6.2237 -0.8559
 8746TIP3    H226203   3.362   0.234   3.524 -2.0906  1.5953 -0.1030
 8747TIP3   OH226204   2.956   5.882   3.512 -0.7691  0.2656 -0.0281
 8747TIP3    H126205   2.965   5.961   3.565 -1.4037 -0.0297  0.5202
 8747TIP3    H226206   2.866   5.853   3.526 -1.2774  0.7113 -2.0179
 8748TIP3   OH226207   6.854   4.824   2.552  0.4207 -0.6693 -0.1634
 8748TIP3    H126208   6.884   4.793   2.467  0.8644 -0.6418 -0.0194
 8748TIP3    H226209   6.764   4.790   2.560  0.1055 -0.0347 -0.9626
 8749TIP3   OH226210   1.929   1.295   5.503 -0.3011  0.2658 -0.1837
 8749TIP3    H126211   1.894   1.357   5.438  1.8167 -0.2374 -1.9176
 8749TIP3    H226212   1.889   1.211   5.479 -1.5787  0.5173  0.9005
 8750TIP3   OH226213   6.717   4.667   1.633  0.2099 -0.4506 -0.6690
 8750TIP3    H126214   6.723   4.742   1.574  1.3924 -0.4515 -0.5717
 8750TIP3    H226215   6.808   4.647   1.656 -0.1947 -0.6881  0.8481
 8751TIP3   OH226216   4.959   5.668   1.755 -0.3078 -0.1707  0.0898
 8751TIP3    H126217   4.890   5.628   1.808 -0.8302 -0.4891 -0.8080
 8751TIP3    H226218   4.937   5.644   1.665 -1.1221  2.8484 -0.6252
 8752TIP3   OH226219   5.674   1.554   3.569  0.0035 -0.4497  0.3174
 8752TIP3    H126220   5.760   1.521   3.540 -0.5322 -1.1382 -0.5512
 8752TIP3    H226221   5.668   1.641   3.529 -1.0840 -1.7029 -2.5794
 8753TIP3   OH226222   3.675   1.023   2.766 -0.0738 -0.3505 -0.0895
 8753TIP3    H126223   3.770   1.010   2.770 -0.2652 -1.8945  0.1435
 8753TIP3    H226224   3.663   1.116   2.784  1.3401 -0.3133  0.8784
 8754TIP3   OH226225   4.582   0.197   0.920  0.3695  0.1669 -0.2900
 8754TIP3    H126226   4.508   0.236   0.968  0.6426  0.7811 -0.3614
 8754TIP3    H226227   4.618   0.132   0.980 -1.9491 -2.2059 -1.2719
 8755TIP3   OH226228   4.184   2.991   4.098  0.3581  0.0164  0.0328
 8755TIP3    H126229   4.201   3.053   4.169 -0.4069  0.5565 -0.2418
 8755TIP3    H226230   4.240   3.022   4.026 -0.7779  1.0326 -0.4494
 8756TIP3   OH226231   4.863   1.361   5.397  0.1932  0.0363 -0.1824
 8756TIP3    H126232   4.931   1.380   5.332 -1.1044  0.2139 -1.5474
 8756TIP3    H226233   4.781   1.384   5.353 -0.6996  0.8628  1.7854
 8757TIP3   OH226234   3.225   0.867   1.803 -0.0072 -0.1772  0.1685
 8757TIP3    H126235   3.204   0.867   1.710 -1.0713 -0.5805  0.3927
 8757TIP3    H226236   3.298   0.805   1.811  1.6237  1.5575 -0.6881
 8758TIP3   OH226237   2.343   6.584   2.322  0.1229  0.0491  0.3585
 8758TIP3    H126238   2.251   6.608   2.317  0.5557  1.5157 -1.6201
 8758TIP3    H226239   2.388   6.649   2.268  1.8457 -2.9787 -2.2244
 8759TIP3   OH226240   2.571   5.969   0.342  0.3359  0.3538  0.2255
 8759TIP3    H126241   2.590   6.009   0.427 -1.4424 -0.8008  1.2552
 8759TIP3    H226242   2.568   5.875   0.361  1.5069 -0.0544 -1.4861
 8760TIP3   OH226243   1.765   6.189   1.487  0.4594  0.1681  0.2259
 8760TIP3    H126244   1.705   6.240   1.431  0.6841  0.0570 -0.1186
 8760TIP3    H226245   1.837   6.249   1.506  1.5315 -0.4992 -1.5044
 8761TIP3   OH226246   3.624   6.317   1.791 -0.3583  0.0881  0.7702
 8761TIP3    H126247   3.685   6.255   1.751 -0.9048 -0.8982  1.4153
 8761TIP3    H226248   3.600   6.377   1.720  0.5394 -0.1564  0.2532
 8762TIP3   OH226249   0.525   4.899   3.060 -0.0884  0.2417  0.1361
 8762TIP3    H126250   0.431   4.885   3.061 -0.2341  1.0443 -0.4765
 8762TIP3    H226251   0.548   4.902   2.967  0.4237  0.7262  0.2686
 8763TIP3   OH226252   4.832   4.571   2.035 -0.0291 -0.2413  0.3506
 8763TIP3    H126253   4.771   4.518   2.087  0.6982  0.1283  1.6158
 8763TIP3    H226254   4.867   4.510   1.970 -1.5960 -0.5006 -0.3079
 8764TIP3   OH226255   1.983   1.903   2.088 -0.0898 -0.3817 -0.4377
 8764TIP3    H126256   2.000   1.989   2.048 -0.3521 -0.1006  0.0398
 8764TIP3    H226257   2.060   1.886   2.141 -0.4073 -0.0443  0.1367
 8765TIP3   OH226258   6.931   2.705   1.374 -0.5378  0.0329 -0.0278
 8765TIP3    H126259   6.951   2.614   1.398 -0.5812 -0.1673 -0.7429
 8765TIP3    H226260   6.862   2.731   1.435 -1.7325 -0.9783 -0.8893
 8766TIP3   OH226261   6.309   1.384   3.468  0.1916 -0.4343  0.5967
 8766TIP3    H126262   6.343   1.296   3.455  0.4034 -0.1128 -1.2938
 8766TIP3    H226263   6.383   1.442   3.446 -0.1398  0.2303  1.1808
 8767TIP3   OH226264   4.826   2.934   5.780 -0.2890 -0.0825  0.4925
 8767TIP3    H126265   4.786   2.981   5.852 -1.1700  0.6565 -0.4458
 8767TIP3    H226266   4.753   2.912   5.722  0.5347  0.4858 -0.8069
 8768TIP3   OH226267   1.770   1.022   2.840 -0.1841 -1.0882 -0.2193
 8768TIP3    H126268   1.819   1.104   2.847 -2.4074  0.2799  0.1584
 8768TIP3    H226269   1.705   1.026   2.910 -1.5931 -2.2581 -1.3882
 8769TIP3   OH226270   0.748   1.385   5.641  0.2489 -0.2546  0.3961
 8769TIP3    H126271   0.821   1.426   5.595 -1.2698  0.2990 -1.6814
 8769TIP3    H226272   0.746   1.295   5.609 -0.3049 -0.1103  0.0140
 8770TIP3   OH226273   7.033   2.801   0.427  0.1381  0.2277 -0.1213
 8770TIP3    H126274   7.083   2.741   0.372 -0.1713  0.8261 -1.0832
 8770TIP3    H226275   7.074   2.795   0.513  1.1130 -0.1627 -0.5982
 8771TIP3   OH226276   0.805   5.550   4.329  0.3646  0.3061 -0.3862
 8771TIP3    H126277   0.829   5.519   4.416 -2.4089  1.0285  0.7583
 8771TIP3    H226278   0.875   5.612   4.305  0.8908  0.5399  1.5895
 8772TIP3   OH226279   5.881   1.562   5.259  0.5543 -0.5494  0.7729
 8772TIP3    H126280   5.856   1.601   5.176  1.2615 -0.9133  0.3796
 8772TIP3    H226281   5.801   1.521   5.291 -0.3256  1.5746  1.4314
 8773TIP3   OH226282   6.705   2.688   0.949  0.7425 -0.1467  0.5744
 8773TIP3    H126283   6.739   2.638   1.023  2.9387  0.7088  0.2187
 8773TIP3    H226284   6.770   2.756   0.934  0.3568 -0.2761 -2.1301
 8774TIP3   OH226285   0.363   6.035   4.100  0.3479  0.5201  0.0438
 8774TIP3    H126286   0.390   5.945   4.118  0.2269  0.7106  1.2221
 8774TIP3    H226287   0.267   6.032   4.101  0.3369  0.8880  1.3268
 8775TIP3   OH226288   6.186   2.567   5.148  0.0948  0.1655 -0.6682
 8775TIP3    H126289   6.238   2.590   5.225 -0.3729  2.5232 -0.9729
 8775TIP3    H226290   6.149   2.481   5.169  1.3618 -0.0389  0.9733
 8776TIP3   OH226291   4.462   0.854   1.844  0.1181 -0.3568  0.0271
 8776TIP3    H126292   4.503   0.933   1.878 -0.8805 -0.5342  1.7811
 8776TIP3    H226293   4.404   0.825   1.914 -2.2698 -0.6471 -1.9122
 8777TIP3   OH226294   0.748   5.228   2.250  0.0453  0.2620 -0.3736
 8777TIP3    H126295   0.768   5.322   2.257  0.6344  0.0150  2.0445
 8777TIP3    H226296   0.700   5.207   2.330  1.5494 -1.8809  0.0477
 8778TIP3   OH226297   6.398   6.466   5.110  0.6608  0.1461  0.9927
 8778TIP3    H126298   6.308   6.459   5.141 -0.1423 -1.1570 -1.4070
 8778TIP3    H226299   6.434   6.378   5.118  0.6808 -0.0513 -0.9090
 8779TIP3   OH226300   0.061   1.341   4.604 -0.1675 -0.3230  0.3049
 8779TIP3    H126301   0.002   1.329   4.679 -1.6497 -0.2517 -0.8098
 8779TIP3    H226302   0.029   1.420   4.561  0.6242 -0.3999 -0.4454
 8780TIP3   OH226303   3.664   3.020   1.103 -0.5277 -0.4043 -0.0532
 8780TIP3    H126304   3.736   3.081   1.119 -1.0187  0.0749  0.3584
 8780TIP3    H226305   3.619   3.056   1.025 -1.7566  0.6792  1.0913
 8781TIP3   OH226306   4.349   2.753   3.515 -0.5354 -0.0327  0.0592
 8781TIP3    H126307   4.413   2.692   3.554 -1.1945 -0.9439 -0.2428
 8781TIP3    H226308   4.365   2.747   3.421 -0.2573  0.6675  0.0604
 8782TIP3   OH226309   5.196   4.002   2.529  0.1727  0.2020 -0.0419
 8782TIP3    H126310   5.105   3.991   2.557 -0.1772  1.2670 -0.7225
 8782TIP3    H226311   5.198   4.087   2.486  1.4106  0.0109 -0.3955
 8783TIP3   OH226312   5.727   5.761   2.347  0.8712 -0.5967  0.3384
 8783TIP3    H126313   5.663   5.770   2.277 -0.2807  0.0148  1.4316
 8783TIP3    H226314   5.779   5.685   2.322  0.0172 -0.8359 -0.8002
 8784TIP3   OH226315   3.829   2.371   4.832 -0.1986  0.2558  0.4109
 8784TIP3    H126316   3.854   2.459   4.805 -0.7710 -0.1286 -1.5270
 8784TIP3    H226317   3.776   2.384   4.912  1.0732  1.5014  1.0946
 8785TIP3   OH226318   5.024   3.118   3.974 -0.3543 -0.3000 -0.0477
 8785TIP3    H126319   4.987   3.036   4.007 -0.9091  0.3992  1.1642
 8785TIP3    H226320   4.951   3.159   3.927 -0.3068 -0.1479  0.0127
 8786TIP3   OH226321   2.043   0.715   3.578 -0.1209 -0.4497 -0.4880
 8786TIP3    H126322   2.022   0.632   3.535  0.1424 -0.7984  0.0566
 8786TIP3    H226323   2.025   0.781   3.511 -0.0412 -0.9663 -1.0269
 8787TIP3   OH226324   2.642   0.312   2.459 -0.2837 -0.2166 -0.3540
 8787TIP3    H126325   2.672   0.240   2.403  1.9354  0.3492 -0.0068
 8787TIP3    H226326   2.663   0.284   2.548  2.6847  1.6286 -0.3312
 8788TIP3   OH226327   4.287   6.150   1.137 -0.2603 -0.7460 -0.0193
 8788TIP3    H126328   4.319   6.210   1.070 -1.2668 -0.1767  0.0030
 8788TIP3    H226329   4.342   6.072   1.126 -0.7154 -0.8688 -1.8499
 8789TIP3   OH226330   1.100   2.647   3.010  0.3130  0.1677  0.5079
 8789TIP3    H126331   1.085   2.728   3.058 -0.8029 -0.0339  0.5351
 8789TIP3    H226332   1.192   2.626   3.026  0.3914  0.9684  1.1908
 8790TIP3   OH226333   1.065   1.281   1.883  0.0840  0.2395  0.3449
 8790TIP3    H126334   1.106   1.279   1.797  0.9390  0.2515  0.7382
 8790TIP3    H226335   1.096   1.363   1.922 -0.9106  0.6152  0.3798
 8791TIP3   OH226336   5.248   4.154   4.379  0.0910  0.4090  0.4479
 8791TIP3    H126337   5.307   4.141   4.305  0.8598  0.0934  1.0895
 8791TIP3    H226338   5.306   4.183   4.450 -0.2839 -1.2688  1.5008
 8792TIP3   OH226339   0.906   5.886   0.871 -0.2341  0.6106  0.3112
 8792TIP3    H126340   0.816   5.859   0.889 -1.1972  2.5810 -1.1301
 8792TIP3    H226341   0.912   5.890   0.776  1.4430  0.3652  0.3766
 8793TIP3   OH226342   5.367   2.349   2.420 -0.4811  0.0301  0.0377
 8793TIP3    H126343   5.339   2.290   2.350  1.3960 -2.0419  0.9320
 8793TIP3    H226344   5.422   2.414   2.376 -0.4045 -0.4564 -0.6018
 8794TIP3   OH226345   3.630   2.342   2.274  0.3223 -0.3116 -0.3159
 8794TIP3    H126346   3.539   2.362   2.255  0.2588  0.3198  0.6169
 8794TIP3    H226347   3.636   2.342   2.369  0.9041 -2.1644 -0.3169
 8795TIP3   OH226348   4.553   2.090   5.618  0.6339  0.2978  0.5120
 8795TIP3    H126349   4.628   2.040   5.586  1.5156  0.9573  1.4778
 8795TIP3    H226350   4.481   2.027   5.622  0.4063  0.1721 -2.8009
 8796TIP3   OH226351   2.890   0.120   4.405  0.3567  0.5710 -0.1112
 8796TIP3    H126352   2.800   0.111   4.376  0.1226  0.4681  0.6165
 8796TIP3    H226353   2.943   0.082   4.335 -0.1069  1.4199 -0.9411
 8797TIP3   OH226354   1.768   6.147   5.143 -0.0859 -0.2680  0.0740
 8797TIP3    H126355   1.778   6.217   5.078  1.4194 -0.6857 -0.1709
 8797TIP3    H226356   1.678   6.156   5.173  0.2298  2.2088  0.5234
 8798TIP3   OH226357   1.214   2.412   4.250  0.5111 -0.7916 -0.6111
 8798TIP3    H126358   1.253   2.491   4.213 -0.9263  0.2019 -0.1109
 8798TIP3    H226359   1.279   2.380   4.312  0.4253  1.0140  0.4729
 8799TIP3   OH226360   5.790   5.549   3.835  0.0209  0.1270  0.2701
 8799TIP3    H126361   5.717   5.578   3.888 -0.9031  0.5144 -1.1550
 8799TIP3    H226362   5.788   5.454   3.839  0.3911  0.1572  1.4566
 8800TIP3   OH226363   1.734   0.608   3.567 -0.2169  0.4631  0.4872
 8800TIP3    H126364   1.677   0.631   3.641 -1.4213  1.7046 -0.7733
 8800TIP3    H226365   1.687   0.640   3.490 -0.3185 -3.1322 -1.1524
 8801TIP3   OH226366   4.282   3.014   3.647 -0.7214 -0.0212 -0.3459
 8801TIP3    H126367   4.332   2.938   3.616  0.1124  0.3602  0.0188
 8801TIP3    H226368   4.276   3.001   3.742  0.7830  1.1241 -0.0635
 8802TIP3   OH226369   1.422   3.755   3.343 -0.5460  0.1545  0.3341
 8802TIP3    H126370   1.470   3.784   3.420  0.1179 -0.4817  0.1803
 8802TIP3    H226371   1.446   3.817   3.274 -1.0112  0.6272  0.5965
 8803TIP3   OH226372   0.630   2.329   4.639 -0.3707  0.1763 -0.4164
 8803TIP3    H126373   0.589   2.277   4.708 -1.7919  1.8609  0.1077
 8803TIP3    H226374   0.698   2.273   4.603  0.2697 -0.8756  2.1925
 8804TIP3   OH226375   1.174   4.685   0.224 -0.1608  0.2723 -0.0215
 8804TIP3    H126376   1.145   4.747   0.291 -0.6352  0.5067 -0.4402
 8804TIP3    H226377   1.269   4.701   0.217  0.0149 -0.2114  1.0529
 8805TIP3   OH226378   5.864   0.039   2.613 -0.4115  0.2574 -0.4180
 8805TIP3    H126379   5.882  -0.055   2.603 -1.3187  0.0803 -0.4853
 8805TIP3    H226380   5.908   0.080   2.538  0.3199 -0.0646 -0.1705
 8806TIP3   OH226381   0.853   6.599   3.643  0.3236 -0.5859  0.1436
 8806TIP3    H126382   0.826   6.523   3.695  1.3904 -1.9515 -1.1824
 8806TIP3    H226383   0.777   6.619   3.588  0.2549 -1.1179  0.0412
 8807TIP3   OH226384   4.583   3.534   0.006  0.1471 -0.9042 -0.1655
 8807TIP3    H126385   4.516   3.466   0.017  0.1768 -0.8980  0.0603
 8807TIP3    H226386   4.550   3.608   0.058 -0.1860 -0.5235 -0.8964
 8808TIP3   OH226387   2.180   0.827   2.287 -0.0119 -0.1895  0.5399
 8808TIP3    H126388   2.106   0.790   2.239  0.6582 -1.2074  0.2513
 8808TIP3    H226389   2.177   0.784   2.373  1.0641 -1.3476  0.0311
 8809TIP3   OH226390   6.981   5.383   5.721 -0.0974 -0.1744 -0.1331
 8809TIP3    H126391   7.046   5.317   5.745  0.0240 -0.4960 -1.3052
 8809TIP3    H226392   6.919   5.337   5.665 -0.7839  0.3769  0.1581
 8810TIP3   OH226393   1.880   4.616   4.908  0.1992 -0.0699  0.1488
 8810TIP3    H126394   1.907   4.524   4.901 -1.4916 -0.5952  0.2348
 8810TIP3    H226395   1.852   4.639   4.819  1.4701  0.6645 -0.0839
 8811TIP3   OH226396   6.358   6.472   0.589 -0.2624 -0.5573 -0.4041
 8811TIP3    H126397   6.442   6.516   0.599  0.1541 -1.4174 -0.0109
 8811TIP3    H226398   6.365   6.426   0.505 -1.0783  0.9185 -1.3095
 8812TIP3   OH226399   0.569   1.772   2.378  0.3304  0.0510 -0.2325
 8812TIP3    H126400   0.554   1.801   2.468 -0.3151 -0.6687 -0.0896
 8812TIP3    H226401   0.635   1.831   2.343 -0.7139  1.4938  0.1277
 8813TIP3   OH226402   1.689   5.750   4.617 -0.2885  0.0235 -0.5715
 8813TIP3    H126403   1.716   5.833   4.656  0.4104  0.7678 -2.4870
 8813TIP3    H226404   1.757   5.732   4.552 -0.0750 -2.4260  0.2544
 8814TIP3   OH226405   6.949   2.526   1.128  0.5780 -0.4006 -0.1944
 8814TIP3    H126406   6.974   2.592   1.193 -0.6012 -0.6331  0.5319
 8814TIP3    H226407   6.880   2.476   1.171  0.9445 -1.6474 -1.0128
 8815TIP3   OH226408   1.441   6.319   2.282  0.0234 -0.5227 -0.2152
 8815TIP3    H126409   1.356   6.320   2.238 -0.2119 -0.5363  0.2314
 8815TIP3    H226410   1.448   6.231   2.318 -0.9327  0.2251  1.9496
 8816TIP3   OH226411   4.552   3.488   5.106  0.3067  0.0921 -0.0563
 8816TIP3    H126412   4.547   3.411   5.162 -2.3064 -0.6653 -1.2065
 8816TIP3    H226413   4.633   3.476   5.056  0.9890 -0.8277  1.2155
 8817TIP3   OH226414   6.517   4.399   0.959  0.1344 -0.0860 -0.4225
 8817TIP3    H126415   6.461   4.445   0.897  1.0756 -0.7324 -1.8016
 8817TIP3    H226416   6.471   4.318   0.980 -1.3467  1.2069  1.7101
 8818TIP3   OH226417   5.394   3.482   2.152 -0.4928 -0.4953 -0.0560
 8818TIP3    H126418   5.453   3.555   2.169  1.2870 -2.1647  1.3710
 8818TIP3    H226419   5.329   3.517   2.091  1.3048  1.7462 -0.8009
 8819TIP3   OH226420   5.689   1.558   3.229  0.6003 -0.4696 -0.0059
 8819TIP3    H126421   5.714   1.638   3.276 -1.7093  0.1821  0.2450
 8819TIP3    H226422   5.622   1.519   3.285  1.1262 -2.1790 -0.5328
 8820TIP3   OH226423   2.706   3.299   1.271 -0.3617 -0.1919  0.2707
 8820TIP3    H126424   2.758   3.221   1.291  0.7957  0.9305  1.8951
 8820TIP3    H226425   2.615   3.273   1.288  0.1534 -0.7184  2.5521
 8821TIP3   OH226426   3.636   3.257   0.243  0.4615 -0.1271 -0.4285
 8821TIP3    H126427   3.605   3.278   0.155 -0.5470 -2.4797 -0.7284
 8821TIP3    H226428   3.557   3.261   0.297  0.8304  0.0114  0.1060
 8822TIP3   OH226429   6.597   4.913   5.830 -0.1753 -0.5421 -0.0519
 8822TIP3    H126430   6.583   4.822   5.803 -2.7573  0.6095 -3.2007
 8822TIP3    H226431   6.672   4.942   5.779 -1.3534 -0.0912 -1.6242
 8823TIP3   OH226432   1.671   6.416   2.327  0.2968  0.1452  0.0658
 8823TIP3    H126433   1.587   6.372   2.312  1.3119 -1.7791 -0.2376
 8823TIP3    H226434   1.647   6.508   2.339 -1.7893 -0.2391 -0.6459
 8824TIP3   OH226435   0.293   4.399   2.671  0.0967  0.0571  0.5411
 8824TIP3    H126436   0.320   4.352   2.592 -1.0760 -1.9248  1.2364
 8824TIP3    H226437   0.298   4.333   2.741  1.9006  1.9324  2.3583
 8825TIP3   OH226438   6.684   3.556   2.037  0.2086  0.3379  0.0570
 8825TIP3    H126439   6.760   3.579   2.090 -0.4955 -0.9358  1.6822
 8825TIP3    H226440   6.707   3.473   1.996 -0.1138  0.2078  0.1383
 8826TIP3   OH226441   0.032   5.330   2.395  0.5327 -0.0796 -0.0080
 8826TIP3    H126442   0.040   5.401   2.330  0.4794  0.0350  0.1105
 8826TIP3    H226443   0.062   5.252   2.348 -2.1432 -0.5713 -1.1215
 8827TIP3   OH226444   4.420   6.008   0.119 -0.0928 -0.2661  0.2546
 8827TIP3    H126445   4.339   5.964   0.092  0.2451 -0.8525  0.1703
 8827TIP3    H226446   4.395   6.099   0.134 -0.6317 -0.3045 -0.3972
 8828TIP3   OH226447  -0.004   4.054   5.192 -0.4539 -0.1631 -0.0094
 8828TIP3    H126448  -0.064   3.981   5.177 -0.4566 -0.3250  0.7853
 8828TIP3    H226449   0.079   4.026   5.152 -0.8004 -0.0675 -0.8274
 8829TIP3   OH226450   5.963   0.195   1.127 -0.1720 -0.2960 -0.2164
 8829TIP3    H126451   6.022   0.121   1.112 -0.0598 -0.0093 -1.2177
 8829TIP3    H226452   5.880   0.168   1.087 -0.3593 -0.1870  0.0927
 8830TIP3   OH226453   3.553   3.683   2.866  0.3882  0.2134  0.3632
 8830TIP3    H126454   3.483   3.729   2.912  0.7559 -0.7792  2.0121
 8830TIP3    H226455   3.526   3.591   2.868  1.3358 -0.0731  0.2600
 8831TIP3   OH226456   3.259   3.730   4.188 -0.0778  0.1047  0.0512
 8831TIP3    H126457   3.169   3.736   4.154 -1.3593 -1.6178  2.7408
 8831TIP3    H226458   3.271   3.637   4.208  0.8041  0.7487  3.1813
 8832TIP3   OH226459   1.598   5.732   5.431 -0.0820 -0.3006  0.6006
 8832TIP3    H126460   1.676   5.680   5.451 -0.5752 -1.1838  0.2996
 8832TIP3    H226461   1.632   5.816   5.401  0.8457 -1.3883 -1.6235
 8833TIP3   OH226462   3.703   4.300   4.822  0.3875 -0.1136 -0.0465
 8833TIP3    H126463   3.659   4.230   4.870  4.0992 -0.4987  3.3253
 8833TIP3    H226464   3.677   4.380   4.868  0.3153  0.0859 -0.4339
 8834TIP3   OH226465   6.630   4.591   5.521 -0.0424  0.1446 -0.0388
 8834TIP3    H126466   6.591   4.651   5.585 -0.9839  0.0579 -0.5132
 8834TIP3    H226467   6.573   4.599   5.444  0.9860  0.1391 -0.8151
 8835TIP3   OH226468   3.798   1.565   1.740  0.0480 -0.2009 -0.5148
 8835TIP3    H126469   3.889   1.583   1.766 -0.3478  0.7177  0.3061
 8835TIP3    H226470   3.796   1.586   1.647  0.8095 -0.7818 -0.6768
 8836TIP3   OH226471   0.690   4.892   1.670 -0.1527  0.3777  0.0263
 8836TIP3    H126472   0.665   4.960   1.607 -3.3597 -1.1980 -0.5909
 8836TIP3    H226473   0.774   4.859   1.638  0.4756  2.5810 -0.8155
 8837TIP3   OH226474   7.058   1.807   0.110 -0.2898 -0.0727 -0.0888
 8837TIP3    H126475   7.041   1.860   0.187 -0.0251  0.0567 -0.1193
 8837TIP3    H226476   6.971   1.782   0.078 -0.3985 -0.1040  0.2338
 8838TIP3   OH226477   5.302   0.733   3.974 -0.2294  0.2275 -0.6551
 8838TIP3    H126478   5.291   0.638   3.974  2.3901 -0.1691 -0.0082
 8838TIP3    H226479   5.254   0.763   4.051 -0.8041 -0.6300 -0.6730
 8839TIP3   OH226480  -0.019   3.879   4.566 -0.0728  0.0592 -0.0452
 8839TIP3    H126481   0.008   3.963   4.530 -0.5840  0.6471  0.8946
 8839TIP3    H226482   0.053   3.851   4.622 -0.5356  0.6467  0.8704
 8840TIP3   OH226483   6.886   3.717   0.894 -0.3849  0.6636  0.3174
 8840TIP3    H126484   6.927   3.757   0.971  1.4257 -3.2429  1.6588
 8840TIP3    H226485   6.806   3.677   0.928  0.1239 -0.5741  0.1330
 8841TIP3   OH226486   5.898   5.153   2.437 -0.4826 -0.3776  0.2773
 8841TIP3    H126487   5.935   5.211   2.370 -1.8336  0.4441  0.2325
 8841TIP3    H226488   5.847   5.210   2.494  0.2506 -1.1439  1.7640
 8842TIP3   OH226489   3.046   1.239   1.096  0.2557 -0.1246  0.6248
 8842TIP3    H126490   3.085   1.309   1.043 -2.1199  0.5362 -0.3868
 8842TIP3    H226491   2.985   1.285   1.154 -0.9182 -1.2740  0.3500
 8843TIP3   OH226492   6.999   5.344   2.176  0.1553  0.4415 -0.1566
 8843TIP3    H126493   6.944   5.322   2.101 -0.4145  1.8338 -0.1688
 8843TIP3    H226494   6.951   5.310   2.251  0.4034 -0.3597 -0.3465
 8844TIP3   OH226495   6.030   6.025   3.818  0.3004 -0.4771 -0.1765
 8844TIP3    H126496   5.977   6.104   3.815 -1.8184 -1.8211  0.0577
 8844TIP3    H226497   6.081   6.033   3.899  0.0053  0.5619 -0.0798
 8845TIP3   OH226498   4.634   3.997   2.696 -0.2083 -0.3323  0.2984
 8845TIP3    H126499   4.612   4.081   2.655  0.2783 -0.0876  0.5402
 8845TIP3    H226500   4.549   3.959   2.718 -0.4319  0.1363  0.2665
 8846TIP3   OH226501   0.484   5.841   3.522  0.1806  0.1348 -0.1339
 8846TIP3    H126502   0.495   5.754   3.560 -0.4465  0.2117  0.2394
 8846TIP3    H226503   0.563   5.855   3.470 -0.3299 -1.2510 -1.3659
 8847TIP3   OH226504   4.828   4.430   5.687  0.5563  0.0113  0.0676
 8847TIP3    H126505   4.910   4.434   5.637 -0.0400 -1.3620 -1.0892
 8847TIP3    H226506   4.806   4.521   5.705  2.6537  0.3969  0.9680
 8848TIP3   OH226507   0.283   5.760   0.564 -0.6742 -0.5277  0.0143
 8848TIP3    H126508   0.369   5.786   0.596 -0.8814  0.6109 -0.3037
 8848TIP3    H226509   0.291   5.756   0.469 -0.4923 -2.3102  0.0650
 8849TIP3   OH226510   4.644   5.854   2.147  0.1954  0.1535  0.3128
 8849TIP3    H126511   4.565   5.803   2.133 -0.3002  1.1784 -0.7486
 8849TIP3    H226512   4.715   5.790   2.141 -0.2986 -0.2459 -2.3942
 8850TIP3   OH226513   3.192   3.286   2.478  0.0068 -0.0954 -0.1106
 8850TIP3    H126514   3.247   3.258   2.551  0.5629  1.6319  0.1986
 8850TIP3    H226515   3.214   3.379   2.467 -1.5897  0.1918 -1.1265
 8851TIP3   OH226516   4.659   2.786   4.452 -0.1125  0.2255  0.5032
 8851TIP3    H126517   4.620   2.838   4.381  1.1086  0.5156  0.0285
 8851TIP3    H226518   4.739   2.751   4.414 -0.8628 -1.9803  0.8315
 8852TIP3   OH226519   6.276   4.728   0.339 -0.2968  0.3222 -0.5633
 8852TIP3    H126520   6.354   4.675   0.325 -1.3723 -0.7853 -3.1928
 8852TIP3    H226521   6.230   4.684   0.411  0.4642 -0.3072 -0.4467
 8853TIP3   OH226522   3.917   6.093   3.848  0.2598  0.2527 -0.0517
 8853TIP3    H126523   3.976   6.089   3.772  1.1575 -2.2842  0.6748
 8853TIP3    H226524   3.973   6.069   3.922 -1.2223 -0.0530  0.9957
 8854TIP3   OH226525   6.965   3.998   3.107  0.3160  0.5382  0.3948
 8854TIP3    H126526   6.927   4.043   3.031  0.5304 -0.3661 -0.2608
 8854TIP3    H226527   6.912   4.028   3.181 -1.2795 -0.1895 -0.3994
 8855TIP3   OH226528   2.429   5.772   1.198 -0.1663 -0.8037  0.1099
 8855TIP3    H126529   2.499   5.819   1.152 -1.5877  2.4721  1.0159
 8855TIP3    H226530   2.354   5.778   1.139 -1.2844  1.1356  1.6256
 8856TIP3   OH226531   3.398   6.778   5.847 -0.1500  0.2947 -0.0700
 8856TIP3    H126532   3.424   6.758   5.937  1.3802 -1.6514 -0.8976
 8856TIP3    H226533   3.461   6.844   5.818  0.2801 -0.1597 -0.1796
 8857TIP3   OH226534   4.016   2.227   4.279 -0.4112 -0.9308 -0.2977
 8857TIP3    H126535   4.016   2.182   4.195 -0.0593 -2.6444  0.5748
 8857TIP3    H226536   3.929   2.266   4.286 -0.6774 -1.3479 -1.1597
 8858TIP3   OH226537   6.898   5.906   5.759 -0.2142 -0.3321  0.6623
 8858TIP3    H126538   6.824   5.867   5.804 -1.4059  1.5008  0.3866
 8858TIP3    H226539   6.896   5.868   5.671 -3.1426  2.2839 -0.5784
 8859TIP3   OH226540   4.719   2.042   2.008 -0.5032  0.1776 -0.1888
 8859TIP3    H126541   4.770   2.122   2.021 -1.6858  1.3756 -2.2444
 8859TIP3    H226542   4.628   2.070   2.015 -0.9435 -1.4701  1.2205
 8860TIP3   OH226543   4.834   5.783   2.642 -0.3013 -0.0890  0.1027
 8860TIP3    H126544   4.897   5.814   2.576 -1.1764  1.0830 -0.2079
 8860TIP3    H226545   4.750   5.783   2.597 -0.7546 -0.2723  0.9335
 8861TIP3   OH226546   5.470   2.355   0.041  0.9321  0.2580 -0.0548
 8861TIP3    H126547   5.532   2.413  -0.004 -0.5695  1.9506 -0.0455
 8861TIP3    H226548   5.393   2.409   0.056  0.4697 -0.9503  2.4797
 8862TIP3   OH226549   5.626   1.654   0.179 -0.4817  0.5612 -0.1856
 8862TIP3    H126550   5.699   1.685   0.125 -0.2424 -0.1028 -0.2541
 8862TIP3    H226551   5.668   1.617   0.257 -0.6872 -0.4771 -0.5445
 8863TIP3   OH226552   5.674   1.299   0.130  0.0574  0.0566 -0.5572
 8863TIP3    H126553   5.763   1.335   0.130  0.1155 -0.0791 -0.9656
 8863TIP3    H226554   5.641   1.319   0.217  0.3559  0.4372 -0.5229
 8864TIP3   OH226555   5.309   1.917   4.539 -0.0571  0.7574  0.0154
 8864TIP3    H126556   5.269   1.926   4.625  1.0306  0.5771  0.5637
 8864TIP3    H226557   5.403   1.917   4.557  0.2108  1.8569 -1.2915
 8865TIP3   OH226558   5.954   3.923   0.927  0.2005 -0.6887 -0.0028
 8865TIP3    H126559   5.931   3.898   0.838  0.4230 -0.4071 -0.1407
 8865TIP3    H226560   5.884   3.887   0.981 -0.2812 -0.3111 -0.3641
 8866TIP3   OH226561   1.581   6.653   2.484  0.0286  0.1304  0.0234
 8866TIP3    H126562   1.605   6.601   2.561  0.4926  0.6811  0.2629
 8866TIP3    H226563   1.525   6.722   2.519  0.6816  0.7060 -0.0319
 8867TIP3   OH226564   1.528   6.203   2.660 -0.5011 -0.4767 -0.0506
 8867TIP3    H126565   1.489   6.159   2.585 -0.4471 -0.2366 -0.2178
 8867TIP3    H226566   1.615   6.230   2.631 -0.8079  0.3939 -0.1866
 8868TIP3   OH226567   6.415   1.545   3.119 -0.1163  0.1832  0.1788
 8868TIP3    H126568   6.478   1.569   3.188  1.3769  1.8490 -1.6443
 8868TIP3    H226569   6.332   1.534   3.165  0.8760  0.9376  2.2741
 8869TIP3   OH226570   2.671   3.465   0.519  0.0975  0.6050 -0.0967
 8869TIP3    H126571   2.624   3.548   0.518 -0.5800  0.2730  1.1643
 8869TIP3    H226572   2.678   3.443   0.612 -0.8102 -1.3219 -0.4313
 8870TIP3   OH226573   2.171   1.308   3.011 -0.1560 -0.1691  1.0227
 8870TIP3    H126574   2.194   1.286   3.102  0.8009  0.2013  0.8800
 8870TIP3    H226575   2.151   1.401   3.013  0.2351 -0.0783  0.7850
 8871TIP3   OH226576   5.986   3.676   2.151  0.4148  0.3015 -0.3559
 8871TIP3    H126577   5.992   3.692   2.245 -2.0377 -1.3100  0.1906
 8871TIP3    H226578   5.999   3.762   2.111  0.7613  1.1594  1.4935
 8872TIP3   OH226579   5.236   2.465   5.509 -0.5513 -0.3783 -0.3936
 8872TIP3    H126580   5.248   2.511   5.592 -0.3686  0.7925 -1.0442
 8872TIP3    H226581   5.258   2.374   5.528 -0.1642 -0.0596  0.7545
 8873TIP3   OH226582   1.206   0.240   0.012  0.6123  0.2265  0.5014
 8873TIP3    H126583   1.284   0.270  -0.033  0.4154  0.2510  0.1754
 8873TIP3    H226584   1.209   0.283   0.097 -0.8049  2.9894 -0.7263
 8874TIP3   OH226585   6.471   1.812   1.893  0.2277  0.2886  0.6435
 8874TIP3    H126586   6.447   1.903   1.876  3.0700  0.8973 -0.5791
 8874TIP3    H226587   6.545   1.817   1.954  0.8111 -1.1595  0.1112
 8875TIP3   OH226588   6.534   2.864   3.749 -0.3547  0.7003 -0.3455
 8875TIP3    H126589   6.613   2.827   3.710 -2.0106 -3.2585 -0.4309
 8875TIP3    H226590   6.561   2.891   3.837  1.4430  1.3148 -1.0364
 8876TIP3   OH226591   0.918   3.606   5.664  0.4763 -0.0955 -0.2148
 8876TIP3    H126592   0.992   3.624   5.723 -1.5022  1.4538  1.9435
 8876TIP3    H226593   0.901   3.513   5.676 -0.0922  0.2353  2.0581
 8877TIP3   OH226594   2.250   3.377   5.468 -0.3322 -0.0562  0.1732
 8877TIP3    H126595   2.206   3.355   5.386 -0.7216 -1.5491  0.7504
 8877TIP3    H226596   2.179   3.397   5.529 -0.2550 -2.2637  1.0518
 8878TIP3   OH226597   6.838   2.388   1.888 -0.0143  0.1432  0.7717
 8878TIP3    H126598   6.880   2.302   1.883 -0.3611  0.0437 -0.9230
 8878TIP3    H226599   6.774   2.379   1.959 -0.8694 -1.4002 -0.1218
 8879TIP3   OH226600   2.961   0.823   3.352 -0.4183  0.1847 -0.5506
 8879TIP3    H126601   2.876   0.781   3.365 -0.9235  1.2584 -0.2488
 8879TIP3    H226602   2.950   0.911   3.389  1.0496  0.1009  0.1837
 8880TIP3   OH226603   3.094   6.496   2.922  0.1383 -0.2525 -0.4443
 8880TIP3    H126604   3.020   6.553   2.942  0.6109 -0.3905  2.0048
 8880TIP3    H226605   3.064   6.443   2.848 -1.5762  0.8196 -0.5675
 8881TIP3   OH226606   0.182   5.588   3.754  0.1923  0.1546 -0.2606
 8881TIP3    H126607   0.211   5.605   3.844 -0.1253  1.0153 -0.3112
 8881TIP3    H226608   0.183   5.674   3.713  0.1299 -0.2088 -1.0244
 8882TIP3   OH226609   0.843   1.923   1.709  0.2071  0.0310 -0.3625
 8882TIP3    H126610   0.908   1.906   1.642  0.3504  1.1952 -0.5285
 8882TIP3    H226611   0.892   1.923   1.791  0.2558 -0.0283 -0.3914
 8883TIP3   OH226612   4.889   1.926   2.433 -0.4373 -0.2144 -0.1075
 8883TIP3    H126613   4.950   1.990   2.468  0.2111 -1.0278  0.3037
 8883TIP3    H226614   4.807   1.974   2.420  0.1942  0.8117 -0.3585
 8884TIP3   OH226615   6.664   5.927   1.611 -0.5530 -0.1225  0.1494
 8884TIP3    H126616   6.706   5.975   1.540  0.4449 -1.8449 -0.4800
 8884TIP3    H226617   6.599   5.988   1.646  0.7744  1.7430 -0.4638
 8885TIP3   OH226618   1.188   2.098   4.239 -0.2597  0.1227  0.0363
 8885TIP3    H126619   1.164   2.020   4.289  0.1134 -0.9409 -1.3863
 8885TIP3    H226620   1.235   2.153   4.302  1.1243 -1.6411  0.6256
 8886TIP3   OH226621   2.781   4.527   5.443  0.8260 -0.1834 -0.4068
 8886TIP3    H126622   2.839   4.523   5.367 -0.4204 -1.4834 -1.3396
 8886TIP3    H226623   2.807   4.453   5.497  1.4455  0.5070  0.2666
 8887TIP3   OH226624   5.464   1.516   5.045 -0.5448  0.4766  0.4024
 8887TIP3    H126625   5.494   1.475   5.126 -0.3001 -3.3825 -1.4348
 8887TIP3    H226626   5.370   1.496   5.042 -0.5981  0.7916 -0.1526
 8888TIP3   OH226627   4.762   3.728   4.037  0.1253  0.5051 -0.2278
 8888TIP3    H126628   4.685   3.769   3.998  0.3099  1.4051  0.3195
 8888TIP3    H226629   4.829   3.732   3.969 -0.2587 -0.1195 -0.6440
 8889TIP3   OH226630   3.850   0.815   4.015 -0.4080  0.6324  0.3000
 8889TIP3    H126631   3.802   0.813   4.097  1.5212  0.7565  1.4931
 8889TIP3    H226632   3.899   0.732   4.014 -1.5743 -0.0943 -1.5021
 8890TIP3   OH226633   4.154   5.347   1.731  0.5111  0.4882  0.8418
 8890TIP3    H126634   4.213   5.277   1.759  1.1696  1.5604  2.2158
 8890TIP3    H226635   4.077   5.300   1.698  1.9162 -0.9302 -0.6271
 8891TIP3   OH226636   6.433   0.510   4.059  0.1023  0.1244  0.0726
 8891TIP3    H126637   6.424   0.446   3.988 -0.7935  0.1061  0.1998
 8891TIP3    H226638   6.391   0.468   4.134  1.0361  0.1465  0.6318
 8892TIP3   OH226639   6.633   5.508   4.106  0.3751  0.2508  0.1259
 8892TIP3    H126640   6.611   5.433   4.050 -0.8710  0.7220 -0.0488
 8892TIP3    H226641   6.650   5.469   4.192 -0.9316 -0.2005  0.2046
 8893TIP3   OH226642   6.870   0.323   0.054 -0.0783 -0.6322 -0.3376
 8893TIP3    H126643   6.955   0.279   0.056  0.4191  0.2928  1.6398
 8893TIP3    H226644   6.888   0.411   0.022 -0.7713 -1.2106 -2.4717
 8894TIP3   OH226645   6.450   3.973   0.369 -0.2823  0.1684  0.1443
 8894TIP3    H126646   6.511   3.901   0.380 -0.3793  0.0176 -0.3043
 8894TIP3    H226647   6.501   4.051   0.392  0.4386  0.1744 -1.3459
 8895TIP3   OH226648   2.900   5.573   4.073  0.4977  0.0623  0.8471
 8895TIP3    H126649   2.864   5.552   3.986  1.9181 -0.0170  0.2498
 8895TIP3    H226650   2.919   5.488   4.113  1.0520  0.1079  0.6933
 8896TIP3   OH226651   1.869   0.591   5.183  0.2609 -0.4030  0.1717
 8896TIP3    H126652   1.964   0.588   5.190  0.1698 -0.9624  1.7024
 8896TIP3    H226653   1.846   0.681   5.205  0.4484 -0.1065 -0.7858
 8897TIP3   OH226654   3.152   0.908   4.777 -0.4385  0.8584 -0.0441
 8897TIP3    H126655   3.151   1.003   4.789 -0.8375  1.0546 -1.4207
 8897TIP3    H226656   3.187   0.874   4.859 -1.8639  2.0892  1.1551
 8898TIP3   OH226657   2.133   0.457   5.064 -0.3936  0.5118 -0.6031
 8898TIP3    H126658   2.216   0.449   5.018 -0.0512 -0.1342  0.1084
 8898TIP3    H226659   2.157   0.478   5.154 -1.0763  2.6102 -0.8588
 8899TIP3   OH226660   0.813   3.811   5.205 -0.1273 -0.6003 -1.0361
 8899TIP3    H126661   0.805   3.907   5.202  0.3247 -0.5748 -2.0961
 8899TIP3    H226662   0.794   3.788   5.295 -0.8219  0.4426 -0.8957
 8900TIP3   OH226663   1.907   3.412   5.391  0.2098 -0.2421  0.1447
 8900TIP3    H126664   1.893   3.318   5.402 -1.0959 -0.4121 -2.2801
 8900TIP3    H226665   1.827   3.443   5.349  0.4064  2.0761  1.3195
 8901TIP3   OH226666   6.830   4.501   4.243  0.3726 -0.3523 -0.0965
 8901TIP3    H126667   6.891   4.458   4.182  2.1640  0.3976  1.0652
 8901TIP3    H226668   6.887   4.537   4.311 -1.1437  2.4682 -0.1596
 8902TIP3   OH226669   2.774   0.445   4.908  0.0877 -0.0079  0.0513
 8902TIP3    H126670   2.707   0.509   4.933 -0.1897 -0.8661  1.5830
 8902TIP3    H226671   2.850   0.498   4.884  0.0759  0.9213  1.8934
 8903TIP3   OH226672   1.721   3.173   4.757 -0.5571 -0.0489  0.1443
 8903TIP3    H126673   1.697   3.159   4.665  1.3695 -0.5448 -0.3218
 8903TIP3    H226674   1.805   3.129   4.767 -0.6350  0.1762  2.1107
 8904TIP3   OH226675   3.359   6.026   3.307  0.7620 -0.3165 -0.2921
 8904TIP3    H126676   3.360   5.995   3.216 -0.2145 -3.1945  0.5699
 8904TIP3    H226677   3.266   6.040   3.326  0.9697  0.3776  0.2246
 8905TIP3   OH226678   7.069   4.096   1.849  0.6656 -0.1373  0.6868
 8905TIP3    H126679   7.131   4.167   1.836 -1.4447  1.6516 -0.1558
 8905TIP3    H226680   7.073   4.045   1.769  0.4590  0.4649  0.2872
 8906TIP3   OH226681   1.884   3.149   5.370 -0.5619  0.2904 -0.0789
 8906TIP3    H126682   1.798   3.110   5.381 -0.2649 -1.3069 -2.5920
 8906TIP3    H226683   1.932   3.086   5.316  0.6598  3.1163 -2.5816
 8907TIP3   OH226684   4.513   4.935   2.660  0.7653  0.2992 -0.7670
 8907TIP3    H126685   4.535   5.005   2.722  2.2332 -0.0409 -0.8678
 8907TIP3    H226686   4.427   4.904   2.689  1.9036 -0.6780  1.9429
 8908TIP3   OH226687   2.261   1.174   1.276  0.4826 -0.4739 -0.0607
 8908TIP3    H126688   2.289   1.145   1.363  2.7951  0.0484 -0.5639
 8908TIP3    H226689   2.192   1.238   1.294 -0.4126 -1.7334  1.2807
 8909TIP3   OH226690   5.598   4.039   4.048  0.3303  0.3043  0.3534
 8909TIP3    H126691   5.577   3.988   3.970 -0.8666 -0.7300  1.2908
 8909TIP3    H226692   5.571   3.983   4.121  1.2643  1.2958  1.5118
 8910TIP3   OH226693   1.064   2.734   2.256  0.2317 -0.1254  0.3318
 8910TIP3    H126694   1.156   2.731   2.284  0.0210 -1.3077  0.9983
 8910TIP3    H226695   1.045   2.644   2.228 -0.9781 -0.1485  1.1366
 8911TIP3   OH226696   0.764   6.292   4.903 -0.2519  0.0371 -0.2587
 8911TIP3    H126697   0.689   6.346   4.929 -0.1522 -0.7766  1.8912
 8911TIP3    H226698   0.840   6.350   4.912 -0.5015  0.6787 -1.8572
 8912TIP3   OH226699   2.638   3.585   4.871 -0.0790  0.3554  0.0772
 8912TIP3    H126700   2.650   3.573   4.965  0.7562  1.4254  0.1234
 8912TIP3    H226701   2.671   3.673   4.853 -3.5567  1.7087 -0.6183
 8913TIP3   OH226702   1.999   1.531   3.011 -0.0964  0.1430  0.1999
 8913TIP3    H126703   2.002   1.619   3.048  0.1761  0.2548 -0.0820
 8913TIP3    H226704   1.908   1.519   2.984 -0.3842 -0.0798  1.2313
 8914TIP3   OH226705   1.651   4.323   4.178 -0.0661 -0.4442 -0.5912
 8914TIP3    H126706   1.658   4.377   4.257 -0.1356  3.1705 -2.8356
 8914TIP3    H226707   1.739   4.290   4.164  0.7215  1.5238 -0.6316
 8915TIP3   OH226708   0.494   2.138   3.541 -0.0509 -0.0209 -0.3326
 8915TIP3    H126709   0.570   2.195   3.530 -1.6302  2.1836 -0.3838
 8915TIP3    H226710   0.460   2.158   3.628  0.4122 -2.3375  0.4719
 8916TIP3   OH226711   4.348   2.787   2.613 -0.1395  0.1867 -0.1489
 8916TIP3    H126712   4.325   2.758   2.524 -1.5924  0.4760  0.1049
 8916TIP3    H226713   4.268   2.827   2.646  0.2608 -0.2964  1.4622
 8917TIP3   OH226714   3.474   4.633   0.488  0.2775 -0.3554 -0.1028
 8917TIP3    H126715   3.540   4.605   0.425  0.0874 -0.8635 -0.0784
 8917TIP3    H226716   3.525   4.671   0.560  0.4674  0.7526 -0.8107
 8918TIP3   OH226717   6.306   3.770   1.622 -0.7348  0.1308 -0.4465
 8918TIP3    H126718   6.390   3.787   1.665 -0.7124  1.7751 -1.0672
 8918TIP3    H226719   6.241   3.778   1.692 -0.7701  3.4963 -0.7023
 8919TIP3   OH226720   1.678   2.075   2.552  0.0571  0.2225 -0.0510
 8919TIP3    H126721   1.611   2.044   2.491  0.0859 -1.3292  0.6589
 8919TIP3    H226722   1.749   2.107   2.495 -0.2263 -0.5062 -0.8342
 8920TIP3   OH226723   2.823   3.265   2.736 -0.3670  0.1578 -0.0417
 8920TIP3    H126724   2.900   3.253   2.680  1.0028 -2.3824  2.1861
 8920TIP3    H226725   2.828   3.357   2.763 -1.1818  1.5544 -3.9860
 8921TIP3   OH226726   6.130   1.248   5.247 -0.4693  0.4199  0.1064
 8921TIP3    H126727   6.110   1.267   5.339  1.4685  1.6817  0.3146
 8921TIP3    H226728   6.223   1.266   5.238 -0.0017 -2.2704 -1.5057
 8922TIP3   OH226729   0.826   4.393   4.314 -0.2722  0.2487 -0.0597
 8922TIP3    H126730   0.899   4.332   4.321 -1.6539 -1.8063 -2.1246
 8922TIP3    H226731   0.832   4.429   4.226 -0.7631  1.4056  0.3600
 8923TIP3   OH226732   4.901   6.756   1.038 -0.0352  0.2946 -0.3167
 8923TIP3    H126733   4.913   6.717   1.125  0.9959 -0.0256 -0.5856
 8923TIP3    H226734   4.911   6.682   0.978  0.5599  0.7370 -0.7667
 8924TIP3   OH226735   4.208   5.142   3.563  0.3549  0.4534  0.3299
 8924TIP3    H126736   4.191   5.054   3.531  1.8196 -0.0038  0.6925
 8924TIP3    H226737   4.279   5.174   3.507  0.2264  1.1797  0.5705
 8925TIP3   OH226738   0.111   1.598   2.782 -0.3055 -0.3026 -0.1465
 8925TIP3    H126739   0.062   1.590   2.701 -0.0290  2.7715 -0.7614
 8925TIP3    H226740   0.053   1.647   2.841  1.4026  2.4017 -0.5054
 8926TIP3   OH226741   6.258   5.869   5.036  0.0592 -0.1943 -0.3191
 8926TIP3    H126742   6.208   5.790   5.014 -0.1864 -0.6045  1.5705
 8926TIP3    H226743   6.192   5.930   5.069  0.6351 -0.3167  1.0958
 8927TIP3   OH226744   4.776   1.445   5.082 -0.2277  0.5605  0.7320
 8927TIP3    H126745   4.823   1.391   5.018  1.7553  2.0396  0.8306
 8927TIP3    H226746   4.738   1.382   5.143  0.7350 -0.7864  0.0066
 8928TIP3   OH226747   2.875   4.264   5.262 -0.2618 -0.2487 -0.3886
 8928TIP3    H126748   2.876   4.208   5.184  0.9047 -1.1561  0.2546
 8928TIP3    H226749   2.899   4.351   5.230 -0.2446 -0.5129 -1.1054
 8929TIP3   OH226750   3.948   0.070   3.028  0.3301  0.1979 -0.2082
 8929TIP3    H126751   3.863   0.035   3.001  0.8861  0.2349 -2.1723
 8929TIP3    H226752   3.935   0.098   3.118 -2.0903  1.2602 -0.8082
 8930TIP3   OH226753   0.795   5.237   1.221  0.5743 -0.3485  0.1553
 8930TIP3    H126754   0.816   5.315   1.169 -1.4873  0.7691  0.9112
 8930TIP3    H226755   0.753   5.177   1.159 -0.8359  0.5208  0.2255
 8931TIP3   OH226756   1.954   1.246   0.985 -0.5602 -0.1251  0.3068
 8931TIP3    H126757   1.900   1.289   1.052 -0.9069  1.4494 -0.9356
 8931TIP3    H226758   1.912   1.160   0.973 -0.5605 -0.3963  1.9887
 8932TIP3   OH226759   3.169   2.116   2.674 -0.6716  0.7335 -0.0202
 8932TIP3    H126760   3.207   2.195   2.712  1.0879  0.0048 -0.1858
 8932TIP3    H226761   3.086   2.106   2.719  0.6711  0.7105  2.6244
 8933TIP3   OH226762   2.215   1.062   2.161  0.4984 -0.3485  0.4391
 8933TIP3    H126763   2.125   1.084   2.185  0.5324 -0.1286  0.3665
 8933TIP3    H226764   2.226   0.971   2.190  0.8952  0.2418  2.3179
 8934TIP3   OH226765   0.871   3.131   1.177 -0.0716 -0.5047 -0.6420
 8934TIP3    H126766   0.900   3.133   1.086  1.0472 -2.0985 -0.3600
 8934TIP3    H226767   0.887   3.041   1.205  1.4461  0.4050  1.7040
 8935TIP3   OH226768   4.854   0.364   4.906  0.2188 -0.0076 -0.5213
 8935TIP3    H126769   4.770   0.322   4.885  0.8552 -0.5623 -2.1091
 8935TIP3    H226770   4.888   0.393   4.821  1.2412  0.9873  0.1976
 8936TIP3   OH226771   0.091   4.011   5.786  0.6266 -0.7155 -0.2417
 8936TIP3    H126772   0.131   3.933   5.746  3.0734  0.2615  0.0962
 8936TIP3    H226773   0.059   3.981   5.871  1.5575 -1.3831 -0.1073
 8937TIP3   OH226774   0.141   4.951   0.180  0.7641 -0.0647 -0.5504
 8937TIP3    H126775   0.173   4.867   0.211  0.0539  0.9675  3.6177
 8937TIP3    H226776   0.200   5.015   0.218 -1.0507  1.4383 -0.0804
 8938TIP3   OH226777   5.152   0.956   0.278  0.1766 -0.1560  0.0036
 8938TIP3    H126778   5.105   0.899   0.339  1.4712 -1.6050 -0.2713
 8938TIP3    H226779   5.184   1.028   0.333  1.4000 -1.4764  1.1129
 8939TIP3   OH226780   7.191   1.870   3.895  0.5143  0.2629  0.4912
 8939TIP3    H126781   7.115   1.819   3.922  0.4821  1.0118  1.8825
 8939TIP3    H226782   7.203   1.848   3.802 -1.6382  0.4738  0.1266
 8940TIP3   OH226783   3.706   3.100   3.285 -0.4858 -0.3330  0.3878
 8940TIP3    H126784   3.640   3.146   3.234  0.9317 -0.2014 -1.4230
 8940TIP3    H226785   3.706   3.145   3.370 -1.7637  0.5187 -0.0330
 8941TIP3   OH226786   3.216   6.323   4.278 -0.4960  0.1050  0.5319
 8941TIP3    H126787   3.148   6.385   4.250  0.4886  1.0965  0.2621
 8941TIP3    H226788   3.278   6.376   4.327 -0.6717 -1.0756  2.1119
 8942TIP3   OH226789   1.171   6.518   0.150  0.2677  0.1854 -0.2260
 8942TIP3    H126790   1.194   6.509   0.243  0.8200  0.6853 -0.3156
 8942TIP3    H226791   1.254   6.534   0.106 -0.2976  2.8280 -0.4518
 8943TIP3   OH226792   6.167   6.638   3.602  0.5159  0.6394 -0.5965
 8943TIP3    H126793   6.164   6.715   3.658 -1.9046  0.2413 -0.0679
 8943TIP3    H226794   6.220   6.575   3.651  0.1859  1.0293  0.2824
 8944TIP3   OH226795   5.257   4.852   5.068  0.6618  0.0542 -0.0188
 8944TIP3    H126796   5.281   4.826   4.979  2.5595  0.4305  0.3422
 8944TIP3    H226797   5.174   4.808   5.084 -0.1344  0.5941 -2.2417
 8945TIP3   OH226798   5.846   2.978   4.535 -0.5108  0.2957 -0.0973
 8945TIP3    H126799   5.774   2.968   4.597 -1.4726  0.3945 -1.1561
 8945TIP3    H226800   5.891   2.893   4.537 -0.0147  0.5618  1.3086
 8946TIP3   OH226801   4.496   1.324   3.545 -0.1655  0.5341  0.3677
 8946TIP3    H126802   4.475   1.333   3.638  2.5069 -1.3798  1.2803
 8946TIP3    H226803   4.463   1.238   3.521  0.3240  0.4723 -0.0993
 8947TIP3   OH226804   4.516   3.817   1.017 -0.6523 -0.2645  0.4527
 8947TIP3    H126805   4.487   3.875   0.946 -0.5168 -0.5530  0.1593
 8947TIP3    H226806   4.494   3.729   0.987  2.5270 -0.7599 -0.8508
 8948TIP3   OH226807   6.585   5.894   3.110 -0.7098  0.4760  0.0213
 8948TIP3    H126808   6.597   5.836   3.186 -2.1811 -1.0473 -0.8379
 8948TIP3    H226809   6.492   5.916   3.110 -1.0135 -0.5382 -1.9509
 8949TIP3   OH226810   1.293   2.738   5.502  0.1702 -0.2471  0.0624
 8949TIP3    H126811   1.375   2.711   5.543  0.8666 -1.2305 -1.8743
 8949TIP3    H226812   1.302   2.712   5.410 -1.7564  0.8768 -0.5018
 8950TIP3   OH226813   3.356   6.735   3.458  0.1415  0.1561  0.1209
 8950TIP3    H126814   3.417   6.688   3.516  1.6858  0.6215 -1.0620
 8950TIP3    H226815   3.351   6.823   3.496 -1.6300 -0.4932  1.5154
 8951TIP3   OH226816   2.759   1.843   2.833 -0.3928  0.1666  0.6067
 8951TIP3    H126817   2.670   1.877   2.827 -0.3726  0.2117  0.5600
 8951TIP3    H226818   2.766   1.781   2.761 -0.6008 -0.3349  1.0110
 8952TIP3   OH226819   1.977   2.028   5.852 -0.5042 -0.3725 -0.2389
 8952TIP3    H126820   2.049   2.021   5.915 -1.6036  2.5928  1.5354
 8952TIP3    H226821   2.003   1.970   5.780  3.4653  0.2776  0.4273
 8953TIP3   OH226822   5.550   1.857   3.859 -0.4137 -0.7159  0.6916
 8953TIP3    H126823   5.630   1.868   3.910 -0.2547 -1.4443  0.6195
 8953TIP3    H226824   5.551   1.764   3.834 -0.2193 -0.2729 -1.0706
 8954TIP3   OH226825   4.453   6.585   1.040 -0.0050 -0.2877 -0.2155
 8954TIP3    H126826   4.471   6.670   1.000 -1.0743  0.5721  1.0362
 8954TIP3    H226827   4.446   6.524   0.966 -1.7604  1.1941 -1.3635
 8955TIP3   OH226828   6.960   1.199   2.246 -0.2624  0.1559  0.1118
 8955TIP3    H126829   6.994   1.223   2.332 -1.1934 -0.3949  0.6518
 8955TIP3    H226830   7.024   1.137   2.211  0.6275  1.1301 -0.0270
 8956TIP3   OH226831   4.359   1.641   3.606 -0.4438 -0.3580 -0.4671
 8956TIP3    H126832   4.337   1.701   3.676 -2.7455 -2.7254  1.0086
 8956TIP3    H226833   4.455   1.636   3.608 -0.4060 -1.1931  3.4077
 8957TIP3   OH226834   5.670   6.081   4.378  0.6154 -0.4674 -0.3425
 8957TIP3    H126835   5.612   6.005   4.386  1.1964 -0.7916  1.0987
 8957TIP3    H226836   5.687   6.088   4.284 -1.0889 -0.8567 -0.7167
 8958TIP3   OH226837   0.450   0.883   1.303 -0.2322 -0.1703  0.2150
 8958TIP3    H126838   0.503   0.955   1.336  1.5406 -2.0503  1.7076
 8958TIP3    H226839   0.513   0.817   1.276 -1.7839 -1.8734  0.5545
 8959TIP3   OH226840   4.450   5.542   1.640 -0.0924  0.5840 -0.2303
 8959TIP3    H126841   4.420   5.461   1.600  0.4026  1.0313 -1.5743
 8959TIP3    H226842   4.503   5.584   1.572 -0.2735  1.9969  0.4586
 8960TIP3   OH226843   0.601   4.957   3.695 -0.9520 -0.2820 -0.5777
 8960TIP3    H126844   0.553   4.921   3.620  1.7575 -0.5094 -2.3489
 8960TIP3    H226845   0.648   5.032   3.659  0.0706 -0.1168  1.0101
 8961TIP3   OH226846   1.564   4.135   5.764  0.0464  0.3237  0.3940
 8961TIP3    H126847   1.475   4.140   5.798  0.6892  2.4761  1.9434
 8961TIP3    H226848   1.561   4.187   5.683  0.1138  1.3465  1.0311
 8962TIP3   OH226849   4.989   6.643   4.048  0.0215 -0.3403 -0.5277
 8962TIP3    H126850   5.034   6.681   4.123 -1.4611  1.0168 -0.2585
 8962TIP3    H226851   4.961   6.719   3.997 -0.9191 -1.1672 -1.2679
 8963TIP3   OH226852   0.057   3.580   4.853 -0.9316 -0.1320 -0.0129
 8963TIP3    H126853   0.143   3.620   4.868 -0.8857  0.4952 -1.6690
 8963TIP3    H226854   0.076   3.499   4.807 -1.2291  0.3161 -0.9541
 8964TIP3   OH226855   1.025   4.889   1.329 -0.1357  0.1494 -0.2755
 8964TIP3    H126856   1.120   4.889   1.341 -0.3844  1.9071  2.9334
 8964TIP3    H226857   0.994   4.819   1.387 -0.8510 -0.6069 -1.5198
 8965TIP3   OH226858   1.564   1.940   3.524  0.4618  0.2958 -0.5159
 8965TIP3    H126859   1.604   1.862   3.562 -0.5882  0.1296  0.3071
 8965TIP3    H226860   1.492   1.906   3.470  0.1843  0.6736 -0.3869
 8966TIP3   OH226861   1.438   1.010   1.087  0.8686 -0.2952 -0.0153
 8966TIP3    H126862   1.386   0.930   1.087 -0.8278  0.7018  2.1140
 8966TIP3    H226863   1.528   0.980   1.096  0.6907 -2.0371 -2.7614
 8967TIP3   OH226864   0.271   2.635   0.595 -0.3323  0.8962  0.5005
 8967TIP3    H126865   0.242   2.718   0.557 -1.2028  1.0964  1.5519
 8967TIP3    H226866   0.210   2.618   0.667 -0.0521 -0.5580  0.4407
 8968TIP3   OH226867   0.679   4.581   4.843 -0.5023  0.0012 -0.1435
 8968TIP3    H126868   0.616   4.651   4.825 -1.3516  0.0650  2.6310
 8968TIP3    H226869   0.761   4.627   4.860  0.0964 -0.0191 -2.5306
 8969TIP3   OH226870   3.749   4.535   0.073  0.3428  0.2244  0.0425
 8969TIP3    H126871   3.825   4.592   0.083 -0.5940  1.6860 -0.7786
 8969TIP3    H226872   3.676   4.595   0.057 -0.9504 -1.1458  0.5297
 8970TIP3   OH226873   2.474   0.714   0.263 -0.5947  0.0333 -0.2050
 8970TIP3    H126874   2.532   0.742   0.333 -0.0739 -1.1875 -0.1298
 8970TIP3    H226875   2.436   0.796   0.229  2.8346  1.1608 -1.7604
 8971TIP3   OH226876   7.075   0.028   4.065  0.2830  0.1134 -0.3060
 8971TIP3    H126877   7.168   0.043   4.045  1.2098 -1.3901  2.3398
 8971TIP3    H226878   7.059  -0.061   4.035  0.0301 -0.0214  0.2190
 8972TIP3   OH226879   5.192   1.101   0.014 -0.1619  0.1775 -0.1932
 8972TIP3    H126880   5.152   1.188   0.024 -0.6945 -0.1832  1.0293
 8972TIP3    H226881   5.263   1.099   0.078 -0.1128 -0.2686 -0.2566
 8973TIP3   OH226882   5.905   3.912   3.832  0.2033  0.6761  0.0656
 8973TIP3    H126883   5.866   3.935   3.748 -1.5250 -2.4035 -0.1221
 8973TIP3    H226884   5.912   3.816   3.830  2.1912  0.6574  2.5677
 8974TIP3   OH226885   4.422   5.341   3.398 -0.7041  1.1298 -0.3576
 8974TIP3    H126886   4.363   5.349   3.324  0.6682  1.0200 -1.4980
 8974TIP3    H226887   4.508   5.327   3.359  0.1556  1.7157  1.2453
 8975TIP3   OH226888   2.936   6.057   1.944  0.1562  0.0693  0.0075
 8975TIP3    H126889   2.993   6.031   2.016 -1.0275  0.9971  1.3272
 8975TIP3    H226890   2.980   6.131   1.904 -0.0722  0.7477  0.9852
 8976TIP3   OH226891   0.954   3.068   0.603 -0.1232 -0.0032 -0.6478
 8976TIP3    H126892   0.960   3.136   0.536 -2.3544  0.3151 -0.6044
 8976TIP3    H226893   0.919   2.992   0.557  0.3590 -0.4700 -0.2573
 8977TIP3   OH226894   1.614   1.597   4.132 -0.3758 -0.5654  0.0876
 8977TIP3    H126895   1.642   1.612   4.042  1.5397  0.8594  0.8403
 8977TIP3    H226896   1.644   1.508   4.152 -0.0891 -0.5927 -0.4473
 8978TIP3   OH226897   1.683   4.308   5.346 -0.1993 -0.3349  0.0825
 8978TIP3    H126898   1.635   4.233   5.382 -0.0400 -2.2097 -3.2048
 8978TIP3    H226899   1.654   4.313   5.254 -0.5258  3.9943  0.2187
 8979TIP3   OH226900   2.969   2.707   4.838 -0.0372  0.4432  0.1275
 8979TIP3    H126901   2.930   2.730   4.922 -1.0439  0.5127 -0.3425
 8979TIP3    H226902   3.015   2.786   4.810 -0.7675  0.8381  0.0267
 8980TIP3   OH226903   1.583   5.773   0.228 -0.5880 -0.1562  0.4326
 8980TIP3    H126904   1.610   5.682   0.239 -1.8786 -1.1251 -2.9882
 8980TIP3    H226905   1.638   5.805   0.157 -2.7538  0.3939 -1.0903
 8981TIP3   OH226906   4.412   0.694   5.485 -0.0932 -0.4772 -0.1437
 8981TIP3    H126907   4.347   0.732   5.544 -0.3417 -1.4501  0.2280
 8981TIP3    H226908   4.380   0.605   5.468  0.2868 -0.4217 -1.2659
 8982TIP3   OH226909   1.622   1.872   2.722 -0.4775  0.3291 -0.2106
 8982TIP3    H126910   1.682   1.798   2.732  0.7042  1.5328  2.7369
 8982TIP3    H226911   1.670   1.935   2.669 -0.0859  0.3053  0.1079
 8983TIP3   OH226912   5.812   5.285   4.855  0.1537 -0.4993 -0.0440
 8983TIP3    H126913   5.837   5.360   4.909 -2.0786  0.7662 -0.6421
 8983TIP3    H226914   5.884   5.223   4.866  2.0440  1.6431  0.5844
 8984TIP3   OH226915   6.193   1.311   2.277 -0.0547 -0.4168  0.3567
 8984TIP3    H126916   6.217   1.365   2.202  1.5156 -0.0314  1.1039
 8984TIP3    H226917   6.101   1.289   2.261 -0.9305  2.8035  0.2221
 8985TIP3   OH226918   2.319   6.316   0.864  0.3009 -0.0253 -0.1465
 8985TIP3    H126919   2.315   6.293   0.771  0.6317  0.6143 -0.3266
 8985TIP3    H226920   2.238   6.283   0.901 -0.3186  0.6509 -0.8771
 8986TIP3   OH226921   3.525  -0.009   0.815 -0.3214  0.5531  0.0012
 8986TIP3    H126922   3.533   0.086   0.818  0.1338  0.4955  0.6181
 8986TIP3    H226923   3.614  -0.042   0.823 -0.2924  0.0908 -1.7205
 8987TIP3   OH226924   2.400   5.451   0.160 -0.0731 -0.0318  0.2827
 8987TIP3    H126925   2.411   5.458   0.065 -1.1503  0.4939  0.1743
 8987TIP3    H226926   2.475   5.497   0.197  0.8468 -1.0188 -0.2864
 8988TIP3   OH226927   2.231   1.107   1.808 -0.7046 -1.3403 -0.4627
 8988TIP3    H126928   2.253   1.025   1.853 -0.8914 -0.5553  1.1122
 8988TIP3    H226929   2.139   1.122   1.827 -0.1006  0.4602  1.3518
 8989TIP3   OH226930   1.795   0.547   2.329  0.1666  0.0930  0.3183
 8989TIP3    H126931   1.873   0.506   2.292  0.0182 -0.5454  0.6966
 8989TIP3    H226932   1.802   0.531   2.423 -1.6840 -2.2381  0.1535
 8990TIP3   OH226933   6.866   4.427   2.192  0.1163 -0.7595 -0.0253
 8990TIP3    H126934   6.957   4.455   2.179 -0.4610  1.5319  0.4312
 8990TIP3    H226935   6.846   4.374   2.115  1.1265  0.6561 -1.3279
 8991TIP3   OH226936   3.806   5.122   2.516 -0.0483  0.8397  0.4399
 8991TIP3    H126937   3.778   5.081   2.433  1.0557 -2.6648  1.6122
 8991TIP3    H226938   3.902   5.120   2.512  0.1048 -1.6719  2.6469
 8992TIP3   OH226939   4.967   2.263   3.212 -0.8191  0.6316  0.1313
 8992TIP3    H126940   4.987   2.191   3.153 -2.6240 -0.4201  0.7418
 8992TIP3    H226941   4.945   2.336   3.153  1.7495  1.0010 -0.4986
 8993TIP3   OH226942   5.115   6.479   4.733 -0.2478  0.2676  0.3991
 8993TIP3    H126943   5.060   6.552   4.760 -0.1461  0.8046 -0.7704
 8993TIP3    H226944   5.083   6.456   4.645 -0.5176 -1.3445  0.8711
 8994TIP3   OH226945   0.863   5.878   4.653  0.2821  0.1275  0.0809
 8994TIP3    H126946   0.863   5.862   4.748  1.1437  0.7352  0.1952
 8994TIP3    H226947   0.954   5.897   4.632  0.2247 -0.7187 -1.0096
 8995TIP3   OH226948   0.987   0.331   1.598 -0.6079 -0.2656 -0.0804
 8995TIP3    H126949   0.943   0.247   1.580 -1.3242  0.3773 -1.4819
 8995TIP3    H226950   0.939   0.368   1.671 -1.2636 -0.4038 -0.4327
 8996TIP3   OH226951   5.672   3.903   2.323  0.1667  0.1377  0.0565
 8996TIP3    H126952   5.760   3.929   2.351  0.9975 -1.5343 -0.9070
 8996TIP3    H226953   5.657   3.951   2.242  0.4081  0.0180 -0.0585
 8997TIP3   OH226954   1.389   0.515   3.244  0.3724 -0.1556  0.6171
 8997TIP3    H126955   1.430   0.431   3.223  0.2046 -0.2539  0.6788
 8997TIP3    H226956   1.417   0.573   3.173 -0.0461 -0.4396  0.2093
 8998TIP3   OH226957   6.274   4.368   5.551  0.6151 -0.0625  0.1775
 8998TIP3    H126958   6.294   4.448   5.502 -0.0448 -1.0004 -1.7366
 8998TIP3    H226959   6.359   4.325   5.560  0.6418 -0.3158 -1.0322
 8999TIP3   OH226960   2.580   2.533   4.225  0.0486  0.1764 -0.1363
 8999TIP3    H126961   2.581   2.497   4.136  0.2330 -0.5556  0.1575
 8999TIP3    H226962   2.608   2.624   4.214 -1.8617  0.7111 -1.0805
 9000TIP3   OH226963   4.612   4.907   0.365  0.1981 -0.1500  0.3069
 9000TIP3    H126964   4.703   4.935   0.356  0.6864 -1.1637  1.6999
 9000TIP3    H226965   4.591   4.920   0.457 -0.6177 -1.2138  0.2977
 9001TIP3   OH226966   2.077   0.398   4.384  0.0874  0.5109  0.6167
 9001TIP3    H126967   1.994   0.397   4.432  1.1878 -1.6780  2.7340
 9001TIP3    H226968   2.082   0.310   4.345  1.2624  0.7080  0.2965
 9002TIP3   OH226969   1.057   4.806   2.394  0.4712  0.3489  0.0339
 9002TIP3    H126970   0.998   4.784   2.322  0.1314  0.5320  0.2558
 9002TIP3    H226971   1.143   4.779   2.363  0.2113 -0.3190 -0.1243
 9003TIP3   OH226972   4.141   5.130   2.093  0.1305 -0.0981  0.3140
 9003TIP3    H126973   4.182   5.065   2.036  0.6539 -1.2028  1.8719
 9003TIP3    H226974   4.051   5.099   2.104 -0.8131  1.5793 -1.9990
 9004TIP3   OH226975   3.469   0.686   2.766  0.4658  0.3028 -0.3397
 9004TIP3    H126976   3.410   0.759   2.788 -0.9332 -0.2559 -2.0268
 9004TIP3    H226977   3.479   0.638   2.849  1.5463  2.4143  0.8592
 9005TIP3   OH226978   4.118   4.793   1.727  0.5004  0.0393 -0.3300
 9005TIP3    H126979   4.208   4.807   1.698  0.4598 -0.7625 -0.8909
 9005TIP3    H226980   4.064   4.811   1.650  0.0508  1.7326  0.3236
 9006TIP3   OH226981   4.377   4.302   0.832  0.4184  0.1567 -0.2323
 9006TIP3    H126982   4.283   4.318   0.834  0.4478  0.4559 -0.9678
 9006TIP3    H226983   4.394   4.262   0.747  1.1023  1.1790 -0.6075
 9007TIP3   OH226984   2.588   5.752   5.476  0.4985  0.2030 -0.8020
 9007TIP3    H126985   2.617   5.676   5.526 -0.2349  1.1128  1.0872
 9007TIP3    H226986   2.664   5.810   5.472  0.4239  0.3399 -0.2948
 9008TIP3   OH226987   6.251   6.751   1.340 -0.1642  0.3097  0.1777
 9008TIP3    H126988   6.317   6.716   1.281 -0.2644 -0.3971  0.4805
 9008TIP3    H226989   6.284   6.838   1.365  1.9136 -0.9775  2.2618
 9009TIP3   OH226990   2.466   6.345   3.036  0.4050  0.2519  0.3413
 9009TIP3    H126991   2.423   6.412   3.090 -0.8422  1.0529 -1.5480
 9009TIP3    H226992   2.544   6.389   3.002  0.2685  0.3197  0.1165
 9010TIP3   OH226993   0.630   4.336   4.972 -0.2902 -0.2153 -1.0890
 9010TIP3    H126994   0.700   4.353   5.034  0.3661  0.2820 -1.9350
 9010TIP3    H226995   0.614   4.421   4.930 -1.3250 -0.3447 -0.9873
 9011TIP3   OH226996   6.857   4.993   0.309  0.3475 -0.0370 -0.3627
 9011TIP3    H126997   6.785   4.997   0.372  0.0662  1.9188 -0.7460
 9011TIP3    H226998   6.923   4.939   0.352 -2.2021 -4.1613 -1.0058
 9012TIP3   OH226999   3.228   5.593   3.861  0.0383 -0.0501 -0.3640
 9012TIP3    H127000   3.217   5.523   3.796  0.1639  1.1134 -1.6860
 9012TIP3    H227001   3.245   5.671   3.809  1.4357  0.7024  1.1312
 9013TIP3   OH227002   5.291   4.868   5.621 -0.3615 -0.0666  0.2139
 9013TIP3    H127003   5.251   4.930   5.560  0.4898  0.6627  0.3615
 9013TIP3    H227004   5.287   4.783   5.576  0.9188  0.5754 -1.2233
 9014TIP3   OH227005   2.861   0.206   0.244 -0.2374 -0.4638 -0.7749
 9014TIP3    H127006   2.768   0.227   0.234 -0.2284  0.6661  1.0266
 9014TIP3    H227007   2.905   0.289   0.224  0.0253  0.4984  3.0465
 9015TIP3   OH227008   0.420   4.449   4.136 -0.1297 -0.0035  0.0493
 9015TIP3    H127009   0.460   4.457   4.223 -0.0710  1.5143 -0.1048
 9015TIP3    H227010   0.447   4.362   4.106  0.8577 -0.0634  1.0500
 9016TIP3   OH227011   0.768   3.094   1.471 -0.6603  0.0746  1.2130
 9016TIP3    H127012   0.860   3.115   1.480 -0.8081  0.6393  1.4192
 9016TIP3    H227013   0.740   3.140   1.392 -0.9320  0.4691  1.5391
 9017TIP3   OH227014   0.162   1.352   5.706  0.2955  0.1244  0.3528
 9017TIP3    H127015   0.103   1.344   5.631  0.0169 -0.5350  0.6367
 9017TIP3    H227016   0.248   1.328   5.671  0.2621  0.3357  0.1216
 9018TIP3   OH227017   5.515   3.732   2.467  0.4695  0.4663 -0.0777
 9018TIP3    H127018   5.437   3.785   2.453 -0.2725 -0.9038 -1.2553
 9018TIP3    H227019   5.588   3.793   2.451 -0.3457  1.3421 -0.5477
 9019TIP3   OH227020   7.170   5.808   0.560  0.2817  0.2387  0.1733
 9019TIP3    H127021   7.205   5.719   0.559 -0.4124 -0.0353 -0.2976
 9019TIP3    H227022   7.202   5.848   0.479  1.2636  0.7019  0.7604
 9020TIP3   OH227023   1.312   4.071   0.255  0.5223 -0.1698 -0.4163
 9020TIP3    H127024   1.312   4.082   0.160 -1.4189 -2.4869 -0.7845
 9020TIP3    H227025   1.267   4.149   0.288 -0.4342 -0.2028 -1.5775
 9021TIP3   OH227026   2.978   1.547   1.425  0.1181  0.7076 -0.3233
 9021TIP3    H127027   3.013   1.601   1.354  1.3592 -0.7527 -0.8783
 9021TIP3    H227028   2.934   1.475   1.380 -0.7233  0.7417  0.4111
 9022TIP3   OH227029   6.178   4.097   4.435 -0.3532 -0.0449  0.0985
 9022TIP3    H127030   6.244   4.084   4.504 -0.4704 -1.4566 -0.0102
 9022TIP3    H227031   6.219   4.061   4.356 -1.1607 -0.7688 -0.0085
 9023TIP3   OH227032   5.574   0.065   5.680  0.4123  0.6933  0.2412
 9023TIP3    H127033   5.514   0.074   5.754 -1.1356 -0.7372 -0.7677
 9023TIP3    H227034   5.660   0.052   5.720 -0.4836 -0.6710  1.8390
 9024TIP3   OH227035   5.410   2.028   2.626 -0.3831 -0.1980  0.0139
 9024TIP3    H127036   5.470   2.066   2.562 -0.4855 -1.2156 -0.7239
 9024TIP3    H227037   5.467   1.985   2.690 -0.2923 -0.1624 -0.0426
 9025TIP3   OH227038   6.832   5.786   1.809 -0.0321  0.1579 -0.1779
 9025TIP3    H127039   6.796   5.833   1.734  0.0281  1.1071  0.3763
 9025TIP3    H227040   6.755   5.753   1.855 -0.1003  0.3281 -0.1715
 9026TIP3   OH227041   0.601   2.331   5.762  0.0604  0.1655 -0.3154
 9026TIP3    H127042   0.516   2.289   5.748 -0.3101  0.2047  1.6145
 9026TIP3    H227043   0.580   2.423   5.776  0.2209 -0.0539  1.6580
 9027TIP3   OH227044   4.035   1.841   4.872  0.5345 -0.0306  0.3048
 9027TIP3    H127045   4.010   1.797   4.953 -2.1964  2.5904  1.0819
 9027TIP3    H227046   4.028   1.935   4.892  3.5945  0.8205 -1.9240
 9028TIP3   OH227047   6.185   2.422   4.582 -0.0005 -0.6706  0.2201
 9028TIP3    H127048   6.264   2.462   4.618 -0.3556 -1.2434  1.7275
 9028TIP3    H227049   6.119   2.432   4.651 -1.3688  0.1230 -1.1400
 9029TIP3   OH227050   4.739   3.654   1.887  0.5350 -0.0698  0.2615
 9029TIP3    H127051   4.688   3.576   1.862  1.2481 -0.0780 -1.2765
 9029TIP3    H227052   4.673   3.721   1.905 -0.0564 -0.3667 -0.7129
 9030TIP3   OH227053   6.753   2.404   1.259 -0.5759  0.3476  0.0542
 9030TIP3    H127054   6.659   2.418   1.269 -0.6448  0.0361 -0.1257
 9030TIP3    H227055   6.772   2.326   1.312 -0.6454 -0.3177 -0.8640
 9031TIP3   OH227056   5.791   0.851   4.093  0.0897  0.4566 -0.2687
 9031TIP3    H127057   5.753   0.765   4.110  1.0558 -0.5359 -2.6068
 9031TIP3    H227058   5.885   0.833   4.080  0.1697  1.6943 -1.6817
 9032TIP3   OH227059   4.294   2.620   5.505 -0.2656  0.6075 -0.3638
 9032TIP3    H127060   4.377   2.616   5.457 -0.3063  1.1574 -0.4851
 9032TIP3    H227061   4.318   2.646   5.594 -0.2629  0.3217 -0.2811
 9033TIP3   OH227062   5.173   6.080   5.915  0.1855  0.5149 -0.2234
 9033TIP3    H127063   5.095   6.114   5.871  0.3808  1.8746  0.4241
 9033TIP3    H227064   5.244   6.094   5.853  0.3332  1.7283  0.1893
 9034TIP3   OH227065   4.193   2.555   4.508 -0.1244 -0.6815  0.1358
 9034TIP3    H127066   4.233   2.640   4.489 -0.4651  0.0038  2.2040
 9034TIP3    H227067   4.099   2.571   4.500 -0.1595 -1.4132 -1.3632
 9035TIP3   OH227068   2.263   0.405   2.856 -0.0091  0.3035 -0.2753
 9035TIP3    H127069   2.254   0.498   2.835 -1.6466 -0.0540 -1.4122
 9035TIP3    H227070   2.175   0.378   2.881  0.9072 -0.4445  2.4946
 9036TIP3   OH227071   6.573   5.733   3.998  0.4726  0.1384  0.3503
 9036TIP3    H127072   6.482   5.722   3.969  1.2113 -1.1945 -1.6665
 9036TIP3    H227073   6.597   5.648   4.035  1.4386 -0.1058 -0.8006
 9037TIP3   OH227074   1.021   6.651   2.860  0.2147 -0.0403  0.2630
 9037TIP3    H127075   1.014   6.599   2.940 -1.8545  2.0278  1.5764
 9037TIP3    H227076   0.941   6.632   2.812  1.1461 -0.7750 -1.0429
 9038TIP3   OH227077   0.134   2.731   2.842 -0.0022 -0.0127 -0.0163
 9038TIP3    H127078   0.173   2.774   2.918 -0.3115  0.8913 -0.3561
 9038TIP3    H227079   0.171   2.777   2.767 -2.6678  1.8101 -0.3508
 9039TIP3   OH227080   0.219   2.884   0.493  0.4641 -0.0433 -0.1517
 9039TIP3    H127081   0.179   2.867   0.408 -0.0301  0.9906 -0.1406
 9039TIP3    H227082   0.145   2.884   0.555  0.6728  0.3296  0.1027
 9040TIP3   OH227083   0.808   0.547   4.858  0.0335 -0.0775  0.4510
 9040TIP3    H127084   0.723   0.529   4.898  0.2621 -1.1754  0.4846
 9040TIP3    H227085   0.802   0.637   4.826 -0.2708  0.7781  2.7154
 9041TIP3   OH227086   7.140   1.192   1.575  0.0893 -0.8029  0.2061
 9041TIP3    H127087   7.057   1.234   1.599 -0.6175 -1.3479 -1.1629
 9041TIP3    H227088   7.123   1.152   1.489  1.2669 -2.3698  0.6517
 9042TIP3   OH227089   5.025   4.398   1.914  0.5613  0.2826  0.3850
 9042TIP3    H127090   5.050   4.313   1.952 -2.1503 -1.6213 -1.6916
 9042TIP3    H227091   5.057   4.394   1.824  1.7361  2.2121  0.6626
 9043TIP3   OH227092   6.574   3.476   0.095 -0.7024 -0.1723  0.2477
 9043TIP3    H127093   6.551   3.535   0.023 -1.8754 -1.2431 -0.3049
 9043TIP3    H227094   6.665   3.452   0.078 -0.9505 -0.3859 -0.8846
 9044TIP3   OH227095   5.578   3.717   2.150 -0.2543  0.1127 -0.5437
 9044TIP3    H127096   5.608   3.738   2.239 -0.2461 -0.5775 -0.3709
 9044TIP3    H227097   5.501   3.772   2.137  0.0851  0.6404 -0.3291
 9045TIP3   OH227098   2.015   5.021   0.347  0.8348  0.2117 -0.3009
 9045TIP3    H127099   1.962   4.965   0.290  1.2882 -0.5548  0.0049
 9045TIP3    H227100   2.052   4.960   0.412  2.0403  0.7319 -0.4787
 9046TIP3   OH227101   6.068   1.570   5.457  0.6365  0.5836 -0.4050
 9046TIP3    H127102   6.041   1.485   5.490  2.2179  0.3951  0.4825
 9046TIP3    H227103   6.014   1.584   5.379 -0.9207 -0.3963  0.4495
 9047TIP3   OH227104   2.182   1.869   1.761  0.2133  0.0604 -0.9047
 9047TIP3    H127105   2.172   1.774   1.752  0.5075  0.1254 -2.0911
 9047TIP3    H227106   2.152   1.904   1.677 -3.4351  1.3333  0.6864
 9048TIP3   OH227107   4.803   3.346   5.071  0.1354 -0.0512  0.1291
 9048TIP3    H127108   4.764   3.280   5.013 -1.5602 -0.2214  1.3817
 9048TIP3    H227109   4.858   3.295   5.131 -1.2873 -0.4051  1.1896
 9049TIP3   OH227110   3.304   1.222   2.638 -0.4743  0.1004  0.1659
 9049TIP3    H127111   3.226   1.241   2.586 -0.7114 -0.1542  0.4273
 9049TIP3    H227112   3.354   1.159   2.585  0.3011  1.3911 -0.6936
 9050TIP3   OH227113   0.139   4.851   4.157  0.3454 -0.2237  0.5714
 9050TIP3    H127114   0.188   4.790   4.212 -0.1222  0.7138  2.0565
 9050TIP3    H227115   0.138   4.933   4.206 -0.1259  0.6384 -0.8218
 9051TIP3   OH227116   6.237   0.636   0.529 -0.5063  1.0764  0.0298
 9051TIP3    H127117   6.159   0.585   0.549 -1.2892  2.1637 -0.1233
 9051TIP3    H227118   6.241   0.701   0.600  0.9442  0.3198  0.7003
 9052TIP3   OH227119   3.809   1.671   4.983 -0.0979 -0.5538 -0.1604
 9052TIP3    H127120   3.894   1.665   5.026  0.8803  0.0776 -1.8798
 9052TIP3    H227121   3.794   1.584   4.946  0.4244 -0.3372 -0.9108
 9053TIP3   OH227122   6.876   2.163   1.360  0.1543 -0.8727  0.4457
 9053TIP3    H127123   6.854   2.070   1.359 -1.0383 -0.6063  0.1812
 9053TIP3    H227124   6.910   2.179   1.449 -0.7972 -1.3108  0.9017
 9054TIP3   OH227125   3.439   1.607   1.551 -0.0939  0.4731 -0.0215
 9054TIP3    H127126   3.486   1.593   1.470  1.1187 -2.5562  1.0460
 9054TIP3    H227127   3.350   1.631   1.524 -0.4538 -2.8421 -2.4258
 9055TIP3   OH227128   0.146   1.649   3.704  0.1067 -0.0724  0.2981
 9055TIP3    H127129   0.223   1.661   3.649 -0.8162 -1.1987 -1.3534
 9055TIP3    H227130   0.081   1.710   3.669 -0.0874  0.1392  1.0057
 9056TIP3   OH227131  -0.001   0.900   0.232  0.2655  0.1920  0.3968
 9056TIP3    H127132   0.074   0.849   0.264  0.7269  0.8704  0.4187
 9056TIP3    H227133   0.037   0.982   0.201 -0.2375 -0.2409 -1.4563
 9057TIP3   OH227134   3.446   4.394   2.952  0.0849  0.1781  0.3092
 9057TIP3    H127135   3.427   4.388   3.046 -1.3797  0.0536  0.0285
 9057TIP3    H227136   3.451   4.488   2.935 -1.1667  0.2484  0.2500
 9058TIP3   OH227137   0.991   0.887   4.029 -0.3325 -0.3284  0.1649
 9058TIP3    H127138   1.060   0.894   3.963 -1.1009 -0.7020 -0.6953
 9058TIP3    H227139   0.959   0.797   4.021 -1.5222  0.0946 -0.0710
 9059TIP3   OH227140   1.401   4.675   4.395 -0.2631 -0.0819  0.1907
 9059TIP3    H127141   1.460   4.602   4.413  0.9479  1.3471  2.6119
 9059TIP3    H227142   1.314   4.635   4.393  0.4316 -1.7074  0.5300
 9060TIP3   OH227143   5.102   4.519   3.270 -0.2390  0.4197 -0.0150
 9060TIP3    H127144   5.014   4.489   3.248 -0.1819  0.5940 -0.4743
 9060TIP3    H227145   5.147   4.529   3.186 -0.1414  1.4563  0.1517
 9061TIP3   OH227146   0.876   6.446   0.966 -0.0935  0.1501  0.3627
 9061TIP3    H127147   0.839   6.360   0.948 -0.1149 -0.0584  1.3355
 9061TIP3    H227148   0.910   6.439   1.055 -0.6550  1.3302  0.6886
 9062TIP3   OH227149   0.744   5.524   0.427 -0.0556  0.2910 -0.1246
 9062TIP3    H127150   0.834   5.511   0.397 -0.6556 -3.6366 -0.6601
 9062TIP3    H227151   0.700   5.565   0.352  0.8320  0.4008 -0.6034
 9063TIP3   OH227152   1.921   0.546   1.974  0.4784  0.0287  0.0044
 9063TIP3    H127153   1.956   0.483   2.038 -0.9217 -0.8558 -0.0585
 9063TIP3    H227154   1.858   0.495   1.923 -0.8424  1.5310  0.0751
 9064TIP3   OH227155   3.824   6.627   4.474  0.2741 -0.1742  0.4351
 9064TIP3    H127156   3.895   6.562   4.475  1.7746  1.4052  1.2029
 9064TIP3    H227157   3.868   6.711   4.471 -1.6101  0.8633  0.3924
 9065TIP3   OH227158   0.214   6.678   2.799  0.3964 -0.3833 -0.4808
 9065TIP3    H127159   0.216   6.773   2.802  0.7634 -0.3592 -1.2941
 9065TIP3    H227160   0.127   6.657   2.765  1.1289 -0.2409 -2.6104
 9066TIP3   OH227161   0.263   5.265   2.150 -0.5088 -0.9295 -0.4931
 9066TIP3    H127162   0.192   5.201   2.156  0.5950 -2.1337  0.4086
 9066TIP3    H227163   0.334   5.218   2.106 -0.3520  0.3546 -1.6772
 9067TIP3   OH227164   2.885   6.415   0.114 -0.5518 -0.5274 -0.2210
 9067TIP3    H127165   2.825   6.392   0.185 -1.5210 -0.8461 -1.1265
 9067TIP3    H227166   2.855   6.501   0.084 -0.0496 -0.3237 -0.1518
 9068TIP3   OH227167   4.202   6.196   0.295  0.3111 -0.2375  0.3725
 9068TIP3    H127168   4.147   6.119   0.281 -0.9563  0.4892  1.2608
 9068TIP3    H227169   4.238   6.184   0.383  1.3862 -0.5608 -0.0878
 9069TIP3   OH227170   3.850   0.358   4.878  0.6231 -0.0948  0.7550
 9069TIP3    H127171   3.823   0.428   4.819 -0.3932  0.5518  1.9405
 9069TIP3    H227172   3.863   0.402   4.962 -1.3363 -1.5036  1.8641
 9070TIP3   OH227173   6.664   6.018   2.434  0.0468  0.0705  0.5647
 9070TIP3    H127174   6.757   6.036   2.423 -0.0959 -0.2218 -1.3488
 9070TIP3    H227175   6.659   5.925   2.455  0.1941  0.1669  1.0415
 9071TIP3   OH227176   4.686   6.098   5.463  0.3363  0.3846 -0.3290
 9071TIP3    H127177   4.643   6.150   5.530 -1.3923 -0.6322 -0.5803
 9071TIP3    H227178   4.773   6.082   5.497 -0.3643  0.2449  1.4939
 9072TIP3   OH227179   2.015   6.068   1.319 -0.4455  0.5521 -0.0806
 9072TIP3    H127180   2.020   5.999   1.253 -0.0203 -0.1522  0.6554
 9072TIP3    H227181   1.956   6.032   1.386 -0.4360  1.0218  0.1814
 9073TIP3   OH227182   2.029   0.427   2.264 -0.3581 -0.3291 -0.0299
 9073TIP3    H127183   2.032   0.332   2.270  2.2824 -0.3080  0.3855
 9073TIP3    H227184   2.120   0.455   2.279 -0.9986  2.2420 -0.3849
 9074TIP3   OH227185   4.302   5.019   1.673  0.1389  0.3632  0.7139
 9074TIP3    H127186   4.364   4.976   1.614  0.3667  0.9507  0.5248
 9074TIP3    H227187   4.357   5.058   1.741 -0.0905  0.1026  1.0545
 9075TIP3   OH227188   3.890   4.868   5.741  0.1009  0.7049 -0.0529
 9075TIP3    H127189   3.912   4.947   5.692  0.5535  0.2331 -0.6422
 9075TIP3    H227190   3.797   4.855   5.726  0.0046  1.1841  0.1316
 9076TIP3   OH227191   0.213   4.200   5.342  0.0514 -0.2360  0.4389
 9076TIP3    H127192   0.259   4.153   5.412 -0.1353  0.0961  0.7836
 9076TIP3    H227193   0.135   4.236   5.384  0.1552  0.3277  0.1615
 9077TIP3   OH227194   1.705   2.403   3.725  0.1478 -0.0484 -0.8056
 9077TIP3    H127195   1.628   2.373   3.676  1.1910 -0.9913 -1.9476
 9077TIP3    H227196   1.688   2.378   3.815 -1.6331  1.3152 -0.7012
 9078TIP3   OH227197   0.550   1.102   0.196 -0.4029  0.9080  0.3846
 9078TIP3    H127198   0.631   1.153   0.197  0.1966 -0.0268  0.3189
 9078TIP3    H227199   0.577   1.013   0.172 -1.6142  0.8706 -1.0007
 9079TIP3   OH227200   1.732   0.202   0.484 -0.0133  0.1711 -0.0190
 9079TIP3    H127201   1.772   0.284   0.455  0.4829 -0.2029 -0.4037
 9079TIP3    H227202   1.644   0.203   0.445 -0.1746  0.7302  0.3582
 9080TIP3   OH227203   6.224   1.629   4.662 -0.8732  0.4294 -0.3215
 9080TIP3    H127204   6.149   1.645   4.605 -2.2277  0.5050  1.3897
 9080TIP3    H227205   6.196   1.557   4.718  0.0880  0.8828  0.7773
 9081TIP3   OH227206   0.068   6.094   4.705 -0.0815  0.0308 -0.6287
 9081TIP3    H127207   0.106   6.019   4.660  1.5483  0.9180 -0.8366
 9081TIP3    H227208  -0.003   6.123   4.649  0.7089 -0.0278 -1.6919
 9082TIP3   OH227209   7.130   0.968   3.397 -0.2777 -0.1658  0.1594
 9082TIP3    H127210   7.153   0.940   3.486 -2.3445 -0.9927  0.4787
 9082TIP3    H227211   7.132   0.888   3.345 -1.3084 -0.0651 -0.0418
 9083TIP3   OH227212   0.516   6.137   0.163  0.5654  0.6336  0.3639
 9083TIP3    H127213   0.433   6.185   0.160  1.1967  1.7434 -0.1365
 9083TIP3    H227214   0.552   6.147   0.074  0.0757 -1.9764 -0.2013
 9084TIP3   OH227215   0.956   3.134   3.355  0.1121  0.0154 -0.0837
 9084TIP3    H127216   0.989   3.154   3.267  1.1949  2.1618  0.7408
 9084TIP3    H227217   0.873   3.182   3.360  0.2350  0.2002  0.1806
 9085TIP3   OH227218   3.987   2.187   4.028  0.6586 -0.1634  0.0629
 9085TIP3    H127219   4.018   2.275   4.051  0.1258  0.4424 -1.4121
 9085TIP3    H227220   3.973   2.191   3.933  1.8788 -2.2507 -0.2549
 9086TIP3   OH227221   3.703   2.302   3.755 -0.1740  0.5931  0.1368
 9086TIP3    H127222   3.710   2.242   3.681  0.2811 -0.1872  0.7956
 9086TIP3    H227223   3.609   2.311   3.771 -0.2372 -0.2621  0.2753
 9087TIP3   OH227224   5.984   3.054   5.044  0.1487  0.2017  0.2239
 9087TIP3    H127225   5.973   3.115   4.970 -1.5015 -0.5034 -0.1573
 9087TIP3    H227226   5.972   3.109   5.122  0.4749  0.6895 -0.0630
 9088TIP3   OH227227   3.715   4.444   0.699  0.4648 -0.5681  0.5992
 9088TIP3    H127228   3.766   4.453   0.618  1.1088 -0.1728  1.0369
 9088TIP3    H227229   3.772   4.481   0.767 -0.2727 -0.4370  1.1531
 9089TIP3   OH227230   5.858   3.147   1.764 -0.6453  0.0551 -0.4861
 9089TIP3    H127231   5.806   3.224   1.787  0.8490  0.9266  0.1496
 9089TIP3    H227232   5.933   3.150   1.824  0.0148 -1.2762 -1.1914
 9090TIP3   OH227233   4.420   3.926   3.266 -0.1753  0.0515 -0.2970
 9090TIP3    H127234   4.473   4.005   3.278  0.3049 -0.1660 -0.9378
 9090TIP3    H227235   4.475   3.867   3.214 -0.5170 -0.7203  0.1888
 9091TIP3   OH227236   0.247   0.717   4.107  0.4343  0.6434 -0.2140
 9091TIP3    H127237   0.304   0.686   4.178  0.5888  2.2736  0.4308
 9091TIP3    H227238   0.194   0.786   4.148 -0.4773  0.6424 -1.3519
 9092TIP3   OH227239   0.580   0.497   2.492 -0.3444  0.2317 -0.8869
 9092TIP3    H127240   0.578   0.504   2.587  2.1965 -1.3143 -0.6416
 9092TIP3    H227241   0.662   0.539   2.466  1.3499 -3.3583 -1.8705
 9093TIP3   OH227242   0.518   0.092   2.040 -0.0557  0.1625  0.1546
 9093TIP3    H127243   0.461   0.060   1.970  2.9087 -1.0009 -1.8901
 9093TIP3    H227244   0.513   0.025   2.108 -0.3546 -0.4385 -0.4475
 9094TIP3   OH227245   3.040   1.075   1.600  0.0320 -0.3779 -0.2944
 9094TIP3    H127246   3.070   1.136   1.668 -2.4849  0.3522  0.2807
 9094TIP3    H227247   3.073   1.112   1.518  0.3324  0.5770  0.2431
 9095TIP3   OH227248   1.838   1.914   1.078 -0.4841 -0.6465  0.3067
 9095TIP3    H127249   1.760   1.917   1.133 -1.4824 -0.7303 -1.0645
 9095TIP3    H227250   1.807   1.937   0.990  1.4188  1.5807  0.1151
 9096TIP3   OH227251   2.389   2.791   3.756 -0.2993 -0.2568  0.0652
 9096TIP3    H127252   2.441   2.712   3.773  1.0576  1.0287  2.4416
 9096TIP3    H227253   2.313   2.782   3.813 -1.9922 -1.3680 -2.2169
 9097TIP3   OH227254   4.188   4.156   0.531  0.3467 -0.1154  0.3187
 9097TIP3    H127255   4.128   4.142   0.458  0.0281  0.7935  0.3908
 9097TIP3    H227256   4.170   4.084   0.591 -1.2713  0.5848  0.7205
 9098TIP3   OH227257   6.111   6.539   5.148 -0.3977  0.0607 -0.1679
 9098TIP3    H127258   6.071   6.554   5.062  0.4177  1.8041 -0.3005
 9098TIP3    H227259   6.139   6.626   5.176  3.9704 -1.0316 -0.4401
 9099TIP3   OH227260   0.893   3.319   5.477 -0.4003  0.1617 -0.0784
 9099TIP3    H127261   0.861   3.395   5.429 -0.3370  0.1488 -0.1401
 9099TIP3    H227262   0.828   3.250   5.459 -1.7302  0.8312  1.8069
 9100TIP3   OH227263   6.932   3.742   4.490  0.0669 -0.5591 -0.0153
 9100TIP3    H127264   6.850   3.771   4.530  0.2895  0.6775 -0.4016
 9100TIP3    H227265   6.969   3.821   4.451  1.5670 -1.0503  0.3488
 9101TIP3   OH227266   3.001   5.502   1.061 -0.3789  0.5368  0.5757
 9101TIP3    H127267   3.081   5.515   1.009 -0.6762 -0.0608 -0.0583
 9101TIP3    H227268   2.940   5.569   1.029 -0.6140  0.0728  0.0220
 9102TIP3   OH227269   5.776   2.560   3.742  0.5475  0.2177  0.0604
 9102TIP3    H127270   5.805   2.644   3.778  0.1794  1.2367 -1.8789
 9102TIP3    H227271   5.682   2.570   3.729  0.8786  0.5808 -2.6772
 9103TIP3   OH227272   0.870   4.157   4.547  0.6916 -0.0225 -0.1843
 9103TIP3    H127273   0.847   4.243   4.581 -0.3447 -0.5671  0.5457
 9103TIP3    H227274   0.798   4.133   4.489  0.3098 -0.9371  0.6314
 9104TIP3   OH227275   4.442   3.121   3.219  0.5563 -0.4508  0.3338
 9104TIP3    H127276   4.528   3.091   3.249  1.7348  1.9647 -0.3592
 9104TIP3    H227277   4.400   3.158   3.296 -0.8012 -3.4053  1.1362
 9105TIP3   OH227278   0.362   3.119   2.625  0.4051 -0.3957  0.2472
 9105TIP3    H127279   0.456   3.112   2.607  0.3523  0.3163 -0.3281
 9105TIP3    H227280   0.323   3.143   2.541 -0.1009  0.8509  0.8176
 9106TIP3   OH227281   5.670   5.650   0.831 -0.1125  0.2551 -0.5979
 9106TIP3    H127282   5.588   5.621   0.790 -0.1202 -0.2451 -0.2409
 9106TIP3    H227283   5.643   5.721   0.889 -0.2445  0.3329 -0.7541
 9107TIP3   OH227284   1.315   0.750   3.057 -0.0995  0.2955 -0.3076
 9107TIP3    H127285   1.303   0.689   2.984 -0.5602  0.8994 -0.7577
 9107TIP3    H227286   1.381   0.812   3.025 -1.9577  1.9314 -1.1644
 9108TIP3   OH227287   6.499   6.239   3.783  0.0804  0.0815 -0.4125
 9108TIP3    H127288   6.433   6.172   3.769 -0.2134 -0.3095  2.2575
 9108TIP3    H227289   6.583   6.193   3.778  0.0297  0.0659 -1.2133
 9109TIP3   OH227290   4.365   2.658   3.263 -0.2824  0.1282 -0.0133
 9109TIP3    H127291   4.348   2.721   3.193  0.2037 -0.8256 -1.0290
 9109TIP3    H227292   4.293   2.595   3.257  1.2193 -1.5642 -1.5879
 9110TIP3   OH227293   5.340   1.255   2.273  0.1030  0.2945  0.2590
 9110TIP3    H127294   5.388   1.255   2.357  1.2529  1.3752 -0.3545
 9110TIP3    H227295   5.305   1.343   2.266 -0.7525 -0.0616  0.0070
 9111TIP3   OH227296   4.140   2.433   0.236  0.4664 -0.6293 -0.1321
 9111TIP3    H127297   4.146   2.512   0.288 -0.0705 -0.0001 -1.0034
 9111TIP3    H227298   4.181   2.365   0.290  0.5899  0.1550  0.7755
 9112TIP3   OH227299   3.159   5.706   0.923  0.4893 -0.4309  0.0551
 9112TIP3    H127300   3.213   5.695   0.845  0.0129 -2.5626 -0.0393
 9112TIP3    H227301   3.186   5.790   0.959  2.3188 -0.4357 -1.1584
 9113TIP3   OH227302   1.697   3.762   0.992  0.0042  0.5588 -0.3609
 9113TIP3    H127303   1.654   3.779   0.908  0.0660 -1.8146 -0.9521
 9113TIP3    H227304   1.628   3.774   1.057 -0.4478  0.9066 -0.8963
 9114TIP3   OH227305   5.854   4.746   3.522  0.0773 -0.1516  0.4109
 9114TIP3    H127306   5.869   4.811   3.592  0.4625 -1.0005  1.1456
 9114TIP3    H227307   5.763   4.720   3.532 -0.1129  0.3685  0.0329
 9115TIP3   OH227308   2.120   2.992   0.927 -0.8346  0.7349 -0.5441
 9115TIP3    H127309   2.152   2.939   0.853  0.4812  1.3929 -0.4670
 9115TIP3    H227310   2.197   3.040   0.957 -0.8905 -0.7805  2.3807
 9116TIP3   OH227311   6.712   6.534   3.619  0.5559 -0.3471 -0.0096
 9116TIP3    H127312   6.693   6.466   3.554  1.3930 -0.4229 -0.1925
 9116TIP3    H227313   6.687   6.616   3.577  0.0942 -0.4930 -0.0176
 9117TIP3   OH227314   3.977   5.451   0.037  0.5869  0.1385 -0.3806
 9117TIP3    H127315   4.053   5.479  -0.014  0.5691 -0.4626 -0.7520
 9117TIP3    H227316   4.003   5.367   0.075 -0.8817 -1.6638 -2.9711
 9118TIP3   OH227317   1.918   6.069   2.747 -0.2262 -0.3125  0.1261
 9118TIP3    H127318   1.836   6.025   2.769  0.8491 -1.8662  1.1832
 9118TIP3    H227319   1.897   6.121   2.669 -1.9485 -1.4304 -0.2019
 9119TIP3   OH227320   6.556   2.673   5.298 -1.0967 -0.0904  0.8043
 9119TIP3    H127321   6.470   2.631   5.308 -1.4283  0.7044  1.4174
 9119TIP3    H227322   6.537   2.767   5.295 -0.2231  0.1091  1.1930
 9120TIP3   OH227323   3.792   2.913   5.423  0.2244  0.2520 -0.1546
 9120TIP3    H127324   3.718   2.968   5.450  1.2492  0.2412  3.0171
 9120TIP3    H227325   3.809   2.857   5.498  2.3272 -1.0402 -1.5019
 9121TIP3   OH227326   3.722   2.446   5.570 -0.7397 -0.0229 -0.4625
 9121TIP3    H127327   3.760   2.418   5.653  1.1230  1.1257 -0.8670
 9121TIP3    H227328   3.740   2.374   5.510 -0.6392 -0.1637 -0.2669
 9122TIP3   OH227329   4.117   0.468   0.158 -0.2657  0.1859 -0.4105
 9122TIP3    H127330   4.212   0.471   0.169 -0.2288 -1.0571 -0.3195
 9122TIP3    H227331   4.083   0.450   0.245 -0.6753  1.7073 -0.2249
 9123TIP3   OH227332   4.890   4.039   2.541  0.8491  0.5980 -0.1085
 9123TIP3    H127333   4.901   4.133   2.556  0.7397  0.7086 -0.6733
 9123TIP3    H227334   4.826   4.034   2.470  2.6812  0.1985 -1.8192
 9124TIP3   OH227335   3.466   6.173   5.330  0.8039  0.4642 -0.2396
 9124TIP3    H127336   3.547   6.216   5.302  2.5097 -1.0456  2.0340
 9124TIP3    H227337   3.475   6.165   5.425 -0.7991 -2.1287 -0.2180
 9125TIP3   OH227338   4.625   2.837   3.041  0.1317  0.5014 -0.6337
 9125TIP3    H127339   4.530   2.826   3.040  0.3041 -1.4442 -1.2375
 9125TIP3    H227340   4.652   2.816   2.951  1.1796  0.3899 -0.3092
 9126TIP3   OH227341   4.025  -0.021   2.014 -0.7632 -0.1634 -0.3365
 9126TIP3    H127342   4.117   0.005   2.022 -0.8958  0.0248  0.8625
 9126TIP3    H227343   3.984   0.049   1.963  0.0358 -0.9824 -2.1441
 9127TIP3   OH227344   3.352   2.104   5.319 -0.2548  0.5409  0.1321
 9127TIP3    H127345   3.325   2.126   5.229 -0.5269 -2.3702 -0.6168
 9127TIP3    H227346   3.283   2.047   5.351  1.0233 -0.4425  1.2621
 9128TIP3   OH227347   0.348   6.255   2.804  0.0500  0.1627 -0.5003
 9128TIP3    H127348   0.381   6.196   2.873 -0.2024  1.8693  1.1508
 9128TIP3    H227349   0.426   6.277   2.753  0.8916  1.3122  1.1823
 9129TIP3   OH227350   3.253   0.572   4.679  0.1534  0.2615 -0.3546
 9129TIP3    H127351   3.206   0.609   4.604 -0.0699 -0.0617 -0.3771
 9129TIP3    H227352   3.345   0.569   4.651  0.1901  0.9056 -0.3071
 9130TIP3   OH227353   5.560   0.485   0.852 -0.3959  0.3990 -0.4407
 9130TIP3    H127354   5.636   0.543   0.845 -0.5242  0.6244  0.0043
 9130TIP3    H227355   5.583   0.408   0.800 -0.3126  0.9452 -1.2334
 9131TIP3   OH227356   2.542   5.346   4.384  0.1204  0.2907 -0.3738
 9131TIP3    H127357   2.527   5.318   4.293  0.8015  0.3336 -0.4988
 9131TIP3    H227358   2.514   5.271   4.437 -2.4361  1.0462 -0.4846
 9132TIP3   OH227359   3.201   1.257   4.060  0.4912  0.4022 -0.1273
 9132TIP3    H127360   3.295   1.239   4.068  0.6133  0.1151 -1.8505
 9132TIP3    H227361   3.197   1.344   4.020  0.1050 -0.6083 -2.4198
 9133TIP3   OH227362   4.130   1.964   3.106 -0.6030 -0.3879  0.5452
 9133TIP3    H127363   4.124   2.025   3.032  0.1830 -0.2619  0.5746
 9133TIP3    H227364   4.221   1.934   3.105 -0.2239  0.5664  2.1974
 9134TIP3   OH227365   2.618   5.736   3.123  0.0112 -0.0168  0.1629
 9134TIP3    H127366   2.561   5.744   3.200 -1.8428 -4.4276 -0.4868
 9134TIP3    H227367   2.561   5.756   3.049 -0.7021 -3.6699 -0.4387
 9135TIP3   OH227368   6.834   3.561   1.560 -0.6660  0.3069  0.4706
 9135TIP3    H127369   6.781   3.609   1.496 -0.8061  3.1286  2.5300
 9135TIP3    H227370   6.798   3.587   1.645  2.2994  0.2556  1.8511
 9136TIP3   OH227371   1.376   6.729   5.908  0.5724  0.1606  0.5751
 9136TIP3    H127372   1.426   6.793   5.857 -1.3665  2.7771  1.7169
 9136TIP3    H227373   1.381   6.649   5.856  2.0890  1.5460 -1.6219
 9137TIP3   OH227374   4.806   5.479   3.904  0.2334 -0.2988 -0.3552
 9137TIP3    H127375   4.871   5.508   3.968  0.0624  0.2254 -0.4111
 9137TIP3    H227376   4.756   5.411   3.950 -0.2584  0.4654  0.2811
 9138TIP3   OH227377   5.836   1.956   2.321  0.2270  0.3380  0.5283
 9138TIP3    H127378   5.786   2.007   2.257  0.8313  1.2487  0.7588
 9138TIP3    H227379   5.771   1.905   2.368 -0.1757 -0.9100 -1.2772
 9139TIP3   OH227380   0.579   3.098   5.141  0.2112 -0.2875 -0.4722
 9139TIP3    H127381   0.583   3.071   5.049 -0.9558  0.1784 -0.6855
 9139TIP3    H227382   0.506   3.048   5.177  1.2110 -1.1205  0.4539
 9140TIP3   OH227383   0.369   2.108   1.997  0.3201  0.8890 -0.1423
 9140TIP3    H127384   0.337   2.019   1.979 -1.8274  1.0361  2.3513
 9140TIP3    H227385   0.464   2.098   2.001  0.5084 -0.3946 -3.9449
 9141TIP3   OH227386   0.707   6.551   0.322 -0.2443 -0.5510 -0.1601
 9141TIP3    H127387   0.615   6.525   0.315  0.2787 -2.1174 -2.0934
 9141TIP3    H227388   0.711   6.637   0.281 -0.6648 -1.0051 -1.1820
 9142TIP3   OH227389   1.756   2.423   5.166 -0.2176 -1.1816  0.3061
 9142TIP3    H127390   1.676   2.450   5.121 -0.8641 -2.5088  0.5987
 9142TIP3    H227391   1.731   2.345   5.215  0.1381  0.7866  3.9540
 9143TIP3   OH227392   4.926   6.042   1.955  0.3307 -0.3802 -0.3978
 9143TIP3    H127393   4.880   6.123   1.978  3.2013  0.5228  3.1655
 9143TIP3    H227394   4.907   5.982   2.027  2.3278 -0.9521 -0.2696
 9144TIP3   OH227395   5.560   6.381   4.630 -0.1984 -0.0768  0.8590
 9144TIP3    H127396   5.536   6.390   4.722 -1.5959  0.5618  0.4607
 9144TIP3    H227397   5.485   6.338   4.589 -1.0135  2.4665 -0.5453
 9145TIP3   OH227398   5.457   4.923   4.379 -0.3333 -0.2494  0.5164
 9145TIP3    H127399   5.424   4.959   4.297  2.0651  0.2637 -0.3050
 9145TIP3    H227400   5.520   4.856   4.351 -1.4099 -1.9897  2.0047
 9146TIP3   OH227401   0.469   5.289   1.396 -0.3062  0.5988  0.0515
 9146TIP3    H127402   0.476   5.306   1.302  1.8825  2.3261  0.4729
 9146TIP3    H227403   0.385   5.328   1.421 -0.2251  1.4229 -0.9186
 9147TIP3   OH227404   1.826   3.633   0.596 -0.1013  0.1935 -0.9926
 9147TIP3    H127405   1.913   3.607   0.566  0.6782  1.5548 -0.0219
 9147TIP3    H227406   1.820   3.726   0.574  0.3140  1.1556  2.4165
 9148TIP3   OH227407   5.231   1.373   2.583  0.1355  0.2683  0.0062
 9148TIP3    H127408   5.320   1.408   2.585 -0.2217  1.2420 -0.4994
 9148TIP3    H227409   5.198   1.396   2.496 -1.2431  1.5535  0.8250
 9149TIP3   OH227410   4.712   0.356   3.281 -0.2583  0.4511 -0.3580
 9149TIP3    H127411   4.690   0.446   3.304 -0.3393 -0.0081  1.5572
 9149TIP3    H227412   4.633   0.306   3.302  0.8481 -0.5034  1.8173
 9150TIP3   OH227413   4.738   1.777   2.681 -0.2705 -0.4101 -0.3894
 9150TIP3    H127414   4.791   1.743   2.609 -2.4903 -1.1601 -1.7624
 9150TIP3    H227415   4.729   1.702   2.740 -1.2773 -0.8556 -1.0796
 9151TIP3   OH227416   0.900   6.062   1.151 -0.0085  0.4053  0.3696
 9151TIP3    H127417   0.979   6.029   1.108  1.7044  2.3115  1.8572
 9151TIP3    H227418   0.916   6.047   1.244 -1.2485  1.1503  0.7185
 9152TIP3   OH227419   3.731   2.996   0.409 -0.4652  0.1267  0.1847
 9152TIP3    H127420   3.756   3.074   0.360  2.0603 -0.9674 -0.4064
 9152TIP3    H227421   3.704   3.029   0.495  2.1410  1.5975  0.5387
 9153TIP3   OH227422   2.857   4.673   0.686 -0.6517 -0.2386  0.0199
 9153TIP3    H127423   2.765   4.648   0.694 -0.1747 -1.6064  1.7945
 9153TIP3    H227424   2.883   4.637   0.601 -0.8577 -3.1894  1.0912
 9154TIP3   OH227425   0.463   5.228   2.896  0.5026 -0.3257 -0.0751
 9154TIP3    H127426   0.416   5.150   2.866 -0.7666 -0.1613  1.3694
 9154TIP3    H227427   0.433   5.241   2.986  1.8413  0.9631  0.2217
 9155TIP3   OH227428   0.317   1.221   4.479  0.5574  0.4037 -0.1007
 9155TIP3    H127429   0.351   1.311   4.473  0.1428  0.6763  1.3119
 9155TIP3    H227430   0.249   1.226   4.546 -0.3446 -0.7158 -0.8974
 9156TIP3   OH227431   3.326   4.678   4.801  0.7310  0.1988 -0.4960
 9156TIP3    H127432   3.288   4.593   4.780  0.1172  0.1518  0.7355
 9156TIP3    H227433   3.314   4.730   4.721  0.6612 -0.7052 -1.0866
 9157TIP3   OH227434   1.267   3.472   2.100 -0.4954  0.9089  0.0722
 9157TIP3    H127435   1.275   3.456   2.006  1.2699 -1.0679  0.4649
 9157TIP3    H227436   1.298   3.390   2.140 -0.7509  1.8736  2.3724
 9158TIP3   OH227437   5.602   2.026   3.194  0.0599 -0.0040 -0.4042
 9158TIP3    H127438   5.665   1.960   3.165 -0.5473 -0.5809 -0.4157
 9158TIP3    H227439   5.560   2.055   3.113 -1.2556 -1.2284 -0.2063
 9159TIP3   OH227440   5.763   3.840   2.740 -0.2575 -0.2213 -0.5090
 9159TIP3    H127441   5.751   3.745   2.744  0.2182 -0.2476  0.4801
 9159TIP3    H227442   5.675   3.876   2.750 -0.1548 -0.5135  2.2888
 9160TIP3   OH227443   1.633   2.380  -0.018  0.2369 -0.0242  0.3169
 9160TIP3    H127444   1.642   2.383   0.077  4.2391  1.0047  0.1042
 9160TIP3    H227445   1.675   2.461  -0.049 -0.2137 -0.6988 -2.3539
 9161TIP3   OH227446   2.806   1.101   2.655  0.0948 -1.3237 -0.2521
 9161TIP3    H127447   2.890   1.058   2.637  1.1050 -0.2661  1.7022
 9161TIP3    H227448   2.823   1.194   2.640 -0.6542 -1.0768  0.3870
 9162TIP3   OH227449   4.811   3.337   2.287  0.5833  0.5434  0.5187
 9162TIP3    H127450   4.903   3.332   2.315  0.3163 -2.6354  1.2635
 9162TIP3    H227451   4.761   3.314   2.366 -0.6020 -1.2299 -0.6692
 9163TIP3   OH227452   0.280   5.031   3.930 -0.7479  0.2817 -0.0961
 9163TIP3    H127453   0.274   4.967   4.000  2.1557 -0.1426 -0.1462
 9163TIP3    H227454   0.268   5.115   3.974 -1.7338 -0.1112  0.4240
 9164TIP3   OH227455   4.696   3.054   1.787 -0.0752 -0.0280  0.2012
 9164TIP3    H127456   4.618   3.085   1.834 -0.3695  0.3909 -0.5472
 9164TIP3    H227457   4.742   3.133   1.763 -0.6445 -0.1542 -1.4122
 9165TIP3   OH227458   6.044   5.462   4.156 -0.0997  0.0260 -0.4081
 9165TIP3    H127459   6.013   5.552   4.153  0.1635  0.0946 -1.2396
 9165TIP3    H227460   6.140   5.470   4.160 -0.1220 -0.1933  1.5302
 9166TIP3   OH227461   3.497   5.727   1.399  0.1696  0.3880 -0.1200
 9166TIP3    H127462   3.583   5.743   1.437  0.0102 -0.6299  0.7081
 9166TIP3    H227463   3.436   5.742   1.471 -0.2652  0.0482 -0.4153
 9167TIP3   OH227464   6.786   5.954   5.269 -0.5141 -0.2623 -0.6620
 9167TIP3    H127465   6.715   5.914   5.219 -2.0859  0.8000  0.6379
 9167TIP3    H227466   6.783   5.911   5.354  0.4996 -0.2893 -0.6239
 9168TIP3   OH227467   7.120   2.645   5.364 -0.3999 -0.3543  0.9156
 9168TIP3    H127468   7.091   2.554   5.370 -1.5262 -0.0435  0.4312
 9168TIP3    H227469   7.042   2.696   5.385 -0.6393  0.5475 -1.8367
 9169TIP3   OH227470   2.156   3.086   2.890 -0.0860  0.3145 -0.5486
 9169TIP3    H127471   2.167   3.021   2.821  1.5282 -0.6040  0.5062
 9169TIP3    H227472   2.239   3.133   2.892  0.6181 -0.8559  1.8707
 9170TIP3   OH227473   3.570   5.015   3.825 -0.1950 -0.2713  0.8971
 9170TIP3    H127474   3.640   4.950   3.831 -0.8629 -1.1686 -0.5396
 9170TIP3    H227475   3.591   5.079   3.893  1.5040 -1.0076  1.1181
 9171TIP3   OH227476   2.984   6.097   3.670 -0.0822 -0.2775 -0.5849
 9171TIP3    H127477   3.023   6.077   3.755  0.7521  1.8964 -0.3897
 9171TIP3    H227478   2.936   6.179   3.684  0.8759  0.6632 -2.3731
 9172TIP3   OH227479   3.162   6.535   3.395 -0.5731  0.2494 -0.4499
 9172TIP3    H127480   3.118   6.514   3.477 -0.6971 -0.2363 -0.6352
 9172TIP3    H227481   3.224   6.603   3.418 -0.8209  0.3323 -0.0131
 9173TIP3   OH227482   2.535   4.714   1.049 -0.7193  0.0711  0.2776
 9173TIP3    H127483   2.526   4.632   1.096 -1.3977 -1.0059 -1.6136
 9173TIP3    H227484   2.597   4.695   0.978 -1.0860  1.0976 -0.3468
 9174TIP3   OH227485   1.026   4.147   0.591  0.0665 -0.1128 -0.0191
 9174TIP3    H127486   0.961   4.079   0.609  0.8525 -0.7042  0.7183
 9174TIP3    H227487   0.975   4.227   0.578 -0.7584 -0.2095  2.2139
 9175TIP3   OH227488   2.490   1.188   2.125  0.1407 -0.4164  0.2198
 9175TIP3    H127489   2.401   1.154   2.139  0.2393  0.0424  2.2196
 9175TIP3    H227490   2.482   1.282   2.136  0.7060 -0.2599 -0.6427
 9176TIP3   OH227491   1.067   3.561   0.282 -0.3584 -0.3171 -0.1928
 9176TIP3    H127492   1.013   3.629   0.243 -0.5806  0.2977  1.1289
 9176TIP3    H227493   1.156   3.593   0.274 -0.3008 -0.6778 -1.1038
 9177TIP3   OH227494   2.919   3.550   0.402 -0.4004  0.2548 -0.8165
 9177TIP3    H127495   2.935   3.642   0.384  2.1368  0.1096  0.2482
 9177TIP3    H227496   2.843   3.549   0.460  0.5991  1.8409  0.5894
 9178TIP3   OH227497   6.268   2.666   5.887 -0.0294 -0.0098 -0.2528
 9178TIP3    H127498   6.209   2.727   5.930  0.8481  0.1316  0.7846
 9178TIP3    H227499   6.213   2.619   5.824 -1.4538 -0.5312  1.3069
 9179TIP3   OH227500   5.694   6.411   3.604 -0.3910 -1.0258 -0.1109
 9179TIP3    H127501   5.773   6.398   3.552 -0.3647 -0.7971 -0.1276
 9179TIP3    H227502   5.638   6.467   3.550  0.1920  0.3471  0.6684
 9180TIP3   OH227503   5.932   4.957   5.067 -0.1301 -0.6609 -0.1878
 9180TIP3    H127504   5.943   4.863   5.081  1.0236 -0.3789  1.0162
 9180TIP3    H227505   5.867   4.983   5.133 -0.3395 -0.5832 -0.4246
 9181TIP3   OH227506   2.352   3.161   2.483 -0.2757  0.2935  0.1412
 9181TIP3    H127507   2.441   3.130   2.496 -0.5201 -0.1099  0.8977
 9181TIP3    H227508   2.321   3.113   2.406  0.2901  0.7328 -0.3655
 9182TIP3   OH227509   6.345   3.720   3.584 -0.5622 -0.4504 -0.1483
 9182TIP3    H127510   6.392   3.773   3.520 -0.6277  0.4096  0.5119
 9182TIP3    H227511   6.372   3.630   3.564  1.7216  0.0290  0.4667
 9183TIP3   OH227512   0.013   2.211   1.674 -0.3784 -0.4749  0.1917
 9183TIP3    H127513   0.001   2.186   1.766 -1.8508 -0.4814  0.0119
 9183TIP3    H227514   0.063   2.292   1.678 -1.4608  0.1795  1.0749
 9184TIP3   OH227515   4.306   1.938   1.246 -0.0759  0.1422  0.2053
 9184TIP3    H127516   4.271   2.003   1.184 -0.7355  0.9309  1.3538
 9184TIP3    H227517   4.399   1.933   1.226  0.3975  2.8676  1.2286
 9185TIP3   OH227518   1.754   0.373   5.278  0.1229 -0.0709 -0.2055
 9185TIP3    H127519   1.714   0.350   5.194  0.4358 -1.3208 -0.0411
 9185TIP3    H227520   1.793   0.459   5.264  2.8520 -1.4949 -2.3265
 9186TIP3   OH227521   6.308   0.600   3.293  0.3119  0.3302 -0.0936
 9186TIP3    H127522   6.404   0.596   3.288  0.3932  0.4951  1.1244
 9186TIP3    H227523   6.283   0.659   3.222  0.8652 -1.9967 -2.4021
 9187TIP3   OH227524   2.617   2.332   5.830  0.0361  0.8332 -0.4651
 9187TIP3    H127525   2.566   2.396   5.880  0.8495  0.1094  1.3686
 9187TIP3    H227526   2.701   2.375   5.814  0.4178  0.4230  0.3724
 9188TIP3   OH227527   0.296  -0.015   5.855 -0.2110 -0.5975  0.5703
 9188TIP3    H127528   0.385  -0.004   5.822  0.7982 -3.5957  1.9257
 9188TIP3    H227529   0.286   0.054   5.920  0.8954  0.1242  0.0045
 9189TIP3   OH227530   4.060   2.294   1.428  0.1343  0.1245 -0.0480
 9189TIP3    H127531   4.088   2.203   1.438 -0.8890 -0.2912 -0.7170
 9189TIP3    H227532   4.074   2.333   1.514  2.6739 -0.0378 -0.3187
 9190TIP3   OH227533   3.333   1.380   1.378  0.3226 -0.2421  0.1326
 9190TIP3    H127534   3.368   1.328   1.450 -0.2452 -1.3437 -0.3569
 9190TIP3    H227535   3.362   1.334   1.299  0.1166  0.3915 -0.3186
 9191TIP3   OH227536   6.205   5.024   0.485 -0.1317  0.3402 -0.5368
 9191TIP3    H127537   6.130   5.049   0.432  0.7245  1.5561 -1.2437
 9191TIP3    H227538   6.274   5.085   0.458  0.9123 -0.3181  0.5537
 9192TIP3   OH227539   2.426   5.879   4.459 -0.4172 -0.2649 -0.2712
 9192TIP3    H127540   2.444   5.830   4.379  0.1453 -1.0184  0.2944
 9192TIP3    H227541   2.404   5.812   4.524 -0.6289  0.3110  0.2663
 9193TIP3   OH227542   1.496   5.306   4.314  0.4431  0.1328 -0.3309
 9193TIP3    H127543   1.531   5.259   4.389  1.9273  0.6332 -0.6707
 9193TIP3    H227544   1.557   5.286   4.243 -0.1147  0.8360 -1.0233
 9194TIP3   OH227545   0.956   5.906   3.297 -0.2311 -0.1323 -0.0642
 9194TIP3    H127546   1.009   5.865   3.365 -1.3265 -0.8449  0.3916
 9194TIP3    H227547   0.994   5.876   3.215  1.4631  1.1953  0.1866
 9195TIP3   OH227548   6.374   5.495   1.237  0.5857  0.0999  0.0185
 9195TIP3    H127549   6.431   5.483   1.161 -1.6911  0.8261 -1.9442
 9195TIP3    H227550   6.366   5.590   1.245 -1.5385  0.0328 -0.7823
 9196TIP3   OH227551   5.549   5.076   1.511  0.0005 -0.4537  0.3773
 9196TIP3    H127552   5.565   5.171   1.508 -0.6636 -0.3498 -0.0999
 9196TIP3    H227553   5.586   5.049   1.595  0.8586  0.0988  0.1929
 9197TIP3   OH227554   6.937   3.116   1.406  0.1957 -0.2098  0.1213
 9197TIP3    H127555   6.882   3.140   1.331  0.9850  0.8106 -0.1459
 9197TIP3    H227556   6.952   3.022   1.394 -1.7524 -0.6077  0.3954
 9198TIP3   OH227557   5.629   3.510   3.942 -0.0201 -0.1291 -0.2452
 9198TIP3    H127558   5.680   3.551   4.012  0.8602 -1.3275 -0.1282
 9198TIP3    H227559   5.677   3.428   3.924 -0.0855  0.2589 -2.4080
 9199TIP3   OH227560   3.066   5.768   1.749 -0.1436  0.4916 -0.0889
 9199TIP3    H127561   3.116   5.835   1.795 -0.1516 -0.5061  1.4614
 9199TIP3    H227562   3.071   5.793   1.657 -1.1593  3.2611  0.5219
 9200TIP3   OH227563   4.365   6.777   5.106 -0.3999  0.2117 -0.1227
 9200TIP3    H127564   4.363   6.692   5.150 -0.7789  0.7552  0.9564
 9200TIP3    H227565   4.355   6.840   5.177  1.9717  1.2610 -0.6189
 9201TIP3   OH227566   3.250   0.554   1.241  0.2811 -0.6950 -0.4997
 9201TIP3    H127567   3.254   0.597   1.327 -2.5756 -0.2765 -0.4811
 9201TIP3    H227568   3.328   0.586   1.195  0.7938  0.7003  1.2148
 9202TIP3   OH227569   3.407   0.572   4.997 -0.1655 -0.0748 -0.0112
 9202TIP3    H127570   3.348   0.621   4.940 -1.0755  1.5359  2.1841
 9202TIP3    H227571   3.488   0.624   4.998  0.4897 -1.0348 -1.1679
 9203TIP3   OH227572   4.288   1.318   2.178 -0.3340  0.0809 -0.0177
 9203TIP3    H127573   4.243   1.397   2.147  0.1806  1.1473  1.7821
 9203TIP3    H227574   4.225   1.247   2.164 -1.0942  0.9258 -1.0046
 9204TIP3   OH227575   4.826   1.853   3.822 -0.1024  0.3116 -0.5751
 9204TIP3    H127576   4.797   1.939   3.851  0.1749  0.8234 -1.7265
 9204TIP3    H227577   4.753   1.819   3.771 -0.6664 -0.6569  0.8253
 9205TIP3   OH227578   5.589   1.780   0.968  0.4517  0.6054 -0.5510
 9205TIP3    H127579   5.624   1.804   1.054  1.9339 -0.8164 -0.7112
 9205TIP3    H227580   5.495   1.768   0.983  0.7440 -0.0299  0.9895
 9206TIP3   OH227581   2.744   4.140   2.690  0.3044  0.0096 -0.1694
 9206TIP3    H127582   2.698   4.222   2.672 -1.5046 -1.0329 -0.6263
 9206TIP3    H227583   2.763   4.104   2.603 -1.2939 -1.2437 -0.0749
 9207TIP3   OH227584   2.574   6.096   2.287 -0.4854 -0.2494 -0.0092
 9207TIP3    H127585   2.606   6.113   2.198  0.2837 -0.2364  0.2647
 9207TIP3    H227586   2.572   6.182   2.329  0.2795 -0.4058  0.3536
 9208TIP3   OH227587   3.426   0.152   4.706  0.4072 -0.0899 -0.4387
 9208TIP3    H127588   3.381   0.167   4.789  1.5134 -0.0057  0.1638
 9208TIP3    H227589   3.390   0.070   4.673 -0.0570 -0.1125  0.1192
 9209TIP3   OH227590   3.031   5.047   4.269  0.1896 -0.5991  0.1275
 9209TIP3    H127591   3.123   5.056   4.244  0.3807  0.1600  1.0480
 9209TIP3    H227592   2.986   5.030   4.187  0.7781  1.8280 -0.8019
 9210TIP3   OH227593   1.474   0.607   0.281 -0.1583 -0.0410  0.2608
 9210TIP3    H127594   1.491   0.522   0.239 -0.6068 -0.1967  0.3908
 9210TIP3    H227595   1.488   0.671   0.211  0.3482 -0.2057  0.2042
 9211TIP3   OH227596   4.029   5.350   3.140 -0.3161 -0.1079 -0.4094
 9211TIP3    H127597   4.055   5.277   3.084 -1.2555 -1.2826  0.6346
 9211TIP3    H227598   4.112   5.381   3.178  0.0178 -1.2131 -0.1944
 9212TIP3   OH227599   3.848   2.998   3.570  0.5849  0.0863  0.1733
 9212TIP3    H127600   3.782   3.067   3.555 -0.7986 -0.4897  2.9059
 9212TIP3    H227601   3.912   3.039   3.629  0.6209 -0.4472  0.5130
 9213TIP3   OH227602   2.579   4.953   5.633  0.0555  0.0405 -0.3135
 9213TIP3    H127603   2.650   4.894   5.610 -0.0588 -0.0969 -0.3186
 9213TIP3    H227604   2.621   5.037   5.651  0.2135 -0.0314 -0.3517
 9214TIP3   OH227605   3.529   3.170   3.754  0.1954  0.1143  0.0311
 9214TIP3    H127606   3.591   3.199   3.686 -1.1123  0.3399 -1.1101
 9214TIP3    H227607   3.469   3.111   3.708 -0.8014  0.3691  0.9627
 9215TIP3   OH227608   5.006   3.082   0.720 -0.5123  0.3268 -0.4778
 9215TIP3    H127609   5.054   3.014   0.767 -0.9059  0.7430  0.5514
 9215TIP3    H227610   5.072   3.149   0.702 -0.1316 -0.2916 -1.4664
 9216TIP3   OH227611   0.095   6.092   1.784  0.2863 -0.2881  0.9148
 9216TIP3    H127612   0.070   6.009   1.824  2.6528 -0.6241  1.8892
 9216TIP3    H227613   0.179   6.113   1.825 -0.0895  2.4365  0.4511
 9217TIP3   OH227614   2.088   5.800   4.674 -0.1122  0.9454 -0.1793
 9217TIP3    H127615   2.047   5.720   4.641 -1.7258  1.3715  0.7071
 9217TIP3    H227616   2.177   5.798   4.638 -0.0322 -1.3574  0.0035
 9218TIP3   OH227617   0.034   6.598   0.873  0.5966  0.2082 -0.3053
 9218TIP3    H127618   0.113   6.629   0.917  1.6104 -1.4731 -0.8003
 9218TIP3    H227619  -0.003   6.534   0.934  0.5882 -0.2621 -0.7997
 9219TIP3   OH227620   1.812   1.213   1.453 -0.0436  0.0429  0.2030
 9219TIP3    H127621   1.868   1.141   1.424 -0.1012 -0.3758  1.1016
 9219TIP3    H227622   1.758   1.233   1.376 -0.5234 -1.3429  0.1437
 9220TIP3   OH227623   6.745   4.778   4.984  0.1409 -0.3613  0.0542
 9220TIP3    H127624   6.694   4.820   5.054 -1.0287 -1.5120 -0.0751
 9220TIP3    H227625   6.723   4.829   4.906 -0.9619 -0.9373 -0.0288
 9221TIP3   OH227626   0.367   1.954   4.376  0.0028 -0.0926  0.1934
 9221TIP3    H127627   0.377   1.878   4.319  1.3624 -0.1886  0.5211
 9221TIP3    H227628   0.444   1.951   4.433  1.2405  2.6918 -1.1661
 9222TIP3   OH227629   6.977   6.443   4.978 -0.1797  0.1267 -0.2930
 9222TIP3    H127630   7.027   6.470   5.056 -1.0628  1.5108 -0.1685
 9222TIP3    H227631   6.922   6.371   5.008  2.4049 -2.1736 -0.6795
 9223TIP3   OH227632   6.569   4.987   1.164  0.6426  1.0056  0.8049
 9223TIP3    H127633   6.477   4.975   1.140  0.7787  1.5075 -0.0136
 9223TIP3    H227634   6.605   5.044   1.095  2.0137 -0.5974  0.1103
 9224TIP3   OH227635   2.949   4.516   4.388 -0.2741  0.0484  0.4142
 9224TIP3    H127636   2.894   4.582   4.345 -0.5962 -0.1450  0.5227
 9224TIP3    H227637   2.926   4.522   4.480 -0.8670 -0.7276  0.3313
 9225TIP3   OH227638   4.367   0.271   5.097  0.0960  0.4825 -0.2190
 9225TIP3    H127639   4.449   0.320   5.105 -1.0135  2.2652  0.8864
 9225TIP3    H227640   4.327   0.306   5.017 -0.1614  0.5411 -0.0646
 9226TIP3   OH227641   3.490   5.949   1.914  0.0743 -0.6550 -0.3945
 9226TIP3    H127642   3.561   5.934   1.851  0.0797  0.0025 -0.5462
 9226TIP3    H227643   3.482   6.044   1.920 -1.7930 -0.6919 -1.5259
 9227TIP3   OH227644   2.501   4.701   5.038  0.1860 -0.5893 -0.2728
 9227TIP3    H127645   2.438   4.758   4.994  1.1107  0.2678 -0.5356
 9227TIP3    H227646   2.541   4.757   5.105 -1.1382 -1.8302  1.6647
 9228TIP3   OH227647   7.240   4.974   5.337  0.1589  0.1376  0.0202
 9228TIP3    H127648   7.224   5.057   5.383  0.5659  0.5904 -0.6245
 9228TIP3    H227649   7.152   4.938   5.323  0.0738 -0.8304  2.5306
 9229TIP3   OH227650   0.585   4.466   0.291  0.2012  0.1864  0.3741
 9229TIP3    H127651   0.579   4.377   0.323  0.2787  0.2515  0.5679
 9229TIP3    H227652   0.677   4.490   0.302  0.5553 -0.3092 -1.2661
 9230TIP3   OH227653   1.010   5.976   3.955 -0.2995  0.0918 -0.1298
 9230TIP3    H127654   0.926   5.998   3.995 -2.4445 -1.8028 -3.0795
 9230TIP3    H227655   1.067   5.951   4.028 -2.3395  1.2903  1.9893
 9231TIP3   OH227656   3.496   3.889   0.174 -0.7585  0.5220 -0.5623
 9231TIP3    H127657   3.572   3.906   0.118 -1.1130  1.3637 -0.8078
 9231TIP3    H227658   3.529   3.832   0.243 -0.0911  0.2326 -1.1027
 9232TIP3   OH227659   3.175   3.795   5.725 -0.0662 -0.3106 -0.1707
 9232TIP3    H127660   3.232   3.746   5.666 -0.1895 -0.5893 -0.0602
 9232TIP3    H227661   3.087   3.768   5.702 -0.0879 -0.8602  0.5274
 9233TIP3   OH227662   2.522   2.084   4.802 -0.0419 -0.4359  0.4350
 9233TIP3    H127663   2.587   2.113   4.866  0.3855  0.2632 -0.2933
 9233TIP3    H227664   2.573   2.041   4.734 -0.5441 -1.6629  0.8097
 9234TIP3   OH227665   4.693   4.736   1.172 -0.1629 -0.2392  0.1842
 9234TIP3    H127666   4.755   4.738   1.245  1.3748 -1.4382 -1.0388
 9234TIP3    H227667   4.726   4.801   1.110 -1.2900  0.5482  0.3718
 9235TIP3   OH227668   5.529   5.213   3.461  0.1178  0.1660 -0.4983
 9235TIP3    H127669   5.485   5.156   3.397  0.6712 -0.0094 -0.7255
 9235TIP3    H227670   5.598   5.158   3.498 -1.3118 -0.3460  1.5735
 9236TIP3   OH227671   4.979   0.221   5.681 -0.9264  0.3328 -0.2288
 9236TIP3    H127672   4.906   0.282   5.671 -0.1058  1.1182 -1.8014
 9236TIP3    H227673   5.054   0.267   5.644  0.3194 -0.5635  1.0966
 9237TIP3   OH227674   6.865   1.961   3.805 -0.4319 -0.7679  0.1491
 9237TIP3    H127675   6.847   1.987   3.715  0.0432  1.3796  0.6176
 9237TIP3    H227676   6.816   1.880   3.817 -1.5548 -0.3996 -1.6328
 9238TIP3   OH227677   6.763   6.545   4.492 -0.1504 -0.6932  0.6180
 9238TIP3    H127678   6.715   6.562   4.411 -1.5196  0.8905  1.7101
 9238TIP3    H227679   6.715   6.474   4.535 -1.7987  1.0556  1.8295
 9239TIP3   OH227680   4.084   1.034   3.561 -0.3789 -0.0712 -0.3209
 9239TIP3    H127681   4.111   0.942   3.562  0.6887  0.2278 -0.1954
 9239TIP3    H227682   4.090   1.060   3.469  2.1010  0.6185 -0.0415
 9240TIP3   OH227683   2.218   6.050   4.216  0.3078  0.4901 -0.0679
 9240TIP3    H127684   2.286   6.055   4.148  0.4407 -1.8109 -0.1774
 9240TIP3    H227685   2.251   6.105   4.287  0.8488  1.7884 -1.2646
 9241TIP3   OH227686   6.819   1.998   3.246 -0.2201  0.2327  0.4825
 9241TIP3    H127687   6.870   2.049   3.183  2.5755 -0.1380  2.2308
 9241TIP3    H227688   6.842   1.907   3.228  0.0393  0.0764  1.5340
 9242TIP3   OH227689   0.509   1.216   4.961 -0.4921 -0.2389  0.4297
 9242TIP3    H127690   0.577   1.157   4.994  0.5374 -0.1153 -1.3757
 9242TIP3    H227691   0.539   1.243   4.875 -1.5425  1.9659  0.6677
 9243TIP3   OH227692   5.992   3.163   4.373 -0.0519 -0.4583  0.3076
 9243TIP3    H127693   5.982   3.247   4.418  1.9589 -0.7274  1.4012
 9243TIP3    H227694   5.928   3.105   4.414 -0.5251  0.1947  0.4900
 9244TIP3   OH227695   0.618   1.997   2.044  0.0845  0.5420  0.1648
 9244TIP3    H127696   0.669   1.924   2.080 -1.2211 -0.5934 -0.1645
 9244TIP3    H227697   0.667   2.075   2.068  0.9548 -0.3753  1.5100
 9245TIP3   OH227698   6.955   6.174   1.439 -0.4559 -0.1879 -0.3830
 9245TIP3    H127699   7.007   6.201   1.364  1.2490  0.8835  1.0785
 9245TIP3    H227700   6.876   6.136   1.402 -0.0551  1.0501 -2.6842
 9246TIP3   OH227701   2.171   6.411   5.512 -0.0644 -1.0529  0.1737
 9246TIP3    H127702   2.105   6.345   5.492 -0.0185 -0.9799 -0.2339
 9246TIP3    H227703   2.205   6.437   5.427  0.3430 -0.9392  0.3687
 9247TIP3   OH227704   6.419   6.675   4.930 -0.6775 -0.1200 -0.4846
 9247TIP3    H127705   6.406   6.595   4.981  1.1334 -1.1454 -1.5347
 9247TIP3    H227706   6.492   6.655   4.872 -0.0744  2.3493 -0.7025
 9248TIP3   OH227707   0.471   3.692   4.621  0.2932  0.3196 -0.1433
 9248TIP3    H127708   0.529   3.720   4.691  1.6412 -3.0654  0.2864
 9248TIP3    H227709   0.404   3.639   4.666 -0.2764  0.1545 -1.1589
 9249TIP3   OH227710   4.117   0.099   1.678  0.5656  0.1315 -0.2651
 9249TIP3    H127711   4.083   0.187   1.694 -0.0306  0.0205 -0.8724
 9249TIP3    H227712   4.196   0.094   1.731 -0.4547  0.3269  1.3380
 9250TIP3   OH227713   4.084   0.983   3.279 -0.0967  0.3243  0.2399
 9250TIP3    H127714   4.107   1.001   3.188  1.0763  1.0971  0.6624
 9250TIP3    H227715   4.000   0.938   3.274  0.6252 -0.9628 -1.3092
 9251TIP3   OH227716   3.228   5.933   2.531 -0.1835 -0.7045  0.6137
 9251TIP3    H127717   3.182   5.947   2.448 -0.5070  0.6789  0.9950
 9251TIP3    H227718   3.267   5.846   2.523  0.4917 -0.2717 -1.3360
 9252TIP3   OH227719   5.411   3.984   4.570  0.2596  0.2521 -0.1917
 9252TIP3    H127720   5.484   4.027   4.526  0.6512  1.5189  1.5739
 9252TIP3    H227721   5.449   3.903   4.605  0.1559 -0.3322 -1.3786
 9253TIP3   OH227722   2.685   1.315   0.478  0.1410 -0.7212 -0.5132
 9253TIP3    H127723   2.737   1.238   0.454 -1.1409 -2.0247  0.6581
 9253TIP3    H227724   2.654   1.295   0.566 -0.5939  0.9720 -0.3581
 9254TIP3   OH227725   6.168   0.557   4.324  0.0969 -0.3372  0.4649
 9254TIP3    H127726   6.146   0.561   4.231 -0.2145 -0.6619  0.5224
 9254TIP3    H227727   6.199   0.468   4.337  2.0336  0.2567  0.2649
 9255TIP3   OH227728   1.410   1.652   2.432 -0.0096 -0.4663  0.6455
 9255TIP3    H127729   1.402   1.649   2.527 -0.4315 -0.5436  0.6110
 9255TIP3    H227730   1.387   1.564   2.402  0.8295 -0.6453  0.5162
 9256TIP3   OH227731   3.747   3.241   3.985  0.5990 -0.7406  0.6477
 9256TIP3    H127732   3.832   3.202   3.965  0.2490 -0.9212 -0.6399
 9256TIP3    H227733   3.689   3.206   3.917 -0.7586 -1.4489  2.1081
 9257TIP3   OH227734   4.442   5.591   5.572 -0.1575 -0.0429  0.9635
 9257TIP3    H127735   4.495   5.664   5.538 -0.5553 -0.3181 -0.3216
 9257TIP3    H227736   4.493   5.556   5.644  1.4943 -0.3640 -0.2951
 9258TIP3   OH227737   3.118   1.213   3.667  0.8999  0.1448  0.0267
 9258TIP3    H127738   3.161   1.128   3.669  1.5896  0.3716 -2.4336
 9258TIP3    H227739   3.177   1.269   3.617  0.0351  1.8403  0.8133
 9259TIP3   OH227740   1.336   5.854   0.306  0.3623 -0.3557 -0.7477
 9259TIP3    H127741   1.418   5.838   0.260  0.0005 -0.8698 -1.2372
 9259TIP3    H227742   1.359   5.913   0.378  0.6097  2.2418 -2.8164
 9260TIP3   OH227743   6.300   5.791   1.876  0.4363 -0.0934 -0.4473
 9260TIP3    H127744   6.294   5.811   1.969  0.5516 -1.1439 -0.2018
 9260TIP3    H227745   6.274   5.872   1.832  1.3962  0.7538  0.4842
 9261TIP3   OH227746   2.917   3.530   2.397 -0.6280  0.7707  0.1751
 9261TIP3    H127747   2.923   3.435   2.393 -0.1186  0.8277 -0.6654
 9261TIP3    H227748   2.952   3.553   2.484  1.5262  0.3337 -0.5012
 9262TIP3   OH227749   6.576   0.769   4.953 -0.2412 -0.0092  0.0884
 9262TIP3    H127750   6.640   0.699   4.941  1.3240  1.3489  0.1544
 9262TIP3    H227751   6.583   0.822   4.874 -2.0998 -0.4051 -0.3974
 9263TIP3   OH227752   6.612   2.696   2.929 -0.5908  0.2028 -0.7196
 9263TIP3    H127753   6.613   2.612   2.974  0.7010  0.6129  0.0565
 9263TIP3    H227754   6.528   2.698   2.883 -1.8314 -0.3652  1.4047
 9264TIP3   OH227755   1.689   3.080   0.693  0.4202  0.0909 -0.4544
 9264TIP3    H127756   1.714   3.172   0.700  0.2918  0.0901  0.0723
 9264TIP3    H227757   1.729   3.038   0.770 -2.2308  0.3335  1.1921
 9265TIP3   OH227758   2.736   3.729   3.256 -0.5074  0.3126 -0.2426
 9265TIP3    H127759   2.680   3.727   3.178 -1.0803  1.0416  0.1357
 9265TIP3    H227760   2.809   3.786   3.232  0.2274 -0.8204 -0.8160
 9266TIP3   OH227761   0.143   6.450   2.082 -0.6450 -0.2799 -0.0308
 9266TIP3    H127762   0.131   6.524   2.140 -2.7424  0.4445 -1.2615
 9266TIP3    H227763   0.056   6.412   2.072 -0.4486 -0.2400 -2.8090
 9267TIP3   OH227764   1.737   1.466   3.009 -0.0074 -0.0237 -0.2875
 9267TIP3    H127765   1.731   1.441   3.101 -1.8297 -0.4641 -0.5006
 9267TIP3    H227766   1.673   1.536   2.998  0.6533  0.4843 -1.0975
 9268TIP3   OH227767   3.651   1.535   5.223  0.3952  0.2366 -0.2921
 9268TIP3    H127768   3.738   1.495   5.228  0.8681  1.0732 -1.3178
 9268TIP3    H227769   3.643   1.564   5.132 -1.2231 -0.3689 -0.3689
 9269TIP3   OH227770   3.129   2.812   1.248  0.0456  0.1869 -0.6674
 9269TIP3    H127771   3.126   2.895   1.295 -1.2491  1.3585 -2.6562
 9269TIP3    H227772   3.207   2.818   1.194  0.4639 -0.3178 -0.1319
 9270TIP3   OH227773   3.929   5.058   2.229  0.1907 -0.4250 -0.1926
 9270TIP3    H127774   3.836   5.069   2.247 -0.0825 -2.1417 -0.3624
 9270TIP3    H227775   3.945   4.964   2.240  1.7374 -0.2864 -0.9063
 9271TIP3   OH227776   6.980   5.959   2.060 -0.0002 -0.1819  0.3822
 9271TIP3    H127777   7.031   5.933   1.984 -0.8383  0.8686 -0.5733
 9271TIP3    H227778   6.907   6.010   2.024 -1.5063 -1.2839  1.7206
 9272TIP3   OH227779   4.134   5.698   4.141  0.4218  0.0563 -0.2696
 9272TIP3    H127780   4.216   5.649   4.138 -1.7464 -4.0497  0.1362
 9272TIP3    H227781   4.098   5.692   4.053 -1.0144 -1.4324  0.3591
 9273TIP3   OH227782   6.306   2.324   1.943 -0.5085 -0.3138 -0.5286
 9273TIP3    H127783   6.341   2.321   2.032  1.5428  0.1996 -1.2763
 9273TIP3    H227784   6.355   2.394   1.900 -0.7250 -1.2428 -2.3640
 9274TIP3   OH227785   0.932   0.615   3.962  0.1353  0.0541  0.5115
 9274TIP3    H127786   0.965   0.548   4.021 -0.0683 -2.2714 -1.8045
 9274TIP3    H227787   0.841   0.588   3.944 -0.2427  1.4658  0.1831
 9275TIP3   OH227788   1.935   0.997   2.497 -1.0012 -0.1888 -0.3337
 9275TIP3    H127789   1.899   1.012   2.410 -0.8697 -1.8477 -0.7168
 9275TIP3    H227790   2.021   1.039   2.495 -1.0178 -0.1765 -1.0026
 9276TIP3   OH227791   7.091   2.219   2.365  0.1574 -0.4517  0.3584
 9276TIP3    H127792   7.087   2.280   2.438 -0.8950 -0.4641  0.3346
 9276TIP3    H227793   7.182   2.221   2.336  0.2530  0.7070  0.6898
 9277TIP3   OH227794   0.723   3.543   1.879  0.0828 -0.1544 -0.0332
 9277TIP3    H127795   0.805   3.586   1.854  0.2398 -0.9358 -0.9149
 9277TIP3    H227796   0.719   3.466   1.823 -1.4633  0.0872 -0.2830
 9278TIP3   OH227797   4.041   6.048   3.574  0.6467  0.0470  0.2169
 9278TIP3    H127798   4.115   6.039   3.514 -1.7619 -1.8483 -2.7569
 9278TIP3    H227799   3.981   6.108   3.529 -0.7122 -0.4208  1.3458
 9279TIP3   OH227800   1.949   3.246   4.335  0.1479  0.2379 -0.1038
 9279TIP3    H127801   1.947   3.340   4.354 -0.9520  0.0915  0.6389
 9279TIP3    H227802   2.040   3.227   4.316  0.2818  1.5859 -0.9297
 9280TIP3   OH227803   0.797   6.543   0.696 -0.2636 -0.2196 -0.0417
 9280TIP3    H127804   0.882   6.548   0.653 -0.8318 -0.1736 -1.2148
 9280TIP3    H227805   0.807   6.475   0.762  0.8920  0.3035  0.3521
 9281TIP3   OH227806   2.143   4.339   5.509  0.3621  0.2165  0.0543
 9281TIP3    H127807   2.207   4.365   5.443  1.4575  0.9319  1.3329
 9281TIP3    H227808   2.059   4.342   5.464  1.2074 -0.8510 -1.7198
 9282TIP3   OH227809   6.528   5.695   1.554 -0.2279 -0.6142 -0.2170
 9282TIP3    H127810   6.563   5.775   1.593  0.1322 -1.4682  1.3152
 9282TIP3    H227811   6.548   5.703   1.461  4.6735 -1.1918  0.4797
 9283TIP3   OH227812   0.080   4.501   0.099 -0.2042 -0.3206  0.8456
 9283TIP3    H127813   0.068   4.461   0.013  0.0763  2.1596 -0.4421
 9283TIP3    H227814  -0.007   4.534   0.122  0.2046  1.3158  0.2167
 9284TIP3   OH227815   4.257   2.436   4.740  0.5069 -0.2334  0.9823
 9284TIP3    H127816   4.234   2.502   4.805 -0.5999  0.2700  0.1215
 9284TIP3    H227817   4.242   2.480   4.656  0.1630 -1.4408  0.3931
 9285TIP3   OH227818   0.471   6.132   5.077  0.1638 -0.4501 -0.0873
 9285TIP3    H127819   0.449   6.079   5.001 -0.8138  1.2824 -1.0680
 9285TIP3    H227820   0.387   6.165   5.109  0.6786 -0.1032  0.9524
 9286TIP3   OH227821   1.752   4.031   3.943 -0.1680  0.3714 -0.1488
 9286TIP3    H127822   1.734   3.965   3.877 -1.1162 -0.0479  0.5137
 9286TIP3    H227823   1.667   4.049   3.983  0.5668 -0.4401  1.9232
 9287TIP3   OH227824   6.202   4.425   0.759 -0.3716 -0.1121  0.4199
 9287TIP3    H127825   6.265   4.497   0.763 -1.5267  0.9226  0.6299
 9287TIP3    H227826   6.256   4.347   0.747  0.9483  0.7240  0.6610
 9288TIP3   OH227827   6.460   2.117   1.280 -0.1603 -0.2512  0.3446
 9288TIP3    H127828   6.446   2.164   1.362  1.1919  1.1240 -0.1673
 9288TIP3    H227829   6.547   2.144   1.251 -0.6632 -0.5698 -1.6345
 9289TIP3   OH227830   5.240   5.387   4.998  0.1615  0.0697 -0.3480
 9289TIP3    H127831   5.326   5.390   4.956 -0.0584 -0.3690 -0.8392
 9289TIP3    H227832   5.200   5.306   4.966 -0.2075 -0.0216  0.3290
 9290TIP3   OH227833   2.186   0.408   5.317 -0.3920  0.2784 -0.0740
 9290TIP3    H127834   2.248   0.410   5.390  0.3397  2.2320 -0.6849
 9290TIP3    H227835   2.101   0.423   5.359 -0.0555  0.7442  0.4690
 9291TIP3   OH227836   6.951   3.794   2.607  0.2531  0.6289 -0.1080
 9291TIP3    H127837   7.034   3.763   2.569 -0.0459 -0.5773  0.1823
 9291TIP3    H227838   6.957   3.771   2.700 -0.5808  0.1269 -0.1694
 9292TIP3   OH227839   0.520   3.800   4.053 -0.9101 -0.6777 -0.1898
 9292TIP3    H127840   0.561   3.787   4.139 -0.8473 -1.1354 -0.2839
 9292TIP3    H227841   0.560   3.879   4.018 -4.4482  2.5744  2.2944
 9293TIP3   OH227842   4.023   3.983   1.111  0.4813 -1.0033 -0.6067
 9293TIP3    H127843   4.064   4.014   1.031  0.3524  2.2775  0.4173
 9293TIP3    H227844   3.932   3.966   1.087  0.3563  0.3056 -1.1349
 9294TIP3   OH227845   4.619   1.021   4.083 -0.2374 -0.4506 -0.4233
 9294TIP3    H127846   4.663   0.937   4.069  0.6427  0.1790 -1.7024
 9294TIP3    H227847   4.658   1.079   4.017 -2.4002  0.3905 -1.0284
 9295TIP3   OH227848   0.719   6.565   5.556 -0.2127 -0.1515 -0.2727
 9295TIP3    H127849   0.690   6.604   5.473  0.2063  1.4654  0.3208
 9295TIP3    H227850   0.738   6.639   5.613 -0.3755 -1.2375  1.2569
 9296TIP3   OH227851   6.225   1.807   4.985 -0.1844  0.4244  0.2316
 9296TIP3    H127852   6.169   1.753   4.929  0.8320 -0.2665 -0.1602
 9296TIP3    H227853   6.164   1.858   5.038 -1.2362 -1.8440  1.3570
 9297TIP3   OH227854   5.305   4.942   2.254  0.4464 -0.4808  0.8022
 9297TIP3    H127855   5.287   4.860   2.208 -1.9791  0.3540  0.1027
 9297TIP3    H227856   5.317   5.006   2.184 -1.9898  0.5590  1.2388
 9298TIP3   OH227857   2.307   1.853   5.556  0.0304  0.4790 -0.2758
 9298TIP3    H127858   2.266   1.826   5.474 -1.6240  1.8433  0.0405
 9298TIP3    H227859   2.389   1.896   5.530 -0.6383  1.1986 -1.2620
 9299TIP3   OH227860   6.765   3.285   5.097  0.2584  0.3078 -0.3786
 9299TIP3    H127861   6.758   3.194   5.066 -0.6021  0.4428 -0.6093
 9299TIP3    H227862   6.822   3.279   5.173  0.4679 -0.3854 -0.5753
 9300TIP3   OH227863   6.706   0.027   4.821 -0.0078  0.0926  0.3813
 9300TIP3    H127864   6.750  -0.057   4.806 -0.1118  0.1193 -0.0949
 9300TIP3    H227865   6.733   0.054   4.909  1.2774  0.3218 -0.0710
 9301TIP3   OH227866   4.864   1.377   1.257 -0.9095 -0.1651  0.0586
 9301TIP3    H127867   4.930   1.430   1.212 -1.6506  0.6156 -0.1157
 9301TIP3    H227868   4.833   1.316   1.190  0.2174 -1.1280  0.3584
 9302TIP3   OH227869   4.785   2.238   5.359  0.9599  0.0580  0.2703
 9302TIP3    H127870   4.757   2.150   5.383  0.4891  0.3963  1.0121
 9302TIP3    H227871   4.803   2.233   5.266  0.6416 -0.7489  0.2442
 9303TIP3   OH227872   2.382   4.267   0.936 -0.1849  0.3402  0.5286
 9303TIP3    H127873   2.289   4.289   0.946 -0.2116 -0.6319  3.5001
 9303TIP3    H227874   2.428   4.335   0.985  0.5129 -0.2686  0.7389
 9304TIP3   OH227875   0.236   3.692   2.310  0.0553 -0.1936 -0.5746
 9304TIP3    H127876   0.193   3.744   2.377 -0.5084  0.0681 -1.1296
 9304TIP3    H227877   0.249   3.606   2.350  1.5726  0.5278  0.5848
 9305TIP3   OH227878   6.415   1.607   0.734 -0.2013  0.0552 -0.0357
 9305TIP3    H127879   6.426   1.585   0.826 -2.3371 -1.1554  0.0067
 9305TIP3    H227880   6.470   1.543   0.687  0.7609  0.5703  0.3735
 9306TIP3   OH227881   3.824   6.060   5.231 -0.1565  0.1510  1.0616
 9306TIP3    H127882   3.774   6.029   5.306 -1.0161  0.7586  0.7544
 9306TIP3    H227883   3.914   6.031   5.248 -0.6083 -0.9800  1.6109
 9307TIP3   OH227884   3.612   5.922   2.643 -0.0880 -0.1250 -0.1102
 9307TIP3    H127885   3.671   5.992   2.614 -0.8859  0.3954 -0.5561
 9307TIP3    H227886   3.612   5.929   2.738 -0.2618  0.5914 -0.1526
 9308TIP3   OH227887   4.761   5.227   2.483  0.0682 -0.0616  0.5222
 9308TIP3    H127888   4.764   5.323   2.484  0.4307 -0.0492  3.1956
 9308TIP3    H227889   4.670   5.205   2.501  0.4833 -0.1496  2.7894
 9309TIP3   OH227890   4.800   2.311   4.149 -0.4266  0.1669  0.4685
 9309TIP3    H127891   4.732   2.291   4.213 -0.4930  1.2643  0.7564
 9309TIP3    H227892   4.840   2.392   4.181  0.8959 -0.3539  0.2125
 9310TIP3   OH227893   0.095   3.913   0.340 -0.2472 -0.1381  0.0128
 9310TIP3    H127894   0.023   3.971   0.368  0.8328  0.0651  2.6275
 9310TIP3    H227895   0.173   3.967   0.350  0.4669 -0.9726 -0.9596
 9311TIP3   OH227896   5.488   0.352   1.808 -0.2953 -0.3484 -0.3055
 9311TIP3    H127897   5.547   0.348   1.884 -0.2707  0.1080 -0.3027
 9311TIP3    H227898   5.516   0.429   1.759  0.2626 -1.1301 -1.2584
 9312TIP3   OH227899   2.602   3.829   0.669  0.0499  0.2470  0.4340
 9312TIP3    H127900   2.567   3.753   0.716  0.3862 -1.8549 -2.4770
 9312TIP3    H227901   2.525   3.882   0.648 -0.4425 -0.3487  0.7258
 9313TIP3   OH227902   0.927   1.898   1.968  0.2807 -0.1315 -0.6553
 9313TIP3    H127903   0.998   1.957   1.994  0.1566 -0.3709  0.2807
 9313TIP3    H227904   0.940   1.820   2.022 -0.3320 -0.4270 -0.9269
 9314TIP3   OH227905   5.473   6.020   0.726 -0.2632 -0.1462  0.0900
 9314TIP3    H127906   5.518   5.955   0.672 -1.2172  0.8630 -2.0092
 9314TIP3    H227907   5.543   6.063   0.776  0.7775 -0.4571 -1.0671
 9315TIP3   OH227908   5.989   1.524   2.046  0.4931 -0.5284  0.5960
 9315TIP3    H127909   6.008   1.603   1.995 -0.5700 -0.3042  0.5094
 9315TIP3    H227910   6.061   1.465   2.027 -0.0272 -0.5871 -1.4684
 9316TIP3   OH227911   0.746   4.078   4.775  0.0192  0.1099  0.3572
 9316TIP3    H127912   0.664   4.123   4.797 -0.3145 -0.2545 -0.1168
 9316TIP3    H227913   0.773   4.118   4.692  0.4125  0.3428  0.5944
 9317TIP3   OH227914   5.124   1.779   3.537  0.0713 -0.4195 -0.1000
 9317TIP3    H127915   5.190   1.820   3.593  1.2353 -0.3704 -1.4789
 9317TIP3    H227916   5.068   1.851   3.509 -0.7154 -0.4816  1.1869
 9318TIP3   OH227917   4.295   0.803   3.501 -0.0689  0.2322 -0.4357
 9318TIP3    H127918   4.248   0.738   3.554  0.8851  0.6160  0.9261
 9318TIP3    H227919   4.347   0.750   3.440 -0.7745 -0.2298 -0.6518
 9319TIP3   OH227920   1.828   2.646   3.759  0.3392 -0.8062 -0.2607
 9319TIP3    H127921   1.879   2.658   3.679  1.4467 -0.5122  0.4598
 9319TIP3    H227922   1.775   2.568   3.743  0.5340 -0.7408 -1.2737
 9320TIP3   OH227923   4.924   0.887   4.324 -0.6114  0.0080  0.7902
 9320TIP3    H127924   4.895   0.967   4.369 -1.4362 -0.2503  0.7234
 9320TIP3    H227925   4.870   0.882   4.245  0.1630 -0.0617  0.2521
 9321TIP3   OH227926   0.704   0.765   5.134 -0.5191 -0.2496  0.6219
 9321TIP3    H127927   0.763   0.702   5.176 -0.2760 -0.1554  0.4253
 9321TIP3    H227928   0.636   0.711   5.095  1.4393 -0.7630 -2.4884
 9322TIP3   OH227929   0.095   6.415   0.305 -0.0087  1.0627  0.0751
 9322TIP3    H127930   0.033   6.485   0.287  0.5866  1.6004  0.0719
 9322TIP3    H227931   0.151   6.412   0.227  0.9670  1.6688  0.7349
 9323TIP3   OH227932   4.339   5.373   5.460  0.6806  0.2161 -0.3408
 9323TIP3    H127933   4.372   5.369   5.370 -2.1722  2.7885 -1.7025
 9323TIP3    H227934   4.400   5.431   5.506  2.1983 -1.1744 -0.5107
 9324TIP3   OH227935   6.239   5.069   0.866  0.1992  0.6465 -0.6613
 9324TIP3    H127936   6.329   5.036   0.860  0.5934  1.1364  1.6348
 9324TIP3    H227937   6.191   5.019   0.800  1.9720 -0.2056 -1.3944
 9325TIP3   OH227938   1.464   5.844   4.794  0.3282  0.2769 -0.4222
 9325TIP3    H127939   1.441   5.865   4.885 -0.6340  0.9627 -0.8174
 9325TIP3    H227940   1.459   5.749   4.790 -0.0540  0.2676  0.1260
 9326TIP3   OH227941   4.787   6.235   5.246  0.3658 -0.9447 -0.1704
 9326TIP3    H127942   4.741   6.176   5.305  1.6322 -3.6788 -1.7350
 9326TIP3    H227943   4.768   6.202   5.158  1.7315  0.5482 -1.0994
 9327TIP3   OH227944   3.787   5.763   5.073  0.0215  0.0959  0.3623
 9327TIP3    H127945   3.790   5.745   5.167  1.7484 -0.4725  0.2256
 9327TIP3    H227946   3.814   5.680   5.033 -0.9624  0.2510 -0.6558
 9328TIP3   OH227947   3.340   3.213   5.652 -0.2306  0.0167 -0.2118
 9328TIP3    H127948   3.299   3.136   5.613  2.3565 -2.6766  1.9365
 9328TIP3    H227949   3.307   3.214   5.742 -0.6137  1.8154 -0.3322
 9329TIP3   OH227950   6.399   5.289   3.206 -0.7548 -0.0486  0.0608
 9329TIP3    H127951   6.457   5.218   3.181 -0.8620 -0.1835  0.1964
 9329TIP3    H227952   6.319   5.246   3.237 -0.7918  0.1273  0.2143
 9330TIP3   OH227953   4.750   1.339   1.718 -0.1008 -0.6037 -0.1038
 9330TIP3    H127954   4.736   1.327   1.624 -0.1677  0.0083 -0.1717
 9330TIP3    H227955   4.666   1.316   1.757 -0.4415  0.2978 -0.2898
 9331TIP3   OH227956   1.397   5.302   2.216  0.4783  0.1243  0.1955
 9331TIP3    H127957   1.478   5.264   2.184 -0.5640 -0.7969 -1.5375
 9331TIP3    H227958   1.361   5.350   2.141 -0.0940  1.3850  1.2294
 9332TIP3   OH227959   3.661   4.252   3.203  0.0551 -0.4168  0.5032
 9332TIP3    H127960   3.617   4.190   3.144  0.9986 -1.4971  0.8978
 9332TIP3    H227961   3.615   4.334   3.190 -1.2567 -1.2086 -0.0154
 9333TIP3   OH227962   6.329   0.791   5.741 -0.0389  0.0527 -0.3751
 9333TIP3    H127963   6.253   0.765   5.793  0.9662 -1.4100  0.4432
 9333TIP3    H227964   6.320   0.885   5.730 -0.1465  0.5090  2.7656
 9334TIP3   OH227965   5.067   1.421   2.371  0.1693  0.3930 -0.4739
 9334TIP3    H127966   4.977   1.391   2.358  0.2452 -0.1574  0.1917
 9334TIP3    H227967   5.058   1.509   2.406 -0.2234 -0.5878  2.1094
 9335TIP3   OH227968   2.566   3.474   0.204  0.4214 -0.1314  0.1237
 9335TIP3    H127969   2.509   3.448   0.276  0.3659  0.5392  0.3248
 9335TIP3    H227970   2.603   3.557   0.231 -0.1150  0.4656 -0.9049
 9336TIP3   OH227971   4.588   5.925   5.075 -0.1818 -0.0366  1.0506
 9336TIP3    H127972   4.516   5.906   5.015 -0.9492 -0.1000  1.9724
 9336TIP3    H227973   4.646   5.849   5.067 -1.5996 -1.3101  2.3113
 9337TIP3   OH227974   5.869   6.584   4.583  0.0965  0.2027  0.4451
 9337TIP3    H127975   5.775   6.566   4.589 -0.0123  0.6766  0.1727
 9337TIP3    H227976   5.909   6.517   4.638 -0.3091 -0.8425 -0.4863
 9338TIP3   OH227977   4.836   2.406   3.887  0.0876 -0.5735 -0.3198
 9338TIP3    H127978   4.809   2.349   3.959 -0.4666  0.4866  0.3472
 9338TIP3    H227979   4.928   2.384   3.872  0.5166 -0.1516  1.4027
 9339TIP3   OH227980   0.872   6.159   3.746 -0.1685 -0.1140  0.2336
 9339TIP3    H127981   0.843   6.109   3.823  0.0447 -0.8790 -0.1685
 9339TIP3    H227982   0.878   6.094   3.676 -0.0546  0.5152 -0.3582
 9340TIP3   OH227983   0.113   5.902   2.476 -0.1837 -0.5589  0.0063
 9340TIP3    H127984   0.064   5.945   2.406  1.8389 -1.2212 -1.9425
 9340TIP3    H227985   0.057   5.829   2.503 -0.9408 -0.3958 -1.0576
 9341TIP3   OH227986   1.764   5.913   5.294 -0.5670  0.0623 -0.2292
 9341TIP3    H127987   1.779   5.998   5.254 -1.2538  0.7799  0.9532
 9341TIP3    H227988   1.841   5.861   5.271  0.1262  1.1827 -0.5136
 9342TIP3   OH227989   0.347   4.215   5.840  0.1324 -0.5971 -0.2596
 9342TIP3    H127990   0.373   4.298   5.882 -0.9656  0.1367 -0.9711
 9342TIP3    H227991   0.265   4.192   5.884  0.1268 -0.9943 -0.4828
 9343TIP3   OH227992   4.269   6.577   4.366  0.2163  0.1707  0.7198
 9343TIP3    H127993   4.356   6.537   4.367  0.8634  1.3856 -1.3879
 9343TIP3    H227994   4.284   6.668   4.341 -1.6650  0.3897  0.2155
 9344TIP3   OH227995   2.576   4.425   2.384 -0.2580  0.0764 -0.3072
 9344TIP3    H127996   2.575   4.497   2.447 -2.0453  0.0729 -0.2946
 9344TIP3    H227997   2.485   4.413   2.359  0.3257 -0.3528 -2.4384
 9345TIP3   OH227998   6.527   1.123   1.932 -0.1561  0.7509  0.1149
 9345TIP3    H127999   6.525   1.219   1.931  0.3323  0.8031  1.7089
 9345TIP3    H228000   6.436   1.098   1.947 -0.9355  0.8037 -3.6038
 9346TIP3   OH228001   0.981   3.040   2.136  0.1439  0.0259 -0.5552
 9346TIP3    H128002   0.963   3.129   2.167  0.8433  0.1279 -0.4252
 9346TIP3    H228003   0.896   2.996   2.138 -0.1047  0.5146 -0.0521
 9347TIP3   OH228004   2.842   5.714   1.036  0.1180  0.0600 -0.5427
 9347TIP3    H128005   2.792   5.770   0.977  1.3876  0.4364 -1.3130
 9347TIP3    H228006   2.921   5.764   1.055  1.5228 -1.6300 -1.6367
 9348TIP3   OH228007   1.631   2.054   5.522 -0.4890  0.0677  0.8399
 9348TIP3    H128008   1.578   2.087   5.594  1.7883  0.9521  2.2089
 9348TIP3    H228009   1.623   1.958   5.529 -1.0555  0.1638  1.6635
 9349TIP3   OH228010   2.304   4.967   0.177 -0.1568  0.0379  0.4770
 9349TIP3    H128011   2.309   5.060   0.201 -1.1898  0.0888  0.5526
 9349TIP3    H228012   2.210   4.948   0.176  0.0180 -0.8611 -0.1100
 9350TIP3   OH228013   2.167   0.682   2.819 -0.1905 -0.2382 -0.2676
 9350TIP3    H128014   2.077   0.709   2.839 -1.0144 -1.1872 -2.4084
 9350TIP3    H228015   2.221   0.733   2.879 -2.2077 -0.7040  2.1396
 9351TIP3   OH228016   0.767   5.477   0.693 -0.1886  0.6738  0.3584
 9351TIP3    H128017   0.847   5.530   0.694  1.1801 -1.2867  0.6283
 9351TIP3    H228018   0.745   5.467   0.601 -1.0454  2.4662  0.3266
 9352TIP3   OH228019   0.676   6.042   5.235 -0.6202  0.3699 -0.1832
 9352TIP3    H128020   0.636   6.074   5.153 -0.9586  0.2378 -0.0708
 9352TIP3    H228021   0.615   6.070   5.303 -1.2912 -1.1243 -0.1445
 9353TIP3   OH228022   7.042   5.660   4.229  0.1227  0.1977 -0.4295
 9353TIP3    H128023   7.034   5.572   4.266 -1.1906  0.4752 -0.0092
 9353TIP3    H228024   7.064   5.715   4.304 -0.7924  0.4882 -0.3681
 9354TIP3   OH228025   3.795   1.939   2.399 -0.1165 -0.4748  0.9293
 9354TIP3    H128026   3.861   1.870   2.402  0.8438  0.3302 -0.4894
 9354TIP3    H228027   3.712   1.893   2.393  0.4808 -1.5106  0.4223
 9355TIP3   OH228028   0.186   4.066   5.020  0.6287 -0.5403  0.0900
 9355TIP3    H128029   0.210   3.974   5.009 -0.9319 -0.7379 -2.7928
 9355TIP3    H228030   0.269   4.114   5.015  1.5336 -1.7391  2.2636
 9356TIP3   OH228031   2.065   6.447   2.265  0.4357 -0.1458 -0.2071
 9356TIP3    H128032   1.992   6.386   2.278 -0.6621  1.3074  0.7429
 9356TIP3    H228033   2.130   6.396   2.217  0.0154 -2.3893  1.4569
 9357TIP3   OH228034   2.802   1.748   0.199 -0.1726 -0.6660  0.0405
 9357TIP3    H128035   2.743   1.793   0.260 -1.3992 -1.5262 -0.4522
 9357TIP3    H228036   2.808   1.659   0.233  1.2296 -0.4752  0.3288
 9358TIP3   OH228037   2.217   3.537   0.831 -0.0342 -0.2571  0.3346
 9358TIP3    H128038   2.211   3.620   0.879 -0.1043  0.8126 -1.4382
 9358TIP3    H228039   2.147   3.483   0.868 -0.9472  1.0105  0.5159
 9359TIP3   OH228040   5.809   1.559   5.719  0.5245  0.2272 -0.3666
 9359TIP3    H128041   5.889   1.508   5.730  0.9546  0.1104 -3.1306
 9359TIP3    H228042   5.739   1.503   5.751  1.5131  0.5820  2.7188
 9360TIP3   OH228043   5.083   5.751   1.343  0.0338  0.0569  0.4420
 9360TIP3    H128044   5.034   5.834   1.348  0.2867  0.1687  1.1694
 9360TIP3    H228045   5.162   5.773   1.294 -0.0444  0.1749  0.3658
 9361TIP3   OH228046   6.911   3.521   3.701 -0.0936 -0.0037 -0.0377
 9361TIP3    H128047   6.820   3.551   3.705 -0.1656 -0.2565  0.2080
 9361TIP3    H228048   6.905   3.426   3.693  0.1304  0.0773 -1.3183
 9362TIP3   OH228049   6.177   4.847   4.792  0.1229  0.4614 -0.1799
 9362TIP3    H128050   6.149   4.897   4.715  0.2016  0.4099 -0.2419
 9362TIP3    H228051   6.239   4.905   4.837 -0.2775  0.6786  0.0972
 9363TIP3   OH228052   5.464   5.593   3.237 -0.4261 -0.1472 -0.4649
 9363TIP3    H128053   5.417   5.542   3.303 -1.5247  0.2588 -0.9080
 9363TIP3    H228054   5.451   5.544   3.156  0.0692 -0.1150 -0.5648
 9364TIP3   OH228055   3.675   5.759   3.043  0.4397  0.0419 -0.5797
 9364TIP3    H128056   3.679   5.711   2.960 -0.8148 -0.3904 -0.4181
 9364TIP3    H228057   3.642   5.845   3.018 -1.5190 -0.6064 -0.3684
 9365TIP3   OH228058   1.475   6.631   4.282 -0.4844  0.1151  0.7347
 9365TIP3    H128059   1.553   6.591   4.244 -0.9792 -3.5713  3.0755
 9365TIP3    H228060   1.406   6.615   4.218 -0.2735 -1.2356  0.8164
 9366TIP3   OH228061   1.529   1.130   5.271  0.0410  0.6336  0.1419
 9366TIP3    H128062   1.532   1.185   5.350  0.3590  1.0365 -0.1446
 9366TIP3    H228063   1.437   1.130   5.245  0.0461  1.0828  0.1142
 9367TIP3   OH228064   1.247   4.249   1.760 -0.4795  0.1345 -0.0758
 9367TIP3    H128065   1.164   4.242   1.806 -0.1766 -0.8574  0.3379
 9367TIP3    H228066   1.268   4.343   1.763 -2.4485  0.7059 -1.7683
 9368TIP3   OH228067   4.198   5.822   0.108  0.1525 -0.0341  0.8061
 9368TIP3    H128068   4.207   5.765   0.031  1.9463 -0.0910  1.0227
 9368TIP3    H228069   4.146   5.770   0.170 -0.1372 -0.5349  0.1572
 9369TIP3   OH228070   5.366   4.672   0.141 -0.2948  0.2144 -0.5993
 9369TIP3    H128071   5.353   4.750   0.195  0.5632  1.8779 -2.6425
 9369TIP3    H228072   5.445   4.632   0.175 -0.6535  0.3224  0.3832
 9370TIP3   OH228073   1.350   4.601   2.482 -0.4477 -0.0751 -0.0206
 9370TIP3    H128074   1.419   4.619   2.546  2.6099 -0.8215 -2.8315
 9370TIP3    H228075   1.350   4.678   2.425 -2.3735  0.1178  0.1522
 9371TIP3   OH228076   6.330   2.341   5.672 -0.0405 -0.1989 -0.1007
 9371TIP3    H128077   6.392   2.269   5.661 -0.6094 -0.6615 -0.3290
 9371TIP3    H228078   6.376   2.406   5.725  0.1434 -1.1322  0.8878
 9372TIP3   OH228079   2.699   4.328   4.316  0.1703  0.2766 -0.2458
 9372TIP3    H128080   2.792   4.349   4.312  0.2611 -0.1150 -0.2055
 9372TIP3    H228081   2.695   4.233   4.303 -0.2686  0.3805 -0.9347
 9373TIP3   OH228082   0.510   5.811   1.951  0.1685  0.1502 -0.3919
 9373TIP3    H128083   0.579   5.761   1.994  0.3532  0.4620 -0.3199
 9373TIP3    H228084   0.537   5.817   1.859 -2.0268 -3.7507 -1.5273
 9374TIP3   OH228085   1.658   0.152   4.367 -0.5476  0.0526 -0.0103
 9374TIP3    H128086   1.716   0.125   4.439  0.4937  2.6668  0.2474
 9374TIP3    H228087   1.593   0.209   4.408 -0.8821  0.3425 -0.9105
 9375TIP3   OH228088   6.268   2.448   2.878  0.2041  0.6708  0.3856
 9375TIP3    H128089   6.309   2.534   2.874  1.8415 -0.0616  0.5406
 9375TIP3    H228090   6.297   2.411   2.961  2.4632 -1.3686 -1.1624
 9376TIP3   OH228091   2.861   0.000   0.877 -0.1094  0.2204  0.2171
 9376TIP3    H128092   2.944   0.039   0.849 -0.7536  0.0490 -2.1607
 9376TIP3    H228093   2.797   0.071   0.870 -0.6377 -0.3211 -0.6707
 9377TIP3   OH228094   5.190   3.407   1.845 -0.0289  0.3622  0.1462
 9377TIP3    H128095   5.133   3.481   1.864 -1.8191 -0.8798 -0.1394
 9377TIP3    H228096   5.229   3.427   1.760 -1.3431  0.5044 -0.4440
 9378TIP3   OH228097   2.333   3.648   5.355 -0.2809  0.3053 -0.8428
 9378TIP3    H128098   2.298   3.594   5.426 -0.4999 -1.5073 -2.2561
 9378TIP3    H228099   2.398   3.703   5.397 -2.4204  1.4151  1.2775
 9379TIP3   OH228100   6.432   2.083   1.876 -0.5216  0.0956 -0.9410
 9379TIP3    H128101   6.416   2.130   1.795 -2.7010 -0.0537 -0.6586
 9379TIP3    H228102   6.354   2.099   1.929 -0.6577 -2.5106 -0.2082
 9380TIP3   OH228103   0.318   6.175   1.144 -0.3386  0.1591 -0.4142
 9380TIP3    H128104   0.313   6.199   1.236 -0.5781 -0.8173 -0.1648
 9380TIP3    H228105   0.349   6.255   1.100 -2.1423  1.2838  0.2318
 9381TIP3   OH228106   0.633   1.285   3.922  0.1651 -0.3765  0.2932
 9381TIP3    H128107   0.578   1.256   3.850  0.5848  0.4393 -0.3661
 9381TIP3    H228108   0.676   1.205   3.953 -1.4890 -1.0578  0.9321
 9382TIP3   OH228109   1.240   2.962   2.291 -0.0044 -0.5393  0.5570
 9382TIP3    H128110   1.149   2.945   2.266 -0.8288 -0.8947  3.4045
 9382TIP3    H228111   1.272   2.878   2.322  1.3914 -0.4486 -0.5781
 9383TIP3   OH228112   5.976   1.098   4.317 -0.0952  0.8724 -0.2228
 9383TIP3    H128113   5.884   1.072   4.312  0.2974 -0.5690 -0.3160
 9383TIP3    H228114   5.975   1.193   4.306 -1.6278  0.9541  0.4617
 9384TIP3   OH228115   3.481   6.210   2.757  0.0617  0.1997 -0.4723
 9384TIP3    H128116   3.401   6.157   2.750 -0.1832  0.4641  0.2818
 9384TIP3    H228117   3.484   6.237   2.849 -0.0106  1.8135 -0.9232
 9385TIP3   OH228118   5.995   4.274   0.853  0.1889 -0.3275 -0.0075
 9385TIP3    H128119   6.046   4.340   0.808 -1.9503  0.5214 -1.3402
 9385TIP3    H228120   6.000   4.298   0.946  2.8543 -0.8283  0.0538
 9386TIP3   OH228121   6.132   1.702   3.899 -0.1242 -0.3829 -0.7601
 9386TIP3    H128122   6.195   1.634   3.922  0.9272  1.2215  1.4809
 9386TIP3    H228123   6.182   1.763   3.845 -0.3108 -0.0338 -0.5374
 9387TIP3   OH228124   4.143   1.948   2.405  0.0539 -0.4183 -0.2750
 9387TIP3    H128125   4.089   1.872   2.384  0.0262 -0.8057  1.0512
 9387TIP3    H228126   4.136   1.955   2.501 -1.4974  2.4091 -0.4893
 9388TIP3   OH228127   6.257   1.123   1.950 -0.0388 -0.1522 -0.2731
 9388TIP3    H128128   6.194   1.087   1.888 -1.0854 -1.2771  1.3692
 9388TIP3    H228129   6.268   1.054   2.016  1.4565  0.7751  0.5126
 9389TIP3   OH228130   1.271   6.242   0.035 -0.3757  0.4651 -0.7387
 9389TIP3    H128131   1.281   6.308   0.103  1.6416 -0.8349  0.3156
 9389TIP3    H228132   1.329   6.270  -0.035 -0.2319  0.2919 -0.6893
 9390TIP3   OH228133   2.676   2.512   0.647  1.2931 -0.2672 -0.5265
 9390TIP3    H128134   2.587   2.523   0.682  0.8489  1.2124 -1.9767
 9390TIP3    H228135   2.662   2.490   0.555  2.4410 -2.6838 -0.1927
 9391TIP3   OH228136   4.497   6.356   4.015 -0.1305 -0.3652  0.0400
 9391TIP3    H128137   4.536   6.440   3.990  2.7503 -0.3406  3.7807
 9391TIP3    H228138   4.557   6.290   3.981 -1.0081 -0.8231 -0.6717
 9392TIP3   OH228139   5.659   1.623   2.966  0.4229 -0.5749  1.0379
 9392TIP3    H128140   5.639   1.572   3.045  0.7203 -0.5347  1.1409
 9392TIP3    H228141   5.740   1.584   2.933  0.4743 -0.3790  0.9350
 9393TIP3   OH228142   4.198   3.932   2.796  0.5860  0.0736 -0.0699
 9393TIP3    H128143   4.279   3.890   2.766 -0.5286 -2.0285 -0.2759
 9393TIP3    H228144   4.171   3.880   2.872 -0.3689  1.0145  0.2536
 9394TIP3   OH228145   0.090   3.094   4.640 -0.2516 -0.3762 -0.5007
 9394TIP3    H128146   0.182   3.074   4.624 -0.0943 -0.8112  0.8802
 9394TIP3    H228147   0.056   3.019   4.688 -0.8540  0.5537  0.5886
 9395TIP3   OH228148   5.952   6.354   5.657  0.1120  0.5470 -0.7536
 9395TIP3    H128149   5.986   6.412   5.726 -0.1078 -0.6910  0.4484
 9395TIP3    H228150   5.893   6.409   5.606 -0.6051  1.2337  0.7578
 9396TIP3   OH228151   5.285   4.256   5.800 -0.0396 -0.7242  0.8788
 9396TIP3    H128152   5.276   4.167   5.764 -1.3263  0.2831 -1.5277
 9396TIP3    H228153   5.204   4.270   5.850  0.6279 -1.2320  2.1422
 9397TIP3   OH228154   0.807   6.564   2.736  0.3952  0.0962 -0.0827
 9397TIP3    H128155   0.718   6.599   2.743  1.1962  1.9661  1.2840
 9397TIP3    H228156   0.833   6.583   2.645 -0.8469 -1.2228 -0.7604
 9398TIP3   OH228157   4.027   4.535   2.179 -0.0893  0.0800 -0.0714
 9398TIP3    H128158   3.956   4.526   2.115 -0.3358  0.1012  0.1924
 9398TIP3    H228159   4.006   4.471   2.247  0.5337 -0.4066 -0.3382
 9399TIP3   OH228160   6.157   4.750   2.675  0.0525 -0.4940  0.5619
 9399TIP3    H128161   6.149   4.844   2.660  0.0592 -0.5882 -0.0559
 9399TIP3    H228162   6.127   4.738   2.765 -1.5313 -0.1041  0.1204
 9400TIP3   OH228163   0.656   0.015   5.322  0.2137 -0.1279  0.1205
 9400TIP3    H128164   0.738  -0.016   5.361  1.1491  0.9959 -0.8331
 9400TIP3    H228165   0.685   0.068   5.247 -1.2998  1.8874  0.8885
 9401TIP3   OH228166   1.231   5.332   1.803 -0.6250 -0.1937 -0.0031
 9401TIP3    H128167   1.240   5.251   1.852 -0.2129 -0.6351 -0.7853
 9401TIP3    H228168   1.217   5.304   1.712 -0.7604  0.6003 -0.2392
 9402TIP3   OH228169   6.746   5.655   0.111 -0.4271 -0.0479 -0.0617
 9402TIP3    H128170   6.768   5.569   0.146  0.9975 -0.3292 -1.5378
 9402TIP3    H228171   6.763   5.715   0.184 -0.3719 -0.8960  0.6437
 9403TIP3   OH228172   4.976   2.335   0.884  0.3501  1.0428  0.4442
 9403TIP3    H128173   5.047   2.377   0.931  1.1802  1.6003 -1.2076
 9403TIP3    H228174   4.946   2.402   0.821  0.3783 -0.1523 -0.8959
 9404TIP3   OH228175   0.719   4.784   5.807  0.3433 -0.0837  0.5758
 9404TIP3    H128176   0.774   4.740   5.871  1.1440 -1.6100 -1.0766
 9404TIP3    H228177   0.718   4.726   5.731 -1.2971  1.2197 -0.4949
 9405TIP3   OH228178   2.979   0.114   4.666  0.2148 -0.2657 -0.3725
 9405TIP3    H128179   2.964   0.020   4.674 -3.5137 -0.0730 -2.5447
 9405TIP3    H228180   2.963   0.133   4.573 -2.4145  2.8603  0.5278
 9406TIP3   OH228181   3.096   1.533   4.967  0.4165  0.5092  0.1576
 9406TIP3    H128182   3.009   1.561   4.999  0.9739  1.3545  0.9928
 9406TIP3    H228183   3.125   1.470   5.033 -0.6901 -1.9389 -1.5411
 9407TIP3   OH228184   6.757   0.159   3.171 -0.4301 -0.1326 -0.0328
 9407TIP3    H128185   6.664   0.141   3.182 -0.4147 -0.6940 -0.7668
 9407TIP3    H228186   6.797   0.130   3.253 -0.9569  0.5795  0.4881
 9408TIP3   OH228187   5.518   3.678   4.724 -0.2642  0.2341  0.2558
 9408TIP3    H128188   5.473   3.730   4.791 -3.3692 -2.1393  0.2519
 9408TIP3    H228189   5.547   3.599   4.770 -0.2166 -0.3320 -0.7076
 9409TIP3   OH228190   6.405   2.409   1.072 -0.1884  0.1756  0.3158
 9409TIP3    H128191   6.394   2.502   1.091 -0.8709  0.1103  0.2626
 9409TIP3    H228192   6.399   2.404   0.976 -2.0031 -0.1390  0.4143
 9410TIP3   OH228193   3.337   1.137   0.614 -0.1483  0.0971  0.0206
 9410TIP3    H128194   3.333   1.174   0.702 -0.9394  0.2314 -0.0623
 9410TIP3    H228195   3.246   1.132   0.586 -0.1251 -2.3630  0.1996
 9411TIP3   OH228196   6.831   6.212   4.983  0.1395  0.2390  0.1252
 9411TIP3    H128197   6.765   6.186   4.919  0.5470 -1.3414  0.3144
 9411TIP3    H228198   6.879   6.131   5.003  2.8152  1.4847 -0.7683
 9412TIP3   OH228199   6.656   4.540   2.401  0.1081 -0.3006  0.0111
 9412TIP3    H128200   6.620   4.605   2.340 -1.1516 -1.0364 -0.0823
 9412TIP3    H228201   6.707   4.481   2.346  0.8908  0.3510  0.0301
 9413TIP3   OH228202   3.829   2.064   0.049  0.2119 -0.1360  0.5515
 9413TIP3    H128203   3.884   2.056   0.128  1.8016  1.0832 -0.3736
 9413TIP3    H228204   3.760   2.124   0.075  1.2027  0.9391  0.8186
 9414TIP3   OH228205   1.185   6.717   2.651  0.3146 -0.4261  0.1463
 9414TIP3    H128206   1.117   6.709   2.718  0.7858 -1.9495  0.4852
 9414TIP3    H228207   1.258   6.665   2.685  1.3550  0.5078 -0.5933
 9415TIP3   OH228208   6.928   3.208   2.084 -0.3709 -0.6585 -0.0543
 9415TIP3    H128209   6.966   3.250   2.161  2.5465 -0.0872 -1.6601
 9415TIP3    H228210   6.927   3.114   2.105  1.5847 -0.6437  0.2789
 9416TIP3   OH228211   3.176   0.874   5.155  0.4284 -0.1651 -0.1864
 9416TIP3    H128212   3.227   0.827   5.222  1.9431 -1.4014 -2.0938
 9416TIP3    H228213   3.188   0.966   5.177  1.6471 -0.5076  0.7363
 9417TIP3   OH228214   3.677   3.919   2.874  0.3786 -0.3945  0.0201
 9417TIP3    H128215   3.683   3.824   2.887  0.9633 -0.4517 -0.6003
 9417TIP3    H228216   3.637   3.952   2.954  0.2276 -1.1599  0.2668
 9418TIP3   OH228217   4.020   1.942   4.278  0.7223  0.2458  0.1729
 9418TIP3    H128218   4.107   1.908   4.298  0.5285  0.1930  0.9538
 9418TIP3    H228219   4.021   2.032   4.311 -0.1495 -0.3765  1.9927
 9419TIP3   OH228220   1.651   5.910   0.826 -0.3437 -0.1534  0.0663
 9419TIP3    H128221   1.652   5.871   0.913 -2.1667  0.7137  0.5375
 9419TIP3    H228222   1.618   5.841   0.769 -1.9182  0.1040  0.6009
 9420TIP3   OH228223   4.025   1.729   0.444 -0.4729 -0.0449 -0.5989
 9420TIP3    H128224   4.098   1.694   0.394 -0.5510 -1.1734  0.0346
 9420TIP3    H228225   3.947   1.704   0.394 -0.5914 -1.7645  0.3703
 9421TIP3   OH228226   4.999   6.545   3.417 -0.3432 -0.0484  0.3304
 9421TIP3    H128227   5.035   6.634   3.406 -0.8505 -0.0378 -1.6233
 9421TIP3    H228228   5.075   6.492   3.442 -0.2329  1.0889  2.6208
 9422TIP3   OH228229   4.628   0.749   0.392 -0.1250 -0.1527  0.3154
 9422TIP3    H128230   4.630   0.670   0.447  1.0612  1.2746  2.4670
 9422TIP3    H228231   4.536   0.778   0.396  0.0985  0.5047  2.5955
 9423TIP3   OH228232   5.899   3.538   5.175 -0.0226 -0.6814 -0.0856
 9423TIP3    H128233   5.968   3.604   5.180 -0.4342 -0.0190 -2.1643
 9423TIP3    H228234   5.832   3.568   5.236 -0.8255  1.6738 -1.9762
 9424TIP3   OH228235   5.323   1.282   0.328 -0.2024  0.0132  0.0168
 9424TIP3    H128236   5.293   1.358   0.278 -0.2520 -0.4095 -0.6057
 9424TIP3    H228237   5.255   1.269   0.395  0.0597  0.8186  0.4512
 9425TIP3   OH228238   3.786   1.897   2.842  0.0509  0.2395 -0.6508
 9425TIP3    H128239   3.763   1.936   2.927 -2.3833 -1.0072 -0.6608
 9425TIP3    H228240   3.776   1.969   2.779 -2.6267  0.1382 -0.4312
 9426TIP3   OH228241   3.951   0.696   1.113  0.5491  0.3953  0.2330
 9426TIP3    H128242   3.925   0.606   1.135  0.7756  0.5466  1.1973
 9426TIP3    H228243   4.040   0.688   1.081 -0.0287  0.0831 -1.4063
 9427TIP3   OH228244   5.896   6.574   0.391 -1.1229  0.4651  0.1382
 9427TIP3    H128245   5.852   6.547   0.472 -2.1793  0.8202 -0.2957
 9427TIP3    H228246   5.825   6.602   0.333 -0.3718  0.3996 -0.8497
 9428TIP3   OH228247   1.431   3.301   3.014  0.6025 -0.6439 -0.1360
 9428TIP3    H128248   1.453   3.263   3.099  1.7239  1.4616  0.5991
 9428TIP3    H228249   1.513   3.300   2.965  1.9174  4.1535  1.3668
 9429TIP3   OH228250   6.751   6.730   2.369  0.0659  0.5522 -0.2076
 9429TIP3    H128251   6.703   6.689   2.440  0.5300  1.1910  0.4809
 9429TIP3    H228252   6.730   6.677   2.292  0.2635 -0.6773  0.5699
 9430TIP3   OH228253   1.771   3.429   5.089  0.2054  0.5050 -0.3505
 9430TIP3    H128254   1.806   3.340   5.080  0.7785  0.5204  1.4458
 9430TIP3    H228255   1.805   3.476   5.013  0.3686 -0.6501 -1.0228
 9431TIP3   OH228256   6.947   1.769   1.166 -0.1571 -0.4909 -1.4216
 9431TIP3    H128257   6.861   1.792   1.131 -0.9514 -1.3465 -0.1292
 9431TIP3    H228258   6.928   1.723   1.248  1.5757  0.5168 -0.3884
 9432TIP3   OH228259   3.164   5.505   2.960 -0.0971 -0.3112 -0.3517
 9432TIP3    H128260   3.178   5.497   2.866 -1.4658 -0.2858 -0.5767
 9432TIP3    H228261   3.081   5.460   2.976 -0.4585  0.6729  0.6529
 9433TIP3   OH228262   1.608   2.974   4.255  0.1670 -0.8590  0.5585
 9433TIP3    H128263   1.624   3.057   4.300  0.6146 -0.8503  0.3912
 9433TIP3    H228264   1.517   2.979   4.226  0.9540  0.8243 -1.9756
 9434TIP3   OH228265   4.793   2.674   0.515 -0.5319 -0.0288  0.1161
 9434TIP3    H128266   4.707   2.663   0.474 -0.7646  0.4595  0.4674
 9434TIP3    H228267   4.798   2.767   0.536  0.2425  0.0213 -0.2371
 9435TIP3   OH228268   6.241   3.491   1.734  0.1761  0.0411 -0.4133
 9435TIP3    H128269   6.158   3.450   1.711  0.0968 -1.0954  1.6489
 9435TIP3    H228270   6.303   3.459   1.669 -1.0231  1.2903 -2.2868
 9436TIP3   OH228271   2.890   0.929   3.840 -0.1265 -0.2203  0.2925
 9436TIP3    H128272   2.855   1.000   3.787 -0.2127 -0.5774 -0.1407
 9436TIP3    H228273   2.978   0.958   3.864 -0.2556  0.1402  0.3290
 9437TIP3   OH228274   4.923   6.095   0.703  0.0889 -0.6921 -0.3142
 9437TIP3    H128275   5.010   6.063   0.678  0.3500  1.3013 -2.3363
 9437TIP3    H228276   4.932   6.119   0.795  2.2087  0.8383 -0.8389
 9438TIP3   OH228277   2.492   2.578   5.266  0.1524 -0.2615 -0.5473
 9438TIP3    H128278   2.545   2.655   5.241  2.0408 -1.8340 -1.7091
 9438TIP3    H228279   2.554   2.521   5.311 -1.0430 -1.4055 -0.3239
 9439TIP3   OH228280   1.032   4.842   5.773  0.4194  0.5928  0.1232
 9439TIP3    H128281   1.107   4.847   5.715  0.9591 -0.0592  0.7430
 9439TIP3    H228282   0.982   4.922   5.756  0.4942  0.3543 -1.3070
 9440TIP3   OH228283   0.272   2.889   1.451 -0.4966  0.4051  0.2705
 9440TIP3    H128284   0.221   2.960   1.412 -0.0185 -0.4272 -1.9993
 9440TIP3    H228285   0.208   2.820   1.467 -0.1482 -0.8856 -3.1699
 9441TIP3   OH228286   5.199   6.205   2.779 -0.6956  0.0883 -0.1836
 9441TIP3    H128287   5.241   6.121   2.762 -1.1295  0.0344 -0.9977
 9441TIP3    H228288   5.107   6.192   2.758 -1.1705  0.1962  1.6561
 9442TIP3   OH228289   1.731   0.332   3.342 -0.2729  0.2249  0.2139
 9442TIP3    H128290   1.661   0.271   3.364  0.6900 -0.9092  0.2292
 9442TIP3    H228291   1.692   0.393   3.280 -1.0774 -0.8145 -0.3197
 9443TIP3   OH228292   3.684   6.503   0.757  0.2192 -0.6949 -0.1184
 9443TIP3    H128293   3.672   6.419   0.801 -1.1696 -0.1552  0.6020
 9443TIP3    H228294   3.746   6.485   0.686  0.9900 -2.0188  0.8405
 9444TIP3   OH228295   5.782   2.448   2.556  0.4788  0.0264  0.2227
 9444TIP3    H128296   5.716   2.432   2.488  0.2211 -0.2609  0.5373
 9444TIP3    H228297   5.825   2.529   2.529 -0.1042  0.2968  0.0935
 9445TIP3   OH228298   0.451   3.930   0.770  0.1488  0.4250 -0.0441
 9445TIP3    H128299   0.529   3.961   0.816 -0.7850 -0.3988  2.2494
 9445TIP3    H228300   0.422   3.854   0.820 -0.0756 -1.5750 -3.0022
 9446TIP3   OH228301   5.017   4.581   2.889  0.0670  0.0432 -0.7487
 9446TIP3    H128302   4.953   4.651   2.902  1.4108  1.3236 -0.7725
 9446TIP3    H228303   5.060   4.572   2.973  0.1415 -0.5231 -0.8471
 9447TIP3   OH228304   1.679   4.884   5.347  0.2245  0.2925 -0.4892
 9447TIP3    H128305   1.598   4.834   5.334 -0.7294  0.9132  2.4530
 9447TIP3    H228306   1.665   4.964   5.296 -0.3890 -0.1967 -1.1197
 9448TIP3   OH228307   5.183   0.928   2.596  0.1764  0.1608  0.0134
 9448TIP3    H128308   5.134   0.904   2.674  0.2725 -0.6820 -0.1746
 9448TIP3    H228309   5.180   1.023   2.593 -0.5177  0.1572  0.5983
 9449TIP3   OH228310   4.807   1.694   0.225 -0.4442  0.3651 -0.3060
 9449TIP3    H128311   4.847   1.612   0.255  1.0973  0.9528 -0.6408
 9449TIP3    H228312   4.777   1.737   0.305 -0.8972 -0.3454 -0.0917
 9450TIP3   OH228313   6.512   4.338   0.374 -0.1318 -0.1928  0.0445
 9450TIP3    H128314   6.443   4.284   0.335  2.1432 -2.4941 -1.0145
 9450TIP3    H228315   6.474   4.367   0.457 -3.1568  0.5076 -1.4096
 9451TIP3   OH228316   4.837   0.098   5.288  0.4955  0.2056 -0.0680
 9451TIP3    H128317   4.834   0.050   5.371 -0.0771 -0.3378 -0.3892
 9451TIP3    H228318   4.831   0.030   5.221  1.9741  0.5585 -0.5833
 9452TIP3   OH228319   0.000   1.544   0.773  0.1539 -0.2188 -0.2730
 9452TIP3    H128320   0.012   1.613   0.709  0.0732  0.9305  0.9160
 9452TIP3    H228321   0.049   1.469   0.737  1.1713  0.7865 -1.0546
 9453TIP3   OH228322   1.831   2.811   4.295  0.1719  0.1032  0.8264
 9453TIP3    H128323   1.758   2.857   4.255  0.5402 -0.3262 -0.3806
 9453TIP3    H228324   1.790   2.749   4.355 -0.7045 -2.2085 -1.9293
 9454TIP3   OH228325   0.589   4.277   3.039 -0.1753 -0.2325  0.0738
 9454TIP3    H128326   0.588   4.345   3.107 -1.9474 -1.1670  1.0639
 9454TIP3    H228327   0.675   4.235   3.049  0.2277  0.6751  0.6430
 9455TIP3   OH228328   5.279   5.095   2.867 -0.0894  0.0956 -0.0399
 9455TIP3    H128329   5.265   5.129   2.956 -0.7036 -0.2191 -0.0062
 9455TIP3    H228330   5.360   5.136   2.838  0.2277  0.0419  0.7482
 9456TIP3   OH228331   0.825   0.432   0.943 -0.0947 -0.2160  0.2450
 9456TIP3    H128332   0.782   0.517   0.947 -1.5349 -0.8791 -0.3979
 9456TIP3    H228333   0.856   0.425   0.853 -0.1461 -0.4403  0.2426
 9457TIP3   OH228334   1.150   0.939   4.586 -1.0615 -0.5690  0.0703
 9457TIP3    H128335   1.083   0.957   4.521  0.0480 -0.8316 -1.1805
 9457TIP3    H228336   1.206   1.017   4.586 -1.0239 -0.5902  0.6807
 9458TIP3   OH228337   1.625   3.753   3.871  0.1753 -0.2141  0.2787
 9458TIP3    H128338   1.559   3.684   3.860 -0.6975  0.8225 -1.3292
 9458TIP3    H228339   1.697   3.727   3.813 -0.4207  0.5091 -0.8128
 9459TIP3   OH228340   5.791   5.627   3.550  0.2343 -0.5464 -0.8228
 9459TIP3    H128341   5.753   5.714   3.540  1.5488  0.1221 -0.3597
 9459TIP3    H228342   5.802   5.616   3.645  1.1340 -0.7099 -0.9293
 9460TIP3   OH228343   3.791   1.778   1.964  0.1329 -0.2643  0.2956
 9460TIP3    H128344   3.771   1.869   1.940  1.1762 -0.1912 -0.3680
 9460TIP3    H228345   3.745   1.725   1.897  1.4262 -0.1275 -0.7333
 9461TIP3   OH228346   5.824   2.461   5.335  0.5549 -0.2540 -0.0138
 9461TIP3    H128347   5.899   2.521   5.344  1.0710 -0.9284  0.1969
 9461TIP3    H228348   5.860   2.374   5.350  0.1192 -0.7892 -1.8027
 9462TIP3   OH228349   5.007   1.270   1.807 -0.1123  0.4659 -0.4215
 9462TIP3    H128350   5.011   1.287   1.902 -0.7736  0.6721 -0.4202
 9462TIP3    H228351   4.922   1.307   1.781 -0.5581 -0.8102 -0.8430
 9463TIP3   OH228352   3.122   5.114   0.295  0.0452 -0.2238  0.0430
 9463TIP3    H128353   3.091   5.100   0.385  1.4160  2.5989  1.0644
 9463TIP3    H228354   3.149   5.206   0.293 -1.5799  0.3533 -3.7882
 9464TIP3   OH228355   3.147   5.006   3.206 -0.0983 -0.1889  0.1673
 9464TIP3    H128356   3.149   5.038   3.296  0.4080 -0.3728  0.2195
 9464TIP3    H228357   3.079   4.939   3.206 -0.6861  0.3870  0.2157
 9465TIP3   OH228358   3.342   1.118   5.127 -0.3827 -0.1139 -0.2260
 9465TIP3    H128359   3.380   1.047   5.076 -0.3019 -0.6169  0.5224
 9465TIP3    H228360   3.370   1.198   5.082  0.2486 -0.5267 -0.5750
 9466TIP3   OH228361   3.313   5.031   0.900 -0.6293 -0.0765 -0.1008
 9466TIP3    H128362   3.221   5.058   0.895 -0.5567  0.0892 -0.6660
 9466TIP3    H228363   3.350   5.085   0.970 -0.5874  1.0074 -0.9364
 9467TIP3   OH228364   0.488   2.861   0.145  0.6573 -0.6123 -0.1316
 9467TIP3    H128365   0.476   2.944   0.191 -1.0870 -0.2915 -1.0879
 9467TIP3    H228366   0.561   2.876   0.086 -0.2427  0.5755 -0.9823
 9468TIP3   OH228367   6.377   3.994   3.617  0.1839 -0.7188  0.1943
 9468TIP3    H128368   6.331   3.914   3.642  0.0002 -0.5161  0.4959
 9468TIP3    H228369   6.444   3.964   3.555 -0.8704 -0.9044 -0.8863
 9469TIP3   OH228370   0.865   1.769   5.408  0.2535  0.3716 -0.6691
 9469TIP3    H128371   0.917   1.799   5.333  1.5338  0.0677  0.0708
 9469TIP3    H228372   0.919   1.702   5.449  0.2607  1.5947  1.4286
 9470TIP3   OH228373   1.710   3.464   1.617 -0.0744  0.1323  0.1711
 9470TIP3    H128374   1.772   3.394   1.595  0.7383  0.7201  0.5205
 9470TIP3    H228375   1.639   3.420   1.664 -0.1583 -0.6235 -0.6424
 9471TIP3   OH228376   5.265   4.506   5.020  0.1161  0.3276 -0.0538
 9471TIP3    H128377   5.302   4.594   5.014  0.3469  0.3982  1.7165
 9471TIP3    H228378   5.240   4.484   4.930  2.0436  1.3134 -0.8935
 9472TIP3   OH228379   1.704   4.423   2.624 -0.2729 -0.3321 -0.1780
 9472TIP3    H128380   1.695   4.355   2.690  1.0371  1.6878  2.2666
 9472TIP3    H228381   1.646   4.493   2.653 -2.1199 -0.5447 -2.9900
 9473TIP3   OH228382   1.406   5.454   0.330  0.3609  0.4720  0.0126
 9473TIP3    H128383   1.499   5.475   0.335  0.2842  0.5611  1.1443
 9473TIP3    H228384   1.362   5.539   0.332  0.1948  0.3656  0.9816
 9474TIP3   OH228385   4.028   3.274   2.696  0.2642  0.0871  0.7970
 9474TIP3    H128386   3.965   3.302   2.762 -0.5714  0.4433 -0.1316
 9474TIP3    H228387   3.976   3.228   2.630  0.3686  2.9660 -1.5483
 9475TIP3   OH228388   0.032   5.893   0.296  0.2550  0.3858  0.1711
 9475TIP3    H128389   0.074   5.966   0.251  1.4152 -0.0738  0.4706
 9475TIP3    H228390   0.030   5.823   0.230 -0.3504  0.5021  0.0585
 9476TIP3   OH228391   7.131   2.748   2.021 -0.1147  0.5583 -0.2251
 9476TIP3    H128392   7.223   2.724   2.031 -0.5330 -1.8980 -1.5736
 9476TIP3    H228393   7.084   2.691   2.083 -0.9056 -0.0329 -1.3393
 9477TIP3   OH228394   4.500   1.524   1.433  0.5947 -0.7306 -0.1351
 9477TIP3    H128395   4.489   1.619   1.438 -1.2188 -0.6418 -3.2016
 9477TIP3    H228396   4.411   1.489   1.437  1.0955 -2.1479 -0.6197
 9478TIP3   OH228397   0.408   0.152   2.451 -0.5320 -0.2915  0.5387
 9478TIP3    H128398   0.342   0.188   2.391 -0.4105  0.6885  0.9727
 9478TIP3    H228399   0.397   0.203   2.532  0.8602  0.0177  0.5660
 9479TIP3   OH228400   0.953   3.433   1.490  0.4206  0.3509 -0.6272
 9479TIP3    H128401   0.868   3.403   1.460  0.8996 -1.9308  0.0884
 9479TIP3    H228402   1.008   3.433   1.411  0.3355 -0.4965 -0.6970
 9480TIP3   OH228403   0.991   2.676   3.957 -0.9932 -0.0458 -0.4107
 9480TIP3    H128404   0.912   2.671   4.011 -0.8335 -0.4750 -0.2133
 9480TIP3    H228405   1.045   2.742   3.999 -0.5507 -0.9004  0.3846
 9481TIP3   OH228406   0.262   2.210   2.704  0.3134 -0.4465  0.7080
 9481TIP3    H128407   0.301   2.145   2.644  1.5481 -0.2337  1.2409
 9481TIP3    H228408   0.300   2.294   2.676 -1.7645  0.1826 -0.3910
 9482TIP3   OH228409   3.638   3.796   4.322 -0.4843 -0.0103 -0.4343
 9482TIP3    H128410   3.566   3.733   4.331 -0.7469  0.1922 -1.0515
 9482TIP3    H228411   3.611   3.871   4.376  0.7729 -1.2061  1.9969
 9483TIP3   OH228412   5.977   4.655   0.686  0.0616 -0.4077  0.6856
 9483TIP3    H128413   6.009   4.644   0.775  0.9546 -1.8483  0.2231
 9483TIP3    H228414   5.911   4.586   0.676 -1.4873  0.9846  0.8318
 9484TIP3   OH228415   1.930   5.953   5.774  0.4876 -0.2119  0.0257
 9484TIP3    H128416   2.010   5.909   5.805  0.1461 -0.7458  0.1651
 9484TIP3    H228417   1.927   5.933   5.680  1.1950  0.8906 -0.2501
 9485TIP3   OH228418   7.109   0.587   5.184  0.1993  0.0580 -0.0082
 9485TIP3    H128419   7.080   0.676   5.164  0.2199  0.0336 -0.1450
 9485TIP3    H228420   7.035   0.547   5.229  0.0705  0.0397 -0.2361
 9486TIP3   OH228421   3.300   5.971   5.523  0.2081 -0.2727  0.2135
 9486TIP3    H128422   3.299   5.875   5.523  0.3120 -0.2742 -0.1843
 9486TIP3    H228423   3.238   5.996   5.455 -0.7459 -0.0391  1.1458
 9487TIP3   OH228424   4.156   2.758   4.234  0.1531 -0.4299 -0.2284
 9487TIP3    H128425   4.084   2.782   4.293 -0.0707 -0.6260 -0.4237
 9487TIP3    H228426   4.173   2.838   4.184  0.9541  0.0213  0.7264
 9488TIP3   OH228427   5.137   4.587   0.027  0.1210 -0.2119  0.3665
 9488TIP3    H128428   5.152   4.655  -0.038 -1.9601 -0.3218 -0.3012
 9488TIP3    H228429   5.200   4.606   0.097 -1.0761  3.0779  0.7267
 9489TIP3   OH228430   7.152   0.816   1.272  0.3871  0.1388 -0.5380
 9489TIP3    H128431   7.171   0.776   1.357  0.0735  2.4327  0.6912
 9489TIP3    H228432   7.232   0.865   1.250  0.1038  0.3593 -1.0993
 9490TIP3   OH228433   0.737   6.008   3.941  0.0517  0.1010 -0.1256
 9490TIP3    H128434   0.704   5.974   4.024  0.3252  0.7918  0.2781
 9490TIP3    H228435   0.659   6.022   3.888 -0.2854  1.1489  0.5982
 9491TIP3   OH228436   1.317   6.342   3.727 -0.1041 -0.1865  0.2835
 9491TIP3    H128437   1.242   6.400   3.711  0.7794  0.8882 -0.1225
 9491TIP3    H228438   1.289   6.287   3.800 -1.7103 -0.6036 -0.5882
 9492TIP3   OH228439   0.190   4.939   1.932 -0.1272 -0.3748  0.1925
 9492TIP3    H128440   0.163   5.031   1.924 -2.2118 -0.9291  0.3206
 9492TIP3    H228441   0.230   4.934   2.018 -0.8728  0.2285  0.5941
 9493TIP3   OH228442   7.177   6.760   3.212  0.3005 -0.0104 -0.2029
 9493TIP3    H128443   7.174   6.681   3.158 -0.9000  0.5994 -1.0718
 9493TIP3    H228444   7.128   6.738   3.291 -0.2729 -0.0547 -0.5663
 9494TIP3   OH228445   0.096   2.207   0.011  0.1354  0.7787  0.0979
 9494TIP3    H128446   0.046   2.271  -0.040 -1.0617  0.7671  1.2075
 9494TIP3    H228447   0.167   2.258   0.051 -0.6718  1.3901  0.7860
 9495TIP3   OH228448   3.988   0.857   0.002 -0.5047  0.1508  0.9123
 9495TIP3    H128449   3.961   0.843   0.093 -0.7755  0.2974  0.8561
 9495TIP3    H228450   3.978   0.952  -0.011  0.8636  0.3480  1.1538
 9496TIP3   OH228451   7.133   6.296   2.165  0.1170 -0.6752  0.4906
 9496TIP3    H128452   7.204   6.252   2.212 -0.4181 -2.8663 -0.6087
 9496TIP3    H228453   7.113   6.237   2.092 -0.1978  1.7747 -1.5367
 9497TIP3   OH228454   6.474   3.831   0.968  0.2289  0.3164  0.3038
 9497TIP3    H128455   6.379   3.832   0.985  0.4587  0.3412  1.6860
 9497TIP3    H228456   6.481   3.831   0.872 -1.1802 -0.7036  0.1622
 9498TIP3   OH228457   0.451   0.771   5.394  0.1860 -0.0549  0.0943
 9498TIP3    H128458   0.404   0.757   5.476 -0.8245  2.4623  0.0129
 9498TIP3    H228459   0.540   0.793   5.420  0.8720 -2.7565  0.3195
 9499TIP3   OH228460   3.278   5.160   3.020 -0.1532  0.3638 -0.0819
 9499TIP3    H128461   3.253   5.236   3.073 -1.3884 -0.5853  0.7521
 9499TIP3    H228462   3.246   5.085   3.070 -1.8173 -0.5708 -2.3629
 9500TIP3   OH228463   6.845   2.014   5.375 -0.1281 -0.2025  0.2845
 9500TIP3    H128464   6.934   2.012   5.339 -0.0403 -1.6017  0.5136
 9500TIP3    H228465   6.802   2.086   5.328  0.6399 -0.5381 -0.9973
 9501TIP3   OH228466   4.024   0.243   0.009 -0.3320  0.1651  0.0207
 9501TIP3    H128467   3.950   0.297  -0.017 -1.1930 -1.2211 -0.5130
 9501TIP3    H228468   4.073   0.298   0.070 -0.6564  1.8648 -1.1799
 9502TIP3   OH228469   4.733   1.239   0.043 -0.0806 -0.5612  0.1716
 9502TIP3    H128470   4.763   1.173  -0.019  0.6772  0.2296 -0.3178
 9502TIP3    H228471   4.764   1.209   0.128  0.6938 -0.5903 -0.1145
 9503TIP3   OH228472   3.087   2.668   2.614 -0.6619 -0.0723 -0.0196
 9503TIP3    H128473   3.042   2.594   2.654  0.0929 -0.3778  0.2730
 9503TIP3    H228474   3.177   2.639   2.604  0.0019  1.3300  1.4918
 9504TIP3   OH228475   1.116   0.472   1.405 -0.1564 -0.1323  0.2636
 9504TIP3    H128476   1.072   0.417   1.470 -2.6890  0.6183 -0.7094
 9504TIP3    H228477   1.076   0.447   1.322 -0.7073  2.4417 -0.3380
 9505TIP3   OH228478   4.088   5.987   5.288  0.1445 -0.4615  1.2055
 9505TIP3    H128479   4.122   5.902   5.317  1.5131 -0.7896 -1.0803
 9505TIP3    H228480   4.117   6.049   5.355  2.4612 -1.2656  1.0448
 9506TIP3   OH228481   4.521   5.591   4.929  0.3113 -0.0421  0.5569
 9506TIP3    H128482   4.481   5.507   4.949 -1.5684  0.4394 -0.8742
 9506TIP3    H228483   4.499   5.607   4.837  1.0159  1.7973  0.6559
 9507TIP3   OH228484   4.105   1.388   1.877 -0.5741 -0.0996 -0.1596
 9507TIP3    H128485   4.121   1.295   1.892  0.1127 -0.1853 -1.3624
 9507TIP3    H228486   4.126   1.402   1.785  0.2063  1.4280  0.2242
 9508TIP3   OH228487   5.270   3.217   3.043  0.1067 -0.5138 -0.4095
 9508TIP3    H128488   5.188   3.210   3.092 -1.6794  0.9971 -2.9673
 9508TIP3    H228489   5.332   3.165   3.094 -1.6297  0.6059  3.1998
 9509TIP3   OH228490   0.700   3.600   1.255  0.0014 -1.2889  0.2736
 9509TIP3    H128491   0.616   3.647   1.247  0.7520 -0.1249 -1.6475
 9509TIP3    H228492   0.766   3.666   1.233  1.5777 -1.8737  2.8728
 9510TIP3   OH228493   3.479   2.132   3.845  1.2677 -0.0442  0.4746
 9510TIP3    H128494   3.434   2.146   3.928  0.5868 -2.2075  0.5132
 9510TIP3    H228495   3.571   2.123   3.869  1.2065  0.3438  0.8620
 9511TIP3   OH228496   4.691   3.092   1.048 -0.2418  0.7331 -0.0442
 9511TIP3    H128497   4.734   3.175   1.028  1.0008 -0.5732 -3.4108
 9511TIP3    H228498   4.762   3.033   1.071 -0.6179 -0.3357 -1.4561
 9512TIP3   OH228499   5.591   4.355   4.748 -0.6492 -0.2386  0.2280
 9512TIP3    H128500   5.635   4.364   4.833  1.1846  1.1890 -0.7967
 9512TIP3    H228501   5.517   4.296   4.765 -0.4736  0.1860  2.8455
 9513TIP3   OH228502   2.030   6.253   0.273 -0.3191 -0.2718 -0.3909
 9513TIP3    H128503   2.125   6.258   0.268 -0.1663 -1.7831  0.4698
 9513TIP3    H228504   2.003   6.216   0.189 -0.2362  0.9696 -0.9774
 9514TIP3   OH228505   5.996   0.917   3.716 -0.1063  0.1257 -0.1230
 9514TIP3    H128506   5.900   0.920   3.724  0.0748  2.5953  2.4404
 9514TIP3    H228507   6.023   0.851   3.780 -0.0462 -0.2855 -0.5659
 9515TIP3   OH228508   4.736   2.025   0.319  0.1208  0.4022  0.4108
 9515TIP3    H128509   4.731   1.933   0.342  0.4730  0.1896 -0.3454
 9515TIP3    H228510   4.771   2.026   0.230 -3.5617  1.0842 -1.1984
 9516TIP3   OH228511   2.696   2.021   5.016 -0.3511 -0.1463 -0.6835
 9516TIP3    H128512   2.665   2.104   5.054 -1.7124 -0.4847 -1.0117
 9516TIP3    H228513   2.676   1.955   5.083  0.5177 -0.2564 -0.5215
 9517TIP3   OH228514   4.017   2.804   0.610 -0.1706 -0.4617  0.6926
 9517TIP3    H128515   4.108   2.805   0.639 -0.4006  0.1528  1.4354
 9517TIP3    H228516   3.994   2.712   0.607  0.4063 -0.6127  0.7391
 9518TIP3   OH228517   0.242   1.042   4.995 -0.3957 -0.1393 -0.3975
 9518TIP3    H128518   0.328   1.005   5.013  0.3509  1.0068 -1.4603
 9518TIP3    H228519   0.213   1.077   5.079  0.6696  0.4324 -0.2508
 9519TIP3   OH228520   1.178   6.748   2.225 -0.9205  0.6046 -0.1218
 9519TIP3    H128521   1.249   6.762   2.287  1.4134 -3.6638 -1.4642
 9519TIP3    H228522   1.199   6.805   2.151  1.0272 -0.3337 -0.3491
 9520TIP3   OH228523   0.354   1.395   2.775  0.4368  0.1407 -0.3449
 9520TIP3    H128524   0.357   1.367   2.866 -0.6541  1.0048 -0.0145
 9520TIP3    H228525   0.272   1.444   2.768  2.2097  3.3233 -0.8132
 9521TIP3   OH228526   5.859   1.323   1.322  0.4557  0.2284  0.1930
 9521TIP3    H128527   5.878   1.410   1.357  0.6229 -0.1406  1.0309
 9521TIP3    H228528   5.869   1.264   1.396 -0.2459 -0.4433 -0.2289
 9522TIP3   OH228529   3.091   0.384   0.629 -0.1178 -0.0720 -0.1196
 9522TIP3    H128530   3.059   0.295   0.619  1.6585 -0.6851 -0.6779
 9522TIP3    H228531   3.135   0.384   0.715 -0.1015  0.2575 -0.1278
 9523TIP3   OH228532   2.798   1.864   3.159  0.2429 -0.1879  0.5090
 9523TIP3    H128533   2.807   1.806   3.084  0.9111 -0.9934  1.1842
 9523TIP3    H228534   2.818   1.951   3.125  0.7684 -0.5732 -0.1894
 9524TIP3   OH228535   6.502   2.840   5.808 -0.4116  0.4658 -0.0034
 9524TIP3    H128536   6.496   2.867   5.717 -0.3937 -0.5919 -0.3309
 9524TIP3    H228537   6.414   2.811   5.831 -0.3902  0.6222  0.2751
 9525TIP3   OH228538   1.874   2.548   4.754 -0.1994  0.1981 -0.5480
 9525TIP3    H128539   1.838   2.474   4.705 -0.6911  0.6804 -0.9356
 9525TIP3    H228540   1.936   2.508   4.815 -0.6187 -0.5580 -0.5913
 9526TIP3   OH228541   3.626   2.736   2.155 -0.3117 -0.0524 -0.2824
 9526TIP3    H128542   3.607   2.749   2.062 -0.1126  1.6474 -0.1213
 9526TIP3    H228543   3.547   2.696   2.191 -1.0766  0.9034 -0.8623
 9527TIP3   OH228544   3.872   1.543   3.299 -0.0412 -0.3545 -0.0549
 9527TIP3    H128545   3.899   1.578   3.384 -0.4293  0.4850 -0.2694
 9527TIP3    H228546   3.896   1.611   3.236 -0.9281 -0.4046 -0.4621
 9528TIP3   OH228547   1.709   5.964   1.635  0.1551 -0.0460  0.5105
 9528TIP3    H128548   1.689   6.049   1.596 -0.5812  0.2126  1.4194
 9528TIP3    H228549   1.804   5.959   1.633  0.2033  0.7577  0.3621
 9529TIP3   OH228550   0.910   5.273   3.655  0.0995 -0.0264  0.4046
 9529TIP3    H128551   0.854   5.350   3.666  0.0880 -0.3043  2.7732
 9529TIP3    H228552   0.920   5.237   3.743  0.1390 -2.7456 -0.6096
 9530TIP3   OH228553   4.346   1.007   4.595 -0.5730  0.2242  0.3372
 9530TIP3    H128554   4.407   1.008   4.521 -0.3154 -1.4778  0.4710
 9530TIP3    H228555   4.280   0.943   4.570  0.1818 -1.3241  2.0250
 9531TIP3   OH228556   3.663   0.425   4.248  0.3445  0.0445  0.1708
 9531TIP3    H128557   3.588   0.481   4.267  1.3278  1.6535 -0.4195
 9531TIP3    H228558   3.685   0.444   4.157  2.8470  1.4622  0.9378
 9532TIP3   OH228559   1.123   0.046   5.531  0.2716 -0.2977 -0.6378
 9532TIP3    H128560   1.184   0.090   5.591  1.2329 -0.2447 -1.6181
 9532TIP3    H228561   1.162  -0.040   5.517 -1.0122 -1.0861  0.3829
 9533TIP3   OH228562   6.007   1.055   2.986 -0.1985  0.0755  0.1904
 9533TIP3    H128563   5.917   1.053   3.020 -0.2402 -1.9040  0.0935
 9533TIP3    H228564   6.062   1.046   3.063 -0.1175  0.4735  0.1779
 9534TIP3   OH228565   2.133   3.088   5.576  0.2689  0.4200  0.1421
 9534TIP3    H128566   2.129   3.129   5.489 -0.8274  0.8406  0.3709
 9534TIP3    H228567   2.051   3.038   5.583  1.0199 -0.8179  0.3679
 9535TIP3   OH228568   3.024   3.856   5.081  0.6030 -0.1333 -0.1575
 9535TIP3    H128569   3.043   3.848   5.175  1.1470  1.1570 -0.1373
 9535TIP3    H228570   3.048   3.771   5.044  0.3434 -0.6692  0.8721
 9536TIP3   OH228571   4.514   1.737   2.073 -0.0759  0.3941 -0.1537
 9536TIP3    H128572   4.506   1.831   2.056 -3.0148  0.1429 -0.7379
 9536TIP3    H228573   4.478   1.725   2.161 -2.1791 -0.3791 -1.0340
 9537TIP3   OH228574   1.132   5.793   3.792 -0.2818  0.0569  0.1650
 9537TIP3    H128575   1.107   5.864   3.851  1.4992 -0.3509  1.5138
 9537TIP3    H228576   1.077   5.719   3.818 -1.8270  0.7736 -0.9471
 9538TIP3   OH228577   1.243   0.243   1.640 -0.4212  0.5151  0.2239
 9538TIP3    H128578   1.239   0.163   1.587 -1.8786 -1.5357  3.1621
 9538TIP3    H228579   1.156   0.282   1.630  0.1589  1.5812 -0.8893
 9539TIP3   OH228580   3.633   5.298   0.449  0.6509 -0.4922  0.0312
 9539TIP3    H128581   3.695   5.370   0.433 -1.6201  1.4302 -0.6746
 9539TIP3    H228582   3.591   5.320   0.532 -0.9912 -0.2808 -0.8321
 9540TIP3   OH228583   6.962   3.130   0.960  0.0517  0.3492  0.3524
 9540TIP3    H128584   6.932   3.140   0.869 -0.6147  0.6996  0.6043
 9540TIP3    H228585   7.053   3.160   0.958  0.4707 -0.9003 -0.4567
 9541TIP3   OH228586   5.427   2.758   5.048  0.7849  0.3588 -0.0910
 9541TIP3    H128587   5.492   2.691   5.069  1.1489 -0.2099 -2.7062
 9541TIP3    H228588   5.440   2.776   4.955 -2.3159  0.7594 -0.5539
 9542TIP3   OH228589   4.589   3.863   5.440  0.1344  0.3771 -0.1224
 9542TIP3    H128590   4.655   3.909   5.491  0.1303 -0.4172  0.6283
 9542TIP3    H228591   4.563   3.925   5.372 -1.1420  2.1596  1.8707
 9543TIP3   OH228592   3.135   3.330   1.067 -0.0741  0.2010 -0.5219
 9543TIP3    H128593   3.177   3.251   1.033 -0.7982 -0.5599  0.2926
 9543TIP3    H228594   3.206   3.381   1.105  0.6361  0.7109 -2.4247
 9544TIP3   OH228595   4.991   3.467   4.588  0.5596 -0.3782  0.1020
 9544TIP3    H128596   5.085   3.473   4.603  0.8364 -1.6579 -0.9667
 9544TIP3    H228597   4.981   3.475   4.493 -0.4334 -0.1367  0.2101
 9545TIP3   OH228598   6.822   1.568   2.236  0.0222  0.2569  0.6285
 9545TIP3    H128599   6.902   1.603   2.276  0.4939 -0.9084  0.7508
 9545TIP3    H228600   6.767   1.542   2.310 -0.3209  0.7408  0.5419
 9546TIP3   OH228601   3.530   6.543   5.764 -0.0064  0.6544 -0.5793
 9546TIP3    H128602   3.542   6.632   5.798  0.1280  0.8739 -1.1930
 9546TIP3    H228603   3.456   6.508   5.814 -0.2951  1.2423 -0.5827
 9547TIP3   OH228604   5.894   3.715   0.203 -0.3107  0.0237  0.4039
 9547TIP3    H128605   5.921   3.761   0.282 -0.7032  0.2602  0.4049
 9547TIP3    H228606   5.935   3.629   0.210  0.3399  0.3335  0.4522
 9548TIP3   OH228607  -0.010   5.277   0.301  0.1492  0.2197 -0.3705
 9548TIP3    H128608   0.076   5.256   0.265 -0.7802 -2.3365 -1.2883
 9548TIP3    H228609  -0.061   5.307   0.225 -0.0918  0.6836 -0.0334
 9549TIP3   OH228610   4.688   6.525   5.326  0.3498  0.0121 -0.3238
 9549TIP3    H128611   4.697   6.429   5.324  0.7001  0.0479 -0.4027
 9549TIP3    H228612   4.723   6.551   5.411 -1.8254 -0.1377  0.6842
 9550TIP3   OH228613   2.868   5.905   3.880  0.3184 -0.4686  0.8751
 9550TIP3    H128614   2.843   5.950   3.961 -0.7033 -0.4708  0.5783
 9550TIP3    H228615   2.959   5.879   3.894  0.5205  0.5578  1.5536
 9551TIP3   OH228616   1.384   2.416   2.023 -0.3840 -0.6074  0.1720
 9551TIP3    H128617   1.373   2.480   2.094 -0.5488 -0.0579 -0.3337
 9551TIP3    H228618   1.425   2.340   2.065 -0.4640 -0.2872  0.8495
 9552TIP3   OH228619   3.047   2.429   3.017 -0.3240  0.0266  0.0536
 9552TIP3    H128620   3.066   2.359   3.079 -1.4000  0.3850  0.8176
 9552TIP3    H228621   3.087   2.507   3.055  0.7643 -0.1298 -0.7331
 9553TIP3   OH228622   2.805   4.304   4.988  0.4830  0.4680 -0.5247
 9553TIP3    H128623   2.842   4.385   4.953 -0.1028  0.5904 -0.8851
 9553TIP3    H228624   2.871   4.237   4.968  0.3175  0.5976 -1.5647
 9554TIP3   OH228625   1.749   6.542   5.297 -0.0863 -0.3815  0.1455
 9554TIP3    H128626   1.764   6.570   5.207  0.3046  0.3545  0.4286
 9554TIP3    H228627   1.657   6.561   5.313 -0.2002 -0.6728 -0.1473
 9555TIP3   OH228628   2.698   1.549   4.077  0.5939  0.0570  0.4551
 9555TIP3    H128629   2.632   1.592   4.130  1.0160  0.8431  0.3531
 9555TIP3    H228630   2.675   1.572   3.987  1.5956  1.2019  0.4770
 9556TIP3   OH228631   3.442   4.529   0.793 -0.3252 -0.1864  0.0192
 9556TIP3    H128632   3.533   4.519   0.768 -0.0636  1.5957  0.1371
 9556TIP3    H228633   3.403   4.583   0.724 -0.8837  0.4096  0.7794
 9557TIP3   OH228634   1.147   5.684   4.825 -0.4759 -0.0578 -0.4289
 9557TIP3    H128635   1.084   5.656   4.891 -0.8260 -0.0259 -0.7414
 9557TIP3    H228636   1.158   5.608   4.769  0.9048 -0.5462  0.4751
 9558TIP3   OH228637   0.656   1.539   2.884  0.8400 -0.3687 -0.1590
 9558TIP3    H128638   0.603   1.516   2.808  0.6058  0.5932 -0.3038
 9558TIP3    H228639   0.746   1.524   2.857  0.8742  1.4077 -1.1869
 9559TIP3   OH228640   5.511   1.398   4.690  0.6140  0.3765  0.1043
 9559TIP3    H128641   5.555   1.314   4.683 -0.2227 -0.1394  0.7980
 9559TIP3    H228642   5.419   1.379   4.670  0.4140  1.1248  0.2692
 9560TIP3   OH228643   1.263   4.246   2.057  0.9674 -0.3952 -0.3507
 9560TIP3    H128644   1.334   4.302   2.024  0.6464  0.0584 -0.2815
 9560TIP3    H228645   1.266   4.257   2.152  1.5698 -1.3134 -0.2484
 9561TIP3   OH228646   5.708   6.711   5.441  0.4476  0.2719  0.3358
 9561TIP3    H128647   5.764   6.648   5.396  1.1025  0.4030  0.9490
 9561TIP3    H228648   5.766   6.785   5.460 -0.4412  1.2969 -0.8507
 9562TIP3   OH228649   2.347   6.490   0.439 -0.9467 -0.0980 -0.4642
 9562TIP3    H128650   2.281   6.491   0.508 -1.4946  0.3835 -0.9802
 9562TIP3    H228651   2.403   6.565   0.458 -1.1292  0.0661 -0.5615
 9563TIP3   OH228652   2.434   6.660   5.142 -0.0939 -0.2243 -0.1682
 9563TIP3    H128653   2.497   6.620   5.202  0.6264 -0.1599 -0.8601
 9563TIP3    H228654   2.443   6.611   5.061  1.3548  1.7070 -1.2845
 9564TIP3   OH228655   1.647   1.657   1.545 -0.3750 -0.2574 -0.1638
 9564TIP3    H128656   1.669   1.580   1.597  1.6653 -0.0803 -0.6694
 9564TIP3    H228657   1.639   1.727   1.609  0.3600 -0.3947  0.0987
 9565TIP3   OH228658   5.425   4.296   0.583  0.9619  0.4422 -0.1423
 9565TIP3    H128659   5.367   4.354   0.633  2.0146  0.8649  0.6162
 9565TIP3    H228660   5.463   4.238   0.648  1.6911  0.4357 -0.5689
 9566TIP3   OH228661   6.510   2.404   1.367  0.1172  0.4506 -0.0653
 9566TIP3    H128662   6.466   2.437   1.288 -0.3430 -0.0710 -0.0349
 9566TIP3    H228663   6.444   2.413   1.436 -0.0811 -0.6461 -0.0856
 9567TIP3   OH228664   4.756   2.380   2.474  0.0988 -0.2793 -0.5441
 9567TIP3    H128665   4.758   2.327   2.554  2.8721 -0.1204 -0.4043
 9567TIP3    H228666   4.675   2.431   2.481 -1.1833 -2.3226  0.7220
 9568TIP3   OH228667   3.553   3.555   5.131  0.3113  0.3702  0.1788
 9568TIP3    H128668   3.630   3.500   5.142  0.7009  0.9280  0.2583
 9568TIP3    H228669   3.522   3.536   5.043  0.2793 -0.1772  0.3023
 9569TIP3   OH228670   3.489   0.571   3.011 -0.6656 -0.2978  0.1017
 9569TIP3    H128671   3.566   0.553   3.064  0.1051 -0.2221 -0.9541
 9569TIP3    H228672   3.461   0.484   2.979  1.3655 -0.0639 -2.6885
 9570TIP3   OH228673   6.544   0.604   5.738  0.0929 -0.0442 -0.5861
 9570TIP3    H128674   6.521   0.517   5.771 -0.0255 -1.7816 -4.7246
 9570TIP3    H228675   6.459   0.646   5.720  0.1647  0.6468  0.5742
 9571TIP3   OH228676   6.535   4.660   5.789 -0.4038 -0.1394  0.2858
 9571TIP3    H128677   6.490   4.604   5.852  0.2964 -0.1330  0.8096
 9571TIP3    H228678   6.627   4.634   5.796 -0.3504 -0.3045 -0.9199
 9572TIP3   OH228679   1.860   1.372   3.753 -0.2627  0.1086  0.4967
 9572TIP3    H128680   1.931   1.329   3.706  1.2286  1.5516  1.3217
 9572TIP3    H228681   1.781   1.349   3.704  0.6992 -1.8257 -0.2567
 9573TIP3   OH228682   1.623   3.238   5.597  0.4196 -0.0821 -0.3749
 9573TIP3    H128683   1.594   3.174   5.531 -0.0454 -1.6165  1.2171
 9573TIP3    H228684   1.622   3.188   5.679  1.9685  1.4771  0.6370
 9574TIP3   OH228685   5.266   3.034   2.793 -0.2427 -0.1239 -0.2985
 9574TIP3    H128686   5.296   3.007   2.880  1.3719 -1.4042 -1.1807
 9574TIP3    H228687   5.214   3.113   2.809  1.2217  0.5334  1.6674
 9575TIP3   OH228688   4.804   5.623   3.047  0.0307  0.5302  0.2584
 9575TIP3    H128689   4.861   5.659   2.979  0.4433  0.2547  0.4530
 9575TIP3    H228690   4.862   5.568   3.099 -1.1076 -2.6773 -1.6308
 9576TIP3   OH228691   5.890   5.573   4.531 -0.0663  0.4956  0.8709
 9576TIP3    H128692   5.978   5.538   4.518  0.2662  1.2637  1.0205
 9576TIP3    H228693   5.855   5.521   4.603 -0.6838 -1.5088 -0.7711
 9577TIP3   OH228694   4.458   2.161   0.290 -0.9007  0.6484  0.1636
 9577TIP3    H128695   4.428   2.133   0.204 -0.0367 -0.7780  0.2947
 9577TIP3    H228696   4.553   2.148   0.288 -1.0163 -0.8395  1.8035
 9578TIP3   OH228697   2.262   0.888   1.379 -0.1652 -0.4739  0.2009
 9578TIP3    H128698   2.299   0.956   1.436 -0.6955 -0.3412  0.3909
 9578TIP3    H228699   2.338   0.838   1.349  0.1317 -0.4567  0.9124
 9579TIP3   OH228700   2.005   0.125   4.335 -0.2080 -0.5274  0.3178
 9579TIP3    H128701   2.089   0.089   4.307  0.1489  0.3446  0.2385
 9579TIP3    H228702   1.941   0.060   4.308  0.1556  0.0619 -2.1720
 9580TIP3   OH228703   6.984   5.926   1.167 -0.1768  0.4238  0.1087
 9580TIP3    H128704   7.060   5.945   1.112  0.2018 -1.0714  0.0700
 9580TIP3    H228705   6.912   5.974   1.126  0.4226  0.6021 -0.7581
 9581TIP3   OH228706   0.748   3.318   3.303  0.5619  0.9451  0.4197
 9581TIP3    H128707   0.727   3.407   3.274 -0.1177  1.2046  1.6284
 9581TIP3    H228708   0.728   3.263   3.227  0.4877  1.7662 -0.1758
 9582TIP3   OH228709   0.314   5.136   0.331 -0.4020 -0.8981 -0.7040
 9582TIP3    H128710   0.391   5.148   0.387  0.3973 -2.4207 -1.4032
 9582TIP3    H228711   0.324   5.202   0.262 -0.4258 -0.2315 -0.0821
 9583TIP3   OH228712   5.314   5.117   0.600 -0.1885  0.2615  0.2781
 9583TIP3    H128713   5.364   5.036   0.589  0.2582  0.4445  0.8873
 9583TIP3    H228714   5.373   5.187   0.572 -0.3655  0.4258  0.3042
 9584TIP3   OH228715   3.678   0.776   1.021 -0.0064 -0.1182 -0.1978
 9584TIP3    H128716   3.729   0.749   0.944 -0.7142  0.8014 -1.0024
 9584TIP3    H228717   3.745   0.800   1.086  0.6245 -2.0418 -0.0552
 9585TIP3   OH228718   2.844   0.527   0.128  0.0393  0.4182 -0.3588
 9585TIP3    H128719   2.892   0.514   0.210 -1.1730  1.9365  0.6652
 9585TIP3    H228720   2.862   0.618   0.104 -0.5632  0.3500 -1.1372
 9586TIP3   OH228721   5.389   3.396   4.057 -0.4277  0.5100 -0.2082
 9586TIP3    H128722   5.306   3.441   4.044 -0.2083  1.0519  0.2571
 9586TIP3    H228723   5.453   3.450   4.010 -0.2888  0.2580 -0.3122
 9587TIP3   OH228724   3.796   6.218   2.006 -0.0114  0.3727  0.4196
 9587TIP3    H128725   3.736   6.254   2.072 -1.6765  0.0134 -0.8288
 9587TIP3    H228726   3.776   6.268   1.926 -0.1544 -1.1597 -0.5506
 9588TIP3   OH228727   5.440   0.771   2.554  0.6314  0.0332  0.3853
 9588TIP3    H128728   5.366   0.832   2.557  2.6799  2.6974  1.9629
 9588TIP3    H228729   5.413   0.698   2.609 -0.5566  1.3545  1.6422
 9589TIP3   OH228730   1.070   3.466   3.229  0.1800 -0.7479  0.2835
 9589TIP3    H128731   1.039   3.382   3.196 -1.4139  0.6511 -2.0643
 9589TIP3    H228732   0.992   3.508   3.265 -0.4117  1.7759 -3.3730
 9590TIP3   OH228733   2.223   4.817   2.948 -0.5049  0.3260  0.2788
 9590TIP3    H128734   2.136   4.852   2.966 -0.4859  1.2922 -1.3412
 9590TIP3    H228735   2.280   4.859   3.013 -1.0062  0.8005  0.4142
 9591TIP3   OH228736   1.078   1.895   1.541  0.1422  0.0435  0.8629
 9591TIP3    H128737   1.125   1.836   1.481  2.9362  2.0267  0.9104
 9591TIP3    H228738   1.025   1.950   1.485 -0.2393 -0.5992  0.5797
 9592TIP3   OH228739   0.522   1.208   5.273  0.0890  0.1556 -0.5039
 9592TIP3    H128740   0.484   1.140   5.218  1.0381  0.9489 -2.1925
 9592TIP3    H228741   0.604   1.170   5.306 -0.9297 -0.6720  1.2105
 9593TIP3   OH228742   2.170   0.114   2.459 -0.5465  0.1834 -0.1569
 9593TIP3    H128743   2.131   0.035   2.421  0.1035 -1.0056  1.4948
 9593TIP3    H228744   2.236   0.141   2.396 -0.1269 -1.1781 -0.3273
 9594TIP3   OH228745   2.859   5.067   2.824  0.5509 -0.2958 -0.2514
 9594TIP3    H128746   2.823   5.105   2.743 -1.0264 -0.3334  0.3935
 9594TIP3    H228747   2.809   4.987   2.837  1.7703 -1.0331  0.0277
 9595TIP3   OH228748   5.940   0.628   4.477  0.4302  0.3152  0.3021
 9595TIP3    H128749   6.000   0.621   4.403  1.0860 -1.2579  0.9526
 9595TIP3    H228750   5.930   0.722   4.491  0.4307  0.6548 -1.6490
 9596TIP3   OH228751   6.760   6.074   1.940  0.4689 -0.2586  0.0764
 9596TIP3    H128752   6.756   6.168   1.957 -0.6938 -0.2032 -0.4542
 9596TIP3    H228753   6.775   6.067   1.846 -2.1574 -0.5813 -0.3837
 9597TIP3   OH228754   0.381   0.001   5.489 -0.1518  0.6807 -0.3670
 9597TIP3    H128755   0.296   0.044   5.484 -0.7601 -0.5383 -0.9703
 9597TIP3    H228756   0.424   0.040   5.565 -1.0075  1.7256 -0.4014
 9598TIP3   OH228757   0.564   2.061   2.312  0.1009 -0.2143 -0.6181
 9598TIP3    H128758   0.539   2.061   2.219 -0.5939 -2.0488 -0.4619
 9598TIP3    H228759   0.658   2.046   2.311  0.2356  0.5708 -1.0282
 9599TIP3   OH228760   3.881   3.155   2.475 -0.0344 -0.2286  0.2996
 9599TIP3    H128761   3.938   3.228   2.452 -0.2689  0.2714  1.2438
 9599TIP3    H228762   3.850   3.121   2.391  2.0994 -0.8901 -0.2735
 9600TIP3   OH228763   6.532   6.287   4.089 -0.3765 -0.9934  0.3243
 9600TIP3    H128764   6.572   6.200   4.092  0.7736 -0.5686 -1.2633
 9600TIP3    H228765   6.513   6.302   3.997  0.4165  0.8360  0.4104
 9601TIP3   OH228766   3.779   2.221   2.033  0.4099 -0.0538 -0.7190
 9601TIP3    H128767   3.816   2.138   2.064 -1.3569 -1.1062 -1.3222
 9601TIP3    H228768   3.731   2.255   2.108  1.7310  0.8358 -0.2388
 9602TIP3   OH228769   3.912   1.579   0.651 -0.3289 -0.6959  0.0186
 9602TIP3    H128770   3.919   1.623   0.735 -0.9157  0.0354 -0.3104
 9602TIP3    H228771   3.948   1.641   0.588 -0.7493 -0.8611 -0.3917
 9603TIP3   OH228772   1.776   0.227   3.012  0.0381 -0.5109 -0.3416
 9603TIP3    H128773   1.716   0.159   3.042 -2.3122  0.9905 -1.3606
 9603TIP3    H228774   1.756   0.238   2.919  0.0701  1.8161 -0.1271
 9604TIP3   OH228775   2.704   4.085   4.604 -0.1459  0.5786 -0.7292
 9604TIP3    H128776   2.703   4.054   4.695 -1.3610  1.4472 -0.4183
 9604TIP3    H228777   2.797   4.101   4.585  0.1307  0.3071  0.3257
 9605TIP3   OH228778   2.682   5.217   1.603 -0.0517 -0.5175  0.4753
 9605TIP3    H128779   2.711   5.228   1.512  2.4508  0.9830  1.3429
 9605TIP3    H228780   2.679   5.122   1.615  1.1085 -0.7528 -0.7726
 9606TIP3   OH228781   3.427   6.554   1.670  0.2308 -0.4006  0.0404
 9606TIP3    H128782   3.490   6.556   1.741  0.4196 -0.5825 -0.1220
 9606TIP3    H228783   3.478   6.529   1.593  0.5364  2.1417 -0.6791
 9607TIP3   OH228784   2.251   0.824   1.896  0.0650  0.1633  0.1167
 9607TIP3    H128785   2.217   0.766   1.828 -0.3905  1.7879 -1.1159
 9607TIP3    H228786   2.173   0.853   1.944  0.5050 -2.2388  2.5044
 9608TIP3   OH228787   4.739   0.259   1.936  0.0326  0.1828 -0.3392
 9608TIP3    H128788   4.816   0.314   1.952  0.0980 -0.2029  0.6965
 9608TIP3    H228789   4.666   0.312   1.967  0.2077 -0.7747  1.8744
 9609TIP3   OH228790   0.314   2.363   3.511 -0.4001  0.3831  0.2230
 9609TIP3    H128791   0.258   2.352   3.589 -0.7693  2.6394  0.3447
 9609TIP3    H228792   0.395   2.400   3.545  0.3133 -0.7331 -0.2300
 9610TIP3   OH228793   4.856   6.664   2.209 -0.2030  0.0292 -0.0575
 9610TIP3    H128794   4.910   6.609   2.266 -0.9671  0.0254  0.6877
 9610TIP3    H228795   4.769   6.625   2.214 -0.8088  1.3833  0.6324
 9611TIP3   OH228796   0.633   2.885   4.598  0.5716 -0.4890  0.0182
 9611TIP3    H128797   0.655   2.795   4.574 -1.4346 -0.9500 -0.2773
 9611TIP3    H228798   0.632   2.933   4.515 -1.1834 -0.8910 -0.2375
 9612TIP3   OH228799   0.891   0.706   1.202  0.0381  0.3423 -0.2247
 9612TIP3    H128800   0.954   0.634   1.212  0.0140  0.4907  1.2388
 9612TIP3    H228801   0.936   0.782   1.239 -0.6826  0.6427  0.0400
 9613TIP3   OH228802   1.832   0.997   3.158 -0.1650 -0.0213  0.0418
 9613TIP3    H128803   1.829   0.990   3.253  1.1955  0.4198  0.1429
 9613TIP3    H228804   1.919   1.034   3.139 -0.6193  0.4255 -1.3351
 9614TIP3   OH228805   4.362   4.855   3.339 -0.1915 -0.2759  0.2537
 9614TIP3    H128806   4.453   4.836   3.313 -0.0340  1.3628 -0.5240
 9614TIP3    H228807   4.309   4.814   3.271  0.1232  1.5535 -1.1833
 9615TIP3   OH228808   1.565   3.825   3.573 -0.5006 -0.1885 -0.6205
 9615TIP3    H128809   1.589   3.745   3.620 -1.9638 -1.0957 -1.3128
 9615TIP3    H228810   1.644   3.878   3.573  0.6299 -1.7934 -0.4433
 9616TIP3   OH228811   3.498   2.282   1.762 -0.2473 -0.5179 -0.3217
 9616TIP3    H128812   3.424   2.281   1.822 -0.6859  1.1571 -0.7934
 9616TIP3    H228813   3.477   2.215   1.697 -0.0118 -1.9867  1.0374
 9617TIP3   OH228814   4.279   6.149   0.558 -0.0796 -0.1450 -0.4329
 9617TIP3    H128815   4.335   6.216   0.597 -0.5835  0.9423 -1.4988
 9617TIP3    H228816   4.328   6.067   0.569 -0.2570  0.0470  2.5075
 9618TIP3   OH228817   0.815   0.137   2.609 -0.1679  0.2327  0.3137
 9618TIP3    H128818   0.733   0.095   2.635 -0.0366 -1.4682 -1.7188
 9618TIP3    H228819   0.789   0.224   2.579 -1.2276 -0.2360 -0.1869
 9619TIP3   OH228820   5.333   0.938   4.608  0.7776  0.0492 -0.2811
 9619TIP3    H128821   5.328   1.032   4.624  0.7101 -0.0620  0.3782
 9619TIP3    H228822   5.427   0.919   4.605  0.8053  0.2451 -1.1436
 9620TIP3   OH228823   5.396   0.089   1.826 -0.3055  0.0466 -0.1994
 9620TIP3    H128824   5.306   0.116   1.805 -0.2154  0.3891 -0.1378
 9620TIP3    H228825   5.444   0.171   1.836  0.2329 -0.1321 -1.1564
 9621TIP3   OH228826   2.473   4.762   5.419 -0.5257  0.3542 -0.3599
 9621TIP3    H128827   2.477   4.677   5.465 -0.0210  0.2604 -0.5745
 9621TIP3    H228828   2.482   4.827   5.489 -1.8939  0.2603 -0.0726
 9622TIP3   OH228829   5.009   0.024   4.411  0.4504 -0.5867 -0.5489
 9622TIP3    H128830   5.026   0.108   4.453 -0.0956 -1.1534  0.8386
 9622TIP3    H228831   5.073  -0.036   4.449 -2.3369 -1.9881  2.3626
 9623TIP3   OH228832   2.453   0.151   1.970  0.4316 -0.4718 -0.2471
 9623TIP3    H128833   2.375   0.203   1.990  1.1979  1.3979 -1.7711
 9623TIP3    H228834   2.525   0.214   1.977  1.8011 -2.0925  0.8774
 9624TIP3   OH228835   3.306   1.481   2.423 -0.5553 -0.4951 -0.0124
 9624TIP3    H128836   3.388   1.432   2.431 -1.4145 -2.2413 -1.3399
 9624TIP3    H228837   3.238   1.418   2.446 -1.8130 -0.4913 -3.2004
 9625TIP3   OH228838   3.765   2.108   4.745 -0.0816  0.0443 -0.1887
 9625TIP3    H128839   3.759   2.049   4.820  1.0105 -0.0786 -0.1756
 9625TIP3    H228840   3.785   2.194   4.783 -1.7076  0.4512 -0.2059
 9626TIP3   OH228841   3.305   4.605   4.065  0.0881  0.3259 -0.7435
 9626TIP3    H128842   3.400   4.600   4.067  0.0831  0.5117  0.6284
 9626TIP3    H228843   3.278   4.526   4.018  0.8016 -2.1350  2.5876
 9627TIP3   OH228844   1.339   2.867   3.882  0.3551 -0.0550  0.3291
 9627TIP3    H128845   1.270   2.916   3.926  0.7837  0.7696  0.0996
 9627TIP3    H228846   1.300   2.837   3.800 -0.2731 -1.1234  0.9895
 9628TIP3   OH228847   1.943   6.643   2.049  0.9753  0.2462  0.0864
 9628TIP3    H128848   1.928   6.737   2.045  0.3955  0.1196 -1.0581
 9628TIP3    H228849   2.000   6.631   2.125  0.7639  1.4746  0.4593
 9629TIP3   OH228850   5.027   0.464   3.990  0.1931  0.4206 -0.5233
 9629TIP3    H128851   5.019   0.555   3.961  1.3170  0.3471 -1.1320
 9629TIP3    H228852   4.984   0.413   3.921 -0.7979  0.5100  0.0211
 9630TIP3   OH228853   6.681   6.562   1.230 -0.0632  0.3273  0.0628
 9630TIP3    H128854   6.743   6.579   1.159  1.6768 -3.0721  0.5410
 9630TIP3    H228855   6.735   6.562   1.309 -0.4902 -2.7453  0.4964
 9631TIP3   OH228856   0.154   5.497   2.075  0.0876 -0.1198 -0.6257
 9631TIP3    H128857   0.202   5.511   1.993  1.1635  0.3710  0.0698
 9631TIP3    H228858   0.192   5.417   2.111  0.6154  0.4202  0.0626
 9632TIP3   OH228859   1.221   1.468   2.866 -0.0155 -0.3631  0.1722
 9632TIP3    H128860   1.162   1.393   2.873 -1.6692  0.8535 -0.1280
 9632TIP3    H228861   1.220   1.507   2.953 -0.3068  0.1270 -0.0498
 9633TIP3   OH228862   0.141   0.232   1.023 -0.2080  0.0034  0.2166
 9633TIP3    H128863   0.162   0.139   1.010  0.2046 -0.0628  1.3013
 9633TIP3    H228864   0.216   0.267   1.071 -0.8119  0.6749  0.6837
 9634TIP3   OH228865   5.109   5.362   0.774 -0.4742 -0.3118 -0.1011
 9634TIP3    H128866   5.087   5.271   0.757 -1.0948 -0.3162  0.6856
 9634TIP3    H228867   5.115   5.402   0.687 -3.7129 -0.2741 -0.4179
 9635TIP3   OH228868   0.391   2.918   2.380 -0.2669 -0.2419  0.5160
 9635TIP3    H128869   0.346   3.002   2.370 -0.0341  0.2446  2.8836
 9635TIP3    H228870   0.476   2.941   2.417 -0.3196 -1.5087  1.5060
 9636TIP3   OH228871   2.676   3.153   5.373 -0.0684  0.2695 -0.4513
 9636TIP3    H128872   2.617   3.078   5.366  0.5014 -0.0640 -2.0937
 9636TIP3    H228873   2.621   3.229   5.356 -0.3288  0.0971 -0.3821
 9637TIP3   OH228874   4.846   3.789   3.526 -0.0830  0.2289  0.4225
 9637TIP3    H128875   4.879   3.813   3.440 -1.0394 -2.7967 -0.9123
 9637TIP3    H228876   4.751   3.790   3.517 -0.2105  0.4429  1.6251
 9638TIP3   OH228877   1.958   2.406   4.963  0.8665 -0.3283  0.2151
 9638TIP3    H128878   1.891   2.381   5.026  0.7645 -1.0564 -0.1707
 9638TIP3    H228879   2.024   2.452   5.015 -0.4686  1.4523  0.4096
 9639TIP3   OH228880   1.428   2.895   1.580 -0.5964 -0.1068 -0.0825
 9639TIP3    H128881   1.340   2.860   1.573 -0.6418 -0.2011  0.8693
 9639TIP3    H228882   1.444   2.904   1.674  0.8677 -1.2428 -0.1723
 9640TIP3   OH228883   5.323  -0.027   3.815  0.7288  0.5130  0.2478
 9640TIP3    H128884   5.247   0.023   3.845  0.8375  0.5458  0.4687
 9640TIP3    H228885   5.398   0.029   3.836  1.0258 -0.5679  2.2855
 9641TIP3   OH228886   4.101   3.090   4.692  0.6392  0.1777 -0.1146
 9641TIP3    H128887   4.111   3.162   4.629 -0.8992  0.5413  0.0029
 9641TIP3    H228888   4.135   3.125   4.774  1.6542  0.0837 -0.4829
 9642TIP3   OH228889   1.520   6.533   4.806 -0.3495  0.0349  0.1431
 9642TIP3    H128890   1.462   6.555   4.879 -0.9015 -0.7302 -0.0458
 9642TIP3    H228891   1.516   6.437   4.801  1.0275 -0.0337  0.1897
 9643TIP3   OH228892   0.942   4.002   1.431 -0.1448  0.0040  0.2201
 9643TIP3    H128893   0.980   4.058   1.363  0.2413 -0.4721  0.0388
 9643TIP3    H228894   0.849   3.997   1.409  0.0802 -0.6510 -0.6457
 9644TIP3   OH228895   1.029   2.383   3.227 -0.0019  0.1151  0.0504
 9644TIP3    H128896   0.970   2.308   3.236  0.8690 -1.1858 -3.3564
 9644TIP3    H228897   1.007   2.440   3.301 -3.7579 -1.4134  0.3469
 9645TIP3   OH228898   0.980   5.325   5.402  0.1323  0.0460  0.2943
 9645TIP3    H128899   0.896   5.281   5.391 -1.0281  1.6128  2.2460
 9645TIP3    H228900   0.967   5.412   5.366  1.2987 -0.0460 -0.3939
 9646TIP3   OH228901   2.734   0.171   3.861 -0.3471 -0.0523 -0.6330
 9646TIP3    H128902   2.813   0.119   3.849  0.1912  0.0348  1.9161
 9646TIP3    H228903   2.767   0.259   3.882 -0.9031 -0.4858  2.6783
 9647TIP3   OH228904   5.041   2.735   1.257 -0.5201  0.2637 -0.2489
 9647TIP3    H128905   4.983   2.811   1.264 -2.7624 -1.3772  0.2216
 9647TIP3    H228906   5.102   2.758   1.187  0.2982  3.3105  1.2533
 9648TIP3   OH228907   5.350   4.292   1.002  0.0421 -0.0103  0.6890
 9648TIP3    H128908   5.405   4.338   1.066 -1.1908  0.2222  1.6319
 9648TIP3    H228909   5.269   4.342   0.999  0.6240  0.9501 -2.3534
 9649TIP3   OH228910   4.224   6.626   1.223 -0.3086 -0.3417  0.4425
 9649TIP3    H128911   4.297   6.616   1.162 -0.9583 -1.0021 -0.2458
 9649TIP3    H228912   4.257   6.593   1.306  0.7571  1.0456  0.6096
 9650TIP3   OH228913   1.341   4.331   2.662  0.1062  0.7025  0.0335
 9650TIP3    H128914   1.403   4.296   2.599  1.1463  1.0635  0.8395
 9650TIP3    H228915   1.314   4.256   2.714  2.2125  0.9712  1.6568
 9651TIP3   OH228916   1.530   2.166   0.233  0.2870  0.1517 -0.1739
 9651TIP3    H128917   1.440   2.163   0.264  0.1820 -3.1456 -0.4798
 9651TIP3    H228918   1.523   2.155   0.139  1.0310 -1.1108 -0.0921
 9652TIP3   OH228919   4.577   3.794   3.513 -0.3549  0.3298  0.7158
 9652TIP3    H128920   4.539   3.782   3.427  0.4697 -0.9157  0.4980
 9652TIP3    H228921   4.505   3.777   3.574 -0.5130 -0.5139  0.3000
 9653TIP3   OH228922   0.526   1.767   3.285  0.6636 -0.4771  0.1303
 9653TIP3    H128923   0.527   1.681   3.244 -1.9729 -1.7376  2.3379
 9653TIP3    H228924   0.441   1.805   3.259  0.0750 -0.2455  2.1706
 9654TIP3   OH228925   3.270   3.948   0.315 -0.0784  0.4734  0.6121
 9654TIP3    H128926   3.291   4.012   0.382  1.6578 -0.0803  0.6638
 9654TIP3    H228927   3.347   3.947   0.258 -1.1474  0.3036 -0.9000
 9655TIP3   OH228928   2.241   4.392   5.008 -0.0466  0.0146 -0.0423
 9655TIP3    H128929   2.336   4.381   5.005 -0.0254 -1.3537  2.5537
 9655TIP3    H228930   2.211   4.359   4.924  1.8232  1.7931 -1.5122
 9656TIP3   OH228931   2.532   0.833   2.607  0.5174 -0.0765 -0.1405
 9656TIP3    H128932   2.440   0.857   2.606  0.7286  0.8084 -0.0615
 9656TIP3    H228933   2.569   0.886   2.678  1.1748 -0.0168 -0.5164
 9657TIP3   OH228934   1.026   5.541   3.558 -0.1961  0.1159 -0.1196
 9657TIP3    H128935   0.932   5.541   3.578 -0.8216 -0.0401 -2.7187
 9657TIP3    H228936   1.061   5.467   3.606 -1.7410 -0.8115 -0.3684
 9658TIP3   OH228937   4.151   0.816   2.007 -0.6086 -0.2102 -0.0194
 9658TIP3    H128938   4.219   0.763   2.050 -0.1686  0.1432 -0.2716
 9658TIP3    H228939   4.160   0.902   2.047 -0.2626  0.0966 -0.7408
 9659TIP3   OH228940   4.508   0.062   0.208 -0.4843  0.2862 -0.0021
 9659TIP3    H128941   4.422   0.089   0.175  0.1800 -0.6352 -2.7658
 9659TIP3    H228942   4.488   0.012   0.287 -2.8474 -2.4522 -2.1110
 9660TIP3   OH228943   2.825   1.611   3.078  0.4559 -0.3444  0.8266
 9660TIP3    H128944   2.919   1.617   3.063  0.3080 -0.0808 -0.0301
 9660TIP3    H228945   2.802   1.522   3.052  0.2033  0.1064 -0.5892
 9661TIP3   OH228946   6.419   0.124  -0.014  0.0447 -0.3829  0.4043
 9661TIP3    H128947   6.337   0.139   0.034  0.0663 -0.7498  0.5594
 9661TIP3    H228948   6.464   0.208  -0.010 -1.1274  0.3821 -1.2517
 9662TIP3   OH228949   4.423   5.676   3.198 -0.0329 -0.5762 -0.7278
 9662TIP3    H128950   4.359   5.734   3.240 -0.6650 -1.0696 -1.0048
 9662TIP3    H228951   4.504   5.728   3.196 -0.5582  0.2598 -0.8781
 9663TIP3   OH228952   3.102   0.998   0.450 -0.2082  0.8244  0.0246
 9663TIP3    H128953   3.192   0.989   0.416  0.7477  1.9954  2.0637
 9663TIP3    H228954   3.058   1.053   0.385  0.5136  0.2028 -1.0294
 9664TIP3   OH228955   4.099   2.439   5.502 -0.5082  0.4484  0.6176
 9664TIP3    H128956   4.080   2.426   5.409  1.7050 -1.8496  0.3955
 9664TIP3    H228957   4.151   2.519   5.504 -1.9806  1.4672  0.1415
 9665TIP3   OH228958   4.144   1.487   3.703  0.1690  0.6360  0.1219
 9665TIP3    H128959   4.215   1.515   3.646 -1.4807  3.1206 -0.8854
 9665TIP3    H228960   4.159   1.393   3.716  2.5243  0.7005 -1.5702
 9666TIP3   OH228961   6.016   4.862   1.577 -0.0047  0.0526  0.1597
 9666TIP3    H128962   5.951   4.876   1.508 -1.1477  0.1473  1.2095
 9666TIP3    H228963   6.097   4.899   1.542 -0.7466  0.8118 -0.8153
 9667TIP3   OH228964   1.532   5.355   0.079 -0.4576  0.1688  0.1509
 9667TIP3    H128965   1.484   5.437   0.070  0.3107  0.4435 -2.2157
 9667TIP3    H228966   1.476   5.300   0.133 -1.4817  1.8744  0.8961
 9668TIP3   OH228967   2.179   1.186   4.353 -0.3265 -0.2064 -0.0582
 9668TIP3    H128968   2.149   1.277   4.343 -0.1883 -0.0560  0.8426
 9668TIP3    H228969   2.250   1.178   4.290  0.0235  0.4770  0.2396
 9669TIP3   OH228970   6.341   5.095   5.608  0.1140 -0.7569  0.2356
 9669TIP3    H128971   6.313   5.081   5.699 -1.8123  0.2750 -0.1210
 9669TIP3    H228972   6.413   5.158   5.615 -1.7881  1.4892  0.9937
 9670TIP3   OH228973   1.125   5.705   5.890  0.3208 -0.0628 -0.1016
 9670TIP3    H128974   1.204   5.652   5.884 -0.3927 -1.2891  0.7784
 9670TIP3    H228975   1.096   5.716   5.799  0.2867 -1.5182 -0.2818
 9671TIP3   OH228976   1.057   0.241   3.708 -0.5160 -0.1651  0.6605
 9671TIP3    H128977   1.146   0.241   3.672 -0.3065 -1.6658  1.1040
 9671TIP3    H228978   1.068   0.265   3.800 -0.4819 -0.9227  0.8625
 9672TIP3   OH228979   0.152   2.220   3.161 -0.4579  0.6051 -0.1195
 9672TIP3    H128980   0.139   2.263   3.077  0.7637 -0.2005 -0.7460
 9672TIP3    H228981   0.107   2.276   3.224 -2.1217  0.7799 -1.4018
 9673TIP3   OH228982   5.016   1.656   2.675  0.2504  0.5206 -0.2253
 9673TIP3    H128983   4.976   1.597   2.739 -0.0553  0.7478 -0.2076
 9673TIP3    H228984   4.994   1.617   2.590  0.7895  0.1321 -0.1959
 9674TIP3   OH228985   1.899   1.629   4.285  0.1854 -0.3491 -0.2459
 9674TIP3    H128986   1.929   1.720   4.280 -0.8518  0.0096 -0.2873
 9674TIP3    H228987   1.845   1.618   4.207 -0.5301 -0.6751  0.2857
 9675TIP3   OH228988   1.743   4.308   4.611 -0.1852  0.5172  0.4765
 9675TIP3    H128989   1.752   4.214   4.626 -0.4352  0.6061  1.2017
 9675TIP3    H228990   1.832   4.339   4.597 -0.3031 -0.2689 -2.5871
 9676TIP3   OH228991   4.012   0.403   2.452 -0.2580  0.4515  0.2096
 9676TIP3    H128992   4.063   0.469   2.500  0.4342 -0.1193  0.2742
 9676TIP3    H228993   4.050   0.320   2.478  0.8519  0.1536 -2.0983
 9677TIP3   OH228994   4.853   4.776   5.390  0.4393 -0.7897  0.3646
 9677TIP3    H128995   4.772   4.732   5.415  0.5816 -0.5803  1.2212
 9677TIP3    H228996   4.903   4.709   5.343 -0.2338 -0.9088 -0.1939
 9678TIP3   OH228997   2.163   0.170   1.236 -0.1336  0.2101  0.3590
 9678TIP3    H128998   2.198   0.122   1.311 -0.0828  0.4187  0.4679
 9678TIP3    H228999   2.069   0.170   1.249 -0.0195  2.8351  2.0252
 9679TIP3   OH229000   3.291   6.698   1.493  0.2429  0.4922 -0.0853
 9679TIP3    H129001   3.239   6.624   1.464 -1.7212  0.7987  2.3654
 9679TIP3    H229002   3.328   6.671   1.577  1.7533  1.3342 -0.4301
 9680TIP3   OH229003   2.621   3.142   1.680 -0.1278  0.2370 -0.4507
 9680TIP3    H129004   2.709   3.120   1.647  0.3038  1.7642 -0.3760
 9680TIP3    H229005   2.623   3.115   1.772  0.4296  0.6945 -0.3235
 9681TIP3   OH229006   6.066   5.346   1.858 -0.0169 -0.0764  0.0438
 9681TIP3    H129007   6.135   5.395   1.903 -0.1185  0.4648 -0.3850
 9681TIP3    H229008   6.078   5.256   1.887  0.2494  0.1781  0.7454
 9682TIP3   OH229009   0.009   0.825   5.750  0.4130 -0.3311  0.1814
 9682TIP3    H129010  -0.021   0.915   5.737  1.2557 -0.2834 -1.7499
 9682TIP3    H229011   0.104   0.833   5.758  0.5967 -1.1242 -1.0342
 9683TIP3   OH229012   6.612   4.391   2.721 -0.0710 -0.4849  0.0321
 9683TIP3    H129013   6.537   4.376   2.663 -0.0134  1.4139 -0.6163
 9683TIP3    H229014   6.682   4.421   2.663  0.5060 -0.1512  0.8854
 9684TIP3   OH229015   4.142   5.342   4.114 -0.3154  0.4690  0.1846
 9684TIP3    H129016   4.229   5.302   4.109 -0.7711 -0.5229 -0.2828
 9684TIP3    H229017   4.153   5.430   4.079  0.2444 -0.1080 -1.1489
 9685TIP3   OH229018   2.956   1.783   1.210  0.5144  0.8556 -0.2045
 9685TIP3    H129019   2.870   1.751   1.182  1.0712 -0.2635 -0.7086
 9685TIP3    H229020   3.008   1.784   1.129  1.2638  0.5288  0.2657
 9686TIP3   OH229021   2.894   2.414   3.497 -0.3682  0.2745 -0.3410
 9686TIP3    H129022   2.852   2.350   3.439 -1.5873  0.1063  0.7028
 9686TIP3    H229023   2.987   2.390   3.495 -0.5482 -0.4250 -1.3249
 9687TIP3   OH229024   3.021   0.455   5.661 -0.7573 -0.3709 -0.0233
 9687TIP3    H129025   2.942   0.404   5.680 -0.1027 -1.6225 -0.5649
 9687TIP3    H229026   3.018   0.470   5.566  0.2467 -1.4779 -0.2489
 9688TIP3   OH229027   5.458   0.096   0.965 -0.2344 -0.3070  0.0800
 9688TIP3    H129028   5.381   0.130   1.010  0.9345 -0.2658  2.1561
 9688TIP3    H229029   5.429   0.014   0.926 -0.9336 -1.2650  2.4264
 9689TIP3   OH229030   4.361   2.298   1.900 -0.4019 -0.2478 -0.4657
 9689TIP3    H129031   4.398   2.210   1.913  0.7035 -0.3840 -3.6285
 9689TIP3    H229032   4.429   2.357   1.931  0.9523 -0.5459 -2.6580
 9690TIP3   OH229033   3.192   0.992   3.485  0.3123  0.1272  0.3773
 9690TIP3    H129034   3.267   1.020   3.432  1.8712  1.3754  3.0436
 9690TIP3    H229035   3.208   0.899   3.503  0.2530 -0.0644 -0.5207
 9691TIP3   OH229036   2.513   5.099   4.501 -0.2899 -0.2030 -0.7169
 9691TIP3    H129037   2.581   5.073   4.564 -1.0307 -1.4303 -0.4071
 9691TIP3    H229038   2.447   5.031   4.507 -1.6354  1.0244 -0.9190
 9692TIP3   OH229039   0.383   0.251   4.045 -0.3629 -0.1576  0.3223
 9692TIP3    H129040   0.427   0.285   4.123  0.1630  2.7478 -1.0839
 9692TIP3    H229041   0.405   0.314   3.976 -2.2674 -1.6124 -1.7702
 9693TIP3   OH229042   1.435   4.031   2.240  0.0760  0.0131  0.1927
 9693TIP3    H129043   1.347   4.064   2.218 -0.1658  0.1558  1.3089
 9693TIP3    H229044   1.418   3.960   2.302  0.7101 -0.6985 -0.4377
 9694TIP3   OH229045   6.238   3.776   3.259 -0.5186 -0.4756  0.1894
 9694TIP3    H129046   6.299   3.765   3.186  2.0868 -0.4698  2.2492
 9694TIP3    H229047   6.215   3.869   3.258 -0.1184 -0.3782 -0.3254
 9695TIP3   OH229048   2.875   1.839   5.480  0.6324 -0.0676  0.5151
 9695TIP3    H129049   2.824   1.775   5.530  1.1968  0.3403  1.6450
 9695TIP3    H229050   2.900   1.905   5.544  3.0557 -0.5212  0.1565
 9696TIP3   OH229051   5.241   2.757   1.752 -0.6682 -0.0895 -0.4325
 9696TIP3    H129052   5.271   2.681   1.701 -2.5366 -0.4959 -1.0106
 9696TIP3    H229053   5.315   2.818   1.749  0.9709 -1.9098  0.1885
 9697TIP3   OH229054   5.426   3.860   4.876  0.3169 -0.0090  0.1285
 9697TIP3    H129055   5.474   3.879   4.956 -0.6552  0.2632  0.6621
 9697TIP3    H229056   5.336   3.887   4.894  0.0024 -0.2663 -0.9320
 9698TIP3   OH229057   3.836   1.783   4.645 -0.3278 -0.4805  0.1670
 9698TIP3    H129058   3.865   1.702   4.687  0.9244 -0.5506 -0.7870
 9698TIP3    H229059   3.865   1.852   4.705  0.3250 -0.6495  0.0594
 9699TIP3   OH229060   2.530   2.732   1.190  0.2250 -0.4376 -0.1935
 9699TIP3    H129061   2.615   2.773   1.202  0.4185 -0.8997  0.0427
 9699TIP3    H229062   2.549   2.650   1.144 -0.3259  0.4844 -2.1768
 9700TIP3   OH229063   3.548   6.595   2.464 -0.3700 -0.4363  0.0151
 9700TIP3    H129064   3.619   6.607   2.528 -0.3023  0.9482 -0.2881
 9700TIP3    H229065   3.483   6.542   2.511 -0.3315  0.5561  1.2536
 9701TIP3   OH229066   2.116   6.780   3.959 -0.4226 -0.5894  0.2825
 9701TIP3    H129067   2.148   6.714   3.897 -1.9056 -0.9897 -0.0992
 9701TIP3    H229068   2.021   6.777   3.950 -0.5834  0.6017  1.3128
 9702TIP3   OH229069   4.885   4.445   4.490 -0.1837 -0.0143 -0.1295
 9702TIP3    H129070   4.800   4.482   4.465  0.3008 -0.0811 -1.9904
 9702TIP3    H229071   4.897   4.473   4.581 -1.4969  1.2826 -0.3167
 9703TIP3   OH229072   1.257   1.990   5.024 -0.2188  0.0018  0.3777
 9703TIP3    H129073   1.272   2.063   4.964  0.5148 -2.0386 -2.0858
 9703TIP3    H229074   1.302   1.915   4.984 -1.9188 -2.1245  2.1467
 9704TIP3   OH229075   4.207   3.324   5.294 -0.2462  0.3742 -0.4409
 9704TIP3    H129076   4.127   3.272   5.289  0.4973 -0.7123 -1.5517
 9704TIP3    H229077   4.237   3.331   5.204  0.8285  0.9215 -0.0592
 9705TIP3   OH229078   6.156   6.763   3.225  0.4964  0.5889 -0.0580
 9705TIP3    H129079   6.095   6.818   3.274  1.2053  0.7178  0.7048
 9705TIP3    H229080   6.131   6.775   3.134 -0.6267  0.6143  0.2407
 9706TIP3   OH229081   2.392   3.714   4.041 -0.0305 -0.2560  0.9026
 9706TIP3    H129082   2.403   3.761   4.124 -3.2448 -0.2639  1.4539
 9706TIP3    H229083   2.396   3.621   4.065  0.8881 -0.2917  0.6818
 9707TIP3   OH229084   5.871   0.064   1.820  0.3632  0.1779 -0.0759
 9707TIP3    H129085   5.783   0.027   1.828 -0.8636  3.1592  1.5064
 9707TIP3    H229086   5.929  -0.013   1.823 -2.0818 -1.8038 -0.1629
 9708TIP3   OH229087   3.582   6.247   1.199 -0.2739  0.5048 -0.1220
 9708TIP3    H129088   3.601   6.231   1.291  0.9899 -0.3510 -0.5132
 9708TIP3    H229089   3.494   6.211   1.186  0.0983 -0.6494  0.4307
 9709TIP3   OH229090   1.272   3.854   1.363 -0.8989  0.1838  0.2866
 9709TIP3    H129091   1.245   3.855   1.455 -1.7137  1.5640  0.0615
 9709TIP3    H229092   1.209   3.912   1.319 -0.6684 -0.6380 -1.1846
 9710TIP3   OH229093   1.625   1.271   5.521 -0.2639  0.0359 -0.2514
 9710TIP3    H129094   1.585   1.281   5.607  0.8768  2.9115  0.0627
 9710TIP3    H229095   1.586   1.340   5.467  1.4032  0.4537 -1.0172
 9711TIP3   OH229096   5.801   1.276   4.784 -0.2955 -0.9736 -0.5720
 9711TIP3    H129097   5.837   1.316   4.863 -0.9160 -1.3231 -0.1050
 9711TIP3    H229098   5.786   1.349   4.724 -1.4272 -0.4960  0.2652
 9712TIP3   OH229099   6.527   4.582   3.212 -0.7175 -0.0479  0.6055
 9712TIP3    H129100   6.573   4.507   3.173  0.5742  0.5534  0.9406
 9712TIP3    H229101   6.513   4.557   3.303  0.1188  0.2869  0.8333
 9713TIP3   OH229102   3.048   3.030   0.784 -0.5871 -0.1805  0.4502
 9713TIP3    H129103   2.978   3.054   0.723 -0.6146 -0.5711  0.3245
 9713TIP3    H229104   3.003   2.983   0.854 -0.1393 -3.2136 -1.1301
 9714TIP3   OH229105   3.188   6.662   1.202 -0.3229 -0.4222 -0.4789
 9714TIP3    H129106   3.176   6.568   1.189  0.5307 -0.7670  0.9678
 9714TIP3    H229107   3.280   6.678   1.181 -0.3994  0.0342 -0.4749
 9715TIP3   OH229108   1.900   0.098   3.270  0.0969 -0.1580 -0.0452
 9715TIP3    H129109   1.887   0.179   3.320 -0.4730  0.9035 -1.7970
 9715TIP3    H229110   1.853   0.113   3.188  1.7655 -1.4223 -1.3107
 9716TIP3   OH229111   1.132   3.811   4.885  0.8330  0.3940 -0.0585
 9716TIP3    H129112   1.099   3.895   4.855  0.9160  0.4296 -0.0504
 9716TIP3    H229113   1.055   3.765   4.919  0.7588  0.3959 -0.2260
 9717TIP3   OH229114   2.048   4.466   1.690 -0.9099 -0.3118 -0.5290
 9717TIP3    H129115   2.048   4.459   1.595 -0.7801 -1.1478 -0.4699
 9717TIP3    H229116   2.133   4.505   1.711 -0.6118 -0.8648 -0.7048
 9718TIP3   OH229117   3.797   1.918   1.034  0.8757  0.2898  0.1385
 9718TIP3    H129118   3.741   1.995   1.031  0.9832  0.4729  1.8381
 9718TIP3    H229119   3.868   1.941   1.094  1.6181 -0.6898 -0.3213
 9719TIP3   OH229120   1.428   2.578   3.815 -0.1239 -0.2393 -0.2080
 9719TIP3    H129121   1.471   2.659   3.789  0.0108  0.0401  0.8320
 9719TIP3    H229122   1.441   2.519   3.741  0.6080  0.3808 -0.5856
 9720TIP3   OH229123   3.178   0.640   0.527 -0.3277 -0.3315 -0.4708
 9720TIP3    H129124   3.143   0.715   0.576  0.3755  0.3564 -0.9941
 9720TIP3    H229125   3.148   0.564   0.576 -0.2182  0.3174  0.6446
 9721TIP3   OH229126   3.488   0.641   4.266  0.4547  0.5180  0.5331
 9721TIP3    H129127   3.571   0.685   4.287  0.9661  0.3683 -1.0398
 9721TIP3    H229128   3.439   0.706   4.215  0.5886 -0.1701 -0.5125
 9722TIP3   OH229129   3.258   5.948   1.006 -0.3351  0.4714 -0.3169
 9722TIP3    H129130   3.263   5.901   1.089  1.1481  0.2101 -0.5209
 9722TIP3    H229131   3.206   6.026   1.025 -0.4163  0.1766  0.7307
 9723TIP3   OH229132   6.944   2.865   0.862  0.8167 -0.4548 -0.0473
 9723TIP3    H129133   6.922   2.897   0.774 -0.3182 -1.0668 -0.0037
 9723TIP3    H229134   6.956   2.944   0.914  0.2688 -0.0832 -0.4700
 9724TIP3   OH229135   2.173   2.114   2.243 -0.3732  0.5805 -0.4670
 9724TIP3    H129136   2.220   2.195   2.263  1.5334 -0.8476  1.3370
 9724TIP3    H229137   2.199   2.093   2.153 -1.2321  2.1151 -1.1221
 9725TIP3   OH229138   0.634   4.234   0.419 -0.2434 -0.1753  0.0547
 9725TIP3    H129139   0.620   4.140   0.404 -2.5444  0.1306 -0.1298
 9725TIP3    H229140   0.650   4.241   0.513 -1.1025 -0.6778  0.2503
 9726TIP3   OH229141   2.779   2.173   2.585 -0.3298 -0.0772  0.3325
 9726TIP3    H129142   2.701   2.118   2.583 -0.3347 -0.0665 -1.6078
 9726TIP3    H229143   2.746   2.263   2.575 -0.0683 -0.1010 -0.8384
 9727TIP3   OH229144   1.400   0.320   4.242  0.2836  0.1578  0.7918
 9727TIP3    H129145   1.337   0.392   4.245  0.8971  0.7188  0.5409
 9727TIP3    H229146   1.361   0.252   4.297  0.2481  1.1477  2.0388
 9728TIP3   OH229147   1.216   0.367   0.978  0.1976  0.6491 -0.0762
 9728TIP3    H129148   1.219   0.320   0.894 -1.8558  2.5576 -1.3290
 9728TIP3    H229149   1.224   0.459   0.953 -1.6702  1.3573  1.6855
 9729TIP3   OH229150   6.367   0.351   5.193 -0.2825  0.4490  0.5453
 9729TIP3    H129151   6.425   0.366   5.118 -0.3400  0.3110  0.4714
 9729TIP3    H229152   6.318   0.433   5.203 -1.4737 -0.0695 -0.6251
 9730TIP3   OH229153   2.632   0.194   4.371 -0.4622  0.7768 -0.0020
 9730TIP3    H129154   2.609   0.270   4.318  0.5254  1.0817 -0.0103
 9730TIP3    H229155   2.548   0.159   4.400 -1.0007  0.9590 -1.2676
 9731TIP3   OH229156   3.262   4.622   5.435  0.0819 -0.6990 -0.0621
 9731TIP3    H129157   3.227   4.595   5.520  0.5288  0.9934  0.6937
 9731TIP3    H229158   3.270   4.540   5.386 -0.9094 -1.6221  1.2373
 9732TIP3   OH229159   5.992   5.693   0.058 -0.3473  0.1974 -0.1526
 9732TIP3    H129160   5.904   5.659   0.043 -0.1677  0.9636 -4.1109
 9732TIP3    H229161   5.979   5.784   0.083 -0.6486 -0.4450  2.2365
 9733TIP3   OH229162   4.987   4.070   0.055 -0.1188  0.2297 -0.1616
 9733TIP3    H129163   5.069   4.054   0.102  0.0268 -0.9215 -0.7912
 9733TIP3    H229164   5.003   4.152   0.007  2.1087 -1.8427 -3.3001
 9734TIP3   OH229165   4.800   1.944   3.138  0.2580 -0.1453 -0.0497
 9734TIP3    H129166   4.886   1.973   3.108  0.5895 -0.2029  0.8044
 9734TIP3    H229167   4.740   2.012   3.109  0.4025 -0.6452 -1.6419
 9735TIP3   OH229168   2.702   3.463   0.786  0.5828  0.5312 -0.0679
 9735TIP3    H129169   2.789   3.471   0.826 -0.2414  0.1601  1.9320
 9735TIP3    H229170   2.648   3.525   0.835 -0.7498 -0.8319  0.2422
 9736TIP3   OH229171   1.017   0.891   0.998  0.4124  0.6100  0.5707
 9736TIP3    H129172   1.056   0.910   1.083  0.3401 -0.3573  0.8389
 9736TIP3    H229173   0.981   0.802   1.008 -1.3341  1.2216  0.1487
 9737TIP3   OH229174   2.506   1.910   0.665  0.2409  0.0466  0.5520
 9737TIP3    H129175   2.528   1.908   0.758  0.7345 -2.2127  0.4319
 9737TIP3    H229176   2.550   1.988   0.631  0.0666  0.8956  2.1738
 9738TIP3   OH229177   4.550   4.589   3.527 -0.1581  0.2023  0.2674
 9738TIP3    H129178   4.592   4.518   3.575 -2.0088 -1.5133 -0.5413
 9738TIP3    H229179   4.549   4.662   3.589  0.3417 -0.9615  1.7047
 9739TIP3   OH229180   4.536   6.298   5.038  0.1876 -0.1139  0.1077
 9739TIP3    H129181   4.511   6.286   5.130  0.9750 -2.5216  0.0871
 9739TIP3    H229182   4.626   6.266   5.034  0.6442  1.2261 -1.2700
 9740TIP3   OH229183   2.325   0.446   0.254  0.4029 -0.5580 -0.2185
 9740TIP3    H129184   2.361   0.386   0.320 -0.3339  0.2831  1.0036
 9740TIP3    H229185   2.368   0.530   0.273  1.2423 -0.6188 -1.7497
 9741TIP3   OH229186   5.716   3.796   3.050 -0.4282  0.2961 -0.1150
 9741TIP3    H129187   5.796   3.744   3.059 -0.5999 -0.8356 -3.4935
 9741TIP3    H229188   5.746   3.882   3.022 -0.2823 -0.4716 -2.5988
 9742TIP3   OH229189   3.390   2.149   3.596 -0.5579  0.4080 -0.5968
 9742TIP3    H129190   3.428   2.116   3.677 -1.1385 -2.9890 -1.5577
 9742TIP3    H229191   3.299   2.122   3.600 -1.2777  2.5715 -1.2598
 9743TIP3   OH229192   6.417   5.003   4.842 -0.8123  0.0579  0.5436
 9743TIP3    H129193   6.458   4.940   4.783 -1.7760  1.1767 -1.4036
 9743TIP3    H229194   6.469   5.083   4.831  0.2126 -0.2306  2.7563
 9744TIP3   OH229195   6.301   5.554   1.660  0.9282  0.0545 -0.3444
 9744TIP3    H129196   6.347   5.491   1.715  0.9021 -0.4471 -0.8891
 9744TIP3    H229197   6.368   5.586   1.599  1.4681  2.0963  1.2003
 9745TIP3   OH229198   1.614   2.413   4.265 -0.0156 -0.0956 -0.1727
 9745TIP3    H129199   1.564   2.419   4.184 -2.3123 -2.2708  0.9281
 9745TIP3    H229200   1.692   2.363   4.241 -0.8040 -0.9671 -1.0250
 9746TIP3   OH229201   4.392   5.119   0.346  0.5767  0.7074 -0.1521
 9746TIP3    H129202   4.446   5.167   0.284  0.2481  1.1857 -0.0729
 9746TIP3    H229203   4.363   5.041   0.298  2.5718 -0.3713  0.2871
 9747TIP3   OH229204   3.855   2.197   3.075  0.2394  0.0724 -0.2117
 9747TIP3    H129205   3.941   2.200   3.034 -0.1591  0.6620 -1.0315
 9747TIP3    H229206   3.856   2.267   3.140  0.1442  0.5431 -0.7107
 9748TIP3   OH229207   0.659   0.236   0.072 -0.5382 -0.0996 -0.1945
 9748TIP3    H129208   0.752   0.223   0.054 -1.2357 -1.5591 -3.3719
 9748TIP3    H229209   0.646   0.330   0.065  0.8025  0.2266  1.1786
 9749TIP3   OH229210   0.178   4.546   2.885  0.2735 -0.1158 -0.3019
 9749TIP3    H129211   0.187   4.512   2.796 -0.2097  3.0664 -1.7426
 9749TIP3    H229212   0.171   4.469   2.941  2.7802 -2.3144 -2.7291
   7.20581   6.79372   5.88351   0.00000   0.00000  -2.40194   0.00000  -2.40194  -3.39685
